FOO
135168
    1MOL0     O    1   0.865   8.106   9.415 -0.0008 -0.1089 -0.0856
    1MOL0     C    2   0.851   8.227   9.430 -0.5544  1.2188 -1.0329
    1MOL0     O    3   0.952   8.312   9.459 -0.3481 -0.1135 -0.2520
    1MOL0     C    4   1.081   8.264   9.435  0.4888  0.2235 -0.6014
    1MOL0     C    5   1.161   8.238   9.549 -0.3019  0.5538 -0.0657
    1MOL0     C    6   1.299   8.212   9.527 -0.1670  0.0830 -0.6349
    1MOL0     C    7   1.351   8.204   9.396  0.0902 -0.0098 -0.0166
    1MOL0     O    8   1.480   8.159   9.368  0.3502  0.0924 -0.2657
    1MOL0     C    9   1.591   8.192   9.451 -0.6129 -0.4321 -0.6269
    1MOL0     C   10   1.722   8.124   9.396 -0.0786  0.3711  0.8968
    1MOL0     C   11   1.844   8.166   9.474  0.4212 -1.6758 -0.3814
    1MOL0     C   12   1.867   8.321   9.456 -0.6300  1.0122 -0.6836
    1MOL0     C   13   1.997   8.375   9.534  0.3561  0.1788 -0.4655
    1MOL0     C   14   2.133   8.339   9.466  0.7416 -0.9045  0.2584
    1MOL0     C   15   2.245   8.344   9.573 -0.3362 -0.1775  0.5020
    1MOL0     C   16   2.374   8.308   9.515 -0.2949  0.1934  0.2848
    1MOL0     N   17   2.420   8.405   9.400 -0.2384 -0.1449  0.6775
    1MOL0     C   18   2.487   8.525   9.419 -0.0320  0.3357 -0.8561
    1MOL0     C   19   2.495   8.580   9.301  0.2762 -0.1011 -0.1452
    1MOL0     C   20   2.551   8.708   9.256  0.2016 -0.1379 -0.1253
    1MOL0     C   21   2.516   8.833   9.342 -0.0874 -1.3983  0.3511
    1MOL0     C   22   2.376   8.886   9.286  0.2813  0.5583 -0.0673
    1MOL0     C   23   2.250   8.801   9.311  0.1619 -0.2532  0.1281
    1MOL0     O   24   2.151   8.866   9.242  0.0292 -0.3124  0.6673
    1MOL0     C   25   2.023   8.865   9.297 -0.0693 -0.1241  0.2140
    1MOL0     C   26   1.972   8.782   9.391  0.1732 -0.0136 -0.3468
    1MOL0     C   27   1.833   8.770   9.422  0.9232  0.1919 -0.8013
    1MOL0     C   28   1.742   8.875   9.376 -0.3621 -0.0735 -0.2101
    1MOL0     C   29   1.608   8.889   9.428 -0.2369  0.5035 -0.3029
    1MOL0     O   30   1.556   8.780   9.506 -0.3657 -0.7767  0.9831
    1MOL0     C   31   1.420   8.771   9.522  0.0760 -0.1710 -0.2384
    1MOL0     C   32   1.340   8.872   9.584 -0.4796 -0.2376  0.0434
    1MOL0     C   33   1.214   8.836   9.626 -0.3471 -0.6307 -0.5883
    1MOL0     C   34   1.159   8.709   9.605  1.0628 -0.3795  0.2562
    1MOL0     O   35   1.040   8.698   9.671  0.3043  0.1583 -0.0074
    1MOL0     C   36   0.958   8.578   9.651 -0.2496 -0.5996  0.9291
    1MOL0     C   37   0.823   8.593   9.717 -0.3200  0.6407 -0.5554
    1MOL0     C   38   0.753   8.458   9.742 -0.9140 -0.1125 -0.0402
    1MOL0     C   39   0.608   8.464   9.732  0.4512  0.7304 -1.3899
    1MOL0     C   40   0.539   8.330   9.764 -0.1584  0.4214  0.5490
    1MOL0     C   41   0.406   8.328   9.689  0.0783 -1.3155 -0.2907
    1MOL0     C   42   0.348   8.187   9.697 -0.2378  0.5027 -0.4926
    1MOL0     C   43   0.211   8.178   9.631 -0.1982 -0.9225 -0.1435
    1MOL0    Cl   44   0.161   8.015   9.571  0.3428 -0.6559  0.8224
    1MOL0     C   45   1.228   8.612   9.534  0.5228 -0.8708 -0.1192
    1MOL0     C   46   1.360   8.639   9.503 -0.1876 -0.5045 -0.2325
    1MOL0     O   47   1.541   8.992   9.398 -0.3401 -0.3765 -0.3619
    1MOL0     C   48   1.797   8.971   9.286  0.2141 -0.1052 -0.5040
    1MOL0     C   49   1.934   8.963   9.251  0.2364 -0.1168 -0.0476
    1MOL0     N   50   2.432   8.493   9.205  0.2735  0.1030 -0.3237
    1MOL0     N   51   2.394   8.386   9.265 -0.3597 -0.6297  0.9033
    1MOL0     C   52   1.261   8.226   9.291 -0.8362  0.1241 -0.0255
    1MOL0     C   53   1.128   8.267   9.312 -0.8576 -0.0530  0.4822
    1MOL0     C   54   0.716   8.285   9.402  0.6526 -0.4728  0.3007
    1MOL0     C   55   0.610   8.199   9.361 -0.0638 -1.4060 -0.3507
    1MOL0     C   56   0.491   8.250   9.310  0.8398  0.3809 -1.1548
    1MOL0     C   57   0.462   8.388   9.312 -0.1408 -0.5009  0.0252
    1MOL0     O   58   0.349   8.445   9.264  0.3442  0.5527  0.5078
    1MOL0     C   59   0.333   8.582   9.243  0.2998  0.1947 -1.3825
    1MOL0     C   60   0.176   8.600   9.242  0.5683 -0.1529 -0.5036
    1MOL0     C   61   0.117   8.582   9.382 -0.0060  0.3037  0.3195
    1MOL0     C   62  -0.033   8.526   9.377 -0.7959  0.7360 -0.5483
    1MOL0     C   63  -0.117   8.627   9.317  0.2524  0.5507 -0.6670
    1MOL0     C   64  -0.202   8.689   9.258 -0.2949 -0.3971  0.4849
    1MOL0     C   65   0.573   8.475   9.358 -0.4820  0.3454  0.3656
    1MOL0     C   66   0.697   8.426   9.402 -0.4843  0.1490  0.6851
    1MOL0     H   67   1.132   8.253   9.652 -0.4508  3.1348 -0.4148
    1MOL0     H   68   1.356   8.184   9.615 -1.5641  0.4582  0.4283
    1MOL0     H   69   1.590   8.170   9.558  4.2019  2.3084  0.2970
    1MOL0     H   70   1.592   8.300   9.437 -1.4505 -0.3584 -0.1342
    1MOL0     H   71   1.742   8.153   9.292  0.3162 -3.1764 -0.1732
    1MOL0     H   72   1.714   8.015   9.408  1.9981  0.0396 -0.2018
    1MOL0     H   73   1.927   8.111   9.429  0.5756 -0.5065 -1.5907
    1MOL0     H   74   1.826   8.148   9.580 -4.0019  0.4893 -0.5142
    1MOL0     H   75   1.889   8.344   9.351  2.3765  2.1245  0.0888
    1MOL0     H   76   1.777   8.369   9.495 -1.7163 -2.5939  1.8093
    1MOL0     H   77   1.991   8.347   9.639  0.0232 -1.0949 -0.8117
    1MOL0     H   78   1.991   8.484   9.539 -0.1612  0.1307  0.1639
    1MOL0     H   79   2.163   8.419   9.398  1.1765  1.3698  2.9258
    1MOL0     H   80   2.121   8.239   9.423 -1.7692 -0.6073  0.1338
    1MOL0     H   81   2.259   8.438   9.626  2.3934 -0.8623  1.1098
    1MOL0     H   82   2.241   8.266   9.649  0.9683  1.0265  1.8379
    1MOL0     H   83   2.382   8.206   9.475  1.3086  0.9609 -1.5678
    1MOL0     H   84   2.444   8.304   9.599  0.0775 -2.0602 -0.0668
    1MOL0     H   85   2.527   8.559   9.513 -2.5500  1.0212  0.0362
    1MOL0     H   86   2.508   8.716   9.156  0.4194 -0.8250 -0.2751
    1MOL0     H   87   2.660   8.706   9.248  0.1645  2.5731 -4.4416
    1MOL0     H   88   2.601   8.899   9.319 -0.5892 -0.2015  1.7326
    1MOL0     H   89   2.526   8.803   9.447  0.9727  0.7948  0.9503
    1MOL0     H   90   2.374   8.984   9.334  0.3452  0.1032  0.8839
    1MOL0     H   91   2.385   8.904   9.179  0.2132  1.6114  0.0946
    1MOL0     H   92   2.235   8.778   9.417  2.3461 -1.6709  0.1987
    1MOL0     H   93   2.256   8.701   9.267 -1.9500 -0.9815  1.3429
    1MOL0     H   94   2.038   8.704   9.427  1.4335  1.8949  1.6771
    1MOL0     H   95   1.792   8.694   9.487 -0.6534  1.3793 -0.3387
    1MOL0     H   96   1.375   8.972   9.603 -0.3225 -0.1521 -0.6630
    1MOL0     H   97   1.151   8.900   9.687  1.9675 -1.5476  3.0481
    1MOL0     H   98   1.017   8.490   9.679 -0.8963 -0.6521  2.2154
    1MOL0     H   99   0.937   8.566   9.544 -0.0387 -2.4900  1.0694
    1MOL0     H  100   0.776   8.669   9.655  1.3962  0.6587 -1.9156
    1MOL0     H  101   0.845   8.633   9.816  2.8919 -5.5358  1.8175
    1MOL0     H  102   0.787   8.404   9.831 -0.7150  0.5925  0.3115
    1MOL0     H  103   0.780   8.385   9.665 -2.2289 -0.4250 -0.2451
    1MOL0     H  104   0.565   8.540   9.799  1.2595  1.2677 -1.4675
    1MOL0     H  105   0.572   8.500   9.635 -3.9695  0.7164  0.0310
    1MOL0     H  106   0.532   8.310   9.871 -0.8533  1.7677  0.7754
    1MOL0     H  107   0.601   8.251   9.720  0.4623  1.1612  0.0659
    1MOL0     H  108   0.414   8.364   9.586 -0.0054  0.2984  0.2328
    1MOL0     H  109   0.351   8.410   9.737  0.4746 -0.2826 -1.5367
    1MOL0     H  110   0.404   8.108   9.647 -2.9804 -1.4286 -0.7985
    1MOL0     H  111   0.338   8.156   9.802  0.9429  0.2276 -0.4568
    1MOL0     H  112   0.206   8.252   9.551  0.9061 -0.8029 -0.1102
    1MOL0     H  113   0.144   8.224   9.705 -0.0641  3.0649 -2.2481
    1MOL0     H  114   1.179   8.518   9.510  0.3556 -0.6591 -0.6091
    1MOL0     H  115   1.426   8.567   9.456  2.2268  2.5223 -1.9038
    1MOL0     H  116   1.747   9.062   9.252  1.8684  2.3429  2.9952
    1MOL0     H  117   1.966   9.043   9.185  2.9531 -1.7192 -0.8156
    1MOL0     H  118   1.286   8.211   9.187 -1.6954 -0.6135 -0.1368
    1MOL0     H  119   1.064   8.283   9.226  0.7864 -1.7858 -1.1976
    1MOL0     H  120   0.614   8.096   9.395 -1.1128 -0.9195  1.3801
    1MOL0     H  121   0.420   8.174   9.279 -0.6957 -0.0653  2.7940
    1MOL0     H  122   0.369   8.602   9.142 -0.0857  2.5109 -1.1199
    1MOL0     H  123   0.369   8.657   9.314 -1.2521 -1.3597  1.2043
    1MOL0     H  124   0.148   8.694   9.193  0.0252 -1.5087 -2.9397
    1MOL0     H  125   0.142   8.519   9.177  0.8390 -2.2407  1.8337
    1MOL0     H  126   0.117   8.682   9.427 -3.1160  0.7398 -0.3951
    1MOL0     H  127   0.175   8.513   9.444  0.8913  0.6821 -0.0814
    1MOL0     H  128  -0.042   8.430   9.324 -1.5097 -0.2870  1.3242
    1MOL0     H  129  -0.069   8.503   9.478 -1.2222 -2.4340 -1.3121
    1MOL0     H  130  -0.281   8.748   9.217  0.7178  0.2560 -0.5962
    1MOL0     H  131   0.549   8.579   9.376  0.9646  0.2217  3.8674
    1MOL0     H  132   0.765   8.502   9.440  5.3642 -3.4050 -1.4327
    2MOL0     O  133   7.607   9.389   5.616 -0.3030 -0.7529 -0.5547
    2MOL0     C  134   7.669   9.311   5.694 -0.2065  0.8214 -0.2955
    2MOL0     O  135   7.625   9.187   5.729  0.1548  0.8626 -0.2805
    2MOL0     C  136   7.497   9.137   5.712 -0.2124 -1.2857  0.2781
    2MOL0     C  137   7.385   9.220   5.699  0.4402 -0.0354  1.5387
    2MOL0     C  138   7.262   9.164   5.657 -0.2736  0.2567 -0.7668
    2MOL0     C  139   7.242   9.026   5.664  0.1130 -0.6131 -0.4783
    2MOL0     O  140   7.112   8.974   5.640  0.2795 -0.2698  0.8761
    2MOL0     C  141   7.107   8.845   5.573  0.4246  0.0820  0.3287
    2MOL0     C  142   6.972   8.786   5.564  0.0971  0.2601  0.0864
    2MOL0     C  143   6.876   8.818   5.448 -0.5324 -0.4487 -0.0304
    2MOL0     C  144   6.848   8.967   5.434  0.2673  0.0167 -1.1810
    2MOL0     C  145   6.735   9.009   5.338 -0.1719  0.7529 -0.2522
    2MOL0     C  146   6.669   9.138   5.396  1.1956 -1.4377 -0.3230
    2MOL0     C  147   6.588   9.207   5.288  0.6229 -0.2075 -0.3750
    2MOL0     C  148   6.529   9.348   5.320  0.8656  0.5575 -0.0372
    2MOL0     N  149   6.387   9.314   5.358  0.2476 -1.2537 -0.9328
    2MOL0     C  150   6.292   9.322   5.258  0.5461 -0.1061  0.4719
    2MOL0     C  151   6.175   9.330   5.320 -0.9899 -0.3514  0.1847
    2MOL0     C  152   6.037   9.342   5.279  0.4529 -0.2202  0.2095
    2MOL0     C  153   5.960   9.219   5.343  0.0915 -0.0838  0.4477
    2MOL0     C  154   5.817   9.224   5.292 -0.4129  0.6179 -0.7654
    2MOL0     C  155   5.722   9.127   5.363  0.7679  1.1216  0.0594
    2MOL0     O  156   5.724   8.993   5.311  0.4843 -0.5032  0.1074
    2MOL0     C  157   5.762   8.897   5.401  0.0065 -0.8769  0.1815
    2MOL0     C  158   5.827   8.917   5.521  0.7073  0.2341 -0.2498
    2MOL0     C  159   5.850   8.810   5.609 -1.6509  0.7129 -0.4051
    2MOL0     C  160   5.811   8.677   5.573 -0.7711 -0.3343  1.1823
    2MOL0     C  161   5.834   8.566   5.664  0.4164 -0.0926  0.4101
    2MOL0     O  162   5.895   8.585   5.788 -0.0441 -0.6718 -0.5259
    2MOL0     C  163   5.923   8.475   5.868 -0.4860 -0.6178  1.3296
    2MOL0     C  164   5.960   8.349   5.814 -0.1226 -0.1418 -0.3780
    2MOL0     C  165   5.991   8.234   5.897 -1.1027 -0.0964 -0.4023
    2MOL0     C  166   5.994   8.250   6.039  1.1198  0.4915  0.7067
    2MOL0     O  167   6.023   8.136   6.111  0.6877  0.1920 -0.6411
    2MOL0     C  168   6.014   8.135   6.255 -1.0569  0.0747  0.7967
    2MOL0     C  169   5.990   7.998   6.310  0.0340 -0.7366 -0.0865
    2MOL0     C  170   6.124   7.913   6.312  0.0385  0.0437  0.2121
    2MOL0     C  171   6.169   7.832   6.188  0.1529 -0.2993  1.0814
    2MOL0     C  172   6.284   7.732   6.222  0.4821  0.4968  0.1235
    2MOL0     C  173   6.375   7.698   6.093 -0.1657 -0.0880  0.1967
    2MOL0     C  174   6.290   7.662   5.968 -0.3085 -0.1903  0.1604
    2MOL0     C  175   6.223   7.527   5.957 -0.5850 -1.0725 -0.2583
    2MOL0    Cl  176   6.314   7.369   5.992 -0.3242 -0.4085 -0.1675
    2MOL0     C  177   5.979   8.381   6.086  0.2343 -0.4148 -0.2490
    2MOL0     C  178   5.940   8.487   6.002  0.4264 -0.1188  0.4911
    2MOL0     O  179   5.786   8.455   5.627  0.0159  0.1065  1.5378
    2MOL0     C  180   5.759   8.655   5.444  0.3207 -0.2807 -0.7215
    2MOL0     C  181   5.729   8.769   5.360  0.1984 -0.5573 -0.7430
    2MOL0     N  182   6.204   9.334   5.452  1.1733 -0.3400  0.2674
    2MOL0     N  183   6.328   9.319   5.479  0.4307  0.8241  0.3471
    2MOL0     C  184   7.351   8.948   5.699 -0.7433  0.5576 -0.0583
    2MOL0     C  185   7.481   9.008   5.724  0.3590  0.4188  0.1304
    2MOL0     C  186   7.796   9.350   5.741 -0.6334  0.8901  0.1599
    2MOL0     C  187   7.886   9.417   5.671 -0.1538 -0.1652 -0.0534
    2MOL0     C  188   8.009   9.454   5.720  0.9229 -0.2684  0.3046
    2MOL0     C  189   8.051   9.413   5.840 -0.2892  0.4864 -0.5112
    2MOL0     O  190   8.179   9.456   5.875 -0.5193  0.4667 -0.1923
    2MOL0     C  191   8.246   9.402   5.993  0.2419  0.7318 -0.6085
    2MOL0     C  192   8.201   9.450   6.134  0.0992  0.4584 -0.2616
    2MOL0     C  193   8.239   9.594   6.151  0.2144  0.2935  0.4056
    2MOL0     C  194   8.393   9.598   6.196  0.1887  0.8602 -0.7598
    2MOL0     C  195   8.396   9.570   6.338  0.8705 -0.1307  0.2549
    2MOL0     C  196   8.390   9.535   6.462 -0.3082  0.8965  0.0251
    2MOL0     C  197   7.964   9.340   5.920 -0.8393  0.7450 -0.4130
    2MOL0     C  198   7.834   9.318   5.876  0.1777 -0.4018  0.1958
    2MOL0     H  199   7.389   9.329   5.695 -1.9645  0.0478 -0.5061
    2MOL0     H  200   7.180   9.231   5.633 -2.7177 -0.9218  3.3182
    2MOL0     H  201   7.174   8.775   5.624  0.2753 -1.0208 -0.9479
    2MOL0     H  202   7.136   8.855   5.468 -0.2524  1.0627  0.2197
    2MOL0     H  203   6.925   8.812   5.660 -0.7011 -0.3062 -0.1442
    2MOL0     H  204   6.972   8.677   5.562 -4.8844 -0.0624  2.2103
    2MOL0     H  205   6.784   8.769   5.482 -0.6364  0.5328  1.2210
    2MOL0     H  206   6.908   8.782   5.351 -0.7524  2.3295 -1.2464
    2MOL0     H  207   6.822   9.002   5.534 -3.7593 -0.5222 -1.8770
    2MOL0     H  208   6.943   9.015   5.405 -0.2693  2.3503  0.6063
    2MOL0     H  209   6.662   8.928   5.327 -0.1930  0.8344 -0.7029
    2MOL0     H  210   6.780   9.037   5.243  2.7061 -2.8491 -0.1795
    2MOL0     H  211   6.738   9.210   5.441  0.0237 -0.4013 -0.1534
    2MOL0     H  212   6.595   9.101   5.468  0.2744 -3.2813 -2.1222
    2MOL0     H  213   6.646   9.229   5.198 -1.0425  3.5427 -0.7119
    2MOL0     H  214   6.504   9.142   5.264 -0.1532 -0.7781  3.2670
    2MOL0     H  215   6.540   9.411   5.232  0.3030 -0.4132 -0.8227
    2MOL0     H  216   6.590   9.380   5.405  0.7943 -0.7461  0.5451
    2MOL0     H  217   6.312   9.328   5.152 -0.4662 -3.3694  0.0068
    2MOL0     H  218   6.024   9.337   5.170 -1.6381 -0.7038  0.4499
    2MOL0     H  219   6.013   9.444   5.309 -0.4010  0.3213 -2.0675
    2MOL0     H  220   5.976   9.221   5.451  0.6955  2.6090  0.3935
    2MOL0     H  221   5.996   9.124   5.304 -2.4398 -1.3230  0.9472
    2MOL0     H  222   5.779   9.325   5.308 -0.6157  0.2898  1.0394
    2MOL0     H  223   5.818   9.194   5.187 -0.5030 -1.4194 -0.2329
    2MOL0     H  224   5.626   9.175   5.342  0.7134 -0.5975 -4.7798
    2MOL0     H  225   5.729   9.130   5.472  1.8751 -0.8299  0.0878
    2MOL0     H  226   5.859   9.015   5.556 -1.4594  0.6287  0.7903
    2MOL0     H  227   5.905   8.815   5.702  1.2032 -0.9438 -1.8517
    2MOL0     H  228   5.953   8.329   5.708 -3.3850  0.9725 -0.4751
    2MOL0     H  229   6.005   8.135   5.856 -1.2555 -1.3316  2.3157
    2MOL0     H  230   5.930   8.194   6.293 -1.8495 -2.6556  3.7550
    2MOL0     H  231   6.108   8.177   6.290 -0.8826  2.7437 -2.3930
    2MOL0     H  232   5.907   7.980   6.241  0.9364  2.6201 -2.2931
    2MOL0     H  233   5.957   8.017   6.413  1.4669  2.6310 -0.1165
    2MOL0     H  234   6.112   7.841   6.393  0.0788 -1.6093 -1.1922
    2MOL0     H  235   6.208   7.975   6.345 -1.3443  1.4056  1.2807
    2MOL0     H  236   6.085   7.778   6.145  0.9681  0.4192 -1.6119
    2MOL0     H  237   6.194   7.902   6.108  1.9980 -2.5470 -0.4407
    2MOL0     H  238   6.242   7.634   6.248  0.9609  0.4140  0.6015
    2MOL0     H  239   6.338   7.771   6.308 -0.6335 -0.6589  1.4013
    2MOL0     H  240   6.445   7.618   6.120  0.8307  1.2100  1.5953
    2MOL0     H  241   6.433   7.790   6.085  0.2177  0.2358  4.3851
    2MOL0     H  242   6.217   7.742   5.949  1.8925  2.2154  1.2357
    2MOL0     H  243   6.358   7.652   5.882 -0.7476 -0.9461 -0.1067
    2MOL0     H  244   6.168   7.525   5.863 -0.8023 -0.4861 -0.1445
    2MOL0     H  245   6.148   7.531   6.037 -0.7213  2.6013 -0.4210
    2MOL0     H  246   5.976   8.384   6.195  1.2872  0.6346 -0.2264
    2MOL0     H  247   5.934   8.590   6.038  1.1533  0.2254 -0.3284
    2MOL0     H  248   5.723   8.558   5.411 -1.5209 -0.5077  1.6543
    2MOL0     H  249   5.666   8.766   5.272 -3.1412 -0.4537  1.4552
    2MOL0     H  250   7.342   8.840   5.707 -1.2879  0.6018 -0.0265
    2MOL0     H  251   7.568   8.951   5.755  0.3050  1.4773  2.4399
    2MOL0     H  252   7.871   9.437   5.566  1.3871  1.8718  0.0448
    2MOL0     H  253   8.071   9.507   5.648 -3.4570  2.4342 -1.9255
    2MOL0     H  254   8.345   9.448   5.987 -0.1279  1.5135 -0.7781
    2MOL0     H  255   8.260   9.293   5.994  0.0776  0.6103  3.2043
    2MOL0     H  256   8.092   9.443   6.142  0.0696  0.5845 -0.5457
    2MOL0     H  257   8.249   9.379   6.201  0.9217 -0.8689 -2.1530
    2MOL0     H  258   8.174   9.650   6.219  2.2083  4.6210 -0.8893
    2MOL0     H  259   8.239   9.640   6.052 -0.9734 -0.8003 -0.1314
    2MOL0     H  260   8.460   9.525   6.150 -0.0498  1.0790 -1.4562
    2MOL0     H  261   8.456   9.686   6.177  3.6484 -1.7221 -2.2356
    2MOL0     H  262   8.392   9.525   6.568  0.2786  0.6760 -0.0035
    2MOL0     H  263   7.994   9.306   6.018 -0.1105  0.6820 -0.6520
    2MOL0     H  264   7.777   9.240   5.925  2.3540 -1.8686  0.5630
    3MOL0     O  265   1.373   4.458   6.970 -0.5045  0.7681  0.0310
    3MOL0     C  266   1.289   4.546   7.011  0.0779 -0.2482  0.4730
    3MOL0     O  267   1.157   4.522   7.059  0.0345  0.1883 -0.1123
    3MOL0     C  268   1.127   4.390   7.086 -0.3415 -0.1613  0.9237
    3MOL0     C  269   1.195   4.330   7.200  0.2906 -0.3571  0.4731
    3MOL0     C  270   1.168   4.197   7.231 -0.3512 -0.9797  0.5890
    3MOL0     C  271   1.097   4.108   7.145 -0.4710 -0.7365  0.1969
    3MOL0     O  272   1.081   3.978   7.157 -0.5592 -1.3165  0.1970
    3MOL0     C  273   1.052   3.944   7.295 -0.4249 -0.2350 -0.0858
    3MOL0     C  274   0.937   3.843   7.294 -0.4696  0.0829 -0.4763
    3MOL0     C  275   1.008   3.712   7.283 -0.4904  0.3563 -0.1917
    3MOL0     C  276   0.915   3.595   7.267 -0.6272 -0.4907 -0.5036
    3MOL0     C  277   0.994   3.467   7.288  1.0917  1.2047  0.2011
    3MOL0     C  278   1.068   3.422   7.421  0.3574  0.4957  0.7603
    3MOL0     C  279   1.004   3.438   7.553 -0.6401  0.2872 -0.0719
    3MOL0     C  280   0.866   3.388   7.574  0.6077  0.4207 -0.2105
    3MOL0     N  281   0.850   3.242   7.556  0.1739  0.7248  0.5762
    3MOL0     C  282   0.921   3.155   7.631  0.5982  0.1116  0.0714
    3MOL0     C  283   0.872   3.033   7.594  0.0937 -0.2389  0.2929
    3MOL0     C  284   0.902   2.890   7.627 -0.0786 -0.2657 -0.7241
    3MOL0     C  285   1.018   2.838   7.529 -0.2357  0.3898  0.0970
    3MOL0     C  286   1.114   2.743   7.602  0.1799  0.1377  1.0289
    3MOL0     C  287   1.047   2.607   7.604  1.5406  0.3480 -0.4042
    3MOL0     O  288   0.970   2.598   7.722  0.0728  0.1093 -0.1040
    3MOL0     C  289   0.893   2.482   7.735  0.4130  0.0346  0.2602
    3MOL0     C  290   0.873   2.394   7.627 -0.6801  0.0556 -0.6181
    3MOL0     C  291   0.799   2.279   7.649  0.9419  0.2260 -0.3336
    3MOL0     C  292   0.708   2.268   7.759 -0.6992 -1.1075  0.5800
    3MOL0     C  293   0.620   2.155   7.771 -0.8009 -0.2768  0.2712
    3MOL0     O  294   0.537   2.167   7.873 -0.2846  0.5074  0.1841
    3MOL0     C  295   0.465   2.066   7.917 -0.1338 -0.4296 -0.3269
    3MOL0     C  296   0.497   1.926   7.921 -0.1528 -0.2481  0.4000
    3MOL0     C  297   0.411   1.846   8.003  0.1192  0.1369  0.6890
    3MOL0     C  298   0.294   1.890   8.066  0.5323  0.2096  0.9341
    3MOL0     O  299   0.219   1.811   8.150 -0.7181  0.6108 -0.5075
    3MOL0     C  300   0.279   1.699   8.229  0.9535 -0.5086 -0.1011
    3MOL0     C  301   0.169   1.652   8.334  0.1820  0.0988 -0.5300
    3MOL0     C  302   0.238   1.547   8.426 -0.0085  0.2082 -0.2294
    3MOL0     C  303   0.126   1.505   8.537 -0.4534  0.2928 -0.6162
    3MOL0     C  304   0.185   1.385   8.614 -0.1479 -0.0160 -0.0296
    3MOL0     C  305   0.117   1.371   8.761  0.3710 -0.0429  0.0669
    3MOL0     C  306   0.166   1.238   8.832  0.3170  0.1207  0.0889
    3MOL0     C  307   0.118   1.239   8.981  0.2495  0.0552  0.4680
    3MOL0    Cl  308   0.154   1.100   9.082  0.1414  0.6624  0.1508
    3MOL0     C  309   0.263   2.030   8.058 -0.1666 -0.0348  0.1310
    3MOL0     C  310   0.353   2.111   7.983  1.0126  0.1860 -0.2881
    3MOL0     O  311   0.653   2.052   7.706  0.8031  0.7606 -0.0320
    3MOL0     C  312   0.717   2.371   7.861  0.0545 -0.0319 -0.2224
    3MOL0     C  313   0.818   2.465   7.854 -1.2134  0.1227  0.2590
    3MOL0     N  314   0.776   3.049   7.502 -0.2174  0.6360  0.0516
    3MOL0     N  315   0.752   3.178   7.484 -0.1465 -0.5444  0.3408
    3MOL0     C  316   1.026   4.168   7.043  0.1536  0.5501 -0.5613
    3MOL0     C  317   1.036   4.310   7.012  0.9848  0.0324 -1.0704
    3MOL0     C  318   1.338   4.689   7.007 -0.1415 -1.1199 -0.3241
    3MOL0     C  319   1.459   4.727   6.955 -0.4552  0.4361  0.4013
    3MOL0     C  320   1.515   4.850   6.955  0.1688 -0.8913  0.2866
    3MOL0     C  321   1.442   4.955   7.007  0.7383 -0.0495 -0.1941
    3MOL0     O  322   1.471   5.097   7.007  0.4813  0.0270 -0.4776
    3MOL0     C  323   1.593   5.133   6.961  0.1437 -0.1040  0.0000
    3MOL0     C  324   1.579   5.156   6.813 -0.3773  0.1913  1.8082
    3MOL0     C  325   1.665   5.271   6.752 -0.7832 -0.1241 -0.5314
    3MOL0     C  326   1.682   5.265   6.603 -0.4469  0.9877 -0.3164
    3MOL0     C  327   1.715   5.396   6.543 -0.7826  0.4640  0.0665
    3MOL0     C  328   1.752   5.509   6.514 -0.7119 -0.2099  0.1014
    3MOL0     C  329   1.308   4.926   7.062 -0.0727  0.1573  0.4899
    3MOL0     C  330   1.259   4.793   7.060  0.0131 -0.6951  0.4585
    3MOL0     H  331   1.274   4.388   7.246  0.2461  0.0317  0.0619
    3MOL0     H  332   1.213   4.157   7.322 -1.6117 -4.7406 -0.2812
    3MOL0     H  333   1.015   4.034   7.345  2.1251  0.4074  0.8174
    3MOL0     H  334   1.143   3.918   7.351 -0.5977 -0.7961 -0.0650
    3MOL0     H  335   0.867   3.879   7.217 -2.0775  0.6773  1.1801
    3MOL0     H  336   0.884   3.843   7.390  0.4230  0.2926  0.0200
    3MOL0     H  337   1.074   3.708   7.370  0.8499  2.5332 -1.0342
    3MOL0     H  338   1.070   3.720   7.194 -2.2540  1.7316 -1.3583
    3MOL0     H  339   0.840   3.596   7.347  1.2458 -0.7854  1.3503
    3MOL0     H  340   0.878   3.602   7.164  1.3819 -0.4449 -1.2625
    3MOL0     H  341   1.064   3.460   7.204 -0.3507  1.4313 -1.0866
    3MOL0     H  342   0.928   3.380   7.275  1.4421  1.3888 -4.5082
    3MOL0     H  343   1.162   3.478   7.427  0.2189  1.8562 -4.7924
    3MOL0     H  344   1.104   3.319   7.414  1.7249  0.7797  2.7360
    3MOL0     H  345   1.074   3.392   7.624 -0.0951 -0.5181 -1.1145
    3MOL0     H  346   0.996   3.546   7.569  1.0380  0.2730  1.2067
    3MOL0     H  347   0.795   3.419   7.497 -2.6526  0.9001  2.7303
    3MOL0     H  348   0.826   3.414   7.672 -0.5376  1.3700 -0.9031
    3MOL0     H  349   0.999   3.159   7.706 -2.4302  2.9004  3.4415
    3MOL0     H  350   0.812   2.829   7.635  0.2671 -0.5478  1.7829
    3MOL0     H  351   0.941   2.898   7.729  0.9534  1.5445 -1.2220
    3MOL0     H  352   1.079   2.920   7.491 -1.6968 -0.0046 -3.4753
    3MOL0     H  353   0.975   2.784   7.444 -2.4816 -2.4364  2.8050
    3MOL0     H  354   1.204   2.733   7.541  0.7293 -0.8785  1.9681
    3MOL0     H  355   1.136   2.785   7.701 -1.7404  1.7842  0.8335
    3MOL0     H  356   1.104   2.514   7.600  2.2267  0.7664 -0.4730
    3MOL0     H  357   0.966   2.601   7.531  0.2959 -1.6494  1.0331
    3MOL0     H  358   0.935   2.398   7.538  3.9638 -2.9742  2.0238
    3MOL0     H  359   0.800   2.199   7.576 -2.0876 -3.5190  3.2079
    3MOL0     H  360   0.583   1.884   7.870 -1.9538 -2.5455 -0.9687
    3MOL0     H  361   0.441   1.746   8.032  3.0361  0.4448 -0.8815
    3MOL0     H  362   0.377   1.725   8.272  0.8517 -0.2259 -0.0397
    3MOL0     H  363   0.288   1.607   8.171 -0.0041 -1.3648  1.0582
    3MOL0     H  364   0.083   1.608   8.284  0.9412 -1.8688 -0.2003
    3MOL0     H  365   0.132   1.739   8.387  2.3930  0.6257  0.2770
    3MOL0     H  366   0.329   1.587   8.471  1.0542 -1.7500 -0.5363
    3MOL0     H  367   0.271   1.469   8.357 -1.2118  0.6316 -1.3219
    3MOL0     H  368   0.106   1.593   8.598  0.0205  0.6479 -0.9699
    3MOL0     H  369   0.036   1.467   8.487  0.0840  2.5928 -3.6404
    3MOL0     H  370   0.292   1.402   8.631  0.3471 -1.7981 -1.1374
    3MOL0     H  371   0.161   1.291   8.564  0.7338 -0.2663 -0.0033
    3MOL0     H  372   0.010   1.367   8.736  0.4741  2.5398 -1.1878
    3MOL0     H  373   0.126   1.463   8.820 -0.5784 -0.4999  0.9403
    3MOL0     H  374   0.119   1.150   8.787 -0.4628  0.3408  0.4490
    3MOL0     H  375   0.275   1.244   8.832  0.3330  0.4022 -1.7391
    3MOL0     H  376   0.011   1.261   8.983  0.2944  0.3108  2.4930
    3MOL0     H  377   0.161   1.330   9.025  2.8326 -1.3176  0.9850
    3MOL0     H  378   0.178   2.082   8.102  2.2491  3.2206  1.3365
    3MOL0     H  379   0.327   2.216   7.987 -0.8698 -0.2708  3.2323
    3MOL0     H  380   0.656   2.370   7.950  0.1361  0.0355 -0.1648
    3MOL0     H  381   0.844   2.547   7.920  1.4192  1.5627 -2.3272
    3MOL0     H  382   0.963   4.108   6.979  0.4146 -0.1400 -0.1866
    3MOL0     H  383   0.978   4.362   6.936  2.4599  2.9770 -0.3154
    3MOL0     H  384   1.515   4.658   6.893  3.2627  2.2996  1.3945
    3MOL0     H  385   1.616   4.854   6.916 -0.4470 -1.1771 -1.4218
    3MOL0     H  386   1.673   5.064   6.990 -1.0802 -0.6562  2.2867
    3MOL0     H  387   1.629   5.228   7.004 -1.4684 -0.0545  1.3258
    3MOL0     H  388   1.606   5.063   6.762 -1.0509  0.3031  1.2456
    3MOL0     H  389   1.475   5.185   6.798  0.0961  0.9841 -0.1361
    3MOL0     H  390   1.764   5.250   6.794 -1.1516 -0.0702  0.3888
    3MOL0     H  391   1.629   5.367   6.789  0.9415 -0.4430  2.2968
    3MOL0     H  392   1.747   5.186   6.565 -0.5403 -1.1554  3.4972
    3MOL0     H  393   1.588   5.240   6.554 -0.7832 -1.9531  1.6249
    3MOL0     H  394   1.804   5.598   6.486  3.0136 -3.0347 -3.1372
    3MOL0     H  395   1.236   4.995   7.106 -2.3340 -1.0661 -1.0837
    3MOL0     H  396   1.165   4.775   7.111 -0.2109  0.9036  0.6471
    4MOL0     O  397   2.999   7.364   5.131  0.0222 -0.2950  0.8311
    4MOL0     C  398   3.027   7.480   5.161 -0.3617 -0.3225 -0.0200
    4MOL0     O  399   2.983   7.591   5.093 -0.0067  1.0307 -0.4554
    4MOL0     C  400   2.941   7.578   4.965 -0.8544 -0.1076 -0.0104
    4MOL0     C  401   2.806   7.566   4.932  0.5360 -0.2883 -0.0521
    4MOL0     C  402   2.769   7.553   4.792 -0.8538  0.7881  0.0475
    4MOL0     C  403   2.868   7.549   4.691 -0.7333  0.0891  1.0361
    4MOL0     O  404   2.848   7.557   4.552  0.0138 -0.3912  0.4986
    4MOL0     C  405   2.738   7.479   4.508  1.2340  0.5090  0.4069
    4MOL0     C  406   2.725   7.481   4.357 -0.1301 -0.4134 -0.4928
    4MOL0     C  407   2.669   7.625   4.316 -0.2430 -0.4189  0.2165
    4MOL0     C  408   2.681   7.626   4.151  1.1403  0.1840 -0.8855
    4MOL0     C  409   2.815   7.678   4.103 -0.2581  0.3874  0.3602
    4MOL0     C  410   2.819   7.673   3.949  0.8065  0.0793  0.0812
    4MOL0     C  411   2.947   7.732   3.910 -0.4736  0.2548 -0.3397
    4MOL0     C  412   2.935   7.879   3.876 -0.9713  0.2803 -0.3274
    4MOL0     N  413   2.875   7.903   3.743  0.3380  0.0395  0.8195
    4MOL0     C  414   2.944   7.896   3.625  0.6952 -0.4047 -0.5013
    4MOL0     C  415   2.851   7.909   3.523 -0.3494 -0.3798  0.6107
    4MOL0     C  416   2.871   7.927   3.373  0.8180 -1.0703 -0.2530
    4MOL0     C  417   2.873   8.076   3.335 -0.3833 -0.2272 -0.1646
    4MOL0     C  418   2.845   8.084   3.186 -0.6562 -0.1146 -0.0470
    4MOL0     C  419   2.852   8.224   3.128  0.4129  0.5089 -0.2464
    4MOL0     O  420   2.775   8.308   3.214  0.1836 -0.1596  0.5837
    4MOL0     C  421   2.752   8.443   3.193  0.7595 -0.4848  0.1784
    4MOL0     C  422   2.655   8.509   3.267 -0.1251 -0.5753 -0.4820
    4MOL0     C  423   2.618   8.641   3.237 -0.2863  0.4002 -0.6984
    4MOL0     C  424   2.673   8.709   3.135 -0.3710 -0.0815  0.2606
    4MOL0     C  425   2.645   8.855   3.127 -0.3848 -0.5979  0.0686
    4MOL0     O  426   2.526   8.897   3.180  0.8377 -0.7791  0.4869
    4MOL0     C  427   2.493   9.028   3.153  0.3283  0.3287 -0.3100
    4MOL0     C  428   2.562   9.128   3.219 -0.5432 -0.0515  0.6975
    4MOL0     C  429   2.520   9.257   3.204 -0.2757  0.4840 -0.1959
    4MOL0     C  430   2.420   9.290   3.120  0.1465  1.0496  0.4088
    4MOL0     O  431   2.386   9.422   3.118 -0.2904 -0.4291  0.5884
    4MOL0     C  432   2.321   9.462   3.237 -0.2382 -0.0663  0.5335
    4MOL0     C  433   2.197   9.542   3.196  0.2999  0.9463 -0.4166
    4MOL0     C  434   2.210   9.637   3.070  0.7631  0.9274 -1.0549
    4MOL0     C  435   2.122   9.761   3.068  1.3751 -0.3641  0.4641
    4MOL0     C  436   2.160   9.874   3.161 -0.6650 -0.3897  0.4913
    4MOL0     C  437   2.281   9.960   3.114  0.4042 -0.1736 -0.8455
    4MOL0     C  438   2.328  10.061   3.220 -0.0768 -0.4582  0.3535
    4MOL0     C  439   2.448  10.134   3.172 -0.4220  0.3918  0.0088
    4MOL0    Cl  440   2.468  10.286   3.258 -0.0378 -0.2659 -0.1246
    4MOL0     C  441   2.359   9.194   3.047  0.2047  0.4426  0.6057
    4MOL0     C  442   2.395   9.065   3.061 -0.6179  0.5180  0.7424
    4MOL0     O  443   2.715   8.926   3.052  0.4895  0.8019 -0.4852
    4MOL0     C  444   2.776   8.649   3.061  0.3963  0.4158  0.9133
    4MOL0     C  445   2.811   8.517   3.094 -0.7693 -0.4528  0.7743
    4MOL0     N  446   2.729   7.934   3.592  0.0719 -0.2350  0.1756
    4MOL0     N  447   2.749   7.923   3.713  0.1327  0.0885 -0.0787
    4MOL0     C  448   3.006   7.533   4.733  0.1377 -0.5109  0.1795
    4MOL0     C  449   3.040   7.556   4.867 -0.1443  0.9245  0.6750
    4MOL0     C  450   3.093   7.509   5.295  0.3918 -0.0707  0.3506
    4MOL0     C  451   3.138   7.635   5.338 -0.2601  0.0758 -0.5553
    4MOL0     C  452   3.184   7.654   5.473  0.2193 -0.0355 -0.7480
    4MOL0     C  453   3.197   7.539   5.565 -0.0673 -0.2696  0.1591
    4MOL0     O  454   3.234   7.535   5.704  0.5635 -0.3845  0.0960
    4MOL0     C  455   3.287   7.654   5.753 -1.0388 -1.3760 -0.3137
    4MOL0     C  456   3.343   7.620   5.891  0.1217  0.4090 -0.1761
    4MOL0     C  457   3.358   7.754   5.961 -0.1766 -0.1752  0.2721
    4MOL0     C  458   3.439   7.728   6.079  0.3153  0.4492  0.4850
    4MOL0     C  459   3.451   7.847   6.170 -0.5919 -0.0273 -0.0683
    4MOL0     C  460   3.463   7.945   6.247 -0.8175 -0.0514  0.4723
    4MOL0     C  461   3.156   7.419   5.515  0.4936 -0.4451 -0.3038
    4MOL0     C  462   3.106   7.402   5.385 -0.3049  0.3446 -0.3108
    4MOL0     H  463   2.725   7.591   5.000 -0.4348  0.6459 -1.4997
    4MOL0     H  464   2.663   7.552   4.770 -0.6573 -0.7424 -0.9610
    4MOL0     H  465   2.642   7.507   4.554  1.0810 -1.4197  1.3492
    4MOL0     H  466   2.763   7.378   4.541 -1.5373 -0.1743  0.6561
    4MOL0     H  467   2.666   7.394   4.329  0.4687 -0.7418 -0.7649
    4MOL0     H  468   2.829   7.476   4.322  0.5391 -1.3090  1.4622
    4MOL0     H  469   2.730   7.704   4.359  0.5817 -0.9209 -0.0020
    4MOL0     H  470   2.563   7.630   4.343 -0.6605 -0.7860 -1.2509
    4MOL0     H  471   2.663   7.529   4.105  2.2866 -0.1655 -0.6071
    4MOL0     H  472   2.598   7.690   4.118  0.4032 -0.4680 -0.3374
    4MOL0     H  473   2.891   7.611   4.143 -3.4084 -3.8785 -0.0300
    4MOL0     H  474   2.828   7.771   4.158 -3.5663  0.9051  0.5036
    4MOL0     H  475   2.730   7.715   3.901  0.5924  0.6239  0.9338
    4MOL0     H  476   2.814   7.571   3.909  3.8239 -0.3390  0.5413
    4MOL0     H  477   3.028   7.717   3.982  0.0238 -1.1250 -1.1561
    4MOL0     H  478   2.985   7.679   3.822  3.4704  2.4236 -0.1589
    4MOL0     H  479   3.031   7.930   3.877 -0.9297  0.2192  1.3216
    4MOL0     H  480   2.875   7.931   3.951  0.0824  2.9683 -1.2452
    4MOL0     H  481   3.050   7.883   3.606  0.5020  1.0898 -3.0809
    4MOL0     H  482   2.787   7.878   3.323 -0.1452 -0.9300  1.1611
    4MOL0     H  483   2.957   7.865   3.345  0.0919 -2.2035 -0.0516
    4MOL0     H  484   2.965   8.129   3.362 -1.8417  0.8456  3.3033
    4MOL0     H  485   2.784   8.123   3.377 -1.0646 -2.3210  0.8432
    4MOL0     H  486   2.918   8.017   3.139  1.6230  1.3757  1.1620
    4MOL0     H  487   2.743   8.047   3.174  0.0935 -3.5169  2.5393
    4MOL0     H  488   2.808   8.204   3.029  0.9624 -2.0928 -0.0082
    4MOL0     H  489   2.958   8.250   3.125  0.2894  1.0841  0.2569
    4MOL0     H  490   2.621   8.445   3.347 -1.8273  0.1899 -0.5554
    4MOL0     H  491   2.547   8.680   3.308  2.3282  0.0721  2.3576
    4MOL0     H  492   2.645   9.109   3.286  0.2002  0.6354 -0.0194
    4MOL0     H  493   2.569   9.339   3.256 -4.4690  3.2191 -0.1016
    4MOL0     H  494   2.369   9.524   3.313  0.5765 -2.6451  2.2805
    4MOL0     H  495   2.295   9.368   3.286 -0.4071 -0.7346 -0.7939
    4MOL0     H  496   2.161   9.596   3.284 -2.4056 -3.0914  1.2495
    4MOL0     H  497   2.136   9.452   3.179  1.8069 -0.0924 -0.5097
    4MOL0     H  498   2.189   9.581   2.977  0.5010  4.1355 -3.0766
    4MOL0     H  499   2.316   9.654   3.051  1.2050 -3.0535 -3.2807
    4MOL0     H  500   2.124   9.800   2.966  2.1702 -2.6486 -0.4732
    4MOL0     H  501   2.022   9.724   3.094  0.6444 -1.0260 -2.8461
    4MOL0     H  502   2.169   9.827   3.259  0.9639  0.7371  0.9242
    4MOL0     H  503   2.084   9.950   3.180 -0.8529 -0.5203  0.2579
    4MOL0     H  504   2.260  10.011   3.020  4.1934  1.8832 -0.7609
    4MOL0     H  505   2.369   9.896   3.100 -0.1928 -1.0359 -0.7640
    4MOL0     H  506   2.248  10.135   3.224  0.3404  0.1254 -1.4797
    4MOL0     H  507   2.341  10.026   3.323 -0.2666 -0.3744  0.4056
    4MOL0     H  508   2.448  10.145   3.063 -1.2187  0.0486 -0.0323
    4MOL0     H  509   2.536  10.070   3.191 -0.9276 -0.8031 -1.4453
    4MOL0     H  510   2.267   9.201   2.989  1.3548 -3.8241 -2.1690
    4MOL0     H  511   2.336   8.999   2.999  0.3763 -0.9469  1.2909
    4MOL0     H  512   2.831   8.703   2.985  0.4698 -0.1842  0.5374
    4MOL0     H  513   2.887   8.474   3.029 -1.5877 -3.2263  1.5028
    4MOL0     H  514   3.084   7.511   4.662  0.4923 -4.7718  1.6049
    4MOL0     H  515   3.146   7.540   4.886  0.0945 -1.3783 -1.9628
    4MOL0     H  516   3.140   7.723   5.273 -0.2859 -0.5379 -1.4038
    4MOL0     H  517   3.211   7.757   5.498  3.4514 -0.6608 -1.1719
    4MOL0     H  518   3.212   7.734   5.756 -1.3136 -1.6566  2.2493
    4MOL0     H  519   3.367   7.683   5.684 -2.1160 -0.8778 -1.3951
    4MOL0     H  520   3.276   7.561   5.954  1.5207  1.7725  2.7778
    4MOL0     H  521   3.431   7.556   5.898  2.3172  2.7530 -3.4285
    4MOL0     H  522   3.264   7.802   5.988  0.2500  0.7827  0.0717
    4MOL0     H  523   3.403   7.828   5.894  1.0062 -0.3867  0.8143
    4MOL0     H  524   3.404   7.636   6.127  2.6499 -1.2597 -0.8490
    4MOL0     H  525   3.541   7.694   6.057  0.3183 -3.1341  4.5554
    4MOL0     H  526   3.466   8.029   6.313  0.2251  0.9336 -0.7748
    4MOL0     H  527   3.164   7.339   5.588 -0.7258  0.4217  0.8370
    4MOL0     H  528   3.077   7.299   5.368  1.0949 -0.5056  2.0277
    5MOL0     O  529   2.605   0.791  10.163  0.0001  0.2451 -0.1186
    5MOL0     C  530   2.635   0.680  10.121  0.3397 -0.2673  0.8895
    5MOL0     O  531   2.549   0.580  10.088 -0.8036  0.2149 -0.3798
    5MOL0     C  532   2.414   0.597  10.099 -0.3175 -0.0301 -0.4669
    5MOL0     C  533   2.353   0.558   9.986  0.3257  0.0844 -0.7153
    5MOL0     C  534   2.209   0.546   9.991 -0.2384  0.3391  0.4694
    5MOL0     C  535   2.140   0.582  10.108  0.5755 -0.0417  0.1599
    5MOL0     O  536   2.005   0.581  10.119 -0.0579  0.5375 -0.7037
    5MOL0     C  537   1.913   0.576  10.009 -0.7838  1.3773 -1.1694
    5MOL0     C  538   1.779   0.621  10.061 -1.3049  0.2337 -1.2675
    5MOL0     C  539   1.667   0.613   9.960 -0.2103  0.1305 -0.4974
    5MOL0     C  540   1.693   0.707   9.847 -1.5359  0.5455  0.3864
    5MOL0     C  541   1.567   0.754   9.772  0.6381  0.2819  0.5964
    5MOL0     C  542   1.600   0.882   9.692 -0.2249 -0.4402 -0.1606
    5MOL0     C  543   1.492   0.914   9.596  0.7559 -0.1793  0.8604
    5MOL0     C  544   1.507   1.051   9.522 -0.4099  0.0164  0.0034
    5MOL0     N  545   1.389   1.075   9.445 -0.1222  0.6912 -1.0199
    5MOL0     C  546   1.280   1.151   9.482 -0.5256 -0.6859  0.5843
    5MOL0     C  547   1.204   1.172   9.368 -0.9323  0.9865 -0.8401
    5MOL0     C  548   1.084   1.259   9.363  0.5561  1.8460  0.5654
    5MOL0     C  549   1.114   1.411   9.372 -0.3749  0.3015 -0.2204
    5MOL0     C  550   1.124   1.491   9.239  0.0637 -0.2207  0.3157
    5MOL0     C  551   1.255   1.462   9.165  1.0876 -0.0722  0.9618
    5MOL0     O  552   1.359   1.534   9.235  0.0887  0.0325  0.4747
    5MOL0     C  553   1.480   1.476   9.270 -0.0592  0.2857  0.4706
    5MOL0     C  554   1.563   1.558   9.327 -0.7003 -0.5807 -0.6366
    5MOL0     C  555   1.682   1.505   9.370  0.5638  0.6178  0.2686
    5MOL0     C  556   1.727   1.374   9.365  0.6736 -0.1101 -0.7345
    5MOL0     C  557   1.865   1.341   9.420 -0.1111  0.7827  0.0775
    5MOL0     O  558   1.934   1.439   9.481 -0.3807 -0.1894  0.1687
    5MOL0     C  559   2.055   1.404   9.526  0.1069  0.0681 -0.3925
    5MOL0     C  560   2.057   1.361   9.660  0.1255 -0.6881 -0.2907
    5MOL0     C  561   2.174   1.312   9.695 -1.1594  0.0792 -0.5926
    5MOL0     C  562   2.288   1.285   9.625  0.0595 -0.1024  0.3652
    5MOL0     O  563   2.393   1.227   9.693 -0.2403 -0.6251  0.2625
    5MOL0     C  564   2.498   1.157   9.618  0.2755  0.5747  0.0681
    5MOL0     C  565   2.539   1.051   9.716  0.5056  0.1704  0.0636
    5MOL0     C  566   2.627   1.097   9.832  0.1964  0.0815  0.8721
    5MOL0     C  567   2.769   1.126   9.794  1.3027  0.4222 -0.3179
    5MOL0     C  568   2.867   1.128   9.916  0.1957 -1.2383  0.0976
    5MOL0     C  569   2.819   1.234  10.019  0.1511 -0.5213 -0.4178
    5MOL0     C  570   2.829   1.386   9.973 -0.2954  0.1408  0.4898
    5MOL0     C  571   2.740   1.471  10.064  0.3302 -0.4428 -0.1442
    5MOL0    Cl  572   2.728   1.634  10.005  0.6213  0.2398 -0.1461
    5MOL0     C  573   2.287   1.333   9.487 -0.0114 -0.2071  0.0817
    5MOL0     C  574   2.165   1.394   9.444  0.4075  0.6008  0.3807
    5MOL0     O  575   1.917   1.229   9.395 -0.0417  0.3830  0.2849
    5MOL0     C  576   1.633   1.286   9.303 -0.0008 -0.2757 -0.2642
    5MOL0     C  577   1.519   1.339   9.247 -0.5224  0.7487 -1.2964
    5MOL0     N  578   1.274   1.108   9.263 -0.5545 -0.8249 -0.0705
    5MOL0     N  579   1.375   1.060   9.308  0.3697  0.4072  0.7939
    5MOL0     C  580   2.215   0.622  10.217  0.7501  1.2937 -0.8242
    5MOL0     C  581   2.355   0.629  10.212 -0.5948 -0.3011  0.3972
    5MOL0     C  582   2.771   0.660  10.096 -0.6999 -0.2524  0.1392
    5MOL0     C  583   2.864   0.765  10.115 -0.2931  0.5380  0.0278
    5MOL0     C  584   3.000   0.747  10.080  0.3363 -0.2931  1.1064
    5MOL0     C  585   3.042   0.626  10.025 -0.5181  0.6065  0.2655
    5MOL0     O  586   3.183   0.611  10.000  0.2658 -0.0314  0.1791
    5MOL0     C  587   3.231   0.542   9.885  0.1439 -0.3949 -0.1990
    5MOL0     C  588   3.331   0.438   9.935 -0.5398  0.3313 -0.4869
    5MOL0     C  589   3.272   0.312  10.009  0.7508  0.3132  0.6206
    5MOL0     C  590   3.364   0.201  10.034  0.8957  1.3958 -0.4163
    5MOL0     C  591   3.506   0.225  10.028  1.1467 -0.1463  0.1678
    5MOL0     C  592   3.626   0.230  10.034  0.1656 -1.2252 -0.1060
    5MOL0     C  593   2.953   0.516  10.012 -0.5146  0.1628 -0.2408
    5MOL0     C  594   2.823   0.544  10.039 -0.1072  0.5181 -0.0616
    5MOL0     H  595   2.404   0.529   9.895  0.6912  1.8023 -1.0924
    5MOL0     H  596   2.161   0.508   9.902 -1.0213 -2.2139  1.8591
    5MOL0     H  597   1.916   0.478   9.960  0.9541  0.5809  0.4209
    5MOL0     H  598   1.932   0.648   9.929 -0.3998  1.8411 -0.6688
    5MOL0     H  599   1.788   0.728  10.084 -1.7164  1.3240 -5.3638
    5MOL0     H  600   1.757   0.563  10.151 -0.6529  1.3710 -0.3459
    5MOL0     H  601   1.571   0.635  10.007  0.4927  2.9092 -0.2403
    5MOL0     H  602   1.665   0.510   9.921 -3.4188 -1.1488  2.4696
    5MOL0     H  603   1.757   0.790   9.879 -0.4998  0.0060 -0.2230
    5MOL0     H  604   1.747   0.645   9.775  2.8735  2.1320  1.9376
    5MOL0     H  605   1.493   0.779   9.848 -0.0454 -0.6660  0.2572
    5MOL0     H  606   1.531   0.673   9.707  0.9857 -1.3477  2.3627
    5MOL0     H  607   1.696   0.866   9.643 -0.5164  1.9300 -1.6381
    5MOL0     H  608   1.602   0.967   9.761  1.2493  1.3185 -2.2538
    5MOL0     H  609   1.485   0.825   9.533  0.9515 -1.5444  2.6939
    5MOL0     H  610   1.399   0.925   9.654  1.1050  0.9226  1.2395
    5MOL0     H  611   1.598   1.042   9.463  0.1378  2.3697  0.4141
    5MOL0     H  612   1.512   1.138   9.587  2.0809  1.2093 -1.6412
    5MOL0     H  613   1.248   1.181   9.581 -1.7347 -0.0724  0.0380
    5MOL0     H  614   1.018   1.233   9.447 -0.5956  0.5591 -0.6897
    5MOL0     H  615   1.021   1.233   9.277  0.4082  0.6478  1.0206
    5MOL0     H  616   1.206   1.426   9.429  0.9621  0.3045 -2.2522
    5MOL0     H  617   1.026   1.450   9.425 -2.1219 -0.6866 -2.2285
    5MOL0     H  618   1.044   1.479   9.166  0.9833 -0.6222 -0.6350
    5MOL0     H  619   1.122   1.596   9.272  1.6030 -0.2421  0.5321
    5MOL0     H  620   1.252   1.508   9.065  0.2336  3.0410  2.2897
    5MOL0     H  621   1.266   1.354   9.157 -0.1653 -0.2555  1.5003
    5MOL0     H  622   1.557   1.666   9.320  2.1247 -0.4484 -3.0861
    5MOL0     H  623   1.745   1.584   9.410 -0.5713  1.8374 -0.2659
    5MOL0     H  624   1.968   1.374   9.721  0.2428  0.2465 -0.3005
    5MOL0     H  625   2.186   1.270   9.794  0.4122 -0.2410 -0.9034
    5MOL0     H  626   2.580   1.224   9.592  1.1840  0.6322  2.8060
    5MOL0     H  627   2.449   1.105   9.535 -0.9101  3.8722 -1.4900
    5MOL0     H  628   2.587   0.967   9.665  2.6271  1.8648 -0.8838
    5MOL0     H  629   2.448   1.022   9.771  1.7319  2.1353  3.4647
    5MOL0     H  630   2.615   1.018   9.908  1.3328  0.2979  1.2879
    5MOL0     H  631   2.592   1.195   9.865  0.4805  0.1836  0.8726
    5MOL0     H  632   2.812   1.044   9.736 -0.1629 -1.2282  0.8107
    5MOL0     H  633   2.762   1.220   9.739 -0.6957  0.0027 -0.8824
    5MOL0     H  634   2.960   1.170   9.875 -1.9329  1.8480 -1.9741
    5MOL0     H  635   2.884   1.029   9.958 -0.9333 -1.0009  1.1623
    5MOL0     H  636   2.886   1.217  10.104 -1.5142 -3.0426  0.5248
    5MOL0     H  637   2.720   1.206  10.056 -0.0099 -2.2917 -2.0200
    5MOL0     H  638   2.930   1.427   9.975  0.7121 -2.2019  0.1429
    5MOL0     H  639   2.792   1.392   9.870  0.9878 -0.0620  0.0013
    5MOL0     H  640   2.764   1.477  10.171 -0.0433 -2.5016  0.1048
    5MOL0     H  641   2.637   1.434  10.065 -0.0468  0.4089  2.5260
    5MOL0     H  642   2.376   1.313   9.427  0.1951 -1.1334  0.6723
    5MOL0     H  643   2.174   1.430   9.342 -0.0322 -2.1531 -0.7081
    5MOL0     H  644   1.645   1.180   9.282 -0.3046  0.0681 -2.4083
    5MOL0     H  645   1.448   1.274   9.197 -0.4292  0.5436 -1.1619
    5MOL0     H  646   2.158   0.657  10.303 -0.5073  0.8490 -1.4581
    5MOL0     H  647   2.389   0.665  10.308  0.4921 -0.7258  0.1849
    5MOL0     H  648   2.835   0.865  10.147 -0.4025  0.1146  1.3040
    5MOL0     H  649   3.083   0.817  10.084  0.4095 -0.2562 -0.3468
    5MOL0     H  650   3.274   0.617   9.818 -2.4546  0.9938 -0.4690
    5MOL0     H  651   3.148   0.497   9.829 -2.7296  4.0939 -0.0266
    5MOL0     H  652   3.389   0.403   9.849 -1.1423  3.3658 -2.2438
    5MOL0     H  653   3.404   0.488  10.000 -0.6317 -2.6862  2.2026
    5MOL0     H  654   3.198   0.273   9.939  0.6118  0.0376  0.9152
    5MOL0     H  655   3.228   0.334  10.107  1.6629  0.1731  1.0734
    5MOL0     H  656   3.347   0.154  10.131  2.1466  3.3934  0.8279
    5MOL0     H  657   3.337   0.121   9.963  5.8206 -1.1279  0.1570
    5MOL0     H  658   3.730   0.246  10.052 -0.1451 -0.6269  1.2799
    5MOL0     H  659   2.994   0.425   9.970  0.1788  0.7078 -0.7580
    5MOL0     H  660   2.758   0.458  10.031  1.4928 -0.8556  1.0906
    6MOL0     O  661   6.640   6.462   2.243  0.6467 -0.6041 -0.3956
    6MOL0     C  662   6.709   6.379   2.191 -0.4754 -0.2106 -0.1601
    6MOL0     O  663   6.698   6.241   2.214 -0.5702  0.0935  0.0510
    6MOL0     C  664   6.620   6.187   2.315  1.0293 -0.8378  0.5230
    6MOL0     C  665   6.564   6.051   2.300  0.2895 -0.1235  0.3633
    6MOL0     C  666   6.492   5.985   2.401 -0.2690  0.1091 -0.3738
    6MOL0     C  667   6.493   6.042   2.533  0.9476  0.1443 -0.1154
    6MOL0     O  668   6.430   5.970   2.636  0.1172 -0.4348  0.0588
    6MOL0     C  669   6.523   5.938   2.746  0.1268 -0.8647  1.4305
    6MOL0     C  670   6.651   5.873   2.722  0.1575  0.6889  1.6870
    6MOL0     C  671   6.747   5.903   2.841  0.4624 -1.1058  0.5889
    6MOL0     C  672   6.774   6.058   2.855 -0.7583 -1.0672  0.3771
    6MOL0     C  673   6.909   6.067   2.939  0.5431 -0.2982  0.2346
    6MOL0     C  674   7.034   6.005   2.871  0.0785 -0.6156 -0.7303
    6MOL0     C  675   7.163   6.001   2.955  0.0353  0.9395 -0.4647
    6MOL0     C  676   7.194   6.114   3.045 -1.1170 -0.6578 -0.7375
    6MOL0     N  677   7.327   6.092   3.107  0.2593 -0.8323  0.2402
    6MOL0     C  678   7.354   6.010   3.214  1.3395 -0.8881  0.8811
    6MOL0     C  679   7.481   6.050   3.249  0.2133 -0.2442 -0.3680
    6MOL0     C  680   7.562   5.975   3.347  0.6034  0.9035  0.6991
    6MOL0     C  681   7.699   5.921   3.288  0.8261 -0.5454  0.1108
    6MOL0     C  682   7.691   5.783   3.229 -0.0134 -0.5259 -0.6177
    6MOL0     C  683   7.615   5.776   3.099 -0.4539 -0.0401  0.1694
    6MOL0     O  684   7.500   5.693   3.106  0.3577  0.8993  0.1668
    6MOL0     C  685   7.487   5.576   3.043 -0.0473 -0.0460  0.1330
    6MOL0     C  686   7.363   5.510   3.039  0.6298  0.1539 -0.6810
    6MOL0     C  687   7.335   5.394   2.968 -0.1339  0.3100  0.4927
    6MOL0     C  688   7.440   5.338   2.896 -0.4888  1.0705  0.2973
    6MOL0     C  689   7.433   5.221   2.812 -0.2183  0.5508  0.2039
    6MOL0     O  690   7.545   5.161   2.769  0.5180  1.1805 -1.0919
    6MOL0     C  691   7.526   5.037   2.708  0.1478 -0.0407  0.6459
    6MOL0     C  692   7.562   4.926   2.780  0.0749  0.9044 -0.0349
    6MOL0     C  693   7.568   4.800   2.717 -0.0942  0.2220 -0.2134
    6MOL0     C  694   7.530   4.793   2.583  0.5528  0.1951  1.2015
    6MOL0     O  695   7.529   4.675   2.516  0.3147 -0.0912 -0.3588
    6MOL0     C  696   7.522   4.550   2.588  0.5073 -1.2608 -0.8726
    6MOL0     C  697   7.374   4.531   2.649  0.1308  0.9271  0.2009
    6MOL0     C  698   7.323   4.602   2.771 -0.1926 -0.8315 -0.6701
    6MOL0     C  699   7.189   4.543   2.800  0.5511 -0.4991 -0.3690
    6MOL0     C  700   7.124   4.606   2.931 -1.0514  0.9772 -0.0367
    6MOL0     C  701   6.977   4.546   2.947 -0.6160  0.0139 -0.4354
    6MOL0     C  702   6.884   4.608   3.047 -0.4368 -0.2487 -0.2709
    6MOL0     C  703   6.737   4.575   3.026 -0.3613  0.3145 -0.0813
    6MOL0    Cl  704   6.689   4.402   3.052  0.2186 -0.5066 -0.0120
    6MOL0     C  705   7.483   4.907   2.506 -0.5258 -0.6451  0.5689
    6MOL0     C  706   7.477   5.028   2.575  0.4222  0.1116 -0.2913
    6MOL0     O  707   7.319   5.191   2.782  0.1703 -0.2783 -0.3347
    6MOL0     C  708   7.575   5.400   2.901 -0.5302  0.4925 -0.4630
    6MOL0     C  709   7.600   5.514   2.969  0.9075 -0.5968 -0.3359
    6MOL0     N  710   7.527   6.151   3.157 -0.0198 -0.2452  0.2745
    6MOL0     N  711   7.434   6.168   3.075 -0.4572 -0.9554 -0.4378
    6MOL0     C  712   6.527   6.177   2.549  0.6164  0.5522  1.2115
    6MOL0     C  713   6.595   6.251   2.440  0.0957  0.3572 -0.0752
    6MOL0     C  714   6.803   6.411   2.086  0.3985  0.1090  0.8908
    6MOL0     C  715   6.855   6.542   2.074 -0.1330 -0.2353 -0.0938
    6MOL0     C  716   6.935   6.585   1.964  0.8371  0.5032 -0.5575
    6MOL0     C  717   6.963   6.495   1.867 -0.1933 -0.6085  0.0267
    6MOL0     O  718   7.026   6.514   1.755 -0.8268  0.5073  1.0532
    6MOL0     C  719   6.993   6.635   1.693 -0.5440 -0.1034 -0.4744
    6MOL0     C  720   7.071   6.650   1.559 -0.3616  0.0151  0.3430
    6MOL0     C  721   7.225   6.667   1.568  0.5922  0.1460 -0.4593
    6MOL0     C  722   7.285   6.683   1.439 -1.1763 -0.6522  1.0309
    6MOL0     C  723   7.270   6.564   1.359 -0.2698 -0.2491 -0.0122
    6MOL0     C  724   7.256   6.463   1.298 -0.7773  1.2172  0.1147
    6MOL0     C  725   6.933   6.355   1.892  1.2923 -0.5582  1.0342
    6MOL0     C  726   6.858   6.314   2.002  0.0505 -0.0852  0.1795
    6MOL0     H  727   6.566   6.006   2.201  1.1400 -0.8342  0.7043
    6MOL0     H  728   6.458   5.883   2.391 -3.8515  0.8581  2.3442
    6MOL0     H  729   6.473   5.871   2.817 -0.6689  1.0808  2.7909
    6MOL0     H  730   6.542   6.032   2.798  1.4931 -1.1181  1.4434
    6MOL0     H  731   6.689   5.898   2.622 -2.3341  1.2944  0.8177
    6MOL0     H  732   6.630   5.766   2.715  2.3350  0.2925 -0.2162
    6MOL0     H  733   6.838   5.846   2.817 -0.1785 -1.3446 -1.5042
    6MOL0     H  734   6.711   5.861   2.935  1.6025 -1.5086  0.8623
    6MOL0     H  735   6.790   6.103   2.757  1.7983  0.8693  1.5726
    6MOL0     H  736   6.695   6.109   2.910  0.0233  1.0388 -0.3514
    6MOL0     H  737   6.892   6.009   3.029  1.7631 -1.5806 -0.3305
    6MOL0     H  738   6.930   6.172   2.964  0.4971 -0.7187  2.1510
    6MOL0     H  739   7.055   6.064   2.782  2.4396 -0.0388  0.1327
    6MOL0     H  740   7.022   5.902   2.834 -3.0250 -0.5666 -0.1127
    6MOL0     H  741   7.162   5.914   3.021  3.3873  0.7472 -0.4608
    6MOL0     H  742   7.240   5.989   2.878 -2.4948 -0.1506 -2.9932
    6MOL0     H  743   7.128   6.134   3.130 -0.0124  1.1032 -0.2314
    6MOL0     H  744   7.198   6.210   2.993 -0.2468  2.6710  4.6077
    6MOL0     H  745   7.294   5.937   3.267 -2.2761  0.5686 -0.8335
    6MOL0     H  746   7.502   5.892   3.385  1.1766 -0.0497 -0.4188
    6MOL0     H  747   7.591   6.041   3.429  2.9647  1.9464 -0.8738
    6MOL0     H  748   7.764   5.918   3.376  0.5689  1.6152  0.4456
    6MOL0     H  749   7.739   5.987   3.211  0.5100 -0.3731  0.0905
    6MOL0     H  750   7.793   5.744   3.219  1.4664  2.0766  2.4671
    6MOL0     H  751   7.652   5.719   3.308 -0.7834  0.2333 -0.3667
    6MOL0     H  752   7.679   5.744   3.017 -0.2871 -0.8831  0.6253
    6MOL0     H  753   7.593   5.873   3.053  3.9563  0.6563 -0.8725
    6MOL0     H  754   7.283   5.555   3.096  0.6836  2.8565 -2.5118
    6MOL0     H  755   7.235   5.353   2.959 -0.4508  1.0171  0.7527
    6MOL0     H  756   7.609   4.927   2.878 -0.8115  0.8032  0.3989
    6MOL0     H  757   7.602   4.715   2.776  0.7369  1.9304  1.9270
    6MOL0     H  758   7.611   4.539   2.650  1.5521  0.4561 -1.9618
    6MOL0     H  759   7.525   4.473   2.510 -0.8452 -2.0938 -0.1323
    6MOL0     H  760   7.373   4.427   2.683  0.9659  1.3334  1.5767
    6MOL0     H  761   7.303   4.547   2.568 -2.0562 -0.2716  1.7660
    6MOL0     H  762   7.311   4.710   2.757  1.5628 -0.5362 -0.1535
    6MOL0     H  763   7.389   4.589   2.858 -3.2087  0.6878  2.0490
    6MOL0     H  764   7.138   4.574   2.708  3.9706  1.1196 -1.9207
    6MOL0     H  765   7.188   4.435   2.820  0.1526  0.0694  3.3878
    6MOL0     H  766   7.128   4.715   2.942 -2.0557  0.9377  0.8738
    6MOL0     H  767   7.186   4.578   3.017 -2.2585 -2.0506 -0.0193
    6MOL0     H  768   6.982   4.438   2.963  0.5983  0.1500  0.2977
    6MOL0     H  769   6.932   4.572   2.851  2.5697  4.5157 -1.0260
    6MOL0     H  770   6.924   4.579   3.145  0.8388 -0.5793 -0.8560
    6MOL0     H  771   6.905   4.715   3.041  2.2534 -0.6469  0.5377
    6MOL0     H  772   6.712   4.613   2.926  1.8005 -0.4946 -0.9763
    6MOL0     H  773   6.676   4.626   3.101 -2.0197 -0.7265 -0.6498
    6MOL0     H  774   7.455   4.891   2.403  0.4964  0.2495  0.1395
    6MOL0     H  775   7.462   5.123   2.525  3.0670  1.4990  1.2658
    6MOL0     H  776   7.664   5.360   2.852 -0.0443 -1.5565  1.9203
    6MOL0     H  777   7.695   5.559   2.944 -0.0035  1.2999 -0.5692
    6MOL0     H  778   6.523   6.217   2.650 -2.9328 -0.2734  1.5180
    6MOL0     H  779   6.630   6.350   2.465 -1.5785  0.6347  1.2847
    6MOL0     H  780   6.827   6.622   2.141  0.0826 -0.4663  0.2756
    6MOL0     H  781   6.969   6.687   1.957 -0.4207  0.8963 -1.5079
    6MOL0     H  782   7.025   6.721   1.754 -2.1889 -0.7847  1.4502
    6MOL0     H  783   6.886   6.643   1.674 -1.1926  1.5949  2.9547
    6MOL0     H  784   7.045   6.559   1.505  0.4980 -1.2615  1.9843
    6MOL0     H  785   7.034   6.737   1.504  0.4351 -0.2337 -0.6183
    6MOL0     H  786   7.261   6.576   1.617  0.7338  0.0599 -0.7196
    6MOL0     H  787   7.251   6.749   1.636 -0.7455 -0.6386  1.0864
    6MOL0     H  788   7.248   6.770   1.384 -1.2795 -1.5412 -0.3900
    6MOL0     H  789   7.392   6.700   1.452 -1.4436  3.1171 -0.6309
    6MOL0     H  790   7.245   6.365   1.257 -0.9080  0.7605  1.2287
    6MOL0     H  791   6.966   6.286   1.816 -2.2446 -0.1748 -1.0652
    6MOL0     H  792   6.834   6.209   2.013 -2.6642  0.4559  0.1830
    7MOL0     O  793  10.217   3.151   3.378 -0.7262 -1.1570 -0.0914
    7MOL0     C  794  10.209   3.104   3.270 -0.4121  0.5819  0.0605
    7MOL0     O  795  10.163   3.166   3.160  0.4446 -0.3276 -0.1216
    7MOL0     C  796  10.123   3.296   3.175 -0.3595  1.0414 -0.5624
    7MOL0     C  797  10.223   3.396   3.183  0.6973 -0.1412 -0.4482
    7MOL0     C  798  10.179   3.531   3.197  0.9614 -0.6105  0.5532
    7MOL0     C  799  10.047   3.560   3.232 -0.1016  0.5044  0.4072
    7MOL0     O  800   9.984   3.685   3.237 -0.3869 -0.7296  0.2993
    7MOL0     C  801  10.076   3.792   3.274 -0.1438  0.1214  0.6714
    7MOL0     C  802  10.018   3.927   3.318 -0.2223 -0.6431 -0.5323
    7MOL0     C  803   9.926   3.992   3.213 -0.9706  0.2958 -0.9332
    7MOL0     C  804   9.889   4.135   3.250 -1.1649 -0.0209 -0.2119
    7MOL0     C  805   9.744   4.154   3.242 -0.0731  0.6200 -0.5557
    7MOL0     C  806   9.683   4.119   3.378 -0.4037  0.3308 -0.2480
    7MOL0     C  807   9.544   4.057   3.365 -0.1825 -0.2437  0.2469
    7MOL0     C  808   9.438   4.094   3.464  0.2844 -0.4659  0.7032
    7MOL0     N  809   9.464   4.025   3.597 -0.5980 -1.0766  0.2001
    7MOL0     C  810   9.580   4.030   3.675  0.0738  0.2873  0.0492
    7MOL0     C  811   9.556   3.956   3.778  0.4357 -0.2254 -0.6557
    7MOL0     C  812   9.651   3.933   3.892  0.0653  0.5124  0.4644
    7MOL0     C  813   9.632   4.036   4.018  0.2017  0.3845 -0.0285
    7MOL0     C  814   9.744   4.014   4.118  0.1225 -0.1122  0.7257
    7MOL0     C  815   9.745   4.123   4.229 -0.3018  0.8373 -0.0793
    7MOL0     O  816   9.631   4.120   4.315  0.2437  0.6643  0.6978
    7MOL0     C  817   9.635   4.195   4.427 -0.9259 -0.3374  0.7796
    7MOL0     C  818   9.548   4.304   4.435  0.5758  0.0043  0.4804
    7MOL0     C  819   9.569   4.402   4.542 -0.2035 -0.2854 -0.4264
    7MOL0     C  820   9.676   4.385   4.638 -0.1197  0.4307  0.9042
    7MOL0     C  821   9.681   4.456   4.765 -0.1539 -0.4862 -0.1604
    7MOL0     O  822   9.783   4.427   4.846  1.0595  0.4872  0.3977
    7MOL0     C  823   9.766   4.474   4.973  0.1516  1.8136 -0.2024
    7MOL0     C  824   9.877   4.544   5.026  0.4601 -0.2828 -0.0380
    7MOL0     C  825   9.879   4.582   5.160 -0.1331  0.0496  0.3498
    7MOL0     C  826   9.760   4.571   5.232 -0.8664  0.4015 -0.0456
    7MOL0     O  827   9.731   4.612   5.357  0.2764 -1.2741 -0.4431
    7MOL0     C  828   9.824   4.690   5.429 -0.2847 -0.2103  0.7741
    7MOL0     C  829   9.756   4.733   5.559  0.5521 -1.2165  0.6207
    7MOL0     C  830   9.678   4.630   5.640  0.4024 -0.4164 -0.4988
    7MOL0     C  831   9.791   4.526   5.693  0.7204  0.1271  0.6350
    7MOL0     C  832   9.726   4.414   5.779 -0.6709 -0.6339  0.2502
    7MOL0     C  833   9.812   4.293   5.780  0.4657 -0.3290 -0.4448
    7MOL0     C  834   9.777   4.185   5.892  0.7074  0.0978 -0.0514
    7MOL0     C  835   9.896   4.114   5.947 -0.0549  0.1564  0.2307
    7MOL0    Cl  836   9.860   4.043   6.118 -0.3513  0.6303  0.3195
    7MOL0     C  837   9.653   4.503   5.176 -0.3558 -0.1714 -0.7488
    7MOL0     C  838   9.657   4.449   5.052  0.1280 -0.2449 -1.2332
    7MOL0     O  839   9.592   4.547   4.785 -0.3910  0.1397 -0.2205
    7MOL0     C  840   9.749   4.266   4.623 -0.4921 -0.4103  0.4623
    7MOL0     C  841   9.730   4.172   4.529 -0.4582 -0.1204 -0.1546
    7MOL0     N  842   9.427   3.899   3.770 -0.6437 -0.3669  0.4004
    7MOL0     N  843   9.381   3.934   3.651 -0.8047  0.9555  0.2751
    7MOL0     C  844   9.954   3.450   3.237  0.3849  0.1781  0.3899
    7MOL0     C  845   9.986   3.320   3.197  0.6684 -0.5088 -0.9239
    7MOL0     C  846  10.247   2.961   3.244 -0.4055 -0.6038  0.3324
    7MOL0     C  847  10.263   2.865   3.353 -0.3525 -0.1411 -0.2511
    7MOL0     C  848  10.268   2.730   3.329 -0.1117  0.2932 -0.0117
    7MOL0     C  849  10.244   2.673   3.206 -0.2498  0.7708 -0.6596
    7MOL0     O  850  10.250   2.535   3.201 -0.3527  0.6549  0.1563
    7MOL0     C  851  10.247   2.474   3.061  0.1880 -0.4702  0.1519
    7MOL0     C  852  10.197   2.328   3.052 -0.4536  0.3158 -1.3379
    7MOL0     C  853  10.244   2.264   2.917 -1.2454 -0.4519 -0.2274
    7MOL0     C  854  10.204   2.336   2.786 -0.1274 -1.5038 -0.0426
    7MOL0     C  855  10.206   2.241   2.677 -0.3923 -0.5409 -0.6134
    7MOL0     C  856  10.237   2.163   2.581 -0.1633 -0.3777 -0.3818
    7MOL0     C  857  10.239   2.767   3.102  0.0738 -0.4880  0.7871
    7MOL0     C  858  10.249   2.903   3.121 -0.3978  0.3926 -0.2045
    7MOL0     H  859  10.329   3.373   3.182  1.4567  2.8258  0.6621
    7MOL0     H  860  10.260   3.603   3.185  2.8920 -2.7135  0.1353
    7MOL0     H  861  10.140   3.808   3.188  0.4933 -4.8414 -0.1002
    7MOL0     H  862  10.145   3.755   3.351 -1.9909 -0.1840  2.2704
    7MOL0     H  863  10.110   3.982   3.340 -0.2936 -0.4698 -0.6769
    7MOL0     H  864   9.967   3.918   3.415  2.5541 -0.7120  1.0374
    7MOL0     H  865   9.831   3.938   3.216 -1.3215  0.9135  1.0984
    7MOL0     H  866   9.972   4.004   3.115 -2.0500  1.3272 -1.3430
    7MOL0     H  867   9.923   4.156   3.352 -1.5917  0.8830 -0.2470
    7MOL0     H  868   9.935   4.204   3.178 -1.7495  2.7319  1.8875
    7MOL0     H  869   9.693   4.103   3.160  0.2254 -4.3908  1.9614
    7MOL0     H  870   9.718   4.259   3.223 -0.1845  0.7890  0.4872
    7MOL0     H  871   9.698   4.207   3.441 -2.1755  0.7260 -0.3481
    7MOL0     H  872   9.742   4.035   3.417  1.9028  1.0053 -2.0166
    7MOL0     H  873   9.496   4.090   3.273  1.9595 -1.7941 -1.5207
    7MOL0     H  874   9.558   3.949   3.353  0.5447  0.0958 -2.8789
    7MOL0     H  875   9.344   4.059   3.421  0.2404  0.3289  0.1343
    7MOL0     H  876   9.436   4.204   3.457 -2.3675 -0.5068  0.1183
    7MOL0     H  877   9.667   4.084   3.640 -1.8409  1.4934 -3.2906
    7MOL0     H  878   9.755   3.938   3.860  0.6074 -1.7097  1.6996
    7MOL0     H  879   9.632   3.831   3.926 -3.2084  0.5499 -0.8889
    7MOL0     H  880   9.536   4.022   4.069 -1.0239  0.5794 -2.1758
    7MOL0     H  881   9.623   4.138   3.978 -0.7263  0.4746  0.3726
    7MOL0     H  882   9.732   3.911   4.154  1.4776 -1.0733 -1.3482
    7MOL0     H  883   9.842   4.020   4.069  0.3600  0.6857  1.2755
    7MOL0     H  884   9.742   4.221   4.180 -3.7032  1.0760  0.3369
    7MOL0     H  885   9.829   4.120   4.298 -1.5024  0.0326  1.4217
    7MOL0     H  886   9.466   4.312   4.364  1.1726 -0.2709 -0.2593
    7MOL0     H  887   9.513   4.494   4.560  1.8497  0.8418  0.5652
    7MOL0     H  888   9.967   4.545   4.965  1.5971 -0.8702  1.5705
    7MOL0     H  889   9.967   4.637   5.191  1.0704 -1.8350  0.4753
    7MOL0     H  890   9.848   4.776   5.365 -4.5167  0.0566 -0.7993
    7MOL0     H  891   9.903   4.620   5.455 -0.5222 -0.5516  0.5816
    7MOL0     H  892   9.683   4.811   5.534  2.1868 -0.5003 -2.4381
    7MOL0     H  893   9.837   4.781   5.614  1.8927 -0.7084 -1.6510
    7MOL0     H  894   9.597   4.594   5.576 -2.2191  2.1597  1.1324
    7MOL0     H  895   9.619   4.665   5.725 -1.1990 -1.6645 -1.0478
    7MOL0     H  896   9.836   4.482   5.604  0.3889 -1.4118  1.1863
    7MOL0     H  897   9.868   4.573   5.755  2.4620  0.5925 -1.7316
    7MOL0     H  898   9.627   4.390   5.739 -0.3939 -3.1883  0.8971
    7MOL0     H  899   9.720   4.454   5.881  0.1691  1.8055 -0.5844
    7MOL0     H  900   9.919   4.314   5.788  0.8015 -1.7598 -0.9158
    7MOL0     H  901   9.800   4.244   5.683 -0.6695  1.8795 -1.5027
    7MOL0     H  902   9.719   4.223   5.976 -3.6374 -0.3769 -2.5358
    7MOL0     H  903   9.712   4.105   5.856 -0.4187  2.0767 -2.7653
    7MOL0     H  904   9.974   4.186   5.972 -1.3386  1.0852  1.7554
    7MOL0     H  905   9.935   4.035   5.883  1.0118  1.6951 -1.1017
    7MOL0     H  906   9.559   4.486   5.227  0.7839  2.0705  2.4845
    7MOL0     H  907   9.584   4.372   5.030  2.6989 -3.0648 -0.5383
    7MOL0     H  908   9.828   4.252   4.696  0.6668  0.5353 -0.5561
    7MOL0     H  909   9.795   4.085   4.536 -0.7338 -0.3176 -0.0425
    7MOL0     H  910   9.856   3.484   3.268  1.2295  2.2637  0.8917
    7MOL0     H  911   9.907   3.247   3.187  0.0525  0.3632 -2.8673
    7MOL0     H  912  10.273   2.892   3.458  1.8110 -2.7694  0.3186
    7MOL0     H  913  10.295   2.664   3.410  1.1176 -0.0237 -0.6468
    7MOL0     H  914  10.349   2.475   3.022 -0.7533  1.5170 -2.6821
    7MOL0     H  915  10.185   2.529   2.990  0.0615  0.3500  0.8856
    7MOL0     H  916  10.230   2.262   3.132 -3.1073  0.8302  0.3049
    7MOL0     H  917  10.088   2.326   3.063 -0.3725  0.5328 -0.4136
    7MOL0     H  918  10.205   2.162   2.914  0.3003 -1.0615 -0.7875
    7MOL0     H  919  10.351   2.243   2.916 -1.3866 -1.2065 -1.4771
    7MOL0     H  920  10.106   2.384   2.791  0.0988 -0.9397 -0.6951
    7MOL0     H  921  10.275   2.413   2.754 -1.2518  0.3649  1.6804
    7MOL0     H  922  10.248   2.089   2.504 -0.1283 -4.1759  2.9741
    7MOL0     H  923  10.229   2.733   3.000 -0.2247 -4.0654  1.8569
    7MOL0     H  924  10.251   2.948   3.022  0.0247 -0.4553 -0.5912
    8MOL0     O  925   3.262  10.839   2.779 -0.3442 -0.7579 -0.2175
    8MOL0     C  926   3.306  10.929   2.706 -0.6849  0.1908  0.2778
    8MOL0     O  927   3.390  11.025   2.744 -0.1486 -0.2753 -0.0306
    8MOL0     C  928   3.474  10.998   2.849  0.3420 -0.6874  0.1272
    8MOL0     C  929   3.609  10.966   2.831 -0.4358  0.2713  0.1430
    8MOL0     C  930   3.685  10.921   2.950  0.3686 -0.5836  0.1685
    8MOL0     C  931   3.629  10.937   3.077 -0.1111 -0.4256 -0.5514
    8MOL0     O  932   3.713  10.899   3.178  0.3612 -0.6265 -0.2665
    8MOL0     C  933   3.754  10.762   3.180  0.3440  0.5858 -0.0216
    8MOL0     C  934   3.801  10.734   3.325  0.6265  0.0896 -0.4198
    8MOL0     C  935   3.860  10.592   3.343 -0.5659  0.6740 -0.0700
    8MOL0     C  936   3.938  10.587   3.473  0.1654 -0.9586  0.2122
    8MOL0     C  937   3.844  10.602   3.599 -0.1808 -0.3909  0.0088
    8MOL0     C  938   3.925  10.585   3.728 -0.1650  0.5549 -0.2589
    8MOL0     C  939   3.841  10.555   3.857  0.2858  0.6519  0.2052
    8MOL0     C  940   3.773  10.676   3.915 -0.1174  1.3795  0.4314
    8MOL0     N  941   3.697  10.636   4.032 -0.0185 -0.2872  0.1270
    8MOL0     C  942   3.590  10.708   4.068  0.8214  0.2857 -0.0977
    8MOL0     C  943   3.542  10.639   4.178  0.2752 -0.4694  0.2193
    8MOL0     C  944   3.415  10.671   4.255 -0.4374 -0.0071  0.3194
    8MOL0     C  945   3.294  10.672   4.157  0.3909  0.0952  0.1766
    8MOL0     C  946   3.273  10.568   4.045 -0.2199 -0.0292 -0.3442
    8MOL0     C  947   3.297  10.420   4.087 -0.4015 -0.1753  0.6696
    8MOL0     O  948   3.221  10.381   4.205 -0.0150 -0.1108  0.5328
    8MOL0     C  949   3.085  10.393   4.201 -0.0325 -0.1211 -0.6325
    8MOL0     C  950   3.018  10.375   4.081  0.3383 -0.3312 -0.1200
    8MOL0     C  951   2.879  10.382   4.070 -0.1417 -0.0282 -0.3654
    8MOL0     C  952   2.810  10.399   4.190  0.8608  0.5636  0.6754
    8MOL0     C  953   2.668  10.383   4.196  0.8201 -0.7658  0.1141
    8MOL0     O  954   2.603  10.359   4.071 -0.1757 -0.1098 -0.1758
    8MOL0     C  955   2.472  10.326   4.058 -0.8934 -0.8768  0.9532
    8MOL0     C  956   2.370  10.373   4.137 -0.8398 -0.3549 -0.4154
    8MOL0     C  957   2.238  10.334   4.114  0.7453 -0.0849  0.5585
    8MOL0     C  958   2.220  10.235   4.019  1.0326 -0.4285  0.2249
    8MOL0     O  959   2.099  10.191   3.980  0.4738 -0.2073  0.1916
    8MOL0     C  960   1.976  10.277   4.021 -0.1834  0.0450  0.7060
    8MOL0     C  961   1.856  10.242   3.936  0.1649  0.3032  0.2759
    8MOL0     C  962   1.742  10.339   3.949 -1.0774 -0.1841 -0.2927
    8MOL0     C  963   1.674  10.331   4.081  0.0084 -0.1400  0.0380
    8MOL0     C  964   1.529  10.398   4.070  0.5766 -1.1595 -0.1808
    8MOL0     C  965   1.540  10.548   4.056  0.1152 -0.6997  0.3201
    8MOL0     C  966   1.555  10.629   4.190 -0.4172  0.5172 -0.1155
    8MOL0     C  967   1.427  10.672   4.257  0.8627  0.1369  0.2558
    8MOL0    Cl  968   1.359  10.532   4.355 -0.0408 -0.7280 -0.1148
    8MOL0     C  969   2.327  10.180   3.948 -0.0978 -0.1240  0.3953
    8MOL0     C  970   2.457  10.230   3.959 -0.0659  0.2190  0.0350
    8MOL0     O  971   2.610  10.391   4.306 -0.8016  0.2360  0.8303
    8MOL0     C  972   2.874  10.429   4.313 -0.3539  0.0939 -0.2775
    8MOL0     C  973   3.010  10.418   4.321 -0.0797 -0.0328 -0.4809
    8MOL0     N  974   3.622  10.530   4.192 -0.0934 -0.0891  0.6978
    8MOL0     N  975   3.722  10.531   4.112  0.0370 -0.4985 -0.0282
    8MOL0     C  976   3.503  10.995   3.095 -0.0443  0.4863  1.0546
    8MOL0     C  977   3.425  11.015   2.974  0.0320  0.6700 -0.3203
    8MOL0     C  978   3.262  10.929   2.561 -0.3051 -0.0397 -0.2428
    8MOL0     C  979   3.342  11.005   2.474  0.4182  0.0897  1.0659
    8MOL0     C  980   3.320  10.988   2.326 -0.3557 -0.5678 -0.4014
    8MOL0     C  981   3.222  10.892   2.284  0.3059 -1.1693 -0.8662
    8MOL0     O  982   3.215  10.877   2.149 -0.7412 -0.5169 -0.0320
    8MOL0     C  983   3.100  10.805   2.099 -0.9780 -0.3488 -0.6259
    8MOL0     C  984   2.957  10.861   2.113 -0.5266 -0.5758  0.7018
    8MOL0     C  985   2.952  11.008   2.116 -0.0647  1.1143  0.1321
    8MOL0     C  986   2.804  11.053   2.119 -0.7168 -0.0555  0.1529
    8MOL0     C  987   2.718  11.006   2.229 -0.4885 -0.8826  0.5635
    8MOL0     C  988   2.631  10.965   2.295 -0.9928 -0.3952 -0.4412
    8MOL0     C  989   3.134  10.838   2.381  0.5814  0.3266  0.8499
    8MOL0     C  990   3.166  10.833   2.512  0.4684 -0.4878 -0.1080
    8MOL0     H  991   3.644  10.953   2.729  6.2013  0.0170  1.9680
    8MOL0     H  992   3.788  10.893   2.933  1.2092  2.5819 -0.4743
    8MOL0     H  993   3.840  10.736   3.116 -2.6352 -1.3831 -3.6586
    8MOL0     H  994   3.680  10.690   3.144 -1.4692  1.0986  2.4515
    8MOL0     H  995   3.716  10.752   3.392 -0.2141  2.8270 -2.0601
    8MOL0     H  996   3.876  10.811   3.345  0.8228 -0.7443  2.4060
    8MOL0     H  997   3.925  10.566   3.260 -1.8129 -0.6104 -0.6804
    8MOL0     H  998   3.784  10.514   3.352 -1.2538  1.0359 -2.1584
    8MOL0     H  999   3.989  10.490   3.475  0.8972 -0.5975 -0.3375
    8MOL0     H 1000   4.009  10.669   3.486  0.1630 -1.3203  2.9372
    8MOL0     H 1001   3.765  10.526   3.594 -0.9342  0.2625  1.2616
    8MOL0     H 1002   3.799  10.701   3.606  4.1356  1.7631  0.7841
    8MOL0     H 1003   3.957  10.688   3.749 -0.4983  0.1547  2.6072
    8MOL0     H 1004   4.010  10.517   3.725 -0.4490  0.0365  1.6874
    8MOL0     H 1005   3.755  10.495   3.826 -1.5212  3.6490 -1.0602
    8MOL0     H 1006   3.902  10.495   3.925 -3.3151 -1.6513  1.6711
    8MOL0     H 1007   3.707  10.714   3.836 -0.0294  0.5388 -0.0629
    8MOL0     H 1008   3.834  10.764   3.937 -2.0775  2.9177 -0.0064
    8MOL0     H 1009   3.549  10.802   4.033  0.2557  1.1709  2.6876
    8MOL0     H 1010   3.426  10.774   4.291  3.5060 -0.2950  0.2911
    8MOL0     H 1011   3.403  10.605   4.341 -1.4911  0.8485  0.8661
    8MOL0     H 1012   3.310  10.768   4.108 -0.7393 -0.1878 -0.7979
    8MOL0     H 1013   3.208  10.672   4.225  0.6693 -0.5396  0.5366
    8MOL0     H 1014   3.173  10.575   4.002 -0.1628 -0.9673 -0.6404
    8MOL0     H 1015   3.341  10.598   3.965  0.8718  2.1143  1.2535
    8MOL0     H 1016   3.404  10.412   4.107  0.1900  3.9443  0.1572
    8MOL0     H 1017   3.279  10.345   4.010  0.5285 -1.1318  1.3649
    8MOL0     H 1018   3.067  10.354   3.987 -1.1126 -3.0841 -0.3716
    8MOL0     H 1019   2.829  10.372   3.974  0.6193  0.5901 -0.8338
    8MOL0     H 1020   2.396  10.446   4.214  0.4295  1.1230 -2.1386
    8MOL0     H 1021   2.157  10.374   4.174  1.5538 -0.8148  2.1964
    8MOL0     H 1022   2.001  10.383   4.010 -2.9580  1.0405  2.8453
    8MOL0     H 1023   1.946  10.266   4.126  0.5777 -2.1062  0.7557
    8MOL0     H 1024   1.825  10.142   3.967  0.3389  0.2979  0.4368
    8MOL0     H 1025   1.874  10.246   3.828 -0.0823  1.7927  0.2657
    8MOL0     H 1026   1.666  10.344   3.870  0.1224 -0.1270 -1.4984
    8MOL0     H 1027   1.782  10.441   3.941 -0.1221 -0.3341  1.8628
    8MOL0     H 1028   1.660  10.227   4.112  1.7995  0.7282  4.6829
    8MOL0     H 1029   1.747  10.375   4.150  3.5171 -3.6074 -1.1249
    8MOL0     H 1030   1.468  10.375   4.158 -1.2004  2.5602 -0.2672
    8MOL0     H 1031   1.466  10.364   3.987 -0.3166 -0.1281  0.0622
    8MOL0     H 1032   1.444  10.580   4.014  1.1618  0.6816 -1.1629
    8MOL0     H 1033   1.612  10.573   3.978 -0.2963 -0.0002  0.1524
    8MOL0     H 1034   1.621  10.585   4.265  0.0695  0.6342 -0.4718
    8MOL0     H 1035   1.608  10.721   4.166 -0.7882  0.6830 -0.3067
    8MOL0     H 1036   1.350  10.707   4.187  3.6421  3.4377 -1.4827
    8MOL0     H 1037   1.444  10.754   4.327  0.2875 -0.3841  1.0100
    8MOL0     H 1038   2.306  10.108   3.870  3.2585 -1.2094  0.3179
    8MOL0     H 1039   2.536  10.186   3.899  0.6837 -0.3536  1.3954
    8MOL0     H 1040   2.824  10.440   4.408  0.4150  0.4472  0.0981
    8MOL0     H 1041   3.069  10.425   4.412  1.0616  1.2368 -1.2861
    8MOL0     H 1042   3.488  11.009   3.202  0.3217  0.0237  1.1704
    8MOL0     H 1043   3.319  11.040   2.969 -0.1394  0.4727  1.6405
    8MOL0     H 1044   3.425  11.069   2.501  0.2362  0.1750  1.4314
    8MOL0     H 1045   3.387  11.030   2.251  0.9828 -3.1569 -0.7742
    8MOL0     H 1046   3.106  10.706   2.146  2.4251 -0.4292 -0.9312
    8MOL0     H 1047   3.129  10.780   1.997 -0.6997 -0.9290 -0.4105
    8MOL0     H 1048   2.902  10.814   2.031 -0.9745 -1.0581  1.2675
    8MOL0     H 1049   2.886  10.818   2.186 -4.7963 -0.9264 -3.1803
    8MOL0     H 1050   2.987  11.042   2.018  0.7588 -0.4118 -0.1262
    8MOL0     H 1051   3.010  11.046   2.201 -2.2269 -1.2066  2.8348
    8MOL0     H 1052   2.786  11.161   2.109  1.5123  0.3123 -0.3853
    8MOL0     H 1053   2.752  11.002   2.037 -1.0414 -0.6812  0.7419
    8MOL0     H 1054   2.550  10.925   2.353 -0.1418  0.2656  1.2663
    8MOL0     H 1055   3.060  10.766   2.349  1.9742 -2.2753  3.0808
    8MOL0     H 1056   3.123  10.759   2.578  2.5774 -1.0397  0.7432
    9MOL0     O 1057   3.641   6.583   5.688  0.2829 -0.2547  0.7406
    9MOL0     C 1058   3.605   6.585   5.568  0.9636  0.2388  0.2123
    9MOL0     O 1059   3.502   6.508   5.512  0.4820 -0.2822  0.2898
    9MOL0     C 1060   3.426   6.424   5.583  0.5224  0.5523  0.0453
    9MOL0     C 1061   3.362   6.328   5.511 -0.2042  0.6892 -0.2792
    9MOL0     C 1062   3.293   6.225   5.579  0.4974 -0.0096 -0.1392
    9MOL0     C 1063   3.265   6.227   5.714 -0.4602 -0.1661  0.9449
    9MOL0     O 1064   3.204   6.131   5.789 -0.3257 -0.4576  0.0982
    9MOL0     C 1065   3.174   6.006   5.719  0.6175  0.1592  0.3682
    9MOL0     C 1066   3.095   5.892   5.791  0.2492 -0.4444 -0.1184
    9MOL0     C 1067   2.969   5.844   5.711  0.2444  0.5271 -0.2447
    9MOL0     C 1068   2.877   5.743   5.792 -0.0168  0.2436  0.0824
    9MOL0     C 1069   2.928   5.596   5.770  0.4520  0.2187  1.2494
    9MOL0     C 1070   2.830   5.493   5.825  0.1744  0.1515  0.1290
    9MOL0     C 1071   2.889   5.350   5.818  0.4010 -0.4932  0.8325
    9MOL0     C 1072   2.773   5.246   5.822 -0.3636 -0.0520  0.4112
    9MOL0     N 1073   2.739   5.201   5.957 -1.0006  0.3295  0.3848
    9MOL0     C 1074   2.620   5.226   6.019  0.5117 -0.1665 -0.9958
    9MOL0     C 1075   2.613   5.130   6.116 -0.2165  0.3632  1.1213
    9MOL0     C 1076   2.517   5.128   6.228 -0.4972 -0.7065 -0.1428
    9MOL0     C 1077   2.550   5.238   6.332 -0.1453 -0.3462  0.3183
    9MOL0     C 1078   2.681   5.219   6.401  0.0568 -0.2296  0.5577
    9MOL0     C 1079   2.682   5.316   6.521 -0.0640  0.6059 -1.2090
    9MOL0     O 1080   2.807   5.331   6.582 -0.5811  0.6659 -0.5028
    9MOL0     C 1081   2.815   5.395   6.697  0.4438 -0.6267 -0.2230
    9MOL0     C 1082   2.711   5.463   6.762  0.3886 -0.0822  0.0895
    9MOL0     C 1083   2.739   5.539   6.875 -0.0618 -0.3457  0.2436
    9MOL0     C 1084   2.865   5.551   6.927  0.3733 -0.1054  0.0080
    9MOL0     C 1085   2.903   5.651   7.034 -0.5662  1.3864 -0.4450
    9MOL0     O 1086   2.797   5.719   7.082 -0.0373  0.1816  0.2954
    9MOL0     C 1087   2.820   5.826   7.171  0.8185 -0.4773  0.5799
    9MOL0     C 1088   2.936   5.908   7.181  0.0746 -0.4248 -0.3937
    9MOL0     C 1089   2.936   6.023   7.262 -0.7594 -0.5900 -0.1416
    9MOL0     C 1090   2.829   6.068   7.341 -0.1967 -0.2746  1.4043
    9MOL0     O 1091   2.849   6.194   7.403  0.7444  1.3305  1.3142
    9MOL0     C 1092   2.737   6.253   7.465  0.4793  0.0505  1.2280
    9MOL0     C 1093   2.781   6.380   7.531 -0.4385  0.5289  0.3078
    9MOL0     C 1094   2.846   6.347   7.662  0.5148 -0.0015  0.2084
    9MOL0     C 1095   2.857   6.475   7.744 -0.3552  0.0318 -0.5472
    9MOL0     C 1096   2.926   6.452   7.883  0.2653  0.4989 -0.1262
    9MOL0     C 1097   2.952   6.569   7.977  0.0416  0.4459 -0.3741
    9MOL0     C 1098   2.916   6.711   7.937 -1.5596  0.0169  1.2396
    9MOL0     C 1099   3.012   6.796   8.026 -0.3275 -0.2235 -0.4453
    9MOL0    Cl 1100   2.948   6.822   8.193  0.0823  0.3002  0.2259
    9MOL0     C 1101   2.716   5.984   7.337 -0.2764  0.1589 -0.2018
    9MOL0     C 1102   2.712   5.866   7.252 -0.6304  0.8964  0.3189
    9MOL0     O 1103   3.026   5.654   7.070  0.1828 -0.0655 -0.5051
    9MOL0     C 1104   2.965   5.474   6.861  0.5334  0.4299 -1.0602
    9MOL0     C 1105   2.944   5.401   6.748  0.5133  0.1938  1.0353
    9MOL0     N 1106   2.738   5.061   6.121  0.5601 -0.7151 -0.1087
    9MOL0     N 1107   2.807   5.107   6.021  0.2899 -0.4958  0.1351
    9MOL0     C 1108   3.311   6.335   5.783  0.6359  0.5275  0.1718
    9MOL0     C 1109   3.381   6.439   5.719  0.1044  0.2561  0.2994
    9MOL0     C 1110   3.698   6.637   5.472 -0.2059 -0.5302  0.5636
    9MOL0     C 1111   3.839   6.652   5.494 -0.3973  0.1980 -0.3980
    9MOL0     C 1112   3.924   6.707   5.402  0.5098 -0.0013  0.2794
    9MOL0     C 1113   3.871   6.742   5.271 -0.4657 -0.8288  0.4743
    9MOL0     O 1114   3.941   6.778   5.163  0.6613 -0.2316 -0.5786
    9MOL0     C 1115   4.078   6.810   5.186 -0.3301  0.5308 -0.4966
    9MOL0     C 1116   4.150   6.833   5.052  1.5579  0.0702 -0.4194
    9MOL0     C 1117   4.106   6.969   5.010 -0.8138  0.4500 -0.4681
    9MOL0     C 1118   4.203   7.007   4.896 -0.2455 -0.0954 -0.0253
    9MOL0     C 1119   4.176   7.139   4.839 -0.0112  0.5543 -0.0828
    9MOL0     C 1120   4.139   7.246   4.802  0.7632  0.8213 -0.6781
    9MOL0     C 1121   3.745   6.703   5.240 -0.6753  0.2490 -0.7189
    9MOL0     C 1122   3.658   6.653   5.336 -0.6780 -1.2084 -0.0930
    9MOL0     H 1123   3.374   6.321   5.403  3.3847 -0.8235  0.0919
    9MOL0     H 1124   3.257   6.135   5.530 -0.6598  0.4738 -0.2108
    9MOL0     H 1125   3.267   5.964   5.678  0.4749  1.0147 -0.9256
    9MOL0     H 1126   3.112   6.041   5.635 -0.6412  1.6611  1.8555
    9MOL0     H 1127   3.053   5.931   5.884 -2.2417  0.3806 -1.4898
    9MOL0     H 1128   3.162   5.807   5.806 -1.5026 -1.9173 -0.3726
    9MOL0     H 1129   3.006   5.804   5.616  1.7266  1.7700 -0.2224
    9MOL0     H 1130   2.909   5.935   5.702  0.1965  1.3866  5.4096
    9MOL0     H 1131   2.880   5.785   5.893 -0.2508  1.0273 -0.2302
    9MOL0     H 1132   2.778   5.749   5.746  1.7104 -0.1051 -4.1538
    9MOL0     H 1133   3.021   5.582   5.826  3.0412 -1.5767 -3.0732
    9MOL0     H 1134   2.946   5.586   5.663 -0.2315 -0.5278  1.1944
    9MOL0     H 1135   2.744   5.501   5.757  0.7610  0.2569 -0.6084
    9MOL0     H 1136   2.797   5.510   5.928 -1.9767 -0.5932 -0.3862
    9MOL0     H 1137   2.952   5.342   5.729 -1.4081  1.0392 -0.7092
    9MOL0     H 1138   2.952   5.333   5.905  1.8022  2.6190  0.5664
    9MOL0     H 1139   2.794   5.151   5.771 -1.9761 -0.5380  0.6014
    9MOL0     H 1140   2.685   5.282   5.769  0.1176 -0.1535 -0.4634
    9MOL0     H 1141   2.554   5.309   5.999  2.8161  1.4007 -2.6382
    9MOL0     H 1142   2.532   5.033   6.281  1.8727 -0.8459 -0.9728
    9MOL0     H 1143   2.415   5.149   6.195  0.2520  4.0163 -0.1382
    9MOL0     H 1144   2.461   5.244   6.394 -0.2015  0.9018  0.1544
    9MOL0     H 1145   2.558   5.339   6.290  2.1977 -0.7305 -0.3378
    9MOL0     H 1146   2.707   5.114   6.419  0.9048 -0.1971 -0.4095
    9MOL0     H 1147   2.755   5.253   6.328 -1.3435 -0.7573 -1.1558
    9MOL0     H 1148   2.607   5.279   6.591  0.9691 -0.2359 -0.5095
    9MOL0     H 1149   2.663   5.420   6.493  3.3384  1.3293 -1.3365
    9MOL0     H 1150   2.607   5.464   6.732  1.1950  3.1586 -3.5224
    9MOL0     H 1151   2.661   5.593   6.927 -0.9915 -0.5456 -0.9012
    9MOL0     H 1152   3.025   5.881   7.126  1.1627 -0.8466  1.4581
    9MOL0     H 1153   3.024   6.085   7.270 -0.9886  0.3708 -3.3731
    9MOL0     H 1154   2.689   6.183   7.534 -0.8377 -1.7234 -1.3460
    9MOL0     H 1155   2.676   6.275   7.377  2.2341  0.6687  0.1055
    9MOL0     H 1156   2.701   6.454   7.543 -0.8116 -0.1231  2.1789
    9MOL0     H 1157   2.859   6.433   7.476 -0.3057 -0.1068 -0.1282
    9MOL0     H 1158   2.944   6.298   7.666 -0.3698 -1.9618 -0.7986
    9MOL0     H 1159   2.781   6.272   7.709 -0.6752 -0.9838 -2.7938
    9MOL0     H 1160   2.916   6.552   7.694 -0.0979 -0.0720 -0.4081
    9MOL0     H 1161   2.760   6.523   7.759  0.0351  0.6670  0.0783
    9MOL0     H 1162   3.012   6.388   7.859 -3.0598 -3.9116 -1.7934
    9MOL0     H 1163   2.865   6.383   7.942  2.1878 -2.9718 -1.8302
    9MOL0     H 1164   3.057   6.552   8.002  0.3757  1.3080 -1.1392
    9MOL0     H 1165   2.903   6.558   8.074 -1.5702  1.7631 -0.9938
    9MOL0     H 1166   2.956   6.734   7.838 -1.1576  0.4454  1.4981
    9MOL0     H 1167   2.813   6.745   7.952 -1.5270  2.0822 -2.2283
    9MOL0     H 1168   3.026   6.892   7.975 -1.0603 -0.0917 -0.4075
    9MOL0     H 1169   3.112   6.753   8.034  0.1944  1.1706  0.8340
    9MOL0     H 1170   2.630   6.011   7.397  0.2177  0.6880  0.2785
    9MOL0     H 1171   2.621   5.808   7.248  1.2310 -2.2073 -0.2318
    9MOL0     H 1172   3.060   5.460   6.911 -0.6423 -1.2950  0.8299
    9MOL0     H 1173   3.022   5.354   6.688  2.8777  2.3185  2.2562
    9MOL0     H 1174   3.292   6.340   5.890  0.6117  1.2953  0.1412
    9MOL0     H 1175   3.407   6.528   5.775  1.9287  1.5765 -2.4090
    9MOL0     H 1176   3.878   6.625   5.592  0.3285  4.1976  0.5860
    9MOL0     H 1177   4.030   6.709   5.426  0.6476  2.2165 -0.2981
    9MOL0     H 1178   4.136   6.736   5.243  1.8518  0.1961 -2.9545
    9MOL0     H 1179   4.092   6.902   5.243  1.0333 -0.4628  0.8624
    9MOL0     H 1180   4.259   6.832   5.062  1.6214 -2.1813 -0.8630
    9MOL0     H 1181   4.121   6.751   4.986  2.2027 -0.5250  0.0066
    9MOL0     H 1182   4.120   7.049   5.083  4.3104  0.8646 -1.5364
    9MOL0     H 1183   4.001   6.961   4.979 -0.7163 -1.9450 -0.3148
    9MOL0     H 1184   4.301   7.027   4.939  0.0324 -0.1585 -0.6240
    9MOL0     H 1185   4.218   6.920   4.830  1.7956  0.6895 -0.6523
    9MOL0     H 1186   4.103   7.337   4.759  0.1428 -0.5250 -3.2298
    9MOL0     H 1187   3.705   6.730   5.143 -2.6976  2.3633  0.5846
    9MOL0     H 1188   3.554   6.658   5.305 -0.7760  3.3600  0.2848
   10MOL0     O 1189   2.445   1.332   3.715 -0.0572 -0.5130  0.0701
   10MOL0     C 1190   2.408   1.263   3.807  0.8775 -0.4179 -0.5171
   10MOL0     O 1191   2.302   1.178   3.805 -0.3248 -0.1573 -0.9447
   10MOL0     C 1192   2.258   1.141   3.683  0.1117 -0.4091 -0.1143
   10MOL0     C 1193   2.120   1.128   3.672 -0.2314 -0.2870 -0.8457
   10MOL0     C 1194   2.058   1.087   3.553 -0.6309 -0.2554  0.5684
   10MOL0     C 1195   2.137   1.069   3.437  1.3552  0.3874  0.2126
   10MOL0     O 1196   2.059   1.056   3.327  0.5771 -0.0988  0.6583
   10MOL0     C 1197   2.122   1.031   3.195 -0.5523  0.6883  0.4643
   10MOL0     C 1198   2.020   1.030   3.087  0.0857 -0.5640 -0.0214
   10MOL0     C 1199   2.083   0.986   2.951  0.6954  0.2306 -0.5492
   10MOL0     C 1200   1.987   0.955   2.837 -0.0785 -0.4349 -0.1162
   10MOL0     C 1201   2.056   0.878   2.718 -0.7699 -0.6028 -0.0100
   10MOL0     C 1202   1.958   0.841   2.602  0.1865  1.0109  0.7839
   10MOL0     C 1203   2.033   0.769   2.487  0.1947 -0.3965  0.7922
   10MOL0     C 1204   1.974   0.633   2.448  0.5096  0.2840 -0.5405
   10MOL0     N 1205   1.867   0.634   2.354  0.1247 -0.3646  0.4957
   10MOL0     C 1206   1.760   0.730   2.365  0.8884  0.6669  1.0990
   10MOL0     C 1207   1.694   0.693   2.255  0.1311 -0.2148  0.5139
   10MOL0     C 1208   1.565   0.769   2.210 -0.1221  0.7877  0.2784
   10MOL0     C 1209   1.437   0.689   2.223 -0.7508  0.5297  0.4027
   10MOL0     C 1210   1.320   0.768   2.185  0.4596  0.4062 -0.9563
   10MOL0     C 1211   1.290   0.894   2.280 -1.0284 -0.1611  0.3119
   10MOL0     O 1212   1.173   0.959   2.240  0.5383  0.5207  0.6207
   10MOL0     C 1213   1.106   1.065   2.305 -0.2733 -0.5241  1.0728
   10MOL0     C 1214   1.153   1.152   2.406  0.6665  0.3245  0.1379
   10MOL0     C 1215   1.062   1.250   2.458  0.7147  0.6540  0.2840
   10MOL0     C 1216   0.934   1.263   2.408 -0.8826 -0.5039  0.5897
   10MOL0     C 1217   0.836   1.364   2.452  0.4324  0.1013  0.8809
   10MOL0     O 1218   0.709   1.364   2.392 -0.5913 -0.3464 -0.3467
   10MOL0     C 1219   0.623   1.461   2.429  0.3764 -0.3673 -0.6050
   10MOL0     C 1220   0.621   1.590   2.376 -0.1966  0.6869  0.7938
   10MOL0     C 1221   0.531   1.687   2.418  0.6649 -0.1724 -0.1550
   10MOL0     C 1222   0.431   1.655   2.515 -0.0738 -0.9841 -0.1580
   10MOL0     O 1223   0.326   1.741   2.536 -0.5077 -0.4472 -1.0563
   10MOL0     C 1224   0.356   1.882   2.554  1.1508  0.3806  0.1334
   10MOL0     C 1225   0.239   1.949   2.620  1.4501  0.3405  0.4644
   10MOL0     C 1226   0.255   1.956   2.776 -0.0430 -0.5852  0.1532
   10MOL0     C 1227   0.369   2.046   2.813 -0.2778  0.9389  0.3298
   10MOL0     C 1228   0.374   2.068   2.967  0.0934 -0.4588  1.1167
   10MOL0     C 1229   0.423   1.958   3.056  0.2092 -0.6285 -0.8321
   10MOL0     C 1230   0.452   2.010   3.194 -0.0762  0.0118 -0.3130
   10MOL0     C 1231   0.432   1.906   3.307 -0.7970 -0.0157 -0.5861
   10MOL0    Cl 1232   0.519   1.757   3.276  0.1922  0.2147  0.1062
   10MOL0     C 1233   0.429   1.527   2.569 -0.8098 -0.6575  0.8395
   10MOL0     C 1234   0.528   1.429   2.531  0.2451 -0.1662  0.9745
   10MOL0     O 1235   0.868   1.453   2.526  0.0970 -0.7222  0.0504
   10MOL0     C 1236   0.888   1.175   2.311 -0.2162  0.6696 -0.6926
   10MOL0     C 1237   0.976   1.083   2.258  0.3821  0.3946 -0.0826
   10MOL0     N 1238   1.750   0.593   2.177  0.8660 -0.7970 -0.2814
   10MOL0     N 1239   1.853   0.552   2.242 -0.1192 -0.9148 -0.1712
   10MOL0     C 1240   2.274   1.083   3.446  0.4027  0.2088  1.3388
   10MOL0     C 1241   2.327   1.114   3.569 -0.6162 -0.1013 -0.5239
   10MOL0     C 1242   2.482   1.278   3.935  1.2522  0.9259 -0.4377
   10MOL0     C 1243   2.574   1.375   3.959 -0.1223  0.4594  0.4599
   10MOL0     C 1244   2.653   1.382   4.070 -0.0770 -0.3158  1.0237
   10MOL0     C 1245   2.628   1.294   4.177  0.5281  0.0518  0.0199
   10MOL0     O 1246   2.690   1.322   4.300 -0.7392 -0.2650  0.0102
   10MOL0     C 1247   2.741   1.214   4.377 -0.2072  0.9942  0.2640
   10MOL0     C 1248   2.861   1.164   4.300  0.0509  0.8394 -1.1497
   10MOL0     C 1249   2.971   1.262   4.321 -0.0745 -0.3568  0.6002
   10MOL0     C 1250   3.099   1.228   4.236  0.8628  0.5794 -0.1907
   10MOL0     C 1251   3.211   1.284   4.308 -0.8475  0.4192 -0.3408
   10MOL0     C 1252   3.317   1.313   4.366 -0.3418  0.3419 -0.2935
   10MOL0     C 1253   2.528   1.194   4.160 -0.3992  0.3277  0.3557
   10MOL0     C 1254   2.462   1.178   4.032 -0.4186  0.5750 -0.5161
   10MOL0     H 1255   2.062   1.148   3.762  2.0412 -1.5657  1.0243
   10MOL0     H 1256   1.949   1.080   3.554 -0.7703  1.0270 -1.0878
   10MOL0     H 1257   2.176   0.936   3.198 -0.1622  0.9258  1.2929
   10MOL0     H 1258   2.194   1.112   3.179 -2.4828  2.7984  1.7872
   10MOL0     H 1259   1.969   1.126   3.076 -2.6121 -1.7360  1.1680
   10MOL0     H 1260   1.935   0.966   3.115  0.7162 -0.9409  1.0779
   10MOL0     H 1261   2.139   0.893   2.961  1.7182  1.0077  1.4049
   10MOL0     H 1262   2.160   1.057   2.919 -0.6130  1.6250 -0.6860
   10MOL0     H 1263   1.915   0.890   2.887  0.6991  0.1558  1.8685
   10MOL0     H 1264   1.948   1.045   2.787 -0.1981 -0.9234 -0.9147
   10MOL0     H 1265   2.113   0.790   2.749 -1.9460 -1.6359 -0.6566
   10MOL0     H 1266   2.129   0.944   2.670 -0.1224 -1.3443 -0.0580
   10MOL0     H 1267   1.909   0.932   2.566  1.2159  1.9871  1.7909
   10MOL0     H 1268   1.885   0.770   2.643  1.0744 -1.1668 -1.1927
   10MOL0     H 1269   2.038   0.835   2.400  2.3023 -2.3516 -0.6937
   10MOL0     H 1270   2.140   0.750   2.501  0.5265  1.4579  0.9429
   10MOL0     H 1271   1.938   0.577   2.535  1.1943  2.8598  1.5208
   10MOL0     H 1272   2.047   0.568   2.398 -1.6439  0.2685 -3.8999
   10MOL0     H 1273   1.725   0.803   2.437 -2.7358 -0.8426  1.0796
   10MOL0     H 1274   1.579   0.804   2.108  0.7928 -1.2640 -0.3535
   10MOL0     H 1275   1.574   0.844   2.288  1.1929  0.2385  0.6747
   10MOL0     H 1276   1.415   0.635   2.315 -5.1463 -2.8805 -2.2680
   10MOL0     H 1277   1.445   0.617   2.141  3.5466  2.5767 -1.2587
   10MOL0     H 1278   1.316   0.803   2.082 -0.2676  3.2496 -0.0440
   10MOL0     H 1279   1.238   0.696   2.187  0.7702 -0.0315  2.2050
   10MOL0     H 1280   1.366   0.969   2.259 -1.2996 -0.3624 -1.5502
   10MOL0     H 1281   1.297   0.870   2.386 -0.9589 -2.1622 -0.1027
   10MOL0     H 1282   1.256   1.148   2.443  1.1025  0.6049 -1.0156
   10MOL0     H 1283   1.089   1.308   2.546  0.8578 -2.4038  2.4139
   10MOL0     H 1284   0.676   1.603   2.284  0.1968 -2.2877  0.5290
   10MOL0     H 1285   0.529   1.788   2.376  0.1870 -0.2018 -0.2140
   10MOL0     H 1286   0.364   1.936   2.459 -0.4941  0.3488 -0.0613
   10MOL0     H 1287   0.450   1.907   2.604  0.6317 -2.4899  2.8360
   10MOL0     H 1288   0.153   1.883   2.602  1.4597  0.3040  0.5482
   10MOL0     H 1289   0.222   2.049   2.579  0.9200  0.3093  0.6015
   10MOL0     H 1290   0.269   1.855   2.815  0.4564  0.4594  2.9441
   10MOL0     H 1291   0.164   1.997   2.820  1.1307  1.2244  1.0470
   10MOL0     H 1292   0.466   2.003   2.791  0.0797  0.8189  2.0249
   10MOL0     H 1293   0.364   2.139   2.755  3.8449 -0.5923 -2.9880
   10MOL0     H 1294   0.270   2.097   2.987 -0.2274 -1.9976  1.8200
   10MOL0     H 1295   0.440   2.151   2.990  1.6085 -1.1555 -0.5057
   10MOL0     H 1296   0.518   1.917   3.021  0.9073 -0.7072  1.0605
   10MOL0     H 1297   0.347   1.879   3.066 -1.3776  1.0157  1.0923
   10MOL0     H 1298   0.557   2.042   3.196  0.2465 -0.6474 -2.7965
   10MOL0     H 1299   0.389   2.097   3.214  1.4658  1.3187 -0.9194
   10MOL0     H 1300   0.324   1.887   3.309 -0.7933 -0.1399 -1.2229
   10MOL0     H 1301   0.461   1.943   3.405  0.4737 -1.3141 -0.4491
   10MOL0     H 1302   0.351   1.513   2.644 -0.5589  2.9154  1.9169
   10MOL0     H 1303   0.535   1.337   2.589  1.6284 -1.7676 -1.5777
   10MOL0     H 1304   0.790   1.200   2.270 -0.5264  1.1372  0.3041
   10MOL0     H 1305   0.937   1.023   2.177  0.7949 -0.6450  0.4738
   10MOL0     H 1306   2.342   1.084   3.362  0.5558  2.6084  1.4248
   10MOL0     H 1307   2.434   1.130   3.574 -0.8296  1.0709  3.0942
   10MOL0     H 1308   2.594   1.445   3.879  1.4059  2.8538  2.7790
   10MOL0     H 1309   2.722   1.465   4.081 -3.2154  2.7042 -0.4194
   10MOL0     H 1310   2.662   1.139   4.380  0.2377  0.5162  0.2080
   10MOL0     H 1311   2.758   1.256   4.476 -0.6672 -0.2768  0.9055
   10MOL0     H 1312   2.888   1.063   4.331  1.9229  1.1209 -1.7372
   10MOL0     H 1313   2.835   1.156   4.195 -2.0666  0.6445 -0.6493
   10MOL0     H 1314   2.992   1.279   4.427 -0.2891  3.3590  0.2034
   10MOL0     H 1315   2.938   1.360   4.282 -0.4654 -1.4211 -1.9621
   10MOL0     H 1316   3.112   1.120   4.225 -3.7456 -0.2621  0.6516
   10MOL0     H 1317   3.088   1.267   4.134  0.8601  0.6963 -0.1450
   10MOL0     H 1318   3.412   1.341   4.407  0.5050 -1.5211 -0.8528
   10MOL0     H 1319   2.493   1.135   4.243 -0.4577  1.3070  1.0495
   10MOL0     H 1320   2.381   1.107   4.018 -0.4548  0.8271 -1.7322
   11MOL0     O 1321   3.764  10.007   4.860 -0.1120  0.6688  0.4612
   11MOL0     C 1322   3.651   9.965   4.885  0.1881 -0.1999 -0.1319
   11MOL0     O 1323   3.552  10.028   4.953 -0.5650 -0.4895  0.0685
   11MOL0     C 1324   3.572  10.154   4.991  0.3832  0.6458 -0.1988
   11MOL0     C 1325   3.611  10.250   4.900 -0.0708 -0.0433  0.2926
   11MOL0     C 1326   3.645  10.378   4.954  0.5108  0.2912  0.1110
   11MOL0     C 1327   3.624  10.422   5.083 -0.7212  0.4430 -0.4353
   11MOL0     O 1328   3.637  10.545   5.140 -0.6457 -0.3035  0.1279
   11MOL0     C 1329   3.741  10.626   5.069 -0.8367 -0.5070  0.8162
   11MOL0     C 1330   3.684  10.749   5.001 -0.6614  0.1646  0.8232
   11MOL0     C 1331   3.785  10.835   4.937 -1.6343  0.7372 -0.1623
   11MOL0     C 1332   3.717  10.944   4.845 -0.3245 -1.0576  0.1043
   11MOL0     C 1333   3.835  11.046   4.806  0.4523 -1.2376 -0.2562
   11MOL0     C 1334   3.791  11.171   4.737 -0.1264 -0.2473  0.7703
   11MOL0     C 1335   3.736  11.137   4.603  0.2820  0.1582  0.0825
   11MOL0     C 1336   3.676  11.259   4.538 -0.1243 -0.4790  0.3086
   11MOL0     N 1337   3.668  11.233   4.388 -0.1956 -0.4980  0.0828
   11MOL0     C 1338   3.756  11.294   4.301 -0.5378 -0.1646 -0.2890
   11MOL0     C 1339   3.712  11.269   4.173  0.4100  0.6956 -0.5378
   11MOL0     C 1340   3.763  11.297   4.045  0.2931  0.9018  0.0028
   11MOL0     C 1341   3.786  11.445   4.038  0.8838  0.0027  0.3399
   11MOL0     C 1342   3.783  11.483   3.894  0.9920 -0.5443 -0.4216
   11MOL0     C 1343   3.870  11.407   3.793  0.8367  0.0223  0.8718
   11MOL0     O 1344   3.897  11.494   3.680 -0.1948  0.1899  0.1338
   11MOL0     C 1345   3.997  11.591   3.693  0.8384  0.1475 -0.6151
   11MOL0     C 1346   4.012  11.690   3.590  0.6082  0.8954  0.0374
   11MOL0     C 1347   4.118  11.786   3.605 -1.4724 -0.2180  0.4588
   11MOL0     C 1348   4.203  11.789   3.719  0.0005  0.5079 -0.6057
   11MOL0     C 1349   4.300  11.894   3.746  0.0905  0.3536 -0.4975
   11MOL0     O 1350   4.299  11.998   3.658 -0.5864  0.0841 -0.1122
   11MOL0     C 1351   4.418  12.076   3.643  0.8301  0.2581 -0.8871
   11MOL0     C 1352   4.464  12.165   3.744 -0.4313  0.7347 -0.3842
   11MOL0     C 1353   4.591  12.232   3.738 -0.2631 -0.1371 -0.3783
   11MOL0     C 1354   4.674  12.215   3.618  0.2483 -0.2267 -0.2562
   11MOL0     O 1355   4.789  12.292   3.593 -0.4487  1.1649 -0.5402
   11MOL0     C 1356   4.748  12.427   3.568 -0.6946 -0.4274 -0.4434
   11MOL0     C 1357   4.881  12.513   3.569  0.3021  0.5605 -0.6398
   11MOL0     C 1358   4.942  12.521   3.711  0.1179  0.5334  0.7369
   11MOL0     C 1359   4.865  12.583   3.819  1.1650 -0.1243 -0.7538
   11MOL0     C 1360   4.933  12.592   3.960  0.1690 -0.8356  0.0265
   11MOL0     C 1361   4.836  12.590   4.080  0.4798 -0.8293 -0.7180
   11MOL0     C 1362   4.900  12.591   4.226  0.8531  0.1270 -0.0921
   11MOL0     C 1363   4.820  12.683   4.317  0.0645 -0.8945 -0.9449
   11MOL0    Cl 1364   4.916  12.732   4.472  0.4962 -0.7341  0.2159
   11MOL0     C 1365   4.629  12.118   3.523  0.4295  0.1734 -0.4878
   11MOL0     C 1366   4.503  12.052   3.539  0.1469  0.1458 -0.9472
   11MOL0     O 1367   4.365  11.893   3.847  0.5296 -0.9240  0.1538
   11MOL0     C 1368   4.181  11.687   3.817 -0.8698  0.3890 -0.0728
   11MOL0     C 1369   4.081  11.594   3.810 -0.8384  0.1814  0.2539
   11MOL0     N 1370   3.592  11.194   4.195 -0.5460 -0.0114 -0.1715
   11MOL0     N 1371   3.575  11.165   4.315  0.4882  0.1686 -0.4444
   11MOL0     C 1372   3.588  10.318   5.173  0.2821 -0.7645 -0.0953
   11MOL0     C 1373   3.571  10.187   5.128  0.0294 -0.4199  1.0396
   11MOL0     C 1374   3.623   9.826   4.836 -0.0576 -0.1849  0.0615
   11MOL0     C 1375   3.721   9.747   4.769 -0.4385  1.4950 -0.3587
   11MOL0     C 1376   3.698   9.611   4.734 -0.0496  1.2796 -0.5291
   11MOL0     C 1377   3.563   9.570   4.737 -0.0536 -1.1101  0.1480
   11MOL0     O 1378   3.541   9.453   4.675  0.5786 -0.0523 -0.3289
   11MOL0     C 1379   3.403   9.404   4.644  0.1043  0.8219 -0.3768
   11MOL0     C 1380   3.411   9.251   4.606  0.5674  0.2148 -0.2088
   11MOL0     C 1381   3.481   9.161   4.710 -0.2104  0.0503 -0.6377
   11MOL0     C 1382   3.460   9.007   4.684  0.1640 -0.0926  0.2777
   11MOL0     C 1383   3.531   8.921   4.786 -0.0221 -0.4220 -0.5637
   11MOL0     C 1384   3.608   8.854   4.849  1.2024  0.5796 -1.0746
   11MOL0     C 1385   3.468   9.649   4.797  0.2282 -0.4511  0.0755
   11MOL0     C 1386   3.494   9.776   4.851 -0.0080  0.1473  0.4951
   11MOL0     H 1387   3.624  10.219   4.797 -2.4744  0.2999 -0.1763
   11MOL0     H 1388   3.674  10.452   4.881  3.0521 -0.3828  0.3641
   11MOL0     H 1389   3.787  10.574   4.985 -1.7669 -1.7787  1.0613
   11MOL0     H 1390   3.818  10.652   5.143  0.6902  1.8420 -1.4381
   11MOL0     H 1391   3.632  10.806   5.078  1.5903  1.6050  1.3739
   11MOL0     H 1392   3.615  10.707   4.927  2.6550  0.1796 -2.5414
   11MOL0     H 1393   3.856  10.776   4.878  0.4812  0.9053  2.0633
   11MOL0     H 1394   3.841  10.878   5.020 -1.4715  2.0211 -0.9062
   11MOL0     H 1395   3.667  10.895   4.761  1.5404 -2.1435 -0.4305
   11MOL0     H 1396   3.645  11.001   4.904  0.3340  1.6386 -1.5350
   11MOL0     H 1397   3.907  10.998   4.739 -0.2503  0.6847 -2.5449
   11MOL0     H 1398   3.886  11.083   4.895 -0.3855  2.9000 -1.2589
   11MOL0     H 1399   3.885  11.222   4.713  0.0883 -0.5172  1.0283
   11MOL0     H 1400   3.711  11.228   4.784  0.5313  1.7174 -0.3529
   11MOL0     H 1401   3.806  11.098   4.528 -0.6819 -3.2961  0.7808
   11MOL0     H 1402   3.658  11.060   4.615  0.2827  0.5606  3.6607
   11MOL0     H 1403   3.738  11.349   4.551 -2.5396  1.4755 -0.9306
   11MOL0     H 1404   3.576  11.279   4.578  0.9351 -1.5352  3.9407
   11MOL0     H 1405   3.849  11.340   4.333  0.1567  1.2187 -3.7864
   11MOL0     H 1406   3.678  11.259   3.988 -0.2899 -2.1705  2.6536
   11MOL0     H 1407   3.855  11.239   4.030 -0.4073 -0.0689 -0.6818
   11MOL0     H 1408   3.879  11.474   4.089  2.1695 -1.4400 -1.0488
   11MOL0     H 1409   3.711  11.506   4.089  0.6476  0.6017 -0.6932
   11MOL0     H 1410   3.679  11.476   3.860  0.7508  1.4561 -0.2298
   11MOL0     H 1411   3.800  11.591   3.885  2.4384 -0.7429 -0.3293
   11MOL0     H 1412   3.812  11.325   3.749 -1.1795  1.7835  0.0626
   11MOL0     H 1413   3.961  11.370   3.840  0.8085  2.7260  3.3521
   11MOL0     H 1414   3.951  11.685   3.501 -1.6064  2.1950  1.3707
   11MOL0     H 1415   4.132  11.869   3.537  1.7163 -0.5996  0.5051
   11MOL0     H 1416   4.387  12.169   3.820 -1.1266 -0.3370 -1.0148
   11MOL0     H 1417   4.619  12.294   3.822 -0.1439  0.1870 -0.6551
   11MOL0     H 1418   4.683  12.465   3.648  0.2016 -2.9077  1.6147
   11MOL0     H 1419   4.693  12.430   3.474  0.4881 -1.2046 -1.1861
   11MOL0     H 1420   4.848  12.610   3.531 -3.6624  1.1292  3.3933
   11MOL0     H 1421   4.945  12.467   3.494 -2.0328 -3.1599 -0.6231
   11MOL0     H 1422   5.036  12.578   3.704 -0.3875  1.2307 -0.8357
   11MOL0     H 1423   4.977  12.421   3.738 -3.7874 -2.3475 -3.5336
   11MOL0     H 1424   4.812  12.674   3.786 -1.0538 -0.8312  0.5978
   11MOL0     H 1425   4.789  12.507   3.841  1.2867  0.4858  2.1882
   11MOL0     H 1426   4.989  12.685   3.972  1.1073 -1.4431  0.5287
   11MOL0     H 1427   4.998  12.504   3.970 -0.2799 -1.6583 -3.2404
   11MOL0     H 1428   4.772  12.501   4.077 -1.9847  0.8776 -1.7265
   11MOL0     H 1429   4.762  12.670   4.087 -0.3965 -1.7273  1.6974
   11MOL0     H 1430   4.906  12.491   4.270  1.6392  0.5103  0.7146
   11MOL0     H 1431   5.002  12.630   4.214  0.8346 -0.1138 -1.1336
   11MOL0     H 1432   4.729  12.628   4.340 -0.1586 -0.2504 -0.2011
   11MOL0     H 1433   4.786  12.772   4.262  0.0364 -2.1419 -3.0453
   11MOL0     H 1434   4.681  12.107   3.429 -0.6508  1.2754 -1.2564
   11MOL0     H 1435   4.463  11.973   3.476  1.3019  0.0994 -1.6566
   11MOL0     H 1436   4.244  11.689   3.905 -0.5039 -2.2758 -0.1809
   11MOL0     H 1437   4.083  11.536   3.902 -0.5376  1.7771  1.2795
   11MOL0     H 1438   3.566  10.339   5.277  0.6783 -1.9309  0.2393
   11MOL0     H 1439   3.555  10.099   5.190 -1.2305 -1.0888 -0.1837
   11MOL0     H 1440   3.823   9.782   4.761 -0.1163  0.7434  0.3570
   11MOL0     H 1441   3.776   9.557   4.682  0.1940  1.9685 -0.8934
   11MOL0     H 1442   3.361   9.473   4.569 -2.7451  1.2265  1.4358
   11MOL0     H 1443   3.346   9.412   4.737  0.5689  2.2392 -0.1817
   11MOL0     H 1444   3.308   9.215   4.618  0.9410 -0.2135  2.1325
   11MOL0     H 1445   3.448   9.243   4.503  1.5848  0.7880  0.0999
   11MOL0     H 1446   3.427   9.189   4.801 -2.8146 -1.4793 -1.5979
   11MOL0     H 1447   3.586   9.190   4.717 -0.3875  1.1721 -2.1444
   11MOL0     H 1448   3.354   8.981   4.677  0.4203 -1.1786  0.2202
   11MOL0     H 1449   3.498   8.985   4.584 -2.5370 -1.0422 -0.6180
   11MOL0     H 1450   3.654   8.780   4.912 -0.5782  1.7407  1.7607
   11MOL0     H 1451   3.367   9.611   4.811 -0.4062  0.5217 -1.5945
   11MOL0     H 1452   3.411   9.835   4.890  0.6895  1.0820  0.6108
   12MOL0     O 1453   1.804   3.054   8.020  0.0898 -0.0239 -0.5622
   12MOL0     C 1454   1.809   3.042   7.895  0.3620  0.0385 -0.1362
   12MOL0     O 1455   1.879   3.115   7.802 -0.4904 -0.4344  0.7575
   12MOL0     C 1456   1.945   3.231   7.835 -0.7719 -0.3892 -0.0196
   12MOL0     C 1457   2.064   3.220   7.905 -0.3279 -0.2543 -0.2175
   12MOL0     C 1458   2.134   3.341   7.924 -0.1918 -0.7108 -0.4606
   12MOL0     C 1459   2.072   3.464   7.890 -1.3030 -0.6610 -0.4234
   12MOL0     O 1460   2.141   3.572   7.937 -0.0373  0.4677 -0.4915
   12MOL0     C 1461   2.095   3.697   7.905  0.7104  0.0218 -0.2428
   12MOL0     C 1462   2.145   3.798   8.009 -0.1152 -0.5426 -0.6809
   12MOL0     C 1463   2.117   3.756   8.153 -0.1407  0.4250 -0.1201
   12MOL0     C 1464   2.230   3.664   8.216  0.8321 -0.6753  0.2945
   12MOL0     C 1465   2.227   3.632   8.365 -0.5535 -0.1487  0.1948
   12MOL0     C 1466   2.371   3.598   8.417  1.1940 -0.5015  0.3694
   12MOL0     C 1467   2.440   3.727   8.472  1.0982  0.0839  0.7725
   12MOL0     C 1468   2.573   3.683   8.541  1.1486 -0.3090 -1.3971
   12MOL0     N 1469   2.609   3.799   8.627 -0.9514  0.0664  0.2503
   12MOL0     C 1470   2.585   3.928   8.612  0.3821  0.5706  0.2091
   12MOL0     C 1471   2.633   3.989   8.722  0.1968  0.2394 -1.4593
   12MOL0     C 1472   2.646   4.138   8.750  0.0323  0.1911 -0.2178
   12MOL0     C 1473   2.683   4.166   8.897 -0.8723  0.0764  0.4649
   12MOL0     C 1474   2.828   4.146   8.928  0.8918 -0.7062 -0.4404
   12MOL0     C 1475   2.865   4.170   9.075 -0.9309 -0.0513 -0.0493
   12MOL0     O 1476   2.826   4.305   9.097  0.1584  0.1903  0.0424
   12MOL0     C 1477   2.813   4.355   9.225  0.4927 -1.1939  0.9740
   12MOL0     C 1478   2.848   4.484   9.256  0.2221  0.5229  0.4432
   12MOL0     C 1479   2.828   4.549   9.383 -0.4161  0.5642 -0.4331
   12MOL0     C 1480   2.765   4.475   9.482  0.2907  0.6348 -0.6462
   12MOL0     C 1481   2.739   4.533   9.618 -0.6184 -0.2070  0.5538
   12MOL0     O 1482   2.638   4.483   9.689  0.4500 -0.4459 -0.1726
   12MOL0     C 1483   2.619   4.512   9.815 -0.6444 -0.2637 -0.8946
   12MOL0     C 1484   2.518   4.603   9.849  0.1842 -0.3656  0.6678
   12MOL0     C 1485   2.493   4.637   9.982 -0.3244  0.0908 -0.3247
   12MOL0     C 1486   2.580   4.598  10.088  0.0580 -0.2435 -0.4002
   12MOL0     O 1487   2.541   4.646  10.218  0.5877  0.0298 -0.2525
   12MOL0     C 1488   2.554   4.557  10.320  0.1624 -0.0489  0.0427
   12MOL0     C 1489   2.475   4.589  10.458 -0.3986  0.0937 -0.1324
   12MOL0     C 1490   2.496   4.483  10.572  0.3660 -0.6522 -0.3713
   12MOL0     C 1491   2.413   4.552  10.686 -0.1739 -0.3119  0.3774
   12MOL0     C 1492   2.409   4.450  10.808  0.4823 -1.3622 -0.3838
   12MOL0     C 1493   2.362   4.531  10.936  0.7763  0.7263  0.1457
   12MOL0     C 1494   2.376   4.448  11.067  0.0061  0.1218  0.4324
   12MOL0     C 1495   2.317   4.534  11.190 -0.0408  0.8493  0.5052
   12MOL0    Cl 1496   2.245   4.433  11.324  0.1561  0.1478  0.4960
   12MOL0     C 1497   2.686   4.513  10.056 -0.0194 -0.0131  1.1383
   12MOL0     C 1498   2.713   4.474   9.916  0.4795  0.5760  0.3335
   12MOL0     O 1499   2.823   4.621   9.656  0.5327 -0.6549  0.2714
   12MOL0     C 1500   2.720   4.340   9.451  0.4959  0.5482 -0.3524
   12MOL0     C 1501   2.738   4.284   9.324  0.1730  0.5064  0.3542
   12MOL0     N 1502   2.702   3.897   8.799  0.1564 -0.8197  0.0501
   12MOL0     N 1503   2.679   3.787   8.742 -1.0267 -0.1958 -0.5452
   12MOL0     C 1504   1.958   3.467   7.814 -0.1577 -0.5895  0.3830
   12MOL0     C 1505   1.892   3.351   7.788  0.8238  0.4867  0.1314
   12MOL0     C 1506   1.719   2.929   7.842  0.2922  0.0274  0.0881
   12MOL0     C 1507   1.678   2.938   7.709 -0.3457  0.2924 -1.0142
   12MOL0     C 1508   1.580   2.852   7.660 -0.1301 -0.3082  0.2858
   12MOL0     C 1509   1.531   2.746   7.739 -0.7636 -0.3040  0.3186
   12MOL0     O 1510   1.421   2.672   7.693 -0.3176 -1.1837  0.2203
   12MOL0     C 1511   1.384   2.553   7.762 -0.0191  0.6999  0.4252
   12MOL0     C 1512   1.488   2.446   7.766 -1.4627  0.8813 -0.1758
   12MOL0     C 1513   1.427   2.328   7.848  0.6268  0.0549  0.3823
   12MOL0     C 1514   1.514   2.206   7.850 -0.9180 -0.3599 -0.2900
   12MOL0     C 1515   1.648   2.240   7.907  0.7511  0.2570 -0.8474
   12MOL0     C 1516   1.751   2.274   7.960 -0.8959  0.5482  0.3110
   12MOL0     C 1517   1.577   2.741   7.876  0.3980  0.2394  0.7383
   12MOL0     C 1518   1.672   2.829   7.923 -0.0447  0.3682  0.4809
   12MOL0     H 1519   2.100   3.127   7.949 -0.9147 -1.0680 -1.3873
   12MOL0     H 1520   2.229   3.326   7.974 -0.2262 -2.7018 -0.8950
   12MOL0     H 1521   1.986   3.701   7.904  0.6910 -0.1861 -1.5293
   12MOL0     H 1522   2.131   3.719   7.804  0.2824  0.5109 -0.2902
   12MOL0     H 1523   2.087   3.890   7.994 -0.2967 -0.2233  1.6371
   12MOL0     H 1524   2.251   3.822   7.994  0.2310 -0.1564  1.9047
   12MOL0     H 1525   2.017   3.713   8.163  1.0417 -2.1669  1.9869
   12MOL0     H 1526   2.117   3.847   8.214 -0.6525  0.5064 -0.2376
   12MOL0     H 1527   2.250   3.578   8.151 -1.3861  0.9334 -2.8097
   12MOL0     H 1528   2.320   3.727   8.206  0.0441  0.5153  0.5158
   12MOL0     H 1529   2.156   3.550   8.368 -1.8365  0.5466 -4.1861
   12MOL0     H 1530   2.183   3.721   8.411  0.4815  0.0737  0.7666
   12MOL0     H 1531   2.432   3.565   8.333  1.3083  1.1905 -0.2561
   12MOL0     H 1532   2.360   3.523   8.496 -1.6972  0.2366  0.7767
   12MOL0     H 1533   2.465   3.797   8.391 -0.8265 -0.6870 -0.5675
   12MOL0     H 1534   2.384   3.785   8.546  0.5446 -0.0442  0.4577
   12MOL0     H 1535   2.657   3.644   8.482  1.6016  0.8706 -1.5517
   12MOL0     H 1536   2.545   3.601   8.608  4.0757 -1.4369 -1.3791
   12MOL0     H 1537   2.532   3.956   8.521  3.3333 -0.4865 -1.9693
   12MOL0     H 1538   2.551   4.187   8.727  0.5114  1.3846  0.2492
   12MOL0     H 1539   2.723   4.182   8.686  0.1620  1.8981  1.0227
   12MOL0     H 1540   2.629   4.112   8.976  1.4331  2.6097  4.1038
   12MOL0     H 1541   2.663   4.273   8.907  2.4517  1.0129 -1.3874
   12MOL0     H 1542   2.854   4.045   8.894 -2.2923 -1.3970 -1.0925
   12MOL0     H 1543   2.894   4.213   8.871  2.5260 -1.9118 -0.0496
   12MOL0     H 1544   2.969   4.157   9.105 -0.5902 -2.8030 -1.9787
   12MOL0     H 1545   2.812   4.100   9.141 -0.5873 -1.2606 -1.0151
   12MOL0     H 1546   2.906   4.534   9.180  0.6758 -2.0474 -1.0431
   12MOL0     H 1547   2.857   4.650   9.409 -0.7696  0.7628 -0.7926
   12MOL0     H 1548   2.460   4.668   9.784 -1.7079 -2.0245  0.5893
   12MOL0     H 1549   2.414   4.703  10.014  0.8194 -0.1814  3.5534
   12MOL0     H 1550   2.659   4.549  10.349  0.0239 -3.2046  0.0653
   12MOL0     H 1551   2.523   4.459  10.282  0.2295  0.3203 -0.9753
   12MOL0     H 1552   2.368   4.607  10.443 -0.1942  0.7506 -0.8639
   12MOL0     H 1553   2.523   4.682  10.490 -0.7795 -0.2120  1.4057
   12MOL0     H 1554   2.601   4.469  10.599  1.3660  2.5946 -2.0312
   12MOL0     H 1555   2.456   4.384  10.551 -1.7664 -0.6931  3.1351
   12MOL0     H 1556   2.462   4.648  10.701 -0.1864 -0.2503  0.0257
   12MOL0     H 1557   2.312   4.570  10.648  0.8596  1.1097 -1.9181
   12MOL0     H 1558   2.510   4.409  10.821  1.3418  0.7432 -0.1362
   12MOL0     H 1559   2.337   4.370  10.790 -2.3331  0.3754  2.2526
   12MOL0     H 1560   2.256   4.550  10.920  0.2154 -0.1762  2.4371
   12MOL0     H 1561   2.416   4.626  10.939  0.7761  0.7347 -0.1065
   12MOL0     H 1562   2.310   4.361  11.061  0.3237 -0.0638 -0.4949
   12MOL0     H 1563   2.481   4.428  11.088  1.0795  3.6338 -0.8805
   12MOL0     H 1564   2.238   4.603  11.157  0.2528  0.8264 -0.2572
   12MOL0     H 1565   2.398   4.597  11.228  0.3249  2.4463 -2.5849
   12MOL0     H 1566   2.761   4.488  10.131  2.0811 -0.6035 -1.0272
   12MOL0     H 1567   2.796   4.407   9.894  1.0060  1.2355  0.2839
   12MOL0     H 1568   2.668   4.282   9.526  1.4588  1.0496  0.7262
   12MOL0     H 1569   2.696   4.184   9.318  0.5965  0.3904 -0.9626
   12MOL0     H 1570   1.900   3.554   7.782 -0.7769 -1.4720 -0.9865
   12MOL0     H 1571   1.811   3.345   7.717 -0.0297  3.0910  0.7508
   12MOL0     H 1572   1.722   3.008   7.640  3.9536  0.1536  1.2075
   12MOL0     H 1573   1.546   2.850   7.557  0.4261 -4.0761  0.0286
   12MOL0     H 1574   1.297   2.524   7.704  0.1214  1.7246 -0.3426
   12MOL0     H 1575   1.355   2.578   7.865 -1.6265  3.0193 -0.4988
   12MOL0     H 1576   1.498   2.414   7.662 -0.7176 -1.5415  0.5919
   12MOL0     H 1577   1.586   2.480   7.801 -1.2310 -1.3639  1.6235
   12MOL0     H 1578   1.330   2.299   7.806  0.2929  0.1055  1.1026
   12MOL0     H 1579   1.410   2.359   7.951  1.2014 -1.4487  0.9622
   12MOL0     H 1580   1.463   2.122   7.899 -1.9805 -0.2524 -1.1788
   12MOL0     H 1581   1.536   2.173   7.748 -1.4653  3.4007 -1.7705
   12MOL0     H 1582   1.839   2.319   8.002 -2.3512  2.1573  1.8158
   12MOL0     H 1583   1.535   2.672   7.949  2.3507 -2.3246 -0.3966
   12MOL0     H 1584   1.711   2.835   8.024  1.5029 -1.1092  0.0200
   13MOL0     O 1585   5.380   3.419   7.861 -0.5079  0.7221 -0.7613
   13MOL0     C 1586   5.317   3.398   7.759  0.2791  0.6951  0.0203
   13MOL0     O 1587   5.209   3.475   7.716 -0.3081  0.1931  0.5336
   13MOL0     C 1588   5.175   3.607   7.760 -0.6678  0.5517  0.0391
   13MOL0     C 1589   5.207   3.658   7.887  0.1957  0.4618 -0.0944
   13MOL0     C 1590   5.149   3.772   7.932 -0.0979  0.2440 -1.3485
   13MOL0     C 1591   5.073   3.850   7.845  0.3584 -0.1325  0.4749
   13MOL0     O 1592   5.012   3.970   7.871 -0.0586  0.1841 -0.1145
   13MOL0     C 1593   5.054   4.035   7.992  0.3603 -0.5698 -0.3156
   13MOL0     C 1594   5.010   4.185   8.008  0.1134  0.2716 -0.3274
   13MOL0     C 1595   4.859   4.180   8.045  0.5341 -0.6335 -0.1604
   13MOL0     C 1596   4.822   4.149   8.187 -0.4735  0.0471 -0.7054
   13MOL0     C 1597   4.686   4.092   8.202 -0.1329 -0.6699 -0.3597
   13MOL0     C 1598   4.635   4.109   8.350 -0.1582 -0.2667  0.5758
   13MOL0     C 1599   4.712   4.015   8.443  0.5053  0.2704  0.4574
   13MOL0     C 1600   4.663   4.040   8.585  0.1459  0.0322 -0.4748
   13MOL0     N 1601   4.714   3.931   8.670 -0.0332  0.0396 -0.4612
   13MOL0     C 1602   4.630   3.841   8.737  0.1826  0.0205 -0.4280
   13MOL0     C 1603   4.715   3.784   8.841  0.2634  0.1462  0.2541
   13MOL0     C 1604   4.654   3.693   8.944  0.1267 -0.4058 -0.4920
   13MOL0     C 1605   4.547   3.758   9.040 -0.2465 -0.2471  0.2699
   13MOL0     C 1606   4.485   3.655   9.133  0.1760 -0.4079 -0.0784
   13MOL0     C 1607   4.567   3.591   9.243 -0.7989  0.3977 -0.2734
   13MOL0     O 1608   4.611   3.684   9.338  0.3473 -0.4117 -1.0989
   13MOL0     C 1609   4.546   3.684   9.468  0.3222  0.1031  0.3006
   13MOL0     C 1610   4.438   3.609   9.505  0.3960  0.7398 -0.4026
   13MOL0     C 1611   4.374   3.638   9.621  0.0547  1.4918  0.0090
   13MOL0     C 1612   4.428   3.728   9.716 -0.1927  0.1182 -0.4100
   13MOL0     C 1613   4.376   3.730   9.852 -0.3128  0.0966  0.2170
   13MOL0     O 1614   4.325   3.610   9.899 -0.2888  0.0156  0.1090
   13MOL0     C 1615   4.235   3.617  10.001 -0.5157  0.4276 -0.0053
   13MOL0     C 1616   4.108   3.561   9.978 -0.3038 -0.6468  0.5510
   13MOL0     C 1617   4.007   3.555  10.068  0.2491 -0.1068 -0.3216
   13MOL0     C 1618   4.029   3.603  10.201  0.2135  0.5344 -0.1608
   13MOL0     O 1619   3.946   3.580  10.311 -0.3664 -0.5463  0.0130
   13MOL0     C 1620   3.828   3.508  10.277  0.7249 -0.8137 -0.5120
   13MOL0     C 1621   3.722   3.515  10.388  0.8375 -0.0590  0.7582
   13MOL0     C 1622   3.592   3.428  10.360 -0.1442  0.6072  0.0396
   13MOL0     C 1623   3.485   3.475  10.476 -0.5166 -0.2484  0.8396
   13MOL0     C 1624   3.351   3.399  10.466 -0.6914  0.3947 -0.2552
   13MOL0     C 1625   3.290   3.406  10.607 -0.6091  0.1589 -0.2037
   13MOL0     C 1626   3.157   3.329  10.625 -0.2852 -0.3985  0.2519
   13MOL0     C 1627   3.059   3.381  10.528  0.6096  0.2617 -1.0392
   13MOL0    Cl 1628   2.926   3.267  10.557 -0.2388 -0.4208  0.0959
   13MOL0     C 1629   4.155   3.670  10.223  0.0401  0.4976  0.4018
   13MOL0     C 1630   4.258   3.668  10.127 -0.9573 -0.8266 -0.2214
   13MOL0     O 1631   4.406   3.828   9.924 -0.3194 -0.2206 -0.1686
   13MOL0     C 1632   4.533   3.812   9.678  0.3828 -0.7968 -0.1331
   13MOL0     C 1633   4.588   3.790   9.548  0.1813  1.0504 -0.7365
   13MOL0     N 1634   4.839   3.832   8.818 -0.5206  0.5500 -0.4531
   13MOL0     N 1635   4.841   3.910   8.714  0.3787 -0.2424  0.3459
   13MOL0     C 1636   5.026   3.804   7.721 -0.0665 -0.0392 -0.0956
   13MOL0     C 1637   5.080   3.681   7.679  0.3197  0.5800  0.7803
   13MOL0     C 1638   5.366   3.303   7.657 -0.1251  0.3631 -0.5313
   13MOL0     C 1639   5.327   3.310   7.524 -0.9327  0.1137  0.2853
   13MOL0     C 1640   5.365   3.204   7.437  0.1695 -0.0570  0.1349
   13MOL0     C 1641   5.459   3.104   7.476  0.1779 -0.4859  0.1489
   13MOL0     O 1642   5.502   2.997   7.413 -0.4576 -0.5868  0.1000
   13MOL0     C 1643   5.482   2.998   7.272  0.3566  0.0119  1.0750
   13MOL0     C 1644   5.525   2.870   7.198  0.3224 -0.4360 -0.9061
   13MOL0     C 1645   5.459   2.862   7.061  0.3185 -0.7474 -0.2068
   13MOL0     C 1646   5.509   2.740   6.994 -0.3765  1.1309  0.2129
   13MOL0     C 1647   5.657   2.756   6.966  0.7619  0.4373 -1.0280
   13MOL0     C 1648   5.776   2.757   6.934  0.6237 -0.6213  0.6276
   13MOL0     C 1649   5.489   3.104   7.610  0.5403  0.8049  0.5475
   13MOL0     C 1650   5.455   3.203   7.698 -0.5704 -0.4437 -0.5379
   13MOL0     H 1651   5.276   3.617   7.960 -2.7643 -2.4287  1.3457
   13MOL0     H 1652   5.203   3.809   8.019  0.9936 -3.4841 -0.2739
   13MOL0     H 1653   5.163   4.037   7.976 -0.0017 -0.2151 -3.2546
   13MOL0     H 1654   5.028   3.979   8.082  0.2312  1.6400  1.1008
   13MOL0     H 1655   5.029   4.239   7.915  2.9060  0.8383  0.4713
   13MOL0     H 1656   5.080   4.231   8.079  1.7088 -1.5710 -0.6176
   13MOL0     H 1657   4.825   4.100   7.979  2.9888 -1.1286 -0.9189
   13MOL0     H 1658   4.811   4.274   8.014 -0.0576 -0.7853  0.2551
   13MOL0     H 1659   4.905   4.093   8.231  0.4982  1.1502 -1.1021
   13MOL0     H 1660   4.834   4.241   8.245  1.6907 -2.0809  2.6183
   13MOL0     H 1661   4.693   3.989   8.163  2.5453 -0.1543 -1.4518
   13MOL0     H 1662   4.623   4.157   8.140 -0.6106  0.9373  1.7076
   13MOL0     H 1663   4.532   4.074   8.353 -0.0688 -0.4735  1.9497
   13MOL0     H 1664   4.641   4.213   8.383  0.5458 -0.9937  2.9671
   13MOL0     H 1665   4.693   3.911   8.415 -0.6918  0.1765  1.5013
   13MOL0     H 1666   4.820   4.030   8.448  0.6002  0.1980 -1.0969
   13MOL0     H 1667   4.557   4.011   8.581  0.4334 -1.1619  0.0805
   13MOL0     H 1668   4.680   4.141   8.623 -2.6008 -0.3241  2.0963
   13MOL0     H 1669   4.524   3.818   8.731  0.6387 -2.9198  0.9395
   13MOL0     H 1670   4.740   3.648   8.992 -2.8355 -1.2673  4.7414
   13MOL0     H 1671   4.597   3.610   8.901 -0.4518  0.2143 -0.9478
   13MOL0     H 1672   4.462   3.784   8.976 -0.1360 -0.4857  0.0205
   13MOL0     H 1673   4.582   3.842   9.100  3.0207  0.0228 -1.7743
   13MOL0     H 1674   4.395   3.696   9.180 -1.0392 -0.2929 -2.3621
   13MOL0     H 1675   4.446   3.576   9.067 -1.5493 -1.5033  2.1202
   13MOL0     H 1676   4.656   3.548   9.196 -0.4865  1.0018 -0.2337
   13MOL0     H 1677   4.513   3.504   9.283 -3.3394  2.7549  1.7722
   13MOL0     H 1678   4.395   3.534   9.440  1.2164 -0.1695  0.0669
   13MOL0     H 1679   4.281   3.584   9.640  1.2486 -0.4036  0.7527
   13MOL0     H 1680   4.076   3.536   9.878  0.9160  4.9328 -1.5688
   13MOL0     H 1681   3.924   3.493  10.039  2.0275 -2.5954 -0.4018
   13MOL0     H 1682   3.866   3.408  10.252  3.5604 -0.4544  1.8208
   13MOL0     H 1683   3.780   3.547  10.187  0.2468 -2.3327 -0.9570
   13MOL0     H 1684   3.692   3.619  10.400  2.5028  0.4408  0.7784
   13MOL0     H 1685   3.776   3.495  10.481  2.8298 -0.8447 -0.4900
   13MOL0     H 1686   3.627   3.324  10.354  0.0905  0.7504 -2.5109
   13MOL0     H 1687   3.547   3.454  10.263  0.0475 -0.0579 -0.2339
   13MOL0     H 1688   3.520   3.458  10.579 -1.5694 -0.4146  1.1957
   13MOL0     H 1689   3.465   3.580  10.456  0.6570 -0.3634 -1.1043
   13MOL0     H 1690   3.395   3.299  10.453  0.6242  0.8584  0.4575
   13MOL0     H 1691   3.289   3.428  10.380 -2.1215 -0.5361  0.4215
   13MOL0     H 1692   3.300   3.512  10.631  1.1771 -0.4592  2.1477
   13MOL0     H 1693   3.364   3.352  10.665  0.4518  3.6798  2.0038
   13MOL0     H 1694   3.186   3.227  10.600  4.1262  0.9559 -1.1705
   13MOL0     H 1695   3.128   3.334  10.730  0.1854 -0.4907  0.3876
   13MOL0     H 1696   3.098   3.363  10.427 -0.0376 -5.1983 -0.6191
   13MOL0     H 1697   3.039   3.480  10.569 -1.7632 -1.2355  1.8011
   13MOL0     H 1698   4.158   3.700  10.327  1.2577  2.4300 -0.1437
   13MOL0     H 1699   4.359   3.701  10.149 -0.6889 -1.2492 -0.7982
   13MOL0     H 1700   4.575   3.887   9.743 -1.2061 -1.2287  1.4525
   13MOL0     H 1701   4.679   3.847   9.530  0.2300  1.2441  0.0912
   13MOL0     H 1702   4.940   3.844   7.668 -1.2572 -0.2440  1.6141
   13MOL0     H 1703   5.060   3.632   7.584  0.0431  2.0773  0.0380
   13MOL0     H 1704   5.254   3.382   7.490 -1.4082 -0.8188 -0.7442
   13MOL0     H 1705   5.333   3.198   7.333 -0.3310 -1.6054  0.3514
   13MOL0     H 1706   5.534   3.088   7.235 -0.2873  0.6989  1.7968
   13MOL0     H 1707   5.374   3.010   7.259  0.6848  1.8685 -0.3967
   13MOL0     H 1708   5.634   2.864   7.192  0.5802  2.5751 -0.4751
   13MOL0     H 1709   5.481   2.797   7.266 -1.8363  1.7763  0.2131
   13MOL0     H 1710   5.483   2.953   7.006 -1.0102 -0.2803 -0.0527
   13MOL0     H 1711   5.350   2.857   7.070  0.3729 -1.6428  0.0779
   13MOL0     H 1712   5.493   2.662   7.069  1.2249  2.7644  2.4288
   13MOL0     H 1713   5.466   2.709   6.899  3.0531  0.3485 -1.2354
   13MOL0     H 1714   5.879   2.738   6.908  0.6299 -1.5732  1.2951
   13MOL0     H 1715   5.557   3.032   7.652  0.7943 -0.3807 -1.7301
   13MOL0     H 1716   5.487   3.202   7.802 -1.7765  2.7228 -0.0141
   14MOL0     O 1717   6.814  10.878   0.099  0.6799  0.0312 -0.5077
   14MOL0     C 1718   6.702  10.886   0.153 -0.0473  0.0535 -0.5850
   14MOL0     O 1719   6.611  10.788   0.153  0.2922 -0.4265  0.5265
   14MOL0     C 1720   6.617  10.670   0.091  0.3138 -0.0381  0.0557
   14MOL0     C 1721   6.734  10.611   0.028  0.6832 -1.0263  0.3727
   14MOL0     C 1722   6.724  10.482  -0.025 -0.2679 -0.2777 -1.3541
   14MOL0     C 1723   6.603  10.417  -0.028  0.2962 -0.5876 -0.1455
   14MOL0     O 1724   6.609  10.294  -0.087  0.0947  0.8697  0.4266
   14MOL0     C 1725   6.550  10.174  -0.030  0.2555 -0.6302 -0.0984
   14MOL0     C 1726   6.633  10.053  -0.054  0.7306  1.3656 -0.0597
   14MOL0     C 1727   6.747  10.049   0.035  0.7907 -0.2175 -0.3963
   14MOL0     C 1728   6.856   9.951  -0.005  0.3417 -0.2456 -0.0269
   14MOL0     C 1729   6.953   9.899   0.099  0.6272 -0.1364 -0.1266
   14MOL0     C 1730   7.049   9.792   0.054  0.4578  0.5695 -0.1101
   14MOL0     C 1731   7.131   9.733   0.165 -0.2772  0.1412  0.0971
   14MOL0     C 1732   7.228   9.637   0.102  0.0931  0.1358  0.7274
   14MOL0     N 1733   7.348   9.645   0.190  0.7133  0.0812  0.5583
   14MOL0     C 1734   7.352   9.610   0.327 -0.5821  0.2280 -0.1656
   14MOL0     C 1735   7.479   9.648   0.365 -0.6380  0.0984  0.0929
   14MOL0     C 1736   7.528   9.636   0.505 -0.5194 -0.2718 -1.0059
   14MOL0     C 1737   7.556   9.751   0.593  0.8425 -0.0155  0.5553
   14MOL0     C 1738   7.604   9.699   0.748  0.2831 -1.0600 -0.1209
   14MOL0     C 1739   7.662   9.820   0.820  0.4340  0.5697  0.4576
   14MOL0     O 1740   7.766   9.865   0.747 -0.1101 -0.8675  0.5918
   14MOL0     C 1741   7.868   9.908   0.823 -0.0949 -0.2491  0.4885
   14MOL0     C 1742   7.956   9.815   0.864 -0.0835 -1.1345 -0.2265
   14MOL0     C 1743   8.062   9.861   0.951  0.6284  0.7501  0.5155
   14MOL0     C 1744   8.079   9.990   1.008 -0.2876 -0.2673  0.5380
   14MOL0     C 1745   8.184  10.017   1.103  0.3770 -0.5262 -0.6650
   14MOL0     O 1746   8.303   9.967   1.073  0.1697  0.9094 -0.1219
   14MOL0     C 1747   8.416  10.004   1.139 -0.3052 -0.3908  0.0277
   14MOL0     C 1748   8.485   9.918   1.222  0.6344  0.2439  0.8488
   14MOL0     C 1749   8.609   9.950   1.275  0.0623  0.3013  1.2077
   14MOL0     C 1750   8.676  10.070   1.249  0.2847 -0.1306  0.2068
   14MOL0     O 1751   8.797  10.104   1.289 -0.2583 -0.2100  0.0437
   14MOL0     C 1752   8.875  10.225   1.236 -0.2036  0.7563 -0.0528
   14MOL0     C 1753   9.027  10.190   1.216 -0.4803  0.0758  0.5752
   14MOL0     C 1754   9.073  10.102   1.332 -0.1598  1.1195  0.4362
   14MOL0     C 1755   9.222  10.080   1.334 -0.1517 -0.6193  0.7718
   14MOL0     C 1756   9.256   9.981   1.444 -0.8240 -0.8128  0.2450
   14MOL0     C 1757   9.406   9.977   1.465 -0.3449 -0.0894  0.1573
   14MOL0     C 1758   9.441   9.868   1.567  0.0549 -0.0628 -0.2956
   14MOL0     C 1759   9.389   9.893   1.709 -0.1407 -0.0101 -0.4679
   14MOL0    Cl 1760   9.462  10.039   1.785  0.2705 -0.2293 -0.1991
   14MOL0     C 1761   8.606  10.154   1.155 -0.5020  0.6671 -0.0326
   14MOL0     C 1762   8.481  10.121   1.100 -0.5928 -0.2383 -0.1591
   14MOL0     O 1763   8.155  10.061   1.213  0.4540 -0.4312 -0.5186
   14MOL0     C 1764   7.979  10.078   0.961  0.4953  0.1600 -0.5246
   14MOL0     C 1765   7.877  10.039   0.863  0.2455 -0.1373 -0.0694
   14MOL0     N 1766   7.543   9.702   0.257  0.1710  0.3541 -0.4588
   14MOL0     N 1767   7.460   9.708   0.162 -0.3478  0.2357  0.1104
   14MOL0     C 1768   6.484  10.481   0.027  0.1762  0.3329  0.1269
   14MOL0     C 1769   6.490  10.602   0.096 -0.2140 -0.1665  0.3979
   14MOL0     C 1770   6.665  11.025   0.185 -0.2880 -1.1550 -0.9684
   14MOL0     C 1771   6.750  11.142   0.179 -0.4225 -0.4310  0.2238
   14MOL0     C 1772   6.708  11.272   0.209  1.0716 -0.6159 -0.8522
   14MOL0     C 1773   6.580  11.300   0.249  0.2866 -0.2746 -0.6155
   14MOL0     O 1774   6.545  11.430   0.277  0.0848 -0.8266 -0.3028
   14MOL0     C 1775   6.407  11.468   0.277 -0.1899 -0.0152 -1.3196
   14MOL0     C 1776   6.401  11.560   0.151 -0.4646 -0.2180 -0.5235
   14MOL0     C 1777   6.451  11.489   0.022 -0.0297 -0.2952  0.6238
   14MOL0     C 1778   6.421  11.576  -0.106 -0.8644  0.5309  0.7043
   14MOL0     C 1779   6.490  11.709  -0.123  0.1060 -0.3752  0.2576
   14MOL0     C 1780   6.529  11.822  -0.120  0.1230  0.5389  0.2554
   14MOL0     C 1781   6.492  11.192   0.255  0.0940  0.3470 -0.4816
   14MOL0     C 1782   6.537  11.052   0.227  0.0058 -0.1859  0.2501
   14MOL0     H 1783   6.832  10.658   0.021 -0.3936  1.4416  0.9960
   14MOL0     H 1784   6.810  10.446  -0.081  0.1628 -1.5369  0.0206
   14MOL0     H 1785   6.444  10.166  -0.059  0.8338  1.9683 -3.6253
   14MOL0     H 1786   6.540  10.188   0.078 -0.9907  0.6311 -0.3306
   14MOL0     H 1787   6.670  10.045  -0.157 -2.2755  1.3812 -1.2769
   14MOL0     H 1788   6.574   9.968  -0.017  3.4381  0.2859  2.0738
   14MOL0     H 1789   6.715  10.038   0.139  0.2578  2.8466 -0.1684
   14MOL0     H 1790   6.802  10.142   0.025  5.2969 -2.1462  2.8164
   14MOL0     H 1791   6.804   9.868  -0.053  0.1498 -0.2588  0.2029
   14MOL0     H 1792   6.922  10.001  -0.077  1.4050 -3.5784 -1.5239
   14MOL0     H 1793   6.894   9.864   0.184  2.2690 -0.3107  0.9926
   14MOL0     H 1794   7.007   9.986   0.137 -1.8898  1.2495  0.5327
   14MOL0     H 1795   7.116   9.852  -0.008  0.9998  0.0666 -0.0155
   14MOL0     H 1796   7.003   9.714  -0.007  0.0418  1.0084 -0.3672
   14MOL0     H 1797   7.180   9.813   0.220 -0.3469 -0.0612  0.4587
   14MOL0     H 1798   7.070   9.680   0.239 -0.3948 -0.0387 -0.1263
   14MOL0     H 1799   7.265   9.665   0.003 -1.4639 -1.9352 -0.5049
   14MOL0     H 1800   7.199   9.532   0.100  1.6836 -0.3317  0.3207
   14MOL0     H 1801   7.280   9.562   0.392  0.0710 -0.4046  0.1031
   14MOL0     H 1802   7.629   9.594   0.505 -1.0280 -1.5328 -0.6260
   14MOL0     H 1803   7.471   9.556   0.553  0.8569 -0.5906  0.1600
   14MOL0     H 1804   7.465   9.813   0.592 -0.0319 -1.2559 -0.6571
   14MOL0     H 1805   7.633   9.812   0.545  0.5824 -0.6095 -0.6531
   14MOL0     H 1806   7.526   9.643   0.802  1.8234 -0.4000  2.9753
   14MOL0     H 1807   7.685   9.626   0.741 -0.4139 -2.0459  1.5684
   14MOL0     H 1808   7.693   9.775   0.915  1.4699  0.7743  0.2327
   14MOL0     H 1809   7.590   9.900   0.841  0.3053  1.1312 -1.8736
   14MOL0     H 1810   7.953   9.712   0.832 -1.1660 -1.2454  0.1971
   14MOL0     H 1811   8.132   9.780   0.973 -1.1012 -1.2256 -0.8281
   14MOL0     H 1812   8.438   9.821   1.233 -0.2633  0.7448  1.6901
   14MOL0     H 1813   8.641   9.889   1.358 -2.6304  0.2192  2.2751
   14MOL0     H 1814   8.877  10.307   1.309  3.2408  0.5181  0.2704
   14MOL0     H 1815   8.833  10.265   1.142  0.6265  0.8600 -0.3842
   14MOL0     H 1816   9.091  10.278   1.222  0.8092 -0.8707  1.1259
   14MOL0     H 1817   9.048  10.128   1.129 -0.7356 -2.5374  2.2675
   14MOL0     H 1818   9.020  10.007   1.322  1.1730  0.0412  2.8712
   14MOL0     H 1819   9.036  10.143   1.426 -1.9384 -2.8516  1.6897
   14MOL0     H 1820   9.256  10.028   1.245 -0.1215  1.0757 -0.2490
   14MOL0     H 1821   9.279  10.173   1.341  0.5352 -1.1460  3.5363
   14MOL0     H 1822   9.216   9.882   1.419 -1.3554 -0.3014 -0.9991
   14MOL0     H 1823   9.210  10.009   1.539  1.0561  1.0952  0.6869
   14MOL0     H 1824   9.449  10.070   1.503  1.7868 -0.5911 -0.8632
   14MOL0     H 1825   9.453   9.963   1.367 -2.0981 -0.6313 -0.6557
   14MOL0     H 1826   9.395   9.772   1.540  0.4787 -0.2038 -0.5296
   14MOL0     H 1827   9.549   9.853   1.578 -0.4069 -3.3011  1.0239
   14MOL0     H 1828   9.416   9.804   1.767  1.0097  1.2978  1.1092
   14MOL0     H 1829   9.281   9.903   1.700  0.1371  1.9632 -2.3016
   14MOL0     H 1830   8.641  10.251   1.122  0.2455  0.3811 -0.0935
   14MOL0     H 1831   8.435  10.203   1.046  0.0213  1.5898  1.9185
   14MOL0     H 1832   7.981  10.177   1.004 -1.8234  0.1337 -0.2386
   14MOL0     H 1833   7.806  10.118   0.842  1.7395  2.4456  3.5426
   14MOL0     H 1834   6.389  10.429   0.022 -0.8931  2.1373  0.5163
   14MOL0     H 1835   6.402  10.637   0.149  1.0184 -0.2714  2.6771
   14MOL0     H 1836   6.855  11.133   0.150  0.1857  1.2427  1.7166
   14MOL0     H 1837   6.781  11.352   0.225  2.1088 -1.9192  1.3311
   14MOL0     H 1838   6.379  11.513   0.372  2.8505  0.8097 -0.7003
   14MOL0     H 1839   6.330  11.391   0.272  0.1306 -0.7294  2.1586
   14MOL0     H 1840   6.295  11.584   0.139 -0.9227 -2.5943 -1.8686
   14MOL0     H 1841   6.456  11.650   0.180 -0.0115 -1.1512  1.7939
   14MOL0     H 1842   6.400  11.394   0.003  0.1999 -0.5028  1.0310
   14MOL0     H 1843   6.559  11.470   0.028 -0.0760 -0.2334  1.9677
   14MOL0     H 1844   6.461  11.520  -0.191  2.0805  0.7782  1.8017
   14MOL0     H 1845   6.314  11.598  -0.114 -0.8678  0.1740 -0.3154
   14MOL0     H 1846   6.569  11.921  -0.136 -1.1105  1.3033  1.7262
   14MOL0     H 1847   6.385  11.202   0.273 -0.4852  0.7313 -3.6145
   14MOL0     H 1848   6.477  10.962   0.232  1.5786 -1.4477 -2.0628
   15MOL0     O 1849   6.686  10.117   3.798 -0.0987 -0.0763 -0.5398
   15MOL0     C 1850   6.665  10.060   3.692  0.5993  0.1374 -0.0851
   15MOL0     O 1851   6.690  10.121   3.569  0.3691  0.4631 -0.1941
   15MOL0     C 1852   6.728  10.256   3.569  0.4907  0.1000  0.1924
   15MOL0     C 1853   6.849  10.301   3.527 -0.3214 -0.5891  0.3566
   15MOL0     C 1854   6.879  10.443   3.519  0.4932 -0.2943  0.7271
   15MOL0     C 1855   6.787  10.537   3.558 -0.6436  0.5793 -0.4069
   15MOL0     O 1856   6.831  10.667   3.566  0.0211 -0.5269  1.2664
   15MOL0     C 1857   6.833  10.729   3.437 -0.4671 -0.4171 -0.5536
   15MOL0     C 1858   6.870  10.878   3.431  0.1856  0.0053  1.3463
   15MOL0     C 1859   6.937  10.919   3.299  0.0349  0.0415 -0.4644
   15MOL0     C 1860   7.086  10.882   3.285  0.6670 -0.8070  0.0009
   15MOL0     C 1861   7.136  10.960   3.173 -0.0853  1.0161 -0.4682
   15MOL0     C 1862   7.277  10.913   3.123  0.2896 -0.3120  0.6296
   15MOL0     C 1863   7.328  10.979   2.995  1.1580 -0.6380  0.1399
   15MOL0     C 1864   7.438  10.901   2.930  1.1412  0.1948 -0.2602
   15MOL0     N 1865   7.499  10.963   2.807 -0.1660  0.0998  0.7449
   15MOL0     C 1866   7.488  10.907   2.684 -0.0631 -0.2307 -0.4896
   15MOL0     C 1867   7.541  10.999   2.595  0.1477  0.2226  0.3336
   15MOL0     C 1868   7.552  10.974   2.450 -0.7222 -0.0702 -0.0915
   15MOL0     C 1869   7.675  10.882   2.435 -0.9245  1.0346 -0.0501
   15MOL0     C 1870   7.688  10.804   2.305 -0.2493 -0.4733 -1.0926
   15MOL0     C 1871   7.656  10.890   2.177 -0.2719  0.2766 -0.7555
   15MOL0     O 1872   7.692  10.808   2.063 -0.3500 -0.2745  0.3776
   15MOL0     C 1873   7.591  10.771   1.986 -0.5293 -0.5223  0.5393
   15MOL0     C 1874   7.529  10.654   2.007 -0.4738  0.4078 -0.5362
   15MOL0     C 1875   7.415  10.608   1.921  0.0843 -0.4449 -0.3790
   15MOL0     C 1876   7.376  10.688   1.809 -0.3002  0.9482  0.0575
   15MOL0     C 1877   7.265  10.639   1.721 -1.0344 -0.5719  0.4825
   15MOL0     O 1878   7.194  10.532   1.769  0.6412  0.1474  0.0375
   15MOL0     C 1879   7.080  10.486   1.712 -0.1972  0.6172 -0.3112
   15MOL0     C 1880   7.014  10.378   1.778  1.1393  0.3058 -0.6135
   15MOL0     C 1881   6.892  10.316   1.751 -1.3573  0.0170 -0.6563
   15MOL0     C 1882   6.830  10.356   1.630 -0.9107  0.6644 -0.4742
   15MOL0     O 1883   6.724  10.291   1.586  0.9263  0.0576 -0.3437
   15MOL0     C 1884   6.629  10.361   1.499  0.0531  0.6686  0.2322
   15MOL0     C 1885   6.513  10.273   1.483  0.4939  1.6357 -0.8419
   15MOL0     C 1886   6.420  10.259   1.612 -0.4695  0.5662  1.1258
   15MOL0     C 1887   6.290  10.184   1.579 -0.4259 -0.7723  0.7130
   15MOL0     C 1888   6.207  10.153   1.700 -0.3270 -0.2074 -0.5126
   15MOL0     C 1889   6.063  10.107   1.661  0.3941  0.9044  0.5537
   15MOL0     C 1890   5.973  10.044   1.771  0.8994  0.8269 -0.0858
   15MOL0     C 1891   5.907  10.147   1.857 -0.7356  0.2273  0.3635
   15MOL0    Cl 1892   5.788  10.243   1.766  0.2135  0.1980 -0.3172
   15MOL0     C 1893   6.894  10.454   1.560 -1.5434 -0.2514 -0.0944
   15MOL0     C 1894   7.015  10.512   1.597  0.7477 -0.5221  0.4803
   15MOL0     O 1895   7.261  10.688   1.608 -0.1797  0.3201  0.2593
   15MOL0     C 1896   7.455  10.794   1.784  0.8070  0.4318  0.1691
   15MOL0     C 1897   7.563  10.843   1.870  0.7339 -0.4210 -0.1033
   15MOL0     N 1898   7.565  11.121   2.662 -0.2379  0.1171 -0.5695
   15MOL0     N 1899   7.532  11.093   2.784 -0.8607  0.7831  1.0010
   15MOL0     C 1900   6.660  10.487   3.601 -0.3300  0.2433 -0.2471
   15MOL0     C 1901   6.631  10.351   3.607 -0.7450 -0.0927  0.5507
   15MOL0     C 1902   6.633   9.921   3.703  0.2098  0.0292 -0.3214
   15MOL0     C 1903   6.608   9.849   3.834  0.0134 -0.1513 -0.5487
   15MOL0     C 1904   6.589   9.707   3.836  0.4647 -0.0400  0.2855
   15MOL0     C 1905   6.570   9.637   3.714 -0.1918  0.0510  0.3910
   15MOL0     O 1906   6.535   9.507   3.706  0.1925  0.1110 -0.1901
   15MOL0     C 1907   6.469   9.447   3.814 -0.2316  0.2608 -0.7873
   15MOL0     C 1908   6.329   9.485   3.805  0.6386 -0.6597  1.0234
   15MOL0     C 1909   6.232   9.408   3.894  0.0645  0.4351 -0.3468
   15MOL0     C 1910   6.085   9.467   3.876  0.3214 -0.2829  0.3131
   15MOL0     C 1911   5.987   9.410   3.963 -0.2646  0.8077  0.1527
   15MOL0     C 1912   5.896   9.369   4.030  0.4394 -0.4235 -0.5188
   15MOL0     C 1913   6.582   9.712   3.593 -0.2293 -1.0435 -0.0658
   15MOL0     C 1914   6.612   9.851   3.586  0.1174 -0.2357  0.4521
   15MOL0     H 1915   6.917  10.222   3.499 -1.0692 -2.0910  2.5106
   15MOL0     H 1916   6.977  10.476   3.486 -0.8248  2.0012 -1.1562
   15MOL0     H 1917   6.741  10.704   3.384 -1.5059 -2.6226  2.0690
   15MOL0     H 1918   6.906  10.672   3.378 -1.6557 -0.3303 -2.1713
   15MOL0     H 1919   6.925  10.895   3.523 -1.7776 -2.0422  3.0208
   15MOL0     H 1920   6.772  10.926   3.425 -0.2219 -0.9750 -1.7468
   15MOL0     H 1921   6.925  11.027   3.284 -1.1811 -0.3333 -2.7394
   15MOL0     H 1922   6.876  10.873   3.220  1.8610  1.5734 -2.9295
   15MOL0     H 1923   7.151  10.904   3.370 -0.8482  3.4909  0.3217
   15MOL0     H 1924   7.092  10.779   3.249  1.3375 -0.4022 -1.1097
   15MOL0     H 1925   7.130  11.068   3.192 -0.3958  1.6691 -3.6880
   15MOL0     H 1926   7.062  10.951   3.093 -1.9143 -0.0474  1.2721
   15MOL0     H 1927   7.280  10.804   3.111  0.6053 -0.7976  4.1100
   15MOL0     H 1928   7.344  10.933   3.207  0.0826  0.9857  0.5021
   15MOL0     H 1929   7.241  10.998   2.932  2.0522 -1.4068 -1.3838
   15MOL0     H 1930   7.365  11.079   3.018 -1.3654  0.6836 -1.1915
   15MOL0     H 1931   7.399  10.802   2.905  0.8694 -0.2479  1.8067
   15MOL0     H 1932   7.519  10.885   3.000  0.2515 -0.7093  0.5837
   15MOL0     H 1933   7.445  10.812   2.652  1.8681 -0.2616 -3.3491
   15MOL0     H 1934   7.572  11.071   2.404 -5.5441  1.2077  0.0344
   15MOL0     H 1935   7.467  10.928   2.399  0.2500 -1.3260 -0.6219
   15MOL0     H 1936   7.673  10.815   2.522  2.5942 -0.3846 -0.8751
   15MOL0     H 1937   7.766  10.942   2.439  0.9129 -1.2480 -3.2705
   15MOL0     H 1938   7.784  10.753   2.299 -1.6686 -3.4051 -0.5785
   15MOL0     H 1939   7.613  10.725   2.311  0.1495 -0.7648  0.1579
   15MOL0     H 1940   7.713  10.983   2.181 -2.8143  1.9003  2.0873
   15MOL0     H 1941   7.557  10.936   2.167 -0.4510 -0.2023 -1.2344
   15MOL0     H 1942   7.558  10.581   2.083  0.1064 -1.0461 -2.0755
   15MOL0     H 1943   7.350  10.525   1.945  0.9772 -1.2165 -0.5903
   15MOL0     H 1944   7.066  10.354   1.870 -2.1687  0.4920  1.4734
   15MOL0     H 1945   6.849  10.248   1.824  0.5379  2.0686  2.6565
   15MOL0     H 1946   6.666  10.383   1.398  1.5235 -0.1320  0.5538
   15MOL0     H 1947   6.606  10.457   1.545  3.3023  0.1418  3.4697
   15MOL0     H 1948   6.544  10.169   1.472  0.8502  1.0510  3.9674
   15MOL0     H 1949   6.456  10.304   1.394 -1.5425  0.0952 -0.1506
   15MOL0     H 1950   6.403  10.354   1.662 -2.2564  1.0080 -0.2321
   15MOL0     H 1951   6.481  10.204   1.685  0.3393 -0.7966 -0.4871
   15MOL0     H 1952   6.239  10.254   1.512  0.6891  2.0481  2.5982
   15MOL0     H 1953   6.316  10.100   1.514 -1.8510 -1.3132  0.8158
   15MOL0     H 1954   6.205  10.246   1.759  3.1234 -0.5591  0.4035
   15MOL0     H 1955   6.255  10.068   1.749 -2.3783  0.0978  2.2602
   15MOL0     H 1956   6.071  10.035   1.579 -3.9838 -1.8394  2.1951
   15MOL0     H 1957   6.010  10.189   1.613 -0.3973 -0.2276 -0.5870
   15MOL0     H 1958   5.890   9.994   1.721  0.4543  0.2616  1.1730
   15MOL0     H 1959   6.016   9.966   1.834 -1.5317 -1.0848 -0.6411
   15MOL0     H 1960   5.983  10.202   1.913 -0.8184 -1.6986  2.5337
   15MOL0     H 1961   5.838  10.104   1.930 -2.1882  0.1557 -0.9973
   15MOL0     H 1962   6.861  10.486   1.462 -1.8294 -0.7400 -0.1594
   15MOL0     H 1963   7.055  10.589   1.533  0.8447  1.2783  2.5822
   15MOL0     H 1964   7.425  10.845   1.693  2.8076 -1.8689 -1.9344
   15MOL0     H 1965   7.621  10.930   1.844 -0.9981 -0.1637 -3.7895
   15MOL0     H 1966   6.593  10.569   3.625  0.1377  0.7686 -0.7234
   15MOL0     H 1967   6.527  10.327   3.629 -0.6568 -2.7453 -1.3607
   15MOL0     H 1968   6.617   9.916   3.918  0.5515  1.0288 -1.5080
   15MOL0     H 1969   6.581   9.663   3.935 -2.2808  0.3800  0.3434
   15MOL0     H 1970   6.504   9.472   3.914 -1.4952 -0.3778 -0.1542
   15MOL0     H 1971   6.492   9.340   3.802  1.7932  0.1831  2.6081
   15MOL0     H 1972   6.331   9.593   3.823 -1.2565  0.7337 -4.7664
   15MOL0     H 1973   6.288   9.466   3.705  1.6653 -0.1685  0.4895
   15MOL0     H 1974   6.259   9.428   3.998  1.1068 -2.7107  0.0634
   15MOL0     H 1975   6.234   9.303   3.865  0.3061  0.7617 -1.6125
   15MOL0     H 1976   6.082   9.576   3.889  1.6991 -0.3363  1.3244
   15MOL0     H 1977   6.056   9.467   3.771 -0.0814  1.6522  0.3906
   15MOL0     H 1978   5.819   9.331   4.095  0.8849  0.8180  0.8095
   15MOL0     H 1979   6.567   9.666   3.496  0.2316 -3.0803  0.7787
   15MOL0     H 1980   6.623   9.889   3.485 -2.1685  2.7906  1.1772
   16MOL0     O 1981   6.251   8.821  10.825 -0.2466  0.1799  0.8383
   16MOL0     C 1982   6.328   8.856  10.918  0.0815  0.7042  0.7152
   16MOL0     O 1983   6.292   8.935  11.020 -0.4756 -0.1987  0.8581
   16MOL0     C 1984   6.164   8.991  11.039 -1.2037  0.5405  0.0715
   16MOL0     C 1985   6.157   9.126  11.065  0.2606  0.1125  0.2572
   16MOL0     C 1986   6.028   9.165  11.092 -0.5213  0.3516  0.8175
   16MOL0     C 1987   5.915   9.094  11.070  0.6800 -0.3636  0.3721
   16MOL0     O 1988   5.783   9.151  11.098 -0.0106  0.1558  0.6750
   16MOL0     C 1989   5.736   9.263  11.023 -0.2917  0.6457  0.3877
   16MOL0     C 1990   5.621   9.228  10.931 -0.5895 -0.1909 -1.2575
   16MOL0     C 1991   5.655   9.138  10.806  0.2706 -0.4941 -0.4172
   16MOL0     C 1992   5.537   9.112  10.708 -0.7714  0.4192 -0.1166
   16MOL0     C 1993   5.561   8.996  10.613 -0.1055 -0.7353 -0.1030
   16MOL0     C 1994   5.575   8.865  10.684  0.3260  0.3867  0.5077
   16MOL0     C 1995   5.565   8.767  10.559 -0.7281 -0.3491  0.0730
   16MOL0     C 1996   5.619   8.635  10.606 -0.4948  1.3666 -0.1758
   16MOL0     N 1997   5.630   8.537  10.494 -0.1838 -0.5017 -0.2445
   16MOL0     C 1998   5.582   8.409  10.495 -0.5596 -0.0839  0.8740
   16MOL0     C 1999   5.607   8.363  10.367 -0.0596  0.6274  0.1975
   16MOL0     C 2000   5.582   8.225  10.320  0.3614  0.3609 -1.2333
   16MOL0     C 2001   5.681   8.170  10.217  0.1534  0.3002 -0.5573
   16MOL0     C 2002   5.639   8.178  10.071 -0.3856 -0.5572  0.5016
   16MOL0     C 2003   5.758   8.118   9.992  0.2280  0.0025  0.7150
   16MOL0     O 2004   5.801   7.986  10.035 -0.8920 -1.3390  1.0507
   16MOL0     C 2005   5.728   7.869   9.996  0.1020  0.3085 -1.6372
   16MOL0     C 2006   5.605   7.870   9.935 -0.4897  0.4056  0.6114
   16MOL0     C 2007   5.534   7.756   9.912 -0.1817  0.4093 -0.9608
   16MOL0     C 2008   5.583   7.626   9.944  0.1606  0.0673 -0.0592
   16MOL0     C 2009   5.501   7.506   9.901 -0.7348 -0.4304  0.0495
   16MOL0     O 2010   5.521   7.387   9.976  0.0082  0.7376 -0.3762
   16MOL0     C 2011   5.457   7.271   9.937 -1.0245 -0.8000 -0.9613
   16MOL0     C 2012   5.455   7.174  10.042 -0.2417  0.2616  0.5063
   16MOL0     C 2013   5.408   7.040  10.014  1.0675 -0.6928 -0.3214
   16MOL0     C 2014   5.370   7.009   9.887 -0.1229  0.1179  0.9689
   16MOL0     O 2015   5.326   6.876   9.877  0.3388  0.2459 -0.0061
   16MOL0     C 2016   5.238   6.826   9.779  0.0723 -0.6963 -0.8442
   16MOL0     C 2017   5.222   6.679   9.810  1.2001 -0.1769 -0.0900
   16MOL0     C 2018   5.138   6.620   9.692 -0.0130  0.2344 -0.4198
   16MOL0     C 2019   5.121   6.477   9.729  0.1427 -0.8705 -0.3017
   16MOL0     C 2020   5.053   6.393   9.615  0.1070 -0.1924  0.3991
   16MOL0     C 2021   5.057   6.236   9.652  0.8199  0.4217  1.6343
   16MOL0     C 2022   4.936   6.206   9.745  0.2913  0.1576  0.0121
   16MOL0     C 2023   4.805   6.193   9.669  0.1090 -0.4133 -0.4124
   16MOL0    Cl 2024   4.810   6.037   9.585 -0.2418  0.2117 -0.4314
   16MOL0     C 2025   5.376   7.101   9.782  0.3019 -0.1507  0.4694
   16MOL0     C 2026   5.429   7.228   9.804  1.1656 -1.0494 -0.8229
   16MOL0     O 2027   5.424   7.517   9.807  0.5534 -0.2944  0.2013
   16MOL0     C 2028   5.699   7.622  10.014 -0.4479 -0.5552 -0.1383
   16MOL0     C 2029   5.776   7.742  10.045  0.1111 -0.3726  0.0261
   16MOL0     N 2030   5.667   8.464  10.294  0.4972 -0.0510 -0.5050
   16MOL0     N 2031   5.676   8.571  10.373 -0.1547  0.5640  0.4794
   16MOL0     C 2032   5.933   8.955  11.060  0.6139 -0.4003  0.0936
   16MOL0     C 2033   6.059   8.900  11.046 -0.3127  0.6768 -0.1146
   16MOL0     C 2034   6.467   8.803  10.917 -0.3404  0.0880  0.0443
   16MOL0     C 2035   6.500   8.699  10.826  0.3232  1.0720  0.6845
   16MOL0     C 2036   6.629   8.647  10.822 -0.0635 -1.4246  0.1077
   16MOL0     C 2037   6.733   8.697  10.909 -0.2593 -0.3285 -0.4124
   16MOL0     O 2038   6.862   8.641  10.895 -0.2379  0.1787 -0.0817
   16MOL0     C 2039   6.958   8.755  10.867 -1.0827  0.6092  0.5651
   16MOL0     C 2040   7.089   8.712  10.795  0.0132 -0.6484 -0.0637
   16MOL0     C 2041   7.066   8.620  10.681  0.5377  0.3246  0.1647
   16MOL0     C 2042   7.193   8.599  10.597 -0.0973 -0.0137 -0.1739
   16MOL0     C 2043   7.184   8.493  10.493 -1.0290 -0.1236  0.2966
   16MOL0     C 2044   7.175   8.393  10.417  1.0090  0.3802 -0.9907
   16MOL0     C 2045   6.694   8.789  11.002  0.3894 -0.1428  0.3103
   16MOL0     C 2046   6.566   8.848  11.005  0.0365 -0.4065  0.8911
   16MOL0     H 2047   6.239   9.197  11.057  0.7515 -0.5009 -0.2730
   16MOL0     H 2048   6.004   9.270  11.110 -0.2489  0.2132  2.0546
   16MOL0     H 2049   5.820   9.303  10.966  2.2463 -1.9153  2.0696
   16MOL0     H 2050   5.701   9.340  11.093 -0.5820  2.2123 -1.4145
   16MOL0     H 2051   5.570   9.323  10.912 -0.9566 -0.7701 -3.4823
   16MOL0     H 2052   5.540   9.177  10.984 -0.8103  0.4859 -0.9231
   16MOL0     H 2053   5.705   9.044  10.833  1.8502 -0.0040 -1.5025
   16MOL0     H 2054   5.732   9.194  10.752 -3.1355  2.9552 -2.1726
   16MOL0     H 2055   5.443   9.097  10.761 -1.6136  1.3605 -1.2647
   16MOL0     H 2056   5.519   9.205  10.653  0.3855  1.1555  0.6954
   16MOL0     H 2057   5.653   9.023  10.559  2.9889 -4.5172  2.6559
   16MOL0     H 2058   5.479   8.993  10.542  1.0664  1.0101 -1.6501
   16MOL0     H 2059   5.493   8.851  10.754 -0.6108 -0.8527 -0.7758
   16MOL0     H 2060   5.669   8.858  10.739 -0.7553 -1.3260  2.2250
   16MOL0     H 2061   5.465   8.762  10.516 -0.5805  2.5197 -0.8334
   16MOL0     H 2062   5.640   8.798  10.485  0.8247  0.3276  1.8312
   16MOL0     H 2063   5.553   8.598  10.686 -0.0987  0.4538 -0.2691
   16MOL0     H 2064   5.717   8.647  10.653  0.9781 -2.6961 -1.8472
   16MOL0     H 2065   5.532   8.360  10.577  1.4330  0.8729  2.7692
   16MOL0     H 2066   5.478   8.218  10.286 -0.8121 -2.5369  2.3115
   16MOL0     H 2067   5.584   8.163  10.410 -2.0676  0.7623 -0.8475
   16MOL0     H 2068   5.678   8.064  10.246 -1.1644 -0.0684 -1.9448
   16MOL0     H 2069   5.781   8.209  10.240 -0.5497  0.6620  2.3015
   16MOL0     H 2070   5.557   8.106  10.056 -0.2598 -0.6023  0.0478
   16MOL0     H 2071   5.609   8.279  10.042 -3.3258 -1.6729 -0.7830
   16MOL0     H 2072   5.841   8.189   9.986  0.1862  0.0503  0.6915
   16MOL0     H 2073   5.724   8.108   9.888 -0.0086 -0.1278  0.8058
   16MOL0     H 2074   5.562   7.962   9.896  0.9743  0.9393  0.1772
   16MOL0     H 2075   5.445   7.760   9.851 -1.2964  0.3779  0.6110
   16MOL0     H 2076   5.480   7.181  10.147 -0.5937 -0.9028  0.6853
   16MOL0     H 2077   5.392   6.976  10.100  0.9391  1.0466  1.0171
   16MOL0     H 2078   5.293   6.837   9.685  4.2921  3.0079  1.6397
   16MOL0     H 2079   5.141   6.878   9.779 -1.7363 -3.6964  1.9704
   16MOL0     H 2080   5.172   6.668   9.907 -1.2734 -0.8503 -1.3654
   16MOL0     H 2081   5.315   6.623   9.814  0.4234 -1.4571  0.7761
   16MOL0     H 2082   5.202   6.638   9.605 -0.5986  1.1969 -0.6715
   16MOL0     H 2083   5.045   6.677   9.684 -2.4180 -3.3789 -0.6185
   16MOL0     H 2084   5.222   6.438   9.745  0.1474 -1.2122 -1.1077
   16MOL0     H 2085   5.061   6.478   9.820 -0.1270  4.7502 -0.1821
   16MOL0     H 2086   5.120   6.397   9.528 -0.5379  0.9105 -0.0585
   16MOL0     H 2087   4.954   6.426   9.583  0.9582  0.0224 -2.2502
   16MOL0     H 2088   5.150   6.218   9.707  1.4002 -0.2827  0.4523
   16MOL0     H 2089   5.064   6.164   9.571  1.8957  2.2813 -0.0151
   16MOL0     H 2090   4.957   6.118   9.806  1.7956  0.7063  0.3388
   16MOL0     H 2091   4.928   6.297   9.805  1.0597 -0.1063  0.5487
   16MOL0     H 2092   4.797   6.273   9.595 -0.0135  0.3392  0.4124
   16MOL0     H 2093   4.721   6.196   9.738 -0.0171  1.8596 -0.5875
   16MOL0     H 2094   5.343   7.065   9.685 -0.4891  2.4642 -0.3244
   16MOL0     H 2095   5.418   7.302   9.725 -5.0816  0.9353  1.2514
   16MOL0     H 2096   5.730   7.521  10.040 -2.5721 -0.7530  1.9897
   16MOL0     H 2097   5.871   7.726  10.094  0.0024 -3.6875 -0.6331
   16MOL0     H 2098   5.840   8.900  11.070 -1.8697  3.2617 -0.7816
   16MOL0     H 2099   6.074   8.792  11.045 -1.0418  0.5382 -2.4922
   16MOL0     H 2100   6.426   8.652  10.762  1.2019  0.7881 -0.1436
   16MOL0     H 2101   6.656   8.562  10.761  1.7250 -1.0851  0.3636
   16MOL0     H 2102   6.984   8.788  10.968  2.3380  1.8885 -0.5992
   16MOL0     H 2103   6.909   8.828  10.802 -1.5660  0.3539  0.6368
   16MOL0     H 2104   7.135   8.803  10.755 -2.1487  0.6693  0.2793
   16MOL0     H 2105   7.160   8.661  10.862  0.5747  0.9872  0.6443
   16MOL0     H 2106   6.989   8.669  10.621  0.4001 -0.6715 -0.5083
   16MOL0     H 2107   7.028   8.521  10.711 -3.4063  1.5593 -0.1746
   16MOL0     H 2108   7.217   8.691  10.542 -0.4368  0.3176  0.2180
   16MOL0     H 2109   7.279   8.576  10.661  1.7404  4.1105 -0.8372
   16MOL0     H 2110   7.183   8.317  10.343  0.1380 -1.0216  0.3072
   16MOL0     H 2111   6.762   8.800  11.086 -1.9632 -0.4690  2.3780
   16MOL0     H 2112   6.549   8.923  11.082 -0.9140 -0.4347  0.7261
   17MOL0     O 2113   1.653   1.636   7.285 -0.2407 -0.6307  0.3156
   17MOL0     C 2114   1.742   1.551   7.266  0.4044 -0.6586  0.0437
   17MOL0     O 2115   1.814   1.541   7.151  0.4916  0.1683 -0.9938
   17MOL0     C 2116   1.762   1.589   7.038  0.1021 -0.7931  0.3614
   17MOL0     C 2117   1.845   1.651   6.942  0.1575 -0.2478  0.4287
   17MOL0     C 2118   1.803   1.717   6.823  0.6305 -0.0415 -0.6875
   17MOL0     C 2119   1.674   1.710   6.791  0.3386  0.0819  0.2579
   17MOL0     O 2120   1.645   1.759   6.663  0.2883  0.3596  0.3285
   17MOL0     C 2121   1.510   1.795   6.643  0.0304  0.2161  0.5502
   17MOL0     C 2122   1.491   1.844   6.496  0.2051  0.0247  0.0805
   17MOL0     C 2123   1.556   1.988   6.492  0.1121  0.6776 -0.6560
   17MOL0     C 2124   1.552   2.052   6.350 -0.2062  0.1889  0.5766
   17MOL0     C 2125   1.630   2.189   6.351  0.5887  0.9217  0.3663
   17MOL0     C 2126   1.595   2.278   6.221  0.1068  1.4146 -0.1177
   17MOL0     C 2127   1.616   2.197   6.099 -0.1979 -0.5423  0.0200
   17MOL0     C 2128   1.642   2.294   5.985 -0.1236 -0.3824 -0.2387
   17MOL0     N 2129   1.781   2.345   5.968  0.1574 -0.7594  0.0769
   17MOL0     C 2130   1.898   2.264   5.958 -0.0059 -0.5220 -0.1710
   17MOL0     C 2131   1.997   2.353   5.976  0.1003  0.6168 -0.1464
   17MOL0     C 2132   2.144   2.322   5.976  0.1879  0.3784  0.8150
   17MOL0     C 2133   2.240   2.444   5.952  0.4077 -0.7433  0.0554
   17MOL0     C 2134   2.370   2.411   5.880 -1.2195 -0.3049  0.1281
   17MOL0     C 2135   2.441   2.535   5.819 -0.0005 -0.7037  0.1222
   17MOL0     O 2136   2.564   2.494   5.765  0.4490  0.5554  0.6005
   17MOL0     C 2137   2.658   2.593   5.728  0.9178 -0.4736 -0.1157
   17MOL0     C 2138   2.673   2.723   5.790 -0.0254  0.3367 -0.5628
   17MOL0     C 2139   2.759   2.826   5.743 -0.1035  0.4199 -0.2018
   17MOL0     C 2140   2.845   2.797   5.632 -0.2909 -0.6851 -0.1691
   17MOL0     C 2141   2.946   2.894   5.576 -0.3082 -0.6917  0.3236
   17MOL0     O 2142   3.002   2.856   5.455  0.6614  0.8235 -0.6215
   17MOL0     C 2143   3.056   2.963   5.389  0.5116  0.2757 -1.1865
   17MOL0     C 2144   3.188   2.973   5.381 -0.3654 -0.0162 -0.2693
   17MOL0     C 2145   3.245   3.079   5.305  0.7165 -0.4433  0.9035
   17MOL0     C 2146   3.164   3.167   5.223  0.1392  0.4484  1.1136
   17MOL0     O 2147   3.199   3.272   5.140  0.0910 -0.2938 -0.1908
   17MOL0     C 2148   3.333   3.277   5.093  0.6931 -0.0442  0.5541
   17MOL0     C 2149   3.401   3.405   5.131 -0.1951 -0.2174  0.4580
   17MOL0     C 2150   3.394   3.431   5.280 -0.3737 -0.4921  0.3111
   17MOL0     C 2151   3.495   3.548   5.325 -0.7728  0.2534  0.2228
   17MOL0     C 2152   3.638   3.493   5.366  0.9018 -0.1114 -0.4512
   17MOL0     C 2153   3.741   3.610   5.345  0.3579  0.0188  0.4444
   17MOL0     C 2154   3.706   3.726   5.436 -0.4247 -0.2372  0.2438
   17MOL0     C 2155   3.820   3.832   5.451 -0.2814  0.4724 -0.3762
   17MOL0    Cl 2156   3.746   3.977   5.540 -0.2949  0.0148 -0.4541
   17MOL0     C 2157   3.032   3.151   5.237  1.1420 -0.1512 -0.0676
   17MOL0     C 2158   2.971   3.050   5.316 -0.6206  0.1347  0.7768
   17MOL0     O 2159   2.963   2.995   5.643 -0.1905 -0.6974 -0.1410
   17MOL0     C 2160   2.836   2.667   5.578 -0.6041  0.7000 -0.9709
   17MOL0     C 2161   2.756   2.566   5.632  0.0592 -0.9980 -0.1138
   17MOL0     N 2162   1.944   2.476   5.997 -0.2573  0.2605 -0.4172
   17MOL0     N 2163   1.813   2.470   5.998 -0.1196  0.1974 -0.1692
   17MOL0     C 2164   1.586   1.641   6.878 -0.0041  0.6459  0.8234
   17MOL0     C 2165   1.625   1.584   7.002  0.2458 -0.4021  0.4842
   17MOL0     C 2166   1.743   1.435   7.353 -0.3275 -0.3504 -0.3910
   17MOL0     C 2167   1.799   1.310   7.320  0.0487  1.5154 -0.6924
   17MOL0     C 2168   1.794   1.201   7.410  0.3549 -0.7658  0.3246
   17MOL0     C 2169   1.724   1.213   7.531 -0.4516 -0.0813  0.7871
   17MOL0     O 2170   1.718   1.099   7.613 -0.9443  0.0060  0.1155
   17MOL0     C 2171   1.680   1.110   7.757 -0.1143 -0.7348  0.7220
   17MOL0     C 2172   1.524   1.128   7.784 -0.7829 -0.3542  0.3484
   17MOL0     C 2173   1.488   1.139   7.934 -1.6232 -0.0423  1.5798
   17MOL0     C 2174   1.524   1.011   7.997 -0.0308 -0.3792  0.2940
   17MOL0     C 2175   1.483   1.000   8.135  0.2884  0.1571 -0.3103
   17MOL0     C 2176   1.450   0.986   8.252 -0.3068  0.1922 -0.2028
   17MOL0     C 2177   1.664   1.331   7.553 -0.3384 -0.7224  0.5037
   17MOL0     C 2178   1.671   1.445   7.474 -0.8793  0.1343 -0.4132
   17MOL0     H 2179   1.951   1.638   6.962  0.1565  2.0802  2.2480
   17MOL0     H 2180   1.884   1.749   6.758 -1.1716  4.0489 -1.1952
   17MOL0     H 2181   1.479   1.877   6.709  0.3045  0.5659  0.2460
   17MOL0     H 2182   1.438   1.715   6.665 -1.2405  1.6005  1.6760
   17MOL0     H 2183   1.384   1.849   6.472 -0.2598 -0.5831  1.9290
   17MOL0     H 2184   1.526   1.781   6.413  1.4290 -0.9877  1.3097
   17MOL0     H 2185   1.662   1.976   6.516  0.2253  1.9177 -0.4482
   17MOL0     H 2186   1.515   2.049   6.573  2.6537 -0.6803  1.8109
   17MOL0     H 2187   1.601   1.983   6.280 -3.0640  0.3137 -1.7492
   17MOL0     H 2188   1.444   2.055   6.331 -0.0978 -0.5866 -0.2259
   17MOL0     H 2189   1.735   2.161   6.354  0.3191 -0.4901 -1.4462
   17MOL0     H 2190   1.591   2.242   6.439  0.9738 -2.4916  2.8029
   17MOL0     H 2191   1.662   2.365   6.220  1.8982  0.1008  0.4113
   17MOL0     H 2192   1.487   2.289   6.216  0.3103  3.4741 -1.6408
   17MOL0     H 2193   1.709   2.142   6.119 -0.7464 -1.4138  0.2354
   17MOL0     H 2194   1.523   2.143   6.081 -1.5231  2.1151 -1.6036
   17MOL0     H 2195   1.578   2.383   5.992  1.1237  0.4058  1.7622
   17MOL0     H 2196   1.620   2.237   5.893 -0.7565 -3.2949  1.5755
   17MOL0     H 2197   1.905   2.157   5.943 -0.0364 -0.8125  1.6914
   17MOL0     H 2198   2.161   2.252   5.894 -1.8204 -0.6364  1.1991
   17MOL0     H 2199   2.168   2.271   6.070  4.6879 -0.5160 -0.5660
   17MOL0     H 2200   2.262   2.493   6.047 -1.0714  0.8679 -0.3735
   17MOL0     H 2201   2.184   2.523   5.901  0.5839 -1.4842 -1.3472
   17MOL0     H 2202   2.436   2.354   5.946  0.4444  1.9362  0.5469
   17MOL0     H 2203   2.354   2.348   5.791  2.1954 -0.5357 -0.4682
   17MOL0     H 2204   2.480   2.611   5.889  0.0151  2.2617 -2.8403
   17MOL0     H 2205   2.379   2.598   5.754  0.5100 -0.1744  0.1320
   17MOL0     H 2206   2.598   2.765   5.857 -0.3450  1.2400 -1.4572
   17MOL0     H 2207   2.748   2.928   5.778 -0.3606  0.3561 -0.0907
   17MOL0     H 2208   3.252   2.906   5.437  1.1878  1.7244  0.1415
   17MOL0     H 2209   3.352   3.096   5.303  0.7384 -0.6668 -0.8526
   17MOL0     H 2210   3.334   3.273   4.983  2.5897  0.1838  0.5172
   17MOL0     H 2211   3.386   3.188   5.128 -0.5812 -0.8234  0.5348
   17MOL0     H 2212   3.376   3.496   5.074  4.0050 -0.7785 -2.7350
   17MOL0     H 2213   3.503   3.387   5.097  1.0297 -1.0376  4.1737
   17MOL0     H 2214   3.407   3.337   5.333 -1.2721 -0.5423  0.4582
   17MOL0     H 2215   3.295   3.473   5.301 -0.0741 -0.8183  2.6131
   17MOL0     H 2216   3.511   3.615   5.240  0.2826  0.1327  0.3203
   17MOL0     H 2217   3.447   3.607   5.404  2.1773  0.9780  1.5976
   17MOL0     H 2218   3.677   3.401   5.320  0.3453 -1.7018  2.0712
   17MOL0     H 2219   3.636   3.461   5.470  0.2484 -2.9000 -1.2321
   17MOL0     H 2220   3.742   3.635   5.238 -3.1645 -0.0357  0.2851
   17MOL0     H 2221   3.844   3.582   5.368  0.6570  0.8182  0.0914
   17MOL0     H 2222   3.612   3.771   5.402 -0.4081  0.4820  1.1154
   17MOL0     H 2223   3.692   3.681   5.535 -0.6135 -0.3828  0.1502
   17MOL0     H 2224   3.863   3.874   5.360 -1.8126  3.3746  0.1083
   17MOL0     H 2225   3.891   3.781   5.516 -1.1204  0.2768  0.4068
   17MOL0     H 2226   2.955   3.213   5.191  0.2678 -1.8472 -0.9873
   17MOL0     H 2227   2.863   3.042   5.312 -0.6446  1.0510 -1.2999
   17MOL0     H 2228   2.903   2.634   5.499  1.3662 -1.0649  1.2554
   17MOL0     H 2229   2.761   2.465   5.594  0.9451 -1.8064  2.0082
   17MOL0     H 2230   1.489   1.634   6.828  0.6628 -0.7112 -0.3427
   17MOL0     H 2231   1.552   1.538   7.068 -1.4127  1.2383 -0.1189
   17MOL0     H 2232   1.857   1.288   7.231  0.1439  0.1401 -0.3253
   17MOL0     H 2233   1.829   1.103   7.378  3.1156  0.9103 -2.4022
   17MOL0     H 2234   1.737   1.194   7.798 -1.6169  0.7211 -0.0462
   17MOL0     H 2235   1.719   1.022   7.810  1.4717 -0.7739 -0.4656
   17MOL0     H 2236   1.486   1.218   7.736  3.5470  3.0408  2.5147
   17MOL0     H 2237   1.473   1.041   7.742 -2.2399  1.5641 -2.0620
   17MOL0     H 2238   1.382   1.166   7.926 -2.1217 -2.0796  0.7571
   17MOL0     H 2239   1.550   1.218   7.977  0.3698 -0.6638  0.0184
   17MOL0     H 2240   1.477   0.936   7.933  0.5960 -0.3230 -0.2414
   17MOL0     H 2241   1.633   1.012   7.997 -0.0360  0.5536  0.1969
   17MOL0     H 2242   1.416   0.960   8.350 -1.2811 -2.8685 -1.2111
   17MOL0     H 2243   1.612   1.349   7.646 -0.6022 -0.2634  0.2721
   17MOL0     H 2244   1.651   1.546   7.508 -0.2084  0.0416  0.3063
   18MOL0     O 2245   6.122   3.091   4.215  0.5006 -0.1042 -0.3796
   18MOL0     C 2246   6.130   2.969   4.222  0.1838  1.6578  0.4580
   18MOL0     O 2247   6.036   2.876   4.235  0.3654 -0.3647 -0.2550
   18MOL0     C 2248   5.899   2.909   4.247  0.1840  0.5355  0.6106
   18MOL0     C 2249   5.820   2.801   4.255  0.3651  0.2996 -0.1337
   18MOL0     C 2250   5.685   2.813   4.277 -0.7518  0.4479  0.0006
   18MOL0     C 2251   5.622   2.936   4.273 -0.1794  0.8096  0.6566
   18MOL0     O 2252   5.484   2.946   4.293  0.0538 -0.1427 -0.7329
   18MOL0     C 2253   5.405   3.017   4.193  0.4736  0.0870 -0.4185
   18MOL0     C 2254   5.259   3.048   4.247  0.6843 -0.2855 -0.2395
   18MOL0     C 2255   5.180   2.916   4.256 -0.4540 -0.0732  0.2551
   18MOL0     C 2256   5.042   2.938   4.313  0.1543  0.2818  0.4832
   18MOL0     C 2257   4.961   2.814   4.327  0.4930 -0.4053  0.1240
   18MOL0     C 2258   4.831   2.837   4.413  0.4546 -0.4520 -0.4325
   18MOL0     C 2259   4.696   2.754   4.400 -0.4511 -0.0172  0.8088
   18MOL0     C 2260   4.724   2.618   4.458 -0.0993  0.3729 -0.9886
   18MOL0     N 2261   4.623   2.509   4.429 -0.4753 -1.5352 -0.7063
   18MOL0     C 2262   4.485   2.531   4.418  0.5666  0.4321 -0.3234
   18MOL0     C 2263   4.438   2.410   4.378 -0.3163 -0.5595  0.9363
   18MOL0     C 2264   4.297   2.381   4.338 -1.0564 -0.8327 -0.0431
   18MOL0     C 2265   4.208   2.334   4.447 -0.3552  1.4813  0.0907
   18MOL0     C 2266   4.154   2.438   4.543  0.6522 -0.8210  0.4216
   18MOL0     C 2267   4.102   2.388   4.671  0.1518  0.4798 -0.6189
   18MOL0     O 2268   4.050   2.492   4.763  0.3203  0.3750  0.5682
   18MOL0     C 2269   3.976   2.444   4.868  0.2134 -0.0424 -0.0376
   18MOL0     C 2270   3.957   2.530   4.973  0.1948  0.3352  0.4066
   18MOL0     C 2271   3.880   2.501   5.084  0.5427 -0.5214 -0.2369
   18MOL0     C 2272   3.829   2.376   5.103  0.6700  0.7072  0.5320
   18MOL0     C 2273   3.756   2.340   5.230 -0.3207  0.1694  0.8804
   18MOL0     O 2274   3.730   2.429   5.327  0.1467 -0.1631  0.1880
   18MOL0     C 2275   3.639   2.390   5.422  0.7213  0.2853 -0.5486
   18MOL0     C 2276   3.650   2.290   5.510 -0.2234 -0.7780  0.6142
   18MOL0     C 2277   3.549   2.269   5.603 -0.1665 -0.5269 -0.6395
   18MOL0     C 2278   3.423   2.337   5.605  0.1836 -0.5293  0.1755
   18MOL0     O 2279   3.317   2.295   5.689 -0.0097  0.5804 -0.5098
   18MOL0     C 2280   3.182   2.306   5.648  1.0042 -0.0185  0.5976
   18MOL0     C 2281   3.110   2.209   5.735 -0.1082 -1.1861  0.3029
   18MOL0     C 2282   2.957   2.220   5.722 -0.5642 -0.6251  0.5836
   18MOL0     C 2283   2.889   2.142   5.827 -0.7102 -0.0592 -0.1562
   18MOL0     C 2284   2.749   2.191   5.829 -0.3714  0.6943  0.4446
   18MOL0     C 2285   2.683   2.143   5.954  0.3962  0.1073 -0.3521
   18MOL0     C 2286   2.624   2.004   5.922  0.0939  0.6452  0.6434
   18MOL0     C 2287   2.485   1.985   6.000 -0.6592 -0.7491 -0.1398
   18MOL0    Cl 2288   2.520   1.947   6.179 -0.4694  0.3439 -0.1918
   18MOL0     C 2289   3.416   2.437   5.504  0.7140 -0.3917 -0.6651
   18MOL0     C 2290   3.523   2.469   5.424  0.7442  0.0310  1.1421
   18MOL0     O 2291   3.720   2.222   5.236 -0.0296 -0.1254 -0.2746
   18MOL0     C 2292   3.841   2.283   4.993  0.0523  0.0064 -0.1399
   18MOL0     C 2293   3.919   2.315   4.878  0.7749  0.0012 -0.7202
   18MOL0     N 2294   4.541   2.324   4.354  0.1417  0.2645  0.3231
   18MOL0     N 2295   4.650   2.390   4.371 -0.9591  0.3781  0.8395
   18MOL0     C 2296   5.694   3.052   4.248 -0.0637 -0.4886 -0.5933
   18MOL0     C 2297   5.830   3.042   4.242 -0.6105 -0.0113  0.1928
   18MOL0     C 2298   6.269   2.919   4.215 -0.1134  0.6718 -0.6203
   18MOL0     C 2299   6.300   2.786   4.255  0.2905  0.2962  0.3869
   18MOL0     C 2300   6.434   2.732   4.254  0.5398  0.1373  0.1370
   18MOL0     C 2301   6.535   2.811   4.215  0.7198 -0.5319  0.0866
   18MOL0     O 2302   6.654   2.744   4.239  0.4923 -0.7696 -0.6390
   18MOL0     C 2303   6.782   2.788   4.183 -0.6897  0.4187 -0.0672
   18MOL0     C 2304   6.812   2.714   4.050 -0.3255 -0.4944 -0.2338
   18MOL0     C 2305   6.733   2.785   3.937 -0.1665  0.9269 -1.2034
   18MOL0     C 2306   6.785   2.732   3.795 -0.0727  0.1011 -0.6863
   18MOL0     C 2307   6.917   2.773   3.743 -0.2684 -0.0257 -0.3636
   18MOL0     C 2308   7.020   2.806   3.692  0.4599 -0.0503 -0.4901
   18MOL0     C 2309   6.511   2.941   4.173 -0.2963 -0.0494  1.7624
   18MOL0     C 2310   6.379   2.994   4.167  0.3241  0.2361  0.1386
   18MOL0     H 2311   5.866   2.703   4.255 -0.8546 -0.3398  2.0780
   18MOL0     H 2312   5.632   2.719   4.292  1.1415 -0.2629  2.9321
   18MOL0     H 2313   5.402   2.945   4.110  0.2451  0.0166 -0.3496
   18MOL0     H 2314   5.465   3.101   4.157  0.2658 -0.3149 -1.7773
   18MOL0     H 2315   5.211   3.110   4.170  2.0206 -0.1921 -1.0185
   18MOL0     H 2316   5.258   3.098   4.344 -1.7663 -0.5408 -0.0508
   18MOL0     H 2317   5.231   2.845   4.322  3.2102  4.1151  2.4638
   18MOL0     H 2318   5.169   2.874   4.156 -2.8570  0.5773  0.1916
   18MOL0     H 2319   5.058   2.987   4.410 -1.3501  0.2369  0.7775
   18MOL0     H 2320   4.972   2.998   4.254  0.4191 -0.6280 -0.7925
   18MOL0     H 2321   5.009   2.738   4.390  0.2869  2.0175  3.5295
   18MOL0     H 2322   4.937   2.775   4.228  0.7521 -0.8699  0.2401
   18MOL0     H 2323   4.804   2.940   4.387 -0.3424 -0.1056  1.6571
   18MOL0     H 2324   4.852   2.846   4.520 -2.0347 -0.9389  0.1552
   18MOL0     H 2325   4.615   2.787   4.465 -2.3290 -0.9783 -0.9429
   18MOL0     H 2326   4.650   2.763   4.301 -0.0496  3.2589  0.8130
   18MOL0     H 2327   4.731   2.627   4.567  1.9702  1.8053 -1.1845
   18MOL0     H 2328   4.825   2.586   4.430  0.5727  1.3727  0.1500
   18MOL0     H 2329   4.427   2.623   4.431 -0.0413  0.0389 -0.2145
   18MOL0     H 2330   4.313   2.305   4.261  1.3449 -0.0598 -0.3785
   18MOL0     H 2331   4.264   2.475   4.293  2.1937 -0.4874 -1.9931
   18MOL0     H 2332   4.266   2.269   4.513 -2.0100  0.7515  0.8802
   18MOL0     H 2333   4.124   2.280   4.404  1.0260  0.1018 -0.9962
   18MOL0     H 2334   4.230   2.511   4.571 -1.2195  0.5594  2.2113
   18MOL0     H 2335   4.067   2.490   4.501  1.4450  1.4989  1.4816
   18MOL0     H 2336   4.179   2.322   4.713 -0.0526 -1.2818 -2.8220
   18MOL0     H 2337   4.021   2.319   4.648  1.3049 -1.5858  1.1567
   18MOL0     H 2338   3.994   2.631   4.958 -1.4704  0.6736 -2.2174
   18MOL0     H 2339   3.864   2.584   5.152  0.6407 -1.1872  0.6130
   18MOL0     H 2340   3.732   2.219   5.515 -0.7557 -1.3077  2.2110
   18MOL0     H 2341   3.557   2.197   5.683 -2.1340 -2.2069 -1.8593
   18MOL0     H 2342   3.176   2.278   5.542 -0.2137  1.1142  0.3321
   18MOL0     H 2343   3.155   2.412   5.651  4.2207  0.8671  1.2045
   18MOL0     H 2344   3.120   2.225   5.843 -3.2875 -2.4296  0.8957
   18MOL0     H 2345   3.137   2.108   5.703 -1.9602 -1.3042 -1.0427
   18MOL0     H 2346   2.924   2.189   5.622 -2.2341  2.5557  0.0326
   18MOL0     H 2347   2.936   2.327   5.726  3.0457  0.2000  4.2934
   18MOL0     H 2348   2.910   2.037   5.805  3.2756  0.3010  1.1713
   18MOL0     H 2349   2.939   2.150   5.924  1.2723 -1.7870 -0.9506
   18MOL0     H 2350   2.692   2.156   5.742  1.0217  1.3346 -0.7633
   18MOL0     H 2351   2.742   2.300   5.838  0.4814  0.6451  1.9220
   18MOL0     H 2352   2.600   2.208   5.984  1.2709  1.7006 -1.2535
   18MOL0     H 2353   2.754   2.126   6.035  1.5556  2.1845 -0.8561
   18MOL0     H 2354   2.604   1.991   5.815  0.3634  0.7035  0.5858
   18MOL0     H 2355   2.702   1.929   5.942 -1.3377 -0.9604  0.4323
   18MOL0     H 2356   2.430   1.903   5.953  1.2408 -1.9219 -0.4150
   18MOL0     H 2357   2.421   2.074   6.004 -0.7916 -0.8378 -0.2785
   18MOL0     H 2358   3.324   2.494   5.498  2.1390  1.8592 -3.4670
   18MOL0     H 2359   3.515   2.556   5.360  1.3052 -0.1141  0.8584
   18MOL0     H 2360   3.802   2.182   4.993  1.1026 -0.4123  0.8647
   18MOL0     H 2361   3.937   2.240   4.802  3.0154  0.0424 -0.2872
   18MOL0     H 2362   5.640   3.145   4.263  1.1076  0.1113  0.0385
   18MOL0     H 2363   5.879   3.137   4.223 -1.0129 -0.3398 -2.9462
   18MOL0     H 2364   6.216   2.726   4.289  1.1816 -1.4141 -0.2989
   18MOL0     H 2365   6.458   2.628   4.272 -0.7233 -0.3630 -0.8767
   18MOL0     H 2366   6.862   2.775   4.256  0.7425  0.7942 -1.5070
   18MOL0     H 2367   6.792   2.895   4.162  4.6767  0.5672  1.8543
   18MOL0     H 2368   6.920   2.711   4.034 -0.2779 -2.3063  0.2154
   18MOL0     H 2369   6.780   2.609   4.055 -2.3577  0.0589 -0.8001
   18MOL0     H 2370   6.756   2.891   3.923 -1.2483  1.1517 -1.3869
   18MOL0     H 2371   6.626   2.776   3.958 -0.7458  3.1273 -2.7795
   18MOL0     H 2372   6.762   2.625   3.792 -2.5474  0.5483  0.0144
   18MOL0     H 2373   6.714   2.771   3.722 -1.2254 -1.0095 -0.1826
   18MOL0     H 2374   7.099   2.854   3.639  0.1818  0.2783 -0.6111
   18MOL0     H 2375   6.594   3.007   4.152 -0.2442 -0.3060  1.1418
   18MOL0     H 2376   6.352   3.096   4.143 -0.0859 -0.0818 -0.7966
   19MOL0     O 2377   8.495   7.052   5.102  0.9119  0.3508 -0.2779
   19MOL0     C 2378   8.606   7.020   5.071  0.1440  0.0861 -0.6539
   19MOL0     O 2379   8.660   7.053   4.947 -0.3463 -1.4411  0.2932
   19MOL0     C 2380   8.590   7.110   4.840 -0.5654 -1.7465 -0.0255
   19MOL0     C 2381   8.454   7.120   4.826  0.0751  0.8824  0.6215
   19MOL0     C 2382   8.395   7.190   4.713  0.1420 -0.9240 -0.0308
   19MOL0     C 2383   8.472   7.232   4.608 -0.3406 -0.4573  0.3663
   19MOL0     O 2384   8.404   7.296   4.510 -0.5968 -0.6595  0.3405
   19MOL0     C 2385   8.452   7.266   4.378  0.4426  0.5467  0.8341
   19MOL0     C 2386   8.351   7.192   4.287  0.3359  0.2453 -0.4692
   19MOL0     C 2387   8.232   7.274   4.242 -0.2655  0.3725  0.7732
   19MOL0     C 2388   8.136   7.170   4.166  0.1787  0.1911 -0.2107
   19MOL0     C 2389   8.020   7.252   4.130  0.5640  0.6472 -0.0533
   19MOL0     C 2390   7.916   7.159   4.071 -0.2298 -0.1685 -0.8431
   19MOL0     C 2391   7.786   7.230   4.044 -0.8414 -0.5968  0.6324
   19MOL0     C 2392   7.669   7.134   4.002  0.0669 -1.0961 -0.0455
   19MOL0     N 2393   7.542   7.209   4.013 -0.5672  1.3210 -0.1737
   19MOL0     C 2394   7.419   7.147   4.040  0.7193 -0.1088  0.3622
   19MOL0     C 2395   7.331   7.248   4.031 -0.1405 -0.3649 -0.1787
   19MOL0     C 2396   7.186   7.234   4.073  0.2162  0.3921  0.4267
   19MOL0     C 2397   7.104   7.266   3.953  0.2078 -0.4746 -0.6228
   19MOL0     C 2398   6.953   7.280   3.995  0.0969  0.5491 -0.7176
   19MOL0     C 2399   6.854   7.331   3.890 -0.3344 -0.6858  0.1504
   19MOL0     O 2400   6.907   7.456   3.839 -0.6109  0.0606  0.3446
   19MOL0     C 2401   6.848   7.490   3.722 -0.5003 -0.0299 -0.3298
   19MOL0     C 2402   6.715   7.483   3.682  0.8512 -0.2162 -0.1182
   19MOL0     C 2403   6.670   7.529   3.567 -0.2332  0.2734 -0.6443
   19MOL0     C 2404   6.754   7.578   3.463 -0.1183  0.1235  0.1870
   19MOL0     C 2405   6.690   7.622   3.327  0.7048  0.3737  0.2374
   19MOL0     O 2406   6.767   7.661   3.228  0.0042 -0.0825  0.5601
   19MOL0     C 2407   6.685   7.724   3.136  0.9909 -0.2373  0.0017
   19MOL0     C 2408   6.674   7.671   3.010 -1.1826  0.5105 -0.3641
   19MOL0     C 2409   6.601   7.739   2.907 -0.3220 -0.1100  0.0888
   19MOL0     C 2410   6.540   7.861   2.926  0.1571 -0.5847 -0.1727
   19MOL0     O 2411   6.474   7.937   2.838 -0.0995  0.0570 -0.1985
   19MOL0     C 2412   6.406   7.865   2.736 -0.6345  0.1156  0.2251
   19MOL0     C 2413   6.371   7.980   2.637  0.3621 -0.7096  0.4978
   19MOL0     C 2414   6.309   8.109   2.695  1.2539  0.5192 -0.8370
   19MOL0     C 2415   6.174   8.093   2.768 -0.2028  0.9127 -0.0591
   19MOL0     C 2416   6.122   8.217   2.832  0.1503  0.6884  0.4957
   19MOL0     C 2417   6.215   8.282   2.935 -0.0576 -0.2116 -0.1069
   19MOL0     C 2418   6.134   8.385   3.011  0.2162 -0.6219  1.3898
   19MOL0     C 2419   6.091   8.500   2.919  0.3338 -0.4591 -0.0703
   19MOL0    Cl 2420   6.024   8.632   3.031 -0.2255 -0.2733 -0.2662
   19MOL0     C 2421   6.560   7.920   3.049 -0.5426 -0.2666 -0.0879
   19MOL0     C 2422   6.624   7.858   3.150 -0.1094  0.3972 -0.4363
   19MOL0     O 2423   6.564   7.604   3.318  0.2193 -1.0926 -0.7535
   19MOL0     C 2424   6.892   7.579   3.495  0.8332  0.0065  1.0314
   19MOL0     C 2425   6.942   7.547   3.629 -1.0464 -0.0865  0.0346
   19MOL0     N 2426   7.405   7.368   4.019 -0.2776 -0.0464 -0.1802
   19MOL0     N 2427   7.537   7.341   4.005  0.3516 -0.4405  0.6555
   19MOL0     C 2428   8.607   7.225   4.629 -0.4871 -0.2886  0.5386
   19MOL0     C 2429   8.669   7.164   4.740 -0.2202  0.1241  0.8474
   19MOL0     C 2430   8.679   6.928   5.160 -0.2563 -0.4763  0.2907
   19MOL0     C 2431   8.682   6.930   5.295  0.1598 -0.2970  0.0035
   19MOL0     C 2432   8.747   6.842   5.375  0.6202 -0.8873 -0.6686
   19MOL0     C 2433   8.830   6.741   5.313 -0.2262 -1.1522  0.1214
   19MOL0     O 2434   8.904   6.642   5.385  0.1322  0.3405  0.2292
   19MOL0     C 2435   8.957   6.668   5.508 -0.3812  0.6607 -0.7202
   19MOL0     C 2436   9.111   6.666   5.507  0.9081 -0.5095  0.1497
   19MOL0     C 2437   9.163   6.697   5.640 -0.1298 -0.1334 -0.9289
   19MOL0     C 2438   9.143   6.571   5.721  0.1737  0.6517  0.7622
   19MOL0     C 2439   9.234   6.565   5.837  0.8341 -0.3709  0.3574
   19MOL0     C 2440   9.300   6.556   5.939 -0.6747  0.0646  0.2737
   19MOL0     C 2441   8.827   6.730   5.173  0.7000 -0.5831 -0.1478
   19MOL0     C 2442   8.745   6.820   5.101  0.4844 -0.0346  0.4330
   19MOL0     H 2443   8.375   7.079   4.888 -1.8229 -1.0935 -2.8070
   19MOL0     H 2444   8.289   7.185   4.691  0.0132 -2.2684  0.7580
   19MOL0     H 2445   8.536   7.196   4.377 -0.8110 -1.0128 -0.0274
   19MOL0     H 2446   8.481   7.356   4.323  0.0907  0.8779  1.1835
   19MOL0     H 2447   8.319   7.096   4.329  3.0493  0.1666  1.7067
   19MOL0     H 2448   8.414   7.163   4.203  2.4536 -0.3745  1.2478
   19MOL0     H 2449   8.257   7.344   4.162 -0.7860  0.5853  0.7940
   19MOL0     H 2450   8.191   7.335   4.323  0.0027  2.4114 -0.5702
   19MOL0     H 2451   8.196   7.126   4.086 -0.8873 -0.1000 -0.8635
   19MOL0     H 2452   8.103   7.100   4.244  2.8654  3.3186  4.2196
   19MOL0     H 2453   8.049   7.319   4.049  1.2878 -0.2900 -0.5799
   19MOL0     H 2454   7.983   7.307   4.217 -0.5652  0.6928 -0.5392
   19MOL0     H 2455   7.894   7.080   4.143  2.5160  0.1487  0.4671
   19MOL0     H 2456   7.949   7.098   3.986 -4.3947 -3.6895 -0.2841
   19MOL0     H 2457   7.755   7.282   4.135 -3.7218  3.2326 -2.1691
   19MOL0     H 2458   7.803   7.297   3.959 -1.5700  0.2346  1.1277
   19MOL0     H 2459   7.654   7.049   4.070  1.6504 -0.2493  1.4401
   19MOL0     H 2460   7.684   7.096   3.900 -1.8106 -3.0511  0.3214
   19MOL0     H 2461   7.405   7.041   4.059  0.2087  0.2199  2.0653
   19MOL0     H 2462   7.162   7.299   4.158 -1.4216  1.8415 -1.0722
   19MOL0     H 2463   7.183   7.131   4.111 -0.6854  1.1037  2.4106
   19MOL0     H 2464   7.102   7.183   3.882  3.1477 -0.7113 -0.5738
   19MOL0     H 2465   7.143   7.348   3.891  1.1701 -1.3292 -1.1805
   19MOL0     H 2466   6.932   7.182   4.038  1.3396  0.8802  0.7479
   19MOL0     H 2467   6.951   7.347   4.082  0.1119 -2.7088  2.0204
   19MOL0     H 2468   6.756   7.342   3.937  0.2537  1.5201  0.9893
   19MOL0     H 2469   6.855   7.260   3.806 -0.1162  1.3485 -1.6558
   19MOL0     H 2470   6.638   7.448   3.751 -0.7198  1.8423 -0.7294
   19MOL0     H 2471   6.566   7.512   3.543  0.3817 -1.6460 -2.2448
   19MOL0     H 2472   6.725   7.578   2.988 -2.1379 -0.4766  1.3567
   19MOL0     H 2473   6.599   7.689   2.811  0.5822  0.1480 -0.0748
   19MOL0     H 2474   6.314   7.813   2.763 -2.7399  2.1549 -2.4290
   19MOL0     H 2475   6.475   7.801   2.679  0.8191  1.2924  0.5946
   19MOL0     H 2476   6.295   7.932   2.574  1.6174 -4.7199  1.7165
   19MOL0     H 2477   6.467   8.008   2.593  2.6481 -2.2681  4.0886
   19MOL0     H 2478   6.298   8.192   2.625 -0.7630  1.5036  0.5273
   19MOL0     H 2479   6.373   8.149   2.775 -1.5157  1.7945  0.9038
   19MOL0     H 2480   6.108   8.065   2.685 -0.4001  1.0562  0.0483
   19MOL0     H 2481   6.171   8.010   2.840  1.6578 -0.9176 -1.9368
   19MOL0     H 2482   6.028   8.190   2.880  0.6180 -1.4402  0.3036
   19MOL0     H 2483   6.101   8.293   2.756 -1.2179  1.2544  1.4017
   19MOL0     H 2484   6.303   8.329   2.890  0.8083 -2.0570 -0.4452
   19MOL0     H 2485   6.252   8.211   3.009 -0.9859 -1.0940 -0.4647
   19MOL0     H 2486   6.051   8.343   3.067  0.0134 -1.6458  0.3617
   19MOL0     H 2487   6.203   8.425   3.086 -0.6693 -0.8463  2.3280
   19MOL0     H 2488   6.017   8.454   2.854  0.8434 -0.6939 -0.4925
   19MOL0     H 2489   6.170   8.547   2.858 -0.4837  0.7218 -0.2579
   19MOL0     H 2490   6.532   8.023   3.067  1.6513  0.6944 -1.6534
   19MOL0     H 2491   6.630   7.906   3.247 -3.0293 -1.3408  0.7219
   19MOL0     H 2492   6.964   7.609   3.420 -1.6294 -0.6922 -1.8071
   19MOL0     H 2493   7.045   7.573   3.655 -1.6833  0.3298  2.3767
   19MOL0     H 2494   8.683   7.250   4.555  1.6623 -3.6492  1.3511
   19MOL0     H 2495   8.776   7.159   4.757  0.2729  0.6344 -1.6422
   19MOL0     H 2496   8.640   7.015   5.349  1.2075  0.5818 -0.5263
   19MOL0     H 2497   8.730   6.847   5.482  1.7843  0.9908 -0.5281
   19MOL0     H 2498   8.920   6.603   5.588  2.3779 -0.9634 -0.6368
   19MOL0     H 2499   8.933   6.768   5.545  2.6882  0.8976  0.9650
   19MOL0     H 2500   9.135   6.568   5.466 -0.4621 -1.8729  2.3844
   19MOL0     H 2501   9.144   6.755   5.453 -1.0076  1.0949  1.4648
   19MOL0     H 2502   9.116   6.782   5.690  1.3852  1.5812 -2.3000
   19MOL0     H 2503   9.268   6.722   5.624 -0.0359 -0.2084 -0.4496
   19MOL0     H 2504   9.042   6.589   5.761 -0.0082 -2.1815  1.8117
   19MOL0     H 2505   9.143   6.482   5.659  0.7947  1.6773 -0.7723
   19MOL0     H 2506   9.358   6.534   6.026  0.5761 -1.1201 -0.8102
   19MOL0     H 2507   8.878   6.644   5.130  0.0886 -0.3711 -1.3162
   19MOL0     H 2508   8.729   6.805   4.995  4.0593 -0.2945 -0.1993
   20MOL0     O 2509   2.128   6.442   9.939 -0.2345 -0.4226  0.7846
   20MOL0     C 2510   2.116   6.321   9.954 -0.4629 -0.2014  0.6648
   20MOL0     O 2511   2.073   6.227   9.865 -0.2037 -0.4679 -0.1479
   20MOL0     C 2512   2.019   6.260   9.746  1.1258  1.1758 -1.1364
   20MOL0     C 2513   1.924   6.363   9.726 -0.6064 -0.5998  0.0537
   20MOL0     C 2514   1.865   6.363   9.596  1.0358 -0.3709  0.6131
   20MOL0     C 2515   1.867   6.265   9.508  0.0941 -0.4581  0.3441
   20MOL0     O 2516   1.802   6.264   9.381  0.8847 -0.3101 -0.0921
   20MOL0     C 2517   1.664   6.305   9.371  0.1525 -0.1707 -0.3090
   20MOL0     C 2518   1.648   6.406   9.266  0.0411 -0.0652 -0.4966
   20MOL0     C 2519   1.496   6.460   9.262 -0.5222  0.0914  0.3443
   20MOL0     C 2520   1.472   6.558   9.141  0.4425 -0.3735 -0.7631
   20MOL0     C 2521   1.317   6.603   9.149 -0.1732 -0.1816  0.4127
   20MOL0     C 2522   1.273   6.646   9.013  0.5284 -0.0501 -0.4585
   20MOL0     C 2523   1.149   6.739   9.018  0.5363  0.2313  0.4981
   20MOL0     C 2524   1.115   6.804   8.882 -0.6338 -0.8139 -0.2091
   20MOL0     N 2525   0.976   6.842   8.882 -1.0644  0.2750  0.4057
   20MOL0     C 2526   0.866   6.766   8.908  0.1040 -0.0715 -0.0167
   20MOL0     C 2527   0.763   6.833   8.843  0.4618  0.5067  0.4953
   20MOL0     C 2528   0.618   6.819   8.842 -0.9656 -0.7774 -0.1746
   20MOL0     C 2529   0.583   6.675   8.817 -0.4868  0.2321 -0.9470
   20MOL0     C 2530   0.427   6.661   8.826 -0.5512  0.6480 -0.5089
   20MOL0     C 2531   0.357   6.702   8.693 -0.0544 -0.4488  0.3829
   20MOL0     O 2532   0.217   6.742   8.711  0.6207 -0.0093  0.0113
   20MOL0     C 2533   0.123   6.648   8.690  0.7039 -0.1241 -0.8475
   20MOL0     C 2534  -0.012   6.693   8.685 -0.2517  0.0527  0.6467
   20MOL0     C 2535  -0.113   6.597   8.660 -0.2766  0.3987 -0.2605
   20MOL0     C 2536  -0.086   6.465   8.620 -0.1849  0.7687 -0.1062
   20MOL0     C 2537  -0.191   6.368   8.572 -0.3790  0.7191  0.3419
   20MOL0     O 2538  -0.319   6.404   8.596 -0.6998  0.1829  0.1071
   20MOL0     C 2539  -0.430   6.331   8.557 -0.2924  0.0154 -0.2523
   20MOL0     C 2540  -0.438   6.202   8.500  0.3858 -0.5163 -0.0721
   20MOL0     C 2541  -0.562   6.140   8.468  0.5250 -0.9889  0.2218
   20MOL0     C 2542  -0.679   6.212   8.484  0.4554 -0.0625 -0.2509
   20MOL0     O 2543  -0.795   6.139   8.457 -0.1256 -0.2156 -0.3671
   20MOL0     C 2544  -0.924   6.197   8.493 -0.1253 -0.1543 -0.2370
   20MOL0     C 2545  -1.020   6.106   8.432 -0.4122 -0.4246  0.2350
   20MOL0     C 2546  -1.018   5.962   8.482  0.1990 -1.0136 -0.5859
   20MOL0     C 2547  -1.140   5.888   8.415 -0.0513 -0.3562 -0.0991
   20MOL0     C 2548  -1.187   5.764   8.496  0.4057  0.6166 -0.4121
   20MOL0     C 2549  -1.312   5.791   8.579  0.4101 -0.1674  0.1024
   20MOL0     C 2550  -1.366   5.665   8.651 -0.6338 -0.5307  0.8434
   20MOL0     C 2551  -1.480   5.684   8.751 -0.9267  1.6685 -0.5721
   20MOL0    Cl 2552  -1.634   5.742   8.681 -0.1364 -0.0044  0.5491
   20MOL0     C 2553  -0.673   6.337   8.551  0.2667 -0.2910 -0.0673
   20MOL0     C 2554  -0.551   6.397   8.579  0.2565  0.1356  0.3360
   20MOL0     O 2555  -0.154   6.263   8.515 -0.4359 -0.2696  0.2479
   20MOL0     C 2556   0.047   6.422   8.625  0.8705 -0.5231 -0.5142
   20MOL0     C 2557   0.152   6.509   8.658 -0.0997 -0.5386 -0.3492
   20MOL0     N 2558   0.818   6.940   8.777 -0.3656  0.8728 -0.3683
   20MOL0     N 2559   0.937   6.944   8.799 -0.2440 -0.5160 -0.3500
   20MOL0     C 2560   1.958   6.157   9.534  0.6558 -0.1013  0.2347
   20MOL0     C 2561   2.032   6.153   9.652  0.3600  0.1306 -0.1787
   20MOL0     C 2562   2.153   6.273  10.094  0.0492 -0.2464  0.0011
   20MOL0     C 2563   2.174   6.143  10.114  1.5126  0.8872  0.0215
   20MOL0     C 2564   2.242   6.099  10.229  0.7190 -0.1781  0.1639
   20MOL0     C 2565   2.279   6.179  10.337  0.6752 -0.5247  0.1481
   20MOL0     O 2566   2.336   6.130  10.451  0.5116  0.3109 -0.1250
   20MOL0     C 2567   2.355   5.993  10.483 -0.8763  0.7189  0.1193
   20MOL0     C 2568   2.400   5.965  10.634 -0.5981  0.2338  0.7219
   20MOL0     C 2569   2.401   5.819  10.674  0.1650  0.4465 -0.8345
   20MOL0     C 2570   2.510   5.734  10.594  0.5426  0.1724 -0.4555
   20MOL0     C 2571   2.638   5.756  10.660  0.2299 -0.3288 -0.3825
   20MOL0     C 2572   2.744   5.785  10.703 -0.3712 -0.4309  0.6329
   20MOL0     C 2573   2.247   6.316  10.321 -0.5192  0.1489  0.2639
   20MOL0     C 2574   2.183   6.359  10.203  0.2292 -0.5228 -0.4156
   20MOL0     H 2575   1.911   6.442   9.799  2.6898  1.0961 -0.9790
   20MOL0     H 2576   1.796   6.443   9.571  2.6121  1.3895  1.6102
   20MOL0     H 2577   1.624   6.351   9.462 -1.4778  0.9954 -1.5606
   20MOL0     H 2578   1.602   6.218   9.346 -0.4891  0.3612 -0.5968
   20MOL0     H 2579   1.670   6.359   9.169  0.1532 -1.1693  0.0472
   20MOL0     H 2580   1.712   6.494   9.283  0.1631 -0.5878  2.1662
   20MOL0     H 2581   1.479   6.507   9.360  0.1878  0.0974  0.4685
   20MOL0     H 2582   1.424   6.380   9.246 -2.2177  1.6703 -0.3534
   20MOL0     H 2583   1.536   6.646   9.147 -1.8556  1.3053  1.5163
   20MOL0     H 2584   1.490   6.498   9.052 -1.7788 -2.5883  0.1605
   20MOL0     H 2585   1.289   6.678   9.224 -3.8962 -2.4811  1.5979
   20MOL0     H 2586   1.256   6.516   9.175 -0.1627 -1.1057 -2.2699
   20MOL0     H 2587   1.260   6.568   8.939  3.4128  0.4767 -1.6736
   20MOL0     H 2588   1.352   6.712   8.975 -2.5658  2.8329 -2.4955
   20MOL0     H 2589   1.064   6.675   9.044 -1.9331  4.1157  3.1447
   20MOL0     H 2590   1.163   6.813   9.097 -0.8640  1.6915 -0.5620
   20MOL0     H 2591   1.138   6.739   8.797 -1.0574  1.9951 -2.6446
   20MOL0     H 2592   1.171   6.897   8.877  1.4890 -2.0496 -0.6676
   20MOL0     H 2593   0.845   6.674   8.962 -2.8584  1.3482  1.5187
   20MOL0     H 2594   0.564   6.877   8.766 -3.8636 -2.3205  0.5758
   20MOL0     H 2595   0.587   6.851   8.941 -0.7298 -0.9287 -0.0517
   20MOL0     H 2596   0.616   6.607   8.896 -1.4920  0.8165 -0.0061
   20MOL0     H 2597   0.610   6.618   8.727  0.2762 -0.9904  0.0198
   20MOL0     H 2598   0.408   6.555   8.844  4.0092 -0.4149 -0.7808
   20MOL0     H 2599   0.369   6.718   8.900 -2.9797 -0.4985 -1.4237
   20MOL0     H 2600   0.382   6.634   8.611  2.8265  2.3291 -1.2854
   20MOL0     H 2601   0.403   6.796   8.662 -0.5440  0.2158  1.5845
   20MOL0     H 2602  -0.045   6.797   8.684 -1.0039 -0.1331 -2.3418
   20MOL0     H 2603  -0.217   6.630   8.663 -0.3285  0.2885  2.5302
   20MOL0     H 2604  -0.349   6.141   8.490  0.7677  0.2262 -1.3358
   20MOL0     H 2605  -0.563   6.043   8.421  0.5867  0.5118 -3.1304
   20MOL0     H 2606  -0.951   6.298   8.462 -1.8747  0.1233  2.0378
   20MOL0     H 2607  -0.928   6.191   8.602  3.7700 -0.3819  0.0503
   20MOL0     H 2608  -0.992   6.092   8.327  0.0328 -0.7784  0.3948
   20MOL0     H 2609  -1.119   6.151   8.442  0.5418  1.2587  3.1905
   20MOL0     H 2610  -1.039   5.951   8.588  2.8662  0.0934  0.1399
   20MOL0     H 2611  -0.916   5.925   8.476  0.0857 -1.4685  0.2170
   20MOL0     H 2612  -1.225   5.956   8.403 -1.6518 -2.3907 -0.9208
   20MOL0     H 2613  -1.117   5.845   8.318 -0.0203 -5.3463  1.8407
   20MOL0     H 2614  -1.100   5.731   8.553 -0.2351 -3.5143 -1.5337
   20MOL0     H 2615  -1.192   5.680   8.426 -1.5814  1.2893 -1.1488
   20MOL0     H 2616  -1.394   5.824   8.514 -0.9312 -2.2573  0.6215
   20MOL0     H 2617  -1.306   5.869   8.656 -2.6695  1.7171 -1.3354
   20MOL0     H 2618  -1.413   5.593   8.583 -1.2909  2.0480 -1.6251
   20MOL0     H 2619  -1.277   5.624   8.700  0.9462  1.2199 -0.3878
   20MOL0     H 2620  -1.438   5.748   8.829  2.4509  2.9812 -3.2443
   20MOL0     H 2621  -1.498   5.587   8.797 -0.3455  2.9977  2.7651
   20MOL0     H 2622  -0.765   6.390   8.575 -0.7666 -2.1653  0.3466
   20MOL0     H 2623  -0.543   6.492   8.630  0.6532 -0.8562  2.2420
   20MOL0     H 2624   0.081   6.320   8.612 -1.2792 -1.1436 -1.9826
   20MOL0     H 2625   0.257   6.483   8.655  0.1230  0.3799 -2.6990
   20MOL0     H 2626   1.969   6.081   9.456  1.5909 -1.2814  1.4610
   20MOL0     H 2627   2.094   6.070   9.683 -0.1265 -0.3239 -0.4011
   20MOL0     H 2628   2.146   6.071  10.038  1.2254  0.9462  0.0712
   20MOL0     H 2629   2.258   5.992  10.227  2.9354  0.0661 -2.5636
   20MOL0     H 2630   2.431   5.957  10.412  0.2122 -0.9529  2.0334
   20MOL0     H 2631   2.259   5.943  10.467 -1.3496  2.4278 -3.2904
   20MOL0     H 2632   2.500   6.007  10.650  0.6269 -2.1647 -0.0839
   20MOL0     H 2633   2.336   6.019  10.704 -1.1346  1.0640 -0.3654
   20MOL0     H 2634   2.307   5.771  10.645  0.2849  0.3226 -1.0252
   20MOL0     H 2635   2.419   5.807  10.781  1.6544 -0.1205 -1.1106
   20MOL0     H 2636   2.471   5.632  10.588 -4.1125  1.6932  0.3298
   20MOL0     H 2637   2.523   5.767  10.490 -0.3568 -0.7265 -0.8726
   20MOL0     H 2638   2.847   5.801  10.730 -0.1430 -2.5370  1.2495
   20MOL0     H 2639   2.277   6.399  10.383  0.5831  2.0639 -2.6151
   20MOL0     H 2640   2.161   6.465  10.204 -0.1468 -0.6067  0.9220
   21MOL0     O 2641   6.646  10.342   8.778 -0.3947  0.4999 -0.2781
   21MOL0     C 2642   6.728  10.266   8.822 -0.1033  0.9478  0.3461
   21MOL0     O 2643   6.731  10.128   8.813 -0.3315  0.1412  0.0377
   21MOL0     C 2644   6.612  10.070   8.772 -0.1502 -0.4087 -0.4954
   21MOL0     C 2645   6.489  10.096   8.839  0.3230  0.8132 -0.1743
   21MOL0     C 2646   6.377  10.023   8.800  0.3294  0.1347  0.5531
   21MOL0     C 2647   6.370   9.948   8.681 -0.8538  0.2745 -0.6396
   21MOL0     O 2648   6.266   9.873   8.654  0.3645  0.4862 -0.8426
   21MOL0     C 2649   6.267   9.763   8.553 -0.0590  0.2369 -1.3501
   21MOL0     C 2650   6.338   9.645   8.614  0.5843  0.2393  0.8253
   21MOL0     C 2651   6.343   9.523   8.522 -0.4827  0.5415 -0.0945
   21MOL0     C 2652   6.382   9.387   8.567 -0.2073 -0.3419 -0.3544
   21MOL0     C 2653   6.387   9.277   8.454 -0.7932  0.1510  0.0887
   21MOL0     C 2654   6.328   9.149   8.493 -0.2876 -0.0515 -0.0959
   21MOL0     C 2655   6.348   9.043   8.390  0.0958 -0.1808 -0.9982
   21MOL0     C 2656   6.256   8.923   8.414 -0.0625 -1.2104  0.3112
   21MOL0     N 2657   6.287   8.797   8.358  0.3513  0.2279 -0.2661
   21MOL0     C 2658   6.357   8.694   8.431 -0.1671  0.0733  0.0410
   21MOL0     C 2659   6.362   8.592   8.345  0.5758 -0.9384 -0.6173
   21MOL0     C 2660   6.422   8.454   8.355  0.2425 -0.7523 -0.8658
   21MOL0     C 2661   6.341   8.372   8.464 -0.3791 -0.3043  0.2236
   21MOL0     C 2662   6.402   8.372   8.609  0.4649  0.2799 -0.4623
   21MOL0     C 2663   6.283   8.331   8.694  0.5324  0.4519  0.4586
   21MOL0     O 2664   6.268   8.194   8.662  0.0910 -0.3906 -0.3287
   21MOL0     C 2665   6.156   8.140   8.714 -0.2918 -0.3322  1.3236
   21MOL0     C 2666   6.097   8.160   8.831 -0.5253 -0.0820 -0.6393
   21MOL0     C 2667   5.992   8.070   8.880  0.4933  0.0068 -0.9378
   21MOL0     C 2668   5.941   7.972   8.799 -0.1241 -0.0421 -0.5058
   21MOL0     C 2669   5.839   7.874   8.850 -0.2559  0.3967  0.6020
   21MOL0     O 2670   5.787   7.793   8.756  0.6854 -0.7145 -1.0988
   21MOL0     C 2671   5.669   7.728   8.784  0.4815  0.9013 -0.6481
   21MOL0     C 2672   5.572   7.758   8.695 -0.4473  0.3409  0.8525
   21MOL0     C 2673   5.444   7.695   8.708 -0.2634 -0.5793  0.5690
   21MOL0     C 2674   5.411   7.615   8.819 -0.7127 -0.3777 -0.5871
   21MOL0     O 2675   5.277   7.565   8.839 -0.1833 -0.0497 -0.5020
   21MOL0     C 2676   5.270   7.451   8.933  0.0436 -0.0332 -0.1560
   21MOL0     C 2677   5.115   7.432   8.955  0.5697 -0.8101  0.7747
   21MOL0     C 2678   5.049   7.399   8.817  0.9029 -0.8030  0.9423
   21MOL0     C 2679   4.906   7.358   8.834 -0.2559  0.8115 -0.0040
   21MOL0     C 2680   4.837   7.310   8.703  0.0801 -0.2315 -0.3363
   21MOL0     C 2681   4.680   7.294   8.721 -1.1204 -0.1143 -0.7764
   21MOL0     C 2682   4.595   7.336   8.600 -0.1301 -0.5411 -0.6145
   21MOL0     C 2683   4.475   7.250   8.571  0.4331  0.2773 -0.1578
   21MOL0    Cl 2684   4.377   7.321   8.434 -0.0134  0.5718 -0.2192
   21MOL0     C 2685   5.517   7.592   8.914  0.6059  0.5943  0.5840
   21MOL0     C 2686   5.641   7.650   8.894  0.4810  0.0448  0.8142
   21MOL0     O 2687   5.808   7.877   8.971  0.2151 -0.3521  1.3367
   21MOL0     C 2688   5.990   7.955   8.670  1.1678 -0.1887  0.0160
   21MOL0     C 2689   6.100   8.032   8.631  0.7597  0.2168 -0.2593
   21MOL0     N 2690   6.309   8.627   8.228 -0.1440 -0.6107  0.5474
   21MOL0     N 2691   6.260   8.747   8.231  0.4783 -0.5336  0.0493
   21MOL0     C 2692   6.489   9.936   8.606  0.6908  0.0083 -0.5524
   21MOL0     C 2693   6.610   9.993   8.653  0.1567 -0.0223  0.2683
   21MOL0     C 2694   6.845  10.325   8.891  0.9781 -0.1116 -0.1106
   21MOL0     C 2695   6.958  10.243   8.906 -0.2149 -0.9319 -0.7327
   21MOL0     C 2696   7.070  10.282   8.992  0.2205  0.4511  0.2890
   21MOL0     C 2697   7.074  10.416   9.036  0.9358 -0.1840  0.2399
   21MOL0     O 2698   7.178  10.467   9.101  0.1203  0.0272 -0.2676
   21MOL0     C 2699   7.316  10.438   9.057 -1.0162  0.6762  0.4407
   21MOL0     C 2700   7.341  10.486   8.916 -0.2163 -1.0451 -0.0831
   21MOL0     C 2701   7.492  10.480   8.889  0.0494 -0.5827 -0.0188
   21MOL0     C 2702   7.527  10.468   8.732  0.3361  0.1381 -0.3247
   21MOL0     C 2703   7.666  10.453   8.721 -0.2235  0.2272 -0.1791
   21MOL0     C 2704   7.793  10.442   8.712  0.6812  0.0432 -0.1213
   21MOL0     C 2705   6.954  10.498   9.037 -0.7931  0.5656  0.1096
   21MOL0     C 2706   6.853  10.453   8.945  0.1264 -0.0583 -0.9647
   21MOL0     H 2707   6.470  10.170   8.916  0.4716  0.3818  0.2857
   21MOL0     H 2708   6.280  10.038   8.846  0.6259 -0.8893  1.5314
   21MOL0     H 2709   6.309   9.806   8.462  1.9932  1.7935  0.2357
   21MOL0     H 2710   6.160   9.742   8.550 -0.5423  0.9796  3.4354
   21MOL0     H 2711   6.280   9.629   8.706 -3.3165 -3.1004 -1.8249
   21MOL0     H 2712   6.438   9.665   8.654 -0.4542 -0.2094  3.9245
   21MOL0     H 2713   6.417   9.547   8.445  0.6545 -0.1742  0.7512
   21MOL0     H 2714   6.249   9.516   8.466  1.2465 -1.7382 -3.0550
   21MOL0     H 2715   6.475   9.390   8.624 -0.7676  1.8343  0.5328
   21MOL0     H 2716   6.300   9.358   8.633 -1.2981  0.8523 -1.1317
   21MOL0     H 2717   6.493   9.259   8.432 -0.6327 -1.4476  1.9847
   21MOL0     H 2718   6.334   9.316   8.366 -1.0595  0.8040  0.5322
   21MOL0     H 2719   6.222   9.171   8.509 -0.8367 -0.3971 -2.7697
   21MOL0     H 2720   6.379   9.111   8.583 -1.1214  1.0077  0.8468
   21MOL0     H 2721   6.352   9.092   8.292  1.9535  0.9105 -0.4215
   21MOL0     H 2722   6.446   8.998   8.411 -0.3113 -0.0965  1.2404
   21MOL0     H 2723   6.158   8.941   8.369 -0.2499 -1.8875  0.4375
   21MOL0     H 2724   6.232   8.910   8.520 -1.8507 -1.4852 -0.0844
   21MOL0     H 2725   6.381   8.709   8.536 -1.4508  1.2198  0.1973
   21MOL0     H 2726   6.525   8.467   8.389 -0.0577  0.9866 -0.5122
   21MOL0     H 2727   6.424   8.408   8.256 -1.0970  0.3240 -1.4370
   21MOL0     H 2728   6.331   8.265   8.441  0.1988 -0.6371  1.4224
   21MOL0     H 2729   6.237   8.403   8.451  0.4256  1.3733 -4.3063
   21MOL0     H 2730   6.477   8.295   8.625 -0.6664 -0.3075  2.8292
   21MOL0     H 2731   6.439   8.472   8.633 -0.1567 -0.1431  2.6505
   21MOL0     H 2732   6.198   8.398   8.679  0.3463  0.2702  0.6894
   21MOL0     H 2733   6.304   8.322   8.801 -1.4708 -2.1555  0.7295
   21MOL0     H 2734   6.135   8.233   8.901  1.4594  0.2229 -1.9705
   21MOL0     H 2735   5.939   8.094   8.972 -2.7823  1.7694 -3.0952
   21MOL0     H 2736   5.591   7.822   8.609 -0.6013  0.4409  0.8918
   21MOL0     H 2737   5.362   7.717   8.640  1.2081  1.6729 -0.6053
   21MOL0     H 2738   5.323   7.476   9.025  2.8566  2.4990 -2.2716
   21MOL0     H 2739   5.307   7.363   8.879  1.4627  1.0780 -1.0534
   21MOL0     H 2740   5.063   7.518   8.997  1.1085 -0.8373  1.5250
   21MOL0     H 2741   5.111   7.344   9.019 -1.4856 -0.7474  0.7740
   21MOL0     H 2742   5.103   7.312   8.778  0.3807  0.5233 -3.1984
   21MOL0     H 2743   5.061   7.471   8.736 -1.9122  1.4336  2.3484
   21MOL0     H 2744   4.900   7.268   8.897  0.6452 -1.0750 -2.4641
   21MOL0     H 2745   4.851   7.433   8.891  1.5222  1.5911  0.7678
   21MOL0     H 2746   4.891   7.223   8.664  0.3114  0.0765 -0.7140
   21MOL0     H 2747   4.852   7.391   8.631 -2.6998  0.3454 -0.4005
   21MOL0     H 2748   4.653   7.363   8.801  1.2210  1.7623 -1.4627
   21MOL0     H 2749   4.666   7.191   8.753 -1.5706  0.1085 -0.2295
   21MOL0     H 2750   4.565   7.439   8.620  0.6111 -0.5001  0.3919
   21MOL0     H 2751   4.650   7.347   8.506  1.4172  0.2709  0.3341
   21MOL0     H 2752   4.425   7.240   8.668  2.2810 -1.3358  0.6876
   21MOL0     H 2753   4.512   7.151   8.544 -2.1612 -0.4462 -1.3684
   21MOL0     H 2754   5.503   7.546   9.012 -0.4259 -0.5346 -0.0586
   21MOL0     H 2755   5.726   7.634   8.960  1.5385  1.2667 -0.2109
   21MOL0     H 2756   5.953   7.871   8.612 -0.5964  0.5542  0.0076
   21MOL0     H 2757   6.144   8.010   8.534  3.1649  1.0482  0.5698
   21MOL0     H 2758   6.489   9.872   8.518 -1.0642 -1.5306  0.4948
   21MOL0     H 2759   6.708   9.966   8.617 -0.1905 -0.2966 -0.4798
   21MOL0     H 2760   6.950  10.147   8.857  0.6781 -0.2909 -2.1996
   21MOL0     H 2761   7.151  10.211   9.004  0.1550 -0.0372 -1.8698
   21MOL0     H 2762   7.346  10.335   9.079  0.0033  1.0487  0.8655
   21MOL0     H 2763   7.378  10.503   9.119 -0.7010 -0.5947  1.5049
   21MOL0     H 2764   7.291  10.416   8.848  0.5973 -2.4964  0.7740
   21MOL0     H 2765   7.303  10.588   8.903  1.2568 -0.4602  0.0020
   21MOL0     H 2766   7.524  10.389   8.941 -0.8554 -3.5886 -4.1776
   21MOL0     H 2767   7.551  10.565   8.925  0.1335 -0.5960 -0.1222
   21MOL0     H 2768   7.480  10.380   8.686  1.7851  0.1977 -2.0255
   21MOL0     H 2769   7.504  10.565   8.688  2.2543  1.3266  1.1626
   21MOL0     H 2770   7.898  10.423   8.709  0.3593 -1.9158 -1.6268
   21MOL0     H 2771   6.956  10.598   9.078  3.3025 -0.6240  3.5144
   21MOL0     H 2772   6.769  10.519   8.927  0.5098  0.1360 -2.2045
   22MOL0     O 2773   6.331   8.749   1.720 -0.1045 -0.5805 -0.5290
   22MOL0     C 2774   6.324   8.679   1.820  0.1627 -0.3290  0.5856
   22MOL0     O 2775   6.418   8.662   1.911  0.3285  0.5707 -0.4691
   22MOL0     C 2776   6.527   8.750   1.895 -0.1377 -0.1749 -0.8750
   22MOL0     C 2777   6.523   8.895   1.911  0.2766 -0.2973  0.6053
   22MOL0     C 2778   6.640   8.969   1.878  0.4331 -0.1595 -0.0752
   22MOL0     C 2779   6.752   8.900   1.838 -0.2418  0.1119  0.5143
   22MOL0     O 2780   6.868   8.970   1.839  0.1817  0.4182 -0.4871
   22MOL0     C 2781   6.938   8.975   1.966 -0.1717 -0.0398 -0.3607
   22MOL0     C 2782   7.044   9.085   1.977 -0.0427  0.2170  0.2298
   22MOL0     C 2783   7.148   9.080   1.858 -0.4987 -0.2577  0.2728
   22MOL0     C 2784   7.256   9.194   1.863  0.3621  0.4038 -0.1618
   22MOL0     C 2785   7.333   9.210   1.737  0.6081 -0.1166 -0.0212
   22MOL0     C 2786   7.414   9.091   1.683 -0.2773 -0.2264  0.8858
   22MOL0     C 2787   7.493   9.137   1.556 -0.3181 -0.0415  0.1569
   22MOL0     C 2788   7.611   9.050   1.524  0.4147  0.2011 -0.2206
   22MOL0     N 2789   7.661   9.085   1.395 -0.8663  0.1406 -0.2307
   22MOL0     C 2790   7.693   9.008   1.290 -0.5036  0.9276 -0.0833
   22MOL0     C 2791   7.773   9.080   1.212  0.2976 -0.0419 -0.5861
   22MOL0     C 2792   7.830   9.053   1.081 -0.2580  0.0279 -0.2273
   22MOL0     C 2793   7.903   8.921   1.094  0.8626  0.0356  0.1649
   22MOL0     C 2794   8.033   8.913   1.167 -0.0475  1.0646 -0.5149
   22MOL0     C 2795   8.144   8.997   1.102 -0.1098  0.0450 -0.3215
   22MOL0     O 2796   8.274   8.956   1.155  0.4580  0.2876 -0.1280
   22MOL0     C 2797   8.340   8.860   1.090  0.2528  0.1566 -0.4645
   22MOL0     C 2798   8.461   8.821   1.151  1.3510  0.4168  0.2322
   22MOL0     C 2799   8.525   8.711   1.095  0.2178 -1.3480 -0.8138
   22MOL0     C 2800   8.471   8.638   0.992 -0.9133 -0.5449 -0.3301
   22MOL0     C 2801   8.548   8.521   0.942  1.0867  0.2022 -0.1179
   22MOL0     O 2802   8.657   8.494   1.017  0.0242  0.2413 -0.3444
   22MOL0     C 2803   8.744   8.391   0.990  0.4284  0.5615  0.3734
   22MOL0     C 2804   8.796   8.334   1.102 -0.6476  0.1420 -0.3018
   22MOL0     C 2805   8.895   8.238   1.091  0.3041 -0.1285  0.7293
   22MOL0     C 2806   8.938   8.195   0.956 -0.5299  0.1908 -0.1512
   22MOL0     O 2807   9.032   8.098   0.950 -0.0922 -0.8819 -0.0847
   22MOL0     C 2808   9.148   8.111   0.857  0.8949 -0.0056  0.8151
   22MOL0     C 2809   9.172   8.000   0.758 -0.3143  0.1525  0.5150
   22MOL0     C 2810   9.199   7.873   0.841 -0.2011  0.5204 -0.0915
   22MOL0     C 2811   9.224   7.746   0.750  1.6872 -0.2939  0.2590
   22MOL0     C 2812   9.368   7.699   0.749 -0.0697  0.1361  0.2424
   22MOL0     C 2813   9.406   7.617   0.879 -0.3744 -0.2421  0.0531
   22MOL0     C 2814   9.327   7.493   0.884 -0.5618 -0.1359  0.1216
   22MOL0     C 2815   9.388   7.386   0.966  0.1509 -0.0913  0.8622
   22MOL0    Cl 2816   9.535   7.315   0.886  0.0274 -0.1795 -0.1406
   22MOL0     C 2817   8.887   8.262   0.843 -0.2041 -0.2217  0.4088
   22MOL0     C 2818   8.788   8.364   0.863 -0.7665  0.6495 -0.6847
   22MOL0     O 2819   8.504   8.450   0.849 -1.0715  0.3254  0.0060
   22MOL0     C 2820   8.363   8.671   0.930  0.2059 -0.2540 -0.2470
   22MOL0     C 2821   8.290   8.788   0.979  0.3991 -0.7157  0.1462
   22MOL0     N 2822   7.797   9.196   1.279  0.0382 -0.1013  0.5282
   22MOL0     N 2823   7.743   9.196   1.393  0.7128  0.6730 -0.1401
   22MOL0     C 2824   6.751   8.761   1.813  0.6445 -0.3214 -0.3146
   22MOL0     C 2825   6.636   8.693   1.830 -0.1865  0.1671 -0.8999
   22MOL0     C 2826   6.197   8.608   1.842 -0.4710  0.7008  0.2035
   22MOL0     C 2827   6.175   8.542   1.969 -0.1642  0.2440  1.2169
   22MOL0     C 2828   6.057   8.470   1.993 -0.1877  0.6835 -0.7314
   22MOL0     C 2829   5.962   8.461   1.891  0.6661 -1.1027 -0.0166
   22MOL0     O 2830   5.853   8.383   1.900  0.8436 -0.2531  0.0356
   22MOL0     C 2831   5.822   8.296   2.007 -0.0965 -0.1154  0.5431
   22MOL0     C 2832   5.693   8.197   1.967 -0.2768 -0.5927  0.0778
   22MOL0     C 2833   5.715   8.141   1.822 -0.7962  0.3925  0.3466
   22MOL0     C 2834   5.592   8.069   1.766 -0.7517 -0.4267 -0.5483
   22MOL0     C 2835   5.498   8.147   1.694 -0.4557 -0.8843  0.5780
   22MOL0     C 2836   5.410   8.224   1.656 -0.1519 -0.0599 -0.1000
   22MOL0     C 2837   5.982   8.526   1.769  0.1207 -0.4037  0.0459
   22MOL0     C 2838   6.102   8.592   1.745  0.2590  0.6430  0.7995
   22MOL0     H 2839   6.430   8.930   1.954 -1.2326 -1.2375 -1.6717
   22MOL0     H 2840   6.647   9.077   1.888  0.4294 -0.1934  0.3237
   22MOL0     H 2841   6.997   8.885   1.988  1.1354  0.4868 -1.5366
   22MOL0     H 2842   6.863   8.993   2.043  0.0674  0.3110 -0.2035
   22MOL0     H 2843   7.086   9.075   2.078 -1.6099 -0.7251  0.8289
   22MOL0     H 2844   6.989   9.179   1.960 -0.9395 -0.5748 -1.4717
   22MOL0     H 2845   7.092   9.097   1.765  0.0786 -0.2044 -0.0720
   22MOL0     H 2846   7.195   8.981   1.852 -1.7097 -1.1071  3.0877
   22MOL0     H 2847   7.194   9.283   1.877  1.2267  0.7085  2.1878
   22MOL0     H 2848   7.324   9.178   1.947 -2.2431  1.2721  2.2595
   22MOL0     H 2849   7.400   9.296   1.747  2.0737 -0.6786 -3.4896
   22MOL0     H 2850   7.256   9.234   1.662  1.2290 -1.0347 -0.9771
   22MOL0     H 2851   7.357   9.003   1.653  0.6859 -0.4004 -0.5839
   22MOL0     H 2852   7.491   9.057   1.753  1.3595  0.3596 -0.5554
   22MOL0     H 2853   7.429   9.127   1.468 -2.4247 -0.5304  1.6520
   22MOL0     H 2854   7.519   9.242   1.570  2.9225 -1.1260  4.7797
   22MOL0     H 2855   7.569   8.949   1.536  1.8849 -0.4652 -0.4242
   22MOL0     H 2856   7.687   9.052   1.603  0.7905 -1.5409 -0.4916
   22MOL0     H 2857   7.651   8.911   1.265 -0.1862  0.7968 -0.1184
   22MOL0     H 2858   7.899   9.131   1.047  1.1382 -1.3741 -0.7519
   22MOL0     H 2859   7.749   9.041   1.008 -1.1377  0.5224  0.6552
   22MOL0     H 2860   7.924   8.888   0.992  0.9244 -0.1213  0.2290
   22MOL0     H 2861   7.843   8.841   1.139 -1.3544  0.9966 -0.8863
   22MOL0     H 2862   8.021   8.959   1.265 -0.5847  2.9916 -1.4352
   22MOL0     H 2863   8.053   8.806   1.182 -4.9264 -0.0840 -0.3991
   22MOL0     H 2864   8.137   9.099   1.141  0.0974 -0.1484  0.2411
   22MOL0     H 2865   8.138   8.999   0.993  4.3505  0.8679 -0.7171
   22MOL0     H 2866   8.505   8.882   1.230 -0.2800  0.6028  1.0312
   22MOL0     H 2867   8.623   8.694   1.138  0.2263 -0.4582 -0.4624
   22MOL0     H 2868   8.757   8.357   1.200 -1.6061  0.0127 -0.6355
   22MOL0     H 2869   8.930   8.177   1.173  0.6185 -2.5837 -1.1073
   22MOL0     H 2870   9.236   8.115   0.921 -1.0411  0.2049  3.6226
   22MOL0     H 2871   9.147   8.203   0.798 -2.6807  0.1594  0.8983
   22MOL0     H 2872   9.255   8.024   0.691 -2.7893 -0.0210 -2.8530
   22MOL0     H 2873   9.083   8.000   0.694  0.5579  2.9872 -0.8733
   22MOL0     H 2874   9.102   7.863   0.890 -0.5769 -0.1838 -0.9491
   22MOL0     H 2875   9.284   7.871   0.910  0.5996 -3.0323 -0.9890
   22MOL0     H 2876   9.150   7.668   0.764  0.4629  0.8374  0.2967
   22MOL0     H 2877   9.181   7.770   0.652 -1.3976  1.2036  1.8345
   22MOL0     H 2878   9.441   7.781   0.748 -0.6059  0.6532 -1.8578
   22MOL0     H 2879   9.384   7.650   0.652 -1.7516  2.6211 -1.4022
   22MOL0     H 2880   9.401   7.671   0.974  2.2427  0.7506 -0.2638
   22MOL0     H 2881   9.509   7.582   0.867 -0.1054 -0.0407  1.6241
   22MOL0     H 2882   9.233   7.527   0.928 -0.7458 -1.5465  0.9051
   22MOL0     H 2883   9.314   7.453   0.783 -3.7721 -1.6290  0.9971
   22MOL0     H 2884   9.316   7.304   0.978 -3.7101  2.2101 -3.5149
   22MOL0     H 2885   9.414   7.424   1.066  1.2422  0.1576  0.4946
   22MOL0     H 2886   8.904   8.246   0.737  0.1718 -2.5364  0.7712
   22MOL0     H 2887   8.740   8.411   0.778 -2.3579 -1.2035 -0.8836
   22MOL0     H 2888   8.338   8.620   0.837  0.2415 -0.6912 -0.0179
   22MOL0     H 2889   8.192   8.803   0.935  0.5033  0.6468  0.3107
   22MOL0     H 2890   6.834   8.720   1.756  1.7776  0.6241  0.5765
   22MOL0     H 2891   6.636   8.588   1.801 -1.9070 -0.3972  0.8699
   22MOL0     H 2892   6.239   8.548   2.057  1.1544 -2.4822  0.5423
   22MOL0     H 2893   6.047   8.432   2.095  0.7324  0.9587 -0.5238
   22MOL0     H 2894   5.794   8.348   2.100  2.5988 -2.3040  2.7685
   22MOL0     H 2895   5.914   8.242   2.030 -1.0455 -2.4427 -0.7785
   22MOL0     H 2896   5.696   8.111   2.035 -0.2433 -0.5359  0.1471
   22MOL0     H 2897   5.603   8.259   1.975 -0.9860 -1.6646  0.6438
   22MOL0     H 2898   5.795   8.066   1.831  1.1155  2.1366 -1.2254
   22MOL0     H 2899   5.754   8.208   1.746  0.0087 -0.9945 -0.5067
   22MOL0     H 2900   5.627   7.998   1.690 -1.2702  0.5184 -1.7001
   22MOL0     H 2901   5.549   8.020   1.853  2.0520 -1.0936  0.5995
   22MOL0     H 2902   5.337   8.295   1.622 -0.5312  0.3126  1.4501
   22MOL0     H 2903   5.913   8.518   1.686  2.3523  0.2475 -1.9809
   22MOL0     H 2904   6.110   8.634   1.646  0.9606  1.4327  1.1779
   23MOL0     O 2905   6.372   9.242   7.156 -0.1583 -0.4154 -0.7564
   23MOL0     C 2906   6.445   9.338   7.166 -0.1062 -0.2053  0.0620
   23MOL0     O 2907   6.487   9.421   7.057  0.2754  0.6508 -0.1961
   23MOL0     C 2908   6.441   9.378   6.929 -0.0856 -0.1731 -0.0603
   23MOL0     C 2909   6.539   9.378   6.825 -0.9764 -0.4157 -0.0104
   23MOL0     C 2910   6.519   9.326   6.697  0.0721 -0.4007  0.1316
   23MOL0     C 2911   6.390   9.284   6.670  0.9456  0.2765  0.7468
   23MOL0     O 2912   6.360   9.259   6.538  0.2700 -0.3413  0.3298
   23MOL0     C 2913   6.302   9.129   6.517 -0.2630 -0.1265  0.3047
   23MOL0     C 2914   6.279   9.108   6.362  0.5501 -0.5102  0.4989
   23MOL0     C 2915   6.178   9.201   6.293  0.1879  0.5945  0.1316
   23MOL0     C 2916   6.035   9.198   6.355 -0.4648 -0.1040  0.0745
   23MOL0     C 2917   5.951   9.310   6.311  1.2099 -0.1101  0.6550
   23MOL0     C 2918   5.937   9.315   6.155 -0.6761 -0.0633  0.2929
   23MOL0     C 2919   5.822   9.412   6.121 -0.0793  0.2863  0.5352
   23MOL0     C 2920   5.706   9.356   6.050  0.2648  0.1387  0.9203
   23MOL0     N 2921   5.611   9.462   6.026 -0.4492 -0.2688 -0.2541
   23MOL0     C 2922   5.523   9.462   5.922  0.0817  0.4411 -1.1501
   23MOL0     C 2923   5.464   9.581   5.927 -1.0402 -0.4628  0.2539
   23MOL0     C 2924   5.377   9.629   5.819  0.3443  0.0306 -0.7184
   23MOL0     C 2925   5.234   9.583   5.837 -0.6569  1.2512 -0.0233
   23MOL0     C 2926   5.127   9.697   5.805 -0.1440  0.0008  0.4308
   23MOL0     C 2927   4.987   9.637   5.819  0.0799  0.1559 -0.2400
   23MOL0     O 2928   4.878   9.728   5.813 -0.9097 -0.9591 -0.6848
   23MOL0     C 2929   4.852   9.798   5.699  0.0186 -0.5323 -0.2815
   23MOL0     C 2930   4.795   9.740   5.588 -1.1351 -0.1015  0.2818
   23MOL0     C 2931   4.791   9.811   5.460 -0.4669 -0.2117  0.5764
   23MOL0     C 2932   4.838   9.942   5.445  0.2778 -0.0609 -0.5094
   23MOL0     C 2933   4.805  10.031   5.325 -0.1053  0.6467 -0.8530
   23MOL0     O 2934   4.868  10.152   5.311  0.5547 -0.7699 -0.0237
   23MOL0     C 2935   4.812  10.257   5.250 -0.7217  0.3754 -0.1133
   23MOL0     C 2936   4.893  10.335   5.167 -0.5036 -0.1291  0.1797
   23MOL0     C 2937   4.837  10.430   5.083 -0.6051 -0.0643 -0.2951
   23MOL0     C 2938   4.703  10.469   5.096 -0.8855  0.0905  0.1194
   23MOL0     O 2939   4.664  10.569   5.018 -0.1331 -0.6966  0.1964
   23MOL0     C 2940   4.532  10.602   5.017  0.4251 -0.4755 -0.0616
   23MOL0     C 2941   4.502  10.701   4.902  0.4872  0.1290 -0.5918
   23MOL0     C 2942   4.516  10.845   4.945 -0.0935 -0.3567 -0.2071
   23MOL0     C 2943   4.495  10.931   4.817 -0.3122  1.4319 -0.5384
   23MOL0     C 2944   4.548  11.073   4.836  0.1886 -0.2102 -0.2323
   23MOL0     C 2945   4.501  11.150   4.967 -1.2126 -2.0238 -0.4637
   23MOL0     C 2946   4.552  11.294   4.949  0.7214 -0.7566  0.1667
   23MOL0     C 2947   4.474  11.375   5.050  1.4665 -0.4283  0.5408
   23MOL0    Cl 2948   4.529  11.538   5.047 -0.0924 -0.3647  0.1041
   23MOL0     C 2949   4.617  10.394   5.183  0.0633 -0.0043 -0.5703
   23MOL0     C 2950   4.675  10.285   5.262  0.8264  0.9288 -0.0646
   23MOL0     O 2951   4.711   9.993   5.260  0.5076 -0.4190 -0.5729
   23MOL0     C 2952   4.891   9.992   5.561 -0.1065 -0.2298 -0.1482
   23MOL0     C 2953   4.901   9.928   5.683  0.8603  1.1743  0.0577
   23MOL0     N 2954   5.502   9.647   6.039  0.2580 -0.6909 -0.1579
   23MOL0     N 2955   5.586   9.571   6.105  0.3680  0.7919  0.0520
   23MOL0     C 2956   6.287   9.291   6.768 -1.4668 -0.5570 -0.4402
   23MOL0     C 2957   6.319   9.325   6.899 -0.4282 -0.5042  0.3962
   23MOL0     C 2958   6.492   9.374   7.300 -0.1390 -0.5903  0.0084
   23MOL0     C 2959   6.455   9.308   7.421 -0.3807  0.1251 -1.0094
   23MOL0     C 2960   6.521   9.345   7.546 -0.4624  0.8287 -0.3422
   23MOL0     C 2961   6.598   9.458   7.555  0.1695 -0.3208 -0.2576
   23MOL0     O 2962   6.644   9.493   7.683  0.4375  0.2933 -0.3656
   23MOL0     C 2963   6.679   9.633   7.694 -1.0402 -0.4505  0.1745
   23MOL0     C 2964   6.721   9.638   7.843 -0.2666 -0.3503  0.4985
   23MOL0     C 2965   6.772   9.774   7.883  0.1058  0.2283  0.3838
   23MOL0     C 2966   6.709   9.812   8.008  0.3764 -1.6991 -0.8785
   23MOL0     C 2967   6.793   9.925   8.069  0.5768 -0.4123  0.6414
   23MOL0     C 2968   6.852  10.025   8.089 -0.0325 -0.6191  0.6523
   23MOL0     C 2969   6.627   9.532   7.443 -0.2291  0.3314 -0.6916
   23MOL0     C 2970   6.582   9.483   7.320  0.2636  0.3400  1.2644
   23MOL0     H 2971   6.632   9.430   6.847  1.1611 -3.1387 -1.9117
   23MOL0     H 2972   6.600   9.324   6.626  1.4750 -2.3911  1.6890
   23MOL0     H 2973   6.205   9.113   6.566  0.5606 -1.3303  1.5919
   23MOL0     H 2974   6.380   9.069   6.563  0.8322 -0.0917 -1.4400
   23MOL0     H 2975   6.249   9.003   6.353  2.2202 -1.1883  2.2466
   23MOL0     H 2976   6.376   9.126   6.316 -1.7545  2.9256 -3.8237
   23MOL0     H 2977   6.172   9.183   6.186 -0.3275  0.8199  0.1213
   23MOL0     H 2978   6.222   9.301   6.306 -0.6395  1.2006 -1.4817
   23MOL0     H 2979   5.987   9.105   6.322  0.6661 -0.0974 -1.7272
   23MOL0     H 2980   6.044   9.216   6.462  0.5316  2.0625 -0.3291
   23MOL0     H 2981   6.000   9.407   6.320 -0.4997  0.7408  1.3098
   23MOL0     H 2982   5.852   9.318   6.359 -0.3312 -0.1803 -2.2943
   23MOL0     H 2983   5.907   9.211   6.134 -0.1453 -0.6968  2.3930
   23MOL0     H 2984   6.026   9.344   6.099 -0.4441 -0.6620  0.3410
   23MOL0     H 2985   5.801   9.474   6.209  1.2497  0.1331  0.9788
   23MOL0     H 2986   5.872   9.480   6.052 -2.7163  0.7353 -1.0608
   23MOL0     H 2987   5.660   9.282   6.115 -2.1284 -1.9363 -2.7867
   23MOL0     H 2988   5.734   9.294   5.964  1.0771 -1.7298  2.4587
   23MOL0     H 2989   5.513   9.391   5.841 -3.5097 -0.8508  0.2014
   23MOL0     H 2990   5.402   9.597   5.718  0.4765 -2.7498  0.1004
   23MOL0     H 2991   5.382   9.738   5.820 -1.5408  0.4314  5.1756
   23MOL0     H 2992   5.224   9.548   5.941  1.7873 -0.4392 -0.2797
   23MOL0     H 2993   5.225   9.499   5.768 -0.9232  0.5360  0.8495
   23MOL0     H 2994   5.144   9.790   5.860  4.7646 -1.1349  1.2705
   23MOL0     H 2995   5.151   9.730   5.704  0.2341  1.8339  1.0938
   23MOL0     H 2996   4.963   9.583   5.912  0.7724  0.9602  0.4234
   23MOL0     H 2997   4.966   9.575   5.731 -0.7024  2.6575 -1.9158
   23MOL0     H 2998   4.765   9.637   5.601  1.9053 -0.8328  2.6252
   23MOL0     H 2999   4.746   9.781   5.366  0.6948 -0.2625  0.0189
   23MOL0     H 3000   4.998  10.307   5.160 -0.2603  0.8847 -0.4509
   23MOL0     H 3001   4.901  10.483   5.013 -1.5442  2.2222  0.4875
   23MOL0     H 3002   4.505  10.640   5.116  0.6264 -1.1251  0.2521
   23MOL0     H 3003   4.478  10.510   4.991 -0.1514 -0.7943  2.0216
   23MOL0     H 3004   4.402  10.676   4.864 -0.7421  0.6992  2.0787
   23MOL0     H 3005   4.570  10.677   4.820  0.2042 -2.0974 -0.2273
   23MOL0     H 3006   4.612  10.859   4.995 -2.0285  2.0722  3.2677
   23MOL0     H 3007   4.444  10.866   5.025  2.9140  2.4709  2.0197
   23MOL0     H 3008   4.551  10.883   4.737 -1.1569 -0.1222 -0.2397
   23MOL0     H 3009   4.390  10.921   4.786 -0.3039 -0.5222 -0.0721
   23MOL0     H 3010   4.514  11.133   4.752  1.5102 -1.3345 -1.6322
   23MOL0     H 3011   4.656  11.056   4.836 -0.0230 -1.9363  1.7539
   23MOL0     H 3012   4.553  11.099   5.049  0.2312 -1.1120 -0.7846
   23MOL0     H 3013   4.392  11.161   4.971 -0.9891  0.8823 -0.1765
   23MOL0     H 3014   4.660  11.296   4.965  1.0736  1.3314 -1.8875
   23MOL0     H 3015   4.528  11.331   4.849 -0.8338 -2.9165 -0.3269
   23MOL0     H 3016   4.484  11.340   5.154 -4.0970  1.0592  1.9258
   23MOL0     H 3017   4.368  11.373   5.025  1.4026  0.2217  0.7545
   23MOL0     H 3018   4.513  10.419   5.197 -0.2334 -1.2789 -0.3686
   23MOL0     H 3019   4.609  10.226   5.324 -1.6852  3.2454 -0.3642
   23MOL0     H 3020   4.916  10.098   5.562 -1.8254  0.2018 -0.1042
   23MOL0     H 3021   4.949   9.977   5.768  0.5849 -0.1443  1.0102
   23MOL0     H 3022   6.185   9.258   6.752 -1.4493 -1.0834  0.4552
   23MOL0     H 3023   6.244   9.327   6.978 -1.3394  3.5320 -0.3759
   23MOL0     H 3024   6.398   9.216   7.412 -1.4040  0.7532 -1.0351
   23MOL0     H 3025   6.522   9.282   7.635  1.4113  4.5550  2.5789
   23MOL0     H 3026   6.597   9.703   7.676 -1.6674 -0.6373  2.1036
   23MOL0     H 3027   6.766   9.662   7.635 -0.2841 -1.1899  0.8984
   23MOL0     H 3028   6.628   9.614   7.895 -0.7758 -0.2590 -0.3385
   23MOL0     H 3029   6.806   9.571   7.860  0.8696  1.0188  0.4023
   23MOL0     H 3030   6.766   9.840   7.796  4.4060 -0.7261 -0.8535
   23MOL0     H 3031   6.880   9.764   7.898  0.2520  3.1691  2.1454
   23MOL0     H 3032   6.602   9.828   7.993  0.8627  0.6635 -2.3153
   23MOL0     H 3033   6.721   9.733   8.083 -1.8220 -0.9765  0.3100
   23MOL0     H 3034   6.893  10.122   8.110  1.2771 -1.2356  1.1186
   23MOL0     H 3035   6.700   9.613   7.447 -0.7285  0.7869  3.8396
   23MOL0     H 3036   6.616   9.535   7.231 -3.4936  0.1544 -0.5038
   24MOL0     O 3037   4.933   0.341   3.473 -0.7130 -0.4399  0.4934
   24MOL0     C 3038   5.040   0.344   3.528  0.1033  0.1632 -0.8073
   24MOL0     O 3039   5.136   0.250   3.545  0.2889  0.8553  0.6139
   24MOL0     C 3040   5.120   0.129   3.478  0.9346  0.0036 -0.4957
   24MOL0     C 3041   5.239   0.073   3.421  0.3858 -1.2008 -0.5298
   24MOL0     C 3042   5.238  -0.060   3.368 -0.5261 -0.3332  0.1574
   24MOL0     C 3043   5.129  -0.145   3.385 -0.1405  0.6779  0.4515
   24MOL0     O 3044   5.120  -0.280   3.357 -0.4390  0.0802  0.1443
   24MOL0     C 3045   5.216  -0.356   3.286  0.0455 -0.5687  0.6438
   24MOL0     C 3046   5.149  -0.486   3.226  0.4114 -0.5602 -0.3779
   24MOL0     C 3047   5.045  -0.552   3.327  0.1936 -0.1785  0.3575
   24MOL0     C 3048   4.975  -0.674   3.259  0.1991 -0.7204  0.3084
   24MOL0     C 3049   4.898  -0.764   3.358 -0.0862  0.4451  0.4098
   24MOL0     C 3050   4.828  -0.877   3.271  0.5837 -0.8624  0.6256
   24MOL0     C 3051   4.772  -0.988   3.361  0.8238  0.6234 -0.6356
   24MOL0     C 3052   4.672  -1.061   3.288  0.4639  0.4489  0.1425
   24MOL0     N 3053   4.597  -1.170   3.356  0.0112 -0.4929 -0.7256
   24MOL0     C 3054   4.634  -1.301   3.386  0.2194  0.2161  0.6590
   24MOL0     C 3055   4.518  -1.365   3.409 -0.6963  0.7990  0.2846
   24MOL0     C 3056   4.502  -1.507   3.472 -0.0007  0.2444 -0.0311
   24MOL0     C 3057   4.574  -1.536   3.614  0.8496  0.0301  0.3320
   24MOL0     C 3058   4.503  -1.476   3.737 -0.9437 -0.0902  0.1458
   24MOL0     C 3059   4.528  -1.326   3.746 -0.5736 -0.4154  0.0001
   24MOL0     O 3060   4.667  -1.291   3.747  0.3340  0.0918  0.1967
   24MOL0     C 3061   4.717  -1.164   3.757  0.1855  0.8902 -0.1136
   24MOL0     C 3062   4.635  -1.055   3.774 -0.2644  0.1659  0.6814
   24MOL0     C 3063   4.684  -0.920   3.765  0.2953  0.2908 -0.0789
   24MOL0     C 3064   4.820  -0.899   3.740  0.1265  0.1932 -0.0356
   24MOL0     C 3065   4.866  -0.759   3.732 -0.1746 -0.0692 -0.1932
   24MOL0     O 3066   4.773  -0.659   3.735 -0.1548  0.1233  0.5833
   24MOL0     C 3067   4.800  -0.523   3.740  0.5246  0.5935 -0.0848
   24MOL0     C 3068   4.923  -0.456   3.722 -0.1094  0.8316 -0.0435
   24MOL0     C 3069   4.933  -0.316   3.731  0.8923 -0.7862 -0.2683
   24MOL0     C 3070   4.818  -0.239   3.760 -0.7464  0.3788 -0.3482
   24MOL0     O 3071   4.815  -0.105   3.773 -0.2574 -0.0522 -0.5185
   24MOL0     C 3072   4.932  -0.036   3.821 -0.1100  0.5237 -0.0947
   24MOL0     C 3073   4.902   0.080   3.920  0.3676 -0.2208 -0.6164
   24MOL0     C 3074   4.873   0.217   3.861 -0.7077 -0.0346 -0.1664
   24MOL0     C 3075   4.881   0.333   3.964  0.2392  0.1757  1.0239
   24MOL0     C 3076   4.790   0.447   3.916 -0.0313 -0.0941 -0.7104
   24MOL0     C 3077   4.805   0.566   4.012  0.2236 -0.7241 -0.5145
   24MOL0     C 3078   4.918   0.667   3.986 -0.5134 -0.1553 -0.0197
   24MOL0     C 3079   4.913   0.766   4.103 -0.2753  0.3165  0.2217
   24MOL0    Cl 3080   4.996   0.690   4.240 -0.2892  0.4080 -0.3227
   24MOL0     C 3081   4.694  -0.308   3.770 -0.8674 -0.3624 -0.5257
   24MOL0     C 3082   4.681  -0.447   3.765 -0.2087  0.4331 -0.0248
   24MOL0     O 3083   4.987  -0.741   3.714 -0.1927 -0.1571  0.2388
   24MOL0     C 3084   4.906  -1.014   3.738 -0.7360 -0.3805 -0.1288
   24MOL0     C 3085   4.851  -1.143   3.751  0.1505 -0.0036 -0.2271
   24MOL0     N 3086   4.413  -1.286   3.385 -0.4571 -0.2240  0.2210
   24MOL0     N 3087   4.459  -1.172   3.366 -1.1709 -1.0727  0.4401
   24MOL0     C 3088   5.010  -0.094   3.447  0.6927  0.2367 -0.1705
   24MOL0     C 3089   4.998   0.044   3.475 -0.5615  0.4843 -0.2256
   24MOL0     C 3090   5.078   0.470   3.601 -0.0173 -0.0077 -1.1916
   24MOL0     C 3091   5.034   0.594   3.546 -0.8381 -0.0986  1.0226
   24MOL0     C 3092   5.093   0.714   3.594 -0.5126  0.4556 -0.2504
   24MOL0     C 3093   5.185   0.722   3.699 -1.9694 -0.2190 -0.0369
   24MOL0     O 3094   5.232   0.835   3.763  1.1873 -0.2712 -0.7318
   24MOL0     C 3095   5.364   0.840   3.828  0.6420  0.2226 -0.0039
   24MOL0     C 3096   5.414   0.989   3.806 -0.3474 -0.0552  0.8176
   24MOL0     C 3097   5.338   1.084   3.913 -0.5664 -0.6678  0.3854
   24MOL0     C 3098   5.335   1.226   3.860  0.4165 -0.4246  0.8996
   24MOL0     C 3099   5.296   1.320   3.969 -0.7784  0.3158  0.0759
   24MOL0     C 3100   5.244   1.381   4.062  0.2041  0.1982  0.2342
   24MOL0     C 3101   5.225   0.599   3.757  0.2223  0.7793  0.1044
   24MOL0     C 3102   5.169   0.473   3.721 -0.2418  0.7292  0.6338
   24MOL0     H 3103   5.324   0.140   3.422 -0.5740  0.0914  1.7089
   24MOL0     H 3104   5.332  -0.081   3.318  0.7867  1.3922  1.7938
   24MOL0     H 3105   5.299  -0.383   3.351  0.5159  0.5900  0.5443
   24MOL0     H 3106   5.253  -0.295   3.203  2.2882 -2.4366  0.2022
   24MOL0     H 3107   5.228  -0.553   3.192  1.0333  0.0343 -0.1427
   24MOL0     H 3108   5.092  -0.460   3.137  0.5422 -1.0060 -0.5914
   24MOL0     H 3109   4.971  -0.479   3.362  2.2381  2.3382 -0.2351
   24MOL0     H 3110   5.081  -0.596   3.421 -1.8733 -0.0926  1.2396
   24MOL0     H 3111   4.908  -0.625   3.188  0.6462  1.0665  1.0671
   24MOL0     H 3112   5.044  -0.735   3.201  1.1535  1.7940 -1.3972
   24MOL0     H 3113   4.831  -0.700   3.417  1.5700  1.6276  1.0701
   24MOL0     H 3114   4.975  -0.801   3.426 -0.6603 -0.3821  0.6262
   24MOL0     H 3115   4.904  -0.918   3.205  1.1955  0.2727  0.5988
   24MOL0     H 3116   4.751  -0.843   3.201  0.7009 -3.8696 -1.1263
   24MOL0     H 3117   4.854  -1.060   3.366  0.4707  0.2798  0.3443
   24MOL0     H 3118   4.745  -0.955   3.461  1.9162 -2.8344  0.9795
   24MOL0     H 3119   4.716  -1.106   3.198  4.9571  1.8602  1.3715
   24MOL0     H 3120   4.599  -0.983   3.264 -1.3732 -1.0873  0.4643
   24MOL0     H 3121   4.732  -1.344   3.400 -0.3217 -2.1075 -1.8439
   24MOL0     H 3122   4.533  -1.582   3.398 -1.0505  1.0801 -1.3700
   24MOL0     H 3123   4.396  -1.522   3.490 -0.7998  2.3354 -2.3171
   24MOL0     H 3124   4.679  -1.504   3.611  2.3375 -4.2894 -0.1279
   24MOL0     H 3125   4.574  -1.645   3.624 -1.4764  0.1300  2.7859
   24MOL0     H 3126   4.397  -1.504   3.740 -1.2231  0.7548 -0.9811
   24MOL0     H 3127   4.546  -1.518   3.828  2.1471 -0.0609 -1.1648
   24MOL0     H 3128   4.488  -1.297   3.843  2.5499  2.9333  0.5247
   24MOL0     H 3129   4.476  -1.280   3.661  1.6778  1.3792 -0.5255
   24MOL0     H 3130   4.539  -1.080   3.818  0.0284  2.5769  2.9942
   24MOL0     H 3131   4.622  -0.833   3.787 -1.7292 -1.2857  0.7697
   24MOL0     H 3132   5.003  -0.519   3.684 -0.6725  2.4505 -4.4465
   24MOL0     H 3133   5.032  -0.270   3.733  0.6851 -0.3261  1.4066
   24MOL0     H 3134   4.989  -0.008   3.732 -0.0366 -0.0334 -0.2306
   24MOL0     H 3135   4.985  -0.110   3.882 -1.3118 -1.0658 -0.9021
   24MOL0     H 3136   4.978   0.092   3.998 -1.1524  0.3988  0.8302
   24MOL0     H 3137   4.814   0.042   3.973 -0.1080  3.0926  1.2560
   24MOL0     H 3138   4.779   0.211   3.805 -0.4965 -1.1959 -0.4123
   24MOL0     H 3139   4.946   0.251   3.787 -3.4500 -0.1304 -3.1431
   24MOL0     H 3140   4.860   0.296   4.065  2.0436 -3.7957  0.1425
   24MOL0     H 3141   4.981   0.375   3.975  0.0387  1.7135 -2.0695
   24MOL0     H 3142   4.684   0.420   3.919 -0.3801  1.1495  3.1918
   24MOL0     H 3143   4.814   0.499   3.823  0.6280  3.7970  1.4577
   24MOL0     H 3144   4.796   0.542   4.119 -0.6446 -0.5578 -0.5377
   24MOL0     H 3145   4.708   0.610   3.986  0.0112 -1.2526 -0.6347
   24MOL0     H 3146   5.013   0.614   3.993 -1.4123 -1.7353  0.9651
   24MOL0     H 3147   4.913   0.716   3.888 -2.1399 -2.0339 -0.9582
   24MOL0     H 3148   4.811   0.796   4.130  0.3459 -0.0842  3.4171
   24MOL0     H 3149   4.966   0.858   4.075 -2.5385  1.1816 -1.5523
   24MOL0     H 3150   4.595  -0.266   3.782 -1.0075 -1.1997  1.6323
   24MOL0     H 3151   4.578  -0.480   3.770  0.0042 -0.1084  1.5728
   24MOL0     H 3152   5.010  -1.003   3.708 -0.1490 -1.3394  1.4293
   24MOL0     H 3153   4.906  -1.231   3.719 -1.0253 -0.9224  0.2363
   24MOL0     H 3154   4.937  -0.172   3.463  2.0874 -1.0596  0.1951
   24MOL0     H 3155   4.903   0.074   3.516 -0.5008 -0.7574  0.9022
   24MOL0     H 3156   4.970   0.606   3.459 -0.4488  1.9525  0.9644
   24MOL0     H 3157   5.069   0.812   3.553 -0.0395  1.5989  2.0430
   24MOL0     H 3158   5.442   0.782   3.777  2.1581 -0.7560  3.1889
   24MOL0     H 3159   5.353   0.809   3.932  0.2205 -4.8714 -1.2949
   24MOL0     H 3160   5.517   1.010   3.835 -1.0224  2.4790  1.6721
   24MOL0     H 3161   5.398   1.027   3.704  2.1720 -0.9626  0.0271
   24MOL0     H 3162   5.393   1.101   4.006  0.1625  2.1089 -0.4678
   24MOL0     H 3163   5.238   1.042   3.929  0.4017 -2.7676  1.2419
   24MOL0     H 3164   5.430   1.264   3.821  0.5380 -1.5737  0.0162
   24MOL0     H 3165   5.263   1.250   3.782  1.5903 -0.8612 -0.3663
   24MOL0     H 3166   5.192   1.439   4.135 -1.0271  0.2694 -0.6845
   24MOL0     H 3167   5.292   0.596   3.843  1.9948 -1.5958 -1.2322
   24MOL0     H 3168   5.203   0.379   3.765 -1.6632 -1.1153 -1.9127
   25MOL0     O 3169   8.653  11.049  10.473  0.3895  0.5018 -0.2875
   25MOL0     C 3170   8.688  10.981  10.376  0.7957 -0.8379 -1.1748
   25MOL0     O 3171   8.597  10.911  10.298  0.0057  0.0582 -0.2100
   25MOL0     C 3172   8.466  10.953  10.310  0.3630  0.1175 -0.3170
   25MOL0     C 3173   8.375  10.873  10.358  0.2360 -0.0247 -0.5074
   25MOL0     C 3174   8.239  10.917  10.378 -0.3564 -0.1458  0.9464
   25MOL0     C 3175   8.191  11.038  10.324 -0.1517 -0.7439 -0.3542
   25MOL0     O 3176   8.060  11.071  10.321 -0.2728 -0.7065 -0.0976
   25MOL0     C 3177   8.018  11.209  10.319  0.6701 -0.3775 -0.3714
   25MOL0     C 3178   7.865  11.198  10.375 -0.3845 -0.2242 -0.0292
   25MOL0     C 3179   7.799  11.328  10.406 -0.1866 -0.1140  0.1122
   25MOL0     C 3180   7.660  11.296  10.463 -0.0751 -0.4456 -0.1718
   25MOL0     C 3181   7.604  11.417  10.539  0.7901 -1.1630  0.2087
   25MOL0     C 3182   7.588  11.540  10.453 -0.2038 -0.4269  0.3243
   25MOL0     C 3183   7.540  11.659  10.529  0.0809  0.2359  0.7349
   25MOL0     C 3184   7.494  11.777  10.433 -0.2785  0.5146 -0.5546
   25MOL0     N 3185   7.588  11.788  10.318  0.9009 -1.3120  0.3960
   25MOL0     C 3186   7.560  11.773  10.184  0.8697  1.2376 -0.5384
   25MOL0     C 3187   7.658  11.833  10.116 -0.3361  0.1259  1.1312
   25MOL0     C 3188   7.629  11.876   9.971 -0.0993  0.1623 -0.4447
   25MOL0     C 3189   7.749  11.912   9.885 -0.1084 -0.6225  0.2676
   25MOL0     C 3190   7.710  11.980   9.749 -0.4501  0.2727 -0.6691
   25MOL0     C 3191   7.832  12.020   9.658  0.4073  0.2776  0.3944
   25MOL0     O 3192   7.935  11.914   9.665  0.5595 -0.2790  0.5143
   25MOL0     C 3193   8.065  11.948   9.686  0.2779  0.1762  0.4994
   25MOL0     C 3194   8.120  12.073   9.644 -0.9968  0.8574  0.7119
   25MOL0     C 3195   8.248  12.108   9.673 -0.6640 -0.1076  0.0469
   25MOL0     C 3196   8.336  12.015   9.734 -0.2959  0.4154  0.0901
   25MOL0     C 3197   8.476  12.055   9.765  1.4482 -0.4217  0.0399
   25MOL0     O 3198   8.508  12.176   9.719 -0.9063  0.1250 -0.1745
   25MOL0     C 3199   8.600  12.262   9.784  0.2175 -0.2275 -0.1667
   25MOL0     C 3200   8.625  12.373   9.702  0.2013 -0.6251  0.3200
   25MOL0     C 3201   8.713  12.471   9.743 -0.4844 -0.7428 -0.3721
   25MOL0     C 3202   8.777  12.460   9.875  0.7271 -0.5032  0.0821
   25MOL0     O 3203   8.856  12.556   9.924 -0.1825 -1.3995 -0.5147
   25MOL0     C 3204   8.954  12.614   9.841  0.2366 -0.0550  0.1217
   25MOL0     C 3205   9.001  12.749   9.902 -0.2175  0.0038 -0.6914
   25MOL0     C 3206   9.080  12.842   9.810 -0.5567  0.6643 -0.5454
   25MOL0     C 3207   9.022  12.875   9.674  0.2934 -0.0945  0.2972
   25MOL0     C 3208   9.094  13.001   9.601  0.1000  0.5626 -0.3285
   25MOL0     C 3209   9.224  12.970   9.519  0.2274  0.5086  0.8226
   25MOL0     C 3210   9.294  13.103   9.487  0.4328  0.4817  0.6900
   25MOL0     C 3211   9.209  13.215   9.425  0.1542  0.1918  0.1201
   25MOL0    Cl 3212   9.127  13.158   9.284 -0.1525  0.3222  0.0623
   25MOL0     C 3213   8.737  12.357   9.961  0.0489  0.5077  0.0220
   25MOL0     C 3214   8.647  12.262   9.918  0.3108 -0.0673  0.1531
   25MOL0     O 3215   8.549  11.985   9.829 -0.0480  0.1418  0.9011
   25MOL0     C 3216   8.292  11.884   9.758  0.3310 -1.1440 -0.7613
   25MOL0     C 3217   8.161  11.853   9.733 -0.6624  0.4121  0.8219
   25MOL0     N 3218   7.750  11.885  10.210 -0.6241  0.3749  0.6446
   25MOL0     N 3219   7.709  11.852  10.330 -0.7157  0.3771  0.0669
   25MOL0     C 3220   8.286  11.106  10.250  0.4282 -1.3409 -0.3872
   25MOL0     C 3221   8.413  11.066  10.247 -0.5663 -0.8410  1.1201
   25MOL0     C 3222   8.827  10.947  10.365 -0.0656 -0.0448 -0.4679
   25MOL0     C 3223   8.863  10.835  10.287 -0.3520 -0.6042  0.2785
   25MOL0     C 3224   9.001  10.794  10.269 -0.2029  0.7154  0.6096
   25MOL0     C 3225   9.100  10.881  10.310 -0.5399  0.0562 -0.2924
   25MOL0     O 3226   9.229  10.871  10.273  1.3199 -0.0407  0.8874
   25MOL0     C 3227   9.282  10.756  10.204 -0.3489 -0.1513 -0.1196
   25MOL0     C 3228   9.430  10.776  10.182  0.0906 -0.1209  0.0006
   25MOL0     C 3229   9.527  10.775  10.301 -0.6053 -1.7049  0.4181
   25MOL0     C 3230   9.547  10.632  10.366  1.0499  0.6747 -0.7188
   25MOL0     C 3231   9.624  10.650  10.492  0.0424  0.2845 -0.0330
   25MOL0     C 3232   9.676  10.665  10.594  0.2895  0.7058  0.0154
   25MOL0     C 3233   9.057  10.997  10.390 -0.3258  1.1844 -0.2765
   25MOL0     C 3234   8.924  11.026  10.425 -0.6022  0.6174  0.2785
   25MOL0     H 3235   8.418  10.784  10.401  0.2157  0.3709  0.3479
   25MOL0     H 3236   8.172  10.857  10.438  3.3248 -4.1036  1.5697
   25MOL0     H 3237   8.021  11.257  10.221  0.9851 -3.0486 -1.7882
   25MOL0     H 3238   8.080  11.265  10.390  1.2870  1.4467 -2.2394
   25MOL0     H 3239   7.858  11.141  10.468 -1.5139  0.1025  0.1049
   25MOL0     H 3240   7.814  11.147  10.292 -2.7967 -0.3060  1.4142
   25MOL0     H 3241   7.795  11.392  10.318 -3.2624  3.5236  2.5258
   25MOL0     H 3242   7.845  11.384  10.488 -0.0873 -1.4052  0.9799
   25MOL0     H 3243   7.589  11.250  10.393 -0.1647 -0.2337 -0.2228
   25MOL0     H 3244   7.668  11.216  10.537  3.3217 -1.2818 -1.2437
   25MOL0     H 3245   7.677  11.433  10.619  0.7085 -0.9631  0.2432
   25MOL0     H 3246   7.504  11.400  10.579  0.3686  0.7337  0.0546
   25MOL0     H 3247   7.514  11.523  10.375  0.7670  2.9532 -1.5186
   25MOL0     H 3248   7.689  11.569  10.425  0.6146  0.2819  3.5486
   25MOL0     H 3249   7.472  11.631  10.609  0.4885  0.8170  1.2931
   25MOL0     H 3250   7.631  11.693  10.579  2.0891 -3.5637  0.0291
   25MOL0     H 3251   7.483  11.875  10.479 -1.4906  1.3200 -2.4099
   25MOL0     H 3252   7.391  11.758  10.400  0.2322 -3.8587 -0.2221
   25MOL0     H 3253   7.466  11.744  10.139 -0.7385  0.3079  3.0744
   25MOL0     H 3254   7.547  11.949   9.971 -0.1307  0.1318  0.2628
   25MOL0     H 3255   7.574  11.794   9.922 -3.0881  0.7563  1.6467
   25MOL0     H 3256   7.812  11.825   9.864  0.1115 -0.1322 -1.3016
   25MOL0     H 3257   7.808  11.986   9.940  0.9268 -0.1424 -1.3931
   25MOL0     H 3258   7.655  11.908   9.688 -2.2866  0.7896  0.2791
   25MOL0     H 3259   7.639  12.063   9.759 -0.6039  0.3102 -1.9545
   25MOL0     H 3260   7.861  12.123   9.676 -0.4813  0.0968  3.3355
   25MOL0     H 3261   7.796  12.013   9.555 -2.3552 -1.7899  1.3436
   25MOL0     H 3262   8.059  12.145   9.591 -0.8951  0.2154 -0.3164
   25MOL0     H 3263   8.285  12.207   9.648  0.6998 -0.5917  0.0311
   25MOL0     H 3264   8.587  12.365   9.601  0.3643 -2.3984  0.3606
   25MOL0     H 3265   8.752  12.542   9.671 -0.1994 -0.9517 -0.4294
   25MOL0     H 3266   8.908  12.643   9.746 -2.0653 -0.7804  0.9317
   25MOL0     H 3267   9.034  12.541   9.827  0.9628  0.6442  0.5415
   25MOL0     H 3268   9.051  12.720   9.995  0.8931 -2.1059 -1.8490
   25MOL0     H 3269   8.915  12.804   9.939 -1.6485 -0.9560 -2.4454
   25MOL0     H 3270   9.176  12.792   9.793 -1.5218 -1.5411  0.0145
   25MOL0     H 3271   9.095  12.933   9.869 -0.9313 -0.6623  1.7477
   25MOL0     H 3272   9.025  12.787   9.609  2.3499  0.9429 -1.1108
   25MOL0     H 3273   8.916  12.897   9.690  0.2852 -1.9956  3.8981
   25MOL0     H 3274   9.121  13.065   9.686  0.7041 -0.9095  0.6321
   25MOL0     H 3275   9.017  13.050   9.541  1.4375  2.8904 -0.2759
   25MOL0     H 3276   9.220  12.906   9.431  3.6505 -0.2743  1.0625
   25MOL0     H 3277   9.290  12.917   9.589 -1.1528 -1.3898  0.7612
   25MOL0     H 3278   9.342  13.136   9.580  1.5660  0.0933  0.2564
   25MOL0     H 3279   9.374  13.071   9.420 -3.0005 -0.1906 -3.5509
   25MOL0     H 3280   9.270  13.300   9.392 -2.2934  1.2781 -1.9264
   25MOL0     H 3281   9.148  13.274   9.493 -1.6746 -0.2207 -1.0842
   25MOL0     H 3282   8.787  12.350  10.057 -0.0436  1.3651  0.1426
   25MOL0     H 3283   8.614  12.190   9.991  1.4031 -2.2017 -1.3483
   25MOL0     H 3284   8.352  11.809   9.810  2.1950  0.9043  0.2164
   25MOL0     H 3285   8.129  11.751   9.753 -0.9170  0.3857  0.2930
   25MOL0     H 3286   8.261  11.201  10.205 -1.8101 -1.7634 -0.1998
   25MOL0     H 3287   8.486  11.131  10.200 -1.0356 -2.1090 -1.5577
   25MOL0     H 3288   8.784  10.773  10.245 -1.3463  1.6025 -1.3513
   25MOL0     H 3289   9.017  10.703  10.212  2.8910  1.9977 -0.7518
   25MOL0     H 3290   9.241  10.733  10.105  0.1547 -3.4747  0.3258
   25MOL0     H 3291   9.270  10.667  10.267  1.3817  1.4239  2.5901
   25MOL0     H 3292   9.463  10.703  10.108  0.1316 -0.9871  0.8587
   25MOL0     H 3293   9.433  10.870  10.126 -2.2192 -0.5103 -0.8915
   25MOL0     H 3294   9.487  10.840  10.379  3.9605  1.1285  0.8042
   25MOL0     H 3295   9.628  10.816  10.285 -1.2284 -0.9190 -1.9704
   25MOL0     H 3296   9.447  10.597  10.394  0.7872  2.4758  0.7440
   25MOL0     H 3297   9.585  10.557  10.296 -0.1913 -3.7458  2.8395
   25MOL0     H 3298   9.730  10.661  10.687  0.6552 -1.4341 -0.2186
   25MOL0     H 3299   9.131  11.065  10.431  0.7390 -0.6616  0.9734
   25MOL0     H 3300   8.900  11.116  10.481  0.4978  1.0589  0.0611
   26MOL0     O 3301   8.451   9.869   0.748  0.5304  0.0841  0.1015
   26MOL0     C 3302   8.501   9.754   0.756  0.6006  0.6730  0.3701
   26MOL0     O 3303   8.461   9.642   0.672 -0.3549  0.0373  0.3112
   26MOL0     C 3304   8.350   9.663   0.591  0.1566 -0.3554 -0.5503
   26MOL0     C 3305   8.357   9.649   0.454 -0.0061  0.4640 -0.9607
   26MOL0     C 3306   8.249   9.681   0.374  0.6060  0.2992  0.1076
   26MOL0     C 3307   8.129   9.735   0.434  0.0898 -0.6865 -0.3829
   26MOL0     O 3308   8.022   9.763   0.352 -0.0537  0.0060 -0.1529
   26MOL0     C 3309   7.916   9.853   0.403  1.8802  0.2520  0.0654
   26MOL0     C 3310   7.910   9.968   0.300  0.1799  0.2078 -0.2074
   26MOL0     C 3311   7.807  10.062   0.360 -0.6976  0.6145 -0.8799
   26MOL0     C 3312   7.889  10.173   0.444  0.4779  0.1551 -0.1508
   26MOL0     C 3313   7.794  10.290   0.505  0.2778  0.4126 -0.1800
   26MOL0     C 3314   7.874  10.396   0.603  0.7476  0.5723  0.0793
   26MOL0     C 3315   7.798  10.517   0.624  0.0627 -0.8777  0.7283
   26MOL0     C 3316   7.675  10.497   0.715  0.2259 -0.2813 -0.2644
   26MOL0     N 3317   7.598  10.626   0.720 -0.8942 -0.9024 -0.0788
   26MOL0     C 3318   7.541  10.700   0.620 -0.2908 -0.2579  0.1739
   26MOL0     C 3319   7.477  10.797   0.687  0.5373  0.4926 -0.0654
   26MOL0     C 3320   7.380  10.893   0.625 -0.0974 -0.3933  0.6605
   26MOL0     C 3321   7.399  11.037   0.674  0.0089 -0.3151  0.0811
   26MOL0     C 3322   7.542  11.085   0.649  0.2480  0.6185 -0.4323
   26MOL0     C 3323   7.564  11.121   0.504 -0.2436  0.1617 -0.3294
   26MOL0     O 3324   7.697  11.173   0.480 -0.0407 -0.4747  0.5714
   26MOL0     C 3325   7.796  11.079   0.477  0.3573  0.7937 -0.1529
   26MOL0     C 3326   7.777  10.951   0.426 -0.4574 -0.2287  0.3187
   26MOL0     C 3327   7.891  10.863   0.426  0.1468 -0.9156 -0.2883
   26MOL0     C 3328   8.019  10.909   0.467 -0.8331  0.1685 -0.3054
   26MOL0     C 3329   8.135  10.817   0.467  0.5021 -0.7536 -0.3943
   26MOL0     O 3330   8.244  10.868   0.521 -0.9270  0.2026 -0.0242
   26MOL0     C 3331   8.360  10.796   0.511  0.3668 -0.0333  0.3560
   26MOL0     C 3332   8.412  10.757   0.384 -0.6397  0.0680 -0.0756
   26MOL0     C 3333   8.548  10.693   0.381  1.3884 -0.4493  0.1355
   26MOL0     C 3334   8.625  10.688   0.500  0.0210 -0.2760 -0.5160
   26MOL0     O 3335   8.756  10.632   0.512  0.1491  0.0183  0.6168
   26MOL0     C 3336   8.794  10.524   0.425 -0.9121 -0.2100  0.1990
   26MOL0     C 3337   8.929  10.463   0.474  0.7815 -0.4634  0.6111
   26MOL0     C 3338   8.952  10.323   0.412  0.8342  0.3545 -0.6957
   26MOL0     C 3339   9.092  10.278   0.455  0.5714  0.6638 -1.0886
   26MOL0     C 3340   9.121  10.143   0.377 -0.8954 -0.4671 -0.8781
   26MOL0     C 3341   9.266  10.100   0.377  0.6025 -0.0520 -0.2647
   26MOL0     C 3342   9.294   9.970   0.305  0.0101 -0.3446  0.7769
   26MOL0     C 3343   9.445   9.940   0.308  0.2310 -0.2385 -0.3544
   26MOL0    Cl 3344   9.489   9.802   0.198 -0.2268 -0.0250 -0.0758
   26MOL0     C 3345   8.575  10.736   0.624  0.1173 -0.6292 -1.3542
   26MOL0     C 3346   8.444  10.785   0.623 -0.0381  0.7682 -0.1516
   26MOL0     O 3347   8.113  10.698   0.428 -0.6090 -0.3891 -1.2209
   26MOL0     C 3348   8.031  11.038   0.525 -0.0458 -0.2768 -1.0140
   26MOL0     C 3349   7.927  11.124   0.521  0.1234  0.3560 -0.5544
   26MOL0     N 3350   7.490  10.789   0.824  0.8091  0.1750  0.6727
   26MOL0     N 3351   7.552  10.673   0.842  0.0367  0.1952  0.6382
   26MOL0     C 3352   8.122   9.740   0.575 -0.2714  0.2696 -0.2253
   26MOL0     C 3353   8.232   9.705   0.653  0.0317 -0.1621 -0.6797
   26MOL0     C 3354   8.611   9.739   0.852 -1.0390 -0.5177  0.5547
   26MOL0     C 3355   8.681   9.853   0.899  0.2107  0.5969  0.5406
   26MOL0     C 3356   8.782   9.838   0.988 -0.2220  0.3196  0.7296
   26MOL0     C 3357   8.820   9.702   1.030 -0.3008  0.6436  0.3083
   26MOL0     O 3358   8.925   9.662   1.115  0.5622 -0.7651  0.0230
   26MOL0     C 3359   9.052   9.723   1.095  1.6509 -0.3610 -0.0002
   26MOL0     C 3360   9.155   9.626   1.146 -0.3518  0.6545 -0.4612
   26MOL0     C 3361   9.282   9.708   1.174 -0.5685 -0.2065  0.7461
   26MOL0     C 3362   9.394   9.617   1.238  1.5328 -0.3267  0.3278
   26MOL0     C 3363   9.527   9.691   1.258  0.4130  0.2398  0.1127
   26MOL0     C 3364   9.634   9.752   1.263  0.5304 -0.0883 -0.3095
   26MOL0     C 3365   8.740   9.596   0.979 -0.3967  0.1751  0.4771
   26MOL0     C 3366   8.640   9.613   0.893  1.6955  0.0332 -1.3920
   26MOL0     H 3367   8.452   9.625   0.408  1.2933  0.3707  1.5657
   26MOL0     H 3368   8.251   9.676   0.265 -1.0081  0.4873  0.0446
   26MOL0     H 3369   7.934   9.885   0.506  2.1207 -2.6779  1.0271
   26MOL0     H 3370   7.821   9.799   0.402  1.5062  0.7536 -3.5700
   26MOL0     H 3371   7.852   9.923   0.219  0.0504 -0.6803  0.3626
   26MOL0     H 3372   8.009  10.006   0.271  0.4348 -1.0542 -1.0901
   26MOL0     H 3373   7.730  10.015   0.420  0.5147 -2.5207 -1.5929
   26MOL0     H 3374   7.766  10.121   0.277 -0.5699  0.7047 -0.8794
   26MOL0     H 3375   7.930  10.118   0.529 -1.2946 -1.1060 -0.0507
   26MOL0     H 3376   7.956  10.210   0.365 -0.8888 -0.1869 -1.5185
   26MOL0     H 3377   7.710  10.247   0.560 -0.3950  0.7275 -0.9382
   26MOL0     H 3378   7.756  10.344   0.418 -0.6741 -0.0645 -0.0762
   26MOL0     H 3379   7.966  10.424   0.550  1.8544  1.1679  2.2118
   26MOL0     H 3380   7.899  10.351   0.700  0.6352  1.0865  0.3492
   26MOL0     H 3381   7.854  10.589   0.684 -0.1009 -0.7069  0.6808
   26MOL0     H 3382   7.787  10.564   0.525  1.4005 -0.8099  0.5943
   26MOL0     H 3383   7.703  10.468   0.817 -0.7150 -0.4547 -0.0399
   26MOL0     H 3384   7.602  10.426   0.674  0.6513  0.4771 -2.4402
   26MOL0     H 3385   7.525  10.685   0.514 -1.2806  1.1342  0.1116
   26MOL0     H 3386   7.277  10.858   0.640  0.5544 -2.5301  0.3540
   26MOL0     H 3387   7.392  10.896   0.517  2.6024  1.2531  0.9210
   26MOL0     H 3388   7.372  11.030   0.779 -3.7297 -1.1527 -0.8009
   26MOL0     H 3389   7.331  11.099   0.615  3.1500 -0.0002 -3.6980
   26MOL0     H 3390   7.572  11.166   0.717 -0.2221 -0.0137  0.5365
   26MOL0     H 3391   7.611  11.006   0.681  0.5723  0.1173 -2.2557
   26MOL0     H 3392   7.498  11.201   0.468 -0.8065 -0.4901 -0.7579
   26MOL0     H 3393   7.526  11.043   0.438 -2.4963 -0.6790  1.8038
   26MOL0     H 3394   7.682  10.926   0.380 -2.0506  1.7322  2.2998
   26MOL0     H 3395   7.873  10.768   0.377 -0.4643 -0.7122 -0.4630
   26MOL0     H 3396   8.354  10.756   0.293 -1.6949 -0.6154  0.5833
   26MOL0     H 3397   8.585  10.656   0.286 -1.4119  1.1167 -1.7047
   26MOL0     H 3398   8.812  10.552   0.320 -1.4463 -0.5790  0.0075
   26MOL0     H 3399   8.713  10.451   0.432 -0.0829 -0.9900  4.6804
   26MOL0     H 3400   8.922  10.450   0.583 -0.1662 -0.9468  0.5078
   26MOL0     H 3401   9.012  10.531   0.454 -0.1470  0.7186  0.6879
   26MOL0     H 3402   8.943  10.330   0.303 -2.4433  1.2210 -0.4776
   26MOL0     H 3403   8.866  10.260   0.438  0.0862  2.0780  1.2656
   26MOL0     H 3404   9.160  10.360   0.429  0.7902  0.9212  0.2192
   26MOL0     H 3405   9.104  10.253   0.561 -2.1908 -2.2856 -1.3169
   26MOL0     H 3406   9.101  10.164   0.272  1.1219  2.8899 -0.7291
   26MOL0     H 3407   9.052  10.063   0.407 -0.1217 -0.5804  0.6895
   26MOL0     H 3408   9.291  10.090   0.483 -0.4745 -0.7339 -0.0584
   26MOL0     H 3409   9.341  10.174   0.347  2.1127  0.7174  4.4940
   26MOL0     H 3410   9.237   9.887   0.346 -1.7485 -0.2474 -1.2907
   26MOL0     H 3411   9.260   9.984   0.202  0.0712 -1.3889  0.6031
   26MOL0     H 3412   9.474   9.907   0.409  0.9987 -2.3041 -1.1840
   26MOL0     H 3413   9.504  10.027   0.280 -0.2068  0.4891  0.9028
   26MOL0     H 3414   8.634  10.732   0.715 -0.1159 -3.2521 -1.2346
   26MOL0     H 3415   8.398  10.824   0.713 -0.8639 -0.4071 -0.0346
   26MOL0     H 3416   8.130  11.072   0.552  0.1575 -0.4005 -1.5893
   26MOL0     H 3417   7.937  11.229   0.547 -0.0760  1.0056 -2.8440
   26MOL0     H 3418   8.032   9.764   0.630  0.9852  3.9719  0.5003
   26MOL0     H 3419   8.220   9.698   0.761 -1.0302  2.8998 -0.4979
   26MOL0     H 3420   8.643   9.953   0.885  0.0914  0.5227  0.3308
   26MOL0     H 3421   8.822   9.927   1.036  1.4872  0.6555 -1.1742
   26MOL0     H 3422   9.052   9.813   1.157 -1.6496 -0.9762  1.0546
   26MOL0     H 3423   9.063   9.740   0.987 -0.4406 -0.5728 -0.2876
   26MOL0     H 3424   9.115   9.589   1.241  1.2514 -2.5973 -0.9452
   26MOL0     H 3425   9.169   9.548   1.071 -2.0078  0.4155 -0.5593
   26MOL0     H 3426   9.258   9.797   1.234 -2.3841 -0.4318  0.4262
   26MOL0     H 3427   9.307   9.751   1.076 -0.4329  1.6029  1.5330
   26MOL0     H 3428   9.365   9.571   1.333  4.0038  0.6458  1.6605
   26MOL0     H 3429   9.404   9.533   1.170  3.9024 -0.2194  0.4688
   26MOL0     H 3430   9.721   9.810   1.242  1.1064 -1.1723 -1.0180
   26MOL0     H 3431   8.776   9.497   1.005  3.4404  0.8253 -1.5522
   26MOL0     H 3432   8.569   9.536   0.864  1.6080 -0.2710 -0.3878
   27MOL0     O 3433   3.018  10.495   6.927  0.8952  0.5167  0.4353
   27MOL0     C 3434   2.957  10.415   6.854 -0.4109 -0.3253 -0.1188
   27MOL0     O 3435   3.015  10.305   6.788 -0.0132 -0.5524  0.6322
   27MOL0     C 3436   3.116  10.259   6.866 -0.3567  0.1403  0.1400
   27MOL0     C 3437   3.255  10.279   6.829 -0.0710 -0.4236 -0.0984
   27MOL0     C 3438   3.362  10.219   6.895  0.3951  0.3863 -0.8346
   27MOL0     C 3439   3.326  10.139   7.008 -0.5641  0.3036 -0.0002
   27MOL0     O 3440   3.420  10.062   7.085 -1.1205  0.2186  0.2144
   27MOL0     C 3441   3.537  10.127   7.127 -0.2837  0.3209  0.4797
   27MOL0     C 3442   3.586  10.084   7.267  0.6556  0.0418  0.3439
   27MOL0     C 3443   3.664   9.955   7.252  0.2239 -0.6714 -0.5481
   27MOL0     C 3444   3.713   9.906   7.391 -0.0425  0.5729 -0.3116
   27MOL0     C 3445   3.612   9.811   7.459  0.1006  0.4229  0.2911
   27MOL0     C 3446   3.611   9.662   7.411  0.0361  0.9418 -0.4908
   27MOL0     C 3447   3.539   9.564   7.507  0.1556 -1.0198  0.0637
   27MOL0     C 3448   3.570   9.413   7.486  0.6861 -0.5760 -0.1454
   27MOL0     N 3449   3.561   9.374   7.346  0.5598 -0.5274  0.5807
   27MOL0     C 3450   3.462   9.290   7.305 -0.0622  0.6081 -0.2956
   27MOL0     C 3451   3.492   9.247   7.177 -0.5671 -0.0176  0.2273
   27MOL0     C 3452   3.390   9.165   7.100  0.2572  0.6300  0.3112
   27MOL0     C 3453   3.415   9.161   6.942  0.1323  0.2910 -0.4623
   27MOL0     C 3454   3.315   9.072   6.874 -0.4620 -0.3170  0.3442
   27MOL0     C 3455   3.365   9.037   6.738  0.1865  0.6715 -0.8021
   27MOL0     O 3456   3.492   8.979   6.735 -0.1577 -0.3309  0.0297
   27MOL0     C 3457   3.525   8.850   6.775 -0.0544 -0.0179 -0.4354
   27MOL0     C 3458   3.442   8.749   6.742 -0.0190  0.4175  0.9410
   27MOL0     C 3459   3.475   8.618   6.783  0.8784  0.4196  0.2705
   27MOL0     C 3460   3.584   8.597   6.866 -0.6192  0.3104 -0.4610
   27MOL0     C 3461   3.613   8.460   6.912  0.5249  0.4567  1.1454
   27MOL0     O 3462   3.722   8.440   6.990 -0.5735  0.1655  0.1845
   27MOL0     C 3463   3.759   8.316   7.038  0.1656  0.0333  0.5821
   27MOL0     C 3464   3.780   8.203   6.949  0.4004 -0.6324  0.0294
   27MOL0     C 3465   3.846   8.087   6.990  0.1799 -0.1720 -1.1422
   27MOL0     C 3466   3.881   8.071   7.122  0.0248  0.6549  0.3316
   27MOL0     O 3467   3.938   7.962   7.182 -0.7057 -0.0739 -0.0158
   27MOL0     C 3468   3.938   7.840   7.113 -0.6269  0.3329 -0.0021
   27MOL0     C 3469   4.002   7.741   7.221  0.8818  0.1304 -0.4801
   27MOL0     C 3470   4.010   7.600   7.167  0.0917  1.2110  0.7908
   27MOL0     C 3471   4.102   7.521   7.263  0.7073  0.1342  0.0285
   27MOL0     C 3472   4.128   7.382   7.219 -0.3262  0.3760  0.4716
   27MOL0     C 3473   4.213   7.308   7.320 -0.2109  0.1207 -1.0496
   27MOL0     C 3474   4.229   7.155   7.282 -0.6283  1.0946  0.1065
   27MOL0     C 3475   4.329   7.096   7.375  0.7219  0.3023 -1.1743
   27MOL0    Cl 3476   4.422   6.945   7.310 -0.2409 -0.6010  0.1976
   27MOL0     C 3477   3.869   8.180   7.211  0.9877 -0.3286  0.4146
   27MOL0     C 3478   3.810   8.302   7.172  0.2199  0.8612 -0.0838
   27MOL0     O 3479   3.535   8.369   6.879 -0.3010 -0.0282 -0.1219
   27MOL0     C 3480   3.664   8.703   6.907  0.2184  0.4536  0.4997
   27MOL0     C 3481   3.626   8.831   6.867 -0.7779  0.1548 -0.1474
   27MOL0     N 3482   3.603   9.324   7.141  0.6358  0.0695 -0.6342
   27MOL0     N 3483   3.650   9.389   7.244 -0.1519  0.2455 -0.0945
   27MOL0     C 3484   3.196  10.121   7.048 -0.0050  0.5946 -0.8098
   27MOL0     C 3485   3.089  10.180   6.979  0.5104  0.6969 -0.4456
   27MOL0     C 3486   2.822  10.458   6.804 -0.9021  1.0486  1.3796
   27MOL0     C 3487   2.747  10.540   6.882 -0.6070  0.2570  0.1834
   27MOL0     C 3488   2.614  10.567   6.864 -0.1265 -0.4130 -0.6425
   27MOL0     C 3489   2.545  10.492   6.772 -0.3636 -0.1329  0.0738
   27MOL0     O 3490   2.407  10.492   6.764 -0.2642  0.2535  0.0842
   27MOL0     C 3491   2.332  10.589   6.837 -0.0126  0.7305  1.1768
   27MOL0     C 3492   2.184  10.575   6.818  0.2737 -0.1512 -0.3785
   27MOL0     C 3493   2.089  10.676   6.889 -0.1771  0.3494 -0.3013
   27MOL0     C 3494   1.945  10.638   6.889 -0.3224  0.4495  0.7072
   27MOL0     C 3495   1.857  10.715   6.968  0.8046 -0.4524 -1.0684
   27MOL0     C 3496   1.791  10.794   7.032  0.0594 -0.1507 -0.3312
   27MOL0     C 3497   2.615  10.394   6.696 -0.1576  0.3097 -0.3234
   27MOL0     C 3498   2.755  10.377   6.707 -0.1031  0.0487 -1.0314
   27MOL0     H 3499   3.272  10.351   6.749 -1.1542 -2.3070 -2.1479
   27MOL0     H 3500   3.464  10.233   6.863  0.1777 -0.1426 -1.7921
   27MOL0     H 3501   3.525  10.235   7.138  1.1219  0.9793 -3.1517
   27MOL0     H 3502   3.610  10.103   7.049  0.0561 -0.9463  1.1543
   27MOL0     H 3503   3.505  10.072   7.339 -0.6901  1.4209 -0.8763
   27MOL0     H 3504   3.660  10.161   7.289  0.4561  0.9321 -1.8395
   27MOL0     H 3505   3.755   9.976   7.195 -1.1192  4.4152 -1.3658
   27MOL0     H 3506   3.609   9.874   7.204  2.3275 -2.1471 -0.5868
   27MOL0     H 3507   3.808   9.853   7.383 -0.2487  0.1372  0.0941
   27MOL0     H 3508   3.738   9.990   7.456  0.1244  0.0955  0.2451
   27MOL0     H 3509   3.510   9.847   7.446 -0.0350 -0.5973 -2.0449
   27MOL0     H 3510   3.635   9.805   7.566  0.6365 -2.0923  0.1117
   27MOL0     H 3511   3.718   9.638   7.409  0.1089  1.2605 -0.4798
   27MOL0     H 3512   3.574   9.650   7.309 -2.2719  2.2108  0.1221
   27MOL0     H 3513   3.565   9.598   7.608  1.8862  0.4225 -0.8173
   27MOL0     H 3514   3.431   9.582   7.503  0.1539 -0.9204  0.4574
   27MOL0     H 3515   3.507   9.354   7.552  0.9359  0.3496  0.9496
   27MOL0     H 3516   3.674   9.395   7.516  0.0144 -2.1149  1.3624
   27MOL0     H 3517   3.383   9.249   7.367  0.4601 -1.5822 -0.9778
   27MOL0     H 3518   3.286   9.188   7.126 -0.5413 -3.1693  1.1409
   27MOL0     H 3519   3.398   9.059   7.125  1.5774  0.2278 -1.5894
   27MOL0     H 3520   3.520   9.134   6.926  0.8400  2.3401  0.5173
   27MOL0     H 3521   3.405   9.262   6.901 -0.8146  0.5139  0.2998
   27MOL0     H 3522   3.291   8.985   6.937 -2.5743 -1.7846 -2.2651
   27MOL0     H 3523   3.215   9.114   6.864  0.6223  1.9808 -1.7893
   27MOL0     H 3524   3.384   9.131   6.686  2.2051 -0.0595 -1.4447
   27MOL0     H 3525   3.291   8.969   6.693  0.5274 -0.8014  0.7637
   27MOL0     H 3526   3.357   8.764   6.677 -0.9360 -0.7977  1.7990
   27MOL0     H 3527   3.404   8.538   6.766  0.9825  0.4478 -0.3367
   27MOL0     H 3528   3.761   8.210   6.842 -0.5954  2.9453  0.3005
   27MOL0     H 3529   3.839   8.005   6.919 -2.2652  2.2248 -3.9608
   27MOL0     H 3530   3.999   7.848   7.022  1.1922 -0.5311  1.0847
   27MOL0     H 3531   3.836   7.812   7.084 -1.1259  0.9441  1.0897
   27MOL0     H 3532   3.947   7.742   7.316  4.2003 -0.6429  1.6278
   27MOL0     H 3533   4.100   7.774   7.254  0.4853  3.0010 -1.9127
   27MOL0     H 3534   4.064   7.600   7.072 -5.0505  1.4064 -2.5462
   27MOL0     H 3535   3.910   7.563   7.144  0.2526  2.1030 -1.6458
   27MOL0     H 3536   4.190   7.584   7.277  0.3397  0.9313 -1.1514
   27MOL0     H 3537   4.041   7.519   7.354 -0.6126 -1.7709 -0.8462
   27MOL0     H 3538   4.171   7.384   7.119 -1.2004 -1.2773  0.0294
   27MOL0     H 3539   4.035   7.327   7.201  1.1790 -2.0980 -0.3017
   27MOL0     H 3540   4.156   7.311   7.413  3.0322 -2.2798  1.2632
   27MOL0     H 3541   4.311   7.356   7.330  0.3029 -1.3696  2.6003
   27MOL0     H 3542   4.141   7.093   7.299 -0.8319  1.5469  0.7827
   27MOL0     H 3543   4.252   7.152   7.176  0.4553  1.7996  0.3036
   27MOL0     H 3544   4.276   7.069   7.467  1.4160  2.7204  0.0116
   27MOL0     H 3545   4.411   7.164   7.398  0.9447 -0.9445  2.3975
   27MOL0     H 3546   3.905   8.166   7.312 -2.0393 -0.0768  1.6444
   27MOL0     H 3547   3.811   8.386   7.241 -0.4858 -0.7697  2.0071
   27MOL0     H 3548   3.749   8.687   6.972  0.3154 -1.5168 -0.0353
   27MOL0     H 3549   3.668   8.916   6.920  1.2303 -0.6679 -0.3307
   27MOL0     H 3550   3.187  10.044   7.124 -0.0414  3.1912  1.9982
   27MOL0     H 3551   2.989  10.144   7.003  1.0457 -1.6714 -1.4522
   27MOL0     H 3552   2.808  10.603   6.945  0.7069  0.7294 -1.5116
   27MOL0     H 3553   2.572  10.650   6.921 -2.4263 -2.3027  0.5808
   27MOL0     H 3554   2.364  10.690   6.808 -0.3902  1.3955  2.9756
   27MOL0     H 3555   2.360  10.581   6.942 -0.2244  0.0091  1.1815
   27MOL0     H 3556   2.167  10.580   6.710  0.6987 -1.1235 -0.4998
   27MOL0     H 3557   2.145  10.475   6.840 -2.6983  1.1900  1.0631
   27MOL0     H 3558   2.098  10.776   6.846  0.9302 -0.5349 -2.2317
   27MOL0     H 3559   2.115  10.691   6.995 -1.3106 -0.7425  0.1497
   27MOL0     H 3560   1.899  10.641   6.790  0.5578 -1.8051  0.1747
   27MOL0     H 3561   1.957  10.539   6.935  1.7153  1.8955  3.5481
   27MOL0     H 3562   1.743  10.866   7.095  2.8634  1.5753  0.0098
   27MOL0     H 3563   2.552  10.335   6.629 -0.2617  0.6472 -0.5239
   27MOL0     H 3564   2.809  10.292   6.665 -0.0124  0.4472 -1.7504
   28MOL0     O 3565   5.221   6.632   5.511 -0.0507 -0.0975 -0.5045
   28MOL0     C 3566   5.345   6.657   5.516 -1.0931  0.2246 -0.6356
   28MOL0     O 3567   5.417   6.758   5.587  0.0166 -0.5996  0.6411
   28MOL0     C 3568   5.348   6.869   5.636  0.4137  0.5061  0.1932
   28MOL0     C 3569   5.380   6.914   5.766 -0.0455  0.5888  0.1951
   28MOL0     C 3570   5.329   7.037   5.804  0.3020 -0.5340 -0.0695
   28MOL0     C 3571   5.221   7.105   5.740  0.8035  0.0075  0.7119
   28MOL0     O 3572   5.183   7.227   5.800 -0.6878  0.1714  1.2580
   28MOL0     C 3573   5.051   7.272   5.768  0.1664 -0.1232 -0.7394
   28MOL0     C 3574   5.020   7.385   5.860 -0.4484 -0.8470 -1.0204
   28MOL0     C 3575   4.880   7.441   5.833  0.2624  0.3773  0.2295
   28MOL0     C 3576   4.834   7.551   5.932 -0.5498  0.1899 -0.1210
   28MOL0     C 3577   4.769   7.665   5.852 -0.5402  0.2200 -0.3495
   28MOL0     C 3578   4.835   7.778   5.764 -1.2179  1.2784  0.2553
   28MOL0     C 3579   4.739   7.881   5.713  0.4905  0.3080  1.3918
   28MOL0     C 3580   4.688   7.975   5.823 -0.1682  0.4036  1.0448
   28MOL0     N 3581   4.598   8.079   5.757 -0.3348 -0.3563  0.1763
   28MOL0     C 3582   4.492   8.147   5.816 -1.2259  0.5505  0.0143
   28MOL0     C 3583   4.464   8.244   5.735 -0.4175 -0.4338 -0.0547
   28MOL0     C 3584   4.369   8.356   5.771 -0.5434  0.9217 -0.7034
   28MOL0     C 3585   4.228   8.324   5.715  0.1625  0.7486  0.0505
   28MOL0     C 3586   4.125   8.444   5.722  0.5618 -0.0079 -0.3157
   28MOL0     C 3587   4.119   8.537   5.597 -0.5522 -0.2034  0.1632
   28MOL0     O 3588   4.102   8.464   5.475  0.2289 -0.7904  0.9173
   28MOL0     C 3589   4.083   8.532   5.356  0.2049 -0.5234 -0.3850
   28MOL0     C 3590   4.092   8.454   5.239 -0.4718  0.6066 -0.9445
   28MOL0     C 3591   4.082   8.518   5.114  0.0892  0.3208 -0.5382
   28MOL0     C 3592   4.067   8.657   5.111  0.0091  0.1153 -0.5594
   28MOL0     C 3593   4.077   8.725   4.981 -0.7202  0.5450 -0.3454
   28MOL0     O 3594   4.123   8.858   4.985 -1.1169  0.1110 -0.0739
   28MOL0     C 3595   4.132   8.919   4.870  0.9778 -1.0286 -0.5125
   28MOL0     C 3596   4.026   8.999   4.816  0.0633  0.4616  0.2363
   28MOL0     C 3597   4.048   9.073   4.707  0.7093  0.8044  0.3632
   28MOL0     C 3598   4.166   9.063   4.637  0.2671  0.9076 -0.2951
   28MOL0     O 3599   4.170   9.136   4.526  0.0217  0.4997  0.3240
   28MOL0     C 3600   4.254   9.081   4.421  0.1458 -0.1052  0.9353
   28MOL0     C 3601   4.220   9.158   4.286  0.3608  0.0717 -0.2077
   28MOL0     C 3602   4.082   9.127   4.232  0.8539  0.5777 -0.0710
   28MOL0     C 3603   4.051   9.204   4.103  0.8804 -0.6763 -0.5914
   28MOL0     C 3604   3.899   9.220   4.086 -0.1851 -0.6995  0.2142
   28MOL0     C 3605   3.863   9.336   3.981 -0.3607  0.0751 -0.0337
   28MOL0     C 3606   3.709   9.359   3.968 -0.9161 -0.1974  0.4302
   28MOL0     C 3607   3.686   9.465   3.864  0.9555 -0.3316  0.4608
   28MOL0    Cl 3608   3.755   9.637   3.890 -0.1378 -0.1352  0.2586
   28MOL0     C 3609   4.271   8.982   4.695 -0.8736 -0.9406 -0.5802
   28MOL0     C 3610   4.255   8.913   4.807 -0.5690 -0.3831 -0.0945
   28MOL0     O 3611   4.056   8.660   4.881 -0.3880  0.1634 -0.0201
   28MOL0     C 3612   4.043   8.725   5.231  0.5119 -1.0612  0.2810
   28MOL0     C 3613   4.052   8.667   5.353  0.1935  0.1223 -0.0711
   28MOL0     N 3614   4.558   8.243   5.630  0.7091 -0.3422  0.3600
   28MOL0     N 3615   4.638   8.151   5.645 -0.4552  0.4105 -0.4785
   28MOL0     C 3616   5.181   7.051   5.622  0.2249 -0.7408  0.8786
   28MOL0     C 3617   5.249   6.940   5.562  0.1657  0.1351  0.3463
   28MOL0     C 3618   5.434   6.555   5.447  0.4820  0.0079 -0.7625
   28MOL0     C 3619   5.390   6.429   5.412 -0.9174  1.0296  0.6095
   28MOL0     C 3620   5.464   6.333   5.339  0.5416 -1.0469  1.1166
   28MOL0     C 3621   5.595   6.373   5.284  0.2536 -0.9949 -0.1218
   28MOL0     O 3622   5.673   6.297   5.206 -0.1159 -0.4793  0.5036
   28MOL0     C 3623   5.617   6.294   5.071 -0.2435 -0.0938 -0.4202
   28MOL0     C 3624   5.714   6.205   4.983 -0.3713 -0.0589  1.3208
   28MOL0     C 3625   5.695   6.254   4.832 -0.0727  0.1810 -0.6089
   28MOL0     C 3626   5.797   6.185   4.741 -0.2944  0.4611 -0.2478
   28MOL0     C 3627   5.798   6.245   4.608  0.6828 -0.3473 -1.1263
   28MOL0     C 3628   5.803   6.288   4.491 -0.4626 -1.4659 -0.1669
   28MOL0     C 3629   5.639   6.500   5.320 -0.0852 -0.2328  0.4705
   28MOL0     C 3630   5.556   6.594   5.397 -0.7635 -0.5324  0.2768
   28MOL0     H 3631   5.452   6.872   5.835 -0.1912 -0.3380 -0.2080
   28MOL0     H 3632   5.365   7.080   5.897  0.0674  1.0335 -0.6721
   28MOL0     H 3633   4.976   7.192   5.776  0.1823 -0.1463 -0.8223
   28MOL0     H 3634   5.041   7.303   5.664 -1.5025 -1.2549 -0.9613
   28MOL0     H 3635   5.089   7.465   5.830  1.8535 -2.9919 -1.7989
   28MOL0     H 3636   5.049   7.376   5.965 -1.3560  3.1186 -0.2649
   28MOL0     H 3637   4.817   7.352   5.827  2.1289 -1.1420  1.7614
   28MOL0     H 3638   4.881   7.491   5.736 -3.4769 -0.4881 -0.4109
   28MOL0     H 3639   4.756   7.514   5.998 -1.1442  1.0437 -0.3273
   28MOL0     H 3640   4.919   7.579   5.994 -0.1343 -0.5666 -0.3310
   28MOL0     H 3641   4.705   7.719   5.923 -1.5749  0.2341 -1.2542
   28MOL0     H 3642   4.701   7.620   5.779 -1.6044 -4.1774  2.9553
   28MOL0     H 3643   4.889   7.725   5.685  3.7471  3.3681  1.9030
   28MOL0     H 3644   4.917   7.835   5.808 -1.4157  3.3151 -1.8175
   28MOL0     H 3645   4.779   7.946   5.635  0.9289 -1.7973 -0.2344
   28MOL0     H 3646   4.657   7.832   5.660  2.0092 -1.5139  0.6070
   28MOL0     H 3647   4.769   8.025   5.879 -0.0826  0.0793  1.2117
   28MOL0     H 3648   4.633   7.918   5.898 -3.0371 -1.8407 -2.4352
   28MOL0     H 3649   4.452   8.144   5.917 -0.5953 -0.3140  0.2402
   28MOL0     H 3650   4.413   8.447   5.730  0.4880  0.6889 -0.1448
   28MOL0     H 3651   4.350   8.363   5.879  0.0471 -2.2751 -0.3172
   28MOL0     H 3652   4.194   8.253   5.790  3.1024  0.7657  1.5220
   28MOL0     H 3653   4.226   8.276   5.616 -3.2045 -1.8723  1.1812
   28MOL0     H 3654   4.026   8.411   5.753  0.0434  2.2698  0.7010
   28MOL0     H 3655   4.156   8.509   5.805 -0.1430  0.9406 -0.7718
   28MOL0     H 3656   4.206   8.602   5.584 -1.2367  0.7180  0.1109
   28MOL0     H 3657   4.032   8.602   5.613 -1.2080 -1.0753  0.2213
   28MOL0     H 3658   4.109   8.347   5.237 -1.2547  0.4278 -4.1867
   28MOL0     H 3659   4.101   8.447   5.034  1.0979 -0.2543  0.1920
   28MOL0     H 3660   3.928   9.005   4.863 -0.9720  1.4900 -1.9084
   28MOL0     H 3661   3.962   9.126   4.666 -2.4039 -3.3839  0.8117
   28MOL0     H 3662   4.225   8.976   4.405 -2.1788  0.5914  0.2439
   28MOL0     H 3663   4.362   9.100   4.428  0.2455  0.4341 -1.4140
   28MOL0     H 3664   4.294   9.149   4.207  1.3073  0.4075  0.6197
   28MOL0     H 3665   4.228   9.263   4.315  0.6286 -0.6452  2.6793
   28MOL0     H 3666   3.999   9.148   4.300  0.8303 -0.2282  0.1606
   28MOL0     H 3667   4.080   9.020   4.210  1.6724  0.1010  1.9220
   28MOL0     H 3668   4.089   9.304   4.121 -0.7066 -0.3848  1.4729
   28MOL0     H 3669   4.095   9.153   4.016  0.8761 -4.4788  1.4326
   28MOL0     H 3670   3.845   9.250   4.176 -1.8907  1.8081 -1.5105
   28MOL0     H 3671   3.866   9.124   4.047 -1.9341 -0.6830  1.5641
   28MOL0     H 3672   3.912   9.306   3.889  0.6504  2.2181 -0.2569
   28MOL0     H 3673   3.905   9.434   4.005  0.6076 -0.5881  1.0884
   28MOL0     H 3674   3.658   9.263   3.955  3.9389 -2.7802 -2.8861
   28MOL0     H 3675   3.685   9.403   4.065 -0.7488  0.5050  0.1656
   28MOL0     H 3676   3.578   9.478   3.859  1.1805  2.4423  1.2051
   28MOL0     H 3677   3.722   9.445   3.763  3.3387  1.6178  0.8169
   28MOL0     H 3678   4.363   8.961   4.642 -1.5934 -0.6481 -2.0024
   28MOL0     H 3679   4.334   8.855   4.852 -1.4608 -0.3392  1.6153
   28MOL0     H 3680   4.027   8.833   5.229 -3.2191 -1.4255  1.7883
   28MOL0     H 3681   4.043   8.729   5.442  0.6496  1.2579 -0.7938
   28MOL0     H 3682   5.104   7.097   5.561  1.6039 -2.4101 -2.3541
   28MOL0     H 3683   5.221   6.898   5.466 -3.7975 -0.8574  1.7576
   28MOL0     H 3684   5.293   6.394   5.447 -0.0641  0.2734  2.3548
   28MOL0     H 3685   5.424   6.236   5.311  1.9791 -1.8189  1.6285
   28MOL0     H 3686   5.630   6.402   5.055  1.0529 -0.2820 -0.7155
   28MOL0     H 3687   5.511   6.265   5.073 -1.3331  2.8934  5.0195
   28MOL0     H 3688   5.819   6.225   5.006 -0.8847  1.0499  2.8457
   28MOL0     H 3689   5.679   6.103   5.003 -3.3850  1.0433  2.2609
   28MOL0     H 3690   5.701   6.363   4.822 -2.9618  0.7111  2.0244
   28MOL0     H 3691   5.594   6.226   4.800 -1.8501  2.3430  2.5114
   28MOL0     H 3692   5.891   6.202   4.793 -1.0440 -1.2079  1.7751
   28MOL0     H 3693   5.772   6.079   4.731  0.0953  0.2641  0.7395
   28MOL0     H 3694   5.792   6.322   4.390  0.6137 -0.7320 -0.0507
   28MOL0     H 3695   5.733   6.541   5.283 -0.9169  0.6058 -0.7682
   28MOL0     H 3696   5.592   6.693   5.425 -0.9152 -1.3976  4.0520
   29MOL0     O 3697   4.679   2.002   7.169 -0.2383  1.2056  0.1299
   29MOL0     C 3698   4.586   2.071   7.176 -0.6769 -1.0315 -0.6732
   29MOL0     O 3699   4.589   2.210   7.151 -0.5061  0.4776  0.6869
   29MOL0     C 3700   4.695   2.264   7.088  0.6206  0.0154  0.3668
   29MOL0     C 3701   4.729   2.391   7.121  0.2117  0.0907  1.3590
   29MOL0     C 3702   4.840   2.456   7.072  0.4847  0.3308  0.5630
   29MOL0     C 3703   4.938   2.388   6.994  0.8243  0.8758 -0.1918
   29MOL0     O 3704   5.047   2.451   6.959 -0.0060  0.0201  0.2459
   29MOL0     C 3705   5.168   2.363   6.946  0.2691  0.0405  0.2846
   29MOL0     C 3706   5.295   2.451   6.928 -0.3291  0.1374 -0.9386
   29MOL0     C 3707   5.401   2.369   6.858 -1.1655 -0.4909  0.0172
   29MOL0     C 3708   5.523   2.449   6.815 -0.5860  0.0788 -0.1762
   29MOL0     C 3709   5.624   2.371   6.729  0.2692 -0.4768  0.5228
   29MOL0     C 3710   5.692   2.472   6.627  0.5506  0.1449 -0.2569
   29MOL0     C 3711   5.806   2.400   6.546 -0.0279 -0.8264 -1.7028
   29MOL0     C 3712   5.751   2.326   6.427 -0.5465 -0.5328 -0.6787
   29MOL0     N 3713   5.861   2.277   6.339 -0.4175  0.2510  0.1711
   29MOL0     C 3714   5.911   2.149   6.354  0.3955 -0.9773 -0.1869
   29MOL0     C 3715   5.992   2.122   6.250 -0.0599  0.3107  0.3114
   29MOL0     C 3716   6.035   1.987   6.225  0.2549  0.0698 -0.0184
   29MOL0     C 3717   6.106   1.957   6.088 -0.6307 -0.3027 -1.0381
   29MOL0     C 3718   6.025   1.989   5.954  1.1323  0.6875 -0.3588
   29MOL0     C 3719   6.097   1.943   5.823  0.3045  0.3313  0.3067
   29MOL0     O 3720   6.229   2.008   5.801 -0.0384  0.4024  0.0165
   29MOL0     C 3721   6.329   1.939   5.740 -0.6187 -0.1535  0.3938
   29MOL0     C 3722   6.423   1.860   5.807 -0.0532 -0.3701 -0.0195
   29MOL0     C 3723   6.516   1.770   5.740  0.6979  0.5959  0.3132
   29MOL0     C 3724   6.529   1.781   5.594  0.7610  0.2086 -0.8846
   29MOL0     C 3725   6.623   1.691   5.515  0.2253 -0.1169 -0.3941
   29MOL0     O 3726   6.655   1.743   5.391 -0.9175  0.1336  1.3291
   29MOL0     C 3727   6.776   1.710   5.326  0.3726  0.3912 -0.7983
   29MOL0     C 3728   6.888   1.628   5.371 -0.3681  0.4199 -0.5206
   29MOL0     C 3729   6.997   1.598   5.290 -0.7671 -0.0215 -0.3818
   29MOL0     C 3730   6.997   1.650   5.153  0.3190 -0.1691 -0.0635
   29MOL0     O 3731   7.102   1.626   5.062  0.4215  0.1808  0.2804
   29MOL0     C 3732   7.172   1.745   5.020 -0.0060 -0.2487  0.3808
   29MOL0     C 3733   7.329   1.736   5.030  0.4890 -0.1516  0.9156
   29MOL0     C 3734   7.386   1.615   4.956 -1.2268 -0.1775  0.5509
   29MOL0     C 3735   7.546   1.621   4.937  0.3740 -0.2057  0.5015
   29MOL0     C 3736   7.599   1.504   4.847 -0.1396 -0.2652 -0.2262
   29MOL0     C 3737   7.725   1.548   4.766  0.1464  0.3595 -0.0040
   29MOL0     C 3738   7.790   1.430   4.681 -1.4141 -0.3352  0.8289
   29MOL0     C 3739   7.706   1.366   4.565  0.2891  0.4773  0.1946
   29MOL0    Cl 3740   7.620   1.509   4.484 -0.2541  0.4137  0.0421
   29MOL0     C 3741   6.883   1.724   5.103 -0.0936  0.4829 -0.0815
   29MOL0     C 3742   6.776   1.749   5.191  0.3400 -0.1290 -0.2660
   29MOL0     O 3743   6.677   1.590   5.558  0.6709 -0.2487 -0.8148
   29MOL0     C 3744   6.450   1.874   5.527 -0.7688  0.5874 -0.1865
   29MOL0     C 3745   6.344   1.941   5.594 -1.1555 -0.3040 -0.4553
   29MOL0     N 3746   5.996   2.238   6.170 -0.1693  0.3625 -0.1506
   29MOL0     N 3747   5.921   2.325   6.231  0.2893 -0.1796  0.1075
   29MOL0     C 3748   4.894   2.262   6.949 -0.2785 -0.2287 -0.5191
   29MOL0     C 3749   4.773   2.210   6.989 -0.3991  0.6227 -0.3218
   29MOL0     C 3750   4.462   2.004   7.221 -0.1698 -0.0709  0.3580
   29MOL0     C 3751   4.373   2.074   7.298  0.1684  0.2687  0.9161
   29MOL0     C 3752   4.260   2.014   7.353  0.0051 -0.9031 -0.2068
   29MOL0     C 3753   4.240   1.870   7.334  0.3312 -0.0860 -0.1881
   29MOL0     O 3754   4.137   1.815   7.406 -0.2130 -0.1058 -0.9800
   29MOL0     C 3755   4.098   1.679   7.381  0.0264  0.3097 -0.3500
   29MOL0     C 3756   3.959   1.659   7.440  0.1540 -0.9733  0.1520
   29MOL0     C 3757   3.940   1.713   7.583  0.6427  0.6418  0.0558
   29MOL0     C 3758   3.812   1.672   7.665  0.2559 -0.0615 -0.6586
   29MOL0     C 3759   3.685   1.715   7.598  0.1171 -0.0232  0.1671
   29MOL0     C 3760   3.582   1.744   7.538  0.6401  0.3022 -0.3968
   29MOL0     C 3761   4.330   1.795   7.253 -0.5416  0.0183 -1.2031
   29MOL0     C 3762   4.439   1.858   7.196  0.1323 -0.4345 -0.1136
   29MOL0     H 3763   4.663   2.447   7.186 -2.1546 -1.8169  0.7613
   29MOL0     H 3764   4.845   2.564   7.082 -0.4129  0.5720 -1.1404
   29MOL0     H 3765   5.156   2.308   6.852 -3.9170 -0.6486  1.0606
   29MOL0     H 3766   5.176   2.288   7.026  3.9419  0.4620  0.4871
   29MOL0     H 3767   5.335   2.496   7.020 -1.4624  0.1125 -0.4244
   29MOL0     H 3768   5.270   2.546   6.880 -0.5397  2.2580  2.9514
   29MOL0     H 3769   5.363   2.328   6.765  1.8070 -2.3412 -0.5145
   29MOL0     H 3770   5.413   2.279   6.919 -0.1512 -1.1462 -1.1260
   29MOL0     H 3771   5.483   2.536   6.763 -3.1844 -1.4424 -0.8918
   29MOL0     H 3772   5.571   2.472   6.911 -1.9171  0.6259  0.3840
   29MOL0     H 3773   5.572   2.288   6.682  0.0032 -0.5291  0.9024
   29MOL0     H 3774   5.708   2.329   6.785  2.0235  3.9757  1.6707
   29MOL0     H 3775   5.727   2.557   6.686 -1.6931  1.6596 -0.9566
   29MOL0     H 3776   5.620   2.511   6.554 -4.2877 -2.8453  2.3487
   29MOL0     H 3777   5.875   2.472   6.502  2.0502 -1.5405  0.2097
   29MOL0     H 3778   5.857   2.327   6.610  2.4066  0.6785 -1.8067
   29MOL0     H 3779   5.700   2.403   6.368 -0.2213  2.5768  2.7312
   29MOL0     H 3780   5.687   2.242   6.455 -1.7052  0.5128 -0.1379
   29MOL0     H 3781   5.876   2.068   6.416 -3.6060 -0.6796 -1.6973
   29MOL0     H 3782   5.948   1.922   6.239  1.1885 -0.7728  2.4264
   29MOL0     H 3783   6.108   1.959   6.302 -1.2379  1.0492  1.8383
   29MOL0     H 3784   6.139   1.852   6.080 -0.6768 -0.5677  1.3718
   29MOL0     H 3785   6.197   2.016   6.098 -0.6680 -0.6217  2.5685
   29MOL0     H 3786   5.930   1.935   5.952  0.6757  1.4976 -1.5079
   29MOL0     H 3787   5.999   2.095   5.953 -0.4972  0.3565 -2.7098
   29MOL0     H 3788   6.027   1.971   5.745  1.8946 -0.8165 -1.6210
   29MOL0     H 3789   6.120   1.836   5.823 -0.0555  0.2339 -1.2481
   29MOL0     H 3790   6.428   1.858   5.915 -1.5508  0.9794  0.1180
   29MOL0     H 3791   6.579   1.698   5.792 -0.0385 -1.9835 -2.0864
   29MOL0     H 3792   6.911   1.597   5.473  0.1235  4.0695  0.6595
   29MOL0     H 3793   7.085   1.542   5.320  0.4106  2.1274  0.3266
   29MOL0     H 3794   7.129   1.830   5.074 -2.0276  0.6701 -2.4173
   29MOL0     H 3795   7.155   1.758   4.913  0.6622 -0.6313  0.2178
   29MOL0     H 3796   7.357   1.748   5.136 -0.8519  2.5528  1.0624
   29MOL0     H 3797   7.365   1.824   4.975  1.7385 -0.9853  0.3496
   29MOL0     H 3798   7.340   1.624   4.857 -1.0115  1.7567  0.6015
   29MOL0     H 3799   7.365   1.518   5.001  2.1159 -0.6717  1.3567
   29MOL0     H 3800   7.563   1.721   4.896  1.1621  0.1066  1.5393
   29MOL0     H 3801   7.601   1.633   5.031  1.6903  0.6448 -0.3403
   29MOL0     H 3802   7.518   1.471   4.781 -1.2036 -0.6261  1.1865
   29MOL0     H 3803   7.636   1.424   4.913 -1.4451 -1.4176 -0.8182
   29MOL0     H 3804   7.803   1.592   4.830  1.7260 -1.1542 -0.7947
   29MOL0     H 3805   7.691   1.623   4.695  1.6980  0.7430 -0.3872
   29MOL0     H 3806   7.882   1.457   4.628  0.2520 -0.3849  3.4835
   29MOL0     H 3807   7.815   1.353   4.755  1.9930 -0.2003  0.0072
   29MOL0     H 3808   7.627   1.300   4.602 -1.1518  2.2772  0.5198
   29MOL0     H 3809   7.765   1.307   4.494  0.1022  0.1537  0.3050
   29MOL0     H 3810   6.879   1.755   4.999  2.0421  1.2619  0.0222
   29MOL0     H 3811   6.684   1.795   5.156 -2.4535 -1.5760  4.2466
   29MOL0     H 3812   6.459   1.892   5.420  0.4616 -0.8909 -0.3615
   29MOL0     H 3813   6.281   1.997   5.526 -0.1611 -0.0664 -1.2182
   29MOL0     H 3814   4.956   2.201   6.884  2.3950  1.1398  0.5909
   29MOL0     H 3815   4.743   2.112   6.955  1.0714 -0.5279  1.4461
   29MOL0     H 3816   4.393   2.180   7.314  3.4895 -0.3547  1.5842
   29MOL0     H 3817   4.188   2.064   7.419  0.7931 -1.8084  1.3828
   29MOL0     H 3818   4.158   1.608   7.438 -0.5634 -0.3825 -0.5803
   29MOL0     H 3819   4.093   1.650   7.276 -3.4666  1.4534 -0.6298
   29MOL0     H 3820   3.888   1.704   7.370 -0.1104  2.4403  2.3661
   29MOL0     H 3821   3.941   1.551   7.443 -1.2431 -0.7365  2.2804
   29MOL0     H 3822   3.932   1.821   7.572  0.3607  0.6252  0.0953
   29MOL0     H 3823   4.030   1.681   7.636 -0.3412 -1.1158  0.7758
   29MOL0     H 3824   3.815   1.566   7.690  2.8588  0.6820  3.1524
   29MOL0     H 3825   3.813   1.732   7.757 -0.0650  0.7921 -1.2019
   29MOL0     H 3826   3.488   1.774   7.495 -1.9811 -3.7105  1.8937
   29MOL0     H 3827   4.336   1.689   7.231 -0.6617 -0.1154 -0.6152
   29MOL0     H 3828   4.514   1.793   7.155  1.9417  0.0998  2.1219
   30MOL0     O 3829   9.095   4.095   1.191  0.0072  0.5570 -0.4861
   30MOL0     C 3830   9.012   4.021   1.147  0.1256  0.0429  0.3396
   30MOL0     O 3831   8.927   3.946   1.220 -1.0146 -0.6663 -0.2706
   30MOL0     C 3832   8.908   3.952   1.352 -0.6080 -0.6139 -0.6898
   30MOL0     C 3833   8.882   3.834   1.410  0.1397 -0.0096 -0.7485
   30MOL0     C 3834   8.843   3.832   1.548 -0.4355 -0.3607  0.1495
   30MOL0     C 3835   8.836   3.960   1.618 -0.1501  0.0823 -0.0642
   30MOL0     O 3836   8.784   3.988   1.745  0.0880 -0.0235  0.3312
   30MOL0     C 3837   8.727   3.871   1.797 -0.3254  0.0881  0.3628
   30MOL0     C 3838   8.681   3.901   1.939  1.0438  0.4261 -0.2089
   30MOL0     C 3839   8.575   3.807   1.992 -0.2379  0.1796 -0.0945
   30MOL0     C 3840   8.514   3.864   2.114  0.3257 -0.3393  0.3419
   30MOL0     C 3841   8.420   3.768   2.178  0.5436  0.5837  0.2905
   30MOL0     C 3842   8.333   3.839   2.294 -1.5678 -1.0010  0.6888
   30MOL0     C 3843   8.196   3.787   2.301 -0.6618 -0.2089 -0.7648
   30MOL0     C 3844   8.185   3.667   2.382  1.6007  0.3310 -0.9194
   30MOL0     N 3845   8.043   3.614   2.380  0.0354  0.8253 -0.3775
   30MOL0     C 3846   7.984   3.504   2.312  0.1434 -0.2793 -1.1378
   30MOL0     C 3847   7.856   3.506   2.357 -0.3838  0.0101  0.5081
   30MOL0     C 3848   7.741   3.411   2.334  0.0444  0.1222  0.2686
   30MOL0     C 3849   7.764   3.279   2.412  0.3537  0.1411  0.7574
   30MOL0     C 3850   7.648   3.177   2.384  0.1312  0.5906  0.7184
   30MOL0     C 3851   7.512   3.225   2.435  0.4532 -0.2405  0.2371
   30MOL0     O 3852   7.417   3.146   2.362 -0.3424 -0.3427  0.2847
   30MOL0     C 3853   7.344   3.065   2.445 -0.2441  0.3488  0.7198
   30MOL0     C 3854   7.258   3.114   2.542  0.5440  1.1982  0.2814
   30MOL0     C 3855   7.193   3.031   2.632  0.2683  0.0471  0.0546
   30MOL0     C 3856   7.211   2.893   2.623  0.2338 -1.2822 -0.0759
   30MOL0     C 3857   7.126   2.808   2.707 -0.8490  0.8182  0.0405
   30MOL0     O 3858   7.085   2.869   2.826 -0.2002  0.3839 -0.3923
   30MOL0     C 3859   6.990   2.821   2.903  0.1006 -0.1317 -0.1875
   30MOL0     C 3860   6.894   2.726   2.870  0.2458  0.2056  0.0108
   30MOL0     C 3861   6.800   2.679   2.960 -0.5285  0.1771 -0.0876
   30MOL0     C 3862   6.788   2.744   3.084 -0.2598  0.9376  0.1100
   30MOL0     O 3863   6.699   2.682   3.173  0.2220 -0.2847  0.8276
   30MOL0     C 3864   6.670   2.754   3.295  0.2770 -0.3855 -0.3525
   30MOL0     C 3865   6.577   2.878   3.252  0.0673 -0.0722 -0.1439
   30MOL0     C 3866   6.435   2.832   3.227  0.2910 -0.3713  0.1167
   30MOL0     C 3867   6.348   2.959   3.181 -0.7138 -0.2135 -0.3737
   30MOL0     C 3868   6.222   2.916   3.101 -0.5508  0.5116 -0.1801
   30MOL0     C 3869   6.148   3.031   3.040  0.6085 -1.0932 -0.4792
   30MOL0     C 3870   5.993   3.020   3.027  0.0838  0.2986  0.2144
   30MOL0     C 3871   5.937   2.894   2.953 -0.4452  0.0567 -0.6587
   30MOL0    Cl 3872   5.928   2.748   3.049  0.3896  0.3548  0.4019
   30MOL0     C 3873   6.884   2.843   3.125  0.6553 -0.5943 -0.8669
   30MOL0     C 3874   6.978   2.883   3.028 -0.7770  0.8300 -1.4019
   30MOL0     O 3875   7.108   2.689   2.676  0.1879  0.1551 -0.3859
   30MOL0     C 3876   7.281   2.833   2.512 -0.1261  1.0228 -0.1447
   30MOL0     C 3877   7.355   2.926   2.436 -0.0465 -0.6196 -0.3120
   30MOL0     N 3878   7.830   3.621   2.419  0.6013 -0.1485 -0.2502
   30MOL0     N 3879   7.940   3.685   2.430 -0.1950  0.0824  0.1954
   30MOL0     C 3880   8.886   4.071   1.562  0.2440  0.1617 -0.3013
   30MOL0     C 3881   8.921   4.072   1.426  0.8263  0.3860  0.7938
   30MOL0     C 3882   8.998   4.007   1.002  0.4670  0.1925  0.4997
   30MOL0     C 3883   8.890   3.938   0.931  0.1418 -0.0146 -1.0926
   30MOL0     C 3884   8.894   3.919   0.789 -0.9065  0.8128  0.4055
   30MOL0     C 3885   9.005   3.956   0.716  0.5033  0.1780  0.1622
   30MOL0     O 3886   9.001   3.924   0.574 -0.5359  0.4951  0.0589
   30MOL0     C 3887   9.103   3.975   0.475 -0.3713  0.2396 -0.8060
   30MOL0     C 3888   9.247   3.934   0.498 -0.2666 -0.1160 -0.6126
   30MOL0     C 3889   9.335   4.067   0.467  0.3710 -0.6779  0.1131
   30MOL0     C 3890   9.355   4.079   0.314  0.6218 -0.2853 -0.5328
   30MOL0     C 3891   9.428   3.962   0.252  0.2105 -0.3419  0.6224
   30MOL0     C 3892   9.500   3.879   0.200  0.3756 -0.0621  0.0443
   30MOL0     C 3893   9.108   4.029   0.775 -0.4007  0.4239 -0.5236
   30MOL0     C 3894   9.107   4.038   0.916 -0.1280 -1.0833  0.8785
   30MOL0     H 3895   8.896   3.748   1.344 -0.4350 -1.4710  0.9678
   30MOL0     H 3896   8.821   3.739   1.600  0.4513  0.9116  3.0030
   30MOL0     H 3897   8.801   3.791   1.796  1.8273  1.9398 -1.3921
   30MOL0     H 3898   8.639   3.847   1.737  0.5648  1.3475 -1.5876
   30MOL0     H 3899   8.637   4.001   1.941  1.6842  0.8017 -2.4593
   30MOL0     H 3900   8.764   3.896   2.010 -0.9840 -2.7966  2.2383
   30MOL0     H 3901   8.619   3.713   2.028  4.9774  2.6412  0.8585
   30MOL0     H 3902   8.502   3.786   1.913  2.9560 -3.8468 -2.4013
   30MOL0     H 3903   8.580   3.879   2.200 -0.5401 -2.2222  1.3854
   30MOL0     H 3904   8.460   3.959   2.098  1.1537  0.1349  0.3050
   30MOL0     H 3905   8.458   3.680   2.230 -2.2428  0.4155  2.2760
   30MOL0     H 3906   8.348   3.723   2.109 -1.8654 -0.4062  3.2526
   30MOL0     H 3907   8.320   3.943   2.261 -0.6896 -0.4900  1.8666
   30MOL0     H 3908   8.388   3.845   2.388  1.5214 -2.1445 -0.8917
   30MOL0     H 3909   8.130   3.869   2.333  1.8281  1.9565 -0.8059
   30MOL0     H 3910   8.153   3.753   2.206 -0.1646 -2.0653 -0.3644
   30MOL0     H 3911   8.208   3.686   2.487  0.0615 -1.8369 -0.0878
   30MOL0     H 3912   8.252   3.589   2.345  2.4670 -0.1387  1.4712
   30MOL0     H 3913   8.023   3.417   2.261 -1.4250 -0.6593 -1.7503
   30MOL0     H 3914   7.722   3.386   2.229 -2.8905 -0.2705  0.8023
   30MOL0     H 3915   7.645   3.447   2.372 -0.7830 -1.2595 -0.4187
   30MOL0     H 3916   7.778   3.290   2.520  2.2847 -1.2592  0.7085
   30MOL0     H 3917   7.854   3.230   2.373  1.5835  0.0660  3.4242
   30MOL0     H 3918   7.634   3.148   2.279 -0.9365  3.0185  0.1333
   30MOL0     H 3919   7.678   3.088   2.440 -4.0547 -2.4859 -1.2932
   30MOL0     H 3920   7.478   3.327   2.415 -0.2983 -0.7717 -1.3261
   30MOL0     H 3921   7.505   3.217   2.544 -1.5238  0.7313  0.2178
   30MOL0     H 3922   7.232   3.219   2.547 -0.9633  0.9270 -1.0811
   30MOL0     H 3923   7.131   3.067   2.713  1.9589  1.7859  0.6623
   30MOL0     H 3924   6.904   2.680   2.772 -1.0054 -1.4410  0.6041
   30MOL0     H 3925   6.731   2.598   2.938 -0.0033 -0.4546  0.5283
   30MOL0     H 3926   6.759   2.776   3.354  0.9960 -1.2343 -1.0874
   30MOL0     H 3927   6.611   2.692   3.363 -0.4223 -0.3935 -0.9555
   30MOL0     H 3928   6.615   2.929   3.163 -0.8222 -0.6452 -0.8705
   30MOL0     H 3929   6.582   2.950   3.334  1.2919 -0.2798 -0.0219
   30MOL0     H 3930   6.383   2.790   3.314 -0.2987 -0.9187 -0.4925
   30MOL0     H 3931   6.446   2.759   3.147 -0.7623 -1.0567  0.5665
   30MOL0     H 3932   6.316   3.004   3.275 -1.4539 -1.7082  0.1305
   30MOL0     H 3933   6.409   3.033   3.129 -0.2448  1.4466  2.3385
   30MOL0     H 3934   6.155   2.868   3.173  0.7757  1.1880  1.5919
   30MOL0     H 3935   6.255   2.850   3.020 -0.8982  1.0249 -0.7524
   30MOL0     H 3936   6.195   3.072   2.950 -2.7382 -0.1913 -1.9678
   30MOL0     H 3937   6.167   3.114   3.108  1.5869  1.1418 -3.2584
   30MOL0     H 3938   5.943   3.029   3.124 -0.3662 -1.5996  0.2164
   30MOL0     H 3939   5.966   3.102   2.960 -1.2233  0.0068  0.3559
   30MOL0     H 3940   5.990   2.872   2.859  0.7209  1.0616 -0.2753
   30MOL0     H 3941   5.834   2.909   2.919 -0.4465 -0.3981 -0.8586
   30MOL0     H 3942   6.876   2.888   3.223  3.4320 -1.5569 -0.1121
   30MOL0     H 3943   7.046   2.965   3.052 -0.9139  0.4363  0.5120
   30MOL0     H 3944   7.270   2.730   2.479  0.0047  0.0794  2.5433
   30MOL0     H 3945   7.428   2.903   2.359 -0.1462 -0.6512 -0.3973
   30MOL0     H 3946   8.886   4.167   1.614 -4.5556 -0.9388  2.3601
   30MOL0     H 3947   8.927   4.169   1.378 -1.1404  1.4127  2.4536
   30MOL0     H 3948   8.806   3.900   0.988 -0.6316  2.9742 -0.0500
   30MOL0     H 3949   8.818   3.858   0.741  1.1355 -0.9395 -0.7920
   30MOL0     H 3950   9.086   4.083   0.470  0.7908  0.4720 -0.1983
   30MOL0     H 3951   9.085   3.930   0.378  0.5382 -0.0153 -0.8654
   30MOL0     H 3952   9.262   3.910   0.604  3.1464  2.3931 -0.3503
   30MOL0     H 3953   9.260   3.845   0.436 -2.1707  1.4355 -3.4684
   30MOL0     H 3954   9.433   4.055   0.514  0.6146  2.0519  0.4706
   30MOL0     H 3955   9.298   4.161   0.509 -2.0907 -2.4027  2.1135
   30MOL0     H 3956   9.260   4.091   0.262  0.1331 -2.7003 -0.2746
   30MOL0     H 3957   9.415   4.169   0.292  0.7544 -0.6284 -1.6487
   30MOL0     H 3958   9.568   3.801   0.172  0.2539 -0.3736  0.6121
   30MOL0     H 3959   9.189   4.078   0.721 -0.0456  0.4598  0.0411
   30MOL0     H 3960   9.189   4.094   0.960  1.5521 -2.4770 -0.3637
   31MOL0     O 3961  10.941   1.829   8.734  0.7471 -0.9155 -0.6962
   31MOL0     C 3962  10.859   1.788   8.813 -0.0095 -0.1122 -0.1410
   31MOL0     O 3963  10.731   1.743   8.782 -0.6551 -0.5210  0.4753
   31MOL0     C 3964  10.697   1.730   8.654 -0.4099 -0.1786  0.6685
   31MOL0     C 3965  10.682   1.602   8.608 -0.2932  0.2633 -0.6903
   31MOL0     C 3966  10.644   1.582   8.476 -0.2201  0.0362  0.1188
   31MOL0     C 3967  10.608   1.680   8.385  0.4731  0.4453 -0.0785
   31MOL0     O 3968  10.566   1.637   8.255  0.5732 -0.5577 -1.2078
   31MOL0     C 3969  10.564   1.740   8.153 -0.2633 -0.1817 -0.2182
   31MOL0     C 3970  10.497   1.688   8.029  0.5974 -0.0272  0.2411
   31MOL0     C 3971  10.529   1.780   7.905  0.5156 -0.6456  0.8153
   31MOL0     C 3972  10.442   1.743   7.791 -0.0168  0.7771  0.3658
   31MOL0     C 3973  10.440   1.834   7.663  1.2923 -0.2479 -0.6673
   31MOL0     C 3974  10.380   1.754   7.545 -1.6071 -0.9324 -1.0806
   31MOL0     C 3975  10.337   1.839   7.423  0.8817  0.1526 -0.2528
   31MOL0     C 3976  10.454   1.911   7.349  0.2430  0.0067 -0.1805
   31MOL0     N 3977  10.551   1.822   7.293 -0.4187 -0.5529 -0.1977
   31MOL0     C 3978  10.529   1.724   7.201  1.3074 -0.7374 -0.4709
   31MOL0     C 3979  10.643   1.715   7.130 -0.9547  1.1544  0.9149
   31MOL0     C 3980  10.668   1.640   7.005  0.4897  0.4651 -0.2361
   31MOL0     C 3981  10.608   1.498   7.026 -0.1002  0.2801  0.3632
   31MOL0     C 3982  10.644   1.420   7.145  0.1463 -0.4771 -1.2384
   31MOL0     C 3983  10.787   1.433   7.193 -0.0347  0.1356 -0.9247
   31MOL0     O 3984  10.873   1.398   7.089  0.5872  0.0895  0.2479
   31MOL0     C 3985  11.011   1.401   7.097  0.5771  0.3935 -0.3704
   31MOL0     C 3986  11.101   1.389   6.986  0.6154  0.2729  0.1468
   31MOL0     C 3987  11.234   1.393   7.002 -1.0682 -0.5534 -0.2500
   31MOL0     C 3988  11.291   1.420   7.123 -0.1571 -0.6713 -1.3284
   31MOL0     C 3989  11.443   1.444   7.133  0.6274  0.9771 -0.3216
   31MOL0     O 3990  11.519   1.450   7.014  0.0192 -0.0196  0.6386
   31MOL0     C 3991  11.659   1.444   7.026  0.3374  0.2716 -0.1908
   31MOL0     C 3992  11.740   1.536   6.966  0.4934  0.5410 -0.0955
   31MOL0     C 3993  11.875   1.529   6.979 -0.3699 -0.1914  0.0320
   31MOL0     C 3994  11.930   1.426   7.053  0.3555 -0.8324  0.3778
   31MOL0     O 3995  12.066   1.424   7.063 -0.8512 -0.4554  0.5752
   31MOL0     C 3996  12.145   1.349   7.161  0.4196 -0.4676  0.0170
   31MOL0     C 3997  12.204   1.229   7.100 -0.0076  0.9028  0.1899
   31MOL0     C 3998  12.318   1.262   7.008 -1.1511  0.0858  0.2128
   31MOL0     C 3999  12.407   1.150   6.970  0.7035  0.7382  0.6213
   31MOL0     C 4000  12.502   1.185   6.863  0.7942  1.0892  0.8814
   31MOL0     C 4001  12.623   1.269   6.911 -0.5392 -0.3500  0.0282
   31MOL0     C 4002  12.722   1.324   6.810  0.1657 -0.4627 -0.0871
   31MOL0     C 4003  12.647   1.410   6.711  0.2391 -0.6467  0.1118
   31MOL0    Cl 4004  12.752   1.471   6.574  0.6375 -0.5738 -0.2461
   31MOL0     C 4005  11.854   1.332   7.110  0.4817 -0.1841 -0.0090
   31MOL0     C 4006  11.716   1.334   7.101 -1.0704 -0.6850  0.5382
   31MOL0     O 4007  11.492   1.430   7.244  0.0038 -0.1423 -0.0329
   31MOL0     C 4008  11.211   1.415   7.240  0.3794 -0.9171  0.8538
   31MOL0     C 4009  11.070   1.405   7.230  0.6304  0.3353 -0.4563
   31MOL0     N 4010  10.741   1.789   7.200 -0.7583  0.0743  0.2011
   31MOL0     N 4011  10.686   1.850   7.296 -1.0459  0.4363 -0.0799
   31MOL0     C 4012  10.629   1.811   8.432 -1.1270  0.1172  0.6292
   31MOL0     C 4013  10.668   1.841   8.563 -0.0792 -0.0184  0.1086
   31MOL0     C 4014  10.886   1.795   8.958 -0.1884 -0.3504 -0.0462
   31MOL0     C 4015  11.013   1.818   9.003  0.3619 -0.7136 -1.0907
   31MOL0     C 4016  11.044   1.807   9.142 -0.2469 -0.2052  0.6613
   31MOL0     C 4017  10.945   1.785   9.230  0.4505  0.0716 -0.5229
   31MOL0     O 4018  10.965   1.773   9.369 -0.9181  1.2072  0.3507
   31MOL0     C 4019  11.060   1.671   9.400 -0.8281 -0.8058 -0.6258
   31MOL0     C 4020  11.066   1.661   9.546 -0.1944 -0.3799 -1.4169
   31MOL0     C 4021  11.144   1.776   9.613 -0.4229  0.6860  0.8116
   31MOL0     C 4022  11.120   1.794   9.766 -0.2909  0.0853  0.7860
   31MOL0     C 4023  11.170   1.676   9.839 -0.2272 -0.6438 -0.6098
   31MOL0     C 4024  11.219   1.586   9.909 -0.6417  0.7632  0.7082
   31MOL0     C 4025  10.813   1.763   9.187  0.5471 -0.0052 -0.6539
   31MOL0     C 4026  10.788   1.761   9.052 -0.0010  0.0193  0.9377
   31MOL0     H 4027  10.702   1.516   8.671 -2.1243 -2.8460 -3.9894
   31MOL0     H 4028  10.624   1.485   8.431 -1.7645 -1.3275  3.3940
   31MOL0     H 4029  10.669   1.764   8.133  0.3641 -1.3220  1.5019
   31MOL0     H 4030  10.511   1.828   8.189  2.0861  0.3238  2.4084
   31MOL0     H 4031  10.388   1.690   8.040  0.5548 -1.3085  0.1791
   31MOL0     H 4032  10.517   1.581   8.012 -2.5768 -0.3750 -2.2664
   31MOL0     H 4033  10.634   1.776   7.873 -0.0624 -1.7588 -1.1369
   31MOL0     H 4034  10.512   1.882   7.941  2.2512  0.0307 -0.1403
   31MOL0     H 4035  10.471   1.639   7.770 -3.0432 -0.7439  2.9439
   31MOL0     H 4036  10.336   1.724   7.810  0.3187  1.9023  4.0095
   31MOL0     H 4037  10.544   1.856   7.641  2.3650 -4.3009 -0.4709
   31MOL0     H 4038  10.378   1.923   7.676  0.5300 -0.9557  0.8990
   31MOL0     H 4039  10.295   1.689   7.569 -0.6220 -1.3516  1.5660
   31MOL0     H 4040  10.464   1.691   7.517  1.0840  0.0975  3.6118
   31MOL0     H 4041  10.294   1.763   7.356  0.7601 -2.4125  2.5205
   31MOL0     H 4042  10.267   1.915   7.460  2.7546  0.4603  3.0427
   31MOL0     H 4043  10.505   1.986   7.410 -3.1911  1.5694  1.0685
   31MOL0     H 4044  10.410   1.971   7.269  1.4188 -0.6211 -1.3168
   31MOL0     H 4045  10.438   1.669   7.181  0.4667 -0.0444  1.2272
   31MOL0     H 4046  10.776   1.640   6.989  0.1447 -2.2215 -3.6776
   31MOL0     H 4047  10.620   1.686   6.918 -0.1540 -1.8183 -1.1605
   31MOL0     H 4048  10.641   1.433   6.944  2.6895 -0.4261  1.9085
   31MOL0     H 4049  10.499   1.503   7.016 -0.0714  3.2536  0.7414
   31MOL0     H 4050  10.572   1.441   7.226  2.3564 -1.8529  1.2476
   31MOL0     H 4051  10.614   1.318   7.120 -3.2178  0.2888 -0.8684
   31MOL0     H 4052  10.803   1.359   7.272  1.5251  0.7814 -0.6037
   31MOL0     H 4053  10.810   1.536   7.220 -3.5660  0.4806  1.4005
   31MOL0     H 4054  11.048   1.376   6.892  1.1855  2.7441 -0.5788
   31MOL0     H 4055  11.301   1.411   6.918 -1.1031  3.5672  0.3955
   31MOL0     H 4056  11.700   1.615   6.903 -2.3004  0.3796  1.3134
   31MOL0     H 4057  11.946   1.600   6.939 -1.2157  1.2883  1.0512
   31MOL0     H 4058  12.087   1.319   7.249 -2.1939 -2.4631 -2.2290
   31MOL0     H 4059  12.227   1.417   7.187  0.9459 -1.3879  0.8570
   31MOL0     H 4060  12.133   1.171   7.039  0.8687  0.8913 -0.8362
   31MOL0     H 4061  12.232   1.160   7.181 -1.6647 -0.7121 -0.5375
   31MOL0     H 4062  12.380   1.329   7.067 -2.3311  0.8104  0.6781
   31MOL0     H 4063  12.276   1.313   6.921 -0.3264  1.6737  0.7022
   31MOL0     H 4064  12.455   1.094   7.051  0.0553  0.6805  0.9711
   31MOL0     H 4065  12.343   1.077   6.919 -0.7003  1.6718  0.9971
   31MOL0     H 4066  12.449   1.225   6.776 -3.9417 -3.3822  1.2181
   31MOL0     H 4067  12.547   1.096   6.820 -0.6946  1.1950 -1.0616
   31MOL0     H 4068  12.674   1.198   6.977  0.0726  0.4857  0.4744
   31MOL0     H 4069  12.584   1.354   6.969  0.9204  2.6309 -3.0065
   31MOL0     H 4070  12.807   1.386   6.839  0.1457  0.1606 -1.3016
   31MOL0     H 4071  12.763   1.238   6.756 -1.4483 -2.2479  1.3779
   31MOL0     H 4072  12.608   1.501   6.757 -2.1366 -1.8579  0.6641
   31MOL0     H 4073  12.558   1.366   6.666 -0.5441  1.3227 -0.3805
   31MOL0     H 4074  11.907   1.256   7.165 -2.3508 -0.4009  2.6966
   31MOL0     H 4075  11.654   1.264   7.157  1.4591 -3.1363  0.4826
   31MOL0     H 4076  11.265   1.418   7.334 -2.8162 -1.5833  2.8389
   31MOL0     H 4077  11.007   1.393   7.317 -1.3343 -0.4418 -1.9239
   31MOL0     H 4078  10.608   1.897   8.369 -1.3988 -0.3916  0.0050
   31MOL0     H 4079  10.683   1.945   8.593  1.9915 -0.4795  0.8273
   31MOL0     H 4080  11.102   1.820   8.941 -0.0673  0.8706 -1.7138
   31MOL0     H 4081  11.148   1.814   9.173  0.0243 -0.9034 -0.0600
   31MOL0     H 4082  11.162   1.680   9.363  0.6028 -2.0303  2.6462
   31MOL0     H 4083  11.023   1.577   9.359 -0.8287 -2.6532  3.1934
   31MOL0     H 4084  10.965   1.659   9.588  0.2733 -1.7901 -0.2772
   31MOL0     H 4085  11.102   1.563   9.577  0.7897 -0.4087 -2.5915
   31MOL0     H 4086  11.116   1.865   9.557 -1.3968 -1.3938 -2.2176
   31MOL0     H 4087  11.251   1.756   9.607 -0.5622 -1.6914  3.7023
   31MOL0     H 4088  11.181   1.880   9.797  3.5557 -1.0014 -2.7545
   31MOL0     H 4089  11.018   1.811   9.801  0.1778  1.3065  1.6438
   31MOL0     H 4090  11.250   1.504   9.971 -2.8255 -0.1478  0.6666
   31MOL0     H 4091  10.739   1.739   9.262 -0.6010  4.4160 -0.1433
   31MOL0     H 4092  10.688   1.743   9.016  0.4980  1.7812 -1.5628
   32MOL0     O 4093   7.943   8.415   6.629  0.1335  0.2811  0.7110
   32MOL0     C 4094   7.920   8.479   6.734  0.4019  0.1183  0.4821
   32MOL0     O 4095   7.985   8.462   6.856  0.1836 -0.6369 -0.2251
   32MOL0     C 4096   8.059   8.355   6.900 -0.4266  0.4843  0.0333
   32MOL0     C 4097   8.050   8.226   6.841 -0.2131  0.0993 -0.3241
   32MOL0     C 4098   8.119   8.117   6.893  0.1709  0.7165 -0.1479
   32MOL0     C 4099   8.178   8.128   7.018  0.9780  0.9675 -1.4963
   32MOL0     O 4100   8.239   8.015   7.080  0.2105  0.1261 -0.0669
   32MOL0     C 4101   8.319   8.016   7.196  0.4258 -0.5206 -1.1561
   32MOL0     C 4102   8.318   7.875   7.259 -0.4699 -0.4260  0.7886
   32MOL0     C 4103   8.452   7.858   7.327  0.7700  0.3477  0.5273
   32MOL0     C 4104   8.457   7.716   7.389 -0.6103  0.3733 -0.3252
   32MOL0     C 4105   8.565   7.709   7.502  0.2527 -0.1969 -0.9574
   32MOL0     C 4106   8.540   7.587   7.586  0.5325  0.6419  0.0282
   32MOL0     C 4107   8.659   7.571   7.680  0.2356  0.5596  0.1282
   32MOL0     C 4108   8.689   7.436   7.724  1.0210  0.3802 -0.4385
   32MOL0     N 4109   8.571   7.365   7.772 -0.0213 -0.1162  0.6556
   32MOL0     C 4110   8.495   7.284   7.685 -0.3532 -0.6752  0.2029
   32MOL0     C 4111   8.378   7.275   7.762  0.2437 -0.8212  0.0639
   32MOL0     C 4112   8.247   7.207   7.733 -0.2706 -1.1518  0.5541
   32MOL0     C 4113   8.187   7.267   7.607  0.0230  0.2569 -0.1728
   32MOL0     C 4114   8.168   7.417   7.620  0.7230 -0.9802  0.9764
   32MOL0     C 4115   8.146   7.489   7.493  0.2987  0.5618 -0.2281
   32MOL0     O 4116   8.114   7.629   7.523  0.6142  0.0028 -0.0265
   32MOL0     C 4117   7.982   7.659   7.512 -0.2587  0.4491 -0.5647
   32MOL0     C 4118   7.944   7.794   7.476  0.0108  0.3509 -0.1290
   32MOL0     C 4119   7.812   7.824   7.455  0.2033  0.3180 -1.0719
   32MOL0     C 4120   7.705   7.735   7.495  0.8379 -0.0304  1.0663
   32MOL0     C 4121   7.561   7.781   7.484 -0.6938  0.2061 -0.6234
   32MOL0     O 4122   7.540   7.913   7.439  0.4222 -0.1774  0.0739
   32MOL0     C 4123   7.408   7.971   7.440  0.3281  0.1914 -0.0212
   32MOL0     C 4124   7.307   7.950   7.536 -0.4490 -0.4270 -0.8455
   32MOL0     C 4125   7.192   8.020   7.540 -0.4205 -0.0574  0.2262
   32MOL0     C 4126   7.164   8.118   7.437  0.2410 -0.3073  0.6605
   32MOL0     O 4127   7.048   8.194   7.427  0.2915  0.1640  0.5753
   32MOL0     C 4128   6.929   8.130   7.481 -0.1443 -0.1578 -0.6474
   32MOL0     C 4129   6.808   8.215   7.440 -0.0166  0.1362 -0.1660
   32MOL0     C 4130   6.678   8.149   7.459  0.9329  0.9554 -1.0925
   32MOL0     C 4131   6.566   8.238   7.404 -0.4241  0.3901 -0.8962
   32MOL0     C 4132   6.427   8.215   7.463 -1.4196 -0.2029 -0.5543
   32MOL0     C 4133   6.330   8.297   7.383 -0.0072 -0.0115  0.3802
   32MOL0     C 4134   6.186   8.298   7.437 -0.6578  0.2826 -0.2832
   32MOL0     C 4135   6.172   8.400   7.544  0.3881  0.8732 -0.8868
   32MOL0    Cl 4136   6.205   8.559   7.486 -0.3695  0.0879  0.1669
   32MOL0     C 4137   7.262   8.139   7.343  0.9177 -0.4199 -0.1500
   32MOL0     C 4138   7.382   8.060   7.335  0.5844 -0.6086  0.7571
   32MOL0     O 4139   7.479   7.698   7.528  0.1845 -0.8883  1.1715
   32MOL0     C 4140   7.741   7.607   7.547 -0.1847 -0.0094  0.6843
   32MOL0     C 4141   7.878   7.570   7.552  0.3253  0.2071 -0.2422
   32MOL0     N 4142   8.394   7.329   7.892 -0.6490  0.1714  1.3127
   32MOL0     N 4143   8.513   7.388   7.897 -0.1225  0.3578 -0.2629
   32MOL0     C 4144   8.176   8.252   7.087 -0.5038 -0.1658  0.1089
   32MOL0     C 4145   8.126   8.367   7.020  0.2150  0.5726  0.1596
   32MOL0     C 4146   7.814   8.588   6.731 -1.4654  0.0830 -0.2749
   32MOL0     C 4147   7.797   8.671   6.845  0.2150  0.8127 -0.0722
   32MOL0     C 4148   7.692   8.766   6.833 -0.2490 -0.4077 -1.0046
   32MOL0     C 4149   7.614   8.781   6.718 -0.6691 -0.4559 -0.1932
   32MOL0     O 4150   7.511   8.872   6.739  0.6433  0.4972  0.4434
   32MOL0     C 4151   7.465   8.939   6.617 -0.0138  0.1756 -0.4491
   32MOL0     C 4152   7.346   8.877   6.553 -0.6057 -0.1237 -1.1598
   32MOL0     C 4153   7.279   8.941   6.434 -0.1463 -0.8681  0.7541
   32MOL0     C 4154   7.145   8.885   6.395 -0.5058  0.1637  0.6135
   32MOL0     C 4155   7.034   8.911   6.488  0.5418 -0.5287 -0.1437
   32MOL0     C 4156   6.934   8.933   6.555  0.6020  0.2949 -0.0519
   32MOL0     C 4157   7.648   8.704   6.607 -0.2489 -0.5523 -0.1428
   32MOL0     C 4158   7.750   8.609   6.610 -0.6317 -0.1025  0.8548
   32MOL0     H 4159   7.981   8.221   6.758 -3.4755  2.7232  1.9331
   32MOL0     H 4160   8.129   8.018   6.850  0.4865  0.8515 -0.3972
   32MOL0     H 4161   8.277   8.072   7.280 -2.7317 -2.2704 -1.3841
   32MOL0     H 4162   8.418   8.051   7.166 -0.0777  1.7829 -0.3596
   32MOL0     H 4163   8.298   7.798   7.184 -1.8986  1.2006 -0.5699
   32MOL0     H 4164   8.247   7.866   7.342  2.2433 -0.8237  3.1994
   32MOL0     H 4165   8.477   7.935   7.400  2.2531 -1.5005  2.0682
   32MOL0     H 4166   8.533   7.872   7.255  0.8490 -0.7663  0.3856
   32MOL0     H 4167   8.360   7.715   7.438  0.0953 -1.8349  1.1725
   32MOL0     H 4168   8.477   7.630   7.325  2.1782 -1.9574  3.2444
   32MOL0     H 4169   8.560   7.805   7.555  2.0653 -0.6254  0.0775
   32MOL0     H 4170   8.662   7.696   7.454  0.3536 -0.7820 -0.6029
   32MOL0     H 4171   8.531   7.501   7.520  2.6952  0.7111 -0.4475
   32MOL0     H 4172   8.449   7.592   7.646  1.4706  0.9571  1.4966
   32MOL0     H 4173   8.752   7.598   7.629 -1.6845  2.8932 -2.4518
   32MOL0     H 4174   8.647   7.622   7.776  1.7695  2.3124 -0.5514
   32MOL0     H 4175   8.755   7.430   7.812  0.3094 -1.2799  0.0183
   32MOL0     H 4176   8.730   7.376   7.643  2.9751  0.7486  0.1940
   32MOL0     H 4177   8.509   7.268   7.579 -2.7830  1.9506 -0.6387
   32MOL0     H 4178   8.184   7.201   7.822  0.6289 -0.8264  1.2241
   32MOL0     H 4179   8.270   7.101   7.713 -0.2096 -1.7735  3.4874
   32MOL0     H 4180   8.087   7.223   7.601  1.0371 -2.2037 -0.0788
   32MOL0     H 4181   8.227   7.236   7.510  1.4792 -2.0289  1.0602
   32MOL0     H 4182   8.078   7.426   7.682 -1.2414 -1.9607 -1.5774
   32MOL0     H 4183   8.249   7.471   7.670 -0.5264  0.2137  1.7961
   32MOL0     H 4184   8.063   7.444   7.436 -1.1945  2.2471  0.5060
   32MOL0     H 4185   8.236   7.471   7.434 -1.4750 -2.2796 -2.3599
   32MOL0     H 4186   8.023   7.867   7.459 -0.4721  1.0962  0.7537
   32MOL0     H 4187   7.789   7.921   7.409 -1.0218  1.1034  1.0544
   32MOL0     H 4188   7.325   7.899   7.631  1.4001 -0.8373 -1.3687
   32MOL0     H 4189   7.125   8.004   7.624  2.6517  1.1012  3.1816
   32MOL0     H 4190   6.937   8.126   7.590 -0.3677 -1.0616 -0.6640
   32MOL0     H 4191   6.933   8.034   7.428  1.6796  0.1644 -1.1777
   32MOL0     H 4192   6.828   8.245   7.337  0.9934  0.1708  0.0287
   32MOL0     H 4193   6.806   8.312   7.491  0.1175  1.0307 -1.8099
   32MOL0     H 4194   6.661   8.126   7.564 -0.2859  2.3860 -0.9465
   32MOL0     H 4195   6.686   8.058   7.399  0.0216 -0.3343  0.6446
   32MOL0     H 4196   6.598   8.340   7.426  1.6779 -0.3750 -0.0943
   32MOL0     H 4197   6.544   8.222   7.298 -3.1505 -2.7166 -0.0136
   32MOL0     H 4198   6.441   8.232   7.570 -1.1560  2.6586 -0.9690
   32MOL0     H 4199   6.403   8.108   7.459  0.9000 -0.8315  0.1926
   32MOL0     H 4200   6.331   8.266   7.278 -0.0483 -0.3726  0.4849
   32MOL0     H 4201   6.364   8.400   7.395  3.0020 -0.9571  0.6837
   32MOL0     H 4202   6.125   8.319   7.349 -0.7895  1.3733  0.0533
   32MOL0     H 4203   6.154   8.202   7.479  0.3110 -0.6716 -1.6445
   32MOL0     H 4204   6.223   8.369   7.636 -1.3683 -0.3718 -0.2797
   32MOL0     H 4205   6.064   8.401   7.557  0.4990 -0.1619  0.2488
   32MOL0     H 4206   7.240   8.221   7.275 -2.0688 -1.5632 -0.7401
   32MOL0     H 4207   7.461   8.081   7.263  0.2964 -2.1368 -0.0469
   32MOL0     H 4208   7.679   7.520   7.566 -0.5764 -0.5197 -2.4576
   32MOL0     H 4209   7.886   7.467   7.586 -2.3302  0.7318  2.4679
   32MOL0     H 4210   8.227   8.277   7.180  2.1457  0.4997 -1.4241
   32MOL0     H 4211   8.124   8.465   7.066  0.3071 -0.1309  1.7342
   32MOL0     H 4212   7.871   8.669   6.925 -0.2021 -0.0468  0.3060
   32MOL0     H 4213   7.678   8.826   6.922 -1.3189 -0.9979 -0.7539
   32MOL0     H 4214   7.552   8.949   6.551  0.9002 -3.2589  0.0292
   32MOL0     H 4215   7.421   9.035   6.645 -1.4319 -1.3084  2.9133
   32MOL0     H 4216   7.357   8.770   6.533 -0.7136 -0.6742  1.3273
   32MOL0     H 4217   7.273   8.884   6.635  0.8357  2.7039  0.0264
   32MOL0     H 4218   7.356   8.931   6.357 -0.2233 -1.9844  0.8128
   32MOL0     H 4219   7.264   9.048   6.454  0.2804 -1.1200  2.6341
   32MOL0     H 4220   7.124   8.935   6.300  1.0308  2.9874  1.6551
   32MOL0     H 4221   7.158   8.777   6.383  0.2581  0.2427  0.6349
   32MOL0     H 4222   6.848   8.965   6.610 -0.2447 -1.0718 -0.5124
   32MOL0     H 4223   7.581   8.720   6.523  1.8119  1.8904 -1.4434
   32MOL0     H 4224   7.769   8.541   6.528 -2.2289 -0.7105  0.9505
   33MOL0     O 4225   6.354   3.662   1.590 -0.5438 -0.3236  0.2668
   33MOL0     C 4226   6.475   3.635   1.602  0.4711 -0.6591 -0.6639
   33MOL0     O 4227   6.533   3.516   1.639 -0.4031  0.3382 -0.2041
   33MOL0     C 4228   6.450   3.413   1.650  0.7685 -0.6162  0.4701
   33MOL0     C 4229   6.444   3.311   1.551 -1.0129 -0.3887  0.3934
   33MOL0     C 4230   6.383   3.182   1.576 -0.4528  0.3233  0.4590
   33MOL0     C 4231   6.309   3.165   1.694 -0.2705 -0.0114 -0.6244
   33MOL0     O 4232   6.259   3.038   1.722  0.3285 -0.3407  0.2049
   33MOL0     C 4233   6.116   3.028   1.719 -0.6118  0.2170 -0.2683
   33MOL0     C 4234   6.058   2.900   1.793  0.2327 -0.1270  0.3898
   33MOL0     C 4235   6.132   2.779   1.735  0.2968 -0.6334 -0.7540
   33MOL0     C 4236   6.084   2.649   1.799 -0.1421  0.1832  0.9347
   33MOL0     C 4237   6.190   2.540   1.798  1.2409  1.4191  0.1025
   33MOL0     C 4238   6.310   2.547   1.894 -0.1625 -0.3165 -0.6996
   33MOL0     C 4239   6.288   2.513   2.039 -1.1222  0.7582  0.5009
   33MOL0     C 4240   6.232   2.630   2.122 -0.0404 -0.2357  0.1204
   33MOL0     N 4241   6.314   2.655   2.239  0.1307  0.2578  0.2960
   33MOL0     C 4242   6.449   2.692   2.245 -0.0604  0.9556 -0.2026
   33MOL0     C 4243   6.484   2.638   2.367 -0.8234 -0.7301  0.1578
   33MOL0     C 4244   6.628   2.632   2.439 -0.5517  0.0933  0.0319
   33MOL0     C 4245   6.690   2.767   2.419  0.2026  0.4488 -0.4697
   33MOL0     C 4246   6.779   2.811   2.541  0.2193 -0.1566  0.1707
   33MOL0     C 4247   6.791   2.957   2.538  0.9018 -0.3864  0.0991
   33MOL0     O 4248   6.864   2.995   2.418 -0.0582 -0.0376 -0.5538
   33MOL0     C 4249   6.930   3.117   2.414  0.2092 -0.3404  0.0615
   33MOL0     C 4250   7.036   3.137   2.317 -0.5534  0.8528  0.3935
   33MOL0     C 4251   7.099   3.257   2.283 -1.2274  0.1738 -0.2586
   33MOL0     C 4252   7.068   3.366   2.357  0.7171  0.1376 -0.5673
   33MOL0     C 4253   7.135   3.498   2.363  0.1019  0.0204 -0.0447
   33MOL0     O 4254   7.201   3.533   2.252 -0.1267 -0.1866 -0.4639
   33MOL0     C 4255   7.280   3.641   2.257  0.1551 -0.2634 -0.3842
   33MOL0     C 4256   7.225   3.767   2.230 -0.3438 -0.4040 -0.6365
   33MOL0     C 4257   7.302   3.881   2.248 -0.3841  0.5894 -1.1508
   33MOL0     C 4258   7.437   3.867   2.289 -0.3484 -0.4057 -0.0167
   33MOL0     O 4259   7.507   3.994   2.293  0.3878  0.1165 -0.0329
   33MOL0     C 4260   7.640   3.991   2.352 -0.1696 -0.6543  0.0119
   33MOL0     C 4261   7.694   4.135   2.363 -0.6097  0.2063 -0.2584
   33MOL0     C 4262   7.842   4.141   2.401 -0.6495  0.1862 -0.0925
   33MOL0     C 4263   7.884   4.287   2.413  0.7799 -0.6571  0.9305
   33MOL0     C 4264   8.020   4.306   2.485  0.4770 -0.3472  0.5038
   33MOL0     C 4265   8.006   4.297   2.635  0.1817  0.2608  0.2023
   33MOL0     C 4266   8.133   4.327   2.716 -0.4050  0.4119  0.3707
   33MOL0     C 4267   8.108   4.301   2.862  0.3664 -0.0525  0.5479
   33MOL0    Cl 4268   8.271   4.293   2.948  0.2686  0.0680  0.4884
   33MOL0     C 4269   7.492   3.741   2.298 -0.5575  0.0920  0.2551
   33MOL0     C 4270   7.409   3.628   2.293 -0.4295 -0.3007  0.5955
   33MOL0     O 4271   7.139   3.552   2.475  1.0555 -0.4245  1.0395
   33MOL0     C 4272   6.961   3.350   2.452 -0.0966 -0.5295 -0.1318
   33MOL0     C 4273   6.895   3.234   2.480 -0.3515  1.4475  0.4388
   33MOL0     N 4274   6.376   2.579   2.429  1.2298 -0.4220  0.2764
   33MOL0     N 4275   6.276   2.591   2.358  0.0377 -0.5909 -1.2107
   33MOL0     C 4276   6.288   3.282   1.778 -0.1052 -0.9369  0.0925
   33MOL0     C 4277   6.358   3.396   1.759 -0.0274  0.1375  1.2930
   33MOL0     C 4278   6.561   3.752   1.570  0.3124 -0.6482  0.3060
   33MOL0     C 4279   6.700   3.730   1.585  0.0689  0.0555  0.9531
   33MOL0     C 4280   6.792   3.837   1.580 -0.3438  0.3733 -0.6160
   33MOL0     C 4281   6.746   3.969   1.545 -0.5705  0.4224 -0.2990
   33MOL0     O 4282   6.834   4.072   1.523  0.5714 -0.0663  0.2724
   33MOL0     C 4283   6.889   4.066   1.394 -0.1880  0.0485 -0.2935
   33MOL0     C 4284   6.993   4.172   1.396  0.3149 -0.0834 -0.9718
   33MOL0     C 4285   7.104   4.143   1.506 -0.6957  0.0406  0.3593
   33MOL0     C 4286   7.236   4.230   1.490  0.2042  0.5975 -0.2596
   33MOL0     C 4287   7.340   4.174   1.578  0.5094 -0.1441  0.3532
   33MOL0     C 4288   7.413   4.121   1.661 -0.0201 -0.1307  1.1966
   33MOL0     C 4289   6.607   3.991   1.535  0.3664  0.2337 -0.7141
   33MOL0     C 4290   6.515   3.886   1.563  0.4426 -0.0197  0.2602
   33MOL0     H 4291   6.530   3.328   1.487  1.0864 -2.9603  2.3139
   33MOL0     H 4292   6.380   3.091   1.517 -4.9863 -1.5850  3.0855
   33MOL0     H 4293   6.091   3.027   1.612  3.7943 -1.4713 -1.5216
   33MOL0     H 4294   6.074   3.117   1.767  1.5249  2.1435 -1.7643
   33MOL0     H 4295   5.953   2.902   1.763 -0.1757 -3.2258  1.2903
   33MOL0     H 4296   6.073   2.909   1.901 -0.4878 -0.2230  0.5000
   33MOL0     H 4297   6.237   2.803   1.751  0.5362 -1.5293 -0.9477
   33MOL0     H 4298   6.114   2.780   1.627 -1.1890  1.0502 -0.5444
   33MOL0     H 4299   6.049   2.674   1.900 -2.0682 -0.3346  0.4323
   33MOL0     H 4300   5.994   2.626   1.742  0.2250  0.7386  0.1173
   33MOL0     H 4301   6.229   2.542   1.696 -0.6751 -0.0371 -0.7320
   33MOL0     H 4302   6.133   2.449   1.819  1.1559  1.7290  1.2883
   33MOL0     H 4303   6.361   2.643   1.892  0.0148 -0.3286  1.4230
   33MOL0     H 4304   6.379   2.468   1.862  0.3733 -0.0070 -0.3164
   33MOL0     H 4305   6.225   2.423   2.042 -0.1867  0.0206 -0.7599
   33MOL0     H 4306   6.384   2.483   2.083  0.5651  4.2464 -0.4684
   33MOL0     H 4307   6.133   2.601   2.159 -0.6863  2.0237  0.3440
   33MOL0     H 4308   6.222   2.725   2.068  3.2535 -0.1556 -0.5308
   33MOL0     H 4309   6.513   2.724   2.164  0.3064 -1.6537 -1.0250
   33MOL0     H 4310   6.693   2.560   2.388 -0.4000  1.1696 -1.3563
   33MOL0     H 4311   6.625   2.607   2.545  1.2483  0.9253  0.3288
   33MOL0     H 4312   6.618   2.847   2.402  2.3083  3.1740  2.3060
   33MOL0     H 4313   6.756   2.768   2.332  1.9534  2.9169  0.7714
   33MOL0     H 4314   6.725   2.776   2.629 -1.8474  0.0320 -0.9425
   33MOL0     H 4315   6.877   2.762   2.536 -0.0199 -0.5361 -2.2335
   33MOL0     H 4316   6.839   2.998   2.627  0.3395  0.9631 -0.1865
   33MOL0     H 4317   6.693   3.005   2.538  0.2328 -1.6661 -1.1980
   33MOL0     H 4318   7.055   3.047   2.260 -2.1975  0.1765  0.8361
   33MOL0     H 4319   7.175   3.271   2.207 -1.6551  3.9265 -0.1976
   33MOL0     H 4320   7.119   3.785   2.210 -0.4059  2.5284  1.5808
   33MOL0     H 4321   7.263   3.981   2.231 -2.7971 -0.2939 -1.2346
   33MOL0     H 4322   7.708   3.934   2.288  0.4922 -1.3841  1.3140
   33MOL0     H 4323   7.642   3.954   2.455 -3.5757  2.6759  1.5302
   33MOL0     H 4324   7.634   4.194   2.432 -0.7310 -2.2402  1.8973
   33MOL0     H 4325   7.690   4.175   2.261 -1.1709  0.7373 -0.0298
   33MOL0     H 4326   7.911   4.090   2.334  2.0590  1.9345  1.1775
   33MOL0     H 4327   7.877   4.101   2.497  2.1318 -1.7732 -1.8140
   33MOL0     H 4328   7.901   4.303   2.306  0.1585 -1.3375  0.7154
   33MOL0     H 4329   7.805   4.353   2.450  0.7600 -1.6053  2.7054
   33MOL0     H 4330   8.058   4.408   2.471 -0.0616 -0.0783  0.9279
   33MOL0     H 4331   8.087   4.230   2.445  0.7886  0.2196 -0.0781
   33MOL0     H 4332   7.982   4.193   2.660  0.2807  0.0594 -0.5149
   33MOL0     H 4333   7.927   4.367   2.664 -0.0176 -0.0218  0.3446
   33MOL0     H 4334   8.216   4.272   2.671  0.0170  2.4260 -1.4942
   33MOL0     H 4335   8.161   4.433   2.720  1.5543 -0.1065  1.5500
   33MOL0     H 4336   8.064   4.202   2.870 -1.7415  0.6771 -1.0783
   33MOL0     H 4337   8.042   4.378   2.902 -0.7090 -0.4004 -0.4844
   33MOL0     H 4338   7.599   3.725   2.314 -0.6268  0.3689  1.0378
   33MOL0     H 4339   7.447   3.529   2.316 -0.5535 -0.9188 -1.5833
   33MOL0     H 4340   6.931   3.439   2.506 -1.3189 -0.1401 -1.3855
   33MOL0     H 4341   6.809   3.229   2.546  0.6787 -0.0384  1.7607
   33MOL0     H 4342   6.220   3.285   1.862  2.0785  2.9817  1.9864
   33MOL0     H 4343   6.356   3.478   1.829 -0.3622  0.5621  0.7912
   33MOL0     H 4344   6.744   3.633   1.605 -0.0352 -0.9086 -2.7376
   33MOL0     H 4345   6.892   3.826   1.618 -1.3236 -1.2522  1.6793
   33MOL0     H 4346   6.805   4.092   1.328 -0.1521 -0.3126 -0.4786
   33MOL0     H 4347   6.937   3.969   1.382  2.0171  0.4347  3.5869
   33MOL0     H 4348   7.035   4.190   1.297  2.2446  2.4038  0.1538
   33MOL0     H 4349   6.939   4.264   1.420 -2.5816 -2.1050  1.0487
   33MOL0     H 4350   7.127   4.036   1.502  4.9757  0.8992  1.3313
   33MOL0     H 4351   7.062   4.159   1.606  0.3158  0.4160  0.7402
   33MOL0     H 4352   7.267   4.212   1.387 -1.8341 -0.3348 -0.7413
   33MOL0     H 4353   7.218   4.337   1.509 -0.7842  0.1883  1.2813
   33MOL0     H 4354   7.477   4.057   1.718  1.9926 -0.6042 -1.3790
   33MOL0     H 4355   6.591   4.088   1.488  1.2155  1.4095  1.3029
   33MOL0     H 4356   6.411   3.908   1.545  0.8373 -0.0119 -2.4132
   34MOL0     O 4357   6.609   5.040   3.857  0.2127  0.6382 -0.7487
   34MOL0     C 4358   6.552   4.946   3.796 -0.4561  1.1682 -0.0179
   34MOL0     O 4359   6.612   4.829   3.767  0.0967 -0.6918  0.3101
   34MOL0     C 4360   6.719   4.776   3.827  0.8227 -0.6398  0.6087
   34MOL0     C 4361   6.775   4.662   3.760  0.2015  0.2604 -0.0575
   34MOL0     C 4362   6.893   4.613   3.813 -0.0580  1.0445  0.3826
   34MOL0     C 4363   6.947   4.654   3.935 -0.0477 -0.3250 -0.1658
   34MOL0     O 4364   7.067   4.599   3.987 -0.4865  0.0213  1.2656
   34MOL0     C 4365   7.121   4.647   4.111 -0.7966 -0.3448  0.9556
   34MOL0     C 4366   7.247   4.571   4.136 -0.2330  0.3721 -0.9248
   34MOL0     C 4367   7.359   4.565   4.034 -0.2635  0.5028  0.6354
   34MOL0     C 4368   7.381   4.696   3.953  0.0293  0.5663 -0.8154
   34MOL0     C 4369   7.490   4.668   3.847 -0.2613  0.3429 -0.3155
   34MOL0     C 4370   7.636   4.646   3.894  0.2831 -0.5117  0.4975
   34MOL0     C 4371   7.744   4.652   3.780  0.0019 -0.2420 -0.2283
   34MOL0     C 4372   7.754   4.524   3.699  0.2708  0.9970  0.5692
   34MOL0     N 4373   7.854   4.536   3.588  0.4264 -0.0168  0.1873
   34MOL0     C 4374   7.851   4.623   3.479 -0.1556  0.3330 -0.2558
   34MOL0     C 4375   7.946   4.569   3.394  0.2421 -0.0068 -1.0811
   34MOL0     C 4376   7.960   4.619   3.256  0.3464 -0.0527 -0.6819
   34MOL0     C 4377   8.107   4.599   3.215 -0.6970 -0.0091  0.0312
   34MOL0     C 4378   8.159   4.686   3.092  0.0587  0.2413  0.2790
   34MOL0     C 4379   8.065   4.682   2.971  0.6023  0.6033  0.7042
   34MOL0     O 4380   8.125   4.785   2.888  0.3543  0.6561  0.4446
   34MOL0     C 4381   8.077   4.800   2.759 -1.4617  0.1718 -1.3433
   34MOL0     C 4382   7.975   4.729   2.691  0.1467  0.3036 -0.2136
   34MOL0     C 4383   7.932   4.767   2.565 -0.1323 -1.3465  0.4300
   34MOL0     C 4384   7.994   4.877   2.503  0.9419  0.2416  0.6113
   34MOL0     C 4385   7.953   4.904   2.363  0.4846 -0.1173 -0.9200
   34MOL0     O 4386   7.829   4.872   2.322 -0.2936  0.7212  0.0521
   34MOL0     C 4387   7.790   4.865   2.185 -0.2576 -0.1361  0.3022
   34MOL0     C 4388   7.854   4.944   2.076 -0.8585  0.4044 -0.0360
   34MOL0     C 4389   7.820   4.925   1.943 -0.6679 -0.1194  0.7835
   34MOL0     C 4390   7.716   4.833   1.912  0.2196  0.4279 -0.2184
   34MOL0     O 4391   7.671   4.841   1.776  0.2297 -0.2213  0.0032
   34MOL0     C 4392   7.690   4.730   1.689  0.9158 -0.3356  0.0602
   34MOL0     C 4393   7.834   4.733   1.641 -0.0116  0.6720  0.4714
   34MOL0     C 4394   7.857   4.616   1.546 -0.2401 -0.7904  0.2497
   34MOL0     C 4395   7.933   4.507   1.621  0.8628 -0.2725 -0.3576
   34MOL0     C 4396   7.953   4.378   1.547 -0.1981  0.7410 -0.2148
   34MOL0     C 4397   7.825   4.313   1.503  0.9712 -0.2525 -1.0918
   34MOL0     C 4398   7.829   4.179   1.426 -0.4015  0.0249 -0.6051
   34MOL0     C 4399   7.837   4.054   1.525 -0.7890  0.4311  0.9675
   34MOL0    Cl 4400   7.988   4.038   1.604 -0.2412  0.0346 -0.0251
   34MOL0     C 4401   7.661   4.747   2.017 -0.6620  0.5287 -0.0045
   34MOL0     C 4402   7.680   4.778   2.155  0.3200 -0.1306 -0.3306
   34MOL0     O 4403   8.044   4.954   2.294  0.3426 -0.5044  0.1585
   34MOL0     C 4404   8.088   4.950   2.573  0.4146  0.2042 -0.2639
   34MOL0     C 4405   8.123   4.916   2.699  0.5397  0.5872  0.5803
   34MOL0     N 4406   8.008   4.458   3.455  0.7762 -0.9317 -0.4016
   34MOL0     N 4407   7.942   4.441   3.569 -0.3146  0.3111 -0.3260
   34MOL0     C 4408   6.872   4.754   4.002 -0.0788 -0.1486 -0.3932
   34MOL0     C 4409   6.766   4.813   3.952 -0.0502  1.1293  0.3429
   34MOL0     C 4410   6.432   4.971   3.717 -0.3228  0.5033 -0.3961
   34MOL0     C 4411   6.356   4.863   3.656 -1.3353  0.0552 -0.0801
   34MOL0     C 4412   6.243   4.896   3.579 -0.2506 -0.4286 -0.2401
   34MOL0     C 4413   6.198   5.026   3.558  0.4323  0.3252 -0.6147
   34MOL0     O 4414   6.098   5.033   3.467 -0.0741 -0.4750  0.6981
   34MOL0     C 4415   6.043   5.165   3.458 -0.3593  0.1338  0.7329
   34MOL0     C 4416   5.940   5.164   3.344 -0.5346 -0.3770 -0.4612
   34MOL0     C 4417   5.862   5.289   3.340  0.1215  0.5078  0.6322
   34MOL0     C 4418   5.742   5.286   3.439 -0.1565  0.3125 -0.3081
   34MOL0     C 4419   5.639   5.393   3.411  0.2999 -0.9611 -0.7991
   34MOL0     C 4420   5.555   5.478   3.398 -2.0775 -0.9015 -0.1157
   34MOL0     C 4421   6.257   5.129   3.647  0.2559 -0.8380  0.1068
   34MOL0     C 4422   6.376   5.100   3.712 -0.4745  0.3432 -0.5370
   34MOL0     H 4423   6.727   4.613   3.676  2.7012 -0.8851 -0.9169
   34MOL0     H 4424   6.928   4.518   3.774 -1.4166  1.3453 -1.7533
   34MOL0     H 4425   7.040   4.631   4.183 -2.3434  1.3783 -0.3026
   34MOL0     H 4426   7.147   4.751   4.090 -0.6350 -0.9214 -2.3757
   34MOL0     H 4427   7.214   4.467   4.150  0.0580  0.5970  2.1517
   34MOL0     H 4428   7.287   4.601   4.234 -1.3093 -1.8785  0.2938
   34MOL0     H 4429   7.330   4.487   3.963 -0.3010  0.4388  0.7207
   34MOL0     H 4430   7.455   4.542   4.083 -0.6733 -1.0010  0.8086
   34MOL0     H 4431   7.288   4.725   3.904 -0.0905  0.0695 -0.8904
   34MOL0     H 4432   7.407   4.773   4.026 -3.0384  0.5691  0.4231
   34MOL0     H 4433   7.499   4.753   3.779 -1.4932 -0.0174 -0.9515
   34MOL0     H 4434   7.457   4.588   3.780 -0.7488 -3.2206  3.7546
   34MOL0     H 4435   7.648   4.554   3.952  1.7353  0.8154  2.4133
   34MOL0     H 4436   7.662   4.727   3.963  0.3022  1.7320 -1.9826
   34MOL0     H 4437   7.722   4.732   3.708 -1.0258  0.5924  0.9699
   34MOL0     H 4438   7.834   4.687   3.832 -1.3703  2.2705  0.6255
   34MOL0     H 4439   7.660   4.502   3.647 -0.9681  4.7565  0.9622
   34MOL0     H 4440   7.773   4.442   3.769  1.0181  1.0284  0.4116
   34MOL0     H 4441   7.774   4.698   3.464 -2.7237 -1.5818  2.1155
   34MOL0     H 4442   7.924   4.722   3.251  0.7127  0.4267  3.3520
   34MOL0     H 4443   7.889   4.561   3.197  1.5415  0.9915 -3.3094
   34MOL0     H 4444   8.123   4.493   3.198  2.8692  0.1646  1.3347
   34MOL0     H 4445   8.173   4.622   3.299  1.1013  1.3785 -1.6404
   34MOL0     H 4446   8.160   4.787   3.136 -0.4837 -0.3046  1.5929
   34MOL0     H 4447   8.260   4.657   3.065  0.4046  1.2004  0.4806
   34MOL0     H 4448   7.958   4.701   2.983 -0.1484 -0.6186 -2.7223
   34MOL0     H 4449   8.062   4.588   2.915  0.2065  1.4922 -0.8608
   34MOL0     H 4450   7.926   4.644   2.739  0.3914  0.3722  0.1639
   34MOL0     H 4451   7.843   4.723   2.521  0.8678 -2.6844 -0.3261
   34MOL0     H 4452   7.922   5.022   2.107 -0.3647 -0.2439  0.5442
   34MOL0     H 4453   7.852   4.981   1.856 -0.6758 -0.4502  0.5657
   34MOL0     H 4454   7.628   4.747   1.600  1.3172 -1.2652 -0.4129
   34MOL0     H 4455   7.653   4.636   1.731 -2.2585  1.4762  1.6641
   34MOL0     H 4456   7.905   4.735   1.725  1.2967  1.8405 -0.6089
   34MOL0     H 4457   7.848   4.822   1.580  1.7180 -0.6175 -1.1377
   34MOL0     H 4458   7.922   4.655   1.467 -2.1113  4.2761  0.8104
   34MOL0     H 4459   7.766   4.590   1.490 -0.9204  2.8777 -0.6519
   34MOL0     H 4460   8.031   4.547   1.649  0.1880  1.0601  0.1995
   34MOL0     H 4461   7.878   4.486   1.713 -0.6350 -2.1329 -1.6076
   34MOL0     H 4462   8.001   4.314   1.621  4.1432  3.5946 -0.1702
   34MOL0     H 4463   8.026   4.389   1.466  2.2648 -2.2782  1.4091
   34MOL0     H 4464   7.774   4.383   1.437  1.1646  1.0696  0.1305
   34MOL0     H 4465   7.773   4.289   1.596  1.0450  1.3971 -0.6072
   34MOL0     H 4466   7.745   4.168   1.358  0.0903  3.5093 -1.9567
   34MOL0     H 4467   7.920   4.185   1.365  0.4967 -0.9707  0.5464
   34MOL0     H 4468   7.829   3.969   1.457  2.5520  1.4029 -0.8415
   34MOL0     H 4469   7.758   4.040   1.599 -0.0050 -1.0876  1.5676
   34MOL0     H 4470   7.591   4.666   1.999  2.1348 -2.1795  0.3771
   34MOL0     H 4471   7.633   4.716   2.231  3.0019  0.0172  1.5894
   34MOL0     H 4472   8.119   5.043   2.527 -2.6845  0.6564 -1.7187
   34MOL0     H 4473   8.196   4.978   2.751  1.2145  0.8020 -0.5847
   34MOL0     H 4474   6.906   4.791   4.098  0.6586 -0.2222 -0.6200
   34MOL0     H 4475   6.705   4.885   4.006 -0.8112  0.9798 -0.2978
   34MOL0     H 4476   6.357   4.756   3.676 -3.2596 -0.1887 -1.0956
   34MOL0     H 4477   6.184   4.821   3.526 -2.4557  0.1636  1.2386
   34MOL0     H 4478   6.121   5.240   3.442  1.9699 -2.4019 -0.6840
   34MOL0     H 4479   5.993   5.191   3.552  0.2587 -4.7018  2.6958
   34MOL0     H 4480   5.997   5.164   3.250  0.2241  4.1479 -0.2209
   34MOL0     H 4481   5.875   5.076   3.351  0.0760 -0.7253  1.3284
   34MOL0     H 4482   5.814   5.300   3.242  1.0902 -0.6145  0.0110
   34MOL0     H 4483   5.926   5.373   3.367  0.2174  1.3928 -2.0308
   34MOL0     H 4484   5.697   5.186   3.442 -1.6814  0.9657 -0.4371
   34MOL0     H 4485   5.789   5.288   3.538 -0.0454 -2.3569 -0.2261
   34MOL0     H 4486   5.468   5.540   3.400  0.2275  2.5869  0.0723
   34MOL0     H 4487   6.214   5.228   3.641  0.5662 -0.7680 -1.5801
   34MOL0     H 4488   6.423   5.183   3.765  2.1861  0.6970 -3.1775
   35MOL0     O 4489   0.394   0.563   6.898 -0.3681  0.4600 -0.4989
   35MOL0     C 4490   0.289   0.525   6.951 -0.9443 -0.2980  0.8771
   35MOL0     O 4491   0.195   0.447   6.896 -0.2947 -0.2628  0.5706
   35MOL0     C 4492   0.230   0.387   6.776 -0.7888 -0.6154  0.1515
   35MOL0     C 4493   0.255   0.248   6.764 -0.2118  0.0908 -1.0582
   35MOL0     C 4494   0.287   0.184   6.646  0.9597  0.4074  0.5188
   35MOL0     C 4495   0.309   0.262   6.534  0.4832 -0.2271  0.4388
   35MOL0     O 4496   0.339   0.214   6.411  0.7570  0.8258  0.3346
   35MOL0     C 4497   0.455   0.132   6.408 -0.1470  1.0293 -0.7838
   35MOL0     C 4498   0.566   0.204   6.331 -0.1558 -0.4444  0.8908
   35MOL0     C 4499   0.707   0.148   6.334  0.3307  0.3209  1.0012
   35MOL0     C 4500   0.714  -0.001   6.304 -0.2506 -0.0910  0.0603
   35MOL0     C 4501   0.863  -0.039   6.310  1.1352 -0.6023  0.1370
   35MOL0     C 4502   0.912  -0.116   6.200 -0.3954  0.1920 -0.4226
   35MOL0     C 4503   0.826  -0.235   6.160 -0.4684  0.7785  0.3632
   35MOL0     C 4504   0.791  -0.334   6.269  0.4209 -0.4800  0.3055
   35MOL0     N 4505   0.903  -0.402   6.318 -0.3120  0.3515  0.2676
   35MOL0     C 4506   1.002  -0.460   6.246  0.9204  0.2127 -0.0698
   35MOL0     C 4507   1.088  -0.509   6.337  0.5727  0.2086 -0.3987
   35MOL0     C 4508   1.221  -0.564   6.305 -0.2402  0.6608  0.1887
   35MOL0     C 4509   1.225  -0.718   6.341  0.6352 -0.9473 -0.1983
   35MOL0     C 4510   1.351  -0.789   6.307 -0.2796 -0.5025 -0.6610
   35MOL0     C 4511   1.385  -0.929   6.378 -0.6828 -0.4904  0.2820
   35MOL0     O 4512   1.404  -1.037   6.287 -0.0908 -1.0242 -0.4081
   35MOL0     C 4513   1.535  -1.063   6.248  0.3813 -0.6146 -0.0408
   35MOL0     C 4514   1.642  -0.967   6.242  1.0367 -0.2658  0.6973
   35MOL0     C 4515   1.764  -0.999   6.190  0.1033 -0.8237  0.5560
   35MOL0     C 4516   1.786  -1.133   6.143 -0.0693  0.1268  0.0315
   35MOL0     C 4517   1.915  -1.171   6.074  0.3186 -0.5452 -0.5800
   35MOL0     O 4518   2.019  -1.103   6.100  0.1610 -0.7038  0.1180
   35MOL0     C 4519   2.150  -1.137   6.069  0.0662 -0.6602 -0.4301
   35MOL0     C 4520   2.244  -1.025   6.058  0.2006 -0.0139 -0.6757
   35MOL0     C 4521   2.375  -1.058   6.020 -0.3945  0.5834 -0.6521
   35MOL0     C 4522   2.418  -1.191   5.991  0.1212 -0.3084 -1.3015
   35MOL0     O 4523   2.540  -1.227   5.940  0.0151 -0.0353  0.0497
   35MOL0     C 4524   2.652  -1.140   5.985  0.8088  0.6296  0.5981
   35MOL0     C 4525   2.767  -1.220   5.924 -0.0276 -1.1117  0.1297
   35MOL0     C 4526   2.887  -1.140   5.938 -0.2673 -0.3975  0.3001
   35MOL0     C 4527   3.011  -1.205   5.864  0.2220  0.1462  0.8025
   35MOL0     C 4528   3.132  -1.120   5.866 -0.6708  0.1386  0.3917
   35MOL0     C 4529   3.256  -1.174   5.777  0.8580  0.8603 -0.4220
   35MOL0     C 4530   3.308  -1.314   5.826  0.6103 -0.2750 -0.1756
   35MOL0     C 4531   3.332  -1.324   5.977 -0.6597  0.1108 -0.5571
   35MOL0    Cl 4532   3.451  -1.462   6.026 -0.4292  0.2862  0.1256
   35MOL0     C 4533   2.331  -1.296   6.015  0.5782  0.1431 -0.2412
   35MOL0     C 4534   2.197  -1.267   6.052  0.0466 -0.4160  1.0345
   35MOL0     O 4535   1.910  -1.272   5.999 -0.5831  0.0361 -0.4516
   35MOL0     C 4536   1.686  -1.229   6.154 -0.4522 -0.6592  0.4321
   35MOL0     C 4537   1.565  -1.191   6.209 -0.4328 -0.3434  0.4433
   35MOL0     N 4538   1.033  -0.494   6.463  0.4783  0.0546 -0.6060
   35MOL0     N 4539   0.928  -0.427   6.446  0.2797 -0.1465 -0.2790
   35MOL0     C 4540   0.286   0.403   6.542  0.1882 -0.0877 -0.6002
   35MOL0     C 4541   0.240   0.457   6.661 -0.7199 -0.1925  0.1506
   35MOL0     C 4542   0.268   0.574   7.089  0.3247  0.3992 -0.3939
   35MOL0     C 4543   0.135   0.582   7.138  0.3471  1.1780 -0.4062
   35MOL0     C 4544   0.109   0.644   7.258  0.0860 -0.2587  0.4088
   35MOL0     C 4545   0.206   0.700   7.342 -0.1826 -0.3786 -0.2549
   35MOL0     O 4546   0.166   0.754   7.464  0.0618 -0.2206 -0.1679
   35MOL0     C 4547   0.261   0.809   7.552 -0.3194 -0.2811  0.8519
   35MOL0     C 4548   0.197   0.882   7.659  0.1881  0.2729 -0.3899
   35MOL0     C 4549   0.115   1.004   7.614  0.6242 -0.5057  0.6875
   35MOL0     C 4550   0.024   1.051   7.729  0.0915  0.0097  0.1426
   35MOL0     C 4551  -0.093   0.967   7.749 -0.0763 -0.7021 -0.2663
   35MOL0     C 4552  -0.189   0.892   7.761  0.2972  0.1432 -0.2721
   35MOL0     C 4553   0.340   0.686   7.302  0.4331  0.1954 -1.1972
   35MOL0     C 4554   0.371   0.612   7.177 -0.3702 -0.0242 -0.9479
   35MOL0     H 4555   0.233   0.194   6.855  1.5226  1.6128  0.3412
   35MOL0     H 4556   0.296   0.077   6.631 -1.7064  0.5701 -4.7608
   35MOL0     H 4557   0.437   0.030   6.373 -1.3266  0.5153  1.1699
   35MOL0     H 4558   0.515   0.120   6.499  2.4257 -0.3249 -2.5358
   35MOL0     H 4559   0.571   0.309   6.361 -1.4531 -0.5967  1.6933
   35MOL0     H 4560   0.539   0.185   6.226 -0.9437  1.9825  0.5947
   35MOL0     H 4561   0.761   0.176   6.425 -0.7939  0.2518  1.7086
   35MOL0     H 4562   0.764   0.198   6.255  2.4511  1.0696  2.8755
   35MOL0     H 4563   0.662  -0.058   6.382 -1.0595  0.1287 -0.3143
   35MOL0     H 4564   0.654  -0.020   6.215 -1.1010  0.0286  0.5997
   35MOL0     H 4565   0.883  -0.104   6.395 -3.1539 -1.4305  0.7508
   35MOL0     H 4566   0.934   0.043   6.319  4.1051 -3.0685  1.0017
   35MOL0     H 4567   1.012  -0.151   6.227  0.3747  0.4988 -2.6535
   35MOL0     H 4568   0.922  -0.054   6.110  0.6034  0.6846  0.0156
   35MOL0     H 4569   0.724  -0.209   6.131 -0.2253 -0.5285 -1.9094
   35MOL0     H 4570   0.880  -0.275   6.074 -0.4391 -2.3194  1.6820
   35MOL0     H 4571   0.707  -0.393   6.231 -0.2900  1.3197 -1.0951
   35MOL0     H 4572   0.746  -0.283   6.355 -2.2328 -1.5823 -0.3351
   35MOL0     H 4573   1.018  -0.472   6.139  1.3593 -2.2074  0.2119
   35MOL0     H 4574   1.296  -0.496   6.347 -0.2345  1.1628 -0.5970
   35MOL0     H 4575   1.241  -0.547   6.198  1.5515 -2.6363 -0.1026
   35MOL0     H 4576   1.134  -0.763   6.300  0.5212  0.0560 -1.1267
   35MOL0     H 4577   1.216  -0.714   6.450 -2.9173  0.6332 -0.4133
   35MOL0     H 4578   1.362  -0.800   6.199  1.3514  2.9737 -0.9907
   35MOL0     H 4579   1.429  -0.715   6.327 -1.7446  1.1599 -0.8193
   35MOL0     H 4580   1.295  -0.961   6.431 -2.3685  1.1994 -1.4134
   35MOL0     H 4581   1.470  -0.909   6.445  1.5249 -1.1960 -2.1406
   35MOL0     H 4582   1.622  -0.864   6.270  1.9445 -0.5179  2.3723
   35MOL0     H 4583   1.838  -0.921   6.181 -0.6599 -0.2826 -1.8982
   35MOL0     H 4584   2.218  -0.925   6.090 -0.5524 -0.4250  0.0574
   35MOL0     H 4585   2.439  -0.971   6.027 -0.4732  0.6858 -1.2065
   35MOL0     H 4586   2.670  -1.149   6.093  3.1618 -2.1304  0.0784
   35MOL0     H 4587   2.639  -1.034   5.961 -0.2923  0.6743  1.3061
   35MOL0     H 4588   2.728  -1.229   5.822 -0.0426  1.4527 -0.1486
   35MOL0     H 4589   2.785  -1.320   5.966  0.7882 -0.7238  0.7163
   35MOL0     H 4590   2.919  -1.131   6.042 -0.2548  0.7940  0.2073
   35MOL0     H 4591   2.864  -1.042   5.896 -1.9362 -0.8435  0.1114
   35MOL0     H 4592   3.031  -1.300   5.914 -1.3208  0.4967  2.1621
   35MOL0     H 4593   2.979  -1.220   5.760 -0.0530 -0.5612  0.9829
   35MOL0     H 4594   3.155  -1.107   5.972 -0.6292 -2.7311  0.8023
   35MOL0     H 4595   3.101  -1.030   5.812 -2.2751 -1.4300 -1.4438
   35MOL0     H 4596   3.340  -1.105   5.781  2.0222 -0.0402 -4.5514
   35MOL0     H 4597   3.234  -1.182   5.670  2.5213 -2.1256 -0.6636
   35MOL0     H 4598   3.236  -1.394   5.807  0.9500 -0.4440 -0.7975
   35MOL0     H 4599   3.404  -1.337   5.779  0.4866 -0.2995 -0.4169
   35MOL0     H 4600   3.232  -1.339   6.019 -0.5435 -1.1232 -0.6928
   35MOL0     H 4601   3.372  -1.233   6.022 -0.5270  0.8118 -2.0399
   35MOL0     H 4602   2.354  -1.400   5.997 -1.4843 -0.5788  0.9848
   35MOL0     H 4603   2.126  -1.349   6.043 -2.7907  2.0409 -1.7341
   35MOL0     H 4604   1.700  -1.332   6.123 -1.0171 -0.9634  1.1373
   35MOL0     H 4605   1.488  -1.267   6.202 -2.0777  1.0967  1.8492
   35MOL0     H 4606   0.275   0.460   6.450  0.5766  1.3550  0.2092
   35MOL0     H 4607   0.230   0.563   6.682  4.1978  0.4282  0.6036
   35MOL0     H 4608   0.051   0.553   7.077 -1.7592  0.7857  2.5052
   35MOL0     H 4609   0.006   0.636   7.294  0.3969  0.0683  1.4149
   35MOL0     H 4610   0.329   0.879   7.503  0.0936 -1.1412  0.1628
   35MOL0     H 4611   0.317   0.724   7.592 -0.5382 -1.0946 -0.5332
   35MOL0     H 4612   0.140   0.805   7.711 -0.5170  0.0815 -1.4186
   35MOL0     H 4613   0.274   0.925   7.724 -1.1787  0.1217  1.3979
   35MOL0     H 4614   0.052   0.980   7.528  2.1918  2.1504 -1.3472
   35MOL0     H 4615   0.180   1.087   7.587 -2.4272  1.0227 -2.7609
   35MOL0     H 4616   0.078   1.049   7.823  1.2453  4.1100 -0.2577
   35MOL0     H 4617  -0.015   1.153   7.723 -3.6546 -1.3045 -2.3929
   35MOL0     H 4618  -0.266   0.817   7.762 -0.3594  0.7411  2.4295
   35MOL0     H 4619   0.425   0.720   7.361 -0.2125 -1.2663  0.6810
   35MOL0     H 4620   0.478   0.605   7.156 -0.6150  0.8219 -2.6604
   36MOL0     O 4621   7.467   2.631   1.246 -0.3628 -0.3905  0.1131
   36MOL0     C 4622   7.527   2.615   1.351  0.5776 -0.1448 -1.2866
   36MOL0     O 4623   7.659   2.597   1.361  0.2214 -0.0053 -0.4281
   36MOL0     C 4624   7.730   2.644   1.251 -0.3075 -0.4124  0.0309
   36MOL0     C 4625   7.713   2.773   1.188  1.4355  0.5071 -0.3481
   36MOL0     C 4626   7.788   2.804   1.071  0.4325  0.6611  0.1794
   36MOL0     C 4627   7.886   2.712   1.019  0.3318  0.3590 -0.2127
   36MOL0     O 4628   7.951   2.747   0.905  0.2781 -0.1042  0.0468
   36MOL0     C 4629   8.022   2.643   0.833  0.6165  0.3321 -1.4781
   36MOL0     C 4630   8.177   2.652   0.862 -0.1256 -0.1637  0.2045
   36MOL0     C 4631   8.237   2.514   0.820 -0.1404  0.0718 -0.2965
   36MOL0     C 4632   8.219   2.472   0.683 -0.5913  0.5692  0.4174
   36MOL0     C 4633   8.311   2.346   0.660 -0.2298 -0.2872  0.4655
   36MOL0     C 4634   8.335   2.302   0.509  0.0951  0.2866  0.3999
   36MOL0     C 4635   8.452   2.192   0.510  1.0928  0.6438  0.1462
   36MOL0     C 4636   8.414   2.053   0.577  0.8362  0.5632  0.4478
   36MOL0     N 4637   8.301   1.987   0.500  0.5943 -0.7060  0.6240
   36MOL0     C 4638   8.318   1.953   0.368  0.1153 -0.0879  0.3395
   36MOL0     C 4639   8.202   1.911   0.323  0.6208  1.3023  0.4392
   36MOL0     C 4640   8.151   1.881   0.184  0.1330  0.5372  0.7812
   36MOL0     C 4641   8.081   1.738   0.192  1.0338  0.1866 -0.1400
   36MOL0     C 4642   7.990   1.702   0.074 -0.3790  1.5335  0.0105
   36MOL0     C 4643   8.067   1.725  -0.061  0.2729  0.4831 -0.0446
   36MOL0     O 4644   8.013   1.630  -0.155 -1.0154 -0.7897 -0.4278
   36MOL0     C 4645   8.098   1.577  -0.251 -0.7951 -0.5784  0.7240
   36MOL0     C 4646   8.066   1.448  -0.296 -0.4243  0.1115  0.2227
   36MOL0     C 4647   8.144   1.388  -0.395 -0.3652 -0.7258  0.9376
   36MOL0     C 4648   8.257   1.458  -0.453  0.3120 -0.6444  0.5385
   36MOL0     C 4649   8.326   1.393  -0.561  0.6244 -0.1242  0.0239
   36MOL0     O 4650   8.256   1.303  -0.641  0.8848 -0.1331  0.4668
   36MOL0     C 4651   8.333   1.241  -0.742 -0.2065  0.2711 -0.3169
   36MOL0     C 4652   8.386   1.112  -0.708  1.5110  0.5786  0.0065
   36MOL0     C 4653   8.454   1.041  -0.797  0.2282 -0.3989 -0.0894
   36MOL0     C 4654   8.470   1.093  -0.925 -0.3044 -0.4576  0.2333
   36MOL0     O 4655   8.536   1.022  -1.021  0.2427  0.3621  0.0873
   36MOL0     C 4656   8.446   0.924  -1.072 -0.6990 -1.3121 -0.4463
   36MOL0     C 4657   8.520   0.834  -1.157 -0.6719  0.9972  0.8406
   36MOL0     C 4658   8.454   0.699  -1.179 -0.6029  0.1505  0.0728
   36MOL0     C 4659   8.336   0.692  -1.259  0.9707 -0.7638  0.7787
   36MOL0     C 4660   8.285   0.557  -1.308 -0.9977 -0.0895  0.3191
   36MOL0     C 4661   8.207   0.480  -1.201 -0.2176 -0.5516  0.8799
   36MOL0     C 4662   8.161   0.341  -1.238  0.4445  0.5064  0.6933
   36MOL0     C 4663   8.059   0.272  -1.136  0.1855 -0.9250  0.4928
   36MOL0    Cl 4664   7.964   0.139  -1.207 -0.4436 -0.3425  0.1700
   36MOL0     C 4665   8.416   1.221  -0.954 -0.1100  0.9607  0.2644
   36MOL0     C 4666   8.352   1.302  -0.864  0.1683 -0.4962 -0.3186
   36MOL0     O 4667   8.447   1.410  -0.566 -0.1584  0.6978  0.6532
   36MOL0     C 4668   8.285   1.589  -0.403 -0.5891 -0.9636  0.5176
   36MOL0     C 4669   8.210   1.645  -0.304  0.4222 -0.8883 -0.1046
   36MOL0     N 4670   8.116   1.907   0.432 -0.5202  0.1920 -0.1241
   36MOL0     N 4671   8.173   1.953   0.542  0.3571  0.4639  0.0986
   36MOL0     C 4672   7.917   2.599   1.103 -0.5319  0.6391  1.1762
   36MOL0     C 4673   7.832   2.564   1.211 -0.1775 -0.5949  0.0904
   36MOL0     C 4674   7.448   2.608   1.467 -0.3417 -1.1359  0.0313
   36MOL0     C 4675   7.502   2.605   1.597 -0.8172 -0.7810  0.3228
   36MOL0     C 4676   7.425   2.611   1.713 -0.8916 -0.5172 -0.9172
   36MOL0     C 4677   7.288   2.650   1.715 -0.0395  0.3132 -0.0739
   36MOL0     O 4678   7.204   2.659   1.830 -0.4726  1.3195  0.1763
   36MOL0     C 4679   7.264   2.712   1.949  0.2526 -0.1523 -0.5308
   36MOL0     C 4680   7.156   2.705   2.062  0.3860 -0.4725 -0.5417
   36MOL0     C 4681   7.077   2.835   2.056 -0.0759  0.0528 -0.0760
   36MOL0     C 4682   6.943   2.811   2.125  0.5187 -0.0309  0.5657
   36MOL0     C 4683   6.852   2.712   2.056 -0.5900 -0.2942  0.2798
   36MOL0     C 4684   6.807   2.614   1.998 -0.1318 -0.0228  0.0305
   36MOL0     C 4685   7.232   2.651   1.584 -0.6460 -0.3265  0.9356
   36MOL0     C 4686   7.306   2.631   1.463 -0.3820  1.1181  0.9912
   36MOL0     H 4687   7.640   2.844   1.225 -2.3024 -2.0460 -2.1599
   36MOL0     H 4688   7.784   2.902   1.024 -2.2057  0.8667  0.7082
   36MOL0     H 4689   7.995   2.653   0.728 -1.7276  1.5346 -0.8367
   36MOL0     H 4690   7.989   2.540   0.851  2.7494 -0.5973 -2.5717
   36MOL0     H 4691   8.201   2.673   0.967  0.8924 -2.9418  0.6314
   36MOL0     H 4692   8.225   2.719   0.791  1.4796  3.0291  3.9652
   36MOL0     H 4693   8.196   2.434   0.882 -2.2820 -0.5528 -2.3607
   36MOL0     H 4694   8.344   2.524   0.840 -0.1447 -0.4808  0.0347
   36MOL0     H 4695   8.116   2.457   0.648 -0.0456  1.4481 -1.7259
   36MOL0     H 4696   8.257   2.553   0.621  0.3294  1.4299  2.0598
   36MOL0     H 4697   8.256   2.263   0.706  0.4793 -1.4227 -0.6886
   36MOL0     H 4698   8.406   2.372   0.707  1.8745  3.3567 -4.8784
   36MOL0     H 4699   8.349   2.387   0.442  0.4998  0.6049  0.8863
   36MOL0     H 4700   8.234   2.266   0.485  0.5616 -0.2564 -0.8117
   36MOL0     H 4701   8.486   2.170   0.408  0.7080 -1.8901  0.5179
   36MOL0     H 4702   8.538   2.237   0.560  3.0441 -0.8410 -1.6572
   36MOL0     H 4703   8.398   2.056   0.685  2.4694 -0.4685  0.7485
   36MOL0     H 4704   8.499   1.985   0.561 -1.6466 -2.0824 -3.1615
   36MOL0     H 4705   8.400   1.977   0.301 -1.3408 -0.1886 -1.5566
   36MOL0     H 4706   8.229   1.874   0.108 -0.1458 -1.3084  0.6161
   36MOL0     H 4707   8.075   1.953   0.154  1.6018  1.2252 -1.5452
   36MOL0     H 4708   8.014   1.732   0.278  2.7044  0.4223  1.2361
   36MOL0     H 4709   8.162   1.666   0.207  2.0448  1.1539 -0.7385
   36MOL0     H 4710   7.945   1.603   0.085 -0.7137  1.9437  3.0882
   36MOL0     H 4711   7.902   1.768   0.071 -0.5293  1.3243 -2.0803
   36MOL0     H 4712   8.176   1.734  -0.065  0.3223 -0.1863 -3.8146
   36MOL0     H 4713   8.031   1.826  -0.084  0.4487  0.8932  1.3750
   36MOL0     H 4714   7.992   1.388  -0.244 -2.2974  1.1105 -1.1817
   36MOL0     H 4715   8.114   1.292  -0.436 -1.7352 -0.6005  1.5841
   36MOL0     H 4716   8.393   1.081  -0.604  1.7710  0.2113 -0.1206
   36MOL0     H 4717   8.499   0.945  -0.773  2.3189  1.1045  2.4372
   36MOL0     H 4718   8.369   0.986  -1.118 -0.1911  0.0071  0.4184
   36MOL0     H 4719   8.400   0.866  -0.990 -0.5277  0.9379  1.3303
   36MOL0     H 4720   8.619   0.819  -1.114 -0.3486  1.3645  0.2433
   36MOL0     H 4721   8.535   0.881  -1.255 -0.8837 -1.9112 -0.6951
   36MOL0     H 4722   8.445   0.649  -1.082  1.7674 -0.2716  0.1388
   36MOL0     H 4723   8.531   0.642  -1.231 -2.3041  0.6603 -3.2489
   36MOL0     H 4724   8.251   0.749  -1.220 -1.4784 -1.9615 -2.3892
   36MOL0     H 4725   8.362   0.743  -1.352 -1.1537 -3.0262 -1.1718
   36MOL0     H 4726   8.367   0.490  -1.336  2.0391  3.0803  0.8874
   36MOL0     H 4727   8.222   0.577  -1.396  2.2545  2.0283 -1.7532
   36MOL0     H 4728   8.117   0.541  -1.195  0.4090  0.4648  0.2881
   36MOL0     H 4729   8.256   0.471  -1.104  2.1794 -2.8521 -0.3959
   36MOL0     H 4730   8.106   0.344  -1.333  2.6768 -3.7467 -1.0181
   36MOL0     H 4731   8.246   0.274  -1.255 -0.2901 -0.0757 -0.9329
   36MOL0     H 4732   7.981   0.347  -1.118  0.9859 -0.3533  1.7852
   36MOL0     H 4733   8.103   0.249  -1.039 -1.0450 -1.8154  0.8726
   36MOL0     H 4734   8.436   1.252  -1.056  0.7002  0.1289  0.1648
   36MOL0     H 4735   8.308   1.400  -0.878 -2.0400 -1.2878  0.6298
   36MOL0     H 4736   8.365   1.643  -0.453  1.1887 -5.2370 -1.8016
   36MOL0     H 4737   8.251   1.739  -0.270 -3.8601  1.0913  0.1876
   36MOL0     H 4738   8.004   2.542   1.071 -2.0455  0.9189 -4.6226
   36MOL0     H 4739   7.853   2.474   1.267  3.7862  0.9164  1.3695
   36MOL0     H 4740   7.610   2.595   1.600 -0.6019  1.3187  1.3623
   36MOL0     H 4741   7.484   2.619   1.804 -1.2995 -0.0623 -0.6923
   36MOL0     H 4742   7.294   2.813   1.919 -1.6257 -0.3903 -3.7747
   36MOL0     H 4743   7.345   2.640   1.965 -0.2715 -0.8489 -0.9594
   36MOL0     H 4744   7.096   2.614   2.055 -2.4635  1.3781 -1.6822
   36MOL0     H 4745   7.207   2.713   2.159  0.9419 -2.5148 -0.6231
   36MOL0     H 4746   7.057   2.867   1.953 -0.0091  0.0414 -0.0924
   36MOL0     H 4747   7.136   2.918   2.096  0.3774  0.8388 -2.2460
   36MOL0     H 4748   6.953   2.780   2.230 -3.4520 -1.7507  0.6083
   36MOL0     H 4749   6.878   2.897   2.138 -2.3099 -1.8711 -0.5157
   36MOL0     H 4750   6.774   2.524   1.950  2.3339 -1.4519  0.8258
   36MOL0     H 4751   7.124   2.663   1.581 -0.8810 -2.1357  1.4700
   36MOL0     H 4752   7.259   2.626   1.365 -0.4961  1.5156  1.0231
   37MOL0     O 4753   5.046   8.141   0.675 -0.0771  0.1307 -1.1046
   37MOL0     C 4754   5.056   8.246   0.738 -1.3207 -0.1889 -0.2977
   37MOL0     O 4755   4.986   8.361   0.713  0.4612  0.2051  0.0282
   37MOL0     C 4756   4.882   8.346   0.621  0.0733  0.2724  0.2043
   37MOL0     C 4757   4.897   8.388   0.484  0.7525  0.1945  0.1754
   37MOL0     C 4758   4.803   8.363   0.388 -0.6453 -0.0888  0.0280
   37MOL0     C 4759   4.677   8.315   0.418 -0.5069 -0.7385 -0.5165
   37MOL0     O 4760   4.584   8.292   0.320 -0.2880 -0.7417 -0.3248
   37MOL0     C 4761   4.469   8.208   0.351  0.4013 -0.4594 -0.2774
   37MOL0     C 4762   4.386   8.180   0.228  0.3369 -0.5238  0.1467
   37MOL0     C 4763   4.347   8.032   0.245  0.0898 -0.9910  0.3717
   37MOL0     C 4764   4.299   7.984   0.112  0.1305 -0.6179  0.1951
   37MOL0     C 4765   4.207   7.863   0.133  0.4092 -0.5829 -0.3454
   37MOL0     C 4766   4.286   7.742   0.195  0.0631 -0.1667 -0.7638
   37MOL0     C 4767   4.193   7.620   0.179 -0.8222  0.7283 -0.1668
   37MOL0     C 4768   4.221   7.528   0.060 -0.8403 -0.8341  0.0779
   37MOL0     N 4769   4.184   7.384   0.072 -0.8276  0.4889 -0.3334
   37MOL0     C 4770   4.068   7.332   0.128 -0.4306  0.4023 -0.8641
   37MOL0     C 4771   4.075   7.195   0.094  0.1367  0.7647 -0.0590
   37MOL0     C 4772   3.972   7.078   0.126 -0.2140  0.6445  0.3320
   37MOL0     C 4773   3.887   7.040   0.006  0.4731 -0.7241  1.0039
   37MOL0     C 4774   3.792   7.164  -0.036  0.9665  0.3505 -0.5576
   37MOL0     C 4775   3.668   7.108  -0.115  0.6979  0.3485  0.4322
   37MOL0     O 4776   3.614   7.193  -0.220 -0.1237 -0.1238  0.4705
   37MOL0     C 4777   3.536   7.304  -0.185 -0.2947 -0.0134  0.2850
   37MOL0     C 4778   3.521   7.395  -0.287  0.8758 -0.0346  0.2743
   37MOL0     C 4779   3.440   7.511  -0.265 -0.1659  0.7333 -0.4770
   37MOL0     C 4780   3.403   7.544  -0.133 -0.5788 -0.0387 -1.0784
   37MOL0     C 4781   3.338   7.671  -0.105  0.5213  0.5510 -0.3617
   37MOL0     O 4782   3.242   7.666  -0.009  0.2426 -0.2129 -0.9321
   37MOL0     C 4783   3.174   7.780   0.020 -0.5186  0.1882  0.3272
   37MOL0     C 4784   3.199   7.852   0.148 -0.1876  0.7892 -0.2277
   37MOL0     C 4785   3.143   7.970   0.165  1.4038 -1.0174  0.4905
   37MOL0     C 4786   3.056   8.020   0.065  0.6466 -1.0593 -0.0060
   37MOL0     O 4787   2.992   8.143   0.081 -0.1850 -0.1763  0.7046
   37MOL0     C 4788   3.065   8.266   0.053  0.5744 -0.1989 -0.1243
   37MOL0     C 4789   2.978   8.336  -0.057 -0.4076  0.4704  0.0519
   37MOL0     C 4790   3.026   8.481  -0.098  0.1022 -0.1694  1.1079
   37MOL0     C 4791   3.001   8.589   0.001  0.0892 -0.3452  0.0980
   37MOL0     C 4792   3.093   8.709  -0.027 -0.4714  0.1043 -0.2620
   37MOL0     C 4793   3.058   8.832   0.051  0.2266 -0.2884  0.2985
   37MOL0     C 4794   3.164   8.932   0.023  0.0155  0.4226 -0.6498
   37MOL0     C 4795   3.135   9.065   0.095  0.2768  0.7692  0.3307
   37MOL0    Cl 4796   3.139   9.039   0.269 -0.0100  0.3881  0.4364
   37MOL0     C 4797   3.036   7.952  -0.054  0.0322 -0.3417 -0.0564
   37MOL0     C 4798   3.096   7.830  -0.084  0.3472 -0.6772 -0.5621
   37MOL0     O 4799   3.352   7.770  -0.183  1.2426 -0.1894 -0.0883
   37MOL0     C 4800   3.447   7.466  -0.027  1.7096  1.1971  0.4820
   37MOL0     C 4801   3.498   7.341  -0.058 -0.2025  0.2942  0.4356
   37MOL0     N 4802   4.196   7.169   0.038  0.2408  0.3947 -0.7576
   37MOL0     N 4803   4.267   7.280   0.030 -0.8156  1.1303  0.1982
   37MOL0     C 4804   4.654   8.289   0.559 -0.1841  0.3444  0.1120
   37MOL0     C 4805   4.759   8.311   0.656 -0.1805 -0.6479 -1.3017
   37MOL0     C 4806   5.161   8.266   0.843  0.2986 -0.1061 -0.0095
   37MOL0     C 4807   5.130   8.335   0.956  0.1014  0.3786 -0.6638
   37MOL0     C 4808   5.219   8.346   1.057  0.9425  1.1595  0.1934
   37MOL0     C 4809   5.356   8.293   1.045  1.1957  0.4057 -0.7910
   37MOL0     O 4810   5.449   8.292   1.148  0.2951  0.8746 -0.3460
   37MOL0     C 4811   5.418   8.308   1.284 -1.0005  0.0904  0.2357
   37MOL0     C 4812   5.529   8.396   1.342 -0.2956  0.2901  0.1156
   37MOL0     C 4813   5.650   8.299   1.366  0.8828  0.2212  0.6477
   37MOL0     C 4814   5.742   8.361   1.472 -0.1561 -0.0576 -0.0916
   37MOL0     C 4815   5.797   8.488   1.448 -0.4771  0.1582 -0.1832
   37MOL0     C 4816   5.859   8.588   1.413  0.2226 -0.2133  0.0533
   37MOL0     C 4817   5.393   8.236   0.922 -0.2029 -0.3008 -0.0568
   37MOL0     C 4818   5.296   8.219   0.824 -0.5247 -0.1852  0.7958
   37MOL0     H 4819   4.989   8.423   0.439 -0.6526  2.2853 -1.2535
   37MOL0     H 4820   4.822   8.392   0.285 -1.0468  0.2200  0.0358
   37MOL0     H 4821   4.415   8.250   0.436 -0.2838 -0.3089 -0.7852
   37MOL0     H 4822   4.526   8.122   0.389  0.8622  0.1882  0.5317
   37MOL0     H 4823   4.452   8.175   0.141 -1.5875  0.2760 -1.4165
   37MOL0     H 4824   4.297   8.243   0.219  0.0835 -1.1594 -2.4603
   37MOL0     H 4825   4.268   8.019   0.319  1.8132  0.2812  2.5748
   37MOL0     H 4826   4.435   7.971   0.271  1.0555  0.7652  1.4839
   37MOL0     H 4827   4.234   8.061   0.070  0.1839 -1.8482 -2.3152
   37MOL0     H 4828   4.380   7.958   0.044  0.8764 -5.5215  2.5415
   37MOL0     H 4829   4.170   7.838   0.034 -0.7177 -0.7245  0.0961
   37MOL0     H 4830   4.116   7.882   0.191 -1.0302  0.0909 -2.6940
   37MOL0     H 4831   4.311   7.761   0.300 -0.3600  0.0340 -0.6972
   37MOL0     H 4832   4.376   7.730   0.135 -0.0524 -2.0720 -0.6035
   37MOL0     H 4833   4.183   7.570   0.276  2.5165  1.2181  0.5354
   37MOL0     H 4834   4.092   7.658   0.158 -0.5253  2.0350  0.6480
   37MOL0     H 4835   4.329   7.531   0.044 -0.9303  0.0210 -0.4533
   37MOL0     H 4836   4.174   7.570  -0.030  1.0441  0.4047 -0.3904
   37MOL0     H 4837   3.996   7.383   0.192  0.0016 -0.9646  0.7560
   37MOL0     H 4838   3.905   7.112   0.206 -2.5811  0.9329 -1.6555
   37MOL0     H 4839   4.029   6.992   0.163  1.7618  2.4939  1.8557
   37MOL0     H 4840   3.819   6.968   0.053  1.0520 -1.4247  0.7840
   37MOL0     H 4841   3.940   6.998  -0.080 -1.8763 -1.2370 -0.2802
   37MOL0     H 4842   3.749   7.220   0.047  3.3536  3.3403 -1.1749
   37MOL0     H 4843   3.835   7.241  -0.100 -0.4142  2.5933  1.1006
   37MOL0     H 4844   3.584   7.083  -0.049  1.5926  0.0493  1.4855
   37MOL0     H 4845   3.698   7.013  -0.159  1.8984  0.3646  1.1826
   37MOL0     H 4846   3.531   7.376  -0.394 -3.7884 -0.3284 -0.3220
   37MOL0     H 4847   3.398   7.564  -0.350 -2.0572 -0.1525 -0.1343
   37MOL0     H 4848   3.285   7.823   0.207  1.0551  3.4860 -0.5474
   37MOL0     H 4849   3.169   8.029   0.253 -0.7520  1.4183 -0.3729
   37MOL0     H 4850   3.168   8.248   0.019  1.4063 -0.6628  2.4368
   37MOL0     H 4851   3.068   8.330   0.141  2.9213  1.9568 -1.6429
   37MOL0     H 4852   2.873   8.343  -0.027 -0.5200  2.4733 -0.6442
   37MOL0     H 4853   3.000   8.274  -0.144 -3.2346 -0.0057 -0.4156
   37MOL0     H 4854   2.988   8.510  -0.197  2.7664 -1.1430 -0.2923
   37MOL0     H 4855   3.130   8.459  -0.124  0.0314  2.0927 -1.5339
   37MOL0     H 4856   2.899   8.629  -0.008  0.5424  1.9241  3.3538
   37MOL0     H 4857   3.019   8.550   0.101  0.2044  1.3206  0.7666
   37MOL0     H 4858   3.093   8.723  -0.136  0.5436 -1.8124 -0.5610
   37MOL0     H 4859   3.197   8.681  -0.009 -1.4416 -3.3672  0.7606
   37MOL0     H 4860   3.063   8.803   0.157  2.5291  1.2177  0.6726
   37MOL0     H 4861   2.957   8.856   0.018  0.2011 -0.5620  0.1783
   37MOL0     H 4862   3.264   8.891   0.042  0.2524  0.7683 -1.1130
   37MOL0     H 4863   3.168   8.947  -0.086 -1.0726  0.2085 -0.7321
   37MOL0     H 4864   3.040   9.107   0.061 -0.5313 -1.6410 -0.5916
   37MOL0     H 4865   3.217   9.136   0.083  0.9060 -0.2430 -1.9993
   37MOL0     H 4866   2.979   7.993  -0.137  0.0032  0.1523  0.2070
   37MOL0     H 4867   3.067   7.797  -0.183 -2.3049 -1.6310  0.4280
   37MOL0     H 4868   3.420   7.478   0.077  0.7252  2.8426  0.0781
   37MOL0     H 4869   3.500   7.261   0.015 -2.0640 -1.9792 -1.8299
   37MOL0     H 4870   4.561   8.247   0.596 -0.6184  0.5406 -0.7303
   37MOL0     H 4871   4.744   8.286   0.761 -0.7742  3.1751 -0.3386
   37MOL0     H 4872   5.027   8.368   0.971 -0.5567 -2.1707  1.1545
   37MOL0     H 4873   5.190   8.388   1.153 -1.6984  2.6328 -1.1595
   37MOL0     H 4874   5.402   8.212   1.333  1.7847 -0.4464  0.2198
   37MOL0     H 4875   5.328   8.369   1.299 -0.2445  0.6214  3.1916
   37MOL0     H 4876   5.551   8.478   1.273 -2.5943  0.5580 -0.3955
   37MOL0     H 4877   5.515   8.441   1.441 -2.1574 -1.9834  0.9620
   37MOL0     H 4878   5.699   8.274   1.272  0.4042 -1.3153  0.7854
   37MOL0     H 4879   5.618   8.205   1.412  1.7643  1.1226  3.3281
   37MOL0     H 4880   5.683   8.375   1.564 -0.8810  2.2654 -0.8279
   37MOL0     H 4881   5.827   8.296   1.491 -1.0851 -1.1708  0.3785
   37MOL0     H 4882   5.920   8.674   1.396  1.6791 -1.0820  0.6366
   37MOL0     H 4883   5.493   8.193   0.920  0.4365  1.0609  0.7421
   37MOL0     H 4884   5.314   8.178   0.725 -2.9527  2.5742 -0.9471
   38MOL0     O 4885   2.661   8.859   7.089  0.2730  0.1418  0.2331
   38MOL0     C 4886   2.541   8.858   7.121 -0.2572  0.3312 -0.1559
   38MOL0     O 4887   2.472   8.749   7.164 -0.2859  0.8066  0.4795
   38MOL0     C 4888   2.521   8.627   7.185 -1.1019 -0.3756 -0.9811
   38MOL0     C 4889   2.660   8.596   7.202 -0.0770 -0.1667 -0.0863
   38MOL0     C 4890   2.699   8.467   7.236 -0.9579  0.5454  0.3126
   38MOL0     C 4891   2.604   8.357   7.254  0.8797  0.8568  0.8379
   38MOL0     O 4892   2.632   8.223   7.261 -0.3627  0.3469 -0.4047
   38MOL0     C 4893   2.769   8.184   7.287 -0.6116  0.4408  0.3441
   38MOL0     C 4894   2.761   8.060   7.376 -0.4934  0.6033 -0.0402
   38MOL0     C 4895   2.895   7.988   7.400  0.0732  0.4343 -0.0907
   38MOL0     C 4896   2.885   7.890   7.519 -0.3708  0.8083  0.9424
   38MOL0     C 4897   2.997   7.795   7.540 -0.2846 -0.7594  0.3272
   38MOL0     C 4898   3.126   7.874   7.553  0.2876  0.0250 -0.0998
   38MOL0     C 4899   3.249   7.792   7.608 -0.1636 -0.0099  0.5210
   38MOL0     C 4900   3.297   7.702   7.505  2.3429 -0.2566 -1.0700
   38MOL0     N 4901   3.442   7.684   7.520 -0.0529 -0.5328 -0.0338
   38MOL0     C 4902   3.502   7.583   7.594  0.3731  0.0345 -0.9517
   38MOL0     C 4903   3.632   7.579   7.557 -0.0754  0.0971 -0.6150
   38MOL0     C 4904   3.728   7.495   7.633  0.4430 -0.2916 -0.0034
   38MOL0     C 4905   3.792   7.378   7.546 -0.4052 -0.2259  0.5758
   38MOL0     C 4906   3.683   7.270   7.549 -0.2283  0.2741 -0.1094
   38MOL0     C 4907   3.726   7.136   7.502  0.5073 -0.6229  0.0920
   38MOL0     O 4908   3.808   7.092   7.606  0.2722 -0.6967  0.2169
   38MOL0     C 4909   3.812   6.957   7.610 -1.2654  0.1261 -0.2030
   38MOL0     C 4910   3.835   6.877   7.497 -0.9293  0.1748 -0.3666
   38MOL0     C 4911   3.817   6.739   7.499 -0.3741 -0.2043 -0.0029
   38MOL0     C 4912   3.782   6.672   7.621 -0.1051 -0.1869  0.1142
   38MOL0     C 4913   3.778   6.527   7.644 -0.0540  0.6983  0.3121
   38MOL0     O 4914   3.801   6.451   7.535  0.4976 -0.2466 -0.1280
   38MOL0     C 4915   3.858   6.326   7.526  0.7572  0.0946  0.3423
   38MOL0     C 4916   3.950   6.265   7.620  0.5916 -0.0367  0.0421
   38MOL0     C 4917   4.014   6.149   7.594  0.5578 -0.2486 -0.4404
   38MOL0     C 4918   3.993   6.086   7.467  0.3005 -1.1343 -0.5796
   38MOL0     O 4919   4.059   5.972   7.445  0.1655  0.1048 -0.4067
   38MOL0     C 4920   4.106   5.940   7.313  0.2761  1.0317 -0.2683
   38MOL0     C 4921   4.178   5.802   7.327 -0.9162  0.1089 -0.0324
   38MOL0     C 4922   4.087   5.698   7.372 -0.3197 -0.1931  0.6253
   38MOL0     C 4923   4.152   5.560   7.399  0.2397 -1.2985  0.1493
   38MOL0     C 4924   4.274   5.573   7.502  0.3601  0.1303 -0.0219
   38MOL0     C 4925   4.219   5.608   7.648 -0.9314 -0.1043 -0.1183
   38MOL0     C 4926   4.334   5.603   7.753 -0.2684 -0.2462 -0.4210
   38MOL0     C 4927   4.297   5.650   7.895  0.1010 -0.4529  0.2496
   38MOL0    Cl 4928   4.272   5.835   7.885  0.0530 -0.0642  0.4796
   38MOL0     C 4929   3.906   6.148   7.367 -0.0226  0.3875 -0.3472
   38MOL0     C 4930   3.849   6.262   7.403  0.6540 -0.2342 -0.9884
   38MOL0     O 4931   3.750   6.488   7.755 -0.2623  1.3365  0.2603
   38MOL0     C 4932   3.759   6.758   7.733 -1.0826  1.1887  0.0677
   38MOL0     C 4933   3.786   6.896   7.737 -0.0689 -0.1135  0.6289
   38MOL0     N 4934   3.651   7.686   7.467 -0.4679  1.0450  0.4109
   38MOL0     N 4935   3.539   7.744   7.440  0.1095  0.2698  0.1385
   38MOL0     C 4936   2.470   8.393   7.250 -0.2999 -0.0422 -0.9772
   38MOL0     C 4937   2.430   8.523   7.218 -0.2384  0.1654 -0.5281
   38MOL0     C 4938   2.459   8.982   7.105  0.4207  0.0817 -0.2077
   38MOL0     C 4939   2.318   8.975   7.122 -0.6031  0.0265 -0.6731
   38MOL0     C 4940   2.247   9.096   7.128  0.6417  0.2187  0.5898
   38MOL0     C 4941   2.298   9.225   7.104 -0.2316  0.0065 -0.9670
   38MOL0     O 4942   2.216   9.331   7.110  0.2829 -0.5692 -0.4872
   38MOL0     C 4943   2.265   9.466   7.084  0.4934  0.4897  0.2796
   38MOL0     C 4944   2.142   9.563   7.087  0.2507  1.0123 -1.6103
   38MOL0     C 4945   2.084   9.559   7.228 -0.5016  0.5389 -0.1570
   38MOL0     C 4946   1.987   9.672   7.268  0.0330  0.4714 -0.0952
   38MOL0     C 4947   1.877   9.694   7.180 -0.8885  0.3498 -0.3985
   38MOL0     C 4948   1.777   9.721   7.106 -1.0820 -0.6853  0.4593
   38MOL0     C 4949   2.441   9.232   7.084 -0.0664 -0.2568 -0.2200
   38MOL0     C 4950   2.517   9.114   7.090  0.6813 -0.1476  0.0116
   38MOL0     H 4951   2.739   8.669   7.219  0.1219 -0.5976  0.9648
   38MOL0     H 4952   2.806   8.451   7.226 -1.1743  0.5868 -2.9014
   38MOL0     H 4953   2.833   8.255   7.342  0.1125  0.6301 -0.7205
   38MOL0     H 4954   2.809   8.167   7.187  1.0682 -0.5054  1.1232
   38MOL0     H 4955   2.688   7.991   7.331  1.3774 -0.0207 -2.3201
   38MOL0     H 4956   2.726   8.090   7.475  0.8497  0.1933  0.5866
   38MOL0     H 4957   2.970   8.068   7.413  0.9781 -0.4774  0.5048
   38MOL0     H 4958   2.924   7.928   7.313 -0.5184 -1.0935  0.7286
   38MOL0     H 4959   2.858   7.942   7.612  0.6045 -2.0837  2.9751
   38MOL0     H 4960   2.794   7.836   7.490 -0.4308  1.8322 -0.9256
   38MOL0     H 4961   3.001   7.733   7.450 -0.5320 -0.2372 -0.0433
   38MOL0     H 4962   2.978   7.720   7.618 -0.7750 -1.5903 -0.5548
   38MOL0     H 4963   3.117   7.951   7.630  2.3654 -1.2356  1.5057
   38MOL0     H 4964   3.151   7.923   7.458  2.6074  0.9898  0.9265
   38MOL0     H 4965   3.324   7.868   7.632  0.2481 -0.3905  0.4527
   38MOL0     H 4966   3.237   7.738   7.702  1.6238 -0.3695  0.5697
   38MOL0     H 4967   3.287   7.739   7.403  4.6657 -1.0777 -1.6733
   38MOL0     H 4968   3.244   7.607   7.520 -1.2477  2.1973  4.7247
   38MOL0     H 4969   3.450   7.526   7.670  4.2372  2.6963  4.3002
   38MOL0     H 4970   3.698   7.463   7.733  3.5729  1.0591  1.5337
   38MOL0     H 4971   3.805   7.568   7.661  0.0834 -0.1218  0.5640
   38MOL0     H 4972   3.888   7.359   7.595 -0.2018  0.9725  0.6631
   38MOL0     H 4973   3.807   7.415   7.445 -2.7774 -0.6259  0.0157
   38MOL0     H 4974   3.636   7.262   7.647  1.2656  1.7519  0.7711
   38MOL0     H 4975   3.603   7.301   7.481 -0.5977  0.9667  0.6316
   38MOL0     H 4976   3.785   7.144   7.410 -1.3414 -0.1205 -1.1054
   38MOL0     H 4977   3.637   7.073   7.498 -0.7001  0.9775  0.5846
   38MOL0     H 4978   3.858   6.923   7.401 -2.6891 -1.5941 -1.7269
   38MOL0     H 4979   3.828   6.694   7.400 -2.0646  1.1017 -0.8286
   38MOL0     H 4980   3.977   6.325   7.706  1.0562  0.2021 -0.2683
   38MOL0     H 4981   4.082   6.103   7.666  0.5558 -0.4773 -0.5817
   38MOL0     H 4982   4.181   6.013   7.281  0.7511  0.3016 -0.8703
   38MOL0     H 4983   4.023   5.930   7.242  0.3442  0.3772 -0.2601
   38MOL0     H 4984   4.262   5.814   7.397 -1.0440  2.4823 -0.2217
   38MOL0     H 4985   4.220   5.785   7.227 -0.2421 -2.5773  0.6181
   38MOL0     H 4986   4.016   5.679   7.290 -1.0641 -1.1674  1.4631
   38MOL0     H 4987   4.027   5.736   7.455 -0.8941 -1.8360  1.0077
   38MOL0     H 4988   4.074   5.489   7.427 -2.8488  2.1450  1.0917
   38MOL0     H 4989   4.195   5.522   7.305  0.3276 -2.0193  0.4790
   38MOL0     H 4990   4.357   5.634   7.463  4.9659 -2.4616  4.5128
   38MOL0     H 4991   4.314   5.472   7.515 -2.0309 -0.6629  1.9060
   38MOL0     H 4992   4.146   5.529   7.662  1.6864 -2.5904  0.3962
   38MOL0     H 4993   4.172   5.707   7.644 -0.6251  0.1819  1.8838
   38MOL0     H 4994   4.385   5.506   7.757 -1.7436 -0.9916  1.5165
   38MOL0     H 4995   4.406   5.677   7.716 -0.9301  1.8454  2.1575
   38MOL0     H 4996   4.383   5.641   7.962  0.6268 -3.5159 -0.6665
   38MOL0     H 4997   4.211   5.593   7.933  1.2196 -1.3243  1.5984
   38MOL0     H 4998   3.901   6.103   7.269  0.0211  3.2184 -1.7698
   38MOL0     H 4999   3.791   6.303   7.322  0.4697 -0.5272 -1.0050
   38MOL0     H 5000   3.759   6.701   7.825  0.1092 -1.6588 -1.5923
   38MOL0     H 5001   3.773   6.948   7.831 -2.4163 -2.1109  1.5091
   38MOL0     H 5002   2.404   8.314   7.283  0.1356 -1.2436 -2.8177
   38MOL0     H 5003   2.328   8.555   7.237  0.2453  0.1909  2.5622
   38MOL0     H 5004   2.272   8.878   7.136 -0.1426 -0.1758 -0.5521
   38MOL0     H 5005   2.140   9.078   7.128  0.4147  1.4418  0.8314
   38MOL0     H 5006   2.290   9.460   6.978  0.1230  1.6135  0.1181
   38MOL0     H 5007   2.343   9.510   7.147 -1.4202  1.5019  2.0609
   38MOL0     H 5008   2.189   9.655   7.049  0.0802  0.5815 -2.9058
   38MOL0     H 5009   2.068   9.521   7.019 -0.8961 -2.1191  1.3087
   38MOL0     H 5010   2.167   9.559   7.299  0.7273  2.5922 -1.5030
   38MOL0     H 5011   2.035   9.462   7.238  0.4212  0.3257  4.2240
   38MOL0     H 5012   1.941   9.662   7.366 -4.3522  3.2425 -1.5607
   38MOL0     H 5013   2.037   9.769   7.282 -0.9178  1.2277 -1.6758
   38MOL0     H 5014   1.685   9.730   7.053 -0.5357 -3.7855 -1.3007
   38MOL0     H 5015   2.492   9.328   7.071 -3.6218  2.1090  1.7508
   38MOL0     H 5016   2.623   9.127   7.073  0.6345  2.4200  1.1921
   39MOL0     O 5017   2.265   9.126   3.894  0.1483  0.2378  0.5153
   39MOL0     C 5018   2.185   9.214   3.928  0.8751  0.0415  0.4116
   39MOL0     O 5019   2.136   9.238   4.057 -0.1197  0.6531 -0.2955
   39MOL0     C 5020   2.159   9.130   4.143 -0.1854 -0.4906 -0.7397
   39MOL0     C 5021   2.268   9.134   4.232  0.1859 -0.4046 -0.4121
   39MOL0     C 5022   2.283   9.035   4.328  0.2639 -0.6603  0.6734
   39MOL0     C 5023   2.193   8.922   4.341 -0.8997 -1.1432  0.0914
   39MOL0     O 5024   2.206   8.813   4.418 -0.0297 -0.2265  0.3730
   39MOL0     C 5025   2.319   8.805   4.508  0.7640  0.2247  0.4041
   39MOL0     C 5026   2.338   8.668   4.561  0.0889 -0.0920 -0.8718
   39MOL0     C 5027   2.456   8.651   4.654  0.4290 -0.2045 -0.3661
   39MOL0     C 5028   2.432   8.691   4.799  0.7872 -0.4762 -1.3155
   39MOL0     C 5029   2.560   8.709   4.886  0.1800  0.4209  0.1350
   39MOL0     C 5030   2.545   8.798   5.013 -0.4476 -0.0325  0.0107
   39MOL0     C 5031   2.455   8.737   5.115  0.1945 -0.3592  0.3854
   39MOL0     C 5032   2.443   8.820   5.243  0.3086 -0.3385  0.8236
   39MOL0     N 5033   2.561   8.835   5.332  0.9644 -0.7320 -0.6960
   39MOL0     C 5034   2.586   8.946   5.406  0.0530 -0.5322 -0.6843
   39MOL0     C 5035   2.687   8.905   5.487  0.4595  0.1077 -0.1137
   39MOL0     C 5036   2.769   8.987   5.571  0.8068 -0.0953  0.7304
   39MOL0     C 5037   2.858   9.074   5.484 -1.4170 -0.8073 -0.4570
   39MOL0     C 5038   2.809   9.229   5.488 -0.9188  0.4331  0.0492
   39MOL0     C 5039   2.902   9.321   5.410 -1.5443 -0.5067 -0.0667
   39MOL0     O 5040   2.837   9.442   5.374 -0.2704 -0.0780  0.3991
   39MOL0     C 5041   2.889   9.533   5.282  0.7926 -0.9028  0.2807
   39MOL0     C 5042   3.002   9.504   5.207 -0.5391 -0.6504  0.3678
   39MOL0     C 5043   3.055   9.602   5.124  0.6183  0.6882 -0.7605
   39MOL0     C 5044   3.002   9.729   5.131  0.5056 -0.1324  0.1571
   39MOL0     C 5045   3.064   9.849   5.064  0.4317  0.7048 -0.3469
   39MOL0     O 5046   3.011   9.970   5.092 -0.0870  0.4897 -0.1791
   39MOL0     C 5047   3.066  10.079   5.019  0.8148  0.2122  0.3019
   39MOL0     C 5048   2.973  10.155   4.937 -0.4302 -0.3164 -0.1111
   39MOL0     C 5049   3.018  10.263   4.864 -0.5667  0.3207 -0.6698
   39MOL0     C 5050   3.150  10.306   4.887 -0.1135  0.3936  0.4667
   39MOL0     O 5051   3.180  10.431   4.838 -0.9496  0.3001 -0.4020
   39MOL0     C 5052   3.325  10.469   4.841 -1.2009  0.0410  0.3533
   39MOL0     C 5053   3.349  10.600   4.771 -0.6336  0.1846 -0.3783
   39MOL0     C 5054   3.288  10.728   4.831  0.5734  0.4115  0.0284
   39MOL0     C 5055   3.305  10.757   4.972  0.6072 -0.2310  0.1977
   39MOL0     C 5056   3.246  10.894   5.011  0.2335 -0.1872  0.3407
   39MOL0     C 5057   3.292  10.947   5.144 -0.0667  0.2591  0.1397
   39MOL0     C 5058   3.201  10.914   5.259  0.9474  0.0077 -0.3063
   39MOL0     C 5059   3.232  10.982   5.396 -0.1340 -0.3957  0.4101
   39MOL0    Cl 5060   3.131  10.880   5.505 -0.4322 -0.4419 -0.1417
   39MOL0     C 5061   3.235  10.241   4.975 -0.0904  0.8158  0.3444
   39MOL0     C 5062   3.198  10.122   5.033  0.1258  0.5779  1.1036
   39MOL0     O 5063   3.166   9.832   4.998 -0.0311 -0.1814 -0.4150
   39MOL0     C 5064   2.888   9.754   5.198 -0.2927 -0.5531 -0.6084
   39MOL0     C 5065   2.833   9.659   5.281 -0.1894  0.6329 -0.2602
   39MOL0     N 5066   2.724   8.773   5.456  0.3152  0.0664  0.5057
   39MOL0     N 5067   2.643   8.732   5.361 -0.5820  0.1126  0.9152
   39MOL0     C 5068   2.086   8.925   4.250 -0.0149  0.0623 -0.3655
   39MOL0     C 5069   2.069   9.026   4.151  0.4804  0.1538 -0.4912
   39MOL0     C 5070   2.131   9.301   3.820  0.2451 -0.2100 -0.4035
   39MOL0     C 5071   2.171   9.273   3.682  0.7508 -0.5693 -0.1617
   39MOL0     C 5072   2.129   9.358   3.584  0.2691 -0.4529  1.4044
   39MOL0     C 5073   2.048   9.469   3.623  0.2721 -0.2801  0.5843
   39MOL0     O 5074   2.022   9.568   3.530 -0.2643  0.3058  0.2806
   39MOL0     C 5075   1.904   9.657   3.543  0.5124  0.6379  0.4281
   39MOL0     C 5076   1.869   9.696   3.406  0.4024  0.9324 -0.0872
   39MOL0     C 5077   1.784   9.581   3.342  0.1220  0.6422 -0.1728
   39MOL0     C 5078   1.746   9.608   3.194 -0.2820  0.1449 -0.4896
   39MOL0     C 5079   1.638   9.522   3.149 -0.3997 -0.6662  0.0126
   39MOL0     C 5080   1.540   9.457   3.117  0.7723 -1.0561 -0.0494
   39MOL0     C 5081   2.006   9.486   3.749  0.6153 -0.1424 -0.2822
   39MOL0     C 5082   2.049   9.409   3.858 -1.3824  0.4713 -0.2810
   39MOL0     H 5083   2.347   9.208   4.225  1.6672 -1.9339 -0.4714
   39MOL0     H 5084   2.362   9.042   4.402 -1.1718 -0.2988  2.2366
   39MOL0     H 5085   2.302   8.868   4.596 -1.4959  2.8196 -1.6959
   39MOL0     H 5086   2.418   8.831   4.467  1.9560 -2.3274  1.4460
   39MOL0     H 5087   2.353   8.602   4.475 -0.2379  0.8729 -1.6971
   39MOL0     H 5088   2.241   8.641   4.604 -0.3955  0.3963 -1.6228
   39MOL0     H 5089   2.543   8.707   4.618  1.2288 -1.0324  0.1930
   39MOL0     H 5090   2.497   8.549   4.650  0.7607 -0.1123  0.4333
   39MOL0     H 5091   2.368   8.780   4.799  0.1450 -0.8070 -4.3596
   39MOL0     H 5092   2.377   8.615   4.855  0.0673  1.5744  0.9373
   39MOL0     H 5093   2.648   8.743   4.830 -0.4244  1.2081 -0.3453
   39MOL0     H 5094   2.595   8.608   4.911  1.6397  0.2864 -2.1506
   39MOL0     H 5095   2.506   8.899   4.997 -0.2749  0.5869  2.8371
   39MOL0     H 5096   2.649   8.821   5.040  0.5783 -3.4702 -0.4914
   39MOL0     H 5097   2.360   8.723   5.063  0.2440  3.5049 -1.1139
   39MOL0     H 5098   2.484   8.635   5.143 -0.3883 -0.6733 -0.1399
   39MOL0     H 5099   2.360   8.783   5.303 -0.3540 -3.3330 -1.6699
   39MOL0     H 5100   2.416   8.916   5.198  1.0838 -1.5264 -2.4716
   39MOL0     H 5101   2.525   9.036   5.403  0.1165 -0.2780  2.3135
   39MOL0     H 5102   2.826   8.911   5.626  1.2672 -0.5787 -0.4021
   39MOL0     H 5103   2.703   9.052   5.629  1.2850  0.0365  1.1332
   39MOL0     H 5104   2.866   9.040   5.381 -0.0258 -1.6070 -0.1079
   39MOL0     H 5105   2.958   9.071   5.530 -1.6836 -0.2898  0.1860
   39MOL0     H 5106   2.714   9.233   5.433 -0.1534 -0.7006 -1.4282
   39MOL0     H 5107   2.795   9.256   5.593  1.3501 -1.8510  1.0490
   39MOL0     H 5108   2.914   9.275   5.312 -1.2186 -1.2453  0.3101
   39MOL0     H 5109   2.991   9.336   5.472 -2.7757  1.2706  1.3637
   39MOL0     H 5110   3.040   9.402   5.212 -1.9691 -1.1690  1.3845
   39MOL0     H 5111   3.145   9.591   5.063 -0.6844 -0.3996 -2.5916
   39MOL0     H 5112   2.869  10.128   4.951 -0.1372 -1.7778 -0.6357
   39MOL0     H 5113   2.948  10.327   4.813 -2.7794 -1.7538 -0.4074
   39MOL0     H 5114   3.371  10.382   4.794  2.9090  1.9473  0.4289
   39MOL0     H 5115   3.368  10.471   4.941 -1.0457  1.6511  0.2794
   39MOL0     H 5116   3.325  10.595   4.664  1.5621 -1.1014 -0.8757
   39MOL0     H 5117   3.457  10.615   4.761 -0.2181 -1.5751  0.9526
   39MOL0     H 5118   3.179  10.725   4.822  0.5877 -0.5790  0.0241
   39MOL0     H 5119   3.336  10.802   4.766 -1.3768  2.7384  1.0969
   39MOL0     H 5120   3.239  10.685   5.022 -0.6748 -0.1569 -1.3326
   39MOL0     H 5121   3.409  10.747   5.003  0.7745 -0.4808 -0.4328
   39MOL0     H 5122   3.137  10.894   5.008  0.1845 -1.0421  1.4482
   39MOL0     H 5123   3.269  10.956   4.924  1.4862  0.3952  1.0744
   39MOL0     H 5124   3.317  11.054   5.139  0.1753  0.3277  2.1951
   39MOL0     H 5125   3.392  10.910   5.167  0.3188  0.1729 -1.5319
   39MOL0     H 5126   3.101  10.951   5.232  1.0064  0.1326 -0.3535
   39MOL0     H 5127   3.206  10.805   5.265  1.1124 -0.1805 -2.6716
   39MOL0     H 5128   3.184  11.080   5.400 -0.7981 -0.5248 -2.3865
   39MOL0     H 5129   3.339  10.978   5.420  0.2704 -0.6177 -1.3146
   39MOL0     H 5130   3.338  10.267   4.997  0.2735 -1.7113  2.2507
   39MOL0     H 5131   3.267  10.071   5.100  1.1809 -1.5877 -1.4335
   39MOL0     H 5132   2.847   9.854   5.209  2.0631  0.2460  2.6391
   39MOL0     H 5133   2.746   9.682   5.342 -2.1992 -1.3602 -2.1763
   39MOL0     H 5134   2.019   8.842   4.265  0.2669  0.0278  0.8163
   39MOL0     H 5135   1.976   9.016   4.096 -1.0580 -1.2181  2.1107
   39MOL0     H 5136   2.232   9.188   3.653  1.9133 -0.0747  0.7334
   39MOL0     H 5137   2.156   9.341   3.480 -0.3470  0.4928  1.0761
   39MOL0     H 5138   1.929   9.746   3.601  1.3938 -0.7922  2.3629
   39MOL0     H 5139   1.815   9.604   3.579 -2.0080  1.0662 -4.3272
   39MOL0     H 5140   1.817   9.793   3.410 -1.1855  0.0747  2.1056
   39MOL0     H 5141   1.959   9.701   3.343  0.6993 -1.7336  0.0311
   39MOL0     H 5142   1.695   9.562   3.402  0.3937 -1.5238 -0.3875
   39MOL0     H 5143   1.849   9.493   3.350  0.2014  0.7836  0.9742
   39MOL0     H 5144   1.703   9.708   3.183 -0.9432  0.0286  0.8504
   39MOL0     H 5145   1.827   9.596   3.122 -1.3102 -2.0233 -1.3688
   39MOL0     H 5146   1.454   9.401   3.084 -0.8951  1.5955 -0.5122
   39MOL0     H 5147   1.947   9.577   3.757  3.4801  1.6912  1.9762
   39MOL0     H 5148   2.025   9.430   3.962  1.0830  0.4949  0.3461
   40MOL0     O 5149   0.409   7.526   4.638 -0.3821  0.0816 -0.1457
   40MOL0     C 5150   0.440   7.524   4.522 -1.0377 -0.7127  0.5547
   40MOL0     O 5151   0.463   7.411   4.446  0.7529  0.2010  0.7464
   40MOL0     C 5152   0.460   7.287   4.503 -0.1594  0.1936 -0.9280
   40MOL0     C 5153   0.576   7.221   4.544  0.2848  0.4859  0.9808
   40MOL0     C 5154   0.570   7.089   4.613 -0.4293  0.0913 -0.0791
   40MOL0     C 5155   0.446   7.027   4.627  0.3488 -0.9915 -0.1629
   40MOL0     O 5156   0.455   6.912   4.694 -0.0073  0.4280 -0.5162
   40MOL0     C 5157   0.358   6.809   4.671 -0.1273  0.6246  0.6841
   40MOL0     C 5158   0.231   6.815   4.757  0.2597  0.4533 -0.5764
   40MOL0     C 5159   0.256   6.817   4.908 -0.0129 -0.1651  0.1546
   40MOL0     C 5160   0.142   6.904   4.977  0.0917  0.0710  0.6855
   40MOL0     C 5161   0.201   7.028   5.054 -0.5842  0.0062 -1.5007
   40MOL0     C 5162   0.272   7.137   4.967 -0.2348 -0.0955  0.1305
   40MOL0     C 5163   0.292   7.273   5.042 -0.3485  0.1708  0.0033
   40MOL0     C 5164   0.356   7.382   4.954 -0.1998  0.7891 -0.4901
   40MOL0     N 5165   0.501   7.395   4.966  0.3712  0.7682  0.2723
   40MOL0     C 5166   0.599   7.370   4.869 -0.8195  1.1105 -0.6209
   40MOL0     C 5167   0.707   7.431   4.916  0.1845 -1.4351 -0.9825
   40MOL0     C 5168   0.839   7.417   4.863  0.0465 -0.4352 -0.2922
   40MOL0     C 5169   0.865   7.517   4.745  0.2426  1.8958  0.5131
   40MOL0     C 5170   0.863   7.656   4.785 -0.2378  0.0157 -0.2772
   40MOL0     C 5171   0.735   7.731   4.764  0.4651 -0.1374 -0.2541
   40MOL0     O 5172   0.765   7.869   4.797 -0.3328  0.2046 -0.2455
   40MOL0     C 5173   0.662   7.959   4.797  0.1951 -0.3930 -0.1994
   40MOL0     C 5174   0.685   8.092   4.758 -0.2188  0.0115  0.1635
   40MOL0     C 5175   0.593   8.190   4.780 -0.2989  0.1867 -0.3835
   40MOL0     C 5176   0.464   8.162   4.833  0.3544  0.5083  0.1743
   40MOL0     C 5177   0.351   8.251   4.837  1.5280 -0.2536 -0.4529
   40MOL0     O 5178   0.352   8.361   4.760 -0.3575 -1.3997 -0.2537
   40MOL0     C 5179   0.234   8.436   4.760 -0.8733  0.4386 -0.1014
   40MOL0     C 5180   0.127   8.391   4.687 -0.7575 -0.3763  0.0786
   40MOL0     C 5181   0.005   8.462   4.690 -0.6911  1.3511 -0.2010
   40MOL0     C 5182   0.001   8.580   4.762  0.3982  0.2697  0.3128
   40MOL0     O 5183  -0.124   8.626   4.773  0.3450  0.6263 -0.5473
   40MOL0     C 5184  -0.136   8.727   4.871  0.9449  0.2258 -0.1919
   40MOL0     C 5185  -0.277   8.761   4.900 -0.9274  0.2178 -0.1938
   40MOL0     C 5186  -0.373   8.824   4.810 -0.1943 -0.8034  0.4654
   40MOL0     C 5187  -0.313   8.951   4.748  0.2760 -0.6930 -0.1880
   40MOL0     C 5188  -0.408   9.000   4.637 -0.0567  0.5838 -0.0669
   40MOL0     C 5189  -0.415   9.160   4.629 -0.6949  0.1313  0.8415
   40MOL0     C 5190  -0.454   9.222   4.493  0.3556 -0.2854 -0.2399
   40MOL0     C 5191  -0.601   9.217   4.475 -0.4652 -0.0529 -0.2158
   40MOL0    Cl 5192  -0.685   9.336   4.568  0.7314 -0.5348 -0.0500
   40MOL0     C 5193   0.115   8.629   4.827  0.0813 -0.7771  0.2719
   40MOL0     C 5194   0.232   8.561   4.822  0.6328  0.1416  0.2702
   40MOL0     O 5195   0.251   8.215   4.908 -1.1565  0.1370 -0.1742
   40MOL0     C 5196   0.444   8.029   4.873  0.2451  0.4284 -0.7604
   40MOL0     C 5197   0.537   7.927   4.846 -0.2170 -0.3456  0.5255
   40MOL0     N 5198   0.677   7.483   5.034  0.3837  0.2033 -0.2928
   40MOL0     N 5199   0.556   7.463   5.063 -0.2083 -0.0531  0.1756
   40MOL0     C 5200   0.329   7.095   4.583  0.0447 -0.3206 -0.0487
   40MOL0     C 5201   0.337   7.225   4.525  0.1217 -0.2080  0.6406
   40MOL0     C 5202   0.466   7.659   4.455  0.5903  0.0619 -0.0404
   40MOL0     C 5203   0.411   7.772   4.516 -0.3383  0.6354 -0.7083
   40MOL0     C 5204   0.427   7.896   4.450 -0.1191 -1.1167 -0.1685
   40MOL0     C 5205   0.483   7.900   4.326  0.3422  0.4604 -0.0219
   40MOL0     O 5206   0.507   8.021   4.261  0.2457  0.2145 -0.4477
   40MOL0     C 5207   0.500   8.143   4.337 -0.0442 -0.3149 -0.2956
   40MOL0     C 5208   0.564   8.258   4.257 -0.2882 -0.1262 -0.4776
   40MOL0     C 5209   0.709   8.283   4.282 -0.1093  0.5508 -0.2780
   40MOL0     C 5210   0.735   8.360   4.404 -0.2441  1.5674 -0.6690
   40MOL0     C 5211   0.887   8.367   4.425  0.2576  0.4843 -0.6819
   40MOL0     C 5212   1.007   8.389   4.418  0.2471 -0.0997 -0.4165
   40MOL0     C 5213   0.526   7.785   4.263  0.1141 -0.0526  0.0992
   40MOL0     C 5214   0.514   7.662   4.325  0.0392  0.3874  0.0817
   40MOL0     H 5215   0.669   7.274   4.528  0.2352  0.2737 -0.1299
   40MOL0     H 5216   0.656   7.034   4.651 -0.8917  0.0507  0.9442
   40MOL0     H 5217   0.421   6.721   4.688  1.0814  1.2752 -0.2688
   40MOL0     H 5218   0.328   6.804   4.566  0.5807 -3.5882  0.5231
   40MOL0     H 5219   0.163   6.731   4.739  0.6892 -0.1429  0.4661
   40MOL0     H 5220   0.180   6.902   4.715  0.2259  0.0168 -1.4660
   40MOL0     H 5221   0.359   6.845   4.927  0.0625 -0.3801  0.0681
   40MOL0     H 5222   0.242   6.715   4.946  0.8620 -0.3045  0.1197
   40MOL0     H 5223   0.067   6.939   4.906 -2.6865  1.6297  4.1006
   40MOL0     H 5224   0.082   6.841   5.044 -0.9368 -0.3749 -0.6047
   40MOL0     H 5225   0.267   6.997   5.135  1.5866  0.2580 -3.0703
   40MOL0     H 5226   0.110   7.075   5.092 -0.7914 -0.6381 -1.1828
   40MOL0     H 5227   0.213   7.153   4.877 -1.2236  0.4166  0.8438
   40MOL0     H 5228   0.365   7.093   4.932 -0.8500 -0.6502 -0.8501
   40MOL0     H 5229   0.197   7.320   5.070 -0.0466  2.0266 -1.7950
   40MOL0     H 5230   0.354   7.262   5.132  0.7388  2.8027 -0.3145
   40MOL0     H 5231   0.326   7.480   4.993  2.7485  1.9278 -0.8338
   40MOL0     H 5232   0.333   7.373   4.848  2.2814  3.1446 -1.3379
   40MOL0     H 5233   0.582   7.310   4.779  0.4544 -0.5961  0.2188
   40MOL0     H 5234   0.849   7.314   4.828  3.5692 -0.4314  0.3109
   40MOL0     H 5235   0.913   7.421   4.944  0.2087  0.3917 -0.4770
   40MOL0     H 5236   0.794   7.518   4.662 -0.8055 -1.7758  1.2098
   40MOL0     H 5237   0.965   7.505   4.703 -0.6496  0.7419 -1.4086
   40MOL0     H 5238   0.890   7.659   4.891  3.4257 -0.1438 -1.0689
   40MOL0     H 5239   0.940   7.710   4.729 -0.4479 -0.8307 -1.4017
   40MOL0     H 5240   0.660   7.694   4.835 -1.6581  2.2007 -1.1042
   40MOL0     H 5241   0.710   7.720   4.658 -0.3868  2.9552 -0.4764
   40MOL0     H 5242   0.771   8.112   4.696 -0.6064  2.4657  0.3103
   40MOL0     H 5243   0.602   8.293   4.747 -2.6567  0.6626  0.3168
   40MOL0     H 5244   0.137   8.297   4.634 -1.0303  0.1854 -0.9961
   40MOL0     H 5245  -0.090   8.435   4.645  0.0620 -1.5806 -0.2384
   40MOL0     H 5246  -0.066   8.808   4.849  1.5284 -0.9701 -3.1752
   40MOL0     H 5247  -0.104   8.691   4.969 -1.5561 -3.1483 -0.4466
   40MOL0     H 5248  -0.278   8.818   4.993  0.4250 -0.3528  0.1976
   40MOL0     H 5249  -0.332   8.672   4.933 -0.4684 -0.4088 -1.0782
   40MOL0     H 5250  -0.466   8.849   4.862 -0.6093  0.8827 -0.9615
   40MOL0     H 5251  -0.384   8.751   4.730 -0.9841 -1.0385  0.7863
   40MOL0     H 5252  -0.298   9.024   4.828  0.8661  1.4376 -2.1141
   40MOL0     H 5253  -0.215   8.927   4.706 -0.5010 -2.9280 -0.8787
   40MOL0     H 5254  -0.505   8.958   4.664  1.9108 -1.7444  4.5344
   40MOL0     H 5255  -0.392   8.967   4.534 -0.7847  1.8819 -0.6214
   40MOL0     H 5256  -0.310   9.191   4.640 -0.4403 -1.0737  2.0250
   40MOL0     H 5257  -0.473   9.198   4.714  1.7851 -0.2023  2.8003
   40MOL0     H 5258  -0.427   9.327   4.479  2.0149 -0.7260 -0.5572
   40MOL0     H 5259  -0.411   9.160   4.414  0.4337  2.4257 -2.4806
   40MOL0     H 5260  -0.642   9.118   4.495  1.3316 -0.7552  0.1569
   40MOL0     H 5261  -0.618   9.235   4.369  0.5249 -0.8297 -0.5298
   40MOL0     H 5262   0.107   8.719   4.888  1.4182  0.2396 -0.9817
   40MOL0     H 5263   0.314   8.605   4.878 -0.9910  1.8153  1.4827
   40MOL0     H 5264   0.355   7.983   4.915 -0.1829  0.4113 -1.6694
   40MOL0     H 5265   0.515   7.827   4.884 -0.2761 -0.7903 -0.6544
   40MOL0     H 5266   0.228   7.060   4.602  0.2083 -0.2742  0.9651
   40MOL0     H 5267   0.247   7.282   4.503 -0.1891 -0.4933  1.1584
   40MOL0     H 5268   0.359   7.773   4.611 -2.7168  0.3471 -1.9278
   40MOL0     H 5269   0.379   7.980   4.499 -0.6573 -0.1035 -2.2895
   40MOL0     H 5270   0.549   8.134   4.434 -0.2783 -1.0340 -0.2416
   40MOL0     H 5271   0.393   8.150   4.361  0.4441 -1.6061  2.5943
   40MOL0     H 5272   0.555   8.233   4.151  2.3809 -0.5423 -0.6632
   40MOL0     H 5273   0.511   8.351   4.282  0.9516  0.1722  1.1967
   40MOL0     H 5274   0.758   8.348   4.209  0.8350  0.8008  0.5466
   40MOL0     H 5275   0.770   8.192   4.278  1.0813  1.3239 -0.2574
   40MOL0     H 5276   0.689   8.459   4.407 -0.4338  1.5429 -2.0053
   40MOL0     H 5277   0.693   8.306   4.490 -0.8074  0.7117 -1.4535
   40MOL0     H 5278   1.114   8.395   4.417  0.2307  0.3153 -1.7888
   40MOL0     H 5279   0.563   7.800   4.162  3.2200 -1.2932  0.9298
   40MOL0     H 5280   0.539   7.569   4.276 -1.4695 -1.0931  1.9652
   41MOL0     O 5281   8.427   3.032   7.166 -0.0424 -0.6624  0.2402
   41MOL0     C 5282   8.475   2.971   7.069  0.7387 -0.6819 -0.1485
   41MOL0     O 5283   8.424   2.964   6.935 -0.5009 -0.5006  0.2432
   41MOL0     C 5284   8.308   3.031   6.918 -0.7507  0.8125 -0.1140
   41MOL0     C 5285   8.186   2.996   6.981 -0.1618 -0.3019  0.2515
   41MOL0     C 5286   8.058   3.055   6.966 -0.6973 -0.7140  0.1418
   41MOL0     C 5287   8.061   3.170   6.888  0.9599 -0.4935  0.9688
   41MOL0     O 5288   7.945   3.234   6.857  0.1488 -1.3658 -0.1847
   41MOL0     C 5289   7.811   3.201   6.906  0.3291  0.3030 -0.5161
   41MOL0     C 5290   7.723   3.333   6.900 -0.3984  0.6993  0.0117
   41MOL0     C 5291   7.738   3.435   7.024 -0.3534  0.7974  0.2645
   41MOL0     C 5292   7.642   3.551   7.018 -0.2830  0.0566 -0.9204
   41MOL0     C 5293   7.636   3.614   7.165  0.2549  0.7684  0.0879
   41MOL0     C 5294   7.759   3.694   7.189  0.2364 -0.0432 -0.7972
   41MOL0     C 5295   7.743   3.762   7.334 -0.8645  0.2525  0.9272
   41MOL0     C 5296   7.819   3.682   7.439  0.2544  0.5329 -0.8837
   41MOL0     N 5297   7.760   3.556   7.473  0.5595  0.1520  0.1179
   41MOL0     C 5298   7.652   3.532   7.558  0.7482 -0.5056 -0.4646
   41MOL0     C 5299   7.626   3.397   7.537  0.9451 -0.5584  0.9425
   41MOL0     C 5300   7.518   3.314   7.607  0.1662  0.0096  0.5260
   41MOL0     C 5301   7.575   3.190   7.688  0.0293 -0.1171 -0.5784
   41MOL0     C 5302   7.472   3.104   7.758  0.6284  0.2299  0.1163
   41MOL0     C 5303   7.533   2.987   7.822  0.4553 -0.6602  0.9968
   41MOL0     O 5304   7.609   3.032   7.936 -0.6002  0.4790  0.4760
   41MOL0     C 5305   7.737   2.976   7.930 -0.2211  0.2766 -0.8838
   41MOL0     C 5306   7.841   3.020   7.843  0.4549 -0.7593  0.4301
   41MOL0     C 5307   7.965   2.963   7.842  0.1906  0.2727 -0.5554
   41MOL0     C 5308   7.998   2.863   7.940  0.9466  0.1180  0.2075
   41MOL0     C 5309   8.140   2.814   7.962  0.4110  0.2777 -0.3831
   41MOL0     O 5310   8.146   2.710   8.052 -0.1856 -0.6880  0.1961
   41MOL0     C 5311   8.262   2.655   8.096  0.0572  0.3682  0.4630
   41MOL0     C 5312   8.392   2.681   8.040 -1.0945  0.8733 -0.0868
   41MOL0     C 5313   8.506   2.621   8.095 -0.7239 -0.0886 -0.3428
   41MOL0     C 5314   8.486   2.523   8.200  0.5365 -0.5137  0.6837
   41MOL0     O 5315   8.605   2.462   8.241 -0.2270 -0.1446  0.9835
   41MOL0     C 5316   8.618   2.385   8.360 -0.2065 -0.0482 -0.1563
   41MOL0     C 5317   8.747   2.313   8.369 -1.3609  0.0324  0.0959
   41MOL0     C 5318   8.881   2.400   8.363 -0.3946  1.3542 -0.1025
   41MOL0     C 5319   9.006   2.341   8.420  0.3167  0.6649 -0.0827
   41MOL0     C 5320   9.144   2.405   8.377  0.5314  0.5753  0.0845
   41MOL0     C 5321   9.253   2.393   8.481 -0.2623 -0.4094  0.1216
   41MOL0     C 5322   9.376   2.474   8.437 -0.9557 -0.3742  0.6129
   41MOL0     C 5323   9.477   2.448   8.543  0.6474  1.0795  1.1484
   41MOL0    Cl 5324   9.599   2.573   8.545 -0.1525 -0.3013 -0.0190
   41MOL0     C 5325   8.363   2.505   8.259 -1.1911 -0.2049  0.4870
   41MOL0     C 5326   8.253   2.577   8.211 -0.2676  0.6007  0.6071
   41MOL0     O 5327   8.233   2.879   7.912 -0.3364 -0.0755  0.6560
   41MOL0     C 5328   7.898   2.814   8.025  0.1568 -0.5069 -0.9836
   41MOL0     C 5329   7.766   2.870   8.017 -0.0833 -0.2696 -0.3405
   41MOL0     N 5330   7.724   3.335   7.458  0.2240 -0.3133  0.2983
   41MOL0     N 5331   7.795   3.432   7.417  0.1465 -0.5613 -0.1426
   41MOL0     C 5332   8.179   3.204   6.815 -0.3018 -0.4612 -0.1925
   41MOL0     C 5333   8.307   3.146   6.838 -0.1014 -0.4081 -0.0640
   41MOL0     C 5334   8.579   2.875   7.090 -0.1174 -0.1263  0.3999
   41MOL0     C 5335   8.625   2.854   7.219  0.1126 -0.2789 -0.1399
   41MOL0     C 5336   8.718   2.759   7.251  0.4635 -0.1714 -0.3891
   41MOL0     C 5337   8.769   2.676   7.150 -0.3331 -0.3394 -0.6912
   41MOL0     O 5338   8.864   2.588   7.199 -0.0117 -0.5192  0.5162
   41MOL0     C 5339   8.946   2.512   7.106  0.1779  0.5244 -0.6919
   41MOL0     C 5340   9.021   2.407   7.197  0.5276 -0.1053 -0.5141
   41MOL0     C 5341   9.161   2.380   7.140 -0.5764 -0.3120  0.9114
   41MOL0     C 5342   9.225   2.258   7.211 -0.3069 -0.3321 -0.3546
   41MOL0     C 5343   9.350   2.214   7.152  0.3360  0.5442  0.4559
   41MOL0     C 5344   9.441   2.145   7.115  0.4085 -0.5636 -0.4945
   41MOL0     C 5345   8.728   2.693   7.024 -0.8323 -0.1247 -1.2668
   41MOL0     C 5346   8.625   2.786   6.990  0.3943 -0.2140 -0.6419
   41MOL0     H 5347   8.188   2.906   7.042 -1.0798 -1.7983 -1.8184
   41MOL0     H 5348   7.979   3.018   7.030  1.0699 -0.1845  2.7727
   41MOL0     H 5349   7.809   3.181   7.014  1.4510 -2.3706 -0.9053
   41MOL0     H 5350   7.766   3.108   6.870 -2.1539  0.4241  1.9355
   41MOL0     H 5351   7.620   3.297   6.906  0.8604 -3.3335  0.3236
   41MOL0     H 5352   7.743   3.397   6.814  0.3595 -0.1008 -0.4225
   41MOL0     H 5353   7.833   3.487   7.005 -0.9090  2.3041  1.3415
   41MOL0     H 5354   7.732   3.383   7.120 -1.1137 -0.1195 -0.2576
   41MOL0     H 5355   7.679   3.624   6.944 -2.4161  2.7850  0.5214
   41MOL0     H 5356   7.540   3.531   6.985  0.0041 -1.1547 -1.1229
   41MOL0     H 5357   7.628   3.537   7.242  1.1066  0.7884  0.2033
   41MOL0     H 5358   7.551   3.682   7.170 -2.1415 -1.6778 -2.7117
   41MOL0     H 5359   7.763   3.774   7.115  2.4924  1.9778  1.3124
   41MOL0     H 5360   7.856   3.643   7.188  0.3781  0.2144 -0.4805
   41MOL0     H 5361   7.786   3.862   7.340 -1.4138  0.6570 -1.0637
   41MOL0     H 5362   7.637   3.777   7.356 -0.8805 -0.1546  1.1392
   41MOL0     H 5363   7.820   3.746   7.527 -2.4074 -1.7464  1.0108
   41MOL0     H 5364   7.923   3.657   7.417  0.4352 -1.2001  1.4493
   41MOL0     H 5365   7.591   3.600   7.617  0.8478 -1.8206  1.2366
   41MOL0     H 5366   7.445   3.268   7.539  0.9201 -1.7993  0.8831
   41MOL0     H 5367   7.465   3.375   7.681 -2.0751 -3.2475  1.8466
   41MOL0     H 5368   7.641   3.224   7.767 -0.8442 -0.6008  0.3850
   41MOL0     H 5369   7.643   3.133   7.623  0.3617  0.0070 -0.3411
   41MOL0     H 5370   7.416   3.167   7.827  0.5958  0.1806  0.1344
   41MOL0     H 5371   7.402   3.075   7.679  0.1462 -1.3272  1.0854
   41MOL0     H 5372   7.590   2.926   7.751 -0.9692 -1.2418  0.3201
   41MOL0     H 5373   7.457   2.916   7.856 -1.1049  0.1620 -0.6354
   41MOL0     H 5374   7.828   3.102   7.773 -0.3551 -2.2032 -1.1897
   41MOL0     H 5375   8.052   2.998   7.787 -0.5475  1.1089 -1.2218
   41MOL0     H 5376   8.414   2.738   7.950 -0.5504 -0.5579 -0.8978
   41MOL0     H 5377   8.607   2.630   8.056 -1.2289  2.1893 -1.2796
   41MOL0     H 5378   8.548   2.301   8.359  2.0023 -1.9918 -1.1749
   41MOL0     H 5379   8.603   2.448   8.448  2.9616 -0.6588  0.9464
   41MOL0     H 5380   8.756   2.236   8.292 -0.5110  0.5545 -0.3460
   41MOL0     H 5381   8.751   2.256   8.462 -2.1367 -1.0409 -0.5063
   41MOL0     H 5382   8.862   2.487   8.425  2.7981  0.5283  2.2606
   41MOL0     H 5383   8.904   2.435   8.262 -2.2224 -2.5578 -2.1004
   41MOL0     H 5384   8.998   2.353   8.529 -1.6875  1.2153 -0.2617
   41MOL0     H 5385   9.000   2.236   8.393  2.5507 -0.3463  2.7838
   41MOL0     H 5386   9.133   2.511   8.354 -0.3389 -0.1950 -3.7057
   41MOL0     H 5387   9.184   2.354   8.288 -0.5594 -0.3712  0.1115
   41MOL0     H 5388   9.274   2.287   8.500 -3.6810 -1.1785  0.2748
   41MOL0     H 5389   9.212   2.447   8.567  0.1148  2.7002 -1.5159
   41MOL0     H 5390   9.408   2.454   8.335  0.6388  3.2337  0.2380
   41MOL0     H 5391   9.351   2.580   8.448  1.5217  0.0895  2.6486
   41MOL0     H 5392   9.523   2.354   8.509 -1.1145  0.6902 -0.3615
   41MOL0     H 5393   9.425   2.426   8.636 -1.0355  2.0396  0.4777
   41MOL0     H 5394   8.352   2.439   8.344  1.0900  2.0030  2.6843
   41MOL0     H 5395   8.156   2.572   8.260 -1.2250  0.5676 -1.2306
   41MOL0     H 5396   7.917   2.737   8.100  0.3749  0.0626 -0.4475
   41MOL0     H 5397   7.686   2.836   8.082 -1.5765  0.6418 -1.6498
   41MOL0     H 5398   8.163   3.282   6.741 -0.1675 -1.3457 -1.1759
   41MOL0     H 5399   8.396   3.190   6.794  0.4577  0.4124  1.7948
   41MOL0     H 5400   8.593   2.910   7.307  1.7119 -0.5677  0.6808
   41MOL0     H 5401   8.741   2.744   7.356  0.3709 -3.1581 -0.7176
   41MOL0     H 5402   9.011   2.571   7.041  0.0928  1.2679 -0.1097
   41MOL0     H 5403   8.888   2.445   7.042 -0.5941  1.8918 -1.4791
   41MOL0     H 5404   9.013   2.434   7.302 -3.2007 -0.0276 -0.6715
   41MOL0     H 5405   8.962   2.315   7.187 -1.5854  1.0710  0.4390
   41MOL0     H 5406   9.233   2.461   7.146  2.6083 -2.9827  1.6484
   41MOL0     H 5407   9.150   2.354   7.034 -0.4347 -0.0689  0.8381
   41MOL0     H 5408   9.260   2.287   7.310  1.0018 -1.0529 -0.5865
   41MOL0     H 5409   9.152   2.176   7.214  0.9724 -1.4855 -0.0109
   41MOL0     H 5410   9.520   2.076   7.093  2.2110  0.6131  1.7734
   41MOL0     H 5411   8.765   2.620   6.952  2.7603 -0.4540  0.6759
   41MOL0     H 5412   8.592   2.798   6.887  2.3475 -1.3443 -1.4397
   42MOL0     O 5413   1.323   5.696   8.839 -0.7881 -0.1206 -0.5759
   42MOL0     C 5414   1.234   5.674   8.920 -0.2833  0.0430 -0.3881
   42MOL0     O 5415   1.231   5.565   9.019  0.1940  0.1400 -0.1421
   42MOL0     C 5416   1.350   5.494   9.051 -1.1318  0.6666 -0.4830
   42MOL0     C 5417   1.481   5.524   9.018 -0.3147  0.6770  0.1788
   42MOL0     C 5418   1.584   5.445   9.072  0.6554  0.2170 -0.5337
   42MOL0     C 5419   1.565   5.328   9.143 -0.3926  0.1190  0.0103
   42MOL0     O 5420   1.672   5.273   9.205 -0.1083 -0.5072 -0.1169
   42MOL0     C 5421   1.702   5.135   9.172 -0.5357 -0.3298 -0.8548
   42MOL0     C 5422   1.797   5.126   9.048 -0.3654 -0.1170  0.4008
   42MOL0     C 5423   1.813   4.969   9.005  0.1005 -0.3903 -1.1113
   42MOL0     C 5424   1.682   4.904   8.952  1.0998 -0.6861  0.3209
   42MOL0     C 5425   1.629   4.786   9.040 -0.6998  0.9542 -0.2756
   42MOL0     C 5426   1.514   4.710   8.958 -1.1266 -0.4743  0.1849
   42MOL0     C 5427   1.476   4.578   9.018  0.8641  1.1825 -0.2489
   42MOL0     C 5428   1.371   4.490   8.937 -0.2264 -0.3613 -0.0645
   42MOL0     N 5429   1.247   4.555   8.894 -0.2233 -0.8319  0.2221
   42MOL0     C 5430   1.144   4.579   8.975  0.1569  0.3097  0.2488
   42MOL0     C 5431   1.040   4.611   8.895  0.5880  0.5250  0.9255
   42MOL0     C 5432   0.904   4.617   8.950  1.1195 -0.5736 -0.4701
   42MOL0     C 5433   0.878   4.725   9.061 -1.1137 -0.1917 -0.2401
   42MOL0     C 5434   0.758   4.701   9.138 -0.8073  0.4161  0.1355
   42MOL0     C 5435   0.631   4.707   9.054 -0.3820 -0.1555 -0.5852
   42MOL0     O 5436   0.617   4.845   9.011  0.0576  0.4610  0.2013
   42MOL0     C 5437   0.502   4.906   9.039  0.2522  0.2359 -1.4739
   42MOL0     C 5438   0.378   4.848   9.043  1.0891  0.0594 -0.4205
   42MOL0     C 5439   0.265   4.933   9.056  0.0360 -0.2447  0.2724
   42MOL0     C 5440   0.270   5.073   9.063 -0.0879  0.0423 -0.3098
   42MOL0     C 5441   0.146   5.147   9.098  0.0509 -0.2580  0.7438
   42MOL0     O 5442   0.161   5.261   9.172  0.0303 -0.1899  0.7926
   42MOL0     C 5443   0.044   5.333   9.182  0.9452 -0.5780  0.1442
   42MOL0     C 5444  -0.023   5.315   9.301 -0.2470 -0.4085 -1.0033
   42MOL0     C 5445  -0.130   5.402   9.337 -0.4460  0.4111 -1.3095
   42MOL0     C 5446  -0.170   5.500   9.244  0.3747 -0.0292 -0.1648
   42MOL0     O 5447  -0.256   5.600   9.273 -0.1148 -0.0285 -0.5606
   42MOL0     C 5448  -0.356   5.584   9.380  0.7061  0.3689  0.3506
   42MOL0     C 5449  -0.488   5.548   9.321  0.3204 -0.1503 -0.3947
   42MOL0     C 5450  -0.544   5.640   9.204 -0.2035  0.3416  0.9054
   42MOL0     C 5451  -0.564   5.789   9.245  0.2818 -0.5198 -0.1468
   42MOL0     C 5452  -0.659   5.867   9.147  0.3856  0.2462  0.4381
   42MOL0     C 5453  -0.808   5.832   9.159  0.2433 -0.0202 -0.5000
   42MOL0     C 5454  -0.898   5.905   9.056  0.8362  0.9284 -0.3820
   42MOL0     C 5455  -1.030   5.838   9.051  0.8154  0.9443 -0.6087
   42MOL0    Cl 5456  -1.155   5.960   9.022  0.1354  0.3942  0.0678
   42MOL0     C 5457  -0.099   5.517   9.123 -0.3853 -0.4522  0.1312
   42MOL0     C 5458   0.010   5.439   9.097 -0.6927 -0.7359 -0.5094
   42MOL0     O 5459   0.042   5.103   9.063  0.4286  0.0310  0.4305
   42MOL0     C 5460   0.395   5.129   9.081 -0.1373 -0.1814 -1.0500
   42MOL0     C 5461   0.512   5.045   9.065  0.6714 -0.6562 -0.3758
   42MOL0     N 5462   1.086   4.608   8.766 -0.2887  0.0637  0.4235
   42MOL0     N 5463   1.213   4.581   8.763 -0.9186  0.6767  0.4036
   42MOL0     C 5464   1.434   5.289   9.166 -0.1704  0.0679 -0.1579
   42MOL0     C 5465   1.330   5.373   9.121 -0.7797 -0.4473  0.3710
   42MOL0     C 5466   1.112   5.755   8.903  0.9042  0.1667 -0.6227
   42MOL0     C 5467   0.990   5.710   8.964  0.2642  0.0918 -0.8179
   42MOL0     C 5468   0.875   5.788   8.954 -0.6414 -0.2905 -0.1860
   42MOL0     C 5469   0.878   5.904   8.878  0.0324 -0.0444  0.1787
   42MOL0     O 5470   0.753   5.960   8.870  0.1840 -0.0453 -0.4369
   42MOL0     C 5471   0.740   6.097   8.848 -0.0071 -1.0144 -0.5170
   42MOL0     C 5472   0.598   6.150   8.889 -0.4866  0.8372 -0.0372
   42MOL0     C 5473   0.500   6.130   8.773 -0.6481 -0.1769  0.4966
   42MOL0     C 5474   0.529   6.244   8.669  0.3519  0.2628  0.0432
   42MOL0     C 5475   0.446   6.234   8.551  0.9314  0.4855  0.5721
   42MOL0     C 5476   0.356   6.223   8.465 -0.9976  0.4070 -0.1076
   42MOL0     C 5477   0.993   5.959   8.822  0.1563 -0.5804 -0.2194
   42MOL0     C 5478   1.114   5.883   8.843  0.2817  0.4963 -0.3722
   42MOL0     H 5479   1.510   5.608   8.956  1.9273 -0.4917 -0.4832
   42MOL0     H 5480   1.685   5.479   9.049  1.1879 -0.9239  0.0157
   42MOL0     H 5481   1.605   5.092   9.147 -0.9118  0.0770 -0.1553
   42MOL0     H 5482   1.727   5.082   9.264 -5.2972  2.8429  2.7985
   42MOL0     H 5483   1.896   5.167   9.070  0.8498 -2.5214 -0.2210
   42MOL0     H 5484   1.745   5.179   8.968 -2.7717  0.9591  2.5459
   42MOL0     H 5485   1.838   4.919   9.099 -1.0763 -0.7626 -0.9744
   42MOL0     H 5486   1.884   4.965   8.922 -0.0963 -0.0963 -1.2955
   42MOL0     H 5487   1.600   4.975   8.940 -0.1409 -2.4395 -2.4296
   42MOL0     H 5488   1.702   4.874   8.849  1.7938  1.3189 -0.1753
   42MOL0     H 5489   1.577   4.811   9.133 -2.7886 -1.8477 -0.5626
   42MOL0     H 5490   1.711   4.719   9.068 -1.7072 -0.0199  0.4217
   42MOL0     H 5491   1.562   4.675   8.867  0.0409 -0.3493  0.7327
   42MOL0     H 5492   1.426   4.772   8.939  0.2285  0.7425 -2.7450
   42MOL0     H 5493   1.550   4.504   9.049 -2.2750 -1.7865  0.7230
   42MOL0     H 5494   1.425   4.613   9.108 -1.2997  1.2723 -1.4386
   42MOL0     H 5495   1.354   4.410   9.010  3.0589  0.3087  1.6446
   42MOL0     H 5496   1.424   4.455   8.848  1.3269  2.0177 -0.1488
   42MOL0     H 5497   1.132   4.579   9.082 -1.0824 -1.5660  0.1612
   42MOL0     H 5498   0.890   4.522   9.002  2.8762  1.0689  3.3526
   42MOL0     H 5499   0.834   4.626   8.866  1.9900  0.6409 -1.1054
   42MOL0     H 5500   0.872   4.823   9.013  0.7206  1.0813  1.9313
   42MOL0     H 5501   0.965   4.725   9.128 -1.3296 -4.6534  0.3200
   42MOL0     H 5502   0.773   4.598   9.174 -2.6801 -0.0554 -0.3245
   42MOL0     H 5503   0.747   4.770   9.222 -0.5027 -2.0877  2.3959
   42MOL0     H 5504   0.549   4.661   9.110  1.7846 -2.1630  1.1524
   42MOL0     H 5505   0.630   4.661   8.955 -1.7471  3.4347 -2.4000
   42MOL0     H 5506   0.368   4.742   9.061  2.0595  0.0602  0.1985
   42MOL0     H 5507   0.168   4.885   9.064  0.2421 -0.4155  2.3681
   42MOL0     H 5508   0.007   5.247   9.380 -0.4399  1.7666  1.0347
   42MOL0     H 5509  -0.171   5.378   9.434  1.9298 -3.2665 -1.0198
   42MOL0     H 5510  -0.361   5.682   9.428 -3.7788  0.7324 -0.4580
   42MOL0     H 5511  -0.332   5.507   9.455  0.2629  1.8011  2.0257
   42MOL0     H 5512  -0.570   5.556   9.393 -0.1549  0.2396 -0.9678
   42MOL0     H 5513  -0.483   5.445   9.286 -0.4618  0.3097 -1.9730
   42MOL0     H 5514  -0.640   5.597   9.175 -0.8277  1.7880  0.7701
   42MOL0     H 5515  -0.477   5.627   9.119 -2.8471 -1.5842 -1.0523
   42MOL0     H 5516  -0.626   5.790   9.335 -0.9974 -1.1064 -0.9823
   42MOL0     H 5517  -0.468   5.838   9.262  0.7531 -1.2201 -0.7321
   42MOL0     H 5518  -0.637   5.854   9.041 -3.5587 -0.2515 -0.4886
   42MOL0     H 5519  -0.661   5.975   9.167  2.5546  0.4546 -0.2755
   42MOL0     H 5520  -0.848   5.841   9.260 -1.4622 -1.6200 -0.9673
   42MOL0     H 5521  -0.816   5.723   9.149  0.7421 -0.7894  4.6677
   42MOL0     H 5522  -0.914   6.009   9.087 -0.0110  0.5775  0.3994
   42MOL0     H 5523  -0.860   5.909   8.954 -1.4608  1.9882 -1.2593
   42MOL0     H 5524  -1.054   5.783   9.142  0.8383 -0.7186 -1.5624
   42MOL0     H 5525  -1.038   5.760   8.974  0.0140 -0.8116  1.1454
   42MOL0     H 5526  -0.109   5.595   9.048  1.1498  0.6824  1.0582
   42MOL0     H 5527   0.071   5.465   9.011 -0.3527 -1.1433 -0.3964
   42MOL0     H 5528   0.403   5.234   9.109 -3.0156 -0.4492  1.1888
   42MOL0     H 5529   0.609   5.092   9.060  0.1969  0.3349 -0.5790
   42MOL0     H 5530   1.408   5.192   9.207 -1.0751  0.3958  0.0613
   42MOL0     H 5531   1.225   5.346   9.131 -0.8832  0.4021  1.7811
   42MOL0     H 5532   0.992   5.623   9.029  3.5617  1.5846  1.3355
   42MOL0     H 5533   0.779   5.764   9.000 -1.0104  0.7873 -0.3674
   42MOL0     H 5534   0.758   6.106   8.741 -2.6895 -2.8127 -1.2212
   42MOL0     H 5535   0.818   6.151   8.902 -2.3329  1.6495  0.4793
   42MOL0     H 5536   0.560   6.092   8.974  2.8932  0.7261  1.5693
   42MOL0     H 5537   0.616   6.253   8.920  0.7051  0.4264  0.7048
   42MOL0     H 5538   0.397   6.137   8.809 -1.2251 -1.3536 -0.8181
   42MOL0     H 5539   0.499   6.031   8.727  1.3155  0.0020 -0.0225
   42MOL0     H 5540   0.505   6.342   8.711  0.3807  0.8308 -1.2001
   42MOL0     H 5541   0.632   6.230   8.634 -0.1779 -2.4117 -0.6093
   42MOL0     H 5542   0.280   6.223   8.390  0.9726 -0.0468 -2.2085
   42MOL0     H 5543   0.976   6.057   8.778  3.8253  0.3026  0.0245
   42MOL0     H 5544   1.206   5.919   8.799  2.0571 -0.7750  2.0962
   43MOL0     O 5545  10.185   2.747   2.717  0.3823  0.2140  0.0543
   43MOL0     C 5546  10.070   2.752   2.767 -0.2381  0.1486  0.4824
   43MOL0     O 5547  10.006   2.643   2.806 -0.2865 -0.7967 -0.0654
   43MOL0     C 5548   9.868   2.638   2.835  0.6069  0.1741  0.8827
   43MOL0     C 5549   9.828   2.517   2.884  0.8120 -0.1146 -0.4761
   43MOL0     C 5550   9.689   2.484   2.895  0.5166 -0.0657 -0.3099
   43MOL0     C 5551   9.597   2.585   2.861  0.2560  0.3012 -0.5657
   43MOL0     O 5552   9.462   2.575   2.866  0.2728  0.2883  0.4554
   43MOL0     C 5553   9.420   2.440   2.897  0.3016 -0.4704 -0.0387
   43MOL0     C 5554   9.268   2.454   2.921 -0.3168  0.8335  0.3763
   43MOL0     C 5555   9.197   2.502   2.790 -0.3459  0.5478 -0.5901
   43MOL0     C 5556   9.051   2.497   2.833 -0.0642 -0.1134 -0.4408
   43MOL0     C 5557   8.957   2.508   2.714  0.0954  0.5428  0.2428
   43MOL0     C 5558   8.954   2.645   2.655 -0.4471 -0.0937 -0.1109
   43MOL0     C 5559   8.887   2.750   2.747  0.2514 -0.3371  0.5762
   43MOL0     C 5560   8.747   2.710   2.791  0.2147  0.7741 -0.3322
   43MOL0     N 5561   8.668   2.825   2.829 -0.3574  0.1616  0.0753
   43MOL0     C 5562   8.653   2.872   2.953 -0.3490  0.3202 -0.7709
   43MOL0     C 5563   8.555   2.958   2.939  1.9242  0.1312 -1.4220
   43MOL0     C 5564   8.494   3.038   3.050 -0.4868 -0.4400  0.2515
   43MOL0     C 5565   8.442   2.945   3.162 -1.0183 -0.0011 -0.3473
   43MOL0     C 5566   8.351   2.837   3.100 -1.0136 -0.6390  0.8642
   43MOL0     C 5567   8.246   2.907   3.009 -0.8736  0.8231  0.4212
   43MOL0     O 5568   8.175   3.009   3.073  0.6032 -0.0738 -0.1965
   43MOL0     C 5569   8.087   2.975   3.181  0.2061  0.4938 -0.2009
   43MOL0     C 5570   8.056   3.084   3.265 -0.7170 -0.3678  0.6737
   43MOL0     C 5571   7.965   3.077   3.378  0.4843  0.2350  0.7925
   43MOL0     C 5572   7.901   2.961   3.408 -0.5521  0.5440  0.3014
   43MOL0     C 5573   7.831   2.950   3.533  0.2022 -0.3588 -0.2062
   43MOL0     O 5574   7.821   3.049   3.623 -0.7383  0.9885 -0.1277
   43MOL0     C 5575   7.695   3.065   3.676  0.6942 -0.7738 -0.5796
   43MOL0     C 5576   7.567   3.024   3.623 -0.4203  0.1151  0.1285
   43MOL0     C 5577   7.451   3.042   3.695  0.1086  0.9707 -1.2709
   43MOL0     C 5578   7.468   3.094   3.829 -0.4389 -0.3714  0.2892
   43MOL0     O 5579   7.374   3.099   3.924 -0.9793 -0.3534  0.1239
   43MOL0     C 5580   7.257   3.013   3.908  0.1989 -0.1043 -0.3099
   43MOL0     C 5581   7.185   3.003   4.045 -0.0053  0.1030 -0.8983
   43MOL0     C 5582   7.145   3.147   4.095  0.4457 -0.6310 -0.0313
   43MOL0     C 5583   7.019   3.195   4.014 -0.6992  0.7213  0.0435
   43MOL0     C 5584   6.944   3.303   4.105 -0.3861 -0.4274  0.8657
   43MOL0     C 5585   6.980   3.443   4.056  0.5531 -0.1483  0.3002
   43MOL0     C 5586   6.921   3.559   4.141 -0.2794  0.1890 -1.3431
   43MOL0     C 5587   7.003   3.575   4.269  0.5169  0.9196 -0.5312
   43MOL0    Cl 5588   6.972   3.736   4.335 -0.0741  0.3123  0.4170
   43MOL0     C 5589   7.592   3.138   3.878 -0.3227 -0.1134  0.9577
   43MOL0     C 5590   7.701   3.124   3.801  0.1859  0.8832 -0.7636
   43MOL0     O 5591   7.777   2.838   3.546  0.2196 -0.0941 -0.0719
   43MOL0     C 5592   7.930   2.852   3.314 -0.2627  0.3385 -0.0561
   43MOL0     C 5593   8.016   2.855   3.201  0.4334  0.0569  0.1578
   43MOL0     N 5594   8.508   2.956   2.809 -0.4185  0.8613 -1.0108
   43MOL0     N 5595   8.573   2.870   2.746 -0.3332 -0.5891 -0.4364
   43MOL0     C 5596   9.636   2.708   2.817 -0.4026 -0.6467  0.0797
   43MOL0     C 5597   9.769   2.740   2.803 -0.2847  0.6703  0.3070
   43MOL0     C 5598  10.031   2.900   2.785  0.0737 -0.0264  0.1255
   43MOL0     C 5599   9.981   2.944   2.902  0.1712 -1.0496 -0.3625
   43MOL0     C 5600   9.960   3.082   2.922 -1.1374 -0.3697 -0.6598
   43MOL0     C 5601   9.973   3.176   2.821  0.1387 -0.8819 -0.2146
   43MOL0     O 5602   9.951   3.314   2.835 -0.5154  0.1005 -0.8932
   43MOL0     C 5603   9.857   3.379   2.738  0.2444 -0.3761 -0.0001
   43MOL0     C 5604   9.719   3.304   2.738  0.4734  0.5271 -0.5532
   43MOL0     C 5605   9.646   3.309   2.875 -1.1994 -0.1561 -0.4451
   43MOL0     C 5606   9.490   3.295   2.867  0.0887 -0.0168  0.1269
   43MOL0     C 5607   9.468   3.148   2.863  0.5617  0.9908  0.3550
   43MOL0     C 5608   9.440   3.030   2.859  0.1084  0.3098  0.8811
   43MOL0     C 5609  10.032   3.129   2.706 -1.0824  0.1959 -0.0025
   43MOL0     C 5610  10.068   2.989   2.687  0.6440 -0.6155  0.6779
   43MOL0     H 5611   9.900   2.437   2.896  4.9006  3.4225  1.1230
   43MOL0     H 5612   9.657   2.382   2.910 -1.1485 -0.4318 -4.7505
   43MOL0     H 5613   9.466   2.410   2.991 -1.0559  2.2114  1.5971
   43MOL0     H 5614   9.440   2.361   2.824 -0.9920 -1.7827  0.9631
   43MOL0     H 5615   9.253   2.528   3.000  2.1919  2.0044 -0.1368
   43MOL0     H 5616   9.227   2.361   2.960  0.8123  0.6247  1.1224
   43MOL0     H 5617   9.220   2.432   2.709 -0.4612  2.2683 -2.2059
   43MOL0     H 5618   9.223   2.605   2.762  3.1177 -1.0932 -4.3895
   43MOL0     H 5619   9.025   2.399   2.874 -1.3401  0.7090  0.7524
   43MOL0     H 5620   9.031   2.566   2.915 -0.3561  0.2573 -0.8230
   43MOL0     H 5621   8.856   2.477   2.745 -0.2276  2.3506  1.1199
   43MOL0     H 5622   8.994   2.447   2.631 -0.7801 -0.7207  0.7546
   43MOL0     H 5623   8.899   2.642   2.560 -0.6567 -0.8083  0.0331
   43MOL0     H 5624   9.053   2.684   2.629 -1.1919  2.2712  0.3507
   43MOL0     H 5625   8.949   2.761   2.837 -0.0221 -1.1146  0.8658
   43MOL0     H 5626   8.879   2.845   2.694 -4.2685 -1.7702 -1.8003
   43MOL0     H 5627   8.754   2.644   2.878  0.1390 -2.2911 -2.4890
   43MOL0     H 5628   8.694   2.656   2.712 -1.2112  0.5275  0.7611
   43MOL0     H 5629   8.703   2.856   3.049  1.7568  2.3745 -1.4284
   43MOL0     H 5630   8.412   3.102   3.017  0.9256  0.9550 -0.6650
   43MOL0     H 5631   8.577   3.096   3.090  1.2220 -1.4608 -1.6220
   43MOL0     H 5632   8.383   2.999   3.237 -0.1740  1.5758 -0.7740
   43MOL0     H 5633   8.521   2.890   3.216 -0.9704  0.7715  0.3917
   43MOL0     H 5634   8.403   2.766   3.035 -0.7280  0.1213  0.2418
   43MOL0     H 5635   8.298   2.781   3.178 -2.7283  0.1617  0.3215
   43MOL0     H 5636   8.184   2.821   2.983 -2.5726  0.2502  5.3383
   43MOL0     H 5637   8.285   2.946   2.915  0.4909  1.7988  1.3376
   43MOL0     H 5638   8.099   3.183   3.255 -2.9959  0.6329  0.2676
   43MOL0     H 5639   7.951   3.173   3.427  1.4015  2.1612 -2.3747
   43MOL0     H 5640   7.565   2.995   3.518 -0.9659 -1.8186  0.6250
   43MOL0     H 5641   7.356   3.004   3.658 -0.9263  1.3216  0.8540
   43MOL0     H 5642   7.291   2.912   3.882 -0.1758  0.4616 -3.3748
   43MOL0     H 5643   7.190   3.052   3.832 -0.0169 -0.0051 -0.0700
   43MOL0     H 5644   7.255   2.964   4.120 -1.3724 -0.4109  0.1557
   43MOL0     H 5645   7.100   2.934   4.046 -0.7725  0.9406  2.3630
   43MOL0     H 5646   7.224   3.222   4.089 -0.8703  0.7046 -1.5706
   43MOL0     H 5647   7.120   3.138   4.202  2.2139 -0.3137  0.4380
   43MOL0     H 5648   7.041   3.242   3.917 -0.4643  1.5749  0.5008
   43MOL0     H 5649   6.960   3.106   3.992  0.9112 -0.1490 -0.9563
   43MOL0     H 5650   6.962   3.294   4.212 -0.4806 -1.4742  0.8068
   43MOL0     H 5651   6.837   3.281   4.098 -0.9833  2.0649  1.4482
   43MOL0     H 5652   6.942   3.450   3.954  2.1753 -2.7273 -0.5860
   43MOL0     H 5653   7.088   3.464   4.054  0.3701  1.0078  1.2122
   43MOL0     H 5654   6.932   3.651   4.082 -0.3075  1.5274  0.6566
   43MOL0     H 5655   6.815   3.542   4.160  0.5507 -1.6259  2.5879
   43MOL0     H 5656   7.110   3.563   4.250  0.2092  0.4855 -2.0985
   43MOL0     H 5657   6.961   3.501   4.339 -0.8513  0.0920 -2.1575
   43MOL0     H 5658   7.594   3.179   3.979 -0.3431 -3.1445  2.3234
   43MOL0     H 5659   7.798   3.161   3.834 -1.2104  1.7079  2.9748
   43MOL0     H 5660   7.882   2.757   3.336  0.9702 -0.1662  0.5371
   43MOL0     H 5661   8.030   2.767   3.139 -0.7492  0.1652 -0.2889
   43MOL0     H 5662   9.559   2.774   2.779 -0.9534 -1.1446  0.3235
   43MOL0     H 5663   9.792   2.838   2.763 -0.2309 -0.4640 -2.7118
   43MOL0     H 5664   9.971   2.873   2.984  0.4753 -1.3343 -0.5671
   43MOL0     H 5665   9.934   3.116   3.022  2.7707  2.8749 -0.4981
   43MOL0     H 5666   9.909   3.379   2.642 -2.3225  0.2805 -1.4748
   43MOL0     H 5667   9.840   3.484   2.766  2.1284  0.1685 -0.7983
   43MOL0     H 5668   9.646   3.339   2.665 -1.8386 -1.0518  0.8731
   43MOL0     H 5669   9.736   3.203   2.700 -1.2981 -0.3075  0.7352
   43MOL0     H 5670   9.667   3.399   2.935  0.0698  1.5037 -3.1566
   43MOL0     H 5671   9.688   3.225   2.932  1.6272  0.6878 -1.0902
   43MOL0     H 5672   9.437   3.352   2.944 -1.1444 -0.8592 -0.0735
   43MOL0     H 5673   9.459   3.334   2.770  1.0726  0.6754  0.0717
   43MOL0     H 5674   9.400   2.935   2.829  0.2711  0.7208 -0.7616
   43MOL0     H 5675  10.063   3.195   2.626 -1.2792  0.6084  0.2585
   43MOL0     H 5676  10.115   2.963   2.593  0.5636  1.2968  0.0657
   44MOL0     O 5677   4.767   4.730   1.269 -0.3424 -0.1791  0.6898
   44MOL0     C 5678   4.746   4.728   1.386  0.3191 -0.4035  0.0541
   44MOL0     O 5679   4.631   4.772   1.451 -0.6987 -0.3329  0.3953
   44MOL0     C 5680   4.529   4.826   1.377 -0.2635 -1.6589  0.1736
   44MOL0     C 5681   4.395   4.791   1.408 -0.8648 -0.0408 -1.0487
   44MOL0     C 5682   4.277   4.848   1.350  0.0020 -0.1162  1.1478
   44MOL0     C 5683   4.299   4.948   1.253  0.0886  0.1310  0.3701
   44MOL0     O 5684   4.183   5.017   1.209 -0.5151  0.1356  0.0469
   44MOL0     C 5685   4.185   5.033   1.066  0.3581 -0.6894  0.3680
   44MOL0     C 5686   4.036   5.023   1.015  0.3597  0.1868 -0.2435
   44MOL0     C 5687   4.023   5.053   0.868  1.4008  0.0754  0.3271
   44MOL0     C 5688   4.017   5.202   0.847 -1.2414 -0.0635 -0.4688
   44MOL0     C 5689   3.979   5.240   0.696  0.5853 -1.0096 -0.3150
   44MOL0     C 5690   3.842   5.201   0.638  0.0876  0.4721  0.1724
   44MOL0     C 5691   3.717   5.216   0.738  0.2643  0.0265  0.6241
   44MOL0     C 5692   3.580   5.154   0.685 -1.3213 -0.1587  0.0095
   44MOL0     N 5693   3.552   5.187   0.545 -0.0205 -0.3647 -0.1743
   44MOL0     C 5694   3.472   5.288   0.514  0.9133 -1.0377 -0.0857
   44MOL0     C 5695   3.469   5.295   0.375  0.4243  0.6504  0.4443
   44MOL0     C 5696   3.402   5.406   0.293 -1.1892  0.0094 -0.7062
   44MOL0     C 5697   3.477   5.534   0.281  0.3444 -0.7539 -0.2844
   44MOL0     C 5698   3.612   5.522   0.201 -0.2526  0.5590 -0.9680
   44MOL0     C 5699   3.689   5.653   0.180 -0.6328  0.0255  0.4588
   44MOL0     O 5700   3.729   5.693   0.311  0.1025  0.3258  0.6480
   44MOL0     C 5701   3.849   5.649   0.361  0.1866 -0.6637  0.6455
   44MOL0     C 5702   3.928   5.546   0.306 -0.1115  0.0710  0.3835
   44MOL0     C 5703   4.039   5.502   0.371 -0.2736 -0.2558  0.6621
   44MOL0     C 5704   4.093   5.561   0.488 -0.1315 -0.2332 -0.3255
   44MOL0     C 5705   4.224   5.516   0.540  0.1363 -0.7678  0.0846
   44MOL0     O 5706   4.246   5.528   0.673  0.1881 -0.1767 -0.1474
   44MOL0     C 5707   4.366   5.491   0.728 -0.5385 -0.2292  0.3064
   44MOL0     C 5708   4.449   5.597   0.775 -0.0439  0.4007 -0.8161
   44MOL0     C 5709   4.567   5.559   0.839  0.2214 -0.4870  0.4086
   44MOL0     C 5710   4.606   5.428   0.844  0.2220 -0.1186 -0.5522
   44MOL0     O 5711   4.723   5.406   0.911 -0.4204 -0.1606  0.5093
   44MOL0     C 5712   4.762   5.282   0.966  0.3233 -0.0339  0.3686
   44MOL0     C 5713   4.890   5.298   1.047  0.1742  0.1036 -0.2036
   44MOL0     C 5714   4.869   5.358   1.191 -0.1064  0.1806 -0.2875
   44MOL0     C 5715   5.011   5.386   1.254 -0.3181  0.0716  0.0976
   44MOL0     C 5716   4.997   5.433   1.403  0.2292 -0.1060 -0.7914
   44MOL0     C 5717   4.921   5.569   1.433  0.4824 -0.1641  0.4156
   44MOL0     C 5718   4.907   5.593   1.585  0.0284  0.0455 -0.3394
   44MOL0     C 5719   4.787   5.680   1.615  0.2209  0.0264  0.0285
   44MOL0    Cl 5720   4.813   5.846   1.577  0.2029 -0.0512 -0.4478
   44MOL0     C 5721   4.535   5.326   0.779 -0.1121 -0.1591 -0.0140
   44MOL0     C 5722   4.408   5.356   0.717 -0.0802 -0.5677 -0.1887
   44MOL0     O 5723   4.305   5.485   0.448 -0.8194 -0.5917 -0.5478
   44MOL0     C 5724   4.007   5.648   0.551  0.4652 -0.2420  1.0248
   44MOL0     C 5725   3.885   5.695   0.489 -0.0072 -0.5823  0.3543
   44MOL0     N 5726   3.559   5.194   0.332  0.3003 -0.2025  0.2867
   44MOL0     N 5727   3.618   5.149   0.438 -0.7692 -0.1913  0.5766
   44MOL0     C 5728   4.426   4.988   1.222  0.0011  0.1454 -0.7132
   44MOL0     C 5729   4.532   4.922   1.280  0.2597 -0.0596 -0.1093
   44MOL0     C 5730   4.851   4.670   1.469 -0.0415 -0.7227 -1.0164
   44MOL0     C 5731   4.833   4.663   1.610  0.6698 -0.4152 -0.0298
   44MOL0     C 5732   4.933   4.605   1.691  0.4287  0.2604 -0.6986
   44MOL0     C 5733   5.056   4.564   1.636  0.3112 -0.2588  0.7867
   44MOL0     O 5734   5.149   4.511   1.705  0.0820 -0.2483 -0.1939
   44MOL0     C 5735   5.191   4.592   1.807 -0.0915  0.1377  0.3861
   44MOL0     C 5736   5.344   4.564   1.843  0.0144  0.4551  0.0658
   44MOL0     C 5737   5.421   4.545   1.713 -0.4584  0.2059  0.5256
   44MOL0     C 5738   5.420   4.404   1.667 -0.5077 -0.3215  0.4092
   44MOL0     C 5739   5.440   4.382   1.526  0.4533 -0.5098 -0.3912
   44MOL0     C 5740   5.477   4.364   1.406 -0.2434 -0.0210  0.1361
   44MOL0     C 5741   5.071   4.574   1.504  0.2376  1.4806  0.1838
   44MOL0     C 5742   4.967   4.621   1.418 -0.1789 -0.8431  0.0415
   44MOL0     H 5743   4.379   4.710   1.479  1.0126 -0.4399 -1.0357
   44MOL0     H 5744   4.184   4.809   1.388 -1.0680  2.6105  1.5911
   44MOL0     H 5745   4.234   4.950   1.015 -0.1993 -1.7659  1.5236
   44MOL0     H 5746   4.235   5.120   1.023  1.0202 -2.4873 -2.7787
   44MOL0     H 5747   3.975   5.091   1.076  0.7491 -0.2924  0.7150
   44MOL0     H 5748   3.984   4.927   1.029  0.3132  0.2790  0.2277
   44MOL0     H 5749   3.930   5.007   0.833  0.8594  0.1040  1.6529
   44MOL0     H 5750   4.109   5.009   0.818 -0.3884 -0.1330 -2.8172
   44MOL0     H 5751   3.953   5.243   0.926 -0.2397  0.0282  0.3085
   44MOL0     H 5752   4.117   5.245   0.864 -1.7560  0.1792  2.5312
   44MOL0     H 5753   4.059   5.218   0.624  0.8736  0.0932 -0.3503
   44MOL0     H 5754   3.970   5.349   0.697  0.5665 -1.0120 -0.1728
   44MOL0     H 5755   3.855   5.097   0.608 -2.4811  0.2314 -0.3751
   44MOL0     H 5756   3.830   5.258   0.545  2.2257  1.7445  0.5978
   44MOL0     H 5757   3.737   5.166   0.833  2.5337  0.0712  0.2209
   44MOL0     H 5758   3.702   5.322   0.759 -0.6502  0.9510 -3.5995
   44MOL0     H 5759   3.502   5.181   0.757  0.5570  0.8443  1.7674
   44MOL0     H 5760   3.583   5.045   0.697 -1.8209 -0.4709 -2.2272
   44MOL0     H 5761   3.425   5.356   0.585  1.9300  0.7109 -1.0152
   44MOL0     H 5762   3.300   5.410   0.333 -0.2266 -1.1899  2.1155
   44MOL0     H 5763   3.389   5.367   0.192  2.0539 -1.6203 -0.6309
   44MOL0     H 5764   3.498   5.582   0.377 -2.2073 -0.2734  0.0920
   44MOL0     H 5765   3.411   5.606   0.233 -1.1553 -1.1217  1.1358
   44MOL0     H 5766   3.677   5.447   0.248 -0.3852  0.2149 -1.3357
   44MOL0     H 5767   3.591   5.480   0.103 -2.2415 -0.3274 -0.2121
   44MOL0     H 5768   3.614   5.724   0.145 -1.9509 -1.2497  0.5903
   44MOL0     H 5769   3.768   5.655   0.105 -0.1719 -1.4446  0.8637
   44MOL0     H 5770   3.912   5.498   0.210  2.4408  0.3383 -0.2620
   44MOL0     H 5771   4.089   5.417   0.326 -2.3609 -1.6195  0.7831
   44MOL0     H 5772   4.425   5.703   0.765 -0.1171  0.5594  0.8031
   44MOL0     H 5773   4.637   5.629   0.883  0.5919 -0.3109 -0.4365
   44MOL0     H 5774   4.792   5.212   0.887 -2.0073 -3.6367  2.3525
   44MOL0     H 5775   4.681   5.232   1.020  0.8333 -1.1445  0.1329
   44MOL0     H 5776   4.957   5.365   0.993  0.4918  0.3052  0.4328
   44MOL0     H 5777   4.932   5.198   1.061  0.5514  0.0996 -1.2189
   44MOL0     H 5778   4.817   5.278   1.245  0.5479 -1.3983 -1.9112
   44MOL0     H 5779   4.808   5.449   1.188  0.6761  0.7267  0.0472
   44MOL0     H 5780   5.076   5.299   1.262  1.2548  0.9017 -2.4731
   44MOL0     H 5781   5.063   5.458   1.189 -1.3485 -0.2462 -1.1264
   44MOL0     H 5782   5.096   5.435   1.449 -0.7210 -1.6873  1.5514
   44MOL0     H 5783   4.952   5.353   1.463 -1.2491  3.1026  2.7851
   44MOL0     H 5784   4.823   5.571   1.384  1.3776 -0.4345 -1.5053
   44MOL0     H 5785   4.977   5.649   1.383 -1.3181 -0.6789 -2.6805
   44MOL0     H 5786   4.892   5.494   1.630 -2.3462  0.0237 -1.0055
   44MOL0     H 5787   4.994   5.644   1.626 -2.7391  1.9739  3.8482
   44MOL0     H 5788   4.760   5.673   1.721  0.9569  0.1378  0.2295
   44MOL0     H 5789   4.703   5.655   1.549  2.1496 -0.1307 -2.4979
   44MOL0     H 5790   4.599   5.238   0.784  0.6980  0.4317  0.3131
   44MOL0     H 5791   4.347   5.276   0.676 -1.9807 -0.5632  2.3896
   44MOL0     H 5792   4.039   5.690   0.645  2.1931  1.4265 -0.2407
   44MOL0     H 5793   3.815   5.767   0.531 -4.0282 -4.5642  1.3602
   44MOL0     H 5794   4.430   5.061   1.142 -2.2804  1.2687  0.1289
   44MOL0     H 5795   4.628   4.932   1.229 -0.2830 -1.7431 -1.5398
   44MOL0     H 5796   4.733   4.693   1.640 -0.3478  1.4019 -4.3376
   44MOL0     H 5797   4.927   4.597   1.799 -0.5975  0.9078 -0.6963
   44MOL0     H 5798   5.132   4.561   1.894 -0.1199  0.2366  0.4028
   44MOL0     H 5799   5.175   4.699   1.789  1.2079 -0.0610 -2.4418
   44MOL0     H 5800   5.385   4.650   1.896  0.5696 -0.0852  0.5276
   44MOL0     H 5801   5.358   4.479   1.911 -2.0782 -1.2654 -1.5047
   44MOL0     H 5802   5.523   4.577   1.735  0.2491 -1.1153 -0.7013
   44MOL0     H 5803   5.383   4.614   1.637  3.3544 -0.4966 -2.2787
   44MOL0     H 5804   5.497   4.352   1.726 -1.0563 -1.4236  0.1794
   44MOL0     H 5805   5.327   4.357   1.701 -0.4330 -0.2934  0.6566
   44MOL0     H 5806   5.521   4.341   1.311  2.8676 -1.7778  1.8251
   44MOL0     H 5807   5.166   4.550   1.458 -0.8442 -2.4115 -0.3677
   44MOL0     H 5808   4.985   4.625   1.311  0.7206 -4.5954 -0.0693
   45MOL0     O 5809   2.851   9.627   9.692  0.2572 -0.9461 -0.1294
   45MOL0     C 5810   2.947   9.545   9.697  0.9873 -0.6456 -0.3233
   45MOL0     O 5811   3.033   9.531   9.805  0.2120 -0.6166  0.1612
   45MOL0     C 5812   2.996   9.592   9.921  0.0901 -0.9612  0.3788
   45MOL0     C 5813   3.027   9.737   9.944  0.7473  0.7936  0.4930
   45MOL0     C 5814   2.994   9.797  10.063  0.2095  0.1744  0.0327
   45MOL0     C 5815   2.945   9.722  10.170 -0.2418  0.0919 -0.8454
   45MOL0     O 5816   2.935   9.786  10.291 -0.1132  0.6008  0.6426
   45MOL0     C 5817   2.943   9.701  10.407  0.0553 -0.9398  0.7282
   45MOL0     C 5818   2.953   9.782  10.536  0.2552 -0.1303  0.5459
   45MOL0     C 5819   2.830   9.866  10.564  0.2850  0.4516  0.4315
   45MOL0     C 5820   2.832   9.940  10.691  0.5589 -0.8609  0.7144
   45MOL0     C 5821   2.698  10.013  10.723 -0.1744 -0.0361  0.2000
   45MOL0     C 5822   2.686  10.136  10.635  0.5414  0.5408 -0.3727
   45MOL0     C 5823   2.547  10.195  10.679  0.1458  0.8168  0.0098
   45MOL0     C 5824   2.507  10.305  10.577 -0.4463  0.2194  0.5920
   45MOL0     N 5825   2.378  10.370  10.589 -0.7026  0.1216  0.2829
   45MOL0     C 5826   2.342  10.446  10.699  1.2748  0.4115 -0.0821
   45MOL0     C 5827   2.210  10.477  10.681  0.1602  0.1898  0.9772
   45MOL0     C 5828   2.109  10.536  10.781 -0.3453  0.0446  0.4623
   45MOL0     C 5829   2.041  10.663  10.718 -0.0238  0.7889 -0.3952
   45MOL0     C 5830   1.925  10.719  10.800  0.5526 -0.1886 -0.2252
   45MOL0     C 5831   1.911  10.869  10.761  0.7110 -0.0499  0.1763
   45MOL0     O 5832   2.013  10.957  10.806 -0.0802  0.2162  0.7363
   45MOL0     C 5833   1.977  11.074  10.879 -0.7834  0.1487 -0.4032
   45MOL0     C 5834   2.063  11.109  10.982  1.0660 -0.2293 -0.1922
   45MOL0     C 5835   2.037  11.222  11.066 -0.6097 -0.0495 -0.4618
   45MOL0     C 5836   1.925  11.290  11.047 -0.0668 -0.6893 -0.2408
   45MOL0     C 5837   1.896  11.397  11.142 -0.5419 -0.5318 -0.8085
   45MOL0     O 5838   2.000  11.468  11.208  0.4158  0.2916  1.1674
   45MOL0     C 5839   1.959  11.572  11.289 -0.4523 -0.6172 -0.8433
   45MOL0     C 5840   2.034  11.688  11.282  0.1366  0.8229  0.8419
   45MOL0     C 5841   2.010  11.795  11.369 -0.1589  0.9797  0.2758
   45MOL0     C 5842   1.899  11.799  11.457 -0.3430  0.1479  0.6582
   45MOL0     O 5843   1.857  11.900  11.543  0.1303 -0.2725 -0.4356
   45MOL0     C 5844   1.926  12.023  11.552 -0.2226  0.8830 -0.1493
   45MOL0     C 5845   1.838  12.132  11.618  1.0822  0.0926  0.2697
   45MOL0     C 5846   1.913  12.240  11.699 -0.8233  0.1727  0.3431
   45MOL0     C 5847   1.796  12.320  11.765 -0.6132  0.4110 -0.8801
   45MOL0     C 5848   1.830  12.431  11.862 -0.8452  0.1857 -0.4478
   45MOL0     C 5849   1.870  12.374  12.001 -0.0450 -0.5183 -0.3465
   45MOL0     C 5850   1.925  12.483  12.091  0.4331  0.2465  0.3111
   45MOL0     C 5851   2.005  12.409  12.202  0.7609 -0.7466 -0.1949
   45MOL0    Cl 5852   1.915  12.297  12.308 -0.1855 -0.0648  0.0009
   45MOL0     C 5853   1.820  11.680  11.457  0.2169  0.6658 -0.4383
   45MOL0     C 5854   1.849  11.572  11.381 -0.1958 -0.1926  0.7089
   45MOL0     O 5855   1.777  11.437  11.131 -0.1633  0.3208  0.1128
   45MOL0     C 5856   1.845  11.257  10.941  0.0600 -1.1276  0.6572
   45MOL0     C 5857   1.870  11.156  10.851 -0.2501  0.2289 -0.2733
   45MOL0     N 5858   2.168  10.434  10.554 -0.1912 -0.3696 -0.7044
   45MOL0     N 5859   2.271  10.371  10.505  0.0349  0.0111  0.2807
   45MOL0     C 5860   2.910   9.594  10.146  0.7476  0.1492  0.3417
   45MOL0     C 5861   2.934   9.531  10.033  1.4400  0.5530  0.5640
   45MOL0     C 5862   2.957   9.462   9.574  0.3338 -0.4475 -0.1781
   45MOL0     C 5863   2.910   9.502   9.446  0.1746  0.4751 -0.3784
   45MOL0     C 5864   2.938   9.426   9.330  0.2605  0.3357 -0.2507
   45MOL0     C 5865   3.030   9.317   9.334 -0.2370 -1.1808 -0.3771
   45MOL0     O 5866   3.069   9.244   9.231  0.1190  0.5019  0.5383
   45MOL0     C 5867   3.045   9.290   9.092  0.3082 -0.2588 -0.7911
   45MOL0     C 5868   3.142   9.201   9.010 -0.4132 -0.5284 -0.2146
   45MOL0     C 5869   3.163   9.270   8.870 -0.0233 -0.4638  0.4818
   45MOL0     C 5870   3.246   9.179   8.780  0.7753 -0.2788  0.6563
   45MOL0     C 5871   3.176   9.075   8.709 -0.9840  0.3976  0.6873
   45MOL0     C 5872   3.152   8.979   8.642 -0.6683 -0.7575 -0.1999
   45MOL0     C 5873   3.090   9.295   9.460 -0.5798 -0.6329  0.2133
   45MOL0     C 5874   3.061   9.357   9.576  1.9249 -0.3047 -0.3127
   45MOL0     H 5875   3.065   9.795   9.861 -0.8755 -1.2503 -1.8087
   45MOL0     H 5876   3.024   9.897  10.092  1.4966 -0.0029 -0.5994
   45MOL0     H 5877   3.030   9.635  10.405 -0.4715 -1.6321 -0.3905
   45MOL0     H 5878   2.847   9.648  10.412  0.2326 -1.1474  2.3561
   45MOL0     H 5879   3.045   9.840  10.544  2.7895 -3.8741  1.5997
   45MOL0     H 5880   2.942   9.708  10.617  3.2836 -0.8411  0.4037
   45MOL0     H 5881   2.743   9.799  10.558  1.5036 -1.1888  0.4348
   45MOL0     H 5882   2.808   9.939  10.486  1.6987  0.7490  0.2962
   45MOL0     H 5883   2.851   9.869  10.772 -0.5818 -1.1237  0.7706
   45MOL0     H 5884   2.917  10.009  10.685  0.3772 -0.3603  2.8679
   45MOL0     H 5885   2.685  10.034  10.829  0.5647 -1.4485  0.5987
   45MOL0     H 5886   2.619   9.940  10.708 -0.5021 -0.4599  3.3008
   45MOL0     H 5887   2.684  10.106  10.530 -2.5163  1.1566 -0.5725
   45MOL0     H 5888   2.774  10.197  10.656 -0.4638  1.4288  1.4970
   45MOL0     H 5889   2.467  10.120  10.680  1.3212 -0.5883 -2.3630
   45MOL0     H 5890   2.557  10.230  10.782  3.5390  0.5785 -0.1025
   45MOL0     H 5891   2.493  10.269  10.475 -0.6577 -0.0083  0.6998
   45MOL0     H 5892   2.587  10.379  10.576  0.7899 -1.0128 -1.8659
   45MOL0     H 5893   2.406  10.471  10.783  2.8184 -0.1319 -1.0512
   45MOL0     H 5894   2.166  10.574  10.867  4.6165  0.7128 -2.6792
   45MOL0     H 5895   2.035  10.456  10.781  0.2463 -0.7997 -4.3600
   45MOL0     H 5896   1.995  10.633  10.623  0.0023  1.2031 -0.5411
   45MOL0     H 5897   2.121  10.735  10.696  1.9464 -1.8011 -2.4628
   45MOL0     H 5898   1.831  10.668  10.774  0.3938  0.2412 -0.5130
   45MOL0     H 5899   1.955  10.713  10.905 -1.3656  2.2941  0.5727
   45MOL0     H 5900   1.813  10.897  10.802  1.0966  1.3974  0.1817
   45MOL0     H 5901   1.910  10.878  10.652 -0.6932 -0.9343  0.0955
   45MOL0     H 5902   2.135  11.042  11.028  0.2322  0.5495  2.4179
   45MOL0     H 5903   2.093  11.248  11.156 -2.8055 -2.5232  1.8061
   45MOL0     H 5904   2.115  11.678  11.211 -2.2502 -1.1105 -1.8034
   45MOL0     H 5905   2.071  11.884  11.358 -0.6407  1.2699 -0.1120
   45MOL0     H 5906   1.963  12.052  11.454 -0.2254  0.5745 -0.2438
   45MOL0     H 5907   2.015  11.998  11.610 -0.0824 -2.6134 -1.6079
   45MOL0     H 5908   1.780  12.082  11.697  0.1987  0.4742 -0.1213
   45MOL0     H 5909   1.769  12.169  11.542  0.7924 -1.0061 -0.0211
   45MOL0     H 5910   1.976  12.302  11.635  0.1347  0.3720  1.4443
   45MOL0     H 5911   1.972  12.193  11.778 -1.0039 -1.2790 -0.3422
   45MOL0     H 5912   1.734  12.359  11.683 -0.6680 -3.0710 -2.7115
   45MOL0     H 5913   1.740  12.244  11.821 -0.2355  1.7693  1.4667
   45MOL0     H 5914   1.736  12.488  11.862 -2.2267 -1.9578 -0.1819
   45MOL0     H 5915   1.909  12.495  11.822  0.5899 -0.0916  1.7874
   45MOL0     H 5916   1.936  12.291  11.977 -2.5678 -2.9541  0.5918
   45MOL0     H 5917   1.774  12.335  12.036 -0.6610  1.5738  0.4654
   45MOL0     H 5918   1.988  12.554  12.038  1.7330  2.3154  4.2242
   45MOL0     H 5919   1.849  12.544  12.142 -2.7216 -0.6495 -2.8877
   45MOL0     H 5920   2.045  12.487  12.267 -2.8828  2.3590 -1.3102
   45MOL0     H 5921   2.089  12.353  12.160  1.0001  1.1465 -2.5183
   45MOL0     H 5922   1.736  11.687  11.526  3.3129  1.4830  3.6381
   45MOL0     H 5923   1.796  11.477  11.381 -1.2608  0.3953  0.7786
   45MOL0     H 5924   1.757  11.315  10.916 -0.6512 -2.1670  0.6533
   45MOL0     H 5925   1.799  11.135  10.771 -0.9629  0.9479  0.1567
   45MOL0     H 5926   2.875   9.530  10.227  0.0017 -1.5178 -1.2285
   45MOL0     H 5927   2.893   9.430  10.027  0.6558  0.7786  1.7916
   45MOL0     H 5928   2.833   9.579   9.439 -0.7072 -0.5148 -2.2349
   45MOL0     H 5929   2.886   9.455   9.239 -1.1083 -1.3408 -0.0489
   45MOL0     H 5930   3.077   9.394   9.091  0.2299 -0.1200  2.3915
   45MOL0     H 5931   2.939   9.281   9.068  0.2651  0.6753 -0.9817
   45MOL0     H 5932   3.238   9.185   9.059  1.8115 -3.0267 -4.7074
   45MOL0     H 5933   3.096   9.104   8.990 -0.9040  0.1286 -2.6665
   45MOL0     H 5934   3.228   9.358   8.876  0.1122 -0.6819  3.1651
   45MOL0     H 5935   3.072   9.302   8.817  1.1985  3.2658  0.3625
   45MOL0     H 5936   3.295   9.223   8.692  0.6997 -1.6080 -0.0878
   45MOL0     H 5937   3.322   9.141   8.849  2.0183  2.2077  0.7430
   45MOL0     H 5938   3.136   8.888   8.588  0.2489 -1.5064  0.7565
   45MOL0     H 5939   3.168   9.220   9.454  1.2568  1.0361  1.6917
   45MOL0     H 5940   3.120   9.333   9.664 -1.9125 -3.7957  1.6573
   46MOL0     O 5941   3.181   7.270  10.357  0.0798 -0.6271  0.0227
   46MOL0     C 5942   3.269   7.288  10.270  0.9962  0.4118 -0.4417
   46MOL0     O 5943   3.249   7.332  10.140 -0.0214  0.3935 -0.3954
   46MOL0     C 5944   3.125   7.361  10.090  0.1326  0.4054  0.3295
   46MOL0     C 5945   3.096   7.488  10.048 -0.5318  0.0138  1.1696
   46MOL0     C 5946   2.973   7.524   9.999 -0.3354  0.6644  0.3021
   46MOL0     C 5947   2.874   7.431   9.987  0.3958 -1.3453 -0.3541
   46MOL0     O 5948   2.766   7.487   9.916  0.2198  0.5569  0.7904
   46MOL0     C 5949   2.641   7.414   9.943 -0.1629 -0.1914 -0.7099
   46MOL0     C 5950   2.520   7.492   9.880  0.2104 -0.7721  1.2552
   46MOL0     C 5951   2.404   7.393   9.867  0.6390  0.0967 -0.4268
   46MOL0     C 5952   2.275   7.481   9.847 -0.0469  0.0811  0.8840
   46MOL0     C 5953   2.147   7.389   9.839 -0.5197 -0.1392  0.0669
   46MOL0     C 5954   2.023   7.473   9.799 -0.1629 -0.3886 -0.0134
   46MOL0     C 5955   1.886   7.410   9.807  0.5574  0.7832  0.1277
   46MOL0     C 5956   1.893   7.266   9.751 -0.2611  0.9442 -0.8268
   46MOL0     N 5957   1.756   7.224   9.699  0.4733 -0.7326 -1.2954
   46MOL0     C 5958   1.701   7.261   9.578  0.9052 -0.5632  0.5812
   46MOL0     C 5959   1.577   7.207   9.573  0.0185  0.5364 -0.5458
   46MOL0     C 5960   1.482   7.197   9.461  0.4943 -0.2602 -0.4948
   46MOL0     C 5961   1.435   7.346   9.420  0.2588  0.7680  0.0122
   46MOL0     C 5962   1.326   7.327   9.315 -0.1673 -0.4687 -0.7328
   46MOL0     C 5963   1.211   7.423   9.335 -0.4697  0.0304  0.1189
   46MOL0     O 5964   1.134   7.415   9.216  0.0556  0.0759  0.4254
   46MOL0     C 5965   1.029   7.335   9.206  0.0744  0.1763 -0.3326
   46MOL0     C 5966   0.913   7.361   9.291 -0.6682 -0.6789  0.2067
   46MOL0     C 5967   0.802   7.270   9.294  0.9158  0.4379 -0.9577
   46MOL0     C 5968   0.800   7.169   9.205  1.5900  0.4652  0.1133
   46MOL0     C 5969   0.676   7.082   9.187  0.2443 -0.4756  0.2508
   46MOL0     O 5970   0.556   7.127   9.234 -0.3030 -0.1602 -0.1473
   46MOL0     C 5971   0.452   7.043   9.217 -0.4968  0.0243  0.0575
   46MOL0     C 5972   0.412   6.958   9.321  0.3606  0.0918 -0.4017
   46MOL0     C 5973   0.303   6.873   9.301  0.4376 -0.1928 -0.0256
   46MOL0     C 5974   0.232   6.876   9.171 -0.2575 -0.2833  0.3004
   46MOL0     O 5975   0.126   6.801   9.151 -0.0805  0.1556  0.6074
   46MOL0     C 5976   0.005   6.865   9.172 -1.0979 -0.4033  0.1415
   46MOL0     C 5977  -0.095   6.787   9.089 -0.6790  0.2180  0.7551
   46MOL0     C 5978  -0.215   6.870   9.085 -0.1880  0.1980 -0.4035
   46MOL0     C 5979  -0.337   6.780   9.040 -0.3860 -0.2755  0.6465
   46MOL0     C 5980  -0.467   6.868   9.021  0.3263  0.1378  1.2095
   46MOL0     C 5981  -0.509   6.920   9.154 -0.5088  0.2441  0.1130
   46MOL0     C 5982  -0.641   6.995   9.154 -0.4153 -1.1211 -0.2413
   46MOL0     C 5983  -0.627   7.140   9.093 -0.2759  0.7042 -0.2634
   46MOL0    Cl 5984  -0.539   7.258   9.208  0.4406  0.3053  0.5956
   46MOL0     C 5985   0.270   6.971   9.070 -0.2007 -0.6407 -0.1361
   46MOL0     C 5986   0.381   7.050   9.097  1.4861 -0.3232  0.6270
   46MOL0     O 5987   0.696   6.973   9.137  0.1928 -0.6060  0.7413
   46MOL0     C 5988   0.910   7.142   9.120  0.2500 -0.4136  0.5179
   46MOL0     C 5989   1.021   7.230   9.115 -0.5487  0.3748 -0.0494
   46MOL0     N 5990   1.552   7.160   9.699 -0.2699  0.0947 -0.5633
   46MOL0     N 5991   1.665   7.159   9.774 -0.4033 -0.2330  0.5439
   46MOL0     C 5992   2.906   7.301  10.027  0.4410 -0.4191 -0.3842
   46MOL0     C 5993   3.027   7.255  10.083 -0.3324  0.2643  0.5755
   46MOL0     C 5994   3.399   7.242  10.301 -0.3267 -0.2075 -1.5157
   46MOL0     C 5995   3.430   7.150  10.399  1.4797  0.9128 -0.4961
   46MOL0     C 5996   3.561   7.103  10.411  0.5665  0.9168  0.2786
   46MOL0     C 5997   3.665   7.150  10.326  0.9878 -0.3950 -0.5172
   46MOL0     O 5998   3.802   7.123  10.337  0.7063  0.5341  0.8244
   46MOL0     C 5999   3.848   7.024  10.434 -0.0275 -1.0844 -0.0900
   46MOL0     C 6000   3.991   7.057  10.470 -0.2394 -0.5550  0.0728
   46MOL0     C 6001   4.014   7.206  10.499 -0.4391  1.3052 -0.8622
   46MOL0     C 6002   4.149   7.222  10.580  0.4563 -0.2601 -0.0487
   46MOL0     C 6003   4.266   7.191  10.499  0.4307 -0.6757  0.6768
   46MOL0     C 6004   4.356   7.179  10.420  0.2945 -0.2855  0.1585
   46MOL0     C 6005   3.642   7.251  10.243  0.5858 -0.4991  0.6115
   46MOL0     C 6006   3.503   7.291  10.219  0.2291  0.1915 -0.2899
   46MOL0     H 6007   3.174   7.562  10.066  1.7617 -1.9655 -0.1545
   46MOL0     H 6008   2.972   7.626   9.961 -0.7305 -0.0169 -1.6397
   46MOL0     H 6009   2.624   7.406  10.051 -0.0613 -0.2016 -0.6951
   46MOL0     H 6010   2.650   7.316   9.894 -0.8810 -0.8201  0.3886
   46MOL0     H 6011   2.548   7.521   9.778  0.9420  1.2324  1.9724
   46MOL0     H 6012   2.487   7.585   9.926 -1.2506  0.9799 -2.9139
   46MOL0     H 6013   2.383   7.328   9.952 -0.8813 -1.2969 -1.7985
   46MOL0     H 6014   2.412   7.332   9.777 -4.3967  0.8246 -1.6485
   46MOL0     H 6015   2.263   7.543   9.936  1.0144 -0.1598  1.2027
   46MOL0     H 6016   2.288   7.545   9.760  0.6114  1.1512  1.7525
   46MOL0     H 6017   2.137   7.337   9.934 -0.6659 -1.0005 -0.4062
   46MOL0     H 6018   2.155   7.322   9.753 -1.6626  0.1494 -0.2814
   46MOL0     H 6019   2.037   7.510   9.697  2.8350  2.4317  1.2461
   46MOL0     H 6020   2.017   7.560   9.865  0.0359 -0.4366  0.0696
   46MOL0     H 6021   1.865   7.411   9.915  1.0251 -0.0054  0.2305
   46MOL0     H 6022   1.808   7.478   9.771  1.0157  1.0207 -0.4236
   46MOL0     H 6023   1.947   7.205   9.825  1.1083  1.0715 -1.6958
   46MOL0     H 6024   1.965   7.250   9.670  2.5194  2.2009  1.2251
   46MOL0     H 6025   1.758   7.313   9.500 -0.1211  2.9168  1.9390
   46MOL0     H 6026   1.402   7.125   9.482 -0.3887  0.4932 -1.2397
   46MOL0     H 6027   1.527   7.161   9.368  0.9748 -0.3425 -0.2389
   46MOL0     H 6028   1.516   7.395   9.366  2.7674 -2.0706  0.9480
   46MOL0     H 6029   1.409   7.394   9.515  1.5385 -1.0115  1.3343
   46MOL0     H 6030   1.375   7.333   9.218 -0.9240  1.0872 -1.0418
   46MOL0     H 6031   1.288   7.226   9.336  0.9621 -0.1479  3.8891
   46MOL0     H 6032   1.259   7.521   9.340 -0.8729  0.3196 -1.1886
   46MOL0     H 6033   1.147   7.404   9.421 -0.2976 -0.6562  0.0982
   46MOL0     H 6034   0.926   7.453   9.348  0.8941  0.1530 -1.3839
   46MOL0     H 6035   0.711   7.287   9.351 -0.6555  0.5634 -3.3595
   46MOL0     H 6036   0.476   6.948   9.408  3.7878  2.3397 -2.4631
   46MOL0     H 6037   0.269   6.805   9.379  0.2908 -1.7468 -1.3789
   46MOL0     H 6038   0.019   6.968   9.136 -0.7141 -0.4660  0.1086
   46MOL0     H 6039  -0.019   6.869   9.279  0.3607 -2.0111  0.5700
   46MOL0     H 6040  -0.122   6.697   9.144 -0.2954 -0.4808 -0.1836
   46MOL0     H 6041  -0.058   6.753   8.992 -1.0070  2.8658 -0.3880
   46MOL0     H 6042  -0.204   6.950   9.011  0.2243 -0.1819 -0.7599
   46MOL0     H 6043  -0.234   6.919   9.181  4.0842  1.3206  0.0853
   46MOL0     H 6044  -0.323   6.739   8.939 -1.4556  3.4981 -1.2232
   46MOL0     H 6045  -0.351   6.697   9.110  1.7709 -0.6590  0.7058
   46MOL0     H 6046  -0.545   6.804   8.979 -0.9682  2.4179 -0.0829
   46MOL0     H 6047  -0.452   6.951   8.951 -3.1421 -0.4885 -0.4564
   46MOL0     H 6048  -0.440   7.000   9.183 -0.5442 -0.1545  1.3785
   46MOL0     H 6049  -0.502   6.842   9.230  0.2116  0.4245  0.2359
   46MOL0     H 6050  -0.719   6.946   9.094 -1.3127 -1.4522  1.1443
   46MOL0     H 6051  -0.674   7.017   9.256 -1.3328  2.1927 -1.1327
   46MOL0     H 6052  -0.730   7.170   9.071  0.2747  3.4475  0.4571
   46MOL0     H 6053  -0.580   7.143   8.995 -3.3459  0.8873 -1.8781
   46MOL0     H 6054   0.208   6.984   8.982  1.0840  2.4789 -0.7499
   46MOL0     H 6055   0.412   7.113   9.015 -0.5603 -1.9427 -1.5249
   46MOL0     H 6056   0.902   7.057   9.053  2.5026 -0.1870 -0.1239
   46MOL0     H 6057   1.104   7.225   9.045  1.6285  1.8448  2.2510
   46MOL0     H 6058   2.827   7.229  10.009 -1.7956  1.6679  0.5604
   46MOL0     H 6059   3.046   7.151  10.106 -1.1718 -0.6746 -2.5317
   46MOL0     H 6060   3.351   7.100  10.454  2.1975  1.4865  1.1229
   46MOL0     H 6061   3.575   7.026  10.486  0.9081  1.4030  0.7148
   46MOL0     H 6062   3.848   6.934  10.370  2.8039 -0.1975 -1.5202
   46MOL0     H 6063   3.796   7.015  10.529  2.2010 -1.1446  1.1805
   46MOL0     H 6064   4.021   6.992  10.552  0.1327  0.5767  0.8639
   46MOL0     H 6065   4.056   7.051  10.382  1.4623  4.5876  0.6200
   46MOL0     H 6066   3.935   7.234  10.570 -0.2742 -4.2302  2.0890
   46MOL0     H 6067   4.011   7.264  10.406 -1.3389  2.2795 -0.2539
   46MOL0     H 6068   4.150   7.327  10.613 -1.7000 -0.2578  0.1695
   46MOL0     H 6069   4.153   7.168  10.675 -0.6222 -0.0263  0.1401
   46MOL0     H 6070   4.432   7.167  10.346  1.2189  0.1640  1.0098
   46MOL0     H 6071   3.725   7.285  10.182 -3.2241  1.2405 -4.2730
   46MOL0     H 6072   3.483   7.365  10.143  0.9066  2.8254  1.9326
   47MOL0     O 6073   8.372  10.760   6.864  0.2678  0.5856  0.3011
   47MOL0     C 6074   8.468  10.754   6.933 -0.0844 -0.0701 -0.9408
   47MOL0     O 6075   8.541  10.637   6.958  0.6607  0.1774  0.6965
   47MOL0     C 6076   8.492  10.515   6.920 -1.1699  0.3164 -0.6503
   47MOL0     C 6077   8.559  10.410   6.992  0.3048  0.2920 -0.6104
   47MOL0     C 6078   8.529  10.275   6.976 -0.1186 -0.2772 -0.7004
   47MOL0     C 6079   8.449  10.238   6.873 -0.3012 -0.5278 -0.0645
   47MOL0     O 6080   8.416  10.103   6.875  0.7846 -1.3720 -0.3802
   47MOL0     C 6081   8.515  10.034   6.798 -0.4194 -0.0900  0.4519
   47MOL0     C 6082   8.504  10.056   6.648  0.7603 -0.6000 -0.1080
   47MOL0     C 6083   8.601   9.979   6.558 -0.3123  0.3738  0.1070
   47MOL0     C 6084   8.558   9.962   6.418 -0.2357 -0.4104  0.7846
   47MOL0     C 6085   8.661   9.880   6.331 -0.5730  0.1009  0.2059
   47MOL0     C 6086   8.804   9.935   6.307  0.3658 -0.0933  0.4711
   47MOL0     C 6087   8.808  10.033   6.191  0.4593 -0.0251 -0.0068
   47MOL0     C 6088   8.954  10.061   6.160 -0.2903  0.3721 -0.6120
   47MOL0     N 6089   8.975  10.160   6.054 -0.1615 -0.3943  0.4848
   47MOL0     C 6090   9.102  10.179   5.991  1.1872 -0.0906 -0.3359
   47MOL0     C 6091   9.089  10.293   5.926 -0.2300 -0.3089  0.0076
   47MOL0     C 6092   9.192  10.364   5.842 -0.2541 -0.6569  0.3248
   47MOL0     C 6093   9.147  10.403   5.693  0.4227  0.1799  1.1779
   47MOL0     C 6094   9.057  10.534   5.700  0.0397 -0.9833 -0.1791
   47MOL0     C 6095   8.992  10.586   5.570 -0.7807  0.2814 -0.6015
   47MOL0     O 6096   9.094  10.621   5.478 -0.1895 -0.2903  0.2952
   47MOL0     C 6097   9.050  10.688   5.366 -1.3369 -1.1190  0.8101
   47MOL0     C 6098   8.922  10.676   5.314  0.2985  0.1240 -0.0949
   47MOL0     C 6099   8.894  10.753   5.202  0.7722 -0.2628  0.0738
   47MOL0     C 6100   8.983  10.853   5.152 -0.3141  0.2499  0.9987
   47MOL0     C 6101   8.944  10.939   5.034  0.1777  0.2852 -0.3051
   47MOL0     O 6102   9.042  11.010   4.977  0.6177 -0.2661  0.0931
   47MOL0     C 6103   9.020  11.100   4.878  0.5331  0.7171 -0.8191
   47MOL0     C 6104   8.912  11.178   4.859 -0.3107  0.1555 -0.4677
   47MOL0     C 6105   8.898  11.262   4.746  0.5471 -0.2748  0.5999
   47MOL0     C 6106   8.996  11.257   4.650  0.4358  0.0280 -0.4600
   47MOL0     O 6107   9.007  11.342   4.546  0.1645 -0.0287  0.1568
   47MOL0     C 6108   8.893  11.332   4.453 -0.1591 -0.1619 -0.2057
   47MOL0     C 6109   8.936  11.250   4.333 -0.1221  0.1464  0.5730
   47MOL0     C 6110   8.836  11.273   4.213 -0.2202 -0.4660 -0.8544
   47MOL0     C 6111   8.893  11.218   4.088  0.1489  0.6275 -1.1597
   47MOL0     C 6112   8.785  11.189   3.986  0.4170  0.7321 -0.1139
   47MOL0     C 6113   8.706  11.056   3.972 -0.0864  0.1664 -0.4693
   47MOL0     C 6114   8.616  11.057   3.841  0.3949 -0.1956  1.0366
   47MOL0     C 6115   8.544  10.917   3.830  0.9786  0.6257  0.1944
   47MOL0    Cl 6116   8.493  10.841   3.978 -0.3126  0.0417 -0.0169
   47MOL0     C 6117   9.112  11.171   4.673  0.4936 -0.5093  0.1494
   47MOL0     C 6118   9.115  11.089   4.787  1.3958  0.6104  0.5633
   47MOL0     O 6119   8.825  10.934   5.005  0.2009  0.0148  0.2398
   47MOL0     C 6120   9.116  10.857   5.199 -0.1536  0.8601  0.7669
   47MOL0     C 6121   9.142  10.780   5.312 -0.1617  0.2930  0.3657
   47MOL0     N 6122   8.970  10.357   5.951  0.3189  1.1240 -1.1994
   47MOL0     N 6123   8.902  10.276   6.030 -0.5765  0.2857  0.7519
   47MOL0     C 6124   8.381  10.338   6.806  0.0272 -0.1048  0.2154
   47MOL0     C 6125   8.404  10.474   6.823  0.6728  0.4639  0.3921
   47MOL0     C 6126   8.517  10.872   6.991  0.4810  1.1905 -0.3114
   47MOL0     C 6127   8.425  10.975   7.010  0.2656  0.4503  0.2652
   47MOL0     C 6128   8.461  11.096   7.077  0.1946  0.0411 -0.5774
   47MOL0     C 6129   8.589  11.099   7.125  0.7902  0.8564 -0.4412
   47MOL0     O 6130   8.617  11.210   7.193  0.3774 -0.2535  0.0850
   47MOL0     C 6131   8.723  11.207   7.295 -0.0557  0.1123 -0.1090
   47MOL0     C 6132   8.866  11.253   7.241  0.3713  0.8254 -0.0264
   47MOL0     C 6133   8.864  11.401   7.235  0.0756 -0.8501  0.9880
   47MOL0     C 6134   8.977  11.479   7.177  1.0728 -0.9193 -0.0639
   47MOL0     C 6135   9.088  11.459   7.267  0.0972 -0.3282  0.0554
   47MOL0     C 6136   9.171  11.413   7.346 -0.4383 -0.0666  0.7361
   47MOL0     C 6137   8.684  10.992   7.105  0.6306 -0.5087  0.3791
   47MOL0     C 6138   8.650  10.885   7.034 -0.2490  0.5975 -0.3664
   47MOL0     H 6139   8.621  10.440   7.076 -0.7166  0.6972  0.0201
   47MOL0     H 6140   8.566  10.209   7.054  3.4033  2.9621  0.6667
   47MOL0     H 6141   8.504   9.927   6.817  0.8853 -0.1219  1.1505
   47MOL0     H 6142   8.618  10.043   6.833  0.4637 -1.4815 -1.6260
   47MOL0     H 6143   8.523  10.163   6.635  0.5772 -0.3201  1.6119
   47MOL0     H 6144   8.404  10.026   6.615  1.6273 -2.4815 -1.1934
   47MOL0     H 6145   8.621   9.884   6.609 -1.2905  2.0315  3.9845
   47MOL0     H 6146   8.697  10.031   6.564  0.6592 -1.1642 -1.3740
   47MOL0     H 6147   8.463   9.908   6.425 -0.8080  0.5410  0.4671
   47MOL0     H 6148   8.553  10.060   6.370  3.1788  1.8026  4.3427
   47MOL0     H 6149   8.622   9.852   6.232  0.2562  1.1317 -0.4330
   47MOL0     H 6150   8.675   9.784   6.381 -3.4142 -0.5333 -0.0222
   47MOL0     H 6151   8.869   9.851   6.282  2.8190  1.3315  1.6404
   47MOL0     H 6152   8.842   9.986   6.397 -1.8052  0.3627  1.1995
   47MOL0     H 6153   8.758   9.989   6.104  2.1531  1.2706 -1.7192
   47MOL0     H 6154   8.760  10.128   6.218  2.7117  0.5378  2.4415
   47MOL0     H 6155   9.007   9.969   6.134 -0.3573  0.0685  0.2993
   47MOL0     H 6156   8.996  10.088   6.258 -1.8471 -1.5277  0.6444
   47MOL0     H 6157   9.180  10.104   5.991  2.2856  1.0298  0.1510
   47MOL0     H 6158   9.278  10.296   5.846  0.5867  0.4460  1.9837
   47MOL0     H 6159   9.227  10.455   5.892  0.1169  1.3418 -3.2241
   47MOL0     H 6160   9.088  10.316   5.663  2.2784 -0.3927 -1.0792
   47MOL0     H 6161   9.232  10.415   5.625 -3.1583 -2.7987 -4.6721
   47MOL0     H 6162   8.973  10.517   5.769 -0.5063 -1.1957 -0.8790
   47MOL0     H 6163   9.128  10.611   5.732  1.2698 -2.8530  1.8067
   47MOL0     H 6164   8.929  10.671   5.599  0.1457  0.2441  1.7520
   47MOL0     H 6165   8.933  10.504   5.528  0.9545 -2.0363  1.2182
   47MOL0     H 6166   8.844  10.611   5.353  0.7038  0.2679  0.9935
   47MOL0     H 6167   8.796  10.750   5.154 -0.4021  2.6801  2.0115
   47MOL0     H 6168   8.839  11.188   4.939  2.0309  2.8910  1.5130
   47MOL0     H 6169   8.817  11.329   4.719  0.4768 -0.9315 -0.9268
   47MOL0     H 6170   8.859  11.432   4.426 -1.3746 -0.4312  0.2443
   47MOL0     H 6171   8.811  11.283   4.505  0.5868 -0.8970  0.3017
   47MOL0     H 6172   8.952  11.144   4.352 -0.8489 -0.2994 -1.1105
   47MOL0     H 6173   9.033  11.289   4.301  0.7638 -2.3888 -0.0193
   47MOL0     H 6174   8.810  11.377   4.188 -1.3412 -0.4551  0.2254
   47MOL0     H 6175   8.739  11.223   4.224 -1.1103  0.9396 -1.9298
   47MOL0     H 6176   8.964  11.292   4.051  2.0640  0.9041  2.5282
   47MOL0     H 6177   8.938  11.118   4.101 -3.0486 -0.9326 -1.2325
   47MOL0     H 6178   8.830  11.180   3.886  1.6770 -0.0567  0.4967
   47MOL0     H 6179   8.714  11.272   3.990  0.5846  0.8467  3.8826
   47MOL0     H 6180   8.638  11.054   4.058 -0.5790  0.0848 -0.8584
   47MOL0     H 6181   8.775  10.972   3.982  0.9910  1.1223  0.4023
   47MOL0     H 6182   8.540  11.135   3.846  0.3990  0.0091 -1.2405
   47MOL0     H 6183   8.668  11.074   3.746 -2.6167 -1.8775 -1.0766
   47MOL0     H 6184   8.592  10.842   3.766  1.4384  0.4447  0.7375
   47MOL0     H 6185   8.453  10.927   3.771  1.0080 -0.4195 -0.0526
   47MOL0     H 6186   9.197  11.166   4.606 -0.5678 -1.2544 -1.1778
   47MOL0     H 6187   9.192  11.016   4.810 -0.2810 -1.0957  1.0490
   47MOL0     H 6188   9.176  10.936   5.155 -0.9170  0.0398 -1.9442
   47MOL0     H 6189   9.235  10.799   5.366 -0.0863 -1.7285  0.9991
   47MOL0     H 6190   8.306  10.298   6.738  0.1541  0.2497 -0.1332
   47MOL0     H 6191   8.338  10.552   6.785  1.6558  1.6806  1.1005
   47MOL0     H 6192   8.325  10.966   6.968  0.6079 -1.2573 -0.2678
   47MOL0     H 6193   8.401  11.185   7.093  4.1325  2.7407  0.6090
   47MOL0     H 6194   8.725  11.102   7.326 -0.7726  0.2647  0.4719
   47MOL0     H 6195   8.695  11.274   7.378 -1.0728  0.2991 -0.5975
   47MOL0     H 6196   8.944  11.225   7.312 -0.6054  2.3714  1.7554
   47MOL0     H 6197   8.888  11.212   7.142  0.1385 -0.2818  0.3702
   47MOL0     H 6198   8.826  11.438   7.330 -2.8146  1.7615 -0.9814
   47MOL0     H 6199   8.789  11.411   7.157  0.3536 -3.1582  0.3378
   47MOL0     H 6200   9.011  11.437   7.082 -1.0148 -0.0539 -1.2692
   47MOL0     H 6201   8.940  11.581   7.161  1.1566 -1.2507 -2.8972
   47MOL0     H 6202   9.245  11.359   7.401 -1.5283 -2.1342  0.2864
   47MOL0     H 6203   8.787  11.009   7.136  0.3052  0.3745  0.9927
   47MOL0     H 6204   8.723  10.805   7.024  2.1832  2.8724 -2.0082
   48MOL0     O 6205   6.580   0.664  10.361 -0.4130 -0.0827 -0.4941
   48MOL0     C 6206   6.501   0.587  10.409 -0.9054  0.4799 -0.8022
   48MOL0     O 6207   6.458   0.466  10.355 -0.2465  0.5155 -0.2712
   48MOL0     C 6208   6.494   0.440  10.224  0.7741  0.5731  0.5195
   48MOL0     C 6209   6.565   0.320  10.183  0.0836  0.2909 -0.1527
   48MOL0     C 6210   6.616   0.308  10.056  0.7156  0.0232  0.3498
   48MOL0     C 6211   6.576   0.410   9.955  0.0145 -0.0520  0.7314
   48MOL0     O 6212   6.618   0.393   9.823 -0.6868  0.4374 -0.8378
   48MOL0     C 6213   6.644   0.511   9.745 -0.0566  0.2045  1.0316
   48MOL0     C 6214   6.759   0.589   9.805 -0.2307  0.0804 -0.1547
   48MOL0     C 6215   6.835   0.682   9.707 -0.4016 -0.2525 -0.1365
   48MOL0     C 6216   6.898   0.797   9.784 -0.4942  0.7315 -1.2364
   48MOL0     C 6217   6.940   0.909   9.687  0.5870 -0.1949  0.5874
   48MOL0     C 6218   6.938   1.046   9.765 -0.5435 -0.1791 -0.5819
   48MOL0     C 6219   7.018   1.164   9.703 -0.4677  0.6799 -0.1205
   48MOL0     C 6220   7.051   1.275   9.802 -0.5247 -0.2666  0.0517
   48MOL0     N 6221   7.188   1.243   9.869  0.0566 -0.1128  0.3161
   48MOL0     C 6222   7.275   1.335   9.916  0.5572 -0.2293  0.8728
   48MOL0     C 6223   7.375   1.263   9.973  0.9253 -0.9410  0.3247
   48MOL0     C 6224   7.497   1.310  10.035 -0.2410 -0.4006 -0.1712
   48MOL0     C 6225   7.590   1.367   9.918  0.4034 -0.6837  0.5964
   48MOL0     C 6226   7.632   1.265   9.810 -0.0303 -0.0397  0.0804
   48MOL0     C 6227   7.667   1.134   9.875 -0.3791  0.8310  0.0410
   48MOL0     O 6228   7.729   1.037   9.780  0.2599 -0.1305  0.1116
   48MOL0     C 6229   7.653   0.966   9.685  0.1040  0.2798  0.0728
   48MOL0     C 6230   7.719   0.918   9.575  0.4321  0.0622  0.5204
   48MOL0     C 6231   7.659   0.858   9.462  0.8044  0.5140  0.9114
   48MOL0     C 6232   7.527   0.825   9.465 -0.3299 -0.0349  0.5338
   48MOL0     C 6233   7.458   0.752   9.366 -0.0137  0.2630  0.3777
   48MOL0     O 6234   7.326   0.732   9.393  0.3600  0.5620  0.0383
   48MOL0     C 6235   7.242   0.701   9.293  0.5800 -0.4566  1.2434
   48MOL0     C 6236   7.198   0.787   9.197  0.3318  0.3555  0.4309
   48MOL0     C 6237   7.117   0.733   9.093 -0.0378 -0.8961  0.2748
   48MOL0     C 6238   7.070   0.597   9.090 -0.6203 -1.0020  0.4797
   48MOL0     O 6239   6.994   0.550   8.989 -0.3184  0.5084  0.0661
   48MOL0     C 6240   6.937   0.644   8.892  0.4584 -0.2652 -0.9132
   48MOL0     C 6241   6.825   0.583   8.804  0.6821 -0.5840 -0.2218
   48MOL0     C 6242   6.870   0.470   8.705 -1.1306 -0.5666  0.1457
   48MOL0     C 6243   6.771   0.460   8.588 -0.1561  0.2745 -0.9764
   48MOL0     C 6244   6.831   0.361   8.494  0.1135 -0.0401  0.1930
   48MOL0     C 6245   6.760   0.361   8.361 -0.4737  0.7766  0.3342
   48MOL0     C 6246   6.758   0.492   8.283 -0.4851 -1.1510 -0.9771
   48MOL0     C 6247   6.785   0.485   8.131 -0.5245  0.3452 -0.3959
   48MOL0    Cl 6248   6.665   0.386   8.041 -0.2495 -0.3277 -0.1684
   48MOL0     C 6249   7.114   0.523   9.196  0.6312 -0.0341  0.9399
   48MOL0     C 6250   7.196   0.569   9.292  0.1935 -0.9123  0.3035
   48MOL0     O 6251   7.510   0.726   9.256 -0.0297 -0.0045  0.0465
   48MOL0     C 6252   7.458   0.874   9.578  0.0609  0.2165 -0.7806
   48MOL0     C 6253   7.521   0.950   9.685  0.8395 -1.3296 -0.1215
   48MOL0     N 6254   7.345   1.128   9.973  0.2201 -0.5901 -0.7275
   48MOL0     N 6255   7.229   1.121   9.911 -0.1229 -0.0660  0.2806
   48MOL0     C 6256   6.490   0.513   9.994  1.3090  0.7503  0.7292
   48MOL0     C 6257   6.449   0.524  10.124 -0.2417 -0.9730 -0.5042
   48MOL0     C 6258   6.431   0.629  10.540 -0.4340  0.3088  1.0546
   48MOL0     C 6259   6.471   0.739  10.620  0.1616 -0.1260  0.2408
   48MOL0     C 6260   6.416   0.762  10.741  0.3032 -0.2433  0.7028
   48MOL0     C 6261   6.301   0.689  10.772  1.1639 -0.1911  0.4585
   48MOL0     O 6262   6.215   0.702  10.881 -0.3971  0.0221 -0.4204
   48MOL0     C 6263   6.242   0.820  10.969  0.8430  0.2182 -0.7686
   48MOL0     C 6264   6.340   0.792  11.080 -0.0562 -0.3848  0.4222
   48MOL0     C 6265   6.366   0.909  11.176 -0.6162  0.1027 -0.4471
   48MOL0     C 6266   6.477   0.880  11.283  0.2406  0.0688  0.1202
   48MOL0     C 6267   6.606   0.830  11.220 -0.3533  0.1351  0.3348
   48MOL0     C 6268   6.704   0.786  11.160  0.7709  1.1398  0.3880
   48MOL0     C 6269   6.254   0.580  10.698 -1.1237 -0.0984  0.8112
   48MOL0     C 6270   6.326   0.547  10.582  1.0076 -0.2347  0.2619
   48MOL0     H 6271   6.597   0.254  10.263  0.0480 -0.4390 -0.7330
   48MOL0     H 6272   6.672   0.223  10.019 -0.2145  1.0450 -3.8271
   48MOL0     H 6273   6.556   0.574   9.733  0.3673  1.5300  4.0254
   48MOL0     H 6274   6.684   0.475   9.649  1.4764 -2.4056  2.5184
   48MOL0     H 6275   6.831   0.513   9.836  1.0056  0.6154 -1.6290
   48MOL0     H 6276   6.718   0.633   9.897 -2.8176 -3.0985  0.4051
   48MOL0     H 6277   6.765   0.718   9.632 -0.5596 -0.8200 -0.2628
   48MOL0     H 6278   6.912   0.625   9.655 -0.1284 -0.1211  0.1191
   48MOL0     H 6279   6.817   0.839   9.844  0.6497 -1.6757  2.3495
   48MOL0     H 6280   6.982   0.781   9.852 -0.9618  2.1503 -0.2735
   48MOL0     H 6281   6.868   0.908   9.606  1.6806 -2.3294 -0.4467
   48MOL0     H 6282   7.029   0.873   9.634 -0.3592 -1.7295 -0.0002
   48MOL0     H 6283   6.981   1.040   9.865  4.5276  0.7576 -2.3951
   48MOL0     H 6284   6.834   1.078   9.776 -1.2890 -2.4459 -0.3507
   48MOL0     H 6285   7.111   1.130   9.656  1.0442  0.7436  2.6044
   48MOL0     H 6286   6.957   1.202   9.621 -1.3542 -0.4195  0.0108
   48MOL0     H 6287   6.978   1.287   9.881  0.7041  1.7788  0.9542
   48MOL0     H 6288   7.048   1.370   9.747  1.0121 -0.0272  0.3160
   48MOL0     H 6289   7.259   1.441   9.898 -0.2255 -0.5523 -0.4861
   48MOL0     H 6290   7.542   1.229  10.093  0.0936 -1.4725 -1.8454
   48MOL0     H 6291   7.481   1.387  10.110  0.7852  0.1049 -0.4584
   48MOL0     H 6292   7.683   1.397   9.966 -0.7369  5.0895 -0.1695
   48MOL0     H 6293   7.538   1.456   9.881  0.4263 -0.3549  1.3519
   48MOL0     H 6294   7.555   1.251   9.734 -0.4703  0.4634  0.4240
   48MOL0     H 6295   7.720   1.306   9.761 -0.1554 -0.5643 -0.5848
   48MOL0     H 6296   7.586   1.094   9.936  0.4287  0.2533  0.7624
   48MOL0     H 6297   7.749   1.156   9.945 -0.3537 -1.5180  0.8419
   48MOL0     H 6298   7.826   0.933   9.566  0.1411  1.5064 -0.9803
   48MOL0     H 6299   7.711   0.864   9.367  0.6762  3.6748  0.9309
   48MOL0     H 6300   7.253   0.880   9.195 -2.1390  1.9052 -1.4261
   48MOL0     H 6301   7.112   0.785   8.998  0.2166  1.3841  1.4575
   48MOL0     H 6302   7.007   0.689   8.821  1.4923 -1.3396 -0.6003
   48MOL0     H 6303   6.884   0.720   8.951 -1.5653 -1.0219 -1.6937
   48MOL0     H 6304   6.774   0.658   8.744 -0.1659 -1.0570 -0.1199
   48MOL0     H 6305   6.744   0.539   8.864 -0.6213  3.3605  1.2551
   48MOL0     H 6306   6.902   0.373   8.744  1.0077 -1.2551 -2.9140
   48MOL0     H 6307   6.957   0.510   8.652 -3.1391 -0.4560 -3.4084
   48MOL0     H 6308   6.679   0.422   8.632  0.7052  0.4295  1.1190
   48MOL0     H 6309   6.745   0.554   8.538 -0.9476  0.7840  0.3472
   48MOL0     H 6310   6.829   0.256   8.522 -0.1262 -0.4081 -1.1364
   48MOL0     H 6311   6.939   0.378   8.480 -0.0103  0.0229 -0.7506
   48MOL0     H 6312   6.656   0.329   8.372 -0.3369  0.0220 -0.4479
   48MOL0     H 6313   6.800   0.285   8.293 -1.2036 -1.3765  2.1648
   48MOL0     H 6314   6.657   0.534   8.292  0.3782  0.8508 -0.0387
   48MOL0     H 6315   6.825   0.571   8.318 -1.1405 -0.2129 -1.8033
   48MOL0     H 6316   6.884   0.441   8.118 -0.4394 -0.6587  2.9683
   48MOL0     H 6317   6.781   0.588   8.093  0.9531  0.2805 -0.7874
   48MOL0     H 6318   7.086   0.419   9.193 -1.9409  0.6022 -0.9918
   48MOL0     H 6319   7.223   0.514   9.381  0.7469 -0.7358  0.2469
   48MOL0     H 6320   7.351   0.855   9.589  0.7321 -2.4567  3.9660
   48MOL0     H 6321   7.453   0.986   9.761 -0.4981  1.5297 -2.5064
   48MOL0     H 6322   6.458   0.592   9.926  1.7620  1.0911  0.9059
   48MOL0     H 6323   6.393   0.615  10.145 -0.9244 -1.1133 -1.6218
   48MOL0     H 6324   6.553   0.786  10.567  0.1756 -1.5266 -1.0601
   48MOL0     H 6325   6.450   0.851  10.792 -1.8684  1.0349  0.0734
   48MOL0     H 6326   6.144   0.845  11.009 -0.4731  0.3134 -3.7742
   48MOL0     H 6327   6.265   0.910  10.911 -0.8922  0.9112 -0.4300
   48MOL0     H 6328   6.310   0.716  11.153 -0.0438  1.1055  2.0386
   48MOL0     H 6329   6.436   0.764  11.035 -0.9475 -3.2259  0.0853
   48MOL0     H 6330   6.280   0.939  11.236 -0.3428  1.7297 -0.8170
   48MOL0     H 6331   6.402   0.993  11.116 -0.8019  1.4928  1.3089
   48MOL0     H 6332   6.500   0.976  11.331 -2.0270 -0.3802  2.2814
   48MOL0     H 6333   6.432   0.819  11.361  0.4572  1.9408  1.8106
   48MOL0     H 6334   6.790   0.757  11.103  0.4869 -0.2444  0.6293
   48MOL0     H 6335   6.164   0.523  10.720 -0.6817 -1.0955  0.0639
   48MOL0     H 6336   6.299   0.456  10.530  1.9573 -1.3412  1.6017
   49MOL0     O 6337   0.413   7.345   0.994 -0.7204 -0.8205  0.3321
   49MOL0     C 6338   0.334   7.349   1.093 -0.9241  0.3109  0.6759
   49MOL0     O 6339   0.243   7.446   1.120 -0.5753  0.0229 -0.2075
   49MOL0     C 6340   0.208   7.541   1.028  0.4753  0.6728 -0.4777
   49MOL0     C 6341   0.207   7.518   0.891 -0.3390  0.5414 -0.1055
   49MOL0     C 6342   0.180   7.624   0.807 -0.3576 -0.1307 -0.1607
   49MOL0     C 6343   0.165   7.754   0.859  0.1728 -0.5364 -0.0177
   49MOL0     O 6344   0.132   7.864   0.771 -0.2609  0.0278 -0.2351
   49MOL0     C 6345   0.231   7.882   0.664  0.0920 -0.6242 -0.0164
   49MOL0     C 6346   0.154   7.919   0.545  0.6662  0.1406 -0.1065
   49MOL0     C 6347   0.229   7.974   0.432 -0.8993  0.0701 -0.3049
   49MOL0     C 6348   0.316   8.095   0.443 -0.6671  0.5236 -0.3998
   49MOL0     C 6349   0.317   8.195   0.329  1.0663 -1.1459 -0.0361
   49MOL0     C 6350   0.184   8.274   0.332 -0.2795 -0.4873  0.7374
   49MOL0     C 6351   0.182   8.399   0.240 -0.5030 -0.8815  1.1734
   49MOL0     C 6352   0.196   8.369   0.094  0.0230  0.4854 -0.0549
   49MOL0     N 6353   0.078   8.305   0.024 -0.4807  0.3239 -0.1822
   49MOL0     C 6354  -0.009   8.365  -0.063  0.4125 -0.5524  0.3718
   49MOL0     C 6355  -0.062   8.268  -0.141 -0.5832  0.5818 -0.1104
   49MOL0     C 6356  -0.137   8.265  -0.269 -0.1839  0.0947  0.1629
   49MOL0     C 6357  -0.042   8.230  -0.380 -0.0607  0.3676  1.1981
   49MOL0     C 6358  -0.037   8.348  -0.477  0.6354  0.7050  0.3357
   49MOL0     C 6359   0.085   8.320  -0.572 -0.1850  0.1113 -0.4511
   49MOL0     O 6360   0.086   8.416  -0.675 -0.4407  0.3164 -0.0822
   49MOL0     C 6361   0.023   8.375  -0.789  0.0574 -0.4496  0.5417
   49MOL0     C 6362   0.045   8.258  -0.857  0.2562 -1.0143 -0.3506
   49MOL0     C 6363  -0.031   8.228  -0.977 -0.3567  0.7129  0.3317
   49MOL0     C 6364  -0.127   8.321  -1.027 -0.5438 -1.0426  1.2122
   49MOL0     C 6365  -0.194   8.306  -1.162 -0.1558  0.9460  0.0148
   49MOL0     O 6366  -0.161   8.204  -1.244  0.2529 -0.5041  0.0365
   49MOL0     C 6367  -0.205   8.202  -1.369  0.4028  0.0125  1.5318
   49MOL0     C 6368  -0.331   8.155  -1.415 -0.2579 -0.0784  0.1736
   49MOL0     C 6369  -0.362   8.162  -1.547 -0.2312 -0.1486  1.0246
   49MOL0     C 6370  -0.262   8.197  -1.640  0.5574 -0.3344  0.0582
   49MOL0     O 6371  -0.292   8.204  -1.774  0.5674  0.0938 -0.0936
   49MOL0     C 6372  -0.196   8.155  -1.868 -0.3257  0.0223  0.1575
   49MOL0     C 6373  -0.249   8.038  -1.954 -0.3299  0.2175 -0.2658
   49MOL0     C 6374  -0.377   8.081  -2.041 -0.4035  0.5198  0.2484
   49MOL0     C 6375  -0.404   7.966  -2.142 -0.4526 -0.1428  0.2951
   49MOL0     C 6376  -0.523   8.010  -2.238  1.1360 -0.0926 -0.3576
   49MOL0     C 6377  -0.653   8.045  -2.159 -0.4965  0.7424 -0.0337
   49MOL0     C 6378  -0.763   8.091  -2.253  0.6873  0.2628  0.5549
   49MOL0     C 6379  -0.897   8.108  -2.184  0.1398  0.0948 -0.3756
   49MOL0    Cl 6380  -0.978   7.953  -2.149 -0.1377 -0.2494  0.6811
   49MOL0     C 6381  -0.133   8.233  -1.587 -1.0370  1.3989  0.7650
   49MOL0     C 6382  -0.105   8.239  -1.452  0.1183 -0.3370  0.1511
   49MOL0     O 6383  -0.283   8.391  -1.186  0.4979 -0.5794  0.6809
   49MOL0     C 6384  -0.159   8.426  -0.942 -0.4882  1.2455 -0.5627
   49MOL0     C 6385  -0.091   8.453  -0.826 -0.6104 -1.0718  0.0214
   49MOL0     N 6386  -0.023   8.155  -0.081 -0.8942  0.5861 -0.4399
   49MOL0     N 6387   0.066   8.165   0.012  0.0073  0.2866 -0.3070
   49MOL0     C 6388   0.167   7.774   0.993 -0.0878  0.1770  0.1915
   49MOL0     C 6389   0.181   7.670   1.079  0.5305  0.0410 -0.3857
   49MOL0     C 6390   0.369   7.257   1.209 -0.0002  0.3711  0.7558
   49MOL0     C 6391   0.274   7.253   1.316 -0.7437 -0.5946  0.8155
   49MOL0     C 6392   0.308   7.183   1.430 -0.1858 -0.5839  0.3458
   49MOL0     C 6393   0.425   7.108   1.446  0.0732 -0.2045  0.3924
   49MOL0     O 6394   0.440   7.039   1.567 -0.8699 -0.2158 -0.1549
   49MOL0     C 6395   0.552   6.949   1.583  0.3916 -1.3598  0.2146
   49MOL0     C 6396   0.561   6.954   1.732 -0.7445 -0.3990 -0.9221
   49MOL0     C 6397   0.699   6.905   1.783 -0.4117  0.4335  0.4046
   49MOL0     C 6398   0.736   6.951   1.920 -0.3202 -0.1731 -0.5274
   49MOL0     C 6399   0.876   6.913   1.964  0.4173  0.4682 -0.8560
   49MOL0     C 6400   0.985   6.885   2.012 -0.3556 -0.6171  1.1454
   49MOL0     C 6401   0.512   7.108   1.340 -0.4003 -0.7484 -0.3066
   49MOL0     C 6402   0.486   7.190   1.229  0.2853  0.2518  0.5666
   49MOL0     H 6403   0.243   7.424   0.850 -0.8002 -0.5978  1.9934
   49MOL0     H 6404   0.170   7.612   0.699 -0.1097  0.1117 -0.2112
   49MOL0     H 6405   0.289   7.798   0.625 -1.1963 -0.9817 -1.2446
   49MOL0     H 6406   0.293   7.963   0.703  0.1503 -0.8843  0.4390
   49MOL0     H 6407   0.088   8.001   0.576 -2.0944 -1.7905 -0.4952
   49MOL0     H 6408   0.093   7.836   0.510  1.6447  0.1747 -2.0377
   49MOL0     H 6409   0.159   7.989   0.349 -1.5769  1.7292  0.5313
   49MOL0     H 6410   0.301   7.899   0.398  0.4620  1.0386  0.3632
   49MOL0     H 6411   0.267   8.141   0.530 -0.8977  2.6985 -1.6052
   49MOL0     H 6412   0.416   8.067   0.478 -0.2936  0.6341 -1.3480
   49MOL0     H 6413   0.342   8.145   0.235  4.4144 -2.1485  1.2404
   49MOL0     H 6414   0.400   8.267   0.332 -0.6518  0.9063  2.1480
   49MOL0     H 6415   0.169   8.314   0.433 -0.4708 -3.2977  1.9026
   49MOL0     H 6416   0.101   8.210   0.300  0.5251 -0.6472 -1.1917
   49MOL0     H 6417   0.090   8.458   0.241  0.0564  0.4088 -3.0401
   49MOL0     H 6418   0.262   8.467   0.270 -1.6547  0.8750  0.3934
   49MOL0     H 6419   0.293   8.319   0.085  1.9608  3.0079  3.7497
   49MOL0     H 6420   0.213   8.464   0.044 -0.8075 -0.3742 -2.0595
   49MOL0     H 6421  -0.026   8.471  -0.075 -0.6021 -0.8076 -0.5645
   49MOL0     H 6422  -0.192   8.357  -0.289  2.7147  1.9819  0.1990
   49MOL0     H 6423  -0.205   8.180  -0.265 -0.6505  0.4910  0.9069
   49MOL0     H 6424  -0.067   8.138  -0.434  0.2837  1.3180 -0.6489
   49MOL0     H 6425   0.055   8.209  -0.334  0.7511 -2.6702 -1.5452
   49MOL0     H 6426  -0.130   8.363  -0.533  0.6753 -0.5233 -0.0826
   49MOL0     H 6427  -0.018   8.440  -0.420  2.7108  0.2116  0.4995
   49MOL0     H 6428   0.080   8.216  -0.608  3.7465 -1.4814  2.7937
   49MOL0     H 6429   0.177   8.320  -0.514 -0.1648 -3.1465 -0.2839
   49MOL0     H 6430   0.115   8.185  -0.819  2.6917  0.2742 -2.0836
   49MOL0     H 6431  -0.001   8.136  -1.026  0.2464 -0.2326  2.3784
   49MOL0     H 6432  -0.412   8.112  -1.355 -0.9184  1.1669  0.1943
   49MOL0     H 6433  -0.463   8.143  -1.581 -0.0814  1.0371 -0.1726
   49MOL0     H 6434  -0.105   8.114  -1.825  0.9152  1.0113 -1.4341
   49MOL0     H 6435  -0.175   8.242  -1.929  1.6778  0.9608  2.0751
   49MOL0     H 6436  -0.281   7.944  -1.908 -0.1613  1.3195  2.2507
   49MOL0     H 6437  -0.165   8.010  -2.019  0.3442  2.2711 -0.3324
   49MOL0     H 6438  -0.374   8.176  -2.095  1.2574 -1.1380 -2.8860
   49MOL0     H 6439  -0.456   8.088  -1.966 -1.4302  0.5326 -0.8057
   49MOL0     H 6440  -0.314   7.948  -2.203  0.2874  0.8604  1.0541
   49MOL0     H 6441  -0.432   7.875  -2.088 -0.6015  0.6758  1.6281
   49MOL0     H 6442  -0.538   7.926  -2.306  0.7381  1.7975 -2.7284
   49MOL0     H 6443  -0.489   8.099  -2.293  4.1812  0.9395  2.8489
   49MOL0     H 6444  -0.640   8.130  -2.091  0.5620  0.4697  0.1257
   49MOL0     H 6445  -0.686   7.957  -2.102 -0.3227  0.4856 -0.3215
   49MOL0     H 6446  -0.733   8.188  -2.294  0.9377 -0.9627 -2.3878
   49MOL0     H 6447  -0.764   8.026  -2.340  0.8812 -0.7099  1.2687
   49MOL0     H 6448  -0.970   8.178  -2.224  0.0330  0.4227  0.3781
   49MOL0     H 6449  -0.873   8.174  -2.100  0.0954 -0.2937 -0.0554
   49MOL0     H 6450  -0.056   8.265  -1.658  1.5329 -2.1541  1.6564
   49MOL0     H 6451  -0.016   8.285  -1.412  0.0824  0.1210 -0.2974
   49MOL0     H 6452  -0.242   8.490  -0.970 -1.5680 -0.7171 -2.1645
   49MOL0     H 6453  -0.097   8.552  -0.782  0.0728 -1.7481  1.7522
   49MOL0     H 6454   0.175   7.877   1.026  0.2325  0.2690 -0.1594
   49MOL0     H 6455   0.191   7.682   1.187  0.9603  1.7209 -0.5847
   49MOL0     H 6456   0.182   7.310   1.303  0.9502  1.9571 -1.0262
   49MOL0     H 6457   0.240   7.188   1.515 -0.7173  1.3038 -0.1565
   49MOL0     H 6458   0.645   6.985   1.537  0.3461  0.0357  1.1700
   49MOL0     H 6459   0.529   6.849   1.544 -1.1863 -1.8569  2.2630
   49MOL0     H 6460   0.544   7.056   1.769 -0.6937 -0.2668 -1.2656
   49MOL0     H 6461   0.483   6.892   1.777  0.1214  0.2529  1.6493
   49MOL0     H 6462   0.782   6.939   1.720  2.4349 -1.8165  2.6250
   49MOL0     H 6463   0.693   6.795   1.784  0.0966  0.4057  0.7134
   49MOL0     H 6464   0.737   7.060   1.931  2.6191 -0.1329 -0.3947
   49MOL0     H 6465   0.658   6.909   1.985 -1.6690  1.8502 -0.7531
   49MOL0     H 6466   1.067   6.843   2.065 -1.3771 -0.3334  3.0205
   49MOL0     H 6467   0.604   7.052   1.331 -0.3102 -0.3709 -2.0376
   49MOL0     H 6468   0.568   7.205   1.160  1.0108 -0.9001  1.1410
   50MOL0     O 6469   6.817   9.385  10.981 -0.0362  0.0998 -0.2380
   50MOL0     C 6470   6.766   9.312  11.071  0.8390  0.2290 -0.1832
   50MOL0     O 6471   6.816   9.190  11.122 -0.4960  0.2014  0.1352
   50MOL0     C 6472   6.938   9.137  11.097  0.8928  0.4563 -0.6093
   50MOL0     C 6473   7.014   9.132  11.210  0.8790 -0.0289 -0.1537
   50MOL0     C 6474   7.145   9.090  11.204  0.4613  0.3980  0.2368
   50MOL0     C 6475   7.203   9.051  11.079  0.0748 -0.5351 -0.2110
   50MOL0     O 6476   7.329   9.004  11.057 -0.1018  0.7483  0.2170
   50MOL0     C 6477   7.435   8.998  11.154  0.3555 -0.3389 -0.8093
   50MOL0     C 6478   7.414   8.876  11.235  0.3186  0.4283 -0.0100
   50MOL0     C 6479   7.512   8.866  11.349  0.0945 -0.0881  0.7364
   50MOL0     C 6480   7.645   8.812  11.287 -0.2951  0.3779  0.6407
   50MOL0     C 6481   7.751   8.762  11.388 -0.3533  0.4198 -0.8130
   50MOL0     C 6482   7.780   8.876  11.498 -0.6270 -1.1533 -0.2285
   50MOL0     C 6483   7.913   8.853  11.575  0.9206 -0.1746  0.0173
   50MOL0     C 6484   7.928   8.722  11.634  0.3107  0.4845 -0.1419
   50MOL0     N 6485   8.035   8.713  11.736 -0.0535  0.0911  0.5314
   50MOL0     C 6486   8.165   8.769  11.707 -0.1675  1.2095 -0.5189
   50MOL0     C 6487   8.239   8.745  11.819  0.1470 -0.1827  0.2531
   50MOL0     C 6488   8.384   8.755  11.825  0.1241  1.0019 -0.1331
   50MOL0     C 6489   8.461   8.748  11.964 -0.1100 -0.3752  0.9344
   50MOL0     C 6490   8.609   8.775  11.932 -0.7617  0.7138 -0.0023
   50MOL0     C 6491   8.722   8.698  12.007  0.2992  0.0510  0.6583
   50MOL0     O 6492   8.756   8.764  12.134 -0.7503  0.2768  0.0389
   50MOL0     C 6493   8.868   8.705  12.190 -1.3426 -0.9092 -0.5513
   50MOL0     C 6494   8.868   8.700  12.336 -0.0763  0.5342 -0.2897
   50MOL0     C 6495   8.989   8.653  12.402 -0.0881 -0.2914  0.2455
   50MOL0     C 6496   9.110   8.632  12.333  0.1967 -0.0198  0.7273
   50MOL0     C 6497   9.238   8.592  12.400  0.1913  0.5201 -0.5133
   50MOL0     O 6498   9.232   8.561  12.534  0.6716  0.9670 -0.4385
   50MOL0     C 6499   9.339   8.501  12.587 -0.4200  0.9551  0.6148
   50MOL0     C 6500   9.439   8.569  12.653  0.7268 -0.6230 -0.2440
   50MOL0     C 6501   9.546   8.502  12.712  0.0478  0.7868  0.4947
   50MOL0     C 6502   9.559   8.362  12.706  0.6910  0.2347 -0.3809
   50MOL0     O 6503   9.670   8.297  12.757  0.3025  0.3194  0.1716
   50MOL0     C 6504   9.756   8.373  12.825 -0.4778  0.4102 -0.6434
   50MOL0     C 6505   9.864   8.277  12.864 -0.2728 -0.2326  0.0636
   50MOL0     C 6506   9.984   8.335  12.940  0.7721  0.2397  0.1123
   50MOL0     C 6507  10.084   8.220  12.955 -0.4628 -0.2495  0.3021
   50MOL0     C 6508  10.209   8.253  13.033  0.2911  0.4274  1.5082
   50MOL0     C 6509  10.285   8.129  13.072 -0.4685 -0.6057 -0.1287
   50MOL0     C 6510  10.412   8.166  13.157 -0.1519  0.1700  0.2524
   50MOL0     C 6511  10.456   8.043  13.236  0.6413 -0.6114 -0.8393
   50MOL0    Cl 6512  10.608   8.094  13.327 -1.0913 -0.1701 -0.4066
   50MOL0     C 6513   9.453   8.288  12.641  0.2897  0.6723 -0.2708
   50MOL0     C 6514   9.345   8.356  12.579 -0.4349 -0.2419  0.3420
   50MOL0     O 6515   9.342   8.602  12.336 -0.5876 -0.1323 -0.1255
   50MOL0     C 6516   9.106   8.646  12.196 -0.5338 -0.3357 -0.0913
   50MOL0     C 6517   8.992   8.682  12.129  0.2151 -0.4302  0.8308
   50MOL0     N 6518   8.152   8.681  11.912  1.0217 -0.0126 -0.5919
   50MOL0     N 6519   8.035   8.661  11.861 -0.2559  0.3484  0.5408
   50MOL0     C 6520   7.119   9.053  10.960  0.7054  0.3570 -0.4187
   50MOL0     C 6521   6.983   9.094  10.974 -1.0944  0.1953 -0.0033
   50MOL0     C 6522   6.632   9.352  11.112 -0.9007  0.1791 -1.1306
   50MOL0     C 6523   6.585   9.293  11.239  0.8465 -0.4216  0.0300
   50MOL0     C 6524   6.455   9.331  11.272 -0.2233 -0.3861 -0.0071
   50MOL0     C 6525   6.385   9.426  11.200  0.0418 -0.5126  0.1438
   50MOL0     O 6526   6.266   9.475  11.237  0.4658 -0.7313  0.2120
   50MOL0     C 6527   6.206   9.420  11.357 -0.0985  0.7037 -0.5206
   50MOL0     C 6528   6.064   9.474  11.363 -0.1584 -0.0778 -0.1047
   50MOL0     C 6529   6.074   9.612  11.429 -1.4166 -0.1121 -0.8902
   50MOL0     C 6530   5.948   9.691  11.427  1.1288  0.7348  0.0423
   50MOL0     C 6531   5.824   9.606  11.449  0.0262 -0.2990 -0.0868
   50MOL0     C 6532   5.720   9.558  11.476  0.2258 -0.0735  0.1904
   50MOL0     C 6533   6.430   9.475  11.079  0.4889 -0.7641 -0.0313
   50MOL0     C 6534   6.550   9.438  11.030 -0.5440 -0.1819 -0.7060
   50MOL0     H 6535   6.984   9.167  11.308  1.5493  0.9338 -0.2805
   50MOL0     H 6536   7.198   9.090  11.299 -0.6114  0.1495  0.8422
   50MOL0     H 6537   7.447   9.090  11.213 -0.1722 -0.3515 -0.6824
   50MOL0     H 6538   7.533   8.985  11.105  1.6593  2.4961  0.7905
   50MOL0     H 6539   7.401   8.789  11.170 -1.1604 -1.0755  2.1623
   50MOL0     H 6540   7.321   8.891  11.291  0.1118  0.6741 -0.4077
   50MOL0     H 6541   7.467   8.796  11.421 -0.7972  1.4533  1.7201
   50MOL0     H 6542   7.509   8.964  11.397 -2.0809  0.7472 -0.9774
   50MOL0     H 6543   7.627   8.721  11.229 -2.6635 -0.3698  2.3649
   50MOL0     H 6544   7.691   8.885  11.219  2.8178  0.8054  2.9772
   50MOL0     H 6545   7.837   8.721  11.334 -2.0762 -0.7777 -2.8078
   50MOL0     H 6546   7.716   8.674  11.441 -1.9721  0.7980 -1.1894
   50MOL0     H 6547   7.691   8.889  11.560  0.5125  3.4751  0.8580
   50MOL0     H 6548   7.793   8.969  11.442 -0.9105 -0.1478  1.2976
   50MOL0     H 6549   7.989   8.879  11.502 -1.1739  2.8836 -1.3049
   50MOL0     H 6550   7.923   8.916  11.664  1.8380 -0.8282  0.3864
   50MOL0     H 6551   7.946   8.640  11.564 -1.8405 -0.4890  0.3841
   50MOL0     H 6552   7.829   8.702  11.676  0.9332  0.3605  1.3086
   50MOL0     H 6553   8.207   8.812  11.616 -0.6824 -0.1642 -1.4372
   50MOL0     H 6554   8.400   8.848  11.770  0.6732  0.7674 -0.3776
   50MOL0     H 6555   8.421   8.682  11.753  0.2753 -0.2632  1.1831
   50MOL0     H 6556   8.446   8.646  12.002 -2.1044 -1.1690 -1.6013
   50MOL0     H 6557   8.426   8.825  12.032 -3.6991  0.1776 -1.2475
   50MOL0     H 6558   8.634   8.751  11.828  3.0194 -0.5671  1.0303
   50MOL0     H 6559   8.627   8.882  11.947  0.8512  0.6462 -1.1461
   50MOL0     H 6560   8.811   8.682  11.946 -0.4970  0.9854 -0.8013
   50MOL0     H 6561   8.677   8.599  12.020  2.1326 -1.2739 -2.0166
   50MOL0     H 6562   8.780   8.737  12.388 -0.1753  0.9774 -0.7633
   50MOL0     H 6563   8.988   8.631  12.508 -4.4673  1.1288  0.7170
   50MOL0     H 6564   9.442   8.677  12.665  2.9028 -0.7577  1.1235
   50MOL0     H 6565   9.618   8.567  12.760 -0.4083  0.8549  1.1103
   50MOL0     H 6566   9.708   8.413  12.915 -0.9308 -3.5069  1.0226
   50MOL0     H 6567   9.814   8.454  12.778  2.4802 -0.0825  1.8394
   50MOL0     H 6568   9.894   8.218  12.778 -1.2029 -2.4800  1.1966
   50MOL0     H 6569   9.809   8.208  12.929  1.8638 -0.6729  1.5190
   50MOL0     H 6570   9.947   8.382  13.032 -2.7754  0.9445 -1.5382
   50MOL0     H 6571  10.034   8.411  12.880 -1.1501  1.5879  0.1561
   50MOL0     H 6572  10.026   8.136  12.995 -0.3937 -1.7165 -2.4675
   50MOL0     H 6573  10.111   8.179  12.858 -0.5431  0.0671  0.1448
   50MOL0     H 6574  10.182   8.296  13.130  0.3387  0.5878  1.4505
   50MOL0     H 6575  10.267   8.318  12.967  1.1036 -2.3159 -0.6652
   50MOL0     H 6576  10.314   8.063  12.989 -3.7229 -3.4240  0.7279
   50MOL0     H 6577  10.222   8.065  13.134  1.2027 -0.7686  1.4748
   50MOL0     H 6578  10.494   8.195  13.090  1.7690 -0.6809  2.1082
   50MOL0     H 6579  10.399   8.252  13.224  0.1459  1.7662 -1.6271
   50MOL0     H 6580  10.477   7.961  13.168  0.1010 -1.6352  0.1861
   50MOL0     H 6581  10.385   8.025  13.317  1.1931  3.2514  0.7388
   50MOL0     H 6582   9.466   8.180  12.643  2.5200  0.9135  0.4268
   50MOL0     H 6583   9.269   8.311  12.516 -1.1773  1.5812 -0.1180
   50MOL0     H 6584   9.193   8.620  12.136 -0.6160  0.6635 -0.6737
   50MOL0     H 6585   9.004   8.702  12.023 -3.3324 -0.4918  0.2921
   50MOL0     H 6586   7.161   9.046  10.860  0.0212  0.9115 -0.7510
   50MOL0     H 6587   6.918   9.103  10.887  0.6774 -1.3054 -1.5704
   50MOL0     H 6588   6.644   9.224  11.299  0.5901 -0.8633 -0.2150
   50MOL0     H 6589   6.425   9.295  11.370 -2.7484  0.2036 -0.4899
   50MOL0     H 6590   6.257   9.426  11.454 -0.2881 -2.6672 -0.0850
   50MOL0     H 6591   6.193   9.312  11.341 -0.1235  0.5287  0.5964
   50MOL0     H 6592   6.019   9.492  11.265 -0.0617 -0.9126 -0.3164
   50MOL0     H 6593   6.007   9.413  11.433  0.8956 -2.3980 -1.1586
   50MOL0     H 6594   6.144   9.660  11.360  0.0218 -1.0093 -0.0981
   50MOL0     H 6595   6.107   9.607  11.533 -1.5626 -0.2136 -0.8481
   50MOL0     H 6596   5.942   9.773  11.499 -1.3592  0.6278  0.0305
   50MOL0     H 6597   5.935   9.725  11.324 -0.5992  1.4022  0.4415
   50MOL0     H 6598   5.631   9.502  11.496  0.9442 -1.3334 -0.0862
   50MOL0     H 6599   6.368   9.543  11.022  3.0335  2.2742  0.5804
   50MOL0     H 6600   6.592   9.458  10.932  0.5500 -0.8290 -0.3891
   51MOL0     O 6601   9.490   8.511   1.583  0.9169  0.7051 -0.5497
   51MOL0     C 6602   9.417   8.611   1.592 -0.0417 -0.7950  0.3216
   51MOL0     O 6603   9.466   8.735   1.633 -0.3530  0.6749  0.3070
   51MOL0     C 6604   9.598   8.731   1.669  0.9231  0.1617  0.6213
   51MOL0     C 6605   9.683   8.802   1.576  0.0548  0.5362 -0.4411
   51MOL0     C 6606   9.825   8.816   1.615 -0.6771 -0.9330  0.2444
   51MOL0     C 6607   9.878   8.756   1.736  0.4082 -0.3672 -0.7110
   51MOL0     O 6608  10.014   8.772   1.750  0.4280  0.0636  0.0224
   51MOL0     C 6609  10.088   8.713   1.854  0.0316  0.3495  0.0891
   51MOL0     C 6610  10.232   8.752   1.828  0.6180  0.6805  0.2377
   51MOL0     C 6611  10.334   8.652   1.890  0.6068 -0.2487  0.5020
   51MOL0     C 6612  10.469   8.719   1.897  0.7103 -0.3829 -0.2211
   51MOL0     C 6613  10.586   8.628   1.941  0.7490 -0.0727 -0.0155
   51MOL0     C 6614  10.594   8.518   1.837  0.5975  0.3557  0.1209
   51MOL0     C 6615  10.738   8.463   1.824  0.3106 -0.1489 -0.9135
   51MOL0     C 6616  10.788   8.405   1.958 -0.0712  0.3843 -0.4009
   51MOL0     N 6617  10.925   8.364   1.938 -0.7352 -0.5545  0.5171
   51MOL0     C 6618  11.036   8.440   1.961 -0.1143 -0.4887  0.6440
   51MOL0     C 6619  11.138   8.352   1.940 -0.2018 -0.1765 -0.4027
   51MOL0     C 6620  11.286   8.382   1.953 -0.4503 -0.5994  0.7374
   51MOL0     C 6621  11.359   8.307   1.838 -0.3768 -0.1595 -0.1416
   51MOL0     C 6622  11.510   8.329   1.836  0.1136 -0.2509 -0.3626
   51MOL0     C 6623  11.571   8.328   1.702 -0.7616  0.5411  0.0478
   51MOL0     O 6624  11.709   8.352   1.723  0.0721 -0.4964  0.1261
   51MOL0     C 6625  11.786   8.333   1.612 -0.6193 -0.7362 -0.2669
   51MOL0     C 6626  11.747   8.379   1.480  0.8257 -0.2506  0.2726
   51MOL0     C 6627  11.840   8.365   1.378  0.0255 -0.3542  0.4517
   51MOL0     C 6628  11.962   8.305   1.396 -0.4000 -0.0438  1.0206
   51MOL0     C 6629  12.052   8.281   1.287  0.1924  0.8063  0.1923
   51MOL0     O 6630  12.166   8.211   1.315 -0.3347 -0.0076 -0.2717
   51MOL0     C 6631  12.263   8.203   1.213 -0.0768  0.3137  0.0739
   51MOL0     C 6632  12.310   8.077   1.163  0.4803  0.1047 -0.5480
   51MOL0     C 6633  12.404   8.079   1.058 -0.7446  0.0829  1.2228
   51MOL0     C 6634  12.460   8.197   1.006 -0.4721  0.0986  0.4456
   51MOL0     O 6635  12.560   8.184   0.907  0.4770  0.5638 -0.7060
   51MOL0     C 6636  12.561   8.290   0.810 -0.3224 -0.2696 -0.3884
   51MOL0     C 6637  12.614   8.222   0.678 -0.6543 -0.5620 -0.6115
   51MOL0     C 6638  12.649   8.327   0.565  0.3910  0.2060 -0.1383
   51MOL0     C 6639  12.527   8.416   0.511 -0.4712  0.3419 -0.0059
   51MOL0     C 6640  12.588   8.549   0.455  0.0510  0.6846 -0.7344
   51MOL0     C 6641  12.481   8.657   0.431  0.6540 -0.3368 -0.1800
   51MOL0     C 6642  12.528   8.762   0.325  0.4779 -0.1758 -0.8516
   51MOL0     C 6643  12.446   8.886   0.341 -0.3602 -0.1940 -0.0522
   51MOL0    Cl 6644  12.270   8.855   0.333  0.1232  0.4449 -0.1159
   51MOL0     C 6645  12.427   8.318   1.065  0.1264  0.7866  0.2258
   51MOL0     C 6646  12.325   8.320   1.163 -1.2701 -0.7369  0.0672
   51MOL0     O 6647  12.029   8.333   1.179  0.4561  0.5872  0.1305
   51MOL0     C 6648  12.001   8.281   1.528  0.7387 -0.1876  0.5815
   51MOL0     C 6649  11.920   8.293   1.637  0.4345  0.5088 -0.8860
   51MOL0     N 6650  11.079   8.232   1.908 -0.2606 -0.4396 -0.7939
   51MOL0     N 6651  10.955   8.237   1.914  0.9848  0.6036  0.8726
   51MOL0     C 6652   9.789   8.688   1.821  0.1547  0.1410  0.2653
   51MOL0     C 6653   9.651   8.678   1.785 -0.2340 -0.2845  0.7358
   51MOL0     C 6654   9.286   8.592   1.533  0.7031  0.2354 -0.0715
   51MOL0     C 6655   9.251   8.466   1.485 -0.0859  0.8145  0.4107
   51MOL0     C 6656   9.124   8.433   1.425  0.0267  0.2414 -1.2951
   51MOL0     C 6657   9.033   8.539   1.413  0.7982  0.4918 -0.4098
   51MOL0     O 6658   8.908   8.503   1.358 -0.1360 -0.3012  0.0527
   51MOL0     C 6659   8.795   8.596   1.375 -0.1534  0.7353 -0.2610
   51MOL0     C 6660   8.731   8.595   1.510  0.2356  0.3544 -0.2230
   51MOL0     C 6661   8.617   8.694   1.520  0.3520 -0.7334  0.1576
   51MOL0     C 6662   8.679   8.834   1.554  0.1190 -0.3162  0.2253
   51MOL0     C 6663   8.599   8.943   1.503  0.4746  0.2099 -0.7901
   51MOL0     C 6664   8.540   9.031   1.445  0.2087  1.2994  0.7174
   51MOL0     C 6665   9.066   8.668   1.458 -0.0643 -0.0562 -0.1940
   51MOL0     C 6666   9.193   8.697   1.513  0.1278  0.0589 -0.0259
   51MOL0     H 6667   9.643   8.827   1.478  0.7266 -1.7024 -1.3506
   51MOL0     H 6668   9.886   8.880   1.553 -4.0204  0.0838 -2.2953
   51MOL0     H 6669  10.088   8.605   1.836  1.6411  0.4901 -0.9523
   51MOL0     H 6670  10.058   8.732   1.958  0.0927 -0.7172  0.3096
   51MOL0     H 6671  10.243   8.851   1.874  2.5752  1.0355 -0.8485
   51MOL0     H 6672  10.260   8.768   1.723 -2.5205  0.2956 -0.7584
   51MOL0     H 6673  10.325   8.566   1.823  0.3683 -0.2522  0.5387
   51MOL0     H 6674  10.306   8.626   1.992  0.9906 -0.8141  0.4660
   51MOL0     H 6675  10.489   8.779   1.807  0.5820  1.4429  0.9136
   51MOL0     H 6676  10.458   8.797   1.973  1.6380  0.0246 -0.4868
   51MOL0     H 6677  10.562   8.600   2.044 -2.9281 -0.5512 -0.8665
   51MOL0     H 6678  10.682   8.678   1.958  0.7423 -0.4268  1.1953
   51MOL0     H 6679  10.562   8.555   1.739 -1.5938 -1.5298  0.0317
   51MOL0     H 6680  10.540   8.426   1.862 -0.2643  0.6198 -0.6902
   51MOL0     H 6681  10.747   8.387   1.745  2.4295  0.3815 -1.2321
   51MOL0     H 6682  10.801   8.547   1.795  0.8289 -0.3548 -0.3994
   51MOL0     H 6683  10.729   8.317   1.986  0.3140  0.5101  0.8638
   51MOL0     H 6684  10.771   8.479   2.037  1.9553  0.9043 -0.3862
   51MOL0     H 6685  11.027   8.540   2.002  0.3610 -0.9112  1.8082
   51MOL0     H 6686  11.329   8.353   2.049  3.1621  1.1205 -0.1623
   51MOL0     H 6687  11.300   8.489   1.936 -0.0416 -0.8356 -0.5518
   51MOL0     H 6688  11.316   8.345   1.745 -1.4480 -0.1374  0.3546
   51MOL0     H 6689  11.347   8.198   1.838  0.4410 -0.2618  0.0104
   51MOL0     H 6690  11.530   8.421   1.891 -1.1191 -1.6418  2.6846
   51MOL0     H 6691  11.562   8.247   1.888 -1.3470  0.2341  2.0091
   51MOL0     H 6692  11.535   8.407   1.634  2.1827  0.9589 -1.1654
   51MOL0     H 6693  11.558   8.228   1.659  0.5392  0.4391 -0.1342
   51MOL0     H 6694  11.658   8.433   1.451  0.9370  0.8187  1.8049
   51MOL0     H 6695  11.804   8.398   1.281 -0.1778 -0.4928  0.4784
   51MOL0     H 6696  12.270   7.983   1.200  0.6586 -0.4994 -1.8455
   51MOL0     H 6697  12.439   7.985   1.015 -0.3062  0.4469  0.7818
   51MOL0     H 6698  12.625   8.367   0.855  2.0679 -2.1674 -0.3069
   51MOL0     H 6699  12.464   8.332   0.784  0.2171  1.5127  0.3346
   51MOL0     H 6700  12.537   8.157   0.637  0.4820 -0.8220 -2.4369
   51MOL0     H 6701  12.712   8.178   0.700 -0.3859 -0.9797 -2.5142
   51MOL0     H 6702  12.678   8.272   0.474  0.3238  1.6340 -1.0553
   51MOL0     H 6703  12.734   8.391   0.590  0.5917  1.5147 -3.6180
   51MOL0     H 6704  12.488   8.370   0.419  1.0179 -0.3579 -0.3302
   51MOL0     H 6705  12.457   8.420   0.595 -0.2698  0.0983  0.1771
   51MOL0     H 6706  12.654   8.525   0.372 -3.2952 -2.2940 -2.7984
   51MOL0     H 6707  12.647   8.581   0.542 -1.1247 -0.1987  0.4396
   51MOL0     H 6708  12.455   8.701   0.528  1.0457  0.1266 -0.2795
   51MOL0     H 6709  12.391   8.606   0.394 -2.2056  2.6512  1.9710
   51MOL0     H 6710  12.634   8.779   0.348  0.2235 -1.2858  1.3698
   51MOL0     H 6711  12.516   8.737   0.219  1.6551 -0.2785 -0.9770
   51MOL0     H 6712  12.466   8.958   0.261  0.9025 -2.0157 -1.4755
   51MOL0     H 6713  12.455   8.941   0.435 -2.5775 -2.4587  1.6346
   51MOL0     H 6714  12.469   8.411   1.027  0.1448  0.7250  0.0960
   51MOL0     H 6715  12.288   8.416   1.197 -0.8955 -0.9946  1.2455
   51MOL0     H 6716  12.089   8.221   1.548  0.4864 -0.7772 -0.0267
   51MOL0     H 6717  11.934   8.266   1.741 -4.7205  1.9418  0.4646
   51MOL0     H 6718   9.814   8.648   1.919 -1.7614 -2.5606 -0.2012
   51MOL0     H 6719   9.575   8.639   1.852 -0.5257  1.2371  1.3270
   51MOL0     H 6720   9.318   8.381   1.492 -1.4770 -0.2973  0.7262
   51MOL0     H 6721   9.101   8.329   1.405 -1.8176 -0.2754  2.5644
   51MOL0     H 6722   8.716   8.571   1.303 -1.3642  0.0916  1.2375
   51MOL0     H 6723   8.830   8.696   1.347  2.8146 -0.6013 -1.7811
   51MOL0     H 6724   8.693   8.496   1.534 -0.0033  0.7710  1.1750
   51MOL0     H 6725   8.798   8.609   1.595  0.8295 -0.9052 -0.4598
   51MOL0     H 6726   8.550   8.666   1.602  1.5135  1.2644  1.9094
   51MOL0     H 6727   8.565   8.708   1.425 -1.4457  0.6020  1.2669
   51MOL0     H 6728   8.700   8.852   1.660 -0.5075 -0.3636  0.3648
   51MOL0     H 6729   8.775   8.847   1.504 -0.1831  1.8890  0.1319
   51MOL0     H 6730   8.474   9.100   1.395  0.0330 -0.5678 -1.7955
   51MOL0     H 6731   9.001   8.755   1.450 -0.3917  0.0028  2.2713
   51MOL0     H 6732   9.235   8.793   1.540  2.0556 -0.2901 -1.5003
   52MOL0     O 6733   3.683  10.723   7.796  0.1721 -0.2239 -0.2007
   52MOL0     C 6734   3.694  10.787   7.903 -0.4650 -0.2620 -0.6289
   52MOL0     O 6735   3.793  10.877   7.937  0.9830 -0.0242  0.2009
   52MOL0     C 6736   3.889  10.910   7.848  0.2660 -0.0281  0.9549
   52MOL0     C 6737   3.855  11.015   7.762  0.1948  0.5736 -0.4091
   52MOL0     C 6738   3.951  11.043   7.664  0.2205  0.1968  0.2502
   52MOL0     C 6739   4.067  10.977   7.657  0.3226 -0.0362 -0.7778
   52MOL0     O 6740   4.144  11.019   7.549 -0.6312 -0.4513 -0.0917
   52MOL0     C 6741   4.280  10.990   7.526  0.5136  0.6777 -0.6804
   52MOL0     C 6742   4.318  11.011   7.376 -0.2048 -1.2016 -0.6366
   52MOL0     C 6743   4.255  10.918   7.269  0.0222 -0.5313  0.1900
   52MOL0     C 6744   4.216  10.780   7.321  0.3333 -0.2176  0.3109
   52MOL0     C 6745   4.089  10.779   7.402 -0.5054 -0.6824  1.1905
   52MOL0     C 6746   3.992  10.675   7.375  0.8144 -0.5756  0.7090
   52MOL0     C 6747   3.855  10.696   7.435  0.0090  0.2803  1.3567
   52MOL0     C 6748   3.762  10.562   7.439  0.2214 -0.2416  0.9461
   52MOL0     N 6749   3.809  10.460   7.534  0.6245  0.4413  1.4505
   52MOL0     C 6750   3.867  10.497   7.654  1.1640  0.2708  0.0277
   52MOL0     C 6751   3.917  10.384   7.714  0.6792  0.1903  0.8583
   52MOL0     C 6752   3.994  10.358   7.846  0.5673 -0.8823  0.1450
   52MOL0     C 6753   3.957  10.445   7.969  0.2915  0.4996  0.2834
   52MOL0     C 6754   3.826  10.394   8.028  0.5394 -0.2979 -0.2327
   52MOL0     C 6755   3.795  10.466   8.170  0.1668 -0.1112  0.0889
   52MOL0     O 6756   3.903  10.437   8.258  0.4378  0.1048  0.1218
   52MOL0     C 6757   3.880  10.450   8.389  0.7312 -0.4396  0.3307
   52MOL0     C 6758   3.990  10.470   8.470 -0.2121 -0.7561 -0.3221
   52MOL0     C 6759   3.986  10.463   8.608 -0.5001  0.1501  0.5108
   52MOL0     C 6760   3.865  10.447   8.674 -0.6496  0.3563  0.7173
   52MOL0     C 6761   3.846  10.450   8.818 -0.0363  0.1893 -0.7247
   52MOL0     O 6762   3.726  10.406   8.861  0.3635  0.0315  0.8328
   52MOL0     C 6763   3.704  10.346   8.983  0.9542  0.8151  0.1872
   52MOL0     C 6764   3.661  10.211   8.963 -0.0538  0.8045 -0.3191
   52MOL0     C 6765   3.628  10.135   9.081 -0.8345 -0.1044 -0.2063
   52MOL0     C 6766   3.637  10.191   9.209 -0.5128  0.6135  0.3271
   52MOL0     O 6767   3.593  10.130   9.325 -0.7768 -0.6089  0.3295
   52MOL0     C 6768   3.647  10.003   9.355  0.6797  0.6278 -0.2536
   52MOL0     C 6769   3.540   9.889   9.332 -0.0678  0.3813  0.3053
   52MOL0     C 6770   3.420   9.901   9.430  0.2324 -0.2138 -0.3622
   52MOL0     C 6771   3.322   9.783   9.409 -0.3508  0.1086  0.0392
   52MOL0     C 6772   3.376   9.636   9.404  1.0075  0.7610  0.9863
   52MOL0     C 6773   3.426   9.593   9.263 -0.7887  0.1017  0.4315
   52MOL0     C 6774   3.426   9.441   9.253  0.0941 -0.4039  0.3203
   52MOL0     C 6775   3.479   9.385   9.116 -0.4265 -0.3990 -1.2412
   52MOL0    Cl 6776   3.432   9.473   8.967 -0.3867  0.6727 -0.1567
   52MOL0     C 6777   3.674  10.324   9.228 -0.6247  0.6881  0.9133
   52MOL0     C 6778   3.698  10.406   9.112  0.1681 -0.1261 -0.5757
   52MOL0     O 6779   3.948  10.470   8.895 -0.0737 -0.0595  0.3096
   52MOL0     C 6780   3.750  10.452   8.593  0.3758 -0.8496 -0.4244
   52MOL0     C 6781   3.750  10.457   8.453  0.1932  0.1211 -0.1242
   52MOL0     N 6782   3.898  10.281   7.616 -0.0706 -0.0977  0.0702
   52MOL0     N 6783   3.830  10.327   7.515  0.1944 -0.3989 -0.9963
   52MOL0     C 6784   4.107  10.879   7.750 -0.4223  0.2257 -0.0191
   52MOL0     C 6785   4.011  10.844   7.844  0.3219 -0.0714  0.2654
   52MOL0     C 6786   3.606  10.745   8.012 -0.8397  0.3337  1.0522
   52MOL0     C 6787   3.538  10.615   8.000  0.6680  0.0519 -0.0219
   52MOL0     C 6788   3.462  10.569   8.113  1.2195  0.3360  0.2550
   52MOL0     C 6789   3.459  10.649   8.233  1.0169 -0.3124  0.4047
   52MOL0     O 6790   3.392  10.581   8.337  0.2001 -0.3559 -0.4520
   52MOL0     C 6791   3.384  10.635   8.475 -0.0594  1.4749 -0.0293
   52MOL0     C 6792   3.249  10.686   8.509 -0.4923  0.9381 -0.6271
   52MOL0     C 6793   3.224  10.824   8.461  0.1945 -1.0808 -0.2073
   52MOL0     C 6794   3.102  10.899   8.518 -0.1687  0.9420  0.8865
   52MOL0     C 6795   2.984  10.817   8.514  0.4463 -0.4782 -0.3597
   52MOL0     C 6796   2.877  10.766   8.502 -0.8282  0.6227  0.3349
   52MOL0     C 6797   3.524  10.767   8.232 -0.0215  0.3137 -0.3916
   52MOL0     C 6798   3.594  10.821   8.128  0.3356  0.1342 -1.0815
   52MOL0     H 6799   3.765  11.071   7.787  1.2811  1.7692  1.0202
   52MOL0     H 6800   3.929  11.114   7.586  0.1743  0.9234  0.9086
   52MOL0     H 6801   4.308  10.887   7.549 -0.0771  1.0525  2.1037
   52MOL0     H 6802   4.331  11.055   7.598  0.7931  0.0907 -0.3483
   52MOL0     H 6803   4.426  10.992   7.374 -0.2134 -2.1891  2.5526
   52MOL0     H 6804   4.298  11.117   7.359  1.0326 -0.3777  2.3834
   52MOL0     H 6805   4.328  10.917   7.188  1.5244  0.6224  1.4734
   52MOL0     H 6806   4.168  10.972   7.231  1.2550  3.0417  2.0186
   52MOL0     H 6807   4.213  10.724   7.227 -3.3956  2.8302 -1.6910
   52MOL0     H 6808   4.298  10.743   7.383 -0.0928 -2.4118 -0.3465
   52MOL0     H 6809   4.050  10.878   7.376  4.4680  1.9462  2.3267
   52MOL0     H 6810   4.106  10.778   7.510 -1.3789  2.0049  1.4505
   52MOL0     H 6811   4.029  10.578   7.408 -0.5843 -1.8564 -1.2376
   52MOL0     H 6812   3.980  10.687   7.267 -4.0079  2.8851  1.2851
   52MOL0     H 6813   3.862  10.719   7.541 -1.2732 -3.1506  2.2775
   52MOL0     H 6814   3.802  10.763   7.367  1.3745 -1.9422 -2.2087
   52MOL0     H 6815   3.758  10.522   7.337 -2.3448  1.0993  0.4199
   52MOL0     H 6816   3.658  10.592   7.459  0.1197  0.1804 -0.1511
   52MOL0     H 6817   3.847  10.587   7.712 -2.0879 -2.3031  3.3982
   52MOL0     H 6818   4.097  10.385   7.821  0.6253 -0.9640  0.2962
   52MOL0     H 6819   3.996  10.251   7.868  1.9372 -1.5237 -2.6205
   52MOL0     H 6820   3.965  10.552   7.945 -1.4816  0.5355 -0.3105
   52MOL0     H 6821   4.033  10.431   8.047  0.1667 -0.8748  0.1696
   52MOL0     H 6822   3.743  10.417   7.961  1.2048 -0.0505 -0.9791
   52MOL0     H 6823   3.834  10.285   8.037  3.8819 -0.0928  0.5273
   52MOL0     H 6824   3.696  10.447   8.211  0.6968  0.8495  1.9258
   52MOL0     H 6825   3.796  10.575   8.157  0.4792 -0.0928  0.2544
   52MOL0     H 6826   4.089  10.487   8.430  0.6894 -1.8250  1.3517
   52MOL0     H 6827   4.065  10.479   8.682 -0.3616 -5.4234  2.0423
   52MOL0     H 6828   3.669  10.149   8.875 -0.8482 -1.0237  0.8336
   52MOL0     H 6829   3.602  10.030   9.070  1.6651 -0.7786 -0.0906
   52MOL0     H 6830   3.672  10.001   9.461 -0.2751  0.5483 -0.0236
   52MOL0     H 6831   3.736   9.982   9.295 -1.5903 -0.6328 -3.5388
   52MOL0     H 6832   3.596   9.795   9.345  1.2626  0.8312 -1.7202
   52MOL0     H 6833   3.504   9.901   9.230 -3.4987 -1.0249  1.2143
   52MOL0     H 6834   3.361   9.992   9.417  1.6280  0.8459  0.3847
   52MOL0     H 6835   3.455   9.882   9.532  0.5934 -1.3999 -0.6821
   52MOL0     H 6836   3.246   9.791   9.487  2.8010 -0.0307  3.3929
   52MOL0     H 6837   3.253   9.790   9.324 -2.9916 -0.3731  1.9976
   52MOL0     H 6838   3.295   9.570   9.438  0.7651  1.6148  2.1053
   52MOL0     H 6839   3.451   9.627   9.483  1.1524 -0.6623  0.7299
   52MOL0     H 6840   3.528   9.620   9.234 -0.1910 -2.3667 -0.0082
   52MOL0     H 6841   3.367   9.633   9.180  1.1327  0.4251 -0.8356
   52MOL0     H 6842   3.471   9.394   9.341 -1.2806 -1.4524  0.4958
   52MOL0     H 6843   3.320   9.418   9.262 -0.5899  2.3163 -0.0277
   52MOL0     H 6844   3.463   9.277   9.105 -0.1261 -0.5495 -0.2815
   52MOL0     H 6845   3.588   9.378   9.127 -0.7256 -5.2144  1.9584
   52MOL0     H 6846   3.682  10.357   9.331 -0.3669 -3.9768  2.6103
   52MOL0     H 6847   3.727  10.511   9.112 -3.2590  0.9608 -0.2715
   52MOL0     H 6848   3.651  10.443   8.637 -0.5337  1.7018 -1.7689
   52MOL0     H 6849   3.654  10.433   8.411 -0.8897  2.3278  0.8968
   52MOL0     H 6850   4.208  10.840   7.757  0.0750  1.3630 -0.5267
   52MOL0     H 6851   4.028  10.772   7.924  0.8143 -0.1697  0.0779
   52MOL0     H 6852   3.548  10.559   7.908  2.7580  2.1329 -1.1966
   52MOL0     H 6853   3.417  10.470   8.111  1.2858  0.3057  0.2594
   52MOL0     H 6854   3.463  10.709   8.488  0.5150  0.5536  2.1108
   52MOL0     H 6855   3.401  10.564   8.556 -2.9795 -1.7284 -1.9788
   52MOL0     H 6856   3.172  10.621   8.468 -1.4069  2.3254 -1.1961
   52MOL0     H 6857   3.255  10.684   8.618  2.1255 -0.2099 -0.7246
   52MOL0     H 6858   3.218  10.829   8.352 -3.2593 -0.0351 -0.0862
   52MOL0     H 6859   3.304  10.892   8.491 -2.2263  0.2843  4.0426
   52MOL0     H 6860   3.126  10.931   8.620  2.3171  0.7456  0.4200
   52MOL0     H 6861   3.094  10.994   8.465 -2.1125 -1.6384 -4.1286
   52MOL0     H 6862   2.776  10.732   8.489  0.1850 -2.3647 -0.7423
   52MOL0     H 6863   3.515  10.835   8.317 -2.6054  1.7503 -1.6779
   52MOL0     H 6864   3.647  10.916   8.131 -0.6703  0.7450 -1.7137
   53MOL0     O 6865   8.120  10.108   7.766  0.8932  0.9982  0.1244
   53MOL0     C 6866   8.189  10.158   7.846 -0.0292 -0.6290 -0.1195
   53MOL0     O 6867   8.176  10.284   7.885  0.5292 -0.1151 -0.0953
   53MOL0     C 6868   8.068  10.359   7.843  0.5286  0.5024  0.8866
   53MOL0     C 6869   7.956  10.378   7.922 -0.5058 -0.9833 -0.5331
   53MOL0     C 6870   7.840  10.442   7.876 -0.1055  0.0001 -0.8870
   53MOL0     C 6871   7.835  10.500   7.746 -0.6692 -1.1277 -0.5454
   53MOL0     O 6872   7.713  10.543   7.707 -0.4331  0.2669  0.7653
   53MOL0     C 6873   7.718  10.652   7.612  0.1201  0.5079 -0.8805
   53MOL0     C 6874   7.573  10.699   7.624  0.2890  0.0809  0.8009
   53MOL0     C 6875   7.550  10.812   7.521  1.1678  0.1297 -0.0428
   53MOL0     C 6876   7.398  10.842   7.535 -0.0731 -0.6604 -0.4860
   53MOL0     C 6877   7.351  10.917   7.408 -0.4940  0.5801 -0.1449
   53MOL0     C 6878   7.218  10.981   7.444  0.2925  1.0349 -0.8590
   53MOL0     C 6879   7.161  11.054   7.329 -0.3025 -0.2261  0.6204
   53MOL0     C 6880   7.032  11.125   7.377  0.3091 -0.2774  0.1061
   53MOL0     N 6881   7.005  11.228   7.271 -0.1147  0.0664 -0.5502
   53MOL0     C 6882   6.920  11.198   7.161 -0.8903 -0.6439 -0.4402
   53MOL0     C 6883   6.900  11.312   7.098 -0.2891  0.3539 -0.7598
   53MOL0     C 6884   6.835  11.337   6.967 -0.2985 -0.2456  0.3906
   53MOL0     C 6885   6.688  11.365   6.966  0.4439  0.5741  0.1146
   53MOL0     C 6886   6.619  11.346   6.833  0.7008 -0.5570 -0.0766
   53MOL0     C 6887   6.474  11.377   6.841  0.0101  1.1774  0.9404
   53MOL0     O 6888   6.399  11.255   6.875  0.5191  0.1197  0.4888
   53MOL0     C 6889   6.264  11.254   6.868 -0.7345  0.0333  0.4800
   53MOL0     C 6890   6.205  11.141   6.916  0.3146 -0.0653  0.3047
   53MOL0     C 6891   6.071  11.125   6.930 -0.5491 -0.4666 -0.6169
   53MOL0     C 6892   5.982  11.228   6.891 -0.2738 -0.5806  0.4611
   53MOL0     C 6893   5.837  11.226   6.923  0.3070 -0.6238 -0.4515
   53MOL0     O 6894   5.773  11.349   6.911 -0.2047 -0.7959 -0.8324
   53MOL0     C 6895   5.636  11.338   6.939 -0.0522 -0.7451  0.4609
   53MOL0     C 6896   5.592  11.405   7.052 -0.1212  0.1906  0.2587
   53MOL0     C 6897   5.450  11.396   7.083  0.4731 -0.1299  0.1622
   53MOL0     C 6898   5.362  11.324   7.007  0.5118 -0.6578  0.6500
   53MOL0     O 6899   5.225  11.321   7.024  1.0029  0.7439  0.0114
   53MOL0     C 6900   5.165  11.442   7.085 -0.5156 -0.7914  0.2908
   53MOL0     C 6901   5.018  11.417   7.074 -0.4837  0.1686  0.7823
   53MOL0     C 6902   4.931  11.532   7.101 -0.1105  1.2599 -0.1576
   53MOL0     C 6903   4.809  11.488   7.190 -0.7747 -0.4648  0.2094
   53MOL0     C 6904   4.682  11.536   7.127  0.1752  0.4155 -0.6549
   53MOL0     C 6905   4.569  11.521   7.226  0.0576 -0.1313  0.2327
   53MOL0     C 6906   4.432  11.556   7.175  0.3581  0.3583  0.2869
   53MOL0     C 6907   4.372  11.453   7.089 -0.1083 -0.2164  0.6631
   53MOL0    Cl 6908   4.196  11.505   7.069 -0.2058 -0.3334 -0.1190
   53MOL0     C 6909   5.413  11.250   6.909  1.2937 -0.2905 -0.3448
   53MOL0     C 6910   5.546  11.258   6.873  0.2166 -0.8694 -0.2727
   53MOL0     O 6911   5.792  11.117   6.947 -0.4887 -0.0623 -0.7476
   53MOL0     C 6912   6.049  11.348   6.837 -0.7807 -0.7550 -0.1178
   53MOL0     C 6913   6.189  11.362   6.820 -1.2345  0.5368  0.2602
   53MOL0     N 6914   6.959  11.407   7.174  0.3608 -0.2288  0.5865
   53MOL0     N 6915   7.013  11.361   7.278 -0.4105  0.2943 -0.3815
   53MOL0     C 6916   7.955  10.503   7.671 -0.3001  1.0518 -0.9667
   53MOL0     C 6917   8.067  10.432   7.720 -0.7356  0.3350  0.5358
   53MOL0     C 6918   8.290  10.074   7.917  0.5854  0.3755  0.1618
   53MOL0     C 6919   8.317   9.939   7.885 -0.6581 -0.8585  0.5318
   53MOL0     C 6920   8.424   9.871   7.946  0.1103 -0.8321  0.6012
   53MOL0     C 6921   8.511   9.927   8.044 -0.2181 -0.4186  0.0614
   53MOL0     O 6922   8.617   9.863   8.116 -0.2924  0.0563  0.3759
   53MOL0     C 6923   8.685   9.921   8.229 -0.2662 -0.8168  0.4997
   53MOL0     C 6924   8.769   9.836   8.325  0.4559 -0.0490  0.0543
   53MOL0     C 6925   8.910   9.798   8.256  0.3317 -0.2734 -0.6877
   53MOL0     C 6926   9.019   9.759   8.352  1.0899  0.0571  0.4016
   53MOL0     C 6927   8.980   9.626   8.409  0.4856 -0.6627 -0.7660
   53MOL0     C 6928   8.951   9.516   8.452  0.1733  0.1581 -0.7183
   53MOL0     C 6929   8.482  10.067   8.074 -0.4710 -0.0065  0.1199
   53MOL0     C 6930   8.372  10.137   8.016  0.8884  0.3219  0.6764
   53MOL0     H 6931   7.960  10.335   8.022  1.4221  0.3395  0.0199
   53MOL0     H 6932   7.745  10.434   7.929  0.4782 -0.0988  0.1668
   53MOL0     H 6933   7.739  10.635   7.506 -2.6313  1.3395 -1.6558
   53MOL0     H 6934   7.781  10.734   7.646  2.3501 -1.3970 -0.1513
   53MOL0     H 6935   7.542  10.719   7.726  2.6619  1.7782  1.2907
   53MOL0     H 6936   7.515  10.614   7.587 -1.9040  0.9739  1.9840
   53MOL0     H 6937   7.581  10.779   7.422 -0.7474  2.3693 -1.4764
   53MOL0     H 6938   7.602  10.903   7.551  1.2967  0.1800 -0.4233
   53MOL0     H 6939   7.334  10.755   7.556  1.1034 -1.7495 -1.2817
   53MOL0     H 6940   7.388  10.909   7.621 -2.6818 -0.1226 -1.0987
   53MOL0     H 6941   7.331  10.838   7.336 -0.8172 -0.0630  0.6295
   53MOL0     H 6942   7.422  10.996   7.382 -0.1976  0.9881  1.7106
   53MOL0     H 6943   7.243  11.059   7.516  0.3476  0.4645 -0.2397
   53MOL0     H 6944   7.144  10.904   7.470  2.2545 -1.3231 -1.7839
   53MOL0     H 6945   7.227  11.126   7.281  0.8658 -0.9076  1.1596
   53MOL0     H 6946   7.122  10.977   7.261 -2.9481  0.0344  1.7011
   53MOL0     H 6947   7.054  11.169   7.475  0.3034 -2.8101  1.3122
   53MOL0     H 6948   6.955  11.050   7.391 -0.7330  0.3591 -1.8357
   53MOL0     H 6949   6.878  11.100   7.143  1.4989 -1.7332 -0.5126
   53MOL0     H 6950   6.864  11.263   6.892  1.3432  1.4563 -0.7288
   53MOL0     H 6951   6.869  11.433   6.927 -1.8330  1.5255  3.0743
   53MOL0     H 6952   6.669  11.464   7.008 -2.4600 -0.1474  0.6845
   53MOL0     H 6953   6.650  11.297   7.042  0.8878  3.1843  2.8868
   53MOL0     H 6954   6.659  11.410   6.754 -1.2384  0.2132 -0.5002
   53MOL0     H 6955   6.619  11.242   6.799  0.3522 -1.1098  1.5093
   53MOL0     H 6956   6.459  11.423   6.743  1.0244 -0.0815  0.1627
   53MOL0     H 6957   6.463  11.454   6.918 -2.5399  0.9935  0.8726
   53MOL0     H 6958   6.278  11.062   6.935  0.3262 -0.5573 -1.5879
   53MOL0     H 6959   6.033  11.038   6.983 -1.1582  0.9363  1.3516
   53MOL0     H 6960   5.662  11.451   7.120 -0.6673  0.2124  0.8213
   53MOL0     H 6961   5.413  11.442   7.174 -1.5764 -1.2761 -0.0445
   53MOL0     H 6962   5.209  11.530   7.037 -0.3102 -1.9160 -1.7239
   53MOL0     H 6963   5.182  11.455   7.192 -0.6801 -1.0227  0.3475
   53MOL0     H 6964   4.991  11.325   7.127 -1.2016 -1.5638 -2.3134
   53MOL0     H 6965   5.014  11.389   6.968 -3.5651  0.7427  0.6572
   53MOL0     H 6966   4.892  11.583   7.012 -0.1568  1.6360  0.0764
   53MOL0     H 6967   4.990  11.610   7.151  1.2674  1.8933 -2.5898
   53MOL0     H 6968   4.794  11.380   7.192 -1.2331 -0.4179 -0.3877
   53MOL0     H 6969   4.824  11.537   7.287  2.5883 -0.2223 -0.3173
   53MOL0     H 6970   4.661  11.486   7.033 -0.2133  0.2857 -0.5013
   53MOL0     H 6971   4.688  11.645   7.120  3.3320  0.4196  0.6950
   53MOL0     H 6972   4.592  11.583   7.313 -1.8385  1.2419 -0.1782
   53MOL0     H 6973   4.563  11.418   7.261 -1.7001 -0.3952 -0.7369
   53MOL0     H 6974   4.365  11.585   7.257  1.0318  2.2363  0.2318
   53MOL0     H 6975   4.436  11.648   7.115 -1.2917  2.6750  3.4233
   53MOL0     H 6976   4.374  11.352   7.131  1.5830 -1.6303 -2.4713
   53MOL0     H 6977   4.430  11.457   6.996  0.9380  4.7311  1.2391
   53MOL0     H 6978   5.347  11.178   6.861 -2.6904  0.7891  2.8853
   53MOL0     H 6979   5.562  11.202   6.782 -2.9882  0.1545 -1.6195
   53MOL0     H 6980   5.985  11.433   6.815 -0.3140 -0.2853  0.3251
   53MOL0     H 6981   6.238  11.447   6.774  1.1360 -1.1347 -0.4970
   53MOL0     H 6982   7.945  10.534   7.567 -2.8315 -0.5827 -1.2891
   53MOL0     H 6983   8.148  10.412   7.651 -2.3509 -2.1278 -0.8032
   53MOL0     H 6984   8.261   9.899   7.800 -3.8148  0.6013  1.7596
   53MOL0     H 6985   8.446   9.768   7.918 -1.9937 -2.0770  3.1374
   53MOL0     H 6986   8.611   9.965   8.298  1.4810 -1.2440  2.7720
   53MOL0     H 6987   8.761   9.994   8.201  0.5198 -1.3664  1.1375
   53MOL0     H 6988   8.776   9.884   8.423 -1.8558  1.1035 -0.2638
   53MOL0     H 6989   8.710   9.746   8.343 -2.2365  2.0315  2.7415
   53MOL0     H 6990   8.947   9.887   8.205 -0.8113  1.1217  0.8388
   53MOL0     H 6991   8.903   9.722   8.178 -0.0310 -1.1415  0.1596
   53MOL0     H 6992   9.113   9.741   8.298  0.5614  2.2967 -1.4160
   53MOL0     H 6993   9.021   9.838   8.428 -4.4484 -1.8578  3.0945
   53MOL0     H 6994   8.932   9.418   8.493  3.3461 -2.0074 -3.8243
   53MOL0     H 6995   8.535  10.117   8.154  3.4436 -1.9962 -0.9395
   53MOL0     H 6996   8.350  10.238   8.048 -3.3090 -0.2620  0.1993
   54MOL0     O 6997   5.851   3.545   8.144 -0.1809 -0.3646 -0.2727
   54MOL0     C 6998   5.861   3.592   8.029  0.5407  0.2833 -0.3542
   54MOL0     O 6999   5.765   3.680   7.973  0.4877  0.9198 -0.6551
   54MOL0     C 7000   5.640   3.691   8.028  0.1879  1.2740 -0.4517
   54MOL0     C 7001   5.566   3.582   8.086  0.0801  0.3372 -0.5428
   54MOL0     C 7002   5.449   3.601   8.169 -0.1248 -0.1315 -0.0506
   54MOL0     C 7003   5.404   3.730   8.183 -0.6196 -0.6806  0.1265
   54MOL0     O 7004   5.287   3.766   8.242  0.0783  0.1636  0.0025
   54MOL0     C 7005   5.263   3.721   8.381  0.2983  0.2752  0.2259
   54MOL0     C 7006   5.138   3.629   8.383 -1.0453 -0.6313  0.4427
   54MOL0     C 7007   5.042   3.634   8.504  0.2887 -0.7590  0.3060
   54MOL0     C 7008   5.056   3.514   8.588  0.0262 -0.3798 -0.2792
   54MOL0     C 7009   4.951   3.510   8.702 -0.1102  0.2854 -0.6819
   54MOL0     C 7010   4.933   3.361   8.758  0.1544  0.3154  0.3504
   54MOL0     C 7011   4.874   3.360   8.896 -0.2442 -0.2357  0.5820
   54MOL0     C 7012   4.856   3.223   8.950 -0.6857  0.3955  1.0718
   54MOL0     N 7013   4.816   3.224   9.087 -0.1932  0.1880 -0.1893
   54MOL0     C 7014   4.904   3.192   9.195 -0.6475 -0.0996  0.4507
   54MOL0     C 7015   4.823   3.196   9.305  0.8858 -0.8287  0.6185
   54MOL0     C 7016   4.858   3.149   9.450 -0.6131  0.0329  0.8484
   54MOL0     C 7017   4.737   3.141   9.548  0.6887  0.1492 -0.5122
   54MOL0     C 7018   4.698   3.268   9.618  0.1687 -0.7089  0.8367
   54MOL0     C 7019   4.563   3.262   9.713 -0.1418  0.5216  0.4639
   54MOL0     O 7020   4.559   3.150   9.803  0.1607 -1.0200 -0.2011
   54MOL0     C 7021   4.554   3.187   9.940 -0.5027 -0.2072 -0.6519
   54MOL0     C 7022   4.643   3.140  10.038  0.9187 -0.5781 -1.1218
   54MOL0     C 7023   4.635   3.192  10.169 -0.1233 -0.3957 -0.2124
   54MOL0     C 7024   4.528   3.268  10.216 -0.3224  0.4002 -0.3593
   54MOL0     C 7025   4.492   3.273  10.355 -0.3438  0.7887 -0.0544
   54MOL0     O 7026   4.369   3.316  10.385 -0.2653 -0.0869 -0.5866
   54MOL0     C 7027   4.303   3.281  10.501 -0.3725  0.1246  0.2310
   54MOL0     C 7028   4.358   3.213  10.609 -0.4533  0.4621  0.2975
   54MOL0     C 7029   4.283   3.175  10.718 -0.2206  0.2802 -0.0286
   54MOL0     C 7030   4.149   3.227  10.721  0.4717 -0.0017 -0.0867
   54MOL0     O 7031   4.061   3.227  10.830 -0.1407 -0.2856 -0.0740
   54MOL0     C 7032   4.117   3.192  10.954 -0.6359  0.2379 -0.3683
   54MOL0     C 7033   4.008   3.218  11.052 -0.6800  0.1367 -0.0814
   54MOL0     C 7034   4.055   3.181  11.191 -0.5638  0.5479  0.2418
   54MOL0     C 7035   4.046   3.032  11.206  0.4908 -0.0191  0.4371
   54MOL0     C 7036   4.027   3.003  11.360  0.0822 -0.2600 -0.2658
   54MOL0     C 7037   4.127   3.074  11.460  0.4788 -0.6529  0.0970
   54MOL0     C 7038   4.275   3.025  11.444  1.0373 -0.5590 -0.2282
   54MOL0     C 7039   4.294   2.876  11.464  0.2749 -0.1105 -0.3711
   54MOL0    Cl 7040   4.469   2.849  11.487  0.1520 -0.2149 -0.0568
   54MOL0     C 7041   4.098   3.308  10.620  0.1987  0.5453 -0.0840
   54MOL0     C 7042   4.178   3.334  10.501  0.5713 -0.4170  0.3205
   54MOL0     O 7043   4.585   3.241  10.431  0.7920  0.1672 -0.3013
   54MOL0     C 7044   4.437   3.318  10.117 -0.3160  0.0727  0.2599
   54MOL0     C 7045   4.452   3.268   9.985  0.0299 -1.1398 -0.3509
   54MOL0     N 7046   4.700   3.248   9.256  0.3367 -0.1703 -0.6120
   54MOL0     N 7047   4.704   3.267   9.136  0.3890 -0.4774  0.3675
   54MOL0     C 7048   5.471   3.834   8.123 -0.5867  0.3106 -0.5568
   54MOL0     C 7049   5.583   3.815   8.055  0.5633 -0.2512  0.0978
   54MOL0     C 7050   5.995   3.588   7.963  0.2658  0.2078  0.3784
   54MOL0     C 7051   6.097   3.510   8.021  0.0095 -0.3972 -0.4717
   54MOL0     C 7052   6.210   3.492   7.949 -0.6031 -0.6005  0.4029
   54MOL0     C 7053   6.244   3.563   7.831  0.4768  0.1251  0.3427
   54MOL0     O 7054   6.360   3.544   7.763  0.7235 -1.3363 -0.6115
   54MOL0     C 7055   6.345   3.483   7.635 -0.0713 -0.4531  0.1622
   54MOL0     C 7056   6.385   3.564   7.518  0.2692  0.0448 -0.0707
   54MOL0     C 7057   6.516   3.650   7.517  0.4533 -0.8966 -0.9710
   54MOL0     C 7058   6.623   3.596   7.421 -0.1953 -0.4927  0.1018
   54MOL0     C 7059   6.648   3.461   7.459  0.8747  0.4320  0.6084
   54MOL0     C 7060   6.663   3.343   7.474  0.0531 -0.3750  0.2548
   54MOL0     C 7061   6.141   3.654   7.787 -0.9558  0.0096 -0.5248
   54MOL0     C 7062   6.022   3.663   7.850  0.6266  0.4467  0.4935
   54MOL0     H 7063   5.580   3.476   8.064 -1.3902  0.6165 -3.1379
   54MOL0     H 7064   5.390   3.518   8.205  2.9423 -2.0549  0.9291
   54MOL0     H 7065   5.242   3.812   8.438  2.9203 -0.0999  1.9402
   54MOL0     H 7066   5.350   3.670   8.423  0.8961 -0.1378 -1.4264
   54MOL0     H 7067   5.178   3.527   8.377  1.2576  0.2896 -1.0118
   54MOL0     H 7068   5.080   3.637   8.291  0.9963 -1.5372 -0.9925
   54MOL0     H 7069   4.940   3.645   8.466  1.0046  0.5993 -1.3617
   54MOL0     H 7070   5.075   3.712   8.574 -0.9116 -1.4106  1.6288
   54MOL0     H 7071   5.057   3.417   8.538 -0.8663 -1.4249  1.6393
   54MOL0     H 7072   5.147   3.509   8.649  0.0369 -3.6869 -0.3779
   54MOL0     H 7073   4.860   3.566   8.680 -0.0104  0.7948  0.1523
   54MOL0     H 7074   4.997   3.570   8.782  4.2591 -0.0068 -2.6612
   54MOL0     H 7075   5.029   3.310   8.746  0.1891  0.4926 -0.2070
   54MOL0     H 7076   4.856   3.314   8.696  1.9806 -0.9403 -1.1124
   54MOL0     H 7077   4.928   3.421   8.970  0.7202  1.1504 -1.1953
   54MOL0     H 7078   4.774   3.401   8.881 -0.2120 -0.9323 -1.8475
   54MOL0     H 7079   4.950   3.167   8.955 -1.2691 -0.5062  2.7726
   54MOL0     H 7080   4.792   3.156   8.892  0.4479  2.9603 -3.6250
   54MOL0     H 7081   5.011   3.171   9.193 -0.6183  0.0762 -0.7982
   54MOL0     H 7082   4.925   3.224   9.491  0.5445 -0.2733 -0.4160
   54MOL0     H 7083   4.902   3.049   9.436  0.7822  0.5839  1.1737
   54MOL0     H 7084   4.757   3.080   9.637 -0.8768  4.2336  3.0230
   54MOL0     H 7085   4.655   3.092   9.495  1.5762 -2.2700  0.2089
   54MOL0     H 7086   4.780   3.298   9.685 -0.1280  5.5749 -0.9282
   54MOL0     H 7087   4.677   3.339   9.537  2.1776 -0.0997  0.7861
   54MOL0     H 7088   4.479   3.240   9.646  0.1167 -0.9162  0.5789
   54MOL0     H 7089   4.569   3.361   9.757  0.5541  0.5498  0.3200
   54MOL0     H 7090   4.723   3.070  10.016  4.3541  2.5360  0.3865
   54MOL0     H 7091   4.717   3.167  10.236  0.4616  0.0583 -0.7404
   54MOL0     H 7092   4.464   3.191  10.622 -0.6988  0.2072  2.1215
   54MOL0     H 7093   4.307   3.118  10.806  0.2176  1.2236  0.4818
   54MOL0     H 7094   4.202   3.259  10.970 -1.7026  1.3940  0.7450
   54MOL0     H 7095   4.144   3.086  10.950 -0.5492  0.2126  0.6594
   54MOL0     H 7096   3.914   3.166  11.033  0.0653 -0.9079 -1.0004
   54MOL0     H 7097   3.982   3.324  11.048 -1.0610  0.0150 -1.2527
   54MOL0     H 7098   3.990   3.221  11.269  0.0233 -2.1798  2.2787
   54MOL0     H 7099   4.158   3.213  11.211 -0.3334 -1.1126  1.9612
   54MOL0     H 7100   3.958   2.985  11.161 -1.0839  2.1925  1.0371
   54MOL0     H 7101   4.136   2.985  11.166  1.3639  3.0722 -1.5134
   54MOL0     H 7102   4.028   2.897  11.383 -1.8307 -0.2060  0.2490
   54MOL0     H 7103   3.927   3.021  11.400  1.6383 -0.2419  4.1216
   54MOL0     H 7104   4.117   3.055  11.567  0.4193 -3.7638 -0.3658
   54MOL0     H 7105   4.121   3.183  11.452  2.9820 -0.1561  3.2733
   54MOL0     H 7106   4.304   3.064  11.346 -2.3506 -0.6463 -1.3964
   54MOL0     H 7107   4.342   3.068  11.519  1.6118 -1.0193 -0.4708
   54MOL0     H 7108   4.261   2.810  11.383  3.0235 -1.9058 -0.1428
   54MOL0     H 7109   4.243   2.845  11.555  4.2434 -0.1785  2.0556
   54MOL0     H 7110   4.002   3.359  10.625 -0.0467  0.1360 -0.5387
   54MOL0     H 7111   4.144   3.411  10.432  1.8644  0.5900  0.7565
   54MOL0     H 7112   4.358   3.387  10.144  0.4126  0.7411  0.7540
   54MOL0     H 7113   4.372   3.296   9.918  1.1852  2.7728 -0.3546
   54MOL0     H 7114   5.418   3.926   8.143 -0.8834 -0.1118  0.7179
   54MOL0     H 7115   5.630   3.907   8.023  3.5348 -1.5736  0.2753
   54MOL0     H 7116   6.077   3.446   8.107 -0.0943 -0.4316 -0.5208
   54MOL0     H 7117   6.283   3.418   7.981 -0.5512 -0.2506  1.1322
   54MOL0     H 7118   6.240   3.453   7.630 -0.6316  1.4224  0.0219
   54MOL0     H 7119   6.402   3.390   7.647 -1.1493 -0.9961  1.3164
   54MOL0     H 7120   6.380   3.501   7.428 -2.0973  2.4941 -1.8525
   54MOL0     H 7121   6.301   3.632   7.501  0.3558  0.0488 -0.5159
   54MOL0     H 7122   6.558   3.644   7.617  0.3433 -1.1328 -0.9390
   54MOL0     H 7123   6.499   3.756   7.494  0.1776 -0.3857  1.3652
   54MOL0     H 7124   6.589   3.594   7.317 -0.2961  2.4884  0.0041
   54MOL0     H 7125   6.718   3.650   7.413 -0.5543 -0.1121 -2.7941
   54MOL0     H 7126   6.679   3.237   7.475 -2.4330 -1.0014 -3.8303
   54MOL0     H 7127   6.147   3.723   7.703 -1.6605 -1.8483 -2.2042
   54MOL0     H 7128   5.943   3.715   7.797  2.2364  1.5593 -0.9458
   55MOL0     O 7129   5.213   2.386  10.969 -0.5753 -0.2401 -0.3477
   55MOL0     C 7130   5.331   2.339  10.991  0.1991 -0.1567 -0.0183
   55MOL0     O 7131   5.362   2.209  10.975  0.8667  0.0211 -0.7697
   55MOL0     C 7132   5.277   2.109  11.017 -0.2382 -0.0896  0.5193
   55MOL0     C 7133   5.292   1.978  10.955 -0.0391  0.4467 -0.1595
   55MOL0     C 7134   5.210   1.870  10.993  0.7097  0.9908 -0.6489
   55MOL0     C 7135   5.114   1.889  11.088  0.3890  0.0134 -0.3517
   55MOL0     O 7136   5.016   1.802  11.134 -0.0387  0.7059 -0.1924
   55MOL0     C 7137   4.954   1.733  11.030  0.5749 -0.5374  0.5950
   55MOL0     C 7138   4.821   1.667  11.085 -0.0929 -0.5390 -0.4555
   55MOL0     C 7139   4.833   1.518  11.070 -0.0764 -0.1681 -0.1711
   55MOL0     C 7140   4.724   1.457  11.156  0.6147 -0.2739 -0.0387
   55MOL0     C 7141   4.725   1.304  11.137 -1.2098  0.3900  0.6633
   55MOL0     C 7142   4.676   1.245  11.000 -0.2642  0.4362  0.3983
   55MOL0     C 7143   4.691   1.092  11.000  0.3169 -0.1696  0.1000
   55MOL0     C 7144   4.642   1.036  10.869 -0.5246 -0.5759 -0.4965
   55MOL0     N 7145   4.495   1.028  10.870  0.0404 -0.5703 -0.2629
   55MOL0     C 7146   4.435   0.910  10.903 -0.2071  0.2347  0.1856
   55MOL0     C 7147   4.315   0.929  10.863  0.9404  0.1531 -0.4617
   55MOL0     C 7148   4.217   0.818  10.858  0.6673  0.1315 -0.5637
   55MOL0     C 7149   4.144   0.814  10.987  0.2941 -0.1738  0.4906
   55MOL0     C 7150   4.057   0.941  11.014  0.5989 -0.5630  0.0699
   55MOL0     C 7151   3.947   0.901  11.111 -0.6796 -0.4291  0.3267
   55MOL0     O 7152   3.859   1.009  11.134  0.1036 -0.0146 -0.1950
   55MOL0     C 7153   3.741   0.974  11.190  0.2677  0.5831 -0.5895
   55MOL0     C 7154   3.726   0.863  11.277  0.2651 -0.7532  1.0584
   55MOL0     C 7155   3.605   0.848  11.344  0.2212 -0.2664  0.0804
   55MOL0     C 7156   3.507   0.951  11.344 -0.8726 -0.9915  0.0648
   55MOL0     C 7157   3.383   0.936  11.430  0.0508 -0.2572  0.0801
   55MOL0     O 7158   3.288   1.045  11.415 -0.7454  0.3957 -0.1186
   55MOL0     C 7159   3.185   1.046  11.502 -0.3164  0.2127 -0.2111
   55MOL0     C 7160   3.075   0.962  11.474  0.1792  0.2342  0.3517
   55MOL0     C 7161   2.969   0.957  11.565  0.1541 -0.1090  0.4351
   55MOL0     C 7162   2.956   1.038  11.678  0.2675 -0.2996 -0.1542
   55MOL0     O 7163   2.849   1.036  11.760 -0.2886 -0.0123 -0.0090
   55MOL0     C 7164   2.757   0.923  11.758  0.8213  0.3753  0.3517
   55MOL0     C 7165   2.634   0.936  11.666 -0.0184  0.1818 -0.9791
   55MOL0     C 7166   2.538   0.819  11.691  0.1525  0.0195  0.1041
   55MOL0     C 7167   2.439   0.810  11.579 -0.9500  1.0386  1.2100
   55MOL0     C 7168   2.342   0.688  11.579 -0.6973 -0.5054  0.4178
   55MOL0     C 7169   2.399   0.541  11.605 -0.0906  0.4767  0.6251
   55MOL0     C 7170   2.292   0.431  11.565 -0.7379 -0.1499 -0.6661
   55MOL0     C 7171   2.365   0.281  11.542 -0.4254  0.0970  0.5231
   55MOL0    Cl 7172   2.475   0.251  11.682  0.1329  0.1471 -0.3103
   55MOL0     C 7173   3.068   1.115  11.704  0.7868  0.9756  0.1604
   55MOL0     C 7174   3.181   1.127  11.619  0.0337  0.8376 -0.6740
   55MOL0     O 7175   3.365   0.833  11.485 -0.4576 -0.4499 -0.1359
   55MOL0     C 7176   3.521   1.056  11.254  0.3841  0.0043 -0.1714
   55MOL0     C 7177   3.636   1.064  11.176  1.1213 -0.8992  0.2086
   55MOL0     N 7178   4.303   1.039  10.795 -0.3287 -0.1587 -0.3050
   55MOL0     N 7179   4.410   1.101  10.792  0.0189  0.1614  0.6851
   55MOL0     C 7180   5.107   2.004  11.154 -0.8516  0.1339 -1.2604
   55MOL0     C 7181   5.184   2.117  11.118  0.5826 -0.0432  0.2601
   55MOL0     C 7182   5.446   2.433  11.024  0.1548 -0.2735 -0.0513
   55MOL0     C 7183   5.573   2.389  11.047 -0.1652  0.2737  0.1878
   55MOL0     C 7184   5.677   2.474  11.070  0.0768  0.4420 -0.5399
   55MOL0     C 7185   5.647   2.611  11.090 -1.0645  0.5386 -0.7852
   55MOL0     O 7186   5.748   2.707  11.120 -0.3429 -0.4406  0.2385
   55MOL0     C 7187   5.756   2.816  11.025 -0.3967 -0.4929 -0.6587
   55MOL0     C 7188   5.895   2.833  10.964  0.5817  0.1616  0.8732
   55MOL0     C 7189   5.914   2.713  10.867  0.4944  0.1091 -0.6593
   55MOL0     C 7190   6.021   2.740  10.759 -0.0519  0.0371 -0.4909
   55MOL0     C 7191   6.036   2.630  10.668  1.1941  0.7046  0.6520
   55MOL0     C 7192   6.057   2.535  10.596  0.3488 -0.2272 -0.7304
   55MOL0     C 7193   5.516   2.656  11.076  1.1964  0.9648 -0.2200
   55MOL0     C 7194   5.415   2.571  11.040 -0.7016 -0.5524  0.0581
   55MOL0     H 7195   5.372   1.972  10.882  0.9436 -2.2461  1.0115
   55MOL0     H 7196   5.218   1.775  10.941  1.9514  0.1860  0.9199
   55MOL0     H 7197   5.016   1.652  10.989  0.4214 -1.9105  2.9377
   55MOL0     H 7198   4.938   1.805  10.948 -0.1168  2.2794  3.0292
   55MOL0     H 7199   4.736   1.703  11.026  0.0074  1.8567  0.7521
   55MOL0     H 7200   4.794   1.692  11.188 -2.5643  3.7746 -1.8979
   55MOL0     H 7201   4.928   1.483  11.111  2.8223  2.4945 -3.8397
   55MOL0     H 7202   4.822   1.477  10.969 -1.6127 -0.1905 -0.0261
   55MOL0     H 7203   4.736   1.469  11.264 -0.8061 -1.6576  0.3075
   55MOL0     H 7204   4.628   1.504  11.133  0.8323  0.6527  0.8527
   55MOL0     H 7205   4.661   1.249  11.207 -2.3296 -1.9664 -2.0093
   55MOL0     H 7206   4.826   1.267  11.160 -0.6976  2.9423  2.8938
   55MOL0     H 7207   4.707   1.296  10.908 -2.2602  0.0356 -0.5411
   55MOL0     H 7208   4.573   1.280  11.002 -0.2486  0.5064 -0.0113
   55MOL0     H 7209   4.792   1.064  11.031  0.8675 -0.2336 -1.6527
   55MOL0     H 7210   4.618   1.052  11.071  0.4013 -1.2165 -0.3882
   55MOL0     H 7211   4.690   0.940  10.846 -0.3590 -0.6807  0.2544
   55MOL0     H 7212   4.663   1.115  10.796 -2.1424  0.6256  0.2789
   55MOL0     H 7213   4.475   0.824  10.956  1.0331  1.5640  1.5301
   55MOL0     H 7214   4.275   0.727  10.839 -0.6915 -0.7816 -0.4540
   55MOL0     H 7215   4.144   0.836  10.779 -3.5297 -2.5900  2.3041
   55MOL0     H 7216   4.211   0.805  11.073  0.2789 -0.5906  0.4616
   55MOL0     H 7217   4.088   0.720  10.980  2.0181 -1.2567  0.7683
   55MOL0     H 7218   4.123   1.019  11.053  1.0479  0.6136 -2.7716
   55MOL0     H 7219   4.011   0.978  10.922  1.9232 -2.0016 -1.2378
   55MOL0     H 7220   3.982   0.889  11.214 -1.6042 -1.3699  0.5518
   55MOL0     H 7221   3.903   0.809  11.071 -2.6724  0.6383 -0.0311
   55MOL0     H 7222   3.806   0.791  11.293 -0.0540 -1.3798 -0.0468
   55MOL0     H 7223   3.603   0.762  11.410  3.7216  0.0570  0.7775
   55MOL0     H 7224   3.065   0.897  11.387 -1.5778  4.8260 -3.2988
   55MOL0     H 7225   2.895   0.880  11.543  1.0289 -0.9322  0.3253
   55MOL0     H 7226   2.726   0.908  11.862  0.3966 -2.5603 -0.0934
   55MOL0     H 7227   2.807   0.828  11.734 -1.9096 -0.8319 -1.0264
   55MOL0     H 7228   2.668   0.932  11.562 -0.5824 -0.2543 -1.1524
   55MOL0     H 7229   2.581   1.031  11.678 -2.1583 -1.2944  3.4778
   55MOL0     H 7230   2.493   0.819  11.791  2.6135  3.0282  1.3818
   55MOL0     H 7231   2.602   0.731  11.701 -0.1162 -0.1250  0.5933
   55MOL0     H 7232   2.376   0.899  11.583  0.8688  2.4812 -0.1722
   55MOL0     H 7233   2.495   0.811  11.485 -2.0247  1.0720  0.5577
   55MOL0     H 7234   2.279   0.690  11.490 -0.8178  1.0873  0.5111
   55MOL0     H 7235   2.279   0.700  11.668 -1.8077 -2.9520  0.0405
   55MOL0     H 7236   2.428   0.541  11.710 -1.3007  2.6086  1.0080
   55MOL0     H 7237   2.485   0.512  11.543 -0.6445  0.3422 -0.0962
   55MOL0     H 7238   2.223   0.420  11.649  1.4022 -0.5075  1.1775
   55MOL0     H 7239   2.242   0.471  11.477  0.4803  1.5440 -0.6360
   55MOL0     H 7240   2.434   0.275  11.458  2.4675 -1.2996  2.8055
   55MOL0     H 7241   2.279   0.214  11.528 -1.5646  1.9575 -2.1536
   55MOL0     H 7242   3.061   1.179  11.791 -1.5194  3.3946 -1.6469
   55MOL0     H 7243   3.266   1.193  11.638  0.4875  0.3452 -0.9452
   55MOL0     H 7244   3.455   1.136  11.224  2.2759  1.9228  0.5120
   55MOL0     H 7245   3.645   1.156  11.118 -2.4137  0.3944  1.4738
   55MOL0     H 7246   5.040   2.018  11.238  1.8713  0.7985  0.9431
   55MOL0     H 7247   5.178   2.215  11.164  0.7704  1.3556 -2.4563
   55MOL0     H 7248   5.609   2.286  11.049  3.4981  1.3980  0.7436
   55MOL0     H 7249   5.780   2.440  11.080 -0.4540 -2.9679 -4.3076
   55MOL0     H 7250   5.735   2.916  11.065  1.6651 -0.3721  0.2315
   55MOL0     H 7251   5.690   2.805  10.938  1.7231  0.2641 -2.4748
   55MOL0     H 7252   5.903   2.921  10.901  1.8942 -2.3464 -2.7689
   55MOL0     H 7253   5.980   2.840  11.033  1.9353 -0.5236 -0.6641
   55MOL0     H 7254   5.816   2.692  10.823 -0.6963  1.1039  1.3604
   55MOL0     H 7255   5.941   2.627  10.929 -1.3714  1.1712  1.8201
   55MOL0     H 7256   5.987   2.824  10.697  0.7608  0.3001 -0.5944
   55MOL0     H 7257   6.111   2.768  10.813 -2.4870  1.9974  2.9505
   55MOL0     H 7258   6.078   2.463  10.519  1.9465 -2.1573  1.3890
   55MOL0     H 7259   5.501   2.763  11.091 -2.8472  0.5241 -0.1792
   55MOL0     H 7260   5.318   2.615  11.016  0.9088  2.1099 -2.3246
   56MOL0     O 7261   7.093   3.586   0.034 -0.6718  0.5029  0.2908
   56MOL0     C 7262   7.162   3.524   0.122  0.1499 -0.2925  0.1182
   56MOL0     O 7263   7.270   3.566   0.193  0.1111  0.3134 -0.5163
   56MOL0     C 7264   7.343   3.680   0.170  0.3697  0.4223 -0.3948
   56MOL0     C 7265   7.282   3.796   0.104 -0.2716 -1.1703 -0.2166
   56MOL0     C 7266   7.353   3.911   0.073  0.1521  0.3107  1.0793
   56MOL0     C 7267   7.488   3.914   0.086  0.4074  0.2406 -1.1201
   56MOL0     O 7268   7.559   4.019   0.033  0.4911  0.6683 -0.3216
   56MOL0     C 7269   7.693   4.037   0.080  0.3929 -0.8531  0.3797
   56MOL0     C 7270   7.728   4.178   0.038 -0.1886  0.6762  0.3696
   56MOL0     C 7271   7.764   4.204  -0.111  0.0111  0.0754 -0.1552
   56MOL0     C 7272   7.769   4.358  -0.140 -0.0349  0.5167 -0.3159
   56MOL0     C 7273   7.635   4.422  -0.169  0.5257 -0.7738  0.3144
   56MOL0     C 7274   7.654   4.575  -0.165 -0.6810  0.0070  0.5142
   56MOL0     C 7275   7.530   4.657  -0.201  0.3500  0.0173  0.1676
   56MOL0     C 7276   7.497   4.653  -0.354 -0.8909  0.2752  0.6622
   56MOL0     N 7277   7.361   4.689  -0.374 -0.1622 -1.0632 -0.3116
   56MOL0     C 7278   7.261   4.626  -0.444 -0.3196  0.1794  0.2093
   56MOL0     C 7279   7.152   4.709  -0.431  0.0822  0.5644 -0.2348
   56MOL0     C 7280   7.006   4.689  -0.484 -0.4435  0.0767  0.3271
   56MOL0     C 7281   6.920   4.616  -0.384  0.2972 -0.7600  0.5106
   56MOL0     C 7282   6.792   4.576  -0.444  0.3090 -0.5905  0.3424
   56MOL0     C 7283   6.683   4.541  -0.346  0.3109 -0.5673  0.4627
   56MOL0     O 7284   6.562   4.495  -0.418 -0.2083 -0.1793  0.2471
   56MOL0     C 7285   6.518   4.362  -0.427  0.2403 -0.3084 -0.0973
   56MOL0     C 7286   6.538   4.267  -0.323  0.4938  1.1986 -0.9784
   56MOL0     C 7287   6.501   4.132  -0.338 -0.1186 -0.1559  0.0792
   56MOL0     C 7288   6.438   4.081  -0.454 -0.0807 -0.4632 -0.5280
   56MOL0     C 7289   6.391   3.939  -0.471 -0.3396  0.7858 -0.6363
   56MOL0     O 7290   6.460   3.855  -0.394  0.1449  0.3474 -0.1613
   56MOL0     C 7291   6.418   3.722  -0.390 -0.9049 -0.2455  0.5677
   56MOL0     C 7292   6.290   3.693  -0.358  0.0449  0.0926  0.0855
   56MOL0     C 7293   6.233   3.566  -0.353  0.3497 -0.3174 -0.4720
   56MOL0     C 7294   6.320   3.452  -0.393  0.1525 -0.1538  0.6572
   56MOL0     O 7295   6.256   3.329  -0.383 -0.5539  0.2941  0.5106
   56MOL0     C 7296   6.226   3.300  -0.246  0.3744 -0.0086  0.4605
   56MOL0     C 7297   6.204   3.148  -0.250 -0.4941 -0.5767 -0.8276
   56MOL0     C 7298   6.343   3.069  -0.287 -0.7920 -0.3847 -0.3613
   56MOL0     C 7299   6.318   2.936  -0.333 -0.8721  0.3849 -0.1424
   56MOL0     C 7300   6.271   2.841  -0.217 -0.4960 -0.1117 -0.1242
   56MOL0     C 7301   6.311   2.696  -0.255  1.1500 -0.0310  0.0590
   56MOL0     C 7302   6.252   2.597  -0.155  0.9706 -0.3304  0.9075
   56MOL0     C 7303   6.253   2.451  -0.215 -0.2837 -0.1299 -0.3109
   56MOL0    Cl 7304   6.199   2.318  -0.100 -0.4838  0.0872  0.5689
   56MOL0     C 7305   6.452   3.481  -0.411 -1.4206  0.0813 -0.2162
   56MOL0     C 7306   6.505   3.617  -0.418  0.3397  0.8696 -1.1908
   56MOL0     O 7307   6.302   3.916  -0.554  0.2112 -0.1374 -0.1203
   56MOL0     C 7308   6.411   4.175  -0.561 -0.4999  0.5998  0.9662
   56MOL0     C 7309   6.462   4.307  -0.546 -0.4392 -0.0330 -0.5314
   56MOL0     N 7310   7.194   4.816  -0.350  0.0886 -0.5205 -0.4160
   56MOL0     N 7311   7.314   4.799  -0.311  0.3773  0.7850 -0.5939
   56MOL0     C 7312   7.550   3.802   0.145 -0.0990  0.5515  0.8979
   56MOL0     C 7313   7.481   3.684   0.189  0.2557 -0.9289  0.4170
   56MOL0     C 7314   7.102   3.408   0.175  1.1676  0.7023 -0.2629
   56MOL0     C 7315   7.105   3.382   0.315  0.6307 -0.5694  0.0239
   56MOL0     C 7316   7.052   3.270   0.364  0.7566  0.4725  1.0478
   56MOL0     C 7317   6.999   3.170   0.286  0.0246  0.8725 -0.0355
   56MOL0     O 7318   6.933   3.058   0.341  0.1830 -0.0995  0.2897
   56MOL0     C 7319   6.800   3.035   0.283  0.4676  0.3650  0.0455
   56MOL0     C 7320   6.688   3.009   0.397 -0.5935  0.8163 -0.2756
   56MOL0     C 7321   6.741   2.904   0.493  0.1138 -0.7952  0.7689
   56MOL0     C 7322   6.640   2.902   0.611  0.2173  0.3100 -0.4100
   56MOL0     C 7323   6.534   2.805   0.579  0.3531  0.8245  0.4960
   56MOL0     C 7324   6.459   2.706   0.552  0.3672 -1.4666  0.2888
   56MOL0     C 7325   7.004   3.183   0.149 -0.1288  0.1570 -0.2594
   56MOL0     C 7326   7.052   3.305   0.096 -0.0907 -0.6391  0.8902
   56MOL0     H 7327   7.176   3.788   0.081 -0.7910 -1.4600  1.9743
   56MOL0     H 7328   7.305   4.004   0.042  1.6890 -0.1875 -3.6601
   56MOL0     H 7329   7.754   3.959   0.035  0.3192 -1.0398  0.6050
   56MOL0     H 7330   7.704   4.036   0.188  3.0485 -0.3751  0.1634
   56MOL0     H 7331   7.817   4.202   0.097  0.4725 -0.3832 -0.1848
   56MOL0     H 7332   7.644   4.241   0.069 -0.4710 -0.2788  1.6706
   56MOL0     H 7333   7.692   4.144  -0.168  0.1136 -1.9725  1.7064
   56MOL0     H 7334   7.860   4.162  -0.141  0.4898  1.3376 -0.4469
   56MOL0     H 7335   7.807   4.405  -0.049  2.1680 -0.2393 -0.7769
   56MOL0     H 7336   7.849   4.367  -0.214  1.1959  0.4956  0.9757
   56MOL0     H 7337   7.556   4.386  -0.103  2.3816 -1.4869  2.2681
   56MOL0     H 7338   7.616   4.388  -0.272  3.0886 -1.3357 -0.0468
   56MOL0     H 7339   7.735   4.611  -0.230 -0.8063  1.6700  1.2180
   56MOL0     H 7340   7.689   4.607  -0.066  1.4023  2.4559 -0.8867
   56MOL0     H 7341   7.445   4.635  -0.136  0.7124  0.2703  0.7341
   56MOL0     H 7342   7.555   4.757  -0.166 -0.5576  0.3157 -0.0138
   56MOL0     H 7343   7.513   4.552  -0.394 -1.7774  0.6222 -0.6297
   56MOL0     H 7344   7.571   4.712  -0.409 -2.8537  1.9670 -0.2947
   56MOL0     H 7345   7.255   4.538  -0.506 -3.9953  0.5268 -0.1232
   56MOL0     H 7346   7.001   4.625  -0.572 -1.1744  1.9642 -1.0781
   56MOL0     H 7347   6.974   4.792  -0.504  0.2593 -0.0475 -1.6375
   56MOL0     H 7348   6.905   4.675  -0.293  0.0933 -0.7848  0.4921
   56MOL0     H 7349   6.971   4.524  -0.353  2.2786 -0.3302 -1.2572
   56MOL0     H 7350   6.769   4.663  -0.506  2.3705  0.3136  0.7199
   56MOL0     H 7351   6.821   4.494  -0.509 -1.6947 -0.5064 -0.7274
   56MOL0     H 7352   6.671   4.633  -0.290  2.0583  1.1357 -1.7546
   56MOL0     H 7353   6.715   4.461  -0.279  1.2604  1.3449  2.3711
   56MOL0     H 7354   6.587   4.303  -0.233  0.5242  3.2910 -1.7590
   56MOL0     H 7355   6.529   4.064  -0.257  0.0993  1.3510  1.3208
   56MOL0     H 7356   6.223   3.776  -0.336  0.6773  0.4690  0.6236
   56MOL0     H 7357   6.129   3.561  -0.322  0.1670 -0.2168 -1.0534
   56MOL0     H 7358   6.139   3.355  -0.208 -1.2670 -0.6428 -2.1574
   56MOL0     H 7359   6.313   3.319  -0.182  2.5748  0.3305 -2.4397
   56MOL0     H 7360   6.128   3.121  -0.323 -1.6256 -1.4855  0.6140
   56MOL0     H 7361   6.169   3.122  -0.149  0.0677  1.5592 -0.0242
   56MOL0     H 7362   6.408   3.074  -0.199 -2.1610  0.7996  0.6373
   56MOL0     H 7363   6.397   3.118  -0.369  1.3982 -0.5072  0.9348
   56MOL0     H 7364   6.247   2.929  -0.415  1.0793  0.0108 -1.8932
   56MOL0     H 7365   6.417   2.901  -0.365  0.1170  1.8768  1.1143
   56MOL0     H 7366   6.166   2.867  -0.198 -0.7444 -1.9759  1.3251
   56MOL0     H 7367   6.325   2.858  -0.123  0.5937  1.5469 -0.9979
   56MOL0     H 7368   6.420   2.684  -0.252  1.0174 -1.1965  1.4489
   56MOL0     H 7369   6.284   2.676  -0.359 -1.0689  1.5324  0.2699
   56MOL0     H 7370   6.306   2.587  -0.060 -0.9209  0.8300  2.1913
   56MOL0     H 7371   6.147   2.617  -0.131 -0.7431 -4.0713 -2.3286
   56MOL0     H 7372   6.349   2.429  -0.263 -0.0338 -1.2171  0.6395
   56MOL0     H 7373   6.186   2.430  -0.299 -0.6160 -0.6076  0.0703
   56MOL0     H 7374   6.516   3.393  -0.417  1.3641  1.7194  2.5696
   56MOL0     H 7375   6.612   3.631  -0.423  0.5765  0.9928  2.0146
   56MOL0     H 7376   6.364   4.147  -0.655  0.8943 -1.1446  0.7377
   56MOL0     H 7377   6.460   4.374  -0.632  1.5805  1.8196  0.7589
   56MOL0     H 7378   7.657   3.791   0.159  0.2203  0.4632 -1.3360
   56MOL0     H 7379   7.531   3.595   0.227 -3.2029 -2.3839  2.0738
   56MOL0     H 7380   7.147   3.452   0.387 -3.1154  1.9916  0.0167
   56MOL0     H 7381   7.037   3.252   0.470 -0.9346  0.0412  0.7712
   56MOL0     H 7382   6.813   2.946   0.222  2.5266 -1.0183  2.3082
   56MOL0     H 7383   6.758   3.121   0.229 -0.1989 -0.6461 -1.0766
   56MOL0     H 7384   6.652   3.100   0.448 -1.7095  1.0353 -1.3908
   56MOL0     H 7385   6.600   2.964   0.350  0.8888 -0.7132 -1.6840
   56MOL0     H 7386   6.834   2.939   0.537  0.4883 -1.3578  0.4420
   56MOL0     H 7387   6.741   2.803   0.451  0.3112 -0.8327  0.8588
   56MOL0     H 7388   6.701   2.873   0.698  0.5501  1.3950 -0.2714
   56MOL0     H 7389   6.599   3.000   0.636 -0.0524 -0.2609  1.5877
   56MOL0     H 7390   6.396   2.620   0.538  0.9301 -1.5039 -2.7673
   56MOL0     H 7391   6.951   3.109   0.090 -1.8507  0.1535  1.2172
   56MOL0     H 7392   7.047   3.331  -0.010  0.9660  0.8303  1.1528
   57MOL0     O 7393   8.108   7.295   8.952 -0.2588 -0.3187 -0.1948
   57MOL0     C 7394   8.178   7.192   8.955  0.0780  0.3521 -0.5083
   57MOL0     O 7395   8.134   7.066   8.947 -0.0068  0.1522  0.5277
   57MOL0     C 7396   8.002   7.041   8.910 -0.2781 -0.2508 -0.2793
   57MOL0     C 7397   7.930   7.107   8.813  0.4983 -0.7126 -0.5487
   57MOL0     C 7398   7.798   7.071   8.792  0.9527 -0.3536 -0.1702
   57MOL0     C 7399   7.730   6.987   8.874 -0.1149  0.2764 -0.0811
   57MOL0     O 7400   7.592   6.968   8.870  0.5535 -0.2265 -1.1333
   57MOL0     C 7401   7.503   7.020   8.773  0.2598  0.0472 -0.8303
   57MOL0     C 7402   7.368   6.998   8.831  1.2719  0.6942 -0.0815
   57MOL0     C 7403   7.257   7.084   8.778 -0.2452 -0.9987  0.2412
   57MOL0     C 7404   7.126   7.045   8.850 -0.4872  0.5181 -0.1669
   57MOL0     C 7405   7.009   7.126   8.798 -0.7284  0.0928  0.2138
   57MOL0     C 7406   6.885   7.101   8.884 -0.0640  0.3149 -0.3226
   57MOL0     C 7407   6.828   6.953   8.859  0.0689 -0.1245  0.0152
   57MOL0     C 7408   6.693   6.931   8.925  0.3126  0.2787  0.8312
   57MOL0     N 7409   6.640   6.797   8.912  0.0958 -0.1762 -0.1755
   57MOL0     C 7410   6.602   6.717   9.015  0.0620 -0.1496  0.4461
   57MOL0     C 7411   6.556   6.605   8.956  0.6074  0.0574 -0.4225
   57MOL0     C 7412   6.501   6.493   9.039 -0.0506  0.5640 -0.2582
   57MOL0     C 7413   6.507   6.358   8.973 -0.4027  0.1916  0.1593
   57MOL0     C 7414   6.433   6.256   9.052  0.1237  0.2437  0.4273
   57MOL0     C 7415   6.283   6.278   9.074  0.3638  0.2116  0.1138
   57MOL0     O 7416   6.211   6.158   9.036  0.4180  0.3384 -0.3604
   57MOL0     C 7417   6.187   6.052   9.123 -1.0126  0.2307  0.0613
   57MOL0     C 7418   6.130   5.947   9.061  0.6020 -0.4409  0.5754
   57MOL0     C 7419   6.096   5.838   9.134  0.2910  0.5752 -0.1833
   57MOL0     C 7420   6.115   5.821   9.271 -0.7014 -0.4705  0.1700
   57MOL0     C 7421   6.074   5.701   9.346 -0.1620 -1.2556  0.3169
   57MOL0     O 7422   6.068   5.717   9.486 -0.0977  0.2492 -0.8486
   57MOL0     C 7423   5.996   5.623   9.561 -0.6596 -0.0756 -0.2499
   57MOL0     C 7424   6.073   5.526   9.621 -0.2715  0.0074  0.2906
   57MOL0     C 7425   6.008   5.419   9.689 -0.0190 -1.1106  0.0147
   57MOL0     C 7426   5.869   5.415   9.692  1.0278  0.4660  0.4146
   57MOL0     O 7427   5.790   5.319   9.753  0.4189 -0.4790  0.1515
   57MOL0     C 7428   5.852   5.191   9.795 -0.5982  0.3131  0.5614
   57MOL0     C 7429   5.896   5.103   9.678 -0.6652  0.5718  0.7093
   57MOL0     C 7430   5.778   5.056   9.601 -0.1240  0.2871 -0.0352
   57MOL0     C 7431   5.676   4.966   9.681  0.1697  0.2718  0.5669
   57MOL0     C 7432   5.568   4.913   9.595  0.2073  0.1459  0.2088
   57MOL0     C 7433   5.459   4.847   9.677 -0.3879  0.2749  0.6309
   57MOL0     C 7434   5.522   4.704   9.721  0.0583 -0.2469 -0.8688
   57MOL0     C 7435   5.422   4.604   9.803  0.0830  0.0434  0.7573
   57MOL0    Cl 7436   5.522   4.501   9.918 -0.5558  0.6239  0.4362
   57MOL0     C 7437   5.789   5.518   9.639  0.3077 -0.4421 -0.2365
   57MOL0     C 7438   5.855   5.630   9.573 -0.6524  0.4239 -0.1281
   57MOL0     O 7439   6.043   5.600   9.280 -0.0533  0.3883  1.0770
   57MOL0     C 7440   6.200   5.927   9.326  0.8785  0.1641 -0.0772
   57MOL0     C 7441   6.221   6.046   9.259  0.2341  0.1540 -0.6046
   57MOL0     N 7442   6.563   6.621   8.817 -0.1683 -0.4313 -0.6791
   57MOL0     N 7443   6.623   6.734   8.791  0.4575  0.1630 -0.1822
   57MOL0     C 7444   7.801   6.929   8.977 -0.1745 -0.0654  0.2627
   57MOL0     C 7445   7.938   6.954   9.000  0.3613 -0.0567  0.0255
   57MOL0     C 7446   8.325   7.213   8.942 -0.3508 -1.2367 -0.0476
   57MOL0     C 7447   8.375   7.339   8.899  0.1181 -0.5385 -0.6936
   57MOL0     C 7448   8.511   7.359   8.895 -0.2404 -1.1037  0.2678
   57MOL0     C 7449   8.598   7.246   8.907 -1.5143 -1.0285 -0.7521
   57MOL0     O 7450   8.735   7.247   8.886  0.3610  0.6674 -0.3628
   57MOL0     C 7451   8.775   7.279   8.748 -0.3313 -0.3702 -0.2749
   57MOL0     C 7452   8.868   7.392   8.741  0.2946  0.6493  0.6013
   57MOL0     C 7453   9.010   7.383   8.800  0.6807 -0.7112 -0.4131
   57MOL0     C 7454   9.002   7.370   8.945 -0.1039 -0.3812 -0.2972
   57MOL0     C 7455   9.126   7.404   9.011  0.1440 -0.4213 -0.9550
   57MOL0     C 7456   9.222   7.435   9.067  1.0202 -0.0316  0.1883
   57MOL0     C 7457   8.553   7.134   8.959  0.3349  0.9479  0.4288
   57MOL0     C 7458   8.417   7.112   8.975  0.3958 -0.2576 -1.1361
   57MOL0     H 7459   7.981   7.176   8.746  1.1348 -1.7631 -1.1766
   57MOL0     H 7460   7.745   7.118   8.709 -2.3563  1.0139  2.5045
   57MOL0     H 7461   7.503   6.954   8.685 -2.2857  0.5360 -1.2976
   57MOL0     H 7462   7.526   7.123   8.747 -0.3727  0.1707 -0.9122
   57MOL0     H 7463   7.356   7.013   8.939 -3.1729  1.1565 -0.4628
   57MOL0     H 7464   7.344   6.893   8.814 -1.5826  1.2398  0.2104
   57MOL0     H 7465   7.240   7.072   8.671  1.6245 -0.3802 -0.1551
   57MOL0     H 7466   7.287   7.189   8.779 -2.4582 -0.2556 -2.0472
   57MOL0     H 7467   7.111   6.938   8.831  0.6807  0.8708 -3.7174
   57MOL0     H 7468   7.144   7.061   8.957  0.1296 -0.7305 -0.0661
   57MOL0     H 7469   6.996   7.095   8.694 -3.3782 -0.0618  0.5223
   57MOL0     H 7470   7.027   7.233   8.802  0.4387 -0.0604 -0.5460
   57MOL0     H 7471   6.810   7.177   8.858  0.7819  2.3369  2.6259
   57MOL0     H 7472   6.916   7.125   8.986  2.1411  1.5146 -1.2237
   57MOL0     H 7473   6.812   6.930   8.754  0.7919  2.1028 -0.6400
   57MOL0     H 7474   6.906   6.881   8.888  2.5183  2.0809 -0.6912
   57MOL0     H 7475   6.617   6.994   8.877 -0.8162 -3.2078 -2.4915
   57MOL0     H 7476   6.704   6.963   9.029  1.3435  1.5056  0.3779
   57MOL0     H 7477   6.611   6.735   9.121  1.1482 -0.5543  0.4340
   57MOL0     H 7478   6.397   6.512   9.065 -0.1300 -1.4937  1.1743
   57MOL0     H 7479   6.566   6.488   9.127 -0.5817 -4.7134  0.1410
   57MOL0     H 7480   6.612   6.331   8.963 -0.8780 -1.3058 -1.1526
   57MOL0     H 7481   6.457   6.374   8.877  1.8708  2.8590 -0.7046
   57MOL0     H 7482   6.440   6.167   8.989 -1.4212  0.9165 -0.7496
   57MOL0     H 7483   6.492   6.250   9.144  2.4047 -0.3348 -0.9778
   57MOL0     H 7484   6.245   6.365   9.020 -1.2524 -0.2445  0.4630
   57MOL0     H 7485   6.274   6.296   9.181 -1.5767 -2.4993  0.5133
   57MOL0     H 7486   6.122   5.941   8.953 -0.1034  1.7415  0.4751
   57MOL0     H 7487   6.054   5.752   9.084 -0.3270  1.4419 -1.2056
   57MOL0     H 7488   6.181   5.524   9.628 -0.2553 -1.7805  0.0418
   57MOL0     H 7489   6.073   5.342   9.729  0.3741 -0.1670  1.2535
   57MOL0     H 7490   5.780   5.131   9.852 -1.8862 -0.3172 -1.6293
   57MOL0     H 7491   5.935   5.222   9.859  2.5906 -1.3668 -2.4172
   57MOL0     H 7492   5.950   5.014   9.712 -2.7244 -0.4720  1.4098
   57MOL0     H 7493   5.971   5.148   9.613  1.2829 -2.2480  0.8305
   57MOL0     H 7494   5.804   4.995   9.513  1.0978  0.7694 -0.0308
   57MOL0     H 7495   5.732   5.147   9.560  0.2083 -0.0487 -1.2091
   57MOL0     H 7496   5.725   4.892   9.744 -1.9215  0.0780  2.0594
   57MOL0     H 7497   5.623   5.029   9.753 -0.0256 -2.7767  3.2840
   57MOL0     H 7498   5.608   4.848   9.517  0.1781 -0.2023  0.4827
   57MOL0     H 7499   5.525   4.999   9.542  2.1537  1.8454  1.2161
   57MOL0     H 7500   5.369   4.826   9.619  0.0478 -3.1526  0.9695
   57MOL0     H 7501   5.430   4.901   9.768 -1.1168  1.5892 -0.3480
   57MOL0     H 7502   5.581   4.664   9.638  1.2272 -0.9996  0.2721
   57MOL0     H 7503   5.587   4.733   9.804  2.9134  0.1107 -3.0939
   57MOL0     H 7504   5.375   4.537   9.731  3.2336 -0.6380 -0.8655
   57MOL0     H 7505   5.353   4.666   9.862 -0.9134 -0.3304  0.0098
   57MOL0     H 7506   5.681   5.512   9.638 -0.1258  3.3121 -3.7133
   57MOL0     H 7507   5.800   5.713   9.529 -1.6787  1.0405  2.2071
   57MOL0     H 7508   6.238   5.910   9.426 -1.0195 -1.3836  0.4387
   57MOL0     H 7509   6.270   6.126   9.313  3.3207 -1.7424 -0.3301
   57MOL0     H 7510   7.746   6.854   9.032  2.5897 -1.0186  1.9524
   57MOL0     H 7511   7.994   6.891   9.068  2.3511  2.8775  1.2726
   57MOL0     H 7512   8.305   7.413   8.861 -0.1317 -0.2966  0.2252
   57MOL0     H 7513   8.551   7.450   8.854 -0.7565 -0.3470  1.3916
   57MOL0     H 7514   8.682   7.303   8.695 -2.5575  1.9110  4.0574
   57MOL0     H 7515   8.813   7.189   8.700 -2.3522 -0.7779 -1.2071
   57MOL0     H 7516   8.882   7.429   8.639  0.8133  1.7165  1.0415
   57MOL0     H 7517   8.809   7.476   8.778 -0.6151  0.8422 -1.1513
   57MOL0     H 7518   9.075   7.463   8.765 -0.6926 -0.7687 -3.3933
   57MOL0     H 7519   9.059   7.287   8.780 -0.1740 -1.4093  0.7116
   57MOL0     H 7520   8.926   7.424   9.003 -0.5013 -1.8441  0.6009
   57MOL0     H 7521   8.973   7.269   8.973 -2.6307  0.5812  0.9311
   57MOL0     H 7522   9.289   7.478   9.138  0.1171 -0.6483  1.4528
   57MOL0     H 7523   8.623   7.051   8.959  0.4515  1.0472  0.3551
   57MOL0     H 7524   8.374   7.026   9.026 -3.6049  1.4222 -1.3673
   58MOL0     O 7525   0.522  10.402   5.806  0.2855 -0.7044 -0.0497
   58MOL0     C 7526   0.520  10.282   5.837 -0.8379  1.3289 -0.6668
   58MOL0     O 7527   0.417  10.200   5.801 -0.1381 -0.1358  0.0112
   58MOL0     C 7528   0.300  10.254   5.756  1.0194 -0.5395  0.2073
   58MOL0     C 7529   0.277  10.248   5.616 -0.6326 -0.1351  0.3773
   58MOL0     C 7530   0.177  10.321   5.559  0.0714  0.4704  0.7417
   58MOL0     C 7531   0.084  10.391   5.628 -0.5960 -0.7820 -0.1646
   58MOL0     O 7532  -0.000  10.477   5.564  0.2578 -0.0975 -0.7624
   58MOL0     C 7533  -0.140  10.463   5.600  0.0346 -0.1565  0.1169
   58MOL0     C 7534  -0.217  10.443   5.470 -0.4130 -0.7782 -0.0804
   58MOL0     C 7535  -0.217  10.293   5.425 -0.5110  0.1658  0.4210
   58MOL0     C 7536  -0.289  10.262   5.295  0.3141  0.6839 -0.1738
   58MOL0     C 7537  -0.208  10.276   5.168  0.3739  0.8926 -0.3068
   58MOL0     C 7538  -0.132  10.397   5.172  0.1283 -0.3967  0.4480
   58MOL0     C 7539  -0.054  10.417   5.036  0.9547 -0.1825 -0.3063
   58MOL0     C 7540   0.020  10.548   5.037  0.0189 -0.3036  0.2229
   58MOL0     N 7541   0.066  10.581   4.903 -0.6183  0.1089 -1.1581
   58MOL0     C 7542  -0.016  10.576   4.794 -0.5273 -0.9506 -0.2850
   58MOL0     C 7543   0.067  10.612   4.694  0.5688 -0.3369 -0.5447
   58MOL0     C 7544   0.030  10.627   4.549 -0.0820  0.0584 -0.6190
   58MOL0     C 7545  -0.107  10.694   4.520 -0.0205  0.7174  0.6605
   58MOL0     C 7546  -0.129  10.833   4.591 -0.5521 -0.0594 -0.3206
   58MOL0     C 7547  -0.246  10.911   4.530 -0.7530 -0.3298  0.5861
   58MOL0     O 7548  -0.368  10.869   4.578  0.0284  0.3766  0.1167
   58MOL0     C 7549  -0.379  10.868   4.712  0.7019  0.6602  0.3511
   58MOL0     C 7550  -0.386  10.986   4.786  0.6064  0.0872  0.0798
   58MOL0     C 7551  -0.390  10.987   4.930  1.5050  0.1685 -0.0384
   58MOL0     C 7552  -0.409  10.860   4.995 -0.9111 -0.4129 -0.1823
   58MOL0     C 7553  -0.416  10.856   5.140 -0.2225  0.0379  0.4433
   58MOL0     O 7554  -0.417  10.727   5.191  0.2799  0.1051  0.4250
   58MOL0     C 7555  -0.436  10.722   5.326  0.2970 -0.6300 -0.9092
   58MOL0     C 7556  -0.564  10.684   5.375  0.1699  0.7868 -0.1948
   58MOL0     C 7557  -0.589  10.690   5.513  0.6975 -0.2335 -0.7268
   58MOL0     C 7558  -0.495  10.746   5.601  0.8006 -0.0099  0.2325
   58MOL0     O 7559  -0.535  10.757   5.728  0.8429 -0.0337 -0.2374
   58MOL0     C 7560  -0.433  10.730   5.834  0.0444 -0.0558  0.4280
   58MOL0     C 7561  -0.484  10.722   5.978 -0.0936  0.3871 -0.0777
   58MOL0     C 7562  -0.590  10.614   5.995  0.2844  0.3970 -0.6449
   58MOL0     C 7563  -0.640  10.606   6.145 -0.5955 -0.2479  0.3925
   58MOL0     C 7564  -0.764  10.512   6.160 -1.0410 -0.8734  0.6174
   58MOL0     C 7565  -0.813  10.501   6.302  0.1985  1.5512  0.2085
   58MOL0     C 7566  -0.929  10.409   6.314 -0.0485 -0.6988  0.4612
   58MOL0     C 7567  -0.973  10.381   6.458  0.0140 -0.0109 -0.3521
   58MOL0    Cl 7568  -1.129  10.282   6.471 -0.0441  0.0009  0.4171
   58MOL0     C 7569  -0.366  10.770   5.553  0.5516 -0.3781  0.2158
   58MOL0     C 7570  -0.337  10.753   5.418  0.2612  0.3433  0.7448
   58MOL0     O 7571  -0.407  10.961   5.207 -0.0881  0.2089 -0.0432
   58MOL0     C 7572  -0.418  10.740   4.918  0.1121  0.2676  0.3273
   58MOL0     C 7573  -0.403  10.748   4.776  0.0609 -0.6029 -0.1269
   58MOL0     N 7574   0.203  10.627   4.748 -0.2205 -0.3389 -0.7436
   58MOL0     N 7575   0.195  10.626   4.875  0.9757 -0.5134  0.2084
   58MOL0     C 7576   0.099  10.398   5.773  0.7890 -0.6314  0.6734
   58MOL0     C 7577   0.214  10.343   5.835  0.9336 -0.0781  0.3102
   58MOL0     C 7578   0.648  10.217   5.890  1.0954 -0.7187 -0.1552
   58MOL0     C 7579   0.664  10.087   5.913 -0.4943 -0.5786  0.3371
   58MOL0     C 7580   0.775  10.034   5.966  0.2151 -0.6649  0.0180
   58MOL0     C 7581   0.883  10.125   6.007 -0.5328 -0.7063  0.3264
   58MOL0     O 7582   1.006  10.079   6.053  0.2051 -0.0010 -0.2198
   58MOL0     C 7583   1.010   9.990   6.164 -0.2280 -0.7673  0.6462
   58MOL0     C 7584   1.030   9.843   6.124 -0.2162 -0.1209  0.4196
   58MOL0     C 7585   1.141   9.823   6.016 -0.2389  0.2349 -0.1477
   58MOL0     C 7586   1.276   9.861   6.049 -1.6286 -0.2026  0.7791
   58MOL0     C 7587   1.348   9.767   6.145 -0.5364 -0.3584 -0.0408
   58MOL0     C 7588   1.388   9.686   6.222 -0.7293  0.3183 -0.3969
   58MOL0     C 7589   0.882  10.257   5.968  0.5049 -0.8982  0.3449
   58MOL0     C 7590   0.762  10.305   5.911  0.3730 -0.0877 -0.7744
   58MOL0     H 7591   0.352  10.194   5.559  0.6412  1.0602  0.8786
   58MOL0     H 7592   0.171  10.323   5.451  2.2921  0.0801  0.5701
   58MOL0     H 7593  -0.173  10.555   5.650  0.5978 -0.7596  1.6532
   58MOL0     H 7594  -0.176  10.386   5.668 -2.3997  0.2915 -0.5379
   58MOL0     H 7595  -0.174  10.510   5.394  4.5794 -1.4711  1.7831
   58MOL0     H 7596  -0.319  10.473   5.493 -0.1279 -0.5457  0.9169
   58MOL0     H 7597  -0.272  10.243   5.506  0.8847  0.3287  1.5209
   58MOL0     H 7598  -0.117  10.247   5.430  1.1142  3.5273  1.9261
   58MOL0     H 7599  -0.326  10.160   5.305  1.7398  0.4198  5.0179
   58MOL0     H 7600  -0.378  10.326   5.292 -0.5694 -0.5323 -1.3441
   58MOL0     H 7601  -0.272  10.262   5.081 -2.2736 -2.9279  1.9579
   58MOL0     H 7602  -0.141  10.191   5.153  0.2201  0.1052  2.7135
   58MOL0     H 7603  -0.063  10.403   5.256  0.9572 -2.7698  0.0049
   58MOL0     H 7604  -0.199  10.483   5.177 -1.3017 -1.3626 -0.9689
   58MOL0     H 7605   0.019  10.337   5.020  1.0347  0.1994 -2.0679
   58MOL0     H 7606  -0.127  10.416   4.955  2.0325 -2.3511 -1.3389
   58MOL0     H 7607   0.108  10.542   5.102 -1.3944 -3.4319  2.1186
   58MOL0     H 7608  -0.054  10.621   5.071 -2.2177 -3.4081  2.7438
   58MOL0     H 7609  -0.123  10.561   4.783 -1.0286 -0.4331  2.9986
   58MOL0     H 7610   0.040  10.527   4.508  1.7498  0.6224 -1.6776
   58MOL0     H 7611   0.112  10.674   4.493 -0.5460 -2.9832 -4.1697
   58MOL0     H 7612  -0.180  10.625   4.562  1.8954  0.2033  3.4043
   58MOL0     H 7613  -0.113  10.711   4.412  4.6558  0.3569  0.1149
   58MOL0     H 7614  -0.138  10.824   4.700 -2.7585 -1.5915 -0.5658
   58MOL0     H 7615  -0.034  10.882   4.566  0.4139 -1.3358  0.7257
   58MOL0     H 7616  -0.238  10.893   4.423 -0.8714 -0.1176  0.5419
   58MOL0     H 7617  -0.241  11.019   4.547  0.9968 -0.8764  5.0703
   58MOL0     H 7618  -0.395  11.075   4.725 -1.8045 -0.5151 -0.5639
   58MOL0     H 7619  -0.382  11.084   4.979  0.4780  0.6580 -0.7739
   58MOL0     H 7620  -0.648  10.655   5.314 -0.0538 -4.4570  2.0768
   58MOL0     H 7621  -0.691  10.676   5.549  0.8772 -0.5787 -0.3420
   58MOL0     H 7622  -0.362  10.813   5.843  0.5119 -0.5729  1.6396
   58MOL0     H 7623  -0.384  10.635   5.816  0.5230  0.0483  1.1626
   58MOL0     H 7624  -0.531  10.819   5.998 -2.1530 -1.2905  4.7305
   58MOL0     H 7625  -0.412  10.714   6.059 -1.1853  0.4617  0.9330
   58MOL0     H 7626  -0.547  10.516   5.971 -0.1107 -0.6233  2.3168
   58MOL0     H 7627  -0.669  10.637   5.924  2.6209  2.8332 -2.6466
   58MOL0     H 7628  -0.570  10.556   6.213 -3.4143 -1.2563  2.7879
   58MOL0     H 7629  -0.660  10.710   6.172  0.9474  0.8384 -2.2715
   58MOL0     H 7630  -0.749  10.415   6.111 -0.9226 -0.3393 -0.4497
   58MOL0     H 7631  -0.846  10.558   6.103  0.7400 -0.7367 -2.0475
   58MOL0     H 7632  -0.840  10.600   6.339  1.0726  2.0289 -0.3958
   58MOL0     H 7633  -0.733  10.464   6.366  2.2065  1.5007 -2.1881
   58MOL0     H 7634  -1.014  10.444   6.254 -0.9986  1.7236  3.0005
   58MOL0     H 7635  -0.895  10.323   6.254 -1.3902  0.0896 -1.5585
   58MOL0     H 7636  -0.998  10.474   6.510  2.0011 -1.1493  3.0038
   58MOL0     H 7637  -0.893  10.342   6.522  0.3676 -0.2902 -0.9515
   58MOL0     H 7638  -0.292  10.811   5.621  1.5747 -0.5645 -0.7624
   58MOL0     H 7639  -0.241  10.773   5.370  0.7133  1.0732  1.9274
   58MOL0     H 7640  -0.425  10.644   4.969  3.6815  0.6165  1.7569
   58MOL0     H 7641  -0.415  10.661   4.712  1.8310 -1.5956  0.8167
   58MOL0     H 7642   0.029  10.462   5.826 -1.2871 -2.1312 -0.1081
   58MOL0     H 7643   0.221  10.348   5.943 -5.3839 -1.1234  1.1247
   58MOL0     H 7644   0.571  10.032   5.898 -1.8539  0.9261  2.6536
   58MOL0     H 7645   0.773   9.929   5.993  1.0550 -1.2596 -1.9706
   58MOL0     H 7646   0.922   9.988   6.228  1.2175 -2.8148  2.7614
   58MOL0     H 7647   1.096  10.033   6.216  0.6013 -3.3730  1.6027
   58MOL0     H 7648   1.043   9.774   6.207  0.9932 -2.2652 -1.4484
   58MOL0     H 7649   0.941   9.789   6.091  0.4072 -1.2399  0.5337
   58MOL0     H 7650   1.118   9.875   5.923  1.2941  0.3156 -0.4953
   58MOL0     H 7651   1.150   9.718   5.986 -0.6708  0.3257 -0.6057
   58MOL0     H 7652   1.334   9.870   5.956  0.1710  1.3677  1.9788
   58MOL0     H 7653   1.276   9.956   6.103  0.2528  0.0903  0.3726
   58MOL0     H 7654   1.434   9.621   6.293 -1.2663 -0.6859 -0.9484
   58MOL0     H 7655   0.964  10.327   5.978 -0.6797  0.6038 -0.1533
   58MOL0     H 7656   0.749  10.412   5.906 -1.5265 -0.0819  2.1208
   59MOL0     O 7657   9.474   2.824   4.422  0.0995 -0.1049  0.6649
   59MOL0     C 7658   9.370   2.818   4.364  0.4457 -0.6790  0.0132
   59MOL0     O 7659   9.282   2.721   4.382  0.5073  0.3669 -0.4881
   59MOL0     C 7660   9.288   2.625   4.477  1.0408  0.3822 -0.3310
   59MOL0     C 7661   9.165   2.563   4.520 -1.2317  0.7693 -0.0879
   59MOL0     C 7662   9.162   2.454   4.610  0.3420  0.3931  0.1573
   59MOL0     C 7663   9.274   2.431   4.687 -1.0857 -0.2689  0.5613
   59MOL0     O 7664   9.266   2.349   4.803 -0.5460 -0.3460 -0.1511
   59MOL0     C 7665   9.321   2.392   4.928 -0.5769 -0.0106 -0.6127
   59MOL0     C 7666   9.242   2.506   4.976 -0.5668  0.1736  0.4352
   59MOL0     C 7667   9.094   2.452   5.009 -0.4437 -0.6317  0.2669
   59MOL0     C 7668   8.991   2.564   5.005  0.3721  0.0071  0.9541
   59MOL0     C 7669   8.848   2.514   5.049  0.1482  0.6011 -0.2515
   59MOL0     C 7670   8.775   2.412   4.952 -0.3588 -0.2930 -0.1535
   59MOL0     C 7671   8.760   2.470   4.819 -0.1091  0.0445  0.0290
   59MOL0     C 7672   8.699   2.369   4.713  0.2303 -0.0715 -0.4274
   59MOL0     N 7673   8.557   2.323   4.742 -0.1911  0.4358  0.5455
   59MOL0     C 7674   8.533   2.197   4.770 -0.4543  0.7830  0.0440
   59MOL0     C 7675   8.405   2.181   4.745  1.0320  0.1488  0.0024
   59MOL0     C 7676   8.313   2.065   4.764 -0.0140 -0.1749  0.7955
   59MOL0     C 7677   8.339   1.964   4.651  1.0841 -0.1358  0.2833
   59MOL0     C 7678   8.292   2.003   4.505  0.4977 -0.2923 -0.7351
   59MOL0     C 7679   8.165   2.082   4.484 -1.2084 -0.4185 -0.9235
   59MOL0     O 7680   8.074   1.987   4.436 -0.6763  0.0739 -1.0227
   59MOL0     C 7681   7.940   1.996   4.436 -0.0787 -0.4320 -0.5258
   59MOL0     C 7682   7.869   2.116   4.444  0.2688  0.2954  0.6417
   59MOL0     C 7683   7.728   2.114   4.464 -1.6098 -0.2922  0.9026
   59MOL0     C 7684   7.658   1.995   4.478 -0.3632 -0.3192  0.6041
   59MOL0     C 7685   7.519   1.986   4.511 -0.5985 -0.7104  0.4825
   59MOL0     O 7686   7.460   1.876   4.543  0.5741  0.2432  0.0471
   59MOL0     C 7687   7.323   1.857   4.556 -0.0264 -0.6370  0.1845
   59MOL0     C 7688   7.265   1.908   4.664 -0.0018 -0.9030  0.5109
   59MOL0     C 7689   7.121   1.887   4.679 -0.6451 -0.3886 -0.9220
   59MOL0     C 7690   7.047   1.809   4.595 -0.6403  0.3835 -0.6672
   59MOL0     O 7691   6.909   1.815   4.602  0.3271  0.8868 -0.3731
   59MOL0     C 7692   6.824   1.730   4.527  0.7181  0.1797  0.1158
   59MOL0     C 7693   6.779   1.788   4.390  0.1578 -0.0151 -0.0651
   59MOL0     C 7694   6.673   1.898   4.413 -0.2504 -0.5489  1.0054
   59MOL0     C 7695   6.603   1.945   4.282 -0.0213 -0.1140  0.7704
   59MOL0     C 7696   6.489   2.057   4.300  0.4629 -1.0283 -0.0043
   59MOL0     C 7697   6.528   2.186   4.372 -0.6935  0.2743 -0.3849
   59MOL0     C 7698   6.655   2.251   4.314  0.2557 -0.0371 -0.0633
   59MOL0     C 7699   6.653   2.388   4.364 -0.0585  0.6546 -0.3837
   59MOL0    Cl 7700   6.690   2.405   4.535 -0.5444  0.3182 -0.4587
   59MOL0     C 7701   7.111   1.765   4.480  0.3018  0.3009  0.4690
   59MOL0     C 7702   7.247   1.782   4.460 -0.3247 -0.0498 -1.0689
   59MOL0     O 7703   7.458   2.096   4.498 -0.6140  0.0179 -0.0249
   59MOL0     C 7704   7.733   1.883   4.464 -0.2305  0.8230 -0.0384
   59MOL0     C 7705   7.864   1.880   4.442  0.1683 -0.7181 -0.8902
   59MOL0     N 7706   8.357   2.300   4.701  0.2848 -0.2283 -0.0655
   59MOL0     N 7707   8.448   2.392   4.704  0.7535 -0.3572 -0.9666
   59MOL0     C 7708   9.392   2.480   4.643 -0.2703 -0.0300  0.6739
   59MOL0     C 7709   9.404   2.574   4.534 -0.8059 -0.2413 -0.9285
   59MOL0     C 7710   9.331   2.928   4.269  0.0388 -0.4394 -0.1818
   59MOL0     C 7711   9.424   3.027   4.235  0.1602  0.3368  0.0539
   59MOL0     C 7712   9.388   3.128   4.138  0.1584  0.0330 -0.1645
   59MOL0     C 7713   9.265   3.121   4.078  0.3301  0.5552 -0.1479
   59MOL0     O 7714   9.214   3.208   3.986 -0.7101 -0.2384  0.5279
   59MOL0     C 7715   9.184   3.341   4.046 -0.2442 -0.7904  0.3281
   59MOL0     C 7716   9.245   3.456   3.965  0.7651  0.0101 -0.3557
   59MOL0     C 7717   9.400   3.448   3.951 -1.0815 -0.6697  0.5520
   59MOL0     C 7718   9.458   3.556   3.874  0.4539 -0.1354  0.4548
   59MOL0     C 7719   9.600   3.543   3.900 -0.4255 -0.3301  2.0257
   59MOL0     C 7720   9.717   3.529   3.912 -0.3842 -0.0413 -0.2637
   59MOL0     C 7721   9.172   3.024   4.120 -0.3445  0.0806 -0.3628
   59MOL0     C 7722   9.199   2.928   4.219  0.1093 -1.5498 -0.1918
   59MOL0     H 7723   9.078   2.602   4.468 -0.0925  3.8703  0.1279
   59MOL0     H 7724   9.076   2.393   4.636  0.0670  0.9031  0.4467
   59MOL0     H 7725   9.428   2.413   4.929 -0.9570  2.4328  1.7036
   59MOL0     H 7726   9.302   2.308   4.995 -3.3928  0.5604 -0.5463
   59MOL0     H 7727   9.240   2.580   4.896 -3.4136 -0.8507 -0.5642
   59MOL0     H 7728   9.283   2.549   5.067  0.2614  2.5520 -0.9637
   59MOL0     H 7729   9.084   2.412   5.110  0.5673 -2.2440 -0.2284
   59MOL0     H 7730   9.063   2.368   4.946  0.2400 -1.8775  1.5245
   59MOL0     H 7731   9.033   2.640   5.072  1.6965 -1.4239  1.8189
   59MOL0     H 7732   8.978   2.607   4.905 -1.2925 -1.7035  0.3881
   59MOL0     H 7733   8.779   2.598   5.053  1.2428  1.5796 -1.1641
   59MOL0     H 7734   8.856   2.465   5.147  2.3410  1.2834 -0.0258
   59MOL0     H 7735   8.676   2.391   4.995  0.6275 -2.3915  1.2838
   59MOL0     H 7736   8.827   2.315   4.955  1.7512  0.7970  0.0566
   59MOL0     H 7737   8.712   2.565   4.842  2.4296  1.1155  1.3444
   59MOL0     H 7738   8.852   2.500   4.769 -0.0856 -0.3499 -0.1701
   59MOL0     H 7739   8.762   2.280   4.705  1.1875  0.4572  0.7958
   59MOL0     H 7740   8.686   2.417   4.616 -0.1927 -2.4258 -1.5998
   59MOL0     H 7741   8.601   2.114   4.789  2.0271  1.8929 -3.0962
   59MOL0     H 7742   8.207   2.093   4.761 -0.0996 -0.5306 -2.3040
   59MOL0     H 7743   8.331   2.004   4.853  0.2129  0.3991  1.1487
   59MOL0     H 7744   8.294   1.867   4.676 -0.2958  0.6264  0.8710
   59MOL0     H 7745   8.447   1.947   4.646  1.5066  1.9403  1.4379
   59MOL0     H 7746   8.367   2.072   4.464 -0.6730  1.5992  0.1319
   59MOL0     H 7747   8.303   1.916   4.440  2.0259 -0.0069 -0.8987
   59MOL0     H 7748   8.181   2.166   4.415 -1.1113  2.4889  2.3881
   59MOL0     H 7749   8.133   2.128   4.578 -0.9208 -1.7379 -0.1542
   59MOL0     H 7750   7.918   2.211   4.458  0.8280 -0.0966  1.4309
   59MOL0     H 7751   7.681   2.212   4.462 -1.1398 -0.0673 -0.9822
   59MOL0     H 7752   7.329   1.975   4.720  0.8961 -2.7970  1.8705
   59MOL0     H 7753   7.084   1.940   4.765 -3.7215  1.4881 -3.1839
   59MOL0     H 7754   6.736   1.729   4.591 -0.9380  0.1379 -2.0194
   59MOL0     H 7755   6.861   1.627   4.523 -0.5641 -0.3690  1.3869
   59MOL0     H 7756   6.747   1.706   4.324 -0.1524  1.5517 -1.9297
   59MOL0     H 7757   6.874   1.828   4.356  1.1194 -1.3950  0.8650
   59MOL0     H 7758   6.720   1.982   4.466 -2.5246  0.0874  2.1591
   59MOL0     H 7759   6.598   1.875   4.490 -2.4586 -1.5803 -1.3276
   59MOL0     H 7760   6.690   1.981   4.226 -0.2970  4.2411  2.7262
   59MOL0     H 7761   6.559   1.860   4.230  0.1239  0.8481 -1.0186
   59MOL0     H 7762   6.402   2.015   4.349  0.2271  0.6094  1.0519
   59MOL0     H 7763   6.461   2.094   4.200 -2.6474 -1.5549  0.5779
   59MOL0     H 7764   6.549   2.160   4.475  2.2724 -1.4304 -1.3208
   59MOL0     H 7765   6.452   2.265   4.363  1.5105  2.2764 -3.1960
   59MOL0     H 7766   6.747   2.194   4.332  0.4544 -0.4449 -2.1251
   59MOL0     H 7767   6.646   2.258   4.205  0.7444 -0.5003 -0.1428
   59MOL0     H 7768   6.558   2.437   4.345 -1.3350 -1.9049 -1.0651
   59MOL0     H 7769   6.736   2.442   4.317 -0.7649  0.9402 -1.3132
   59MOL0     H 7770   7.054   1.719   4.400 -0.2838  0.8351  0.5691
   59MOL0     H 7771   7.289   1.743   4.368  1.1197 -1.6874  0.2191
   59MOL0     H 7772   7.681   1.788   4.460 -0.3974  0.9464 -1.4932
   59MOL0     H 7773   7.914   1.783   4.438 -0.0270 -0.9120  0.7648
   59MOL0     H 7774   9.484   2.442   4.687  2.7874  1.6097 -3.6192
   59MOL0     H 7775   9.505   2.606   4.512  0.2771 -1.6450  1.5911
   59MOL0     H 7776   9.526   3.025   4.269 -0.1083 -0.2620  0.8363
   59MOL0     H 7777   9.469   3.193   4.104  0.0038 -1.4926 -4.0728
   59MOL0     H 7778   9.211   3.344   4.152 -0.7301  0.2246  0.4357
   59MOL0     H 7779   9.076   3.340   4.059 -0.1451 -1.2458  1.1926
   59MOL0     H 7780   9.202   3.456   3.864  1.3058  1.2724 -0.6027
   59MOL0     H 7781   9.227   3.551   4.015 -1.1893 -0.7321  0.4872
   59MOL0     H 7782   9.435   3.350   3.915  0.7046 -0.0410  0.4707
   59MOL0     H 7783   9.437   3.446   4.054 -2.1040 -2.7003  0.9462
   59MOL0     H 7784   9.440   3.542   3.767 -2.5373  1.4273  0.6501
   59MOL0     H 7785   9.436   3.658   3.904  0.5233  0.5126 -1.5690
   59MOL0     H 7786   9.821   3.540   3.934 -0.3026 -1.1881 -0.0454
   59MOL0     H 7787   9.071   3.041   4.086  0.0001  0.3851 -1.2721
   59MOL0     H 7788   9.131   2.848   4.249  0.9842 -3.3019 -2.5460
   60MOL0     O 7789   4.626   0.653   1.702 -1.1132  0.9841  0.1298
   60MOL0     C 7790   4.636   0.759   1.766  0.2145 -0.7652 -0.0737
   60MOL0     O 7791   4.692   0.877   1.725 -0.1875  0.6469  0.0004
   60MOL0     C 7792   4.754   0.872   1.609  0.9670 -0.7118 -0.0011
   60MOL0     C 7793   4.874   0.803   1.604 -0.4884  0.3616 -0.6093
   60MOL0     C 7794   4.944   0.798   1.482  0.2526  0.0868  0.5692
   60MOL0     C 7795   4.900   0.851   1.361  0.3327  0.5623 -0.4476
   60MOL0     O 7796   4.953   0.833   1.237 -0.0008  0.1506  0.5398
   60MOL0     C 7797   5.097   0.865   1.237 -0.2904  0.3516  0.1936
   60MOL0     C 7798   5.147   0.878   1.091 -0.6101  0.4328  0.6127
   60MOL0     C 7799   5.116   1.002   1.020  0.4928  0.0632  0.1639
   60MOL0     C 7800   4.973   1.029   0.991  0.1539 -0.2182 -0.1747
   60MOL0     C 7801   4.941   1.123   0.878 -0.2261 -0.4105 -0.0801
   60MOL0     C 7802   4.973   1.275   0.892  1.1308 -0.4447  0.6442
   60MOL0     C 7803   4.959   1.340   0.756 -0.8729 -0.1783  0.8471
   60MOL0     C 7804   4.999   1.485   0.774  0.2854  0.4943 -0.1001
   60MOL0     N 7805   4.960   1.565   0.652  0.1364  0.8474 -0.8901
   60MOL0     C 7806   4.957   1.700   0.637  0.9463 -0.2117  0.0738
   60MOL0     C 7807   4.915   1.730   0.521 -0.6286  0.0269  0.0723
   60MOL0     C 7808   4.905   1.868   0.475 -0.2165  1.4906  0.0855
   60MOL0     C 7809   4.972   1.881   0.333 -0.0794  0.1849 -0.5887
   60MOL0     C 7810   4.935   2.012   0.266 -0.1133  0.0741  0.5553
   60MOL0     C 7811   4.995   1.998   0.129  0.6275  0.3483 -0.0349
   60MOL0     O 7812   4.973   2.124   0.052  0.0010 -0.0421  0.6127
   60MOL0     C 7813   5.074   2.220   0.062 -0.6555  0.1805  0.0574
   60MOL0     C 7814   5.064   2.328  -0.028 -0.2567  0.3505  0.3353
   60MOL0     C 7815   5.154   2.432  -0.023 -0.2484 -0.2905  0.4704
   60MOL0     C 7816   5.264   2.430   0.071  0.7778 -0.2277  0.2785
   60MOL0     C 7817   5.354   2.545   0.071 -0.8062  0.5567  0.7421
   60MOL0     O 7818   5.351   2.642  -0.017 -0.0640 -0.3777  0.3648
   60MOL0     C 7819   5.435   2.757  -0.013 -0.7188  0.3294 -0.0093
   60MOL0     C 7820   5.371   2.879  -0.043  0.0934 -0.5487  0.1480
   60MOL0     C 7821   5.440   2.996  -0.060  0.2484  0.4060 -1.0921
   60MOL0     C 7822   5.581   3.000  -0.050  0.1817  0.6461 -1.1179
   60MOL0     O 7823   5.664   3.105  -0.072 -0.6020  0.5154 -0.1955
   60MOL0     C 7824   5.597   3.234  -0.076  0.4615 -0.6909 -0.5614
   60MOL0     C 7825   5.696   3.342  -0.101 -0.2214  0.4881 -0.5664
   60MOL0     C 7826   5.748   3.407   0.028  1.2244  0.3836  0.4489
   60MOL0     C 7827   5.866   3.481  -0.013  0.1549 -0.1080 -0.4145
   60MOL0     C 7828   5.919   3.589   0.084  0.0296  0.0074  0.3323
   60MOL0     C 7829   5.937   3.516   0.225 -0.1676  0.0655 -0.2707
   60MOL0     C 7830   5.997   3.600   0.333  0.8609  0.7981  0.1671
   60MOL0     C 7831   6.024   3.528   0.461 -0.2745 -0.6230  0.2613
   60MOL0    Cl 7832   6.208   3.489   0.477 -0.1602  0.0008 -0.0779
   60MOL0     C 7833   5.643   2.877  -0.023 -0.1213  0.3823  0.6045
   60MOL0     C 7834   5.574   2.756   0.004  0.4890  0.4840 -1.0510
   60MOL0     O 7835   5.435   2.537   0.163  0.3546  0.7547  0.1846
   60MOL0     C 7836   5.275   2.316   0.152  0.1928  0.5194  0.7664
   60MOL0     C 7837   5.184   2.206   0.140 -0.7406  0.6067 -0.1140
   60MOL0     N 7838   4.888   1.612   0.452 -0.3565 -0.6601  0.4171
   60MOL0     N 7839   4.921   1.518   0.525  0.4990 -0.2049  0.2752
   60MOL0     C 7840   4.790   0.931   1.365  0.5936 -0.5248  0.5194
   60MOL0     C 7841   4.712   0.939   1.490  0.0565  0.1495  0.2657
   60MOL0     C 7842   4.566   0.776   1.898  0.7723 -0.1890 -0.9561
   60MOL0     C 7843   4.486   0.681   1.951  0.0341  0.1685 -0.4315
   60MOL0     C 7844   4.412   0.700   2.065  0.2171  0.8719  0.1443
   60MOL0     C 7845   4.433   0.813   2.146 -0.0818  0.1885  0.3772
   60MOL0     O 7846   4.356   0.807   2.255 -0.3172 -0.7499  0.2065
   60MOL0     C 7847   4.408   0.884   2.369  0.0961  0.2094  0.2705
   60MOL0     C 7848   4.345   0.823   2.497  0.5841  0.2451  0.9190
   60MOL0     C 7849   4.390   0.907   2.616 -1.3661  0.3769  0.0716
   60MOL0     C 7850   4.300   0.874   2.737  0.2539 -0.0621 -0.7782
   60MOL0     C 7851   4.337   0.959   2.853 -0.3479 -0.0697 -0.5444
   60MOL0     C 7852   4.364   1.039   2.941  0.0069  0.4127 -0.3490
   60MOL0     C 7853   4.535   0.907   2.102  0.3004  0.5754  0.4467
   60MOL0     C 7854   4.594   0.893   1.981 -0.2919  0.1581 -0.5043
   60MOL0     H 7855   4.926   0.765   1.691 -2.0752  1.1994  0.7396
   60MOL0     H 7856   5.041   0.749   1.480  0.0640 -0.2897  0.4382
   60MOL0     H 7857   5.143   0.777   1.283 -1.3875 -0.7221 -0.6750
   60MOL0     H 7858   5.109   0.948   1.306  0.4547 -0.0816  0.6013
   60MOL0     H 7859   5.132   0.789   1.029  2.6283 -0.6713  1.2097
   60MOL0     H 7860   5.256   0.887   1.098 -0.5865  0.6455  0.0655
   60MOL0     H 7861   5.171   1.000   0.925  1.7937 -1.7858  0.8943
   60MOL0     H 7862   5.156   1.089   1.073 -1.4623 -0.0047  1.8532
   60MOL0     H 7863   4.910   0.941   0.975 -0.4071  0.1346  0.0856
   60MOL0     H 7864   4.927   1.083   1.074  0.6626  1.0804 -0.7073
   60MOL0     H 7865   4.834   1.116   0.854 -0.0921  0.7395 -1.1165
   60MOL0     H 7866   4.996   1.092   0.789  0.0232 -0.2822  0.0280
   60MOL0     H 7867   5.076   1.282   0.928  1.1749 -1.1313  0.6506
   60MOL0     H 7868   4.909   1.329   0.963  0.5638 -0.8598  0.4595
   60MOL0     H 7869   5.031   1.290   0.691  0.5514  2.1351  0.5581
   60MOL0     H 7870   4.855   1.326   0.723 -0.8334  0.1591  0.5747
   60MOL0     H 7871   5.108   1.489   0.787  0.5443 -2.5070 -0.7732
   60MOL0     H 7872   4.950   1.531   0.860  3.4275  0.7887  1.7073
   60MOL0     H 7873   4.984   1.769   0.716 -2.3982  2.4184 -0.8536
   60MOL0     H 7874   4.965   1.933   0.540 -0.4703  1.2871  0.5197
   60MOL0     H 7875   4.801   1.894   0.454 -0.3985 -0.8105 -2.5323
   60MOL0     H 7876   4.949   1.793   0.272  0.5238  0.3420 -1.0407
   60MOL0     H 7877   5.081   1.883   0.339  0.0999  0.0450 -2.8277
   60MOL0     H 7878   4.827   2.022   0.265 -0.2241 -0.2492  2.7003
   60MOL0     H 7879   4.978   2.103   0.310  1.6023  0.3596 -1.5364
   60MOL0     H 7880   4.933   1.921   0.083  0.9148 -0.0735  0.2743
   60MOL0     H 7881   5.100   1.969   0.122  1.8601  4.4271 -1.5374
   60MOL0     H 7882   4.983   2.327  -0.100 -0.3370  0.3470  0.4255
   60MOL0     H 7883   5.131   2.525  -0.075 -0.7969  0.3719  1.8508
   60MOL0     H 7884   5.264   2.874  -0.065  0.0871 -0.2348  0.0910
   60MOL0     H 7885   5.386   3.084  -0.093  0.2203  0.2520 -1.4598
   60MOL0     H 7886   5.540   3.239   0.018 -0.5259 -1.2655 -1.1049
   60MOL0     H 7887   5.529   3.228  -0.162  0.1907 -0.9352 -0.3347
   60MOL0     H 7888   5.646   3.423  -0.156  0.2418  0.7896 -0.5439
   60MOL0     H 7889   5.783   3.292  -0.144 -0.9033 -0.5802 -0.7199
   60MOL0     H 7890   5.752   3.335   0.111 -3.1373 -0.2799  0.3539
   60MOL0     H 7891   5.669   3.471   0.069  0.1614 -1.1929  0.9781
   60MOL0     H 7892   5.949   3.410  -0.028 -0.0220 -0.6758  1.1382
   60MOL0     H 7893   5.838   3.527  -0.108 -0.5012  0.9965  0.3030
   60MOL0     H 7894   5.842   3.665   0.102 -0.6602 -0.5476 -0.2008
   60MOL0     H 7895   6.006   3.635   0.037 -2.7993  2.8341 -2.7758
   60MOL0     H 7896   6.001   3.429   0.206  0.5520  0.8978 -1.9226
   60MOL0     H 7897   5.841   3.475   0.255  0.3215 -1.1238 -0.2529
   60MOL0     H 7898   6.083   3.660   0.303 -0.3491  2.9323  0.7867
   60MOL0     H 7899   5.916   3.669   0.357  0.8842  0.7602  0.3529
   60MOL0     H 7900   5.970   3.434   0.475  0.9352 -0.9443  3.6574
   60MOL0     H 7901   5.996   3.598   0.539 -3.4045 -0.4917 -0.8658
   60MOL0     H 7902   5.751   2.882  -0.024 -0.1162  3.9531  2.2709
   60MOL0     H 7903   5.631   2.664   0.019 -0.7417 -0.8492 -3.7784
   60MOL0     H 7904   5.349   2.317   0.232  2.3006 -2.8367 -0.9363
   60MOL0     H 7905   5.220   2.124   0.201  3.4893  0.8006 -1.9904
   60MOL0     H 7906   4.748   0.967   1.272  0.5775 -1.1273  0.2906
   60MOL0     H 7907   4.617   0.989   1.487 -0.8822 -1.5710 -0.2503
   60MOL0     H 7908   4.471   0.585   1.902 -3.6329  0.2272  0.3436
   60MOL0     H 7909   4.332   0.633   2.094 -0.4477  2.2227  1.6156
   60MOL0     H 7910   4.372   0.986   2.359 -4.1662 -1.1245 -0.2856
   60MOL0     H 7911   4.516   0.870   2.381 -0.0217 -1.9155 -0.6073
   60MOL0     H 7912   4.237   0.835   2.492  0.6245 -0.0050 -1.1953
   60MOL0     H 7913   4.376   0.720   2.518 -1.7042 -0.1022  3.0767
   60MOL0     H 7914   4.375   1.012   2.586  0.9776  1.1570  1.4177
   60MOL0     H 7915   4.497   0.901   2.638 -0.8633  1.9735 -1.6054
   60MOL0     H 7916   4.200   0.912   2.716  0.2860  0.1511 -0.5481
   60MOL0     H 7917   4.298   0.765   2.745  1.3702 -0.0714 -0.4159
   60MOL0     H 7918   4.406   1.112   3.008 -3.1907  0.6139  1.6490
   60MOL0     H 7919   4.564   0.995   2.159  3.6887 -0.4645  0.5513
   60MOL0     H 7920   4.668   0.965   1.949 -0.1325 -0.6302 -1.9900
   61MOL0     O 7921   5.116   2.908   7.295  0.3499  0.4357  0.3410
   61MOL0     C 7922   5.109   2.788   7.263 -0.2905  0.0011 -0.1596
   61MOL0     O 7923   5.014   2.721   7.192 -0.1459 -1.1199 -0.6227
   61MOL0     C 7924   4.907   2.806   7.166  0.1132 -0.0763 -0.6923
   61MOL0     C 7925   4.886   2.837   7.030 -0.9145 -1.1813  0.4219
   61MOL0     C 7926   4.783   2.921   6.994 -0.4285  0.0199  0.5145
   61MOL0     C 7927   4.701   2.988   7.092  1.0099  0.9144  1.1968
   61MOL0     O 7928   4.600   3.074   7.054  0.1491 -0.2124 -0.5633
   61MOL0     C 7929   4.623   3.218   7.062  0.3742  0.9530  1.0851
   61MOL0     C 7930   4.731   3.268   6.951  0.6787  0.3158  0.7668
   61MOL0     C 7931   4.752   3.420   6.960  0.5862  0.1327 -0.5841
   61MOL0     C 7932   4.629   3.497   6.931 -0.1408  0.2791  0.3936
   61MOL0     C 7933   4.653   3.649   6.943  0.6370  0.3147  0.4660
   61MOL0     C 7934   4.522   3.729   6.888  0.1705  0.0948  0.2019
   61MOL0     C 7935   4.541   3.881   6.850  0.0815  0.1898 -0.1301
   61MOL0     C 7936   4.530   3.974   6.972  0.2388  0.5466 -0.7866
   61MOL0     N 7937   4.393   3.956   7.036 -0.9603  0.2353 -0.0628
   61MOL0     C 7938   4.282   4.014   6.973 -0.3734 -0.2165 -0.9425
   61MOL0     C 7939   4.172   3.968   7.046 -0.8010  0.2404 -1.1126
   61MOL0     C 7940   4.033   4.016   7.046  0.1131 -0.3066 -0.2236
   61MOL0     C 7941   3.946   3.942   6.948 -0.4713  0.1658  0.3820
   61MOL0     C 7942   3.939   3.789   6.956 -0.7524 -0.1753 -0.2681
   61MOL0     C 7943   3.831   3.739   6.862  0.6175  0.6839  0.3041
   61MOL0     O 7944   3.797   3.603   6.907  0.1158  0.4905 -0.2381
   61MOL0     C 7945   3.711   3.527   6.833 -0.7144 -0.5267  0.5678
   61MOL0     C 7946   3.643   3.580   6.723 -1.1354  0.7351 -0.4517
   61MOL0     C 7947   3.549   3.495   6.656  0.2823 -0.7062 -0.8596
   61MOL0     C 7948   3.540   3.363   6.701  1.1158  0.2646 -0.0440
   61MOL0     C 7949   3.435   3.270   6.654  0.0200 -0.8362  0.3037
   61MOL0     O 7950   3.327   3.328   6.585 -0.2841 -0.7024  0.0907
   61MOL0     C 7951   3.241   3.246   6.515 -0.4860  0.7905 -0.8459
   61MOL0     C 7952   3.210   3.287   6.388  0.2018 -0.1218 -0.1339
   61MOL0     C 7953   3.120   3.220   6.303  0.2108 -0.3701  0.5217
   61MOL0     C 7954   3.054   3.115   6.357 -0.1466  0.0913 -0.1203
   61MOL0     O 7955   2.969   3.040   6.271 -0.5854  0.1877 -0.0683
   61MOL0     C 7956   2.886   3.120   6.180 -0.1900  1.0061  0.1728
   61MOL0     C 7957   2.774   3.026   6.125 -0.4083 -0.5966 -0.0371
   61MOL0     C 7958   2.657   3.051   6.219  0.1631 -0.5053 -0.8786
   61MOL0     C 7959   2.533   2.970   6.181 -0.0468 -0.2026 -0.1983
   61MOL0     C 7960   2.523   2.843   6.270  1.0147 -0.3421 -0.0948
   61MOL0     C 7961   2.402   2.754   6.244  0.6884 -0.9182  0.1463
   61MOL0     C 7962   2.266   2.821   6.288  0.3917  0.6003  0.1842
   61MOL0     C 7963   2.157   2.732   6.245  0.7122  0.3646 -0.4301
   61MOL0    Cl 7964   2.009   2.764   6.357  0.3647 -0.2644 -0.0158
   61MOL0     C 7965   3.086   3.070   6.485 -0.3588 -0.8937  0.2392
   61MOL0     C 7966   3.183   3.129   6.556 -0.3672  0.2004 -0.2223
   61MOL0     O 7967   3.450   3.152   6.675 -0.3820  0.2732  0.9124
   61MOL0     C 7968   3.617   3.315   6.807  0.4758  0.8534  0.0277
   61MOL0     C 7969   3.699   3.398   6.872  0.4429  0.4336 -0.1420
   61MOL0     N 7970   4.237   3.894   7.151  0.1378  0.1487 -0.3986
   61MOL0     N 7971   4.361   3.889   7.149 -0.3336 -0.4406  1.0874
   61MOL0     C 7972   4.729   2.961   7.226  0.0547  0.0733  0.3123
   61MOL0     C 7973   4.824   2.867   7.262 -0.3334  0.6498  0.0354
   61MOL0     C 7974   5.207   2.698   7.323 -0.5301  0.5406  0.2505
   61MOL0     C 7975   5.221   2.566   7.269 -0.6624 -0.6641 -0.4860
   61MOL0     C 7976   5.326   2.489   7.316 -0.0768  0.2721  0.6586
   61MOL0     C 7977   5.423   2.535   7.412  0.4955 -0.0956  0.3688
   61MOL0     O 7978   5.528   2.451   7.441 -0.3109 -0.5938  0.0069
   61MOL0     C 7979   5.643   2.480   7.362  0.1247  0.1906 -0.7986
   61MOL0     C 7980   5.716   2.342   7.356 -0.5126 -0.1756  0.9286
   61MOL0     C 7981   5.827   2.356   7.256  0.2413  0.6350  0.0840
   61MOL0     C 7982   5.779   2.359   7.114  0.1749  0.0447 -0.3415
   61MOL0     C 7983   5.706   2.241   7.075  0.4963  0.6477  0.9495
   61MOL0     C 7984   5.645   2.139   7.046 -0.3464  0.2602  1.2707
   61MOL0     C 7985   5.398   2.655   7.469 -0.5999  0.1657 -1.0131
   61MOL0     C 7986   5.285   2.729   7.436 -0.4848 -0.5467  0.2723
   61MOL0     H 7987   4.935   2.792   6.944 -2.6039 -0.4269 -1.0111
   61MOL0     H 7988   4.757   2.941   6.891  0.6709 -1.1920 -0.0285
   61MOL0     H 7989   4.675   3.242   7.155 -0.0729  3.4573  0.7523
   61MOL0     H 7990   4.524   3.264   7.070  0.5996  1.4131  1.2662
   61MOL0     H 7991   4.679   3.232   6.862 -3.6293  1.2985  2.6104
   61MOL0     H 7992   4.830   3.222   6.958  1.3269  1.5533  0.1593
   61MOL0     H 7993   4.824   3.446   6.882 -0.2994 -0.1396 -1.5068
   61MOL0     H 7994   4.787   3.459   7.056 -1.0398  0.0502  0.0676
   61MOL0     H 7995   4.588   3.458   6.837 -2.5200 -0.2242  1.5663
   61MOL0     H 7996   4.545   3.471   6.995 -0.5209  2.4673  0.8576
   61MOL0     H 7997   4.735   3.666   6.873  0.6053  2.1819  0.8260
   61MOL0     H 7998   4.682   3.680   7.044  1.6555 -0.6102  0.4730
   61MOL0     H 7999   4.441   3.708   6.960  1.5979 -1.7611  1.3443
   61MOL0     H 8000   4.501   3.687   6.790  0.5358  2.0837 -0.7900
   61MOL0     H 8001   4.638   3.897   6.802 -1.2047  0.7459 -2.7300
   61MOL0     H 8002   4.466   3.911   6.775 -0.1442 -0.1757 -0.0545
   61MOL0     H 8003   4.542   4.079   6.946 -2.8606  1.0928 -0.4535
   61MOL0     H 8004   4.605   3.952   7.049 -0.9401  2.0305  0.8943
   61MOL0     H 8005   4.278   4.073   6.882 -2.4416  0.4934 -0.4651
   61MOL0     H 8006   4.028   4.121   7.017 -0.1569 -0.6938 -1.6527
   61MOL0     H 8007   4.002   4.000   7.150 -0.4982 -0.9039 -0.4861
   61MOL0     H 8008   3.981   3.961   6.846 -0.8806  0.9432  0.3763
   61MOL0     H 8009   3.845   3.982   6.961 -0.6398 -1.0075  3.2787
   61MOL0     H 8010   4.037   3.750   6.926 -0.2149  1.3410 -0.5484
   61MOL0     H 8011   3.924   3.752   7.057  3.4835 -0.7101  0.3350
   61MOL0     H 8012   3.868   3.733   6.759  1.8709 -2.0152  0.8374
   61MOL0     H 8013   3.752   3.815   6.867 -0.9216 -0.7958 -0.7724
   61MOL0     H 8014   3.648   3.684   6.691 -0.2121  0.7609 -0.2541
   61MOL0     H 8015   3.481   3.526   6.578  0.3911  1.2269 -0.2211
   61MOL0     H 8016   3.269   3.372   6.356  0.0044 -0.1377 -0.5457
   61MOL0     H 8017   3.097   3.266   6.208 -3.3796  1.2121  1.9612
   61MOL0     H 8018   2.954   3.150   6.099 -0.0280  0.6869  0.1887
   61MOL0     H 8019   2.841   3.210   6.221 -1.4430  1.5028 -2.0825
   61MOL0     H 8020   2.807   2.922   6.128  0.0862 -0.5240 -1.8151
   61MOL0     H 8021   2.746   3.047   6.021 -2.4567  0.2607  0.6531
   61MOL0     H 8022   2.626   3.152   6.188 -0.1857 -0.2676  0.1893
   61MOL0     H 8023   2.686   3.039   6.324 -0.7466 -3.2571 -0.8702
   61MOL0     H 8024   2.439   3.026   6.176 -0.0105 -0.2070 -1.0655
   61MOL0     H 8025   2.540   2.942   6.075 -0.4581  1.5201 -0.7053
   61MOL0     H 8026   2.514   2.865   6.377  2.6934  4.2261 -0.6525
   61MOL0     H 8027   2.609   2.777   6.258  0.4596 -1.4705  1.6452
   61MOL0     H 8028   2.411   2.660   6.300  0.1994 -0.0083  1.7992
   61MOL0     H 8029   2.390   2.736   6.137 -2.0288 -2.2945  0.6094
   61MOL0     H 8030   2.262   2.816   6.398  0.3878  0.1037  0.1640
   61MOL0     H 8031   2.240   2.923   6.259 -0.5663  1.6639  4.0852
   61MOL0     H 8032   2.170   2.628   6.275  0.5705  0.7955  1.2221
   61MOL0     H 8033   2.140   2.750   6.138 -1.4989  3.5214  0.3115
   61MOL0     H 8034   3.032   2.988   6.531 -1.6735 -0.6002 -0.7104
   61MOL0     H 8035   3.193   3.088   6.655  0.3874 -3.9273 -1.8036
   61MOL0     H 8036   3.591   3.219   6.851 -4.7349  1.5326 -0.9885
   61MOL0     H 8037   3.747   3.355   6.959 -3.3902 -0.7604  1.6227
   61MOL0     H 8038   4.664   3.018   7.291  0.8553  2.1090 -0.5840
   61MOL0     H 8039   4.848   2.849   7.366 -3.1732  0.5620  0.7711
   61MOL0     H 8040   5.148   2.527   7.199 -1.8931 -1.1829  1.0464
   61MOL0     H 8041   5.328   2.387   7.279 -0.4010 -0.2381  1.9659
   61MOL0     H 8042   5.706   2.547   7.421  1.3150 -3.0344  1.8864
   61MOL0     H 8043   5.630   2.523   7.262 -0.9665  0.4113 -0.5690
   61MOL0     H 8044   5.764   2.309   7.449  0.9598  0.3205  0.3826
   61MOL0     H 8045   5.639   2.270   7.329 -0.5456  0.2572 -0.2032
   61MOL0     H 8046   5.901   2.278   7.269  1.7461  2.0332  0.2447
   61MOL0     H 8047   5.882   2.451   7.262  0.4216  0.5231  0.1945
   61MOL0     H 8048   5.715   2.445   7.097 -1.8455 -0.8165  2.2721
   61MOL0     H 8049   5.871   2.356   7.054  0.5803 -1.6292  0.3081
   61MOL0     H 8050   5.588   2.059   7.005 -0.8360  1.0696  0.3355
   61MOL0     H 8051   5.467   2.703   7.538 -1.6193  1.4458 -0.8492
   61MOL0     H 8052   5.279   2.826   7.483  0.9944  1.5290 -3.3988
   62MOL0     O 8053  10.546   2.563   5.795 -1.1339 -0.5725  0.2998
   62MOL0     C 8054  10.603   2.667   5.841  0.2896  0.6179  0.7770
   62MOL0     O 8055  10.686   2.663   5.951  0.2378 -0.1822 -0.8792
   62MOL0     C 8056  10.704   2.536   6.019 -0.3318  0.4067  0.3631
   62MOL0     C 8057  10.777   2.426   5.967  0.0728 -0.2704  0.3677
   62MOL0     C 8058  10.813   2.317   6.048  0.0958 -0.1612 -0.1787
   62MOL0     C 8059  10.764   2.318   6.179 -0.0649 -0.1276 -0.3403
   62MOL0     O 8060  10.793   2.204   6.262  0.0700  0.4242  0.4619
   62MOL0     C 8061  10.766   2.195   6.402  0.9715  0.0658  0.0394
   62MOL0     C 8062  10.813   2.071   6.461 -0.3350 -0.0701  0.2002
   62MOL0     C 8063  10.879   2.086   6.600  0.1744  0.7504  0.0708
   62MOL0     C 8064  10.898   1.939   6.657  0.2823 -0.7445 -0.7444
   62MOL0     C 8065  11.012   1.931   6.765  1.1683  0.4245 -0.6788
   62MOL0     C 8066  10.985   1.797   6.840 -0.3637 -0.1185 -0.6736
   62MOL0     C 8067  11.065   1.790   6.971  0.0280  0.2874  0.2029
   62MOL0     C 8068  11.215   1.788   6.952  0.2567 -1.1787  0.3611
   62MOL0     N 8069  11.289   1.797   7.082  0.0196  0.1140  0.2669
   62MOL0     C 8070  11.248   1.729   7.196  0.2264  0.5783 -0.6350
   62MOL0     C 8071  11.324   1.778   7.294 -0.2165 -0.8081 -1.3952
   62MOL0     C 8072  11.304   1.729   7.439  0.6084 -0.5609 -0.1031
   62MOL0     C 8073  11.286   1.840   7.542 -0.6418  0.2792  0.6554
   62MOL0     C 8074  11.195   1.973   7.519 -0.3573 -0.3886 -0.4025
   62MOL0     C 8075  11.060   1.940   7.457 -0.3706  0.3264  0.6815
   62MOL0     O 8076  10.978   1.848   7.530  0.4619  0.4011 -0.0749
   62MOL0     C 8077  10.926   1.898   7.650 -0.7270 -0.0050  1.3959
   62MOL0     C 8078  10.985   1.867   7.767 -1.0413  0.0903 -0.4074
   62MOL0     C 8079  10.955   1.920   7.893  1.9639  0.3764 -1.2718
   62MOL0     C 8080  10.838   1.997   7.903 -0.5366 -0.0620  0.5379
   62MOL0     C 8081  10.797   2.049   8.041  0.9506 -0.2555  0.1117
   62MOL0     O 8082  10.894   2.080   8.134 -0.3116 -0.6113 -0.4444
   62MOL0     C 8083  10.853   2.127   8.264  0.8312  0.6094  0.0084
   62MOL0     C 8084  10.744   2.212   8.285 -0.5079 -0.3710 -0.1486
   62MOL0     C 8085  10.706   2.246   8.415 -0.3678  0.8143 -0.6568
   62MOL0     C 8086  10.779   2.194   8.524 -0.3955  0.2522 -0.0579
   62MOL0     O 8087  10.724   2.211   8.644  0.7255  0.0923 -0.2770
   62MOL0     C 8088  10.800   2.189   8.757 -0.3621  0.4356  0.4925
   62MOL0     C 8089  10.716   2.219   8.881 -0.6944  0.0686 -0.1238
   62MOL0     C 8090  10.790   2.202   9.010 -0.5587  0.3845 -0.3209
   62MOL0     C 8091  10.702   2.234   9.125 -0.3612 -0.1368  0.2464
   62MOL0     C 8092  10.765   2.176   9.261  0.1540 -0.1235  0.4580
   62MOL0     C 8093  10.874   2.256   9.318 -0.5404 -0.0117  0.1946
   62MOL0     C 8094  10.832   2.387   9.378  0.6440 -0.8912  0.5300
   62MOL0     C 8095  10.936   2.490   9.352 -0.5140  0.7957  1.2121
   62MOL0    Cl 8096  10.965   2.522   9.179  0.2781  0.2853  0.3711
   62MOL0     C 8097  10.897   2.119   8.501  0.5290 -0.6634 -0.6701
   62MOL0     C 8098  10.929   2.083   8.368  0.7379  0.5275 -0.0784
   62MOL0     O 8099  10.672   2.058   8.057  0.0244  0.5918 -0.2909
   62MOL0     C 8100  10.762   2.018   7.784  0.7604  0.6406  0.6729
   62MOL0     C 8101  10.813   1.974   7.656 -0.7418 -0.5966  0.4275
   62MOL0     N 8102  11.399   1.886   7.246 -0.4083 -0.6773  0.6715
   62MOL0     N 8103  11.382   1.889   7.115  0.0438  0.2065 -0.2147
   62MOL0     C 8104  10.680   2.411   6.231 -0.0166  0.2162  0.9860
   62MOL0     C 8105  10.657   2.520   6.149 -0.5914  0.7861  0.5318
   62MOL0     C 8106  10.572   2.796   5.773  0.0080  0.4454 -0.1086
   62MOL0     C 8107  10.510   2.801   5.646  0.2350  0.3928 -0.3642
   62MOL0     C 8108  10.490   2.922   5.588 -0.2265  0.5552  1.0590
   62MOL0     C 8109  10.532   3.041   5.640 -0.0649  0.4593  0.2082
   62MOL0     O 8110  10.507   3.162   5.582 -0.0293  0.2085 -1.1416
   62MOL0     C 8111  10.597   3.176   5.473  0.1478 -0.7715  0.1908
   62MOL0     C 8112  10.598   3.324   5.436 -0.1428 -0.6969 -0.4260
   62MOL0     C 8113  10.706   3.342   5.325  0.5557 -0.2901 -0.3122
   62MOL0     C 8114  10.674   3.294   5.182 -0.6950 -0.8580 -0.1922
   62MOL0     C 8115  10.560   3.363   5.122  1.5254  0.0624  0.2590
   62MOL0     C 8116  10.470   3.427   5.071  1.2736 -0.1656 -0.2414
   62MOL0     C 8117  10.580   3.040   5.768 -0.0334  0.2221 -0.0374
   62MOL0     C 8118  10.612   2.919   5.828  0.2679 -0.2013 -0.8465
   62MOL0     H 8119  10.819   2.453   5.870  0.0426 -0.1535  0.3869
   62MOL0     H 8120  10.881   2.244   6.006 -0.5167 -0.3657 -0.8385
   62MOL0     H 8121  10.657   2.183   6.402  0.6274  2.6646 -0.8294
   62MOL0     H 8122  10.781   2.285   6.462 -3.2815  0.1962  1.2389
   62MOL0     H 8123  10.884   2.022   6.393 -1.1542 -1.5961  0.4006
   62MOL0     H 8124  10.726   2.004   6.460 -0.8042  0.5243 -1.5107
   62MOL0     H 8125  10.817   2.137   6.674 -1.8530 -3.4561  1.5798
   62MOL0     H 8126  10.973   2.142   6.589  0.1065  2.0564  4.3616
   62MOL0     H 8127  10.807   1.926   6.715  0.6474 -0.7190 -0.1637
   62MOL0     H 8128  10.909   1.873   6.570 -1.0127 -1.0369 -0.7109
   62MOL0     H 8129  10.998   2.009   6.840 -1.3849  0.3123 -0.9691
   62MOL0     H 8130  11.109   1.942   6.714  1.5917  0.6253  0.1474
   62MOL0     H 8131  11.008   1.707   6.781  0.1188  0.0943 -0.8075
   62MOL0     H 8132  10.880   1.788   6.872 -0.1916  0.7559  0.1830
   62MOL0     H 8133  11.035   1.878   7.028 -1.2150 -0.6414  1.0600
   62MOL0     H 8134  11.024   1.699   7.017 -1.3365  1.4942  1.4862
   62MOL0     H 8135  11.249   1.873   6.893 -0.3430 -0.1019  1.5144
   62MOL0     H 8136  11.232   1.688   6.912 -3.9107 -2.7624  2.0242
   62MOL0     H 8137  11.170   1.653   7.198 -2.0076  2.6813 -2.1695
   62MOL0     H 8138  11.391   1.671   7.474  0.1760 -0.0535  1.9865
   62MOL0     H 8139  11.220   1.660   7.447 -0.0525  0.4271  3.2314
   62MOL0     H 8140  11.385   1.884   7.555 -0.8506  1.6421 -1.8425
   62MOL0     H 8141  11.251   1.790   7.633 -1.0486 -0.1874  0.2494
   62MOL0     H 8142  11.174   2.031   7.609 -1.1603  0.2742 -1.0006
   62MOL0     H 8143  11.251   2.043   7.457 -0.6658 -0.1718 -0.4369
   62MOL0     H 8144  11.078   1.890   7.361 -0.8955  1.6042 -0.1067
   62MOL0     H 8145  10.996   2.023   7.424 -3.1565 -1.9375  0.0292
   62MOL0     H 8146  11.067   1.796   7.759  0.1531  1.2655  0.8685
   62MOL0     H 8147  11.013   1.879   7.975 -0.0300 -3.0173 -1.3897
   62MOL0     H 8148  10.678   2.240   8.203  0.0553 -0.9459 -0.8110
   62MOL0     H 8149  10.624   2.310   8.446  0.5839 -0.0382  4.6211
   62MOL0     H 8150  10.897   2.238   8.770 -0.5537  0.2150  3.4996
   62MOL0     H 8151  10.830   2.084   8.751  1.9796  1.1304 -1.1571
   62MOL0     H 8152  10.625   2.162   8.897  1.3075 -2.9044  1.7587
   62MOL0     H 8153  10.679   2.320   8.862  0.0394 -0.1795 -3.5484
   62MOL0     H 8154  10.881   2.263   9.005 -1.0305  0.9893 -2.4530
   62MOL0     H 8155  10.826   2.101   9.030 -0.6912  0.6287  1.2399
   62MOL0     H 8156  10.686   2.343   9.123  1.1188  0.1244  1.0894
   62MOL0     H 8157  10.608   2.181   9.109 -0.8491  0.1231  1.9873
   62MOL0     H 8158  10.788   2.070   9.250 -2.4605 -0.5549 -1.9695
   62MOL0     H 8159  10.691   2.174   9.341  1.3887  1.0364  1.6857
   62MOL0     H 8160  10.949   2.265   9.239 -0.8369 -0.9556 -0.2184
   62MOL0     H 8161  10.926   2.202   9.397 -1.5142 -2.5391 -0.7660
   62MOL0     H 8162  10.735   2.406   9.331  1.1533 -1.6504 -0.8807
   62MOL0     H 8163  10.807   2.369   9.483  0.2382 -2.6471  0.1699
   62MOL0     H 8164  11.028   2.449   9.395 -0.1815  1.1092  0.8051
   62MOL0     H 8165  10.916   2.585   9.402 -2.4009  0.9560  0.2197
   62MOL0     H 8166  10.961   2.087   8.583 -2.8899 -0.7237  2.2553
   62MOL0     H 8167  11.018   2.023   8.355  1.2140  1.5526 -1.8271
   62MOL0     H 8168  10.677   2.085   7.790 -0.0450 -0.3140  0.2169
   62MOL0     H 8169  10.765   2.009   7.564  0.2889  0.5837  0.3133
   62MOL0     H 8170  10.645   2.401   6.333 -0.6002  0.6058  0.8248
   62MOL0     H 8171  10.579   2.591   6.173 -0.4687  1.2393 -0.3494
   62MOL0     H 8172  10.478   2.714   5.589 -1.6590  1.0625 -0.3749
   62MOL0     H 8173  10.443   2.924   5.490  3.4385 -0.1596 -0.8847
   62MOL0     H 8174  10.551   3.133   5.383 -4.8451 -0.0358  2.0752
   62MOL0     H 8175  10.701   3.147   5.491  1.1461  1.6283 -1.1445
   62MOL0     H 8176  10.503   3.348   5.386  0.1937  0.1156 -0.6818
   62MOL0     H 8177  10.618   3.385   5.525  0.0879  0.5202 -1.2850
   62MOL0     H 8178  10.797   3.288   5.353  2.6107  2.0860 -2.0107
   62MOL0     H 8179  10.726   3.449   5.326 -2.0925  0.3783  3.0924
   62MOL0     H 8180  10.760   3.314   5.117 -0.7313 -1.3847 -0.4043
   62MOL0     H 8181  10.663   3.186   5.176 -0.7105 -0.8411 -0.4837
   62MOL0     H 8182  10.412   3.506   5.026  3.3614  2.7181  1.8027
   62MOL0     H 8183  10.581   3.134   5.824 -2.3452 -1.2248  2.6979
   62MOL0     H 8184  10.637   2.914   5.933 -0.5098  2.4602 -0.4569
   63MOL0     O 8185   4.516   8.103   8.231  0.0802 -0.0975  0.3531
   63MOL0     C 8186   4.554   8.081   8.124 -1.2600  0.0094  0.3166
   63MOL0     O 8187   4.663   8.008   8.090 -0.0398 -0.5868  1.6993
   63MOL0     C 8188   4.747   7.982   8.189 -0.2526  0.5468 -0.2360
   63MOL0     C 8189   4.802   7.852   8.202  0.5892 -0.7047 -0.0058
   63MOL0     C 8190   4.883   7.822   8.314 -0.5187 -0.2424 -0.1462
   63MOL0     C 8191   4.921   7.922   8.402  1.1275  0.2486 -0.8544
   63MOL0     O 8192   4.992   7.909   8.512 -0.1437  0.1712 -0.0289
   63MOL0     C 8193   5.035   7.786   8.561 -0.8706  0.2177  0.0587
   63MOL0     C 8194   5.087   7.828   8.708  0.9255  0.4348  1.5470
   63MOL0     C 8195   4.992   7.862   8.812  0.1869 -0.7197  0.2232
   63MOL0     C 8196   5.062   7.845   8.944  1.2260  0.0448 -0.3228
   63MOL0     C 8197   4.986   7.885   9.069  0.5237 -0.2006 -0.6093
   63MOL0     C 8198   4.859   7.782   9.076 -0.6080 -1.1644 -0.2118
   63MOL0     C 8199   4.772   7.810   9.204 -0.3115 -0.2532 -0.2275
   63MOL0     C 8200   4.821   7.772   9.346 -0.4620 -0.3947 -0.3651
   63MOL0     N 8201   4.767   7.852   9.456 -0.9884 -0.5179 -0.7552
   63MOL0     C 8202   4.836   7.958   9.497 -0.2088 -0.8226  0.0425
   63MOL0     C 8203   4.761   7.997   9.600  0.2856  0.8172 -0.7365
   63MOL0     C 8204   4.820   8.095   9.698 -0.3967  0.1717 -0.2451
   63MOL0     C 8205   4.793   8.249   9.673  0.7496  0.4197  0.3250
   63MOL0     C 8206   4.644   8.269   9.654 -0.0012 -0.4446 -0.5252
   63MOL0     C 8207   4.612   8.411   9.604 -0.0951 -0.7838 -0.2967
   63MOL0     O 8208   4.673   8.509   9.694 -0.1955 -0.3715  0.0073
   63MOL0     C 8209   4.725   8.623   9.635 -0.3138  0.2384  0.2545
   63MOL0     C 8210   4.629   8.707   9.580 -0.2222  0.1222 -0.6516
   63MOL0     C 8211   4.658   8.839   9.542  0.5847  0.0221 -0.1729
   63MOL0     C 8212   4.793   8.882   9.550  0.2083  0.4948 -0.1291
   63MOL0     C 8213   4.842   9.012   9.499 -0.0543  0.0467  0.1757
   63MOL0     O 8214   4.961   9.051   9.541  0.1757 -0.7398 -0.4311
   63MOL0     C 8215   4.990   9.187   9.545 -0.2618  0.6843 -0.4171
   63MOL0     C 8216   5.127   9.214   9.547  0.0869 -0.1245 -0.4403
   63MOL0     C 8217   5.172   9.347   9.556  0.3293 -1.0990 -1.2574
   63MOL0     C 8218   5.076   9.447   9.568  0.0065 -0.1148  0.6516
   63MOL0     O 8219   5.129   9.577   9.577  0.7698 -0.0686 -0.4750
   63MOL0     C 8220   5.032   9.677   9.629 -0.6054 -0.1207  0.7212
   63MOL0     C 8221   5.098   9.823   9.639  0.1999  0.2819  0.7460
   63MOL0     C 8222   5.228   9.824   9.723  0.5280  0.1205  0.8060
   63MOL0     C 8223   5.307   9.956   9.728  0.8188 -0.2880 -0.2572
   63MOL0     C 8224   5.402   9.949   9.849 -0.2578  0.2898 -0.4595
   63MOL0     C 8225   5.506   9.842   9.828  0.0234  0.8430  0.4774
   63MOL0     C 8226   5.627   9.856   9.918  0.3425 -1.5408 -0.1851
   63MOL0     C 8227   5.607   9.896  10.066 -0.6771 -0.1734 -0.4474
   63MOL0    Cl 8228   5.519   9.761  10.154 -0.1436  0.2444  0.0215
   63MOL0     C 8229   4.943   9.414   9.583 -0.1477 -0.2085 -0.9417
   63MOL0     C 8230   4.895   9.284   9.564 -0.7309 -0.2249 -0.3891
   63MOL0     O 8231   4.756   9.083   9.440  0.2734  0.1537 -0.2143
   63MOL0     C 8232   4.885   8.791   9.604 -0.3160  0.6042  0.3326
   63MOL0     C 8233   4.849   8.666   9.661 -0.6004  0.4451 -0.6532
   63MOL0     N 8234   4.655   7.918   9.605 -1.0875 -0.5392 -0.7861
   63MOL0     N 8235   4.651   7.828   9.521  1.0332  0.3396  0.4924
   63MOL0     C 8236   4.875   8.053   8.376  0.3196 -0.3294 -0.1522
   63MOL0     C 8237   4.786   8.082   8.280 -0.5606  0.1105 -1.4983
   63MOL0     C 8238   4.497   8.151   8.011  0.1200  0.0684  0.4299
   63MOL0     C 8239   4.519   8.110   7.878 -0.5621 -0.4810  0.0391
   63MOL0     C 8240   4.466   8.183   7.772  0.0537 -0.3974 -0.9054
   63MOL0     C 8241   4.385   8.290   7.799 -0.5198 -0.3943  0.4954
   63MOL0     O 8242   4.303   8.342   7.707 -0.0847 -0.4227  0.6787
   63MOL0     C 8243   4.332   8.339   7.563  0.4037 -0.4368 -0.6417
   63MOL0     C 8244   4.241   8.437   7.491 -1.0237 -0.2696  0.0241
   63MOL0     C 8245   4.112   8.369   7.474  0.5786  0.4220 -0.0813
   63MOL0     C 8246   3.983   8.463   7.458 -0.2203  0.9574 -0.0071
   63MOL0     C 8247   3.997   8.561   7.348 -0.5094 -0.1222  0.0990
   63MOL0     C 8248   3.997   8.649   7.261  0.6026 -0.4702  0.3755
   63MOL0     C 8249   4.367   8.340   7.927  0.0320 -0.2384 -0.1995
   63MOL0     C 8250   4.420   8.269   8.035 -0.4889  0.9100 -0.4800
   63MOL0     H 8251   4.771   7.778   8.129 -0.0527  0.3262 -0.8066
   63MOL0     H 8252   4.910   7.718   8.331  0.2871  0.2380  1.8500
   63MOL0     H 8253   5.112   7.733   8.505 -2.5496 -2.5418  0.2020
   63MOL0     H 8254   4.960   7.707   8.569 -0.6915  0.1387  1.0587
   63MOL0     H 8255   5.171   7.896   8.694 -0.9372  2.7176  0.7943
   63MOL0     H 8256   5.138   7.734   8.730 -0.9510 -0.8289  0.6955
   63MOL0     H 8257   4.904   7.799   8.794  0.2360 -0.1958 -2.1946
   63MOL0     H 8258   4.965   7.966   8.791 -1.8519 -1.4439 -1.1184
   63MOL0     H 8259   5.088   7.739   8.955  1.2834  0.0180 -0.7369
   63MOL0     H 8260   5.152   7.906   8.954  1.5705 -0.6786  1.4082
   63MOL0     H 8261   4.944   7.985   9.080 -1.1873 -1.1284  2.3093
   63MOL0     H 8262   5.064   7.893   9.146 -1.4244 -0.5160  1.5105
   63MOL0     H 8263   4.909   7.684   9.075  0.8443 -0.4676  0.7319
   63MOL0     H 8264   4.794   7.787   8.989  1.5889  0.6665 -1.8500
   63MOL0     H 8265   4.733   7.912   9.201 -2.7354 -1.0740  0.7954
   63MOL0     H 8266   4.677   7.757   9.191 -1.1621 -0.0484  3.7595
   63MOL0     H 8267   4.931   7.776   9.351 -0.3794 -1.6173 -0.7102
   63MOL0     H 8268   4.797   7.667   9.364  2.1812 -0.8483  1.0652
   63MOL0     H 8269   4.934   7.997   9.469  0.2676 -0.3060  2.2255
   63MOL0     H 8270   4.929   8.085   9.700 -0.3958  0.2510  0.9971
   63MOL0     H 8271   4.784   8.077   9.799 -1.5384 -0.2150 -0.7038
   63MOL0     H 8272   4.835   8.289   9.581  0.9198 -2.2437 -0.8590
   63MOL0     H 8273   4.838   8.303   9.756  1.2794  1.1351 -0.4234
   63MOL0     H 8274   4.612   8.185   9.591 -1.6310 -2.0010  2.1811
   63MOL0     H 8275   4.604   8.255   9.755 -1.4091  0.5065 -0.9299
   63MOL0     H 8276   4.504   8.429   9.608  0.4811  3.5714  1.0938
   63MOL0     H 8277   4.649   8.425   9.502  0.5793  0.6920  0.1250
   63MOL0     H 8278   4.525   8.681   9.562 -0.6379  0.3809  1.1724
   63MOL0     H 8279   4.590   8.911   9.498  1.5006  3.2410  3.1324
   63MOL0     H 8280   5.190   9.126   9.540  1.2987  0.4705  1.9419
   63MOL0     H 8281   5.276   9.378   9.558  0.5389 -1.7856  0.4180
   63MOL0     H 8282   4.992   9.645   9.725 -2.5630  0.4463  0.1493
   63MOL0     H 8283   4.939   9.672   9.571 -2.4773 -0.0795  3.5452
   63MOL0     H 8284   5.025   9.896   9.677  1.7490  1.5564  1.4122
   63MOL0     H 8285   5.120   9.853   9.536 -2.7752  0.3236  0.0059
   63MOL0     H 8286   5.276   9.734   9.685 -3.6932 -1.7845 -0.6698
   63MOL0     H 8287   5.214   9.777   9.821  2.2602 -1.1253  0.4996
   63MOL0     H 8288   5.345   9.979   9.628 -0.8608 -1.2888 -1.1789
   63MOL0     H 8289   5.233  10.035   9.746  0.7341 -0.7568  1.6755
   63MOL0     H 8290   5.346   9.943   9.943 -0.9757  1.7240 -0.7719
   63MOL0     H 8291   5.447  10.048   9.853 -0.9225  0.8976 -4.1626
   63MOL0     H 8292   5.537   9.844   9.723 -0.6298  2.3574  0.2812
   63MOL0     H 8293   5.466   9.743   9.852  1.4151 -0.5790 -2.5130
   63MOL0     H 8294   5.687   9.765   9.911 -2.1894 -3.2184 -1.7623
   63MOL0     H 8295   5.689   9.936   9.876 -0.7362 -0.3265  0.4483
   63MOL0     H 8296   5.556   9.992  10.062 -1.6006 -0.6720 -0.9786
   63MOL0     H 8297   5.702   9.918  10.115  0.0351 -2.9743 -0.4016
   63MOL0     H 8298   4.868   9.491   9.601  1.7942  1.2944  1.3707
   63MOL0     H 8299   4.790   9.261   9.579 -1.3005  2.4177  0.1702
   63MOL0     H 8300   4.988   8.824   9.594 -0.4557  0.9738  0.1141
   63MOL0     H 8301   4.932   8.616   9.709  2.1102  4.4987 -0.6166
   63MOL0     H 8302   4.898   8.118   8.460  2.0924  0.5167 -1.2442
   63MOL0     H 8303   4.753   8.186   8.282  1.1379  0.6767 -0.9038
   63MOL0     H 8304   4.583   8.027   7.849  0.5739  0.6871 -0.9313
   63MOL0     H 8305   4.491   8.168   7.667  0.3594  2.6739 -1.3502
   63MOL0     H 8306   4.338   8.241   7.516  0.7032 -0.8171  0.1788
   63MOL0     H 8307   4.430   8.385   7.553 -0.4611  2.7826  3.0438
   63MOL0     H 8308   4.228   8.532   7.543 -4.0502 -0.5778  0.0180
   63MOL0     H 8309   4.296   8.473   7.403  1.0626  0.7775  1.6662
   63MOL0     H 8310   4.102   8.298   7.557  3.4334  0.7691  0.6623
   63MOL0     H 8311   4.110   8.306   7.384 -0.6487 -0.4215  0.5005
   63MOL0     H 8312   3.888   8.414   7.434  0.9432 -2.0636  1.1497
   63MOL0     H 8313   3.966   8.524   7.547  2.9033  4.8874 -1.7892
   63MOL0     H 8314   3.987   8.720   7.181  3.1500  0.5332  0.8502
   63MOL0     H 8315   4.319   8.435   7.949  1.5736  0.1898  1.6082
   63MOL0     H 8316   4.410   8.314   8.133 -3.4390  1.3521 -0.8999
   64MOL0     O 8317  10.651   8.215   6.578  0.6766 -0.4972 -0.1962
   64MOL0     C 8318  10.744   8.231   6.496 -0.0668 -0.3367  0.2261
   64MOL0     O 8319  10.874   8.209   6.511 -0.6815 -0.5096 -0.5392
   64MOL0     C 8320  10.930   8.192   6.635  0.1598 -0.4440 -0.3476
   64MOL0     C 8321  11.062   8.146   6.625  0.5804 -0.6742 -0.3924
   64MOL0     C 8322  11.133   8.112   6.739  0.1539 -0.2706 -0.7027
   64MOL0     C 8323  11.074   8.134   6.872 -1.6973  0.1374 -0.3891
   64MOL0     O 8324  11.151   8.105   6.982 -0.8205  0.1123 -0.3172
   64MOL0     C 8325  11.143   8.182   7.099  0.0334  1.3080  0.2996
   64MOL0     C 8326  11.158   8.323   7.068 -0.1809 -0.5344 -0.4594
   64MOL0     C 8327  11.126   8.400   7.195 -0.6045 -0.5684  0.4133
   64MOL0     C 8328  11.141   8.553   7.155  0.0575 -0.5009  0.5016
   64MOL0     C 8329  11.116   8.647   7.269 -0.3436 -0.3724  0.2130
   64MOL0     C 8330  10.964   8.661   7.296 -1.2238  0.8281 -0.3633
   64MOL0     C 8331  10.918   8.800   7.300  0.1921 -0.5259  0.3034
   64MOL0     C 8332  10.761   8.792   7.303  0.4764 -0.3910 -0.1284
   64MOL0     N 8333  10.696   8.912   7.366  0.4192  0.2978  0.0354
   64MOL0     C 8334  10.675   8.921   7.505  0.1258 -0.5382 -0.0094
   64MOL0     C 8335  10.621   9.047   7.515 -0.0520 -0.2602  0.0693
   64MOL0     C 8336  10.598   9.110   7.638  0.5928  1.1237  1.4545
   64MOL0     C 8337  10.694   9.215   7.672  1.1735 -0.0636 -0.6437
   64MOL0     C 8338  10.707   9.332   7.566  0.1405 -0.4722 -1.0641
   64MOL0     C 8339  10.805   9.436   7.615 -0.4466  0.2271 -0.2745
   64MOL0     O 8340  10.931   9.374   7.647 -0.5524 -0.3794  0.1046
   64MOL0     C 8341  11.028   9.457   7.704 -0.2611 -1.2402 -0.1105
   64MOL0     C 8342  11.127   9.391   7.766  0.5335  0.5382 -0.2583
   64MOL0     C 8343  11.229   9.449   7.831 -0.6290 -1.6308 -0.3003
   64MOL0     C 8344  11.240   9.586   7.830  0.2243 -0.1510  0.1789
   64MOL0     C 8345  11.363   9.639   7.900  0.7350  0.5101 -0.4682
   64MOL0     O 8346  11.404   9.762   7.857  0.1535  0.7928  0.2365
   64MOL0     C 8347  11.525   9.813   7.900 -0.1349  0.3960  0.1485
   64MOL0     C 8348  11.645   9.730   7.895  0.6317 -0.7421  0.2849
   64MOL0     C 8349  11.770   9.784   7.926  0.6536 -0.0173  0.1288
   64MOL0     C 8350  11.782   9.917   7.965 -0.0856  0.4122  0.3178
   64MOL0     O 8351  11.890   9.982   7.999 -0.9321 -0.2577  0.4117
   64MOL0     C 8352  12.022   9.937   7.962 -0.1429 -0.4436  0.1320
   64MOL0     C 8353  12.107  10.045   8.031  0.5150 -0.6828 -0.3985
   64MOL0     C 8354  12.260  10.014   8.029  0.0776 -0.0727 -0.0933
   64MOL0     C 8355  12.323  10.128   8.102  0.0724 -0.4799  0.5845
   64MOL0     C 8356  12.478  10.131   8.084 -0.3069  0.3273  0.7389
   64MOL0     C 8357  12.553  10.243   8.155  0.5652 -0.3644 -0.2446
   64MOL0     C 8358  12.695  10.250   8.117 -0.5429  0.2406 -0.5302
   64MOL0     C 8359  12.759  10.392   8.142 -0.9789 -0.6647 -0.0404
   64MOL0    Cl 8360  12.704  10.449   8.301  0.0299 -0.5047 -0.1991
   64MOL0     C 8361  11.662   9.991   7.982 -1.1436 -0.3153 -0.5902
   64MOL0     C 8362  11.540   9.943   7.941 -0.5435  0.8600  0.0644
   64MOL0     O 8363  11.418   9.574   7.987  0.0974 -0.2993  0.0487
   64MOL0     C 8364  11.145   9.662   7.767 -0.1586 -0.1065 -0.1411
   64MOL0     C 8365  11.036   9.597   7.702 -0.0377 -0.2780 -0.1420
   64MOL0     N 8366  10.586   9.092   7.389  0.0079 -0.0497  0.0498
   64MOL0     N 8367  10.627   9.012   7.301 -0.5468 -0.4039 -0.4818
   64MOL0     C 8368  10.951   8.192   6.877 -0.7928 -0.1467  0.2115
   64MOL0     C 8369  10.886   8.226   6.760  0.4813  0.9563  0.0902
   64MOL0     C 8370  10.702   8.276   6.362 -0.4791 -0.4413  0.0672
   64MOL0     C 8371  10.783   8.251   6.251 -0.4681  0.3810  0.0366
   64MOL0     C 8372  10.747   8.293   6.120  0.3942 -0.2479 -0.8610
   64MOL0     C 8373  10.628   8.365   6.103 -0.1583 -0.6032  0.3181
   64MOL0     O 8374  10.589   8.412   5.979 -0.4515  0.4682  0.2334
   64MOL0     C 8375  10.642   8.363   5.848  0.5793  0.3378 -0.5659
   64MOL0     C 8376  10.581   8.459   5.744 -0.5172  0.6606 -0.2655
   64MOL0     C 8377  10.629   8.412   5.608 -0.1294 -0.3398  0.9154
   64MOL0     C 8378  10.586   8.499   5.495  1.0915 -0.5537  0.2084
   64MOL0     C 8379  10.452   8.470   5.448  0.8617 -1.0855 -0.4143
   64MOL0     C 8380  10.359   8.419   5.399 -0.6425  0.7167 -0.6399
   64MOL0     C 8381  10.555   8.405   6.216  0.2349  0.3295 -0.6340
   64MOL0     C 8382  10.588   8.357   6.345  0.2670  0.6914  0.2588
   64MOL0     H 8383  11.099   8.139   6.523  1.3887  0.2341 -0.1757
   64MOL0     H 8384  11.236   8.076   6.740  0.5925  0.8159  2.1320
   64MOL0     H 8385  11.235   8.153   7.151  0.7688 -0.2850 -1.7734
   64MOL0     H 8386  11.056   8.158   7.161 -0.1988  0.8717 -0.1877
   64MOL0     H 8387  11.083   8.352   6.994 -0.3243 -1.5870 -0.7430
   64MOL0     H 8388  11.259   8.342   7.028  1.2978 -1.2597  2.6308
   64MOL0     H 8389  11.192   8.365   7.275  0.1744  0.2388  0.1350
   64MOL0     H 8390  11.024   8.372   7.223 -1.9562  2.9622 -0.3628
   64MOL0     H 8391  11.245   8.566   7.125  0.1607 -0.7789  0.7348
   64MOL0     H 8392  11.080   8.576   7.066 -1.4330  0.0188  1.6140
   64MOL0     H 8393  11.148   8.749   7.244  2.2794 -0.4270  2.9356
   64MOL0     H 8394  11.178   8.628   7.356  2.0741  0.3148 -1.2636
   64MOL0     H 8395  10.949   8.621   7.396 -1.2191  2.3302  0.2639
   64MOL0     H 8396  10.903   8.603   7.227  2.1185 -1.7186 -1.4623
   64MOL0     H 8397  10.936   8.857   7.391 -1.0086  0.2135  0.0990
   64MOL0     H 8398  10.962   8.846   7.211 -0.7599  0.3147  0.2442
   64MOL0     H 8399  10.720   8.710   7.362 -4.2078  4.1844  4.0414
   64MOL0     H 8400  10.721   8.773   7.204  0.8284 -3.9052  0.2927
   64MOL0     H 8401  10.708   8.857   7.586 -0.2770 -1.2317 -0.3860
   64MOL0     H 8402  10.598   9.040   7.723 -1.9704 -2.2896 -1.0847
   64MOL0     H 8403  10.505   9.166   7.627 -0.2721 -0.6500 -1.3101
   64MOL0     H 8404  10.795   9.176   7.689  2.7081  3.1936 -1.4668
   64MOL0     H 8405  10.660   9.248   7.771  1.1234  0.1574 -0.7344
   64MOL0     H 8406  10.737   9.295   7.468 -2.9524  1.1210 -2.7604
   64MOL0     H 8407  10.611   9.378   7.541 -0.8667 -0.9596  1.5417
   64MOL0     H 8408  10.771   9.485   7.707 -3.6773 -1.9233 -0.1277
   64MOL0     H 8409  10.818   9.515   7.541 -0.4753  1.5646  1.0910
   64MOL0     H 8410  11.135   9.284   7.748  0.4067  0.6426 -0.9823
   64MOL0     H 8411  11.305   9.396   7.887 -0.4656  0.0370  1.1153
   64MOL0     H 8412  11.655   9.631   7.853 -3.6387 -0.3427 -2.2831
   64MOL0     H 8413  11.860   9.727   7.905  0.5660 -0.1861  0.2103
   64MOL0     H 8414  12.040   9.926   7.854 -0.0434 -2.3962  0.3037
   64MOL0     H 8415  12.032   9.836   8.003 -0.4393 -0.7673 -0.5769
   64MOL0     H 8416  12.067  10.039   8.132 -3.1451 -1.6098 -1.7398
   64MOL0     H 8417  12.092  10.141   7.979 -2.6312 -1.1551 -0.5231
   64MOL0     H 8418  12.284  10.002   7.923  0.8035  2.1387 -0.2200
   64MOL0     H 8419  12.302   9.923   8.074  2.0158  0.7248 -0.1969
   64MOL0     H 8420  12.281  10.222   8.064 -0.3186 -0.8471  0.1061
   64MOL0     H 8421  12.295  10.133   8.208 -3.4222 -0.5560 -0.2424
   64MOL0     H 8422  12.508  10.141   7.979  0.2889 -2.4896  0.5720
   64MOL0     H 8423  12.517  10.030   8.101  4.5573  1.0407 -3.7223
   64MOL0     H 8424  12.544  10.239   8.264  2.6175  1.0117  0.0389
   64MOL0     H 8425  12.498  10.331   8.121 -0.4160 -1.4175 -1.4437
   64MOL0     H 8426  12.734  10.164   8.172  0.5385 -0.2372 -1.9711
   64MOL0     H 8427  12.714  10.223   8.013 -0.7023  1.0612 -0.7767
   64MOL0     H 8428  12.739  10.466   8.064 -0.2391  1.3931  1.6059
   64MOL0     H 8429  12.866  10.372   8.151 -0.5866  1.6627  1.4105
   64MOL0     H 8430  11.666  10.092   8.020 -0.5830 -0.4430 -0.2990
   64MOL0     H 8431  11.456  10.011   7.959  0.3893  1.2284  3.8426
   64MOL0     H 8432  11.138   9.770   7.777 -4.4197 -0.3117  1.2710
   64MOL0     H 8433  10.958   9.658   7.657 -0.6687  0.7338  2.2093
   64MOL0     H 8434  10.920   8.210   6.979 -0.4034  2.7230 -0.0661
   64MOL0     H 8435  10.793   8.281   6.768  0.8919  1.3867  4.4396
   64MOL0     H 8436  10.880   8.202   6.257 -0.3978  0.4049 -0.7948
   64MOL0     H 8437  10.809   8.264   6.037  1.2356  0.6413 -0.5689
   64MOL0     H 8438  10.608   8.261   5.829 -1.2592  0.7192  0.4094
   64MOL0     H 8439  10.750   8.378   5.852  0.2966  2.9531 -0.5838
   64MOL0     H 8440  10.472   8.466   5.754 -0.4599  0.2452  0.7786
   64MOL0     H 8441  10.627   8.556   5.766  0.6580 -0.2209  1.4542
   64MOL0     H 8442  10.609   8.305   5.595 -1.2405 -0.4977  3.3017
   64MOL0     H 8443  10.737   8.426   5.616 -0.1781  1.3661 -0.7642
   64MOL0     H 8444  10.599   8.604   5.522 -0.4186 -0.0550 -0.8699
   64MOL0     H 8445  10.660   8.485   5.416  0.9304 -0.4934  0.0469
   64MOL0     H 8446  10.273   8.377   5.350 -0.1733 -0.1757 -0.7031
   64MOL0     H 8447  10.461   8.459   6.213 -1.2154 -1.2435  4.8159
   64MOL0     H 8448  10.530   8.386   6.431  0.0116  0.6301  0.1080
   65MOL0     O 8449   1.293   3.903   2.727  0.4668  0.4706  0.3752
   65MOL0     C 8450   1.250   3.895   2.611  0.0556 -0.3780 -0.3561
   65MOL0     O 8451   1.158   3.795   2.573  0.3464 -0.2353  0.2263
   65MOL0     C 8452   1.111   3.713   2.674  0.0464  0.6280 -0.3933
   65MOL0     C 8453   1.101   3.576   2.653  0.2417 -0.8896 -0.1988
   65MOL0     C 8454   1.041   3.491   2.746  0.5745 -0.4077  0.2832
   65MOL0     C 8455   0.962   3.549   2.850 -0.2809  0.0321  0.7066
   65MOL0     O 8456   0.905   3.464   2.934 -0.2212  0.2777 -0.1643
   65MOL0     C 8457   0.870   3.515   3.055  0.8395  0.8577 -0.3434
   65MOL0     C 8458   0.813   3.398   3.146 -0.0026  0.5505  0.0842
   65MOL0     C 8459   0.656   3.392   3.122  0.3558 -0.9232 -0.0025
   65MOL0     C 8460   0.591   3.287   3.205 -0.6224  0.2293  0.0683
   65MOL0     C 8461   0.445   3.282   3.187 -0.3833  0.0002 -0.9370
   65MOL0     C 8462   0.398   3.151   3.247 -0.7255  0.5992 -0.8075
   65MOL0     C 8463   0.252   3.126   3.240  0.2303 -0.4319  0.7727
   65MOL0     C 8464   0.191   3.133   3.107  0.2481 -0.4284  0.9997
   65MOL0     N 8465   0.063   3.069   3.104  0.7595  0.3394  0.1916
   65MOL0     C 8466  -0.052   3.112   3.154  0.1134 -0.8820 -0.7298
   65MOL0     C 8467  -0.152   3.030   3.101 -0.3490  0.9361  0.4154
   65MOL0     C 8468  -0.296   3.024   3.155 -0.0577  0.6145  0.4904
   65MOL0     C 8469  -0.378   3.150   3.119 -0.2593  0.3319  0.4580
   65MOL0     C 8470  -0.524   3.134   3.144  0.5152 -0.0134 -0.7651
   65MOL0     C 8471  -0.605   3.258   3.122 -0.3314  0.0194  0.2314
   65MOL0     O 8472  -0.575   3.353   3.220  1.0127 -0.3912 -0.2812
   65MOL0     C 8473  -0.669   3.461   3.235 -0.7391  0.2125  0.7848
   65MOL0     C 8474  -0.632   3.560   3.331 -0.7138  0.2547 -0.3396
   65MOL0     C 8475  -0.697   3.681   3.332 -0.1874  0.4822  0.8235
   65MOL0     C 8476  -0.817   3.693   3.265  0.5177  0.0866  0.7801
   65MOL0     C 8477  -0.911   3.811   3.292  0.5755  0.8058  0.7282
   65MOL0     O 8478  -0.852   3.910   3.354 -0.3970 -0.6046  0.0179
   65MOL0     C 8479  -0.943   4.008   3.384 -0.9528 -0.2279 -0.2517
   65MOL0     C 8480  -0.944   4.124   3.297 -0.2153  0.3819  0.7117
   65MOL0     C 8481  -1.033   4.224   3.325 -0.8135 -0.1231 -0.0575
   65MOL0     C 8482  -1.111   4.216   3.443  0.0788  0.1700 -1.5601
   65MOL0     O 8483  -1.206   4.313   3.447 -0.5702  0.2936 -0.1988
   65MOL0     C 8484  -1.291   4.306   3.552  0.4512 -0.2432 -0.1731
   65MOL0     C 8485  -1.388   4.423   3.539 -0.1394  0.2235  0.6596
   65MOL0     C 8486  -1.329   4.572   3.555 -0.1126 -0.2763  0.1501
   65MOL0     C 8487  -1.442   4.675   3.560  0.4203  0.2193 -0.4161
   65MOL0     C 8488  -1.399   4.819   3.541  0.5928 -1.0282  0.6252
   65MOL0     C 8489  -1.315   4.863   3.659  0.5148 -0.7364  0.2409
   65MOL0     C 8490  -1.297   5.019   3.649 -0.1240 -0.9008 -0.4885
   65MOL0     C 8491  -1.199   5.073   3.751  0.5496  0.2569 -0.6130
   65MOL0    Cl 8492  -1.175   5.248   3.737 -0.2974 -0.6435  0.2388
   65MOL0     C 8493  -1.104   4.103   3.529 -0.1203  0.1985 -0.7827
   65MOL0     C 8494  -1.020   3.994   3.496  0.6315  0.3879  0.4986
   65MOL0     O 8495  -1.032   3.805   3.244 -0.3609 -0.6792  0.0999
   65MOL0     C 8496  -0.861   3.593   3.171 -0.2730  0.0896 -0.1091
   65MOL0     C 8497  -0.791   3.478   3.164 -0.6819  0.5089  0.0446
   65MOL0     N 8498  -0.090   2.939   3.016  0.5814 -0.0626 -0.4383
   65MOL0     N 8499   0.033   2.962   3.026 -0.0769  0.0854 -0.3195
   65MOL0     C 8500   0.950   3.688   2.852  0.2718 -0.0955 -1.1322
   65MOL0     C 8501   1.016   3.767   2.765  0.7895 -0.1981  0.4439
   65MOL0     C 8502   1.283   3.999   2.512  0.8290  0.3943  0.9262
   65MOL0     C 8503   1.228   3.977   2.379  0.1691 -0.4532 -0.3308
   65MOL0     C 8504   1.262   4.071   2.284  0.4911 -0.5114  0.8440
   65MOL0     C 8505   1.339   4.182   2.311  0.2600  0.2682 -0.7420
   65MOL0     O 8506   1.346   4.273   2.211 -0.3797  0.4407  0.1767
   65MOL0     C 8507   1.483   4.303   2.164  0.6209  0.5146 -0.5684
   65MOL0     C 8508   1.490   4.417   2.065 -0.2626  0.2229  0.0782
   65MOL0     C 8509   1.629   4.442   2.000 -0.3708  0.5383  0.7430
   65MOL0     C 8510   1.707   4.308   1.965 -0.3195 -0.9520  1.4720
   65MOL0     C 8511   1.609   4.234   1.877 -0.4314  0.1882 -0.4649
   65MOL0     C 8512   1.514   4.174   1.825 -0.3048  0.9999 -0.3136
   65MOL0     C 8513   1.382   4.207   2.441  0.4401 -0.7351 -0.4555
   65MOL0     C 8514   1.361   4.108   2.537  0.5561  0.1975  0.0266
   65MOL0     H 8515   1.155   3.532   2.570  0.3465 -7.2930  2.6143
   65MOL0     H 8516   1.024   3.388   2.717 -2.4033  0.4151 -1.2338
   65MOL0     H 8517   0.799   3.596   3.041 -0.1526  0.3186  1.2744
   65MOL0     H 8518   0.961   3.541   3.111 -0.6792  1.3587  2.0693
   65MOL0     H 8519   0.838   3.417   3.251  1.2768 -1.3629  0.1672
   65MOL0     H 8520   0.866   3.306   3.120  1.1270  0.3957  2.6416
   65MOL0     H 8521   0.635   3.380   3.015 -0.8099  2.5344 -0.2705
   65MOL0     H 8522   0.623   3.488   3.161 -1.5962 -0.7388 -1.8823
   65MOL0     H 8523   0.633   3.190   3.177  2.1223  0.9327  1.3921
   65MOL0     H 8524   0.626   3.302   3.307  1.1079 -0.3201 -0.4133
   65MOL0     H 8525   0.396   3.304   3.091 -0.5153 -0.3156 -0.9444
   65MOL0     H 8526   0.410   3.360   3.256 -0.8063  1.3518 -2.5986
   65MOL0     H 8527   0.426   3.132   3.351 -1.6737  2.3679 -0.1783
   65MOL0     H 8528   0.455   3.073   3.197  2.9495  0.5623  2.9478
   65MOL0     H 8529   0.248   3.021   3.270  1.9555 -0.2385  1.8581
   65MOL0     H 8530   0.196   3.179   3.318  0.5605 -1.0056  1.4126
   65MOL0     H 8531   0.253   3.092   3.027  1.0752  1.0251  0.8470
   65MOL0     H 8532   0.186   3.240   3.082  0.6467 -0.9400 -1.4612
   65MOL0     H 8533  -0.083   3.185   3.228 -2.8758 -3.7023  1.0968
   65MOL0     H 8534  -0.289   3.018   3.264  0.9132 -0.5418  0.3835
   65MOL0     H 8535  -0.351   2.936   3.121 -1.9557 -0.1662  4.8668
   65MOL0     H 8536  -0.350   3.177   3.017  1.4026  1.7541  1.2323
   65MOL0     H 8537  -0.345   3.230   3.186  0.1643  1.5229 -1.1081
   65MOL0     H 8538  -0.574   3.066   3.075 -1.5780 -1.0606  1.5951
   65MOL0     H 8539  -0.539   3.110   3.250  4.3008 -0.2147 -0.1407
   65MOL0     H 8540  -0.709   3.231   3.145  0.1143 -0.9541  1.1598
   65MOL0     H 8541  -0.600   3.286   3.016 -0.7749 -3.8142 -0.9595
   65MOL0     H 8542  -0.544   3.534   3.388 -2.0502 -6.2193 -0.3872
   65MOL0     H 8543  -0.665   3.755   3.404  0.1646  4.2222 -2.7432
   65MOL0     H 8544  -0.878   4.119   3.210  0.6505  1.1274  1.3033
   65MOL0     H 8545  -1.047   4.315   3.268 -1.2193  1.7491  2.8455
   65MOL0     H 8546  -1.252   4.310   3.655 -0.4328 -4.1546  0.4853
   65MOL0     H 8547  -1.353   4.217   3.539  0.6453 -0.2281 -1.2521
   65MOL0     H 8548  -1.471   4.408   3.607  2.8167 -1.8730  4.1459
   65MOL0     H 8549  -1.424   4.428   3.436  5.0883 -0.4646 -1.5413
   65MOL0     H 8550  -1.270   4.601   3.468 -1.1042  1.5777  0.0482
   65MOL0     H 8551  -1.260   4.573   3.639  0.7241 -3.1012 -0.3957
   65MOL0     H 8552  -1.518   4.650   3.485  1.1985 -1.1988 -0.7886
   65MOL0     H 8553  -1.495   4.671   3.656  0.1595  0.6229 -0.5403
   65MOL0     H 8554  -1.489   4.881   3.529 -0.0715 -1.5129  2.6313
   65MOL0     H 8555  -1.331   4.829   3.456 -0.4263 -1.4211 -0.2608
   65MOL0     H 8556  -1.218   4.813   3.659 -0.9000 -3.6522  1.0945
   65MOL0     H 8557  -1.371   4.840   3.750 -2.7034  0.1977 -1.3492
   65MOL0     H 8558  -1.259   5.053   3.552  2.7323 -1.5866  0.2992
   65MOL0     H 8559  -1.391   5.068   3.673  0.2317 -1.3053  1.9825
   65MOL0     H 8560  -1.105   5.027   3.719  1.1273  0.5268  0.6216
   65MOL0     H 8561  -1.235   5.037   3.848 -3.0555 -1.8587 -2.5325
   65MOL0     H 8562  -1.176   4.100   3.610  1.2608  2.0245  0.5796
   65MOL0     H 8563  -1.035   3.902   3.551  0.9396  0.3621  0.5365
   65MOL0     H 8564  -0.954   3.598   3.116 -1.8189 -1.2100  2.2133
   65MOL0     H 8565  -0.825   3.405   3.092 -0.0027  0.0031  0.2259
   65MOL0     H 8566   0.887   3.728   2.930 -0.9485  0.9639 -2.6054
   65MOL0     H 8567   0.998   3.874   2.767  0.4655 -0.1743 -1.6113
   65MOL0     H 8568   1.164   3.896   2.344 -1.9946  0.6091  0.9403
   65MOL0     H 8569   1.217   4.054   2.186  0.5952  1.7271  0.3386
   65MOL0     H 8570   1.521   4.209   2.125 -1.0190 -0.1930 -0.5567
   65MOL0     H 8571   1.540   4.328   2.254  1.4012 -1.6961 -0.3830
   65MOL0     H 8572   1.419   4.402   1.983  0.5071  0.2849 -0.6108
   65MOL0     H 8573   1.457   4.511   2.110 -0.4926 -0.2098  0.8284
   65MOL0     H 8574   1.689   4.492   2.077 -1.9914 -1.0414  3.1979
   65MOL0     H 8575   1.625   4.497   1.906  2.2791 -2.1790 -1.1378
   65MOL0     H 8576   1.794   4.339   1.907 -2.2031  2.2380  0.1101
   65MOL0     H 8577   1.728   4.247   2.054 -0.5610 -2.5124  0.4965
   65MOL0     H 8578   1.431   4.141   1.767 -1.1569  1.5775  0.5535
   65MOL0     H 8579   1.438   4.296   2.468 -0.7372 -0.5577  1.5503
   65MOL0     H 8580   1.383   4.132   2.640 -2.2671 -1.3701  1.0904
   66MOL0     O 8581   5.098   1.583   3.034 -0.1458 -0.0946 -0.1107
   66MOL0     C 8582   5.019   1.677   3.022 -1.1190 -0.5420  0.8367
   66MOL0     O 8583   5.000   1.770   3.116  0.2507 -0.0450 -0.3209
   66MOL0     C 8584   5.084   1.774   3.226  0.0132  0.0363  0.2192
   66MOL0     C 8585   5.020   1.782   3.346 -0.0842 -0.1997  0.4721
   66MOL0     C 8586   5.090   1.807   3.465 -0.3989  0.2559  0.2135
   66MOL0     C 8587   5.230   1.835   3.458  0.4706  1.4012  0.5227
   66MOL0     O 8588   5.282   1.866   3.581 -0.1052 -0.3917 -0.2677
   66MOL0     C 8589   5.364   1.775   3.650 -0.9772 -1.3023 -0.3375
   66MOL0     C 8590   5.441   1.849   3.759 -1.0265  0.3720 -0.4717
   66MOL0     C 8591   5.493   1.740   3.852 -0.0018 -0.4657 -0.1761
   66MOL0     C 8592   5.588   1.794   3.954  0.7802  0.4854  0.3123
   66MOL0     C 8593   5.598   1.701   4.086  0.9303  0.3751 -0.2766
   66MOL0     C 8594   5.654   1.564   4.050 -0.3057  0.6785 -0.0274
   66MOL0     C 8595   5.670   1.463   4.167 -0.1008  0.3596 -0.1732
   66MOL0     C 8596   5.713   1.322   4.118 -0.2318  0.7462 -0.9667
   66MOL0     N 8597   5.797   1.265   4.225 -0.9304  0.0857 -0.3547
   66MOL0     C 8598   5.922   1.299   4.259  0.1436 -0.3271  0.0262
   66MOL0     C 8599   5.961   1.221   4.365  0.0544 -0.6979 -0.5510
   66MOL0     C 8600   6.092   1.204   4.442  0.0293  0.1325  0.4122
   66MOL0     C 8601   6.177   1.081   4.413 -0.7122 -0.0689  0.2360
   66MOL0     C 8602   6.105   0.954   4.466 -0.3017 -0.4881  0.8572
   66MOL0     C 8603   6.178   0.825   4.441 -0.3276  0.1420  0.6449
   66MOL0     O 8604   6.296   0.829   4.508  0.2044  0.9718  0.7348
   66MOL0     C 8605   6.387   0.730   4.489 -0.0805  0.4888  0.0414
   66MOL0     C 8606   6.367   0.613   4.417  0.2834  0.1132 -0.1869
   66MOL0     C 8607   6.465   0.520   4.393 -0.0482  0.3034 -0.4103
   66MOL0     C 8608   6.596   0.532   4.450 -0.5725  1.1772  0.2084
   66MOL0     C 8609   6.693   0.428   4.420 -0.3862 -0.1597 -0.0165
   66MOL0     O 8610   6.646   0.318   4.342 -0.1794 -0.5485  0.0139
   66MOL0     C 8611   6.727   0.225   4.285 -1.2690 -0.7940 -0.7610
   66MOL0     C 8612   6.861   0.195   4.333 -0.0146  0.4806  0.0777
   66MOL0     C 8613   6.938   0.091   4.271 -0.0805  0.3866 -1.1293
   66MOL0     C 8614   6.873   0.021   4.164  0.1051  0.9360  0.1110
   66MOL0     O 8615   6.939  -0.078   4.089  0.1842  0.9727  0.1727
   66MOL0     C 8616   7.082  -0.056   4.077 -0.5990  0.5549  0.0429
   66MOL0     C 8617   7.161  -0.167   3.992 -0.1392  1.1418 -0.5509
   66MOL0     C 8618   7.114  -0.159   3.848 -0.7370  0.3025 -0.6991
   66MOL0     C 8619   7.186  -0.268   3.766 -1.1913  0.6911  0.1283
   66MOL0     C 8620   7.163  -0.260   3.608  0.2655 -0.0915  0.2682
   66MOL0     C 8621   7.203  -0.126   3.556  0.2658  0.0392 -1.1644
   66MOL0     C 8622   7.221  -0.132   3.399 -0.2161 -0.4381 -0.6214
   66MOL0     C 8623   7.244   0.004   3.332  0.1734  0.0301 -0.1301
   66MOL0    Cl 8624   7.415   0.058   3.365  0.1888  0.4451 -0.0434
   66MOL0     C 8625   6.747   0.055   4.116  0.3472 -0.8049 -0.0679
   66MOL0     C 8626   6.673   0.157   4.172 -1.1495 -0.5937 -0.0996
   66MOL0     O 8627   6.809   0.437   4.460  0.6630 -0.2700  0.5101
   66MOL0     C 8628   6.621   0.648   4.522 -0.2101  0.0143 -0.1936
   66MOL0     C 8629   6.519   0.743   4.542 -0.0987 -0.0632  1.0347
   66MOL0     N 8630   5.855   1.133   4.382 -0.2818 -0.3410  0.4206
   66MOL0     N 8631   5.756   1.174   4.309  0.9575  0.2256 -0.1692
   66MOL0     C 8632   5.294   1.838   3.331  0.0867 -0.5581 -0.0838
   66MOL0     C 8633   5.218   1.803   3.216  0.2956  1.1385  0.4695
   66MOL0     C 8634   4.945   1.708   2.901 -0.7215  0.3183 -0.1879
   66MOL0     C 8635   4.834   1.803   2.896 -0.2051 -0.0486  0.5610
   66MOL0     C 8636   4.779   1.846   2.776  0.4125 -0.1983 -0.0324
   66MOL0     C 8637   4.838   1.800   2.653 -0.2115  0.1819  0.0155
   66MOL0     O 8638   4.784   1.864   2.544  0.1789  0.2516  0.2424
   66MOL0     C 8639   4.857   1.843   2.415 -0.5219 -0.3784  0.4770
   66MOL0     C 8640   4.818   1.716   2.339 -1.0647  0.1714  0.5050
   66MOL0     C 8641   4.908   1.671   2.233 -0.1724 -0.6453  0.6215
   66MOL0     C 8642   5.065   1.653   2.268 -0.1627  0.0562 -0.2311
   66MOL0     C 8643   5.152   1.631   2.145 -0.6734 -0.0789 -0.1181
   66MOL0     C 8644   5.210   1.600   2.043  0.4704 -0.4841 -0.7486
   66MOL0     C 8645   4.944   1.703   2.655 -0.5476 -0.0798  0.0338
   66MOL0     C 8646   4.987   1.662   2.781 -0.8073 -0.3176  0.7606
   66MOL0     H 8647   4.915   1.758   3.355 -0.1208  0.3853  1.7627
   66MOL0     H 8648   5.035   1.803   3.558  1.3491 -1.2121  1.2635
   66MOL0     H 8649   5.434   1.731   3.578 -2.1610 -0.8396 -1.8251
   66MOL0     H 8650   5.298   1.701   3.697 -1.7291  0.0549  0.8160
   66MOL0     H 8651   5.369   1.907   3.817 -1.5042 -1.4326  0.8453
   66MOL0     H 8652   5.526   1.912   3.730  0.4957 -0.6744  1.4894
   66MOL0     H 8653   5.542   1.660   3.795  3.1164  0.0745  1.5386
   66MOL0     H 8654   5.403   1.696   3.897 -1.3670  1.8047 -0.5545
   66MOL0     H 8655   5.691   1.797   3.920  0.4321  2.3490 -0.6659
   66MOL0     H 8656   5.567   1.897   3.983 -1.1722 -0.0943  1.1197
   66MOL0     H 8657   5.499   1.690   4.130  2.2110 -4.9941  2.0179
   66MOL0     H 8658   5.664   1.749   4.158  1.9555 -2.2214  0.6274
   66MOL0     H 8659   5.749   1.566   3.996 -0.0936  2.9606  0.3010
   66MOL0     H 8660   5.579   1.521   3.983 -0.4782  1.7629 -0.5529
   66MOL0     H 8661   5.743   1.495   4.242 -1.4638 -0.0500  1.3846
   66MOL0     H 8662   5.567   1.461   4.206 -0.8636  2.0567 -1.9083
   66MOL0     H 8663   5.769   1.336   4.025 -0.0203  0.5776 -0.8665
   66MOL0     H 8664   5.629   1.257   4.092  1.9249 -3.3147  1.1066
   66MOL0     H 8665   5.990   1.372   4.215  0.3252 -0.2730  0.3905
   66MOL0     H 8666   6.072   1.190   4.549  3.6771  0.4320  1.2877
   66MOL0     H 8667   6.154   1.294   4.435 -1.2731  1.0750  0.7330
   66MOL0     H 8668   6.273   1.100   4.462  0.3699 -0.6360 -1.5632
   66MOL0     H 8669   6.194   1.080   4.305 -0.5625  1.0309  0.2317
   66MOL0     H 8670   6.075   0.964   4.571  3.3989  4.9715  1.7975
   66MOL0     H 8671   6.015   0.953   4.404  0.9297  4.1562 -1.4401
   66MOL0     H 8672   6.183   0.807   4.334  0.6878 -1.1138  0.8830
   66MOL0     H 8673   6.131   0.736   4.482  0.8348 -0.5116  0.6001
   66MOL0     H 8674   6.272   0.587   4.371  1.3920 -1.3921 -1.7258
   66MOL0     H 8675   6.426   0.430   4.345  0.1684 -0.3760  0.6483
   66MOL0     H 8676   6.918   0.231   4.418  1.6899  0.6218 -1.0598
   66MOL0     H 8677   7.032   0.065   4.319 -1.7968 -2.1782  1.1053
   66MOL0     H 8678   7.129  -0.072   4.174 -0.2162  2.0654  0.1371
   66MOL0     H 8679   7.119   0.039   4.036 -0.4820  0.4770 -0.0349
   66MOL0     H 8680   7.136  -0.266   4.032 -1.2741  0.0876 -3.6046
   66MOL0     H 8681   7.270  -0.166   4.001  0.0720 -1.7236 -1.9708
   66MOL0     H 8682   7.138  -0.057   3.814 -1.4533  1.0250  0.8606
   66MOL0     H 8683   7.006  -0.174   3.853 -0.3506 -3.6120 -1.1185
   66MOL0     H 8684   7.294  -0.274   3.776 -0.7872  1.2209 -2.9606
   66MOL0     H 8685   7.155  -0.372   3.786  1.0575  0.1403  1.0531
   66MOL0     H 8686   7.056  -0.265   3.585 -0.1709 -0.4923  2.2115
   66MOL0     H 8687   7.224  -0.334   3.556 -0.7367  0.5969 -1.9936
   66MOL0     H 8688   7.299  -0.094   3.597  0.9420  0.1962 -2.7950
   66MOL0     H 8689   7.146  -0.036   3.583  1.2376 -0.1768  1.9775
   66MOL0     H 8690   7.313  -0.190   3.392 -0.0314 -0.0112 -2.0937
   66MOL0     H 8691   7.140  -0.178   3.341 -1.0963 -0.5025  0.6271
   66MOL0     H 8692   7.179   0.084   3.369  3.0424  1.4028  2.4067
   66MOL0     H 8693   7.236   0.011   3.223  0.9298 -0.0356 -0.1981
   66MOL0     H 8694   6.717  -0.006   4.032 -2.6276 -0.3493  0.5413
   66MOL0     H 8695   6.571   0.185   4.148 -0.6155  0.8322 -0.8263
   66MOL0     H 8696   6.715   0.671   4.571  0.1160  0.6156 -1.0725
   66MOL0     H 8697   6.549   0.839   4.583  1.2346  0.4609 -1.0231
   66MOL0     H 8698   5.402   1.845   3.332  0.0977 -0.4955  1.4252
   66MOL0     H 8699   5.264   1.809   3.118  0.5416 -0.1227  0.4931
   66MOL0     H 8700   4.776   1.841   2.980 -1.1156  2.8449 -1.2000
   66MOL0     H 8701   4.699   1.920   2.776  1.0938  0.5671  0.6822
   66MOL0     H 8702   4.962   1.845   2.447 -0.8119  0.4005  1.4010
   66MOL0     H 8703   4.819   1.935   2.369  0.1509  1.0433  2.6204
   66MOL0     H 8704   4.830   1.637   2.414  1.3331  2.7947  3.1285
   66MOL0     H 8705   4.718   1.719   2.294 -0.5600 -0.2355 -0.6861
   66MOL0     H 8706   4.903   1.750   2.158  2.3031 -2.0077 -1.1352
   66MOL0     H 8707   4.878   1.581   2.178 -0.9890 -0.3302  0.5390
   66MOL0     H 8708   5.103   1.740   2.321 -1.3723 -1.3840  3.3215
   66MOL0     H 8709   5.075   1.564   2.332  1.9871 -1.2981 -2.3018
   66MOL0     H 8710   5.242   1.571   1.945 -0.0184 -0.4991 -0.9095
   66MOL0     H 8711   5.000   1.665   2.571  1.1064 -3.0473  2.2939
   66MOL0     H 8712   5.067   1.589   2.790  0.4201  1.0440  1.4123
   67MOL0     O 8713   2.267   7.898   8.385  0.1343 -0.5818 -0.4452
   67MOL0     C 8714   2.326   7.820   8.459 -1.0976 -0.5454 -0.8899
   67MOL0     O 8715   2.347   7.836   8.591  0.4973  0.0319 -0.6069
   67MOL0     C 8716   2.330   7.960   8.640 -0.8778 -1.3766  0.2720
   67MOL0     C 8717   2.215   8.027   8.631 -0.4142 -0.5878  0.5065
   67MOL0     C 8718   2.211   8.157   8.691 -0.2190  0.2674 -0.2683
   67MOL0     C 8719   2.319   8.212   8.763  0.0518 -0.1279  0.5743
   67MOL0     O 8720   2.301   8.338   8.827 -0.2967  0.6248 -0.6118
   67MOL0     C 8721   2.252   8.454   8.752  0.1132  0.5279 -0.1935
   67MOL0     C 8722   2.370   8.508   8.672 -0.4695 -0.0927  0.2741
   67MOL0     C 8723   2.503   8.534   8.750 -0.5680  0.1768 -0.1116
   67MOL0     C 8724   2.500   8.653   8.850 -0.0600  0.5056 -0.8598
   67MOL0     C 8725   2.546   8.775   8.772  0.6800  1.2485  0.0666
   67MOL0     C 8726   2.533   8.905   8.855  0.5519  0.1089 -0.3707
   67MOL0     C 8727   2.648   8.917   8.968 -0.4432 -0.1451 -0.3149
   67MOL0     C 8728   2.784   8.961   8.912  0.2324 -0.0027  0.7446
   67MOL0     N 8729   2.881   8.952   9.025 -0.3099  0.1466  0.2005
   67MOL0     C 8730   2.880   8.998   9.156 -0.8809  0.0246 -0.9875
   67MOL0     C 8731   2.964   8.920   9.229 -0.2924 -0.3832 -0.8540
   67MOL0     C 8732   2.992   8.926   9.380  0.1000 -0.0177 -0.1371
   67MOL0     C 8733   2.874   8.857   9.454  0.2132 -0.6185  0.1800
   67MOL0     C 8734   2.925   8.815   9.593  0.9982 -0.0210  0.5919
   67MOL0     C 8735   2.971   8.930   9.676  0.5278  0.1148  0.2052
   67MOL0     O 8736   3.109   8.941   9.705  0.9537 -0.3257 -0.0677
   67MOL0     C 8737   3.159   9.032   9.802  0.5269  0.6251 -0.6450
   67MOL0     C 8738   3.082   9.139   9.863  0.4316 -0.0275 -0.6578
   67MOL0     C 8739   3.142   9.213   9.963  0.7923 -0.6082 -0.7930
   67MOL0     C 8740   3.277   9.192  10.006  0.9594 -0.4741  0.5600
   67MOL0     C 8741   3.347   9.285  10.106  0.6749 -0.0504  0.5490
   67MOL0     O 8742   3.262   9.367  10.175 -0.2186  0.2139 -0.2259
   67MOL0     C 8743   3.301   9.471  10.247 -1.0826 -0.1477 -1.0352
   67MOL0     C 8744   3.366   9.451  10.369 -0.1881 -0.3141 -0.7253
   67MOL0     C 8745   3.389   9.560  10.454  0.3420 -0.3906 -0.5946
   67MOL0     C 8746   3.357   9.690  10.419  0.1552 -0.3090  0.0913
   67MOL0     O 8747   3.371   9.785  10.524 -0.2422 -0.5563 -0.9743
   67MOL0     C 8748   3.351   9.924  10.487  0.1653 -0.3764 -0.2716
   67MOL0     C 8749   3.470   9.978  10.407  0.2610  0.5260 -0.8850
   67MOL0     C 8750   3.412  10.097  10.341 -0.4098  0.7220  0.0632
   67MOL0     C 8751   3.525  10.178  10.280  0.4542  0.9501 -0.5398
   67MOL0     C 8752   3.477  10.310  10.234  0.4482 -0.0011  0.0548
   67MOL0     C 8753   3.586  10.401  10.208 -0.5994  0.4980  0.6062
   67MOL0     C 8754   3.539  10.530  10.143 -0.3774 -0.9655  0.1845
   67MOL0     C 8755   3.628  10.648  10.158 -0.9251  0.1317 -0.0034
   67MOL0    Cl 8756   3.801  10.621  10.144 -0.0390  0.0296 -0.3335
   67MOL0     C 8757   3.305   9.716  10.286  0.3856  0.9506 -0.3203
   67MOL0     C 8758   3.263   9.612  10.206 -0.1036 -0.0772 -0.0144
   67MOL0     O 8759   3.470   9.290  10.115 -0.6337  0.8339 -0.0146
   67MOL0     C 8760   3.350   9.082   9.945  0.1007  0.3403  0.4606
   67MOL0     C 8761   3.292   9.003   9.849 -0.0570  0.3731 -0.2284
   67MOL0     N 8762   3.011   8.822   9.150 -0.2605  0.3875 -0.8537
   67MOL0     N 8763   2.971   8.845   9.033 -0.0093  0.0076 -0.2920
   67MOL0     C 8764   2.427   8.130   8.786  0.0003  0.2807 -0.6636
   67MOL0     C 8765   2.437   8.003   8.725  0.7062 -0.2248 -0.0537
   67MOL0     C 8766   2.360   7.686   8.416  0.1977  0.2567  1.0657
   67MOL0     C 8767   2.315   7.640   8.284  0.2696 -0.2609  0.0026
   67MOL0     C 8768   2.337   7.510   8.251 -0.2760  0.7078  0.0207
   67MOL0     C 8769   2.424   7.426   8.323 -0.4874 -0.4293  0.3541
   67MOL0     O 8770   2.483   7.303   8.284  0.0273 -0.1815 -0.2360
   67MOL0     C 8771   2.416   7.249   8.170  0.2289  0.2445 -0.4109
   67MOL0     C 8772   2.450   7.111   8.129  0.4233 -0.3132  0.5902
   67MOL0     C 8773   2.403   6.990   8.215  0.9571  0.8433 -0.5926
   67MOL0     C 8774   2.301   6.903   8.139 -0.6888 -0.0022  0.4852
   67MOL0     C 8775   2.374   6.824   8.042 -0.9668  0.5757  0.0484
   67MOL0     C 8776   2.427   6.762   7.951 -0.5169  0.5517  0.1449
   67MOL0     C 8777   2.463   7.485   8.441 -0.4741  0.4125 -1.1599
   67MOL0     C 8778   2.434   7.608   8.494 -0.9608  0.9787  0.3170
   67MOL0     H 8779   2.122   7.992   8.587  0.3146 -3.1759  0.8740
   67MOL0     H 8780   2.123   8.219   8.678 -0.0645  0.6758  0.5939
   67MOL0     H 8781   2.222   8.530   8.825  0.0153  0.5379 -0.2453
   67MOL0     H 8782   2.171   8.446   8.679 -0.7262  0.6952  0.7054
   67MOL0     H 8783   2.330   8.599   8.626  0.7724 -0.3177 -1.3150
   67MOL0     H 8784   2.403   8.441   8.592  2.4871  1.3614  0.1329
   67MOL0     H 8785   2.586   8.542   8.680 -0.5356  0.5808 -0.0330
   67MOL0     H 8786   2.530   8.450   8.814  1.4358  1.3150  0.6377
   67MOL0     H 8787   2.397   8.672   8.883 -1.1193  1.7671 -4.4088
   67MOL0     H 8788   2.561   8.632   8.939  1.6487  4.1018 -0.9953
   67MOL0     H 8789   2.495   8.791   8.677  1.5177  1.4548 -0.3561
   67MOL0     H 8790   2.652   8.764   8.751  0.9957  2.5956  0.8668
   67MOL0     H 8791   2.435   8.912   8.903 -0.0479 -0.7759 -1.4336
   67MOL0     H 8792   2.535   8.996   8.796 -0.0324  0.8708  0.7474
   67MOL0     H 8793   2.625   8.996   9.041  0.9956  0.6581 -0.6865
   67MOL0     H 8794   2.669   8.825   9.024 -1.0955  0.4938  1.0242
   67MOL0     H 8795   2.776   9.064   8.877  1.3549  0.7609  2.5749
   67MOL0     H 8796   2.809   8.899   8.826 -2.1029  2.0108 -1.5666
   67MOL0     H 8797   2.819   9.080   9.191 -1.7229 -0.9503 -0.0752
   67MOL0     H 8798   2.999   9.029   9.416 -0.2118 -0.9448  2.8925
   67MOL0     H 8799   3.076   8.860   9.405 -0.6078 -0.5819  0.8401
   67MOL0     H 8800   2.830   8.773   9.399 -3.9108 -1.5297  4.2123
   67MOL0     H 8801   2.792   8.928   9.468  0.1556 -1.1036  3.0914
   67MOL0     H 8802   2.836   8.772   9.641  2.3999 -1.3404  2.1350
   67MOL0     H 8803   3.002   8.739   9.582 -0.0410 -1.2719  1.5732
   67MOL0     H 8804   2.926   8.932   9.776 -0.7319  2.9263 -0.3254
   67MOL0     H 8805   2.917   9.018   9.641 -4.8298 -2.3755  1.2516
   67MOL0     H 8806   2.979   9.160   9.835  0.0223  2.1384  2.1060
   67MOL0     H 8807   3.088   9.298  10.004  0.3446 -0.5554 -1.4653
   67MOL0     H 8808   3.395   9.350  10.396 -0.0376  0.3402  1.7784
   67MOL0     H 8809   3.423   9.554  10.556  1.1189 -0.9037 -0.8802
   67MOL0     H 8810   3.334   9.990  10.573  3.5862 -1.2477  1.2707
   67MOL0     H 8811   3.255   9.920  10.435 -0.6696 -1.6684  1.2755
   67MOL0     H 8812   3.501   9.894  10.345 -0.7178  0.7234 -1.6830
   67MOL0     H 8813   3.550   9.991  10.479 -1.4996  0.7535  1.1271
   67MOL0     H 8814   3.370  10.157  10.422 -0.6509 -2.3291  2.3660
   67MOL0     H 8815   3.345  10.065  10.260 -1.3107  0.2321  0.9708
   67MOL0     H 8816   3.603  10.189  10.356  0.4693  0.8899 -0.5458
   67MOL0     H 8817   3.572  10.126  10.196 -0.0473  2.3096 -1.6915
   67MOL0     H 8818   3.416  10.354  10.313  1.9654 -1.5820  2.2210
   67MOL0     H 8819   3.425  10.298  10.138  0.2733  0.8997  0.0305
   67MOL0     H 8820   3.644  10.337  10.141 -1.1045 -2.5181  2.8402
   67MOL0     H 8821   3.649  10.409  10.297 -1.3218 -0.3013  1.1983
   67MOL0     H 8822   3.511  10.518  10.038 -0.6301 -2.5623  0.4102
   67MOL0     H 8823   3.450  10.563  10.197 -0.1491  1.7398 -0.9629
   67MOL0     H 8824   3.620  10.671  10.265  2.4110 -1.1857  0.6518
   67MOL0     H 8825   3.586  10.720  10.087  0.5317  0.8669 -0.1555
   67MOL0     H 8826   3.303   9.821  10.260  2.6154  0.9218 -0.7754
   67MOL0     H 8827   3.206   9.623  10.115  0.1651 -3.2687 -0.6729
   67MOL0     H 8828   3.451   9.065   9.980  0.9397  0.7137 -1.6108
   67MOL0     H 8829   3.351   8.915   9.824  0.4966  0.8857 -0.7706
   67MOL0     H 8830   2.510   8.162   8.848  0.3286 -0.6556 -0.6003
   67MOL0     H 8831   2.529   7.948   8.742  0.2676 -0.4445  1.7921
   67MOL0     H 8832   2.256   7.705   8.219  3.2995  3.7006  0.8587
   67MOL0     H 8833   2.294   7.476   8.157  0.8551 -1.2247  0.1519
   67MOL0     H 8834   2.426   7.309   8.080 -3.1310  2.6015  0.5891
   67MOL0     H 8835   2.307   7.250   8.179  0.2150  2.0250 -0.5896
   67MOL0     H 8836   2.415   7.101   8.025  0.4768 -2.0289  0.7085
   67MOL0     H 8837   2.559   7.105   8.121  0.3278 -2.3662  0.3700
   67MOL0     H 8838   2.357   7.028   8.306 -0.7262 -0.0699 -1.0253
   67MOL0     H 8839   2.480   6.925   8.258 -0.8793 -0.5968  0.6440
   67MOL0     H 8840   2.246   6.839   8.209 -1.0261 -0.3515 -0.0832
   67MOL0     H 8841   2.231   6.970   8.088  0.4793  0.7552 -0.1699
   67MOL0     H 8842   2.458   6.716   7.860 -3.0011  3.7731 -2.5579
   67MOL0     H 8843   2.532   7.431   8.505 -1.2301 -1.1599 -1.6172
   67MOL0     H 8844   2.481   7.623   8.591  1.6252 -1.1698 -0.4579
   68MOL0     O 8845   6.559   9.266  10.587  1.3277 -0.1577 -0.4057
   68MOL0     C 8846   6.521   9.379  10.592  0.2682 -0.1058 -0.6961
   68MOL0     O 8847   6.397   9.426  10.572  0.1317 -0.6582 -0.1110
   68MOL0     C 8848   6.283   9.347  10.589  0.3247 -0.0098  0.4156
   68MOL0     C 8849   6.280   9.255  10.692  0.4535  0.6045 -0.4480
   68MOL0     C 8850   6.160   9.178  10.707 -0.1585  0.7050 -0.5627
   68MOL0     C 8851   6.052   9.186  10.621 -0.9017 -1.1219 -0.2770
   68MOL0     O 8852   5.946   9.101  10.613  0.0224  0.0259 -0.1851
   68MOL0     C 8853   5.943   8.975  10.685 -0.5615  0.0870 -0.3656
   68MOL0     C 8854   6.018   8.871  10.621 -0.0841 -0.6342 -0.0285
   68MOL0     C 8855   5.975   8.841  10.476 -0.6146 -0.2819  0.0818
   68MOL0     C 8856   6.065   8.726  10.418  0.1907 -0.0209  0.5877
   68MOL0     C 8857   6.016   8.710  10.266  0.0587  0.1597  0.3308
   68MOL0     C 8858   6.085   8.589  10.202 -0.1132  0.0625 -0.4557
   68MOL0     C 8859   5.994   8.503  10.115 -0.0461  0.4927 -0.6500
   68MOL0     C 8860   5.914   8.590  10.006 -0.3125 -0.6856 -0.4874
   68MOL0     N 8861   5.911   8.516   9.883  0.4074  0.3017  0.6859
   68MOL0     C 8862   5.995   8.533   9.773 -0.2098  0.0690 -0.2691
   68MOL0     C 8863   5.977   8.425   9.703  0.2561  0.1466 -0.1291
   68MOL0     C 8864   6.041   8.397   9.577 -0.1318  0.9056 -0.2666
   68MOL0     C 8865   5.961   8.447   9.456 -0.1539 -0.8216  0.1685
   68MOL0     C 8866   6.014   8.412   9.315  0.0689 -0.2263  0.7420
   68MOL0     C 8867   5.977   8.278   9.273 -0.0005 -0.0615 -0.0415
   68MOL0     O 8868   5.929   8.280   9.135  0.2893 -0.3508 -0.6683
   68MOL0     C 8869   5.799   8.301   9.115  1.0957  0.1925 -1.0273
   68MOL0     C 8870   5.756   8.301   8.986  0.0685  0.2485  0.1876
   68MOL0     C 8871   5.615   8.307   8.952  0.9185 -0.0865  0.0757
   68MOL0     C 8872   5.519   8.314   9.051 -0.5845 -0.9689  0.1752
   68MOL0     C 8873   5.380   8.322   9.007 -0.3055  0.6944 -0.1022
   68MOL0     O 8874   5.349   8.322   8.874  0.4337  0.0820  0.7415
   68MOL0     C 8875   5.223   8.321   8.829  0.5617 -0.5219 -0.1608
   68MOL0     C 8876   5.182   8.208   8.757  0.1814 -0.5547 -0.0836
   68MOL0     C 8877   5.054   8.215   8.689 -0.3612 -0.5509 -0.0236
   68MOL0     C 8878   4.964   8.324   8.701  0.6408  0.2455 -0.7102
   68MOL0     O 8879   4.846   8.322   8.623  0.4405 -0.7308 -0.1067
   68MOL0     C 8880   4.745   8.420   8.635  0.3918 -0.8644  0.0925
   68MOL0     C 8881   4.641   8.413   8.526 -0.7129  0.5045 -0.9420
   68MOL0     C 8882   4.573   8.547   8.517  0.3585 -0.3321  0.6962
   68MOL0     C 8883   4.453   8.530   8.421  0.1522 -0.2651 -0.5924
   68MOL0     C 8884   4.377   8.657   8.417  1.0055 -0.2882 -0.0057
   68MOL0     C 8885   4.415   8.724   8.285 -1.0441  0.4578  0.6032
   68MOL0     C 8886   4.343   8.845   8.235  0.2301  1.1053 -0.1405
   68MOL0     C 8887   4.335   8.963   8.334  0.4832  0.2321  0.4738
   68MOL0    Cl 8888   4.261   9.107   8.257  0.1078  0.1813 -0.1692
   68MOL0     C 8889   5.007   8.426   8.793  0.3309 -0.3115  0.6688
   68MOL0     C 8890   5.135   8.429   8.842  0.0232 -0.5562  0.0330
   68MOL0     O 8891   5.303   8.321   9.103 -0.1765  0.0911 -0.1779
   68MOL0     C 8892   5.565   8.310   9.181 -0.1234  0.1537 -1.0213
   68MOL0     C 8893   5.696   8.304   9.215 -0.5477 -0.0229 -0.6705
   68MOL0     N 8894   5.876   8.347   9.757 -0.2005 -0.2683 -0.0285
   68MOL0     N 8895   5.831   8.406   9.858 -0.0018 -0.2593 -0.4580
   68MOL0     C 8896   6.057   9.284  10.525 -0.4294  0.2976 -0.0408
   68MOL0     C 8897   6.174   9.364  10.504  0.1811  0.6757 -0.8777
   68MOL0     C 8898   6.618   9.490  10.611 -0.4110 -0.0562  1.0627
   68MOL0     C 8899   6.726   9.479  10.695 -0.3074  0.4527 -0.5205
   68MOL0     C 8900   6.809   9.584  10.722  0.8605 -0.5131  0.9471
   68MOL0     C 8901   6.782   9.713  10.675  0.0616 -0.0761 -0.1431
   68MOL0     O 8902   6.875   9.820  10.688  0.2772 -0.0307 -0.3911
   68MOL0     C 8903   7.008   9.780  10.705  0.1056 -0.5145  0.5300
   68MOL0     C 8904   7.074   9.902  10.669  0.2501  0.3001 -0.0277
   68MOL0     C 8905   7.224   9.900  10.718 -0.6360  0.2615  0.3715
   68MOL0     C 8906   7.305  10.020  10.661 -0.2424  0.5427 -0.0683
   68MOL0     C 8907   7.317   9.996  10.518  0.1599 -0.2962 -0.2624
   68MOL0     C 8908   7.338   9.988  10.397 -0.1699 -0.8227  0.0873
   68MOL0     C 8909   6.682   9.725  10.577 -1.2655  0.7491 -0.1245
   68MOL0     C 8910   6.597   9.618  10.544 -0.2412  0.5311 -0.0588
   68MOL0     H 8911   6.368   9.232  10.751  0.1236 -3.2362 -1.2341
   68MOL0     H 8912   6.157   9.098  10.781 -0.7349  0.6444 -0.6476
   68MOL0     H 8913   5.839   8.943  10.669 -1.1691 -0.2513  3.3075
   68MOL0     H 8914   5.968   8.985  10.791  0.6016 -2.9613 -0.2535
   68MOL0     H 8915   6.005   8.773  10.668 -1.3696 -0.9393 -0.9610
   68MOL0     H 8916   6.123   8.897  10.638  0.2214 -0.9112 -1.3610
   68MOL0     H 8917   5.981   8.931  10.415 -0.8238  0.7968  1.6060
   68MOL0     H 8918   5.870   8.810  10.473 -0.8836  0.2926  2.1554
   68MOL0     H 8919   6.170   8.755  10.408 -0.1505  0.8081 -0.8872
   68MOL0     H 8920   6.066   8.636  10.480  3.0351  0.2890  1.1257
   68MOL0     H 8921   6.041   8.802  10.213  1.2540  0.6319  1.6492
   68MOL0     H 8922   5.909   8.694  10.248 -0.3285  2.7269 -0.0666
   68MOL0     H 8923   6.142   8.520  10.264  1.1532  1.8849  0.4915
   68MOL0     H 8924   6.162   8.632  10.138  0.6697 -0.3826  0.1714
   68MOL0     H 8925   6.050   8.424  10.065 -0.7886 -0.1798 -0.4410
   68MOL0     H 8926   5.928   8.437  10.173  0.9652  0.1580  0.1385
   68MOL0     H 8927   5.954   8.692   9.995 -0.0613 -0.3235  2.8282
   68MOL0     H 8928   5.814   8.603  10.047  0.6473  1.1095  1.5293
   68MOL0     H 8929   6.071   8.610   9.759  0.2711 -0.7251 -2.3377
   68MOL0     H 8930   6.068   8.291   9.569  3.8603  1.9035 -2.8115
   68MOL0     H 8931   6.136   8.451   9.573  1.5424 -1.8319  0.2130
   68MOL0     H 8932   5.964   8.556   9.460  0.9543 -0.8038 -0.6927
   68MOL0     H 8933   5.855   8.425   9.470 -0.7981  1.2255 -1.0198
   68MOL0     H 8934   5.961   8.475   9.243  2.3568 -0.8440 -1.6706
   68MOL0     H 8935   6.123   8.425   9.314  0.1006 -0.2404  2.1164
   68MOL0     H 8936   5.911   8.236   9.350  2.0882 -1.2174  1.2040
   68MOL0     H 8937   6.068   8.217   9.275  2.0288  2.6601  3.2030
   68MOL0     H 8938   5.831   8.279   8.910  1.1072 -1.9159  1.7469
   68MOL0     H 8939   5.585   8.318   8.849  2.1033 -1.0092 -0.3812
   68MOL0     H 8940   5.244   8.119   8.751 -0.6862 -1.3573  1.8831
   68MOL0     H 8941   5.008   8.138   8.628 -0.3324  1.9777 -3.5638
   68MOL0     H 8942   4.796   8.516   8.617  0.8030 -1.0595  0.2110
   68MOL0     H 8943   4.691   8.421   8.730 -0.4233 -1.1927 -0.3545
   68MOL0     H 8944   4.571   8.334   8.555  0.5990 -1.1188 -2.0271
   68MOL0     H 8945   4.675   8.380   8.427 -2.5560 -1.1697 -1.0890
   68MOL0     H 8946   4.648   8.617   8.479 -0.9456  0.5910 -0.2385
   68MOL0     H 8947   4.535   8.580   8.614  0.1240  0.9481  0.1890
   68MOL0     H 8948   4.485   8.502   8.320  0.2307  1.1017 -0.9708
   68MOL0     H 8949   4.384   8.457   8.463  2.2496 -1.1519  1.5638
   68MOL0     H 8950   4.408   8.724   8.498  1.9327 -0.5044 -0.1623
   68MOL0     H 8951   4.269   8.640   8.417  1.2041 -1.8431 -1.4901
   68MOL0     H 8952   4.420   8.649   8.206  1.2477  1.0684  0.1041
   68MOL0     H 8953   4.520   8.744   8.311 -0.9095 -2.1434  2.4998
   68MOL0     H 8954   4.401   8.874   8.147  1.1230 -0.6011 -0.1480
   68MOL0     H 8955   4.241   8.820   8.205  0.6267 -2.6835  1.1033
   68MOL0     H 8956   4.438   8.976   8.369  1.2609 -0.8514 -1.2686
   68MOL0     H 8957   4.271   8.947   8.421 -1.7177 -0.5959 -1.2100
   68MOL0     H 8958   4.941   8.512   8.802  1.9685  1.3112 -1.7357
   68MOL0     H 8959   5.160   8.517   8.900 -0.4786 -0.8581  0.7249
   68MOL0     H 8960   5.501   8.296   9.267  1.5171 -2.0883 -0.0458
   68MOL0     H 8961   5.714   8.303   9.322  0.5654  0.3029 -0.8450
   68MOL0     H 8962   5.989   9.281  10.441 -2.7085 -1.4229  1.7333
   68MOL0     H 8963   6.183   9.436  10.424 -0.2671  1.8180  0.0568
   68MOL0     H 8964   6.746   9.381  10.739  0.4974  1.2088  0.8713
   68MOL0     H 8965   6.895   9.562  10.785  0.5489  2.0692  2.3951
   68MOL0     H 8966   7.030   9.689  10.650 -1.2222  0.3007 -1.4666
   68MOL0     H 8967   7.035   9.766  10.810  1.0511 -0.7516  0.2659
   68MOL0     H 8968   7.078   9.903  10.559  0.5424 -4.6036 -0.3162
   68MOL0     H 8969   7.028   9.991  10.711  0.0364 -0.8168  2.2136
   68MOL0     H 8970   7.277   9.806  10.701 -2.6573 -1.3284  2.3586
   68MOL0     H 8971   7.221   9.917  10.826 -0.8974  2.2780  0.0967
   68MOL0     H 8972   7.253  10.113  10.687 -0.1514  0.0180  2.1656
   68MOL0     H 8973   7.404  10.034  10.704  1.4249  0.0232 -3.4374
   68MOL0     H 8974   7.356   9.983  10.292  3.5815  4.2514  0.1242
   68MOL0     H 8975   6.681   9.826  10.537  3.7401  1.7540  1.6409
   68MOL0     H 8976   6.505   9.626  10.488 -0.5923  1.7293  0.6538
   69MOL0     O 8977   2.838   3.128   0.846  0.3875  0.3924  0.5309
   69MOL0     C 8978   2.848   3.186   0.739 -0.5598  0.1537 -0.3505
   69MOL0     O 8979   2.958   3.190   0.660 -0.0062  0.5692 -0.2694
   69MOL0     C 8980   3.084   3.159   0.722 -0.4231 -0.0018  0.8092
   69MOL0     C 8981   3.136   3.229   0.835 -0.5264 -0.4114  0.5526
   69MOL0     C 8982   3.261   3.191   0.895  0.0361  1.1041 -0.0963
   69MOL0     C 8983   3.333   3.082   0.843  0.5592 -0.2430 -0.3793
   69MOL0     O 8984   3.454   3.056   0.897  0.2598  0.5004 -0.5848
   69MOL0     C 8985   3.452   3.029   1.041  0.3758  0.5432  0.2182
   69MOL0     C 8986   3.599   2.995   1.060  0.6867 -0.1644  0.8213
   69MOL0     C 8987   3.628   2.839   1.054  0.1763 -0.6430 -0.2695
   69MOL0     C 8988   3.627   2.779   0.909 -0.5093 -0.4978  0.2114
   69MOL0     C 8989   3.716   2.660   0.906 -0.8732 -0.0268  0.0208
   69MOL0     C 8990   3.680   2.556   1.015  0.4323 -0.5689 -0.3535
   69MOL0     C 8991   3.772   2.435   0.988  1.0998  0.4717  1.0754
   69MOL0     C 8992   3.746   2.327   1.099 -0.2186 -1.3543  0.6450
   69MOL0     N 8993   3.779   2.193   1.050  0.3668  0.4198  0.4590
   69MOL0     C 8994   3.836   2.089   1.122 -0.9775  0.2425  0.4942
   69MOL0     C 8995   3.850   1.987   1.026 -0.1630 -0.3104  0.1374
   69MOL0     C 8996   3.937   1.863   1.047  0.0276 -0.8179 -0.4075
   69MOL0     C 8997   3.855   1.751   0.988  0.1559  0.3513 -0.2619
   69MOL0     C 8998   3.910   1.619   1.041 -0.1089 -0.9519  1.3564
   69MOL0     C 8999   4.044   1.585   0.993  0.4936  0.4221  0.8685
   69MOL0     O 9000   4.113   1.479   1.060 -0.5066 -0.7291 -0.0403
   69MOL0     C 9001   4.112   1.476   1.197 -0.6986  0.0671  0.8233
   69MOL0     C 9002   4.015   1.405   1.277 -0.1493 -0.7892  0.6595
   69MOL0     C 9003   4.037   1.391   1.413 -0.8130  0.1832  1.4937
   69MOL0     C 9004   4.148   1.441   1.480  0.2311  0.1266 -0.7565
   69MOL0     C 9005   4.148   1.440   1.625  0.3263  1.1350  0.2894
   69MOL0     O 9006   4.222   1.545   1.678 -0.7722  0.2647 -0.0648
   69MOL0     C 9007   4.264   1.558   1.805 -0.6811 -0.1775  0.0368
   69MOL0     C 9008   4.388   1.515   1.842 -0.6374 -0.2499 -0.8196
   69MOL0     C 9009   4.431   1.571   1.966 -0.0118 -0.7846 -0.3672
   69MOL0     C 9010   4.352   1.633   2.066  0.6093 -0.5893  0.0738
   69MOL0     O 9011   4.400   1.678   2.184 -0.2271 -0.0950 -0.4367
   69MOL0     C 9012   4.319   1.752   2.284  0.6556 -0.7864  0.1035
   69MOL0     C 9013   4.358   1.762   2.430 -1.0854 -0.5780 -0.8646
   69MOL0     C 9014   4.400   1.911   2.461 -0.0781  0.0050  0.7560
   69MOL0     C 9015   4.450   1.936   2.599  0.0288 -0.4649 -0.1507
   69MOL0     C 9016   4.457   2.082   2.634 -0.7023  0.4566 -0.2434
   69MOL0     C 9017   4.331   2.170   2.614 -0.0038  0.3371  0.0838
   69MOL0     C 9018   4.341   2.313   2.676  0.2804  0.3382 -0.2449
   69MOL0     C 9019   4.249   2.418   2.607 -0.0862 -0.4523  0.7048
   69MOL0    Cl 9020   4.274   2.415   2.418  0.0843 -0.2676 -0.7251
   69MOL0     C 9021   4.221   1.653   2.027 -0.5192  1.1244  0.0529
   69MOL0     C 9022   4.175   1.623   1.900  0.7183  0.7250 -0.2983
   69MOL0     O 9023   4.085   1.360   1.692  0.8995  0.3667  0.1203
   69MOL0     C 9024   4.238   1.517   1.406 -0.2995  0.1223  0.5691
   69MOL0     C 9025   4.228   1.531   1.263 -0.2210  0.4477 -1.0475
   69MOL0     N 9026   3.788   2.027   0.906 -0.7557  0.3629 -1.0204
   69MOL0     N 9027   3.754   2.148   0.921 -0.4515  0.4538  0.2784
   69MOL0     C 9028   3.285   3.021   0.725  0.3111  0.8668  0.0036
   69MOL0     C 9029   3.159   3.056   0.663 -0.3612  0.5839 -0.9793
   69MOL0     C 9030   2.723   3.232   0.676  0.2254  0.1236  0.9125
   69MOL0     C 9031   2.715   3.250   0.542  0.5641 -0.0409 -0.1107
   69MOL0     C 9032   2.604   3.301   0.480 -0.6381  0.0319 -0.1697
   69MOL0     C 9033   2.485   3.326   0.552  0.3587  0.5066  0.4304
   69MOL0     O 9034   2.363   3.375   0.498  0.5483 -0.3841  0.2236
   69MOL0     C 9035   2.368   3.428   0.364  0.0218  0.1684  0.6501
   69MOL0     C 9036   2.240   3.515   0.348  0.7135 -0.4024  0.2962
   69MOL0     C 9037   2.192   3.617   0.448  0.2300  0.2211 -0.3805
   69MOL0     C 9038   2.044   3.658   0.433  0.2812 -0.5990 -0.1687
   69MOL0     C 9039   2.022   3.737   0.313 -0.2214 -0.6687  0.3806
   69MOL0     C 9040   2.022   3.793   0.202 -0.3963 -1.7717 -0.4071
   69MOL0     C 9041   2.489   3.292   0.696 -0.2033  0.9093  0.4742
   69MOL0     C 9042   2.607   3.250   0.750 -0.1895 -0.0038  0.1771
   69MOL0     H 9043   3.104   3.323   0.878 -1.1853 -0.3481 -0.0578
   69MOL0     H 9044   3.312   3.247   0.972 -0.1075  1.7637 -0.4639
   69MOL0     H 9045   3.393   2.943   1.075  0.0621  1.7119  2.8957
   69MOL0     H 9046   3.422   3.115   1.100  2.1945 -0.5404  2.9208
   69MOL0     H 9047   3.631   3.032   1.158 -1.0189 -2.4294  2.3083
   69MOL0     H 9048   3.657   3.041   0.979 -2.2659 -0.2043 -1.4826
   69MOL0     H 9049   3.557   2.792   1.122  2.2036 -1.2388  1.5320
   69MOL0     H 9050   3.728   2.824   1.097 -0.9220 -1.7726  2.0620
   69MOL0     H 9051   3.523   2.755   0.887 -0.6614  1.4489 -1.5334
   69MOL0     H 9052   3.649   2.862   0.841 -1.0568  1.5123  2.3310
   69MOL0     H 9053   3.823   2.681   0.908 -0.1780 -3.0302 -0.5429
   69MOL0     H 9054   3.705   2.628   0.801  3.4125  5.1999 -2.5108
   69MOL0     H 9055   3.574   2.529   1.007 -0.8508  3.3438  0.8949
   69MOL0     H 9056   3.687   2.598   1.116 -0.7580 -1.6464  0.1986
   69MOL0     H 9057   3.753   2.394   0.889  1.4720  1.5954  0.5153
   69MOL0     H 9058   3.880   2.456   0.984  1.5159 -1.5722  0.0437
   69MOL0     H 9059   3.642   2.328   1.133 -0.7737  1.1476 -0.8852
   69MOL0     H 9060   3.814   2.346   1.182  0.6455  0.1586 -0.3719
   69MOL0     H 9061   3.861   2.090   1.228 -0.9255  0.9187  0.4809
   69MOL0     H 9062   3.954   1.856   1.155  3.2986 -0.9565 -0.8388
   69MOL0     H 9063   4.033   1.869   0.996 -0.0799  1.0567 -0.4716
   69MOL0     H 9064   3.854   1.748   0.879  0.4453 -1.3105 -0.2459
   69MOL0     H 9065   3.751   1.763   1.019 -0.0488 -0.8556 -0.4287
   69MOL0     H 9066   3.908   1.620   1.150  3.5030 -0.9186  1.5447
   69MOL0     H 9067   3.857   1.528   1.009  2.4310 -2.3949  0.9045
   69MOL0     H 9068   4.114   1.669   0.994  0.0687  0.8832 -1.6250
   69MOL0     H 9069   4.043   1.555   0.888  2.2168 -1.0886  1.2282
   69MOL0     H 9070   3.932   1.361   1.223 -0.4843 -1.1858  1.4928
   69MOL0     H 9071   3.965   1.338   1.474 -0.6338  0.4829  1.9694
   69MOL0     H 9072   4.452   1.463   1.772 -2.1089  0.2983 -2.6475
   69MOL0     H 9073   4.538   1.566   1.985  0.1259 -0.8880 -1.1194
   69MOL0     H 9074   4.218   1.711   2.278  0.3030  0.2283 -1.6416
   69MOL0     H 9075   4.322   1.856   2.249  2.1346 -0.3216  1.5126
   69MOL0     H 9076   4.440   1.695   2.455  0.2051  1.6111  1.1329
   69MOL0     H 9077   4.278   1.729   2.497 -1.0153 -0.4207 -0.7031
   69MOL0     H 9078   4.320   1.986   2.456 -2.7054 -2.5142  1.9301
   69MOL0     H 9079   4.471   1.937   2.382 -1.4558  2.0801  0.1348
   69MOL0     H 9080   4.394   1.874   2.669  2.7094 -5.4772 -1.9528
   69MOL0     H 9081   4.544   1.879   2.599 -0.6320 -1.5866  0.3927
   69MOL0     H 9082   4.538   2.126   2.575  0.3462  0.5550  1.2250
   69MOL0     H 9083   4.490   2.084   2.738  0.1386  0.8642 -0.5151
   69MOL0     H 9084   4.237   2.126   2.651 -0.9577  1.0573 -1.3792
   69MOL0     H 9085   4.310   2.185   2.508 -0.8671  1.6226  0.4089
   69MOL0     H 9086   4.316   2.316   2.782 -1.3205  1.1563 -0.6191
   69MOL0     H 9087   4.448   2.335   2.668  0.6387 -1.2531 -0.2894
   69MOL0     H 9088   4.263   2.522   2.636 -2.8720  0.1116  0.2993
   69MOL0     H 9089   4.147   2.380   2.622 -1.6746  2.2255 -2.1977
   69MOL0     H 9090   4.141   1.682   2.094 -0.0490 -1.0333  1.6751
   69MOL0     H 9091   4.072   1.636   1.866 -0.0875 -1.3809  1.1261
   69MOL0     H 9092   4.324   1.559   1.456 -1.0019  2.4674 -0.0510
   69MOL0     H 9093   4.312   1.564   1.202  0.4423 -1.8488 -1.4892
   69MOL0     H 9094   3.345   2.940   0.687  0.5380  0.4040  1.3012
   69MOL0     H 9095   3.115   3.007   0.577 -0.6668 -1.1768  0.1296
   69MOL0     H 9096   2.796   3.233   0.472 -1.1183 -0.3117 -2.0606
   69MOL0     H 9097   2.602   3.313   0.372  2.4034 -1.4633 -0.4881
   69MOL0     H 9098   2.368   3.355   0.283 -0.1064  3.1480 -2.2578
   69MOL0     H 9099   2.456   3.489   0.341 -0.1108 -0.4192 -1.6268
   69MOL0     H 9100   2.263   3.570   0.256  0.9949  2.3877  1.9279
   69MOL0     H 9101   2.164   3.441   0.323  1.7576 -1.0393 -1.1783
   69MOL0     H 9102   2.260   3.703   0.450 -1.1543  1.3670 -0.1246
   69MOL0     H 9103   2.196   3.572   0.548  2.0819  2.6529  0.7412
   69MOL0     H 9104   1.984   3.566   0.427  1.4584 -1.3731 -0.5256
   69MOL0     H 9105   2.012   3.713   0.522 -0.7528  1.7445 -1.8815
   69MOL0     H 9106   2.012   3.852   0.114  0.9266  1.1692  1.2666
   69MOL0     H 9107   2.408   3.323   0.761  1.4331  2.3276  1.9311
   69MOL0     H 9108   2.617   3.247   0.858  3.9924 -1.1074 -0.0536
   70MOL0     O 9109   5.521   5.298   4.426 -0.5988  0.4545 -0.0009
   70MOL0     C 9110   5.644   5.297   4.420  0.1845  0.2887 -0.1937
   70MOL0     O 9111   5.722   5.266   4.307  0.4865 -0.1407  0.8269
   70MOL0     C 9112   5.660   5.209   4.199  0.4008 -0.5647  0.1015
   70MOL0     C 9113   5.659   5.272   4.072  0.0263  0.0702 -0.0751
   70MOL0     C 9114   5.590   5.208   3.963 -1.0433 -0.7533 -0.7844
   70MOL0     C 9115   5.526   5.090   3.988  0.6709  0.0612  0.2606
   70MOL0     O 9116   5.440   5.054   3.881  0.3737  0.1410 -0.5067
   70MOL0     C 9117   5.438   4.915   3.859  0.3353  0.6381  0.4031
   70MOL0     C 9118   5.435   4.881   3.713 -1.0573 -0.4426  0.1415
   70MOL0     C 9119   5.526   4.968   3.618  0.4629  0.0346 -1.1654
   70MOL0     C 9120   5.684   4.945   3.656  0.0592  0.6468  0.5414
   70MOL0     C 9121   5.750   4.864   3.536 -0.9400 -0.9986 -0.8822
   70MOL0     C 9122   5.713   4.713   3.552 -0.1546  0.7842  1.0994
   70MOL0     C 9123   5.797   4.615   3.454  0.2902  0.6017 -0.6088
   70MOL0     C 9124   5.793   4.460   3.493  0.2541 -0.0604 -0.4952
   70MOL0     N 9125   5.887   4.391   3.419 -0.3528 -0.1068 -0.2730
   70MOL0     C 9126   6.028   4.400   3.441 -0.2521  0.7542 -0.4937
   70MOL0     C 9127   6.076   4.305   3.363 -0.9590  0.3772 -0.5511
   70MOL0     C 9128   6.217   4.271   3.339 -0.5470 -0.6809  0.7986
   70MOL0     C 9129   6.247   4.133   3.286 -0.7472  0.0359  0.4476
   70MOL0     C 9130   6.236   4.115   3.129 -0.2755  0.4791 -0.1665
   70MOL0     C 9131   6.266   3.967   3.083 -0.3542  0.3058 -0.4918
   70MOL0     O 9132   6.405   3.911   3.085 -1.3883 -0.8229  0.2258
   70MOL0     C 9133   6.509   3.979   3.019 -0.0080 -0.9563 -0.8342
   70MOL0     C 9134   6.645   3.973   3.061  0.3476 -0.8906  0.2572
   70MOL0     C 9135   6.742   4.031   2.982 -0.2590 -0.3991 -0.3160
   70MOL0     C 9136   6.714   4.108   2.869  0.4857 -0.5739 -0.1132
   70MOL0     C 9137   6.812   4.181   2.787  0.4914  0.6493  1.4113
   70MOL0     O 9138   6.770   4.257   2.693  0.2079  0.2233  0.8859
   70MOL0     C 9139   6.852   4.304   2.581  0.8268  0.5339 -0.0967
   70MOL0     C 9140   6.894   4.208   2.482 -0.5839 -0.7096  0.3397
   70MOL0     C 9141   6.996   4.248   2.391  1.2958 -1.0453 -0.6517
   70MOL0     C 9142   7.038   4.390   2.390 -0.2902 -0.4962  0.6656
   70MOL0     O 9143   7.133   4.432   2.296 -0.8334 -0.2753  0.2577
   70MOL0     C 9144   7.224   4.336   2.250  0.2163 -0.0331  0.2197
   70MOL0     C 9145   7.347   4.408   2.177  0.2778  0.6844 -0.2654
   70MOL0     C 9146   7.312   4.511   2.073 -0.6400 -0.9139  0.1815
   70MOL0     C 9147   7.225   4.443   1.964 -0.1961 -0.4343  0.9759
   70MOL0     C 9148   7.107   4.527   1.913 -0.5994 -0.1899 -0.0495
   70MOL0     C 9149   7.057   4.482   1.784 -0.4114  0.1952  0.2859
   70MOL0     C 9150   6.939   4.568   1.737 -0.0065  0.5948 -0.4426
   70MOL0     C 9151   6.887   4.509   1.607 -0.4841  1.0620  0.8384
   70MOL0    Cl 9152   7.004   4.537   1.469 -0.1061 -0.4303  0.1483
   70MOL0     C 9153   6.991   4.479   2.486  0.7912  0.1394  1.0691
   70MOL0     C 9154   6.895   4.437   2.577  0.4445 -0.5315 -0.5468
   70MOL0     O 9155   6.931   4.150   2.811  0.1817 -0.8114  0.0363
   70MOL0     C 9156   6.579   4.128   2.841  0.0596 -0.0705  0.2173
   70MOL0     C 9157   6.477   4.070   2.911  0.0796  1.1265  0.0988
   70MOL0     N 9158   5.967   4.255   3.291 -0.3041  0.3803  0.0207
   70MOL0     N 9159   5.856   4.300   3.325  0.3393 -0.0124 -0.4514
   70MOL0     C 9160   5.515   5.039   4.116 -0.2608 -0.1403  0.2582
   70MOL0     C 9161   5.571   5.103   4.221  0.0408  0.9192 -0.7642
   70MOL0     C 9162   5.718   5.339   4.537  0.0157  0.1868 -0.4012
   70MOL0     C 9163   5.858   5.332   4.546  0.3718 -1.0985  0.6326
   70MOL0     C 9164   5.924   5.390   4.653  0.3314  0.2525  0.3565
   70MOL0     C 9165   5.853   5.463   4.753  0.2211  0.5412  0.7398
   70MOL0     O 9166   5.925   5.538   4.843 -0.7827  0.2159  0.2334
   70MOL0     C 9167   5.922   5.680   4.809 -0.9231 -0.1970 -0.6496
   70MOL0     C 9168   5.993   5.765   4.918 -0.2581  0.2253 -0.6913
   70MOL0     C 9169   5.914   5.750   5.052 -0.3231  0.0767  1.4480
   70MOL0     C 9170   5.982   5.766   5.179  0.3297 -0.7138  0.2304
   70MOL0     C 9171   6.028   5.897   5.217 -0.6549 -1.1353 -0.2896
   70MOL0     C 9172   6.069   6.009   5.239 -0.1579  1.3296 -0.6136
   70MOL0     C 9173   5.715   5.454   4.750 -0.7402  0.1190 -0.3915
   70MOL0     C 9174   5.651   5.400   4.645 -0.8131 -0.1416 -0.3715
   70MOL0     H 9175   5.724   5.355   4.046 -1.2934  0.4803 -2.3148
   70MOL0     H 9176   5.586   5.257   3.866 -0.6681  1.6533  0.3458
   70MOL0     H 9177   5.360   4.860   3.912  2.0521 -3.2004 -0.6743
   70MOL0     H 9178   5.525   4.859   3.897 -3.0498 -3.2060  3.3922
   70MOL0     H 9179   5.332   4.909   3.689 -1.1176  0.8583  1.7600
   70MOL0     H 9180   5.450   4.776   3.686 -0.9285  0.3318 -3.2099
   70MOL0     H 9181   5.508   5.074   3.635  1.3546  0.0459 -0.1972
   70MOL0     H 9182   5.495   4.944   3.516 -4.4924  2.0966 -0.4192
   70MOL0     H 9183   5.726   5.045   3.673  0.7216  0.3587  0.6209
   70MOL0     H 9184   5.688   4.901   3.756 -2.9338 -1.9900 -0.3638
   70MOL0     H 9185   5.857   4.878   3.519 -0.5589 -0.8716  1.3000
   70MOL0     H 9186   5.717   4.899   3.438  2.8350 -0.4912 -2.1274
   70MOL0     H 9187   5.607   4.701   3.528 -0.0114  0.3272  0.6852
   70MOL0     H 9188   5.715   4.691   3.659 -1.2573  4.0402  1.8905
   70MOL0     H 9189   5.755   4.622   3.353 -1.9112 -0.2147  0.1766
   70MOL0     H 9190   5.901   4.649   3.451  0.5996 -0.3591 -1.9575
   70MOL0     H 9191   5.691   4.424   3.476 -0.8076  2.7884 -0.7260
   70MOL0     H 9192   5.810   4.457   3.601  0.2823 -6.1065 -0.3454
   70MOL0     H 9193   6.078   4.472   3.505 -0.6967  0.2428  0.4527
   70MOL0     H 9194   6.266   4.274   3.438 -0.6409  0.2991  0.8322
   70MOL0     H 9195   6.260   4.354   3.282 -0.5569 -0.4934  1.0578
   70MOL0     H 9196   6.172   4.069   3.334 -1.1580 -1.0523 -1.5066
   70MOL0     H 9197   6.351   4.113   3.316 -1.8834 -4.0129  2.4447
   70MOL0     H 9198   6.129   4.122   3.107 -0.4580  0.8041  0.7702
   70MOL0     H 9199   6.301   4.184   3.074  2.2115 -1.8022 -0.3279
   70MOL0     H 9200   6.239   3.954   2.978 -1.8804 -0.1379 -0.0793
   70MOL0     H 9201   6.191   3.907   3.138 -0.7520  0.3335 -1.0025
   70MOL0     H 9202   6.673   3.913   3.147  1.3762 -0.1545  0.4448
   70MOL0     H 9203   6.844   4.007   3.011  0.8672  1.1459 -2.7141
   70MOL0     H 9204   6.866   4.103   2.486  1.7030 -1.7983 -4.5487
   70MOL0     H 9205   7.024   4.173   2.318  1.5222  0.3631 -2.0624
   70MOL0     H 9206   7.170   4.269   2.183 -0.2710  0.0003  0.5734
   70MOL0     H 9207   7.260   4.291   2.343 -0.6282  1.9730  1.5990
   70MOL0     H 9208   7.403   4.331   2.123 -0.8195  0.2060 -0.7428
   70MOL0     H 9209   7.412   4.439   2.259  1.4086 -2.8605  0.3629
   70MOL0     H 9210   7.410   4.538   2.033 -1.1934  2.4169  0.7798
   70MOL0     H 9211   7.270   4.597   2.125  2.4136 -0.6442  2.4487
   70MOL0     H 9212   7.284   4.410   1.879  0.3238 -0.5197  1.3650
   70MOL0     H 9213   7.170   4.355   2.000 -1.2570 -0.7939 -1.3257
   70MOL0     H 9214   7.121   4.635   1.916 -1.8565  0.1118 -2.3117
   70MOL0     H 9215   7.026   4.507   1.984  0.1720  0.3578  1.0065
   70MOL0     H 9216   7.022   4.378   1.786 -0.0937  0.0103 -1.9500
   70MOL0     H 9217   7.133   4.488   1.706 -1.4137  0.9923 -0.6548
   70MOL0     H 9218   6.863   4.557   1.815  0.6373  1.1377  0.2755
   70MOL0     H 9219   6.956   4.675   1.720 -3.4609  1.5134  1.0236
   70MOL0     H 9220   6.798   4.566   1.579 -1.5165  0.0808  2.0120
   70MOL0     H 9221   6.858   4.404   1.619 -0.5240  0.7719 -1.5133
   70MOL0     H 9222   7.037   4.578   2.487 -2.3351  1.7619  0.0850
   70MOL0     H 9223   6.874   4.507   2.657 -1.2696 -0.6586 -0.8523
   70MOL0     H 9224   6.548   4.183   2.754 -2.6492 -0.2837  0.9468
   70MOL0     H 9225   6.377   4.092   2.876 -0.4584 -0.6280  0.4742
   70MOL0     H 9226   5.442   4.959   4.120 -3.2437  2.2162 -1.7229
   70MOL0     H 9227   5.541   5.061   4.317 -2.3239  0.9759 -1.3985
   70MOL0     H 9228   5.920   5.289   4.468  0.4970  0.1989  0.0015
   70MOL0     H 9229   6.030   5.384   4.674 -0.1176  2.2365  4.0988
   70MOL0     H 9230   5.820   5.719   4.806 -1.2607 -0.6885  1.9400
   70MOL0     H 9231   5.968   5.705   4.713 -1.1120  5.4597  0.4224
   70MOL0     H 9232   6.092   5.720   4.931 -0.1130  0.4318 -1.0715
   70MOL0     H 9233   5.999   5.873   4.903  0.5690  0.3491  0.3508
   70MOL0     H 9234   5.859   5.656   5.052 -3.1111  1.6190  1.4435
   70MOL0     H 9235   5.839   5.829   5.048 -0.0711  0.2800 -1.3121
   70MOL0     H 9236   5.905   5.736   5.251 -1.6434  0.1332 -1.4418
   70MOL0     H 9237   6.069   5.700   5.192  0.5004 -0.3291  1.0968
   70MOL0     H 9238   6.103   6.110   5.243 -1.1491  1.7165 -1.4131
   70MOL0     H 9239   5.651   5.496   4.827  1.8265  0.7785  1.5532
   70MOL0     H 9240   5.544   5.400   4.660 -0.6176 -2.2839  1.5712
   71MOL0     O 9241   3.715   9.172   9.001 -0.2217  0.0569 -0.9642
   71MOL0     C 9242   3.717   9.109   8.893 -0.8882 -0.1863 -0.5923
   71MOL0     O 9243   3.803   9.132   8.795 -0.4062  0.2238 -0.7673
   71MOL0     C 9244   3.923   9.209   8.821  0.1702  0.0287  0.1043
   71MOL0     C 9245   4.035   9.140   8.875  1.0195 -0.2457  0.4954
   71MOL0     C 9246   4.162   9.202   8.877  0.2282 -0.6598 -0.3872
   71MOL0     C 9247   4.181   9.334   8.830  0.1027  0.1938  0.2981
   71MOL0     O 9248   4.297   9.401   8.847 -0.0424  0.5378 -0.0660
   71MOL0     C 9249   4.353   9.400   8.982  0.2003 -0.2035 -0.7479
   71MOL0     C 9250   4.443   9.526   8.999  0.7364 -0.0333  0.3949
   71MOL0     C 9251   4.489   9.537   9.146 -0.9832  0.7584 -0.8795
   71MOL0     C 9252   4.383   9.561   9.251 -1.0381 -0.1147  0.2475
   71MOL0     C 9253   4.438   9.592   9.388 -0.6701 -0.0061 -1.0323
   71MOL0     C 9254   4.531   9.711   9.398  0.4446  0.0828  0.7706
   71MOL0     C 9255   4.556   9.736   9.548 -0.3395  0.7193  0.1506
   71MOL0     C 9256   4.633   9.862   9.590 -0.7240 -0.7087 -0.4800
   71MOL0     N 9257   4.641   9.883   9.735  0.0102  0.8233 -0.7765
   71MOL0     C 9258   4.533   9.895   9.815  0.1870 -0.3322  0.1432
   71MOL0     C 9259   4.583   9.880   9.944 -0.0336 -0.4097 -0.1048
   71MOL0     C 9260   4.518   9.901  10.087 -0.0869  0.5885  0.0838
   71MOL0     C 9261   4.457  10.045  10.095  0.3750  0.1787  0.0272
   71MOL0     C 9262   4.561  10.151  10.123  0.0016 -0.0855 -1.2319
   71MOL0     C 9263   4.517  10.292  10.102  0.6330  0.9007 -0.0128
   71MOL0     O 9264   4.393  10.323  10.179 -0.3444 -0.2976  0.2727
   71MOL0     C 9265   4.315  10.438  10.166  0.0728  0.4444 -0.4237
   71MOL0     C 9266   4.354  10.542  10.089 -0.2994 -0.0533 -1.0476
   71MOL0     C 9267   4.272  10.659  10.080  0.6517  0.1554  0.5124
   71MOL0     C 9268   4.169  10.675  10.175  0.6712 -0.5016 -0.2890
   71MOL0     C 9269   4.092  10.802  10.181 -0.4774 -0.5498 -0.1540
   71MOL0     O 9270   4.035  10.843  10.293 -0.3921  0.1319 -0.0929
   71MOL0     C 9271   3.973  10.962  10.305  0.1069  0.0670  0.9347
   71MOL0     C 9272   4.023  11.074  10.371  0.4868 -0.7891 -0.6317
   71MOL0     C 9273   3.936  11.186  10.383 -0.7663  0.2863 -1.2480
   71MOL0     C 9274   3.802  11.172  10.338 -0.9176 -0.0089  0.3163
   71MOL0     O 9275   3.705  11.270  10.349 -1.6835  0.2039  0.0997
   71MOL0     C 9276   3.738  11.400  10.404  0.0002  0.7312  0.0433
   71MOL0     C 9277   3.624  11.488  10.383  1.1772 -1.2943 -0.3953
   71MOL0     C 9278   3.671  11.626  10.434  0.9994  0.4981  1.0088
   71MOL0     C 9279   3.544  11.712  10.431  0.0862 -0.5440  0.2481
   71MOL0     C 9280   3.577  11.858  10.422  0.6537  0.2720 -0.5342
   71MOL0     C 9281   3.627  11.908  10.282  0.2268 -0.8274  0.5762
   71MOL0     C 9282   3.637  12.062  10.305  0.1600 -0.6024 -0.5475
   71MOL0     C 9283   3.668  12.150  10.181 -0.5316 -0.2576  0.8837
   71MOL0    Cl 9284   3.505  12.191  10.113  0.1969  0.0113 -0.0609
   71MOL0     C 9285   3.751  11.057  10.278  0.5685 -0.8078 -0.5655
   71MOL0     C 9286   3.838  10.950  10.259  0.2616 -0.2998  0.2148
   71MOL0     O 9287   4.094  10.869  10.081 -0.4726 -0.1255 -0.1421
   71MOL0     C 9288   4.130  10.564  10.256  0.4303  0.4549  0.8435
   71MOL0     C 9289   4.201  10.451  10.247 -0.3437 -0.6138 -0.2172
   71MOL0     N 9290   4.706   9.841   9.927  0.6643  0.5952 -0.0032
   71MOL0     N 9291   4.738   9.825   9.807 -0.3220  0.1707 -0.3881
   71MOL0     C 9292   4.077   9.404   8.771  1.0919  0.3100  0.3373
   71MOL0     C 9293   3.955   9.335   8.753  0.2803 -1.3054 -0.7588
   71MOL0     C 9294   3.615   9.013   8.875  0.4506 -0.0802  0.3917
   71MOL0     C 9295   3.596   8.956   8.750  1.1532  0.5247  0.0511
   71MOL0     C 9296   3.489   8.870   8.726 -0.3132  0.5322  0.4397
   71MOL0     C 9297   3.399   8.834   8.829 -0.0157 -0.3022  0.3026
   71MOL0     O 9298   3.316   8.729   8.786  0.5779 -0.5923  0.1859
   71MOL0     C 9299   3.185   8.706   8.845 -0.0035  0.0639 -0.8638
   71MOL0     C 9300   3.091   8.597   8.787  0.0484  0.3794  0.3685
   71MOL0     C 9301   2.978   8.553   8.874  0.1541  0.2845 -0.1305
   71MOL0     C 9302   2.923   8.423   8.839 -0.4913  0.1845  0.8135
   71MOL0     C 9303   3.041   8.324   8.846  0.9122  1.1970  1.0438
   71MOL0     C 9304   3.130   8.237   8.854  0.7591  0.0263 -0.7731
   71MOL0     C 9305   3.402   8.899   8.954 -0.6622  0.1903 -0.0161
   71MOL0     C 9306   3.514   8.991   8.975  0.0535  0.5949  0.0382
   71MOL0     H 9307   4.030   9.041   8.920  3.6663 -0.8666 -0.4262
   71MOL0     H 9308   4.247   9.154   8.924  1.7181  3.2376  1.3246
   71MOL0     H 9309   4.408   9.308   9.004  0.6057  0.0340 -0.7552
   71MOL0     H 9310   4.271   9.391   9.054 -0.5291 -0.8181 -1.6343
   71MOL0     H 9311   4.394   9.616   8.962  0.7988 -0.8748 -1.9505
   71MOL0     H 9312   4.526   9.516   8.928 -0.2768 -0.6106 -0.7580
   71MOL0     H 9313   4.585   9.589   9.148  0.2935 -1.4764 -1.1757
   71MOL0     H 9314   4.527   9.437   9.169  0.0127  1.2159 -0.5269
   71MOL0     H 9315   4.327   9.651   9.227 -0.4838  0.7143  1.8687
   71MOL0     H 9316   4.322   9.473   9.274 -1.2534  0.2203  1.0173
   71MOL0     H 9317   4.494   9.509   9.433 -0.1325  2.2561  2.9973
   71MOL0     H 9318   4.355   9.593   9.459  0.8429 -4.3263  1.1637
   71MOL0     H 9319   4.474   9.797   9.361  0.5068 -0.2469 -0.1204
   71MOL0     H 9320   4.618   9.700   9.333  0.8289  1.4688  1.0179
   71MOL0     H 9321   4.462   9.745   9.603  0.5518 -0.0083  1.9012
   71MOL0     H 9322   4.608   9.648   9.588  2.1369  1.5092 -1.1041
   71MOL0     H 9323   4.588   9.950   9.544  1.1655  0.5402 -0.0653
   71MOL0     H 9324   4.736   9.859   9.555 -0.0753  2.7245  0.7389
   71MOL0     H 9325   4.433   9.918   9.781 -0.1791 -0.6428  0.9660
   71MOL0     H 9326   4.600   9.894  10.159  2.5307 -2.8455 -2.8559
   71MOL0     H 9327   4.441   9.826  10.104  0.4781 -0.1859 -0.6759
   71MOL0     H 9328   4.394  10.040  10.184 -1.9133 -0.2147 -1.5252
   71MOL0     H 9329   4.395  10.069  10.008 -0.2215  2.0168  0.9123
   71MOL0     H 9330   4.610  10.148  10.221 -3.0097  0.8957  0.4297
   71MOL0     H 9331   4.641  10.140  10.048  0.7528  1.7836 -0.7796
   71MOL0     H 9332   4.496  10.299   9.995 -1.3051 -0.9522  0.1801
   71MOL0     H 9333   4.600  10.359  10.128  0.8887 -0.2852  2.6075
   71MOL0     H 9334   4.441  10.529  10.025  0.5223 -0.4242  0.1145
   71MOL0     H 9335   4.302  10.738  10.011  1.0353 -0.1640  0.3106
   71MOL0     H 9336   4.128  11.064  10.398  0.0828 -2.3326  0.5346
   71MOL0     H 9337   3.977  11.270  10.437 -0.6301 -1.1221  0.9482
   71MOL0     H 9338   3.831  11.441  10.364  0.5603 -0.3087  0.2433
   71MOL0     H 9339   3.758  11.381  10.510  3.5994  4.0719  0.1679
   71MOL0     H 9340   3.529  11.466  10.432 -0.6352  4.6944 -0.3652
   71MOL0     H 9341   3.606  11.508  10.277 -1.7113  5.1648  0.7838
   71MOL0     H 9342   3.739  11.665  10.357  1.7108 -0.1098  1.3176
   71MOL0     H 9343   3.716  11.623  10.533  2.1729  0.2276  0.4803
   71MOL0     H 9344   3.479  11.686  10.347  0.3288 -2.2759  0.5520
   71MOL0     H 9345   3.476  11.705  10.517 -0.6830 -1.0968 -0.3808
   71MOL0     H 9346   3.662  11.886  10.484  0.9912  0.4317 -1.0649
   71MOL0     H 9347   3.490  11.913  10.457 -0.7625 -1.7518 -0.6782
   71MOL0     H 9348   3.555  11.895  10.200 -1.2065  0.1299  1.6323
   71MOL0     H 9349   3.723  11.864  10.255  2.3121  1.8945  3.0261
   71MOL0     H 9350   3.556  12.112  10.360  0.5133  0.5906 -1.0611
   71MOL0     H 9351   3.727  12.066  10.367  0.8394 -2.3626 -1.3801
   71MOL0     H 9352   3.728  12.087  10.113 -2.5619  1.9943 -3.3994
   71MOL0     H 9353   3.716  12.245  10.205  1.8436 -1.7012  2.3128
   71MOL0     H 9354   3.650  11.067  10.240  1.1243 -0.7272 -2.0777
   71MOL0     H 9355   3.810  10.866  10.196  3.6665 -0.2105 -1.6723
   71MOL0     H 9356   4.040  10.575  10.315  0.0525  1.7531  0.0950
   71MOL0     H 9357   4.172  10.361  10.300 -1.4449 -0.5058 -0.6115
   71MOL0     H 9358   4.106   9.501   8.732  2.0913 -1.1807 -2.9604
   71MOL0     H 9359   3.867   9.377   8.705 -1.3341 -2.9027  0.6397
   71MOL0     H 9360   3.647   8.976   8.657 -2.0584  1.3283 -1.6846
   71MOL0     H 9361   3.468   8.824   8.630 -0.2945  2.7986 -0.7349
   71MOL0     H 9362   3.123   8.796   8.847 -2.6961 -1.6639  1.9880
   71MOL0     H 9363   3.197   8.688   8.952  4.2487  4.0208 -0.3417
   71MOL0     H 9364   3.035   8.629   8.698 -2.3764 -1.2113  1.2295
   71MOL0     H 9365   3.154   8.513   8.759  1.1071  0.7101  1.6550
   71MOL0     H 9366   2.908   8.637   8.869 -0.6099 -0.2765  0.8285
   71MOL0     H 9367   3.000   8.552   8.981  0.3724 -0.4330 -0.1791
   71MOL0     H 9368   2.842   8.383   8.901 -1.9976 -4.5073 -3.5204
   71MOL0     H 9369   2.888   8.432   8.736 -0.8366 -0.8347  0.8271
   71MOL0     H 9370   3.199   8.157   8.838  1.1171 -0.1584  1.4580
   71MOL0     H 9371   3.335   8.880   9.037 -0.6593  0.1543 -0.0217
   71MOL0     H 9372   3.515   9.040   9.071 -0.6915  2.9666 -1.0924
   72MOL0     O 9373   2.332   1.713   0.502 -0.3707  0.9005  0.2456
   72MOL0     C 9374   2.224   1.749   0.456 -0.0412  0.5053  0.2729
   72MOL0     O 9375   2.177   1.870   0.460 -1.4553 -0.3361 -0.6062
   72MOL0     C 9376   2.230   1.966   0.536  0.3052 -0.1849 -0.5185
   72MOL0     C 9377   2.267   2.084   0.473  0.2466  0.6770  0.1788
   72MOL0     C 9378   2.305   2.197   0.550 -1.0065 -0.2651  0.0180
   72MOL0     C 9379   2.305   2.201   0.692  0.8735  0.3780  0.0781
   72MOL0     O 9380   2.341   2.312   0.755 -0.5580 -0.3366  0.7509
   72MOL0     C 9381   2.284   2.354   0.879 -0.1808  0.5228  0.1427
   72MOL0     C 9382   2.158   2.435   0.859  0.0525 -0.1727  0.6140
   72MOL0     C 9383   2.084   2.452   0.995 -0.0934  0.2266  0.6053
   72MOL0     C 9384   1.943   2.510   0.977  0.2836 -0.7343 -0.4667
   72MOL0     C 9385   1.956   2.656   0.940 -0.1747  0.0476 -0.0280
   72MOL0     C 9386   1.823   2.722   0.926  0.1024 -0.5212 -0.1545
   72MOL0     C 9387   1.830   2.853   0.854  0.3498  0.0252 -0.6919
   72MOL0     C 9388   1.691   2.908   0.837  1.0370  0.9755  0.2241
   72MOL0     N 9389   1.619   2.953   0.956 -0.1179  0.1985 -0.0518
   72MOL0     C 9390   1.671   3.047   1.038  0.2640 -0.8906 -0.1965
   72MOL0     C 9391   1.570   3.093   1.116 -0.2558  0.7539 -0.1934
   72MOL0     C 9392   1.560   3.208   1.217  0.0059 -0.0805 -0.4521
   72MOL0     C 9393   1.512   3.169   1.361 -0.3262  0.4310 -0.1997
   72MOL0     C 9394   1.604   3.052   1.421 -0.5966 -0.1518  0.9776
   72MOL0     C 9395   1.550   2.994   1.558  0.5702 -0.1512 -0.8114
   72MOL0     O 9396   1.638   2.908   1.630 -0.1017  1.1450  0.8830
   72MOL0     C 9397   1.639   2.885   1.766  0.1188 -0.9642  0.8163
   72MOL0     C 9398   1.521   2.852   1.833  0.1174  0.6290 -0.0411
   72MOL0     C 9399   1.518   2.845   1.966 -0.3677 -0.8882 -0.3417
   72MOL0     C 9400   1.638   2.861   2.054  1.2698  0.3261  0.6865
   72MOL0     C 9401   1.637   2.848   2.201  0.4284 -0.3856 -0.0400
   72MOL0     O 9402   1.525   2.883   2.268  0.7510  0.4582  0.0482
   72MOL0     C 9403   1.504   2.831   2.394 -0.1648  0.8451  0.1890
   72MOL0     C 9404   1.471   2.914   2.503  0.2906 -0.0647  0.2973
   72MOL0     C 9405   1.450   2.847   2.622  0.1078 -0.4871  0.1656
   72MOL0     C 9406   1.458   2.712   2.636 -0.2953  0.6971  0.1780
   72MOL0     O 9407   1.429   2.651   2.752 -0.3320  0.1513 -0.7908
   72MOL0     C 9408   1.396   2.708   2.879  0.4552 -0.3661 -0.3966
   72MOL0     C 9409   1.509   2.677   2.970 -0.4644  0.7595  0.1502
   72MOL0     C 9410   1.493   2.542   3.042  0.9678 -0.3226 -0.4984
   72MOL0     C 9411   1.622   2.500   3.124 -0.1159 -1.1641 -0.2639
   72MOL0     C 9412   1.608   2.366   3.194  0.2876 -0.8566  0.4583
   72MOL0     C 9413   1.729   2.310   3.270  0.8777  1.0488  1.4857
   72MOL0     C 9414   1.856   2.304   3.182 -0.7635 -0.0744 -0.6275
   72MOL0     C 9415   1.984   2.230   3.250  0.4724 -0.2037  0.1070
   72MOL0    Cl 9416   2.036   2.321   3.393 -0.3709  0.6082 -0.0082
   72MOL0     C 9417   1.487   2.627   2.532  0.3758  0.5049 -0.0549
   72MOL0     C 9418   1.511   2.688   2.406 -0.0716 -0.2355  0.1400
   72MOL0     O 9419   1.744   2.812   2.257  0.0676  0.0029  0.2801
   72MOL0     C 9420   1.760   2.893   1.978 -0.0424 -0.6228 -1.0485
   72MOL0     C 9421   1.761   2.899   1.836  0.2111 -0.7878  0.1838
   72MOL0     N 9422   1.465   3.006   1.086 -0.0534  0.3930  0.1580
   72MOL0     N 9423   1.486   2.931   0.995 -0.2492  0.0954  0.6663
   72MOL0     C 9424   2.263   2.085   0.760  0.1014  0.1756 -0.1108
   72MOL0     C 9425   2.233   1.970   0.681  0.0069 -0.9751 -0.0756
   72MOL0     C 9426   2.144   1.638   0.395  0.1640 -0.1525  0.5721
   72MOL0     C 9427   2.063   1.659   0.283 -0.2140 -0.3037 -0.1536
   72MOL0     C 9428   2.015   1.551   0.211 -0.5476  1.0459  0.9692
   72MOL0     C 9429   2.043   1.417   0.244 -0.6044 -0.0997 -0.3060
   72MOL0     O 9430   1.999   1.302   0.174  0.3096 -0.0477  0.3859
   72MOL0     C 9431   1.969   1.320   0.029  0.2540  1.0286 -0.9851
   72MOL0     C 9432   1.829   1.339  -0.005  0.0380 -0.6924 -0.2734
   72MOL0     C 9433   1.736   1.232   0.057  1.0102  0.5434  0.1261
   72MOL0     C 9434   1.695   1.116  -0.036  0.0484 -0.4637  0.5952
   72MOL0     C 9435   1.612   1.165  -0.152  0.2476  0.0446 -0.6439
   72MOL0     C 9436   1.530   1.199  -0.235 -0.1713  0.0104  0.3313
   72MOL0     C 9437   2.109   1.395   0.366  0.9644 -0.1049 -0.5845
   72MOL0     C 9438   2.152   1.504   0.448  0.2288 -0.6292 -0.4941
   72MOL0     H 9439   2.276   2.082   0.365 -0.5428 -2.4787  0.0651
   72MOL0     H 9440   2.332   2.292   0.506  0.3611 -1.0030 -0.7947
   72MOL0     H 9441   2.351   2.417   0.938  0.5606  0.7456 -0.9072
   72MOL0     H 9442   2.273   2.267   0.944 -2.0029  1.6917  1.4881
   72MOL0     H 9443   2.083   2.382   0.800 -1.4733 -0.3035  2.6086
   72MOL0     H 9444   2.174   2.526   0.799 -0.6273 -1.6498 -2.0007
   72MOL0     H 9445   2.146   2.511   1.062  1.9540  0.4421 -1.3417
   72MOL0     H 9446   2.089   2.351   1.036 -2.3755  0.5426  1.8370
   72MOL0     H 9447   1.889   2.449   0.904 -0.9896 -1.1293  0.7679
   72MOL0     H 9448   1.894   2.497   1.074  2.8861 -2.0768  0.7608
   72MOL0     H 9449   2.005   2.663   0.842 -1.2427 -0.1624 -0.5918
   72MOL0     H 9450   2.020   2.695   1.020 -0.3982 -3.7922  2.2742
   72MOL0     H 9451   1.771   2.736   1.021 -0.5317 -1.6110 -0.3211
   72MOL0     H 9452   1.768   2.650   0.865  0.1075  0.2028 -1.0449
   72MOL0     H 9453   1.903   2.918   0.904  2.4853 -1.5919 -1.5527
   72MOL0     H 9454   1.866   2.839   0.751  2.8502 -0.3692  0.1733
   72MOL0     H 9455   1.632   2.829   0.788 -0.1306  1.9034  0.0884
   72MOL0     H 9456   1.691   2.982   0.756 -2.2265  0.3934 -0.4341
   72MOL0     H 9457   1.775   3.080   1.038  0.4517 -1.1340  3.1262
   72MOL0     H 9458   1.502   3.292   1.178  0.1424  1.3402  2.1925
   72MOL0     H 9459   1.662   3.247   1.229 -0.5665  1.0471  1.1348
   72MOL0     H 9460   1.408   3.135   1.349  0.1743 -1.3756  0.3041
   72MOL0     H 9461   1.515   3.254   1.429  1.3402  1.2475 -1.2254
   72MOL0     H 9462   1.611   2.967   1.353  0.6470  0.2686  0.5489
   72MOL0     H 9463   1.707   3.086   1.432 -0.7324  0.8469 -0.4957
   72MOL0     H 9464   1.459   2.939   1.535 -1.9727  1.9401  3.1416
   72MOL0     H 9465   1.526   3.083   1.617  2.4735  0.5310 -0.9866
   72MOL0     H 9466   1.430   2.841   1.774  1.6743 -2.6184 -2.1111
   72MOL0     H 9467   1.418   2.834   2.006 -0.4822  0.2219 -0.2835
   72MOL0     H 9468   1.470   3.021   2.486 -3.5897  0.1157  0.6761
   72MOL0     H 9469   1.442   2.906   2.713 -1.1372 -2.4773  1.4361
   72MOL0     H 9470   1.310   2.651   2.917  0.8788  0.4614  1.9276
   72MOL0     H 9471   1.364   2.813   2.881 -1.2899 -0.8234 -1.5863
   72MOL0     H 9472   1.517   2.747   3.053  2.4667 -1.2039  1.6939
   72MOL0     H 9473   1.605   2.659   2.920 -0.3080 -0.5836  0.8856
   72MOL0     H 9474   1.458   2.464   2.974 -3.9755  0.6887  0.5476
   72MOL0     H 9475   1.403   2.549   3.103 -1.5304 -2.0460 -3.7111
   72MOL0     H 9476   1.698   2.482   3.047 -1.0770 -0.7861 -1.3372
   72MOL0     H 9477   1.653   2.568   3.203 -3.0749 -1.7164  1.5387
   72MOL0     H 9478   1.588   2.292   3.116 -1.0494  0.2404 -0.2835
   72MOL0     H 9479   1.514   2.379   3.248  0.0609 -0.3143 -0.0594
   72MOL0     H 9480   1.698   2.215   3.313  2.8289 -0.2404  0.1950
   72MOL0     H 9481   1.750   2.378   3.353  1.4261  0.6903  1.6443
   72MOL0     H 9482   1.843   2.245   3.091  3.4951 -1.7907 -0.3430
   72MOL0     H 9483   1.889   2.404   3.151 -0.6692 -0.3464 -1.4354
   72MOL0     H 9484   2.070   2.225   3.183  1.8314  0.0913  1.7600
   72MOL0     H 9485   1.962   2.123   3.261 -3.1487  0.4196 -0.0090
   72MOL0     H 9486   1.494   2.520   2.549 -0.6626  0.6185  1.2053
   72MOL0     H 9487   1.550   2.627   2.324  1.9737 -0.2006  1.0115
   72MOL0     H 9488   1.860   2.911   2.018  0.0560 -0.4883 -1.3522
   72MOL0     H 9489   1.857   2.917   1.791  1.2724 -0.7642  2.3340
   72MOL0     H 9490   2.265   2.073   0.867  0.0591 -1.3165 -0.2565
   72MOL0     H 9491   2.197   1.877   0.723 -2.3771 -1.1150 -2.1851
   72MOL0     H 9492   2.049   1.766   0.265 -1.2263 -0.2412  0.8361
   72MOL0     H 9493   1.953   1.564   0.122  0.0603  3.4409  0.8424
   72MOL0     H 9494   1.995   1.221  -0.010  0.1046  0.2349  0.8251
   72MOL0     H 9495   2.029   1.396  -0.021 -0.5339  0.6324 -2.5976
   72MOL0     H 9496   1.789   1.434   0.032 -0.4247 -0.8798 -0.2835
   72MOL0     H 9497   1.819   1.347  -0.113 -1.4188 -3.2357 -0.4243
   72MOL0     H 9498   1.634   1.266   0.079  0.1806  0.2267 -2.8320
   72MOL0     H 9499   1.768   1.184   0.150  0.5345 -0.8698 -0.4044
   72MOL0     H 9500   1.789   1.074  -0.075  1.2193 -0.2878  3.0395
   72MOL0     H 9501   1.627   1.040   0.004  1.3532 -2.2380 -0.3902
   72MOL0     H 9502   1.461   1.220  -0.314  2.0517  0.9930 -1.4771
   72MOL0     H 9503   2.122   1.289   0.385  2.9931  0.2453  0.3215
   72MOL0     H 9504   2.209   1.480   0.537 -1.7632  1.5638  1.5371
   73MOL0     O 9505   1.657   9.511   6.301 -0.1958  0.1850  0.5187
   73MOL0     C 9506   1.773   9.487   6.278  0.2313  0.3867 -0.7399
   73MOL0     O 9507   1.825   9.365   6.274 -0.8635  0.7644  0.2733
   73MOL0     C 9508   1.766   9.249   6.310 -0.3768  0.6616 -0.2778
   73MOL0     C 9509   1.706   9.219   6.433 -0.3471 -0.3128  0.2643
   73MOL0     C 9510   1.687   9.085   6.464 -0.3705  0.7419 -0.6450
   73MOL0     C 9511   1.708   8.983   6.371 -0.9044 -0.2714 -1.1357
   73MOL0     O 9512   1.697   8.858   6.408  0.1561  0.2014  0.9244
   73MOL0     C 9513   1.715   8.746   6.315 -0.1631 -0.2435 -0.6202
   73MOL0     C 9514   1.659   8.620   6.373  0.9752 -0.1259  0.2478
   73MOL0     C 9515   1.665   8.493   6.278 -0.5271 -0.4839 -0.1454
   73MOL0     C 9516   1.680   8.361   6.342 -0.6951 -0.2276 -0.1277
   73MOL0     C 9517   1.657   8.227   6.265  0.2662 -0.5963 -0.2269
   73MOL0     C 9518   1.779   8.159   6.220 -0.6859  0.4587  0.4128
   73MOL0     C 9519   1.750   8.011   6.156 -0.2920  0.1736 -0.1713
   73MOL0     C 9520   1.670   8.009   6.028  0.4290  0.2765 -1.2384
   73MOL0     N 9521   1.521   8.029   6.033  0.1617  0.5647  0.0477
   73MOL0     C 9522   1.437   7.970   6.133 -0.0731 -0.1305  0.4070
   73MOL0     C 9523   1.315   7.990   6.077  0.8906  1.1438  0.7916
   73MOL0     C 9524   1.194   7.937   6.151  0.0082 -0.3814  0.5134
   73MOL0     C 9525   1.069   8.027   6.157  0.0706 -0.7551 -1.2287
   73MOL0     C 9526   1.001   8.046   6.022  0.4170 -0.2761  0.1525
   73MOL0     C 9527   0.878   8.122   6.043  0.6710 -0.0705  0.0072
   73MOL0     O 9528   0.764   8.034   6.074  0.8319 -0.3954 -0.0377
   73MOL0     C 9529   0.637   8.102   6.071 -0.0044 -0.1860 -0.0490
   73MOL0     C 9530   0.614   8.235   6.037  0.0637 -0.1956  0.0347
   73MOL0     C 9531   0.490   8.284   6.043 -0.6888  0.6084  0.7370
   73MOL0     C 9532   0.385   8.213   6.100  0.7416  0.8905 -0.5698
   73MOL0     C 9533   0.254   8.271   6.125  0.8153 -0.3641 -0.7814
   73MOL0     O 9534   0.159   8.195   6.177  0.8434 -0.5239  0.0700
   73MOL0     C 9535   0.045   8.253   6.228 -0.1279  0.0442 -1.1427
   73MOL0     C 9536   0.049   8.360   6.319  0.3792  0.0363  0.0417
   73MOL0     C 9537  -0.072   8.408   6.361  0.1084 -0.0481 -1.0368
   73MOL0     C 9538  -0.192   8.354   6.325  0.2285  0.2813  0.2609
   73MOL0     O 9539  -0.314   8.412   6.344 -0.4895 -0.3059  0.0724
   73MOL0     C 9540  -0.311   8.554   6.337  0.0800 -0.1660  0.1345
   73MOL0     C 9541  -0.450   8.616   6.352 -0.5561  0.6432  0.8085
   73MOL0     C 9542  -0.436   8.760   6.402  0.6823  1.4967  0.7262
   73MOL0     C 9543  -0.589   8.792   6.433 -0.0619  0.3928  0.5325
   73MOL0     C 9544  -0.606   8.934   6.496 -0.0069  0.1220 -0.2042
   73MOL0     C 9545  -0.571   9.036   6.386  0.1252  0.8337 -0.0528
   73MOL0     C 9546  -0.604   9.184   6.424 -0.7056 -0.1143  0.2125
   73MOL0     C 9547  -0.535   9.219   6.552 -1.0027  1.0906 -0.2252
   73MOL0    Cl 9548  -0.547   9.400   6.579 -0.1892 -0.2747 -0.1666
   73MOL0     C 9549  -0.190   8.229   6.258  0.4706 -0.0746  0.2819
   73MOL0     C 9550  -0.073   8.181   6.196 -0.2943  0.4423  0.4017
   73MOL0     O 9551   0.240   8.390   6.107  0.0655  0.0825 -0.0943
   73MOL0     C 9552   0.413   8.082   6.146 -0.0011 -0.1403 -0.5101
   73MOL0     C 9553   0.533   8.023   6.124  0.3968  0.1723 -0.4040
   73MOL0     N 9554   1.319   8.066   5.962  0.5206  0.9226  0.1965
   73MOL0     N 9555   1.445   8.084   5.937 -0.7780  0.4333  0.0199
   73MOL0     C 9556   1.753   9.019   6.245  0.3364 -0.0431 -0.1320
   73MOL0     C 9557   1.779   9.148   6.213 -0.1281  0.1099  0.4583
   73MOL0     C 9558   1.861   9.610   6.274 -0.3479 -0.7828 -1.2991
   73MOL0     C 9559   1.810   9.734   6.237  0.0150  0.0446 -0.3150
   73MOL0     C 9560   1.879   9.856   6.250  0.5077  0.5182  0.5734
   73MOL0     C 9561   2.004   9.855   6.294  0.7149 -0.5032 -1.1970
   73MOL0     O 9562   2.075   9.974   6.284 -0.3547  0.3945 -0.2942
   73MOL0     C 9563   2.112  10.028   6.409 -0.5737 -0.3878  0.3342
   73MOL0     C 9564   2.096  10.181   6.423 -0.6391 -0.5123  0.1884
   73MOL0     C 9565   1.950  10.210   6.448 -1.1280  0.0376 -0.5358
   73MOL0     C 9566   1.910  10.170   6.586  0.3903  0.3421 -0.3634
   73MOL0     C 9567   1.780  10.231   6.618  0.1656  0.1013 -0.7899
   73MOL0     C 9568   1.675  10.279   6.651 -0.9823  0.0491 -0.2651
   73MOL0     C 9569   2.064   9.732   6.339  0.5296 -0.5226  0.3640
   73MOL0     C 9570   2.001   9.612   6.327  0.0237  0.0918  0.5132
   73MOL0     H 9571   1.683   9.293   6.508 -1.2898  0.7446 -1.0182
   73MOL0     H 9572   1.665   9.047   6.563 -0.3633 -2.2194 -1.6957
   73MOL0     H 9573   1.821   8.730   6.295 -0.4367 -2.5492 -0.4856
   73MOL0     H 9574   1.665   8.762   6.219  2.3110  0.3689 -1.9035
   73MOL0     H 9575   1.551   8.634   6.383  1.0658  1.6873 -0.8307
   73MOL0     H 9576   1.701   8.606   6.473 -0.8056 -0.2576  1.0183
   73MOL0     H 9577   1.749   8.498   6.208 -1.4060 -2.0822 -1.3894
   73MOL0     H 9578   1.575   8.489   6.215 -0.9733 -1.2681  0.5197
   73MOL0     H 9579   1.779   8.356   6.387 -1.0977 -1.0942  0.7011
   73MOL0     H 9580   1.600   8.356   6.418  0.4284  0.1847  1.1162
   73MOL0     H 9581   1.598   8.240   6.174  0.0832 -0.3874 -0.0792
   73MOL0     H 9582   1.597   8.161   6.328 -1.9667  0.9953 -0.5565
   73MOL0     H 9583   1.841   8.146   6.309 -0.3828  0.9366  0.2715
   73MOL0     H 9584   1.832   8.223   6.149 -1.1048  1.7002  1.1806
   73MOL0     H 9585   1.845   7.959   6.144 -1.5629 -2.4718  0.4103
   73MOL0     H 9586   1.685   7.949   6.219 -1.2179 -0.6298 -1.8565
   73MOL0     H 9587   1.675   7.909   5.983 -0.9358 -0.9120  1.0624
   73MOL0     H 9588   1.710   8.080   5.955 -2.7955  0.2122 -3.2722
   73MOL0     H 9589   1.463   7.915   6.223 -3.0552 -0.7168  1.0154
   73MOL0     H 9590   1.225   7.904   6.251  2.3421 -1.0224 -0.3711
   73MOL0     H 9591   1.155   7.849   6.098 -0.2619  1.0511 -1.7724
   73MOL0     H 9592   1.092   8.129   6.191 -0.3189 -0.7446 -0.9940
   73MOL0     H 9593   0.996   7.984   6.227  1.1757  0.7905  1.0212
   73MOL0     H 9594   1.071   8.085   5.947  0.6282  0.0294  0.5032
   73MOL0     H 9595   0.975   7.944   5.991  0.7802 -0.6466  1.0283
   73MOL0     H 9596   0.866   8.173   5.947  5.4607  4.9883  1.5830
   73MOL0     H 9597   0.893   8.202   6.115 -1.1052  2.4627 -2.2194
   73MOL0     H 9598   0.676   8.295   5.972 -0.5436  2.6771  1.8842
   73MOL0     H 9599   0.479   8.386   6.009  1.6215  0.9808  1.0055
   73MOL0     H 9600   0.145   8.407   6.337  0.5634  0.1078 -1.0081
   73MOL0     H 9601  -0.066   8.499   6.421 -1.4047 -0.4672 -0.2038
   73MOL0     H 9602  -0.264   8.588   6.245  1.0120  4.5336  2.0320
   73MOL0     H 9603  -0.248   8.590   6.419  1.4875 -2.2360  0.0286
   73MOL0     H 9604  -0.506   8.550   6.419 -0.7844 -2.5633 -2.2128
   73MOL0     H 9605  -0.494   8.613   6.252  1.7725 -0.0694 -0.2647
   73MOL0     H 9606  -0.401   8.828   6.324 -1.4608  0.5861 -1.1473
   73MOL0     H 9607  -0.371   8.771   6.489  1.9560  2.6455 -0.3176
   73MOL0     H 9608  -0.659   8.782   6.349 -0.6185  2.9480  0.6190
   73MOL0     H 9609  -0.611   8.717   6.509  0.1069 -1.6618 -1.3598
   73MOL0     H 9610  -0.559   8.957   6.591 -0.6801  0.6119  0.0195
   73MOL0     H 9611  -0.712   8.946   6.522 -0.3674 -1.9184 -0.5434
   73MOL0     H 9612  -0.627   9.007   6.297  1.9811 -4.0448  0.0219
   73MOL0     H 9613  -0.467   9.030   6.350 -0.4195 -0.5469 -1.5228
   73MOL0     H 9614  -0.584   9.254   6.342 -0.2295 -0.1479  0.2967
   73MOL0     H 9615  -0.711   9.184   6.445 -0.5365 -2.0901  1.3732
   73MOL0     H 9616  -0.428   9.197   6.558 -0.8303  1.7134 -0.7943
   73MOL0     H 9617  -0.586   9.168   6.633 -3.6138  1.3558 -1.5888
   73MOL0     H 9618  -0.281   8.174   6.237 -0.6279  1.6306  0.3523
   73MOL0     H 9619  -0.082   8.081   6.155 -3.1207  0.7205  0.1519
   73MOL0     H 9620   0.337   8.018   6.191 -0.0961  1.7134  2.1904
   73MOL0     H 9621   0.552   7.921   6.157 -0.1355 -0.1413 -1.0442
   73MOL0     H 9622   1.770   8.946   6.167  2.4663  1.6838 -1.4089
   73MOL0     H 9623   1.817   9.175   6.115 -0.0592 -2.0252 -0.1512
   73MOL0     H 9624   1.706   9.737   6.207  0.2482  0.3360 -1.1111
   73MOL0     H 9625   1.823   9.944   6.222 -0.5876 -0.6713 -1.2129
   73MOL0     H 9626   2.219  10.006   6.413 -0.4861  0.1940  2.0693
   73MOL0     H 9627   2.065   9.974   6.491 -0.2858  1.8974  2.1188
   73MOL0     H 9628   2.162  10.215   6.503  1.1511 -0.6111 -1.1768
   73MOL0     H 9629   2.135  10.225   6.331  0.0365 -0.6058  0.4305
   73MOL0     H 9630   1.887  10.151   6.380  0.1943 -0.2680 -1.5378
   73MOL0     H 9631   1.927  10.314   6.423 -1.3125  0.3523  0.8490
   73MOL0     H 9632   1.899  10.063   6.606  0.9759  0.6209  1.6242
   73MOL0     H 9633   1.983  10.214   6.655  0.0179 -0.8608  0.8584
   73MOL0     H 9634   1.592  10.341   6.678 -0.5233 -0.4087  2.5437
   73MOL0     H 9635   2.162   9.721   6.384  0.2437  0.3990  1.2416
   73MOL0     H 9636   2.040   9.517   6.361 -1.6463  0.3077  3.3694
   74MOL0     O 9637   7.906   6.948   6.764  0.2570 -0.0271  0.2091
   74MOL0     C 9638   8.007   7.007   6.806 -0.8206  0.3148 -0.3477
   74MOL0     O 9639   8.032   7.138   6.804 -0.2507  0.8796 -0.9567
   74MOL0     C 9640   7.955   7.211   6.716  0.7058  0.5869 -0.2210
   74MOL0     C 9641   7.928   7.180   6.577  0.1006  0.2614 -0.9595
   74MOL0     C 9642   7.866   7.287   6.507  0.6239  0.0981  0.2831
   74MOL0     C 9643   7.835   7.413   6.561  0.0725  0.4891 -0.1091
   74MOL0     O 9644   7.756   7.504   6.511  0.1420  0.3254  0.3690
   74MOL0     C 9645   7.727   7.495   6.367 -0.5467 -0.3111 -0.0108
   74MOL0     C 9646   7.679   7.645   6.325  0.0415  0.5139  0.6354
   74MOL0     C 9647   7.597   7.634   6.195  0.4172  1.1323 -0.4840
   74MOL0     C 9648   7.550   7.776   6.160  0.3730 -0.9040 -0.4273
   74MOL0     C 9649   7.432   7.823   6.246 -0.8325  0.6412  0.6094
   74MOL0     C 9650   7.378   7.957   6.199  1.0489  0.4627  0.6936
   74MOL0     C 9651   7.275   8.005   6.306  0.4153  0.2632  1.0256
   74MOL0     C 9652   7.202   8.126   6.254  0.0386 -0.9991 -0.4089
   74MOL0     N 9653   7.082   8.096   6.171  0.4369 -0.1295 -0.3066
   74MOL0     C 9654   6.961   8.056   6.224  0.4025  0.7351  0.4349
   74MOL0     C 9655   6.884   8.030   6.119  1.0380 -0.1422  1.6418
   74MOL0     C 9656   6.737   7.988   6.128  0.9413  0.5752  0.1662
   74MOL0     C 9657   6.649   8.112   6.117 -0.4204 -1.2872  1.2164
   74MOL0     C 9658   6.513   8.082   6.171 -0.6924  0.9797 -1.3728
   74MOL0     C 9659   6.420   8.192   6.128 -0.5726  1.3386  0.0157
   74MOL0     O 9660   6.474   8.318   6.156  0.5085 -0.0314 -0.0010
   74MOL0     C 9661   6.402   8.440   6.134 -0.2748  0.1692 -0.3998
   74MOL0     C 9662   6.468   8.546   6.193  0.9281 -0.3620 -0.4006
   74MOL0     C 9663   6.413   8.674   6.174 -0.0606 -1.0172 -0.1047
   74MOL0     C 9664   6.309   8.703   6.090  1.3574  1.0914  1.6569
   74MOL0     C 9665   6.260   8.840   6.066  0.6183  0.0541 -0.4264
   74MOL0     O 9666   6.137   8.855   6.010  0.2953 -0.2862  0.0550
   74MOL0     C 9667   6.088   8.974   5.942 -0.6804 -0.7465 -1.0039
   74MOL0     C 9668   5.953   8.972   5.908 -0.3615  0.1806 -0.4560
   74MOL0     C 9669   5.888   9.084   5.848 -0.2424 -0.3629 -1.1942
   74MOL0     C 9670   5.966   9.197   5.822 -0.4251 -0.8470 -0.2833
   74MOL0     O 9671   5.902   9.311   5.778  0.0103 -0.3252 -0.2612
   74MOL0     C 9672   5.967   9.434   5.736 -0.7605  0.1306  1.1330
   74MOL0     C 9673   5.860   9.536   5.718 -0.6850 -0.0459 -0.9640
   74MOL0     C 9674   5.771   9.510   5.609  0.7991  0.6899 -0.0932
   74MOL0     C 9675   5.813   9.592   5.483 -0.1895  0.2312  0.0212
   74MOL0     C 9676   5.745   9.735   5.488 -0.1684 -0.0683  0.1823
   74MOL0     C 9677   5.593   9.739   5.452  0.5778  0.6366 -0.2186
   74MOL0     C 9678   5.556   9.675   5.324  0.0786 -0.6448 -0.0644
   74MOL0     C 9679   5.407   9.684   5.287 -0.4170 -0.1974 -0.1355
   74MOL0    Cl 9680   5.368   9.849   5.236  0.3744 -0.0437 -0.1008
   74MOL0     C 9681   6.106   9.196   5.836  0.7975 -0.0122 -0.4422
   74MOL0     C 9682   6.166   9.078   5.881  0.1428  1.1064 -0.6589
   74MOL0     O 9683   6.342   8.934   6.071 -0.0340  0.0535  0.0476
   74MOL0     C 9684   6.253   8.590   6.025  0.1447  0.6320  0.5607
   74MOL0     C 9685   6.296   8.462   6.048  0.0923 -0.1899  0.4930
   74MOL0     N 9686   6.952   8.077   6.006  0.3780 -0.1679  0.1658
   74MOL0     N 9687   7.073   8.107   6.035 -0.0902 -0.6701 -0.4328
   74MOL0     C 9688   7.863   7.433   6.701 -0.7695 -0.8479  0.0791
   74MOL0     C 9689   7.917   7.334   6.773 -0.9245  0.9092 -0.4680
   74MOL0     C 9690   8.120   6.913   6.847  0.0169  0.2279 -0.0230
   74MOL0     C 9691   8.241   6.966   6.897 -0.8758 -0.5595 -0.4035
   74MOL0     C 9692   8.337   6.882   6.957  1.1119  0.0102  0.1058
   74MOL0     C 9693   8.318   6.742   6.962  0.1567 -0.0539 -0.3834
   74MOL0     O 9694   8.411   6.652   7.010  0.1269  0.4432 -0.0487
   74MOL0     C 9695   8.515   6.708   7.098 -0.1640  0.6200  0.0688
   74MOL0     C 9696   8.573   6.584   7.178 -0.8447  0.2935 -0.6651
   74MOL0     C 9697   8.710   6.620   7.238  0.8583  0.3358 -0.7250
   74MOL0     C 9698   8.735   6.543   7.362  0.1091  0.1921 -0.4601
   74MOL0     C 9699   8.754   6.401   7.319  0.3924 -1.3476  0.1740
   74MOL0     C 9700   8.781   6.285   7.299 -0.5847  0.3490 -0.0871
   74MOL0     C 9701   8.206   6.685   6.895  0.2575 -0.0379  0.3541
   74MOL0     C 9702   8.107   6.767   6.840 -0.5064 -0.0336  0.1608
   74MOL0     H 9703   7.970   7.091   6.533  1.1362 -0.2786  1.0162
   74MOL0     H 9704   7.854   7.271   6.400  0.8256  3.0753 -0.2664
   74MOL0     H 9705   7.656   7.417   6.336 -2.0609  1.6403 -1.7013
   74MOL0     H 9706   7.810   7.483   6.297 -1.1078  0.1189 -0.7678
   74MOL0     H 9707   7.761   7.714   6.302 -1.6997  2.1350 -1.1726
   74MOL0     H 9708   7.612   7.695   6.395  2.6852  0.6784  3.2413
   74MOL0     H 9709   7.515   7.563   6.201  0.4600  1.2082  1.8536
   74MOL0     H 9710   7.665   7.592   6.120 -0.3840 -2.2022  0.4979
   74MOL0     H 9711   7.639   7.839   6.158 -1.0529  1.1837 -2.6086
   74MOL0     H 9712   7.512   7.771   6.058 -2.6724  1.9250  0.3973
   74MOL0     H 9713   7.474   7.835   6.346  3.6206 -0.4880 -0.8793
   74MOL0     H 9714   7.365   7.737   6.257  1.9572 -2.0551 -1.6071
   74MOL0     H 9715   7.329   7.940   6.103  3.4114 -0.1427 -0.4806
   74MOL0     H 9716   7.470   8.016   6.188  1.0759  0.5288  1.2246
   74MOL0     H 9717   7.201   7.925   6.309  1.2535 -1.0075 -3.4531
   74MOL0     H 9718   7.332   8.033   6.395 -1.1549  0.0135  2.1377
   74MOL0     H 9719   7.281   8.174   6.195  0.3230  0.1935  0.8682
   74MOL0     H 9720   7.171   8.191   6.337 -0.2515 -1.3362 -0.2525
   74MOL0     H 9721   6.936   8.059   6.330  0.1855  0.6852  0.3846
   74MOL0     H 9722   6.741   7.940   6.227 -0.4120  0.6882  0.3005
   74MOL0     H 9723   6.696   7.911   6.062 -0.2248  0.3788  1.0863
   74MOL0     H 9724   6.644   8.158   6.018  0.0837  1.3855  2.3289
   74MOL0     H 9725   6.705   8.190   6.170  0.1807 -0.1586 -0.9549
   74MOL0     H 9726   6.477   7.985   6.137  4.2454 -0.5081 -3.2394
   74MOL0     H 9727   6.520   8.080   6.280  1.5400 -1.4936 -1.4464
   74MOL0     H 9728   6.322   8.189   6.175 -0.1892 -0.9565  0.7891
   74MOL0     H 9729   6.392   8.181   6.023 -1.9449  0.8573  0.4128
   74MOL0     H 9730   6.553   8.529   6.259  0.9375 -0.3849 -0.4190
   74MOL0     H 9731   6.458   8.759   6.225  1.4487 -1.2194 -1.0119
   74MOL0     H 9732   5.876   8.898   5.924 -1.5940  1.1382 -1.6912
   74MOL0     H 9733   5.780   9.087   5.832 -0.2121  3.1264 -1.5298
   74MOL0     H 9734   6.006   9.412   5.636 -1.3970  1.1449  0.6425
   74MOL0     H 9735   6.042   9.458   5.812 -0.7055 -3.8171  2.5211
   74MOL0     H 9736   5.913   9.631   5.707  2.8689 -1.6374  0.8451
   74MOL0     H 9737   5.808   9.536   5.814  0.5296 -4.3029 -0.1136
   74MOL0     H 9738   5.669   9.540   5.638  1.4504  0.9168  2.1345
   74MOL0     H 9739   5.776   9.403   5.589  1.4691  0.5616  0.7001
   74MOL0     H 9740   5.922   9.602   5.482 -0.0470 -1.2727 -0.7015
   74MOL0     H 9741   5.778   9.553   5.387 -0.0685  0.7811 -0.2516
   74MOL0     H 9742   5.811   9.792   5.421  2.3970  0.1084  2.6326
   74MOL0     H 9743   5.758   9.772   5.591  0.1594 -1.1079  0.5212
   74MOL0     H 9744   5.560   9.843   5.452 -0.7617  0.2418 -1.6087
   74MOL0     H 9745   5.527   9.689   5.523 -0.1173  0.5921 -0.8879
   74MOL0     H 9746   5.622   9.703   5.241  2.6092 -2.8499  1.0462
   74MOL0     H 9747   5.579   9.569   5.339  0.2059 -0.7135 -0.7014
   74MOL0     H 9748   5.343   9.663   5.373 -2.5804 -3.1364 -2.2712
   74MOL0     H 9749   5.388   9.610   5.209 -1.1353  0.0647 -0.2153
   74MOL0     H 9750   6.162   9.286   5.812 -1.1502  1.6364  0.8102
   74MOL0     H 9751   6.272   9.068   5.862 -0.1090 -2.1155 -0.8625
   74MOL0     H 9752   6.176   8.599   5.949 -0.0203 -0.6259  0.5624
   74MOL0     H 9753   6.239   8.386   5.995 -1.3837  1.1704  0.0311
   74MOL0     H 9754   7.838   7.528   6.747  2.4376 -0.7988  2.0806
   74MOL0     H 9755   7.925   7.359   6.878 -1.8214 -3.9270  0.9771
   74MOL0     H 9756   8.263   7.072   6.888  2.2759 -1.0735 -0.0187
   74MOL0     H 9757   8.426   6.930   6.996  1.8674 -1.5408  0.3356
   74MOL0     H 9758   8.476   6.785   7.165 -1.4716  1.2321 -1.3480
   74MOL0     H 9759   8.586   6.757   7.031  2.0121  0.4814  2.1114
   74MOL0     H 9760   8.516   6.553   7.265  1.9382 -3.9144 -0.0658
   74MOL0     H 9761   8.578   6.503   7.104  0.9642 -0.8382  0.6215
   74MOL0     H 9762   8.698   6.727   7.257 -0.0206  0.5586 -2.3373
   74MOL0     H 9763   8.783   6.596   7.160  1.6515 -2.5383  0.7798
   74MOL0     H 9764   8.819   6.583   7.419 -0.3636 -1.0120  1.1876
   74MOL0     H 9765   8.649   6.548   7.431  0.4376  2.1879 -0.1456
   74MOL0     H 9766   8.805   6.183   7.276  0.0907  0.3736  0.4591
   74MOL0     H 9767   8.182   6.580   6.880  3.3640 -0.4602 -3.5577
   74MOL0     H 9768   8.017   6.723   6.799  0.8889 -0.6487 -2.5379
   75MOL0     O 9769   5.611   8.442   0.467 -0.4657 -0.0606  1.0022
   75MOL0     C 9770   5.576   8.541   0.406  0.1024 -0.0452 -0.1441
   75MOL0     O 9771   5.597   8.672   0.435 -0.4144  0.4932  0.5276
   75MOL0     C 9772   5.700   8.700   0.527 -0.4695  0.0587  1.0888
   75MOL0     C 9773   5.802   8.787   0.494 -0.7964 -0.0026  0.2249
   75MOL0     C 9774   5.899   8.826   0.589  0.2409 -0.1761 -0.5917
   75MOL0     C 9775   5.886   8.775   0.723 -0.3510 -0.3377 -0.2892
   75MOL0     O 9776   5.958   8.818   0.830  1.0723  0.3693  0.6156
   75MOL0     C 9777   6.066   8.896   0.808  0.0126 -0.4389  0.1235
   75MOL0     C 9778   6.169   8.893   0.928 -0.0262 -0.7492 -0.7224
   75MOL0     C 9779   6.237   8.753   0.960  0.2359 -0.5331  0.4145
   75MOL0     C 9780   6.364   8.751   1.054  0.1760  0.4988 -0.7000
   75MOL0     C 9781   6.397   8.613   1.100 -0.0962  0.3292 -0.2947
   75MOL0     C 9782   6.507   8.608   1.209 -0.2067  0.6209 -0.0157
   75MOL0     C 9783   6.455   8.668   1.342 -0.1235  0.3600 -0.2017
   75MOL0     C 9784   6.564   8.685   1.459 -0.1138  0.8731  0.2830
   75MOL0     N 9785   6.591   8.545   1.508 -0.0014  0.2719  0.3134
   75MOL0     C 9786   6.517   8.470   1.590  0.5530  0.2697  0.0198
   75MOL0     C 9787   6.594   8.370   1.632  0.0716 -0.4729  0.1016
   75MOL0     C 9788   6.551   8.265   1.732  0.2267 -0.3718 -0.0636
   75MOL0     C 9789   6.579   8.304   1.875 -0.0377  1.0478 -0.1454
   75MOL0     C 9790   6.732   8.325   1.905 -0.4025  0.4932  0.0777
   75MOL0     C 9791   6.758   8.394   2.045  0.5993 -0.0774 -0.1877
   75MOL0     O 9792   6.892   8.443   2.042  0.0081 -0.2062 -0.1857
   75MOL0     C 9793   6.940   8.539   2.131 -0.3597 -0.2901 -0.1261
   75MOL0     C 9794   6.882   8.579   2.248  0.3777 -0.5122 -0.6911
   75MOL0     C 9795   6.923   8.695   2.309  0.0818  1.3221  0.1736
   75MOL0     C 9796   7.046   8.753   2.272  0.2611  0.4365 -0.0606
   75MOL0     C 9797   7.101   8.871   2.347 -0.8608  0.2285 -1.0059
   75MOL0     O 9798   7.231   8.912   2.331  0.1695  0.5898  0.0158
   75MOL0     C 9799   7.285   9.011   2.404 -0.5858  0.2632  0.2383
   75MOL0     C 9800   7.232   9.064   2.524 -0.1991 -0.6764 -0.4223
   75MOL0     C 9801   7.285   9.172   2.586  0.0176  0.3942 -0.2606
   75MOL0     C 9802   7.396   9.224   2.540 -0.1770  0.2775 -0.1385
   75MOL0     O 9803   7.449   9.330   2.602  0.1136  0.0765  0.1556
   75MOL0     C 9804   7.437   9.357   2.747  0.3304 -0.3669  0.2769
   75MOL0     C 9805   7.496   9.254   2.839  0.0709 -0.6451 -0.5083
   75MOL0     C 9806   7.652   9.258   2.832  0.3381 -0.7851  0.8323
   75MOL0     C 9807   7.720   9.143   2.914  0.4700  0.9217 -0.7599
   75MOL0     C 9808   7.850   9.109   2.853 -1.2418  0.9174 -0.6278
   75MOL0     C 9809   7.951   9.220   2.859  0.1029  0.7488  0.1118
   75MOL0     C 9810   8.083   9.166   2.798 -0.2459 -0.1665 -0.5675
   75MOL0     C 9811   8.201   9.256   2.826 -0.2093  0.1007 -0.2199
   75MOL0    Cl 9812   8.169   9.423   2.766  0.0894 -0.0451 -0.2965
   75MOL0     C 9813   7.452   9.180   2.414  0.4615  1.1018  0.1019
   75MOL0     C 9814   7.394   9.076   2.345 -0.7490  1.0148  0.2208
   75MOL0     O 9815   7.019   8.924   2.419 -0.0386 -0.5591  0.5433
   75MOL0     C 9816   7.117   8.699   2.163 -0.3954  0.4128 -0.9288
   75MOL0     C 9817   7.063   8.588   2.097  0.0657 -0.4829  0.4778
   75MOL0     N 9818   6.723   8.391   1.581  0.8122  0.1165  0.0540
   75MOL0     N 9819   6.716   8.497   1.510  0.0438  0.4477 -0.0086
   75MOL0     C 9820   5.782   8.690   0.754  0.1104 -0.2402 -0.0362
   75MOL0     C 9821   5.695   8.641   0.652  0.2829  0.2101  0.2208
   75MOL0     C 9822   5.463   8.512   0.310  0.5733 -0.1074  0.4170
   75MOL0     C 9823   5.424   8.609   0.216 -0.0656 -0.2050  0.1362
   75MOL0     C 9824   5.315   8.601   0.133 -0.9503  0.1534  0.3296
   75MOL0     C 9825   5.231   8.486   0.139  0.0930 -0.1632  0.1078
   75MOL0     O 9826   5.126   8.452   0.059 -0.3857 -0.5229  0.0153
   75MOL0     C 9827   5.094   8.533  -0.053 -0.2149  0.1272  0.0313
   75MOL0     C 9828   5.184   8.518  -0.181  0.8168 -0.0892  0.2311
   75MOL0     C 9829   5.174   8.372  -0.235 -0.0770  0.1070  0.5717
   75MOL0     C 9830   5.272   8.272  -0.161 -0.1838  0.1981  0.7217
   75MOL0     C 9831   5.257   8.127  -0.198  1.2034  0.3803  0.6777
   75MOL0     C 9832   5.237   8.017  -0.241  0.4313 -0.2830  0.0125
   75MOL0     C 9833   5.265   8.391   0.230  0.0142 -0.7405 -0.0854
   75MOL0     C 9834   5.379   8.395   0.313 -0.0876  0.6499 -0.0749
   75MOL0     H 9835   5.792   8.841   0.401 -3.1555 -0.9613 -0.1387
   75MOL0     H 9836   5.977   8.899   0.567 -0.1089  0.3646 -0.0791
   75MOL0     H 9837   6.046   9.001   0.783  2.4905  0.6911  2.3279
   75MOL0     H 9838   6.122   8.858   0.722 -1.7754 -2.1728 -0.3357
   75MOL0     H 9839   6.107   8.907   1.017  1.2115  1.6477 -0.1375
   75MOL0     H 9840   6.249   8.968   0.932 -0.3753 -0.4174  2.3511
   75MOL0     H 9841   6.261   8.708   0.863  0.1793  0.3144 -0.0025
   75MOL0     H 9842   6.161   8.686   1.001 -1.8294  1.5243  0.1099
   75MOL0     H 9843   6.444   8.801   0.998 -2.4756  0.9606 -4.4678
   75MOL0     H 9844   6.335   8.806   1.144 -0.3182 -0.5142 -0.2267
   75MOL0     H 9845   6.443   8.568   1.011 -0.3107  0.5032 -0.4984
   75MOL0     H 9846   6.315   8.544   1.125  1.1569 -1.7263 -1.5609
   75MOL0     H 9847   6.591   8.658   1.161  0.1221  0.1639  0.0811
   75MOL0     H 9848   6.531   8.504   1.232 -1.7727  0.0434 -0.8022
   75MOL0     H 9849   6.421   8.771   1.331 -1.4812  0.0807  1.0154
   75MOL0     H 9850   6.371   8.610   1.383  1.2347 -0.7273  1.1375
   75MOL0     H 9851   6.527   8.758   1.532  0.7078  2.5055 -0.8416
   75MOL0     H 9852   6.660   8.725   1.423  0.6260  0.4087  1.6423
   75MOL0     H 9853   6.412   8.489   1.610  0.6180  4.6123 -2.4777
   75MOL0     H 9854   6.600   8.171   1.702 -0.9210 -0.2083 -2.7532
   75MOL0     H 9855   6.444   8.243   1.718  0.1106 -0.9935  1.5316
   75MOL0     H 9856   6.538   8.224   1.937  2.0988  1.1973  1.5661
   75MOL0     H 9857   6.525   8.392   1.912 -2.2882 -0.4063  0.1890
   75MOL0     H 9858   6.786   8.230   1.897  2.2545  1.9991 -1.1588
   75MOL0     H 9859   6.762   8.397   1.828 -2.1398  3.2150  1.7770
   75MOL0     H 9860   6.748   8.330   2.133  1.3073  2.7977  2.1511
   75MOL0     H 9861   6.679   8.469   2.051 -0.7429 -1.5834  3.1304
   75MOL0     H 9862   6.791   8.532   2.284 -0.4212  3.2124  2.9643
   75MOL0     H 9863   6.863   8.729   2.392  0.5299 -1.5034  1.7779
   75MOL0     H 9864   7.147   9.024   2.579 -2.5286  2.5650 -1.3926
   75MOL0     H 9865   7.224   9.212   2.667  2.0926  0.2791  1.4593
   75MOL0     H 9866   7.333   9.387   2.762  0.0752 -0.4948 -1.0688
   75MOL0     H 9867   7.485   9.454   2.764 -1.4741  0.5196  0.6259
   75MOL0     H 9868   7.456   9.158   2.806  0.6383 -1.3922  0.9024
   75MOL0     H 9869   7.468   9.270   2.944 -4.2359 -3.8820 -0.8532
   75MOL0     H 9870   7.683   9.359   2.863  2.1198 -1.1667  0.3599
   75MOL0     H 9871   7.667   9.255   2.723 -0.0673  1.3468  0.6721
   75MOL0     H 9872   7.718   9.166   3.020 -3.4202 -0.0823 -0.4606
   75MOL0     H 9873   7.654   9.057   2.897  0.5200  1.1838 -2.4576
   75MOL0     H 9874   7.837   9.084   2.747 -0.4465 -0.6945 -0.3725
   75MOL0     H 9875   7.893   9.024   2.907  1.5075  4.1569  2.8235
   75MOL0     H 9876   7.972   9.237   2.966 -0.9872  1.9302  0.1575
   75MOL0     H 9877   7.921   9.315   2.815 -0.3713 -0.8232 -3.2413
   75MOL0     H 9878   8.091   9.065   2.838 -0.5251 -0.8032 -2.0831
   75MOL0     H 9879   8.079   9.165   2.689  1.7586 -0.9284 -0.6654
   75MOL0     H 9880   8.287   9.206   2.782  1.0825  2.0744 -0.0854
   75MOL0     H 9881   8.234   9.259   2.931  3.8120  0.7043 -1.3369
   75MOL0     H 9882   7.535   9.238   2.375 -0.5227  1.8577 -0.9418
   75MOL0     H 9883   7.441   9.045   2.252 -1.4235 -3.0190  1.0117
   75MOL0     H 9884   7.205   8.752   2.129 -0.9070  1.0513 -1.2692
   75MOL0     H 9885   7.106   8.536   2.013 -0.5882 -0.4687  0.1303
   75MOL0     H 9886   5.764   8.649   0.852 -0.0861  1.5686  0.7178
   75MOL0     H 9887   5.612   8.575   0.671 -0.8591  1.6833  0.5673
   75MOL0     H 9888   5.485   8.699   0.207  1.0833 -1.0855 -1.3488
   75MOL0     H 9889   5.284   8.687   0.074  0.3988  0.9235  0.7068
   75MOL0     H 9890   5.097   8.634  -0.012 -1.3844  0.4180 -0.5673
   75MOL0     H 9891   4.992   8.508  -0.084 -1.2456  2.0511  1.6884
   75MOL0     H 9892   5.157   8.583  -0.266  2.2127 -1.6949 -1.5392
   75MOL0     H 9893   5.283   8.543  -0.142 -0.1050  0.5537  2.2988
   75MOL0     H 9894   5.199   8.371  -0.342 -0.1363  1.5641  0.5206
   75MOL0     H 9895   5.073   8.338  -0.212  0.7688 -0.5326  3.8769
   75MOL0     H 9896   5.374   8.294  -0.194 -1.7660  2.4166 -3.4729
   75MOL0     H 9897   5.255   8.281  -0.053 -2.0906  0.8782  0.4142
   75MOL0     H 9898   5.218   7.915  -0.265  1.7418 -0.2163 -1.4857
   75MOL0     H 9899   5.196   8.309   0.245 -0.5095  0.0242  2.0201
   75MOL0     H 9900   5.410   8.319   0.384 -1.0220 -0.3626 -0.7135
   76MOL0     O 9901   3.661   1.868   5.742  0.4418 -0.6596  0.1465
   76MOL0     C 9902   3.721   1.860   5.633  0.4308  0.2130 -0.6824
   76MOL0     O 9903   3.659   1.848   5.514  0.4153 -0.2410 -0.3782
   76MOL0     C 9904   3.524   1.856   5.504  0.5527 -0.7214 -0.2783
   76MOL0     C 9905   3.437   1.744   5.526 -0.1681 -0.3446  0.1638
   76MOL0     C 9906   3.301   1.743   5.516  0.0381  0.2751 -0.3953
   76MOL0     C 9907   3.248   1.865   5.496 -0.6859 -0.2939  0.0441
   76MOL0     O 9908   3.116   1.897   5.477  0.7680 -0.4280  0.2125
   76MOL0     C 9909   3.031   1.830   5.575  0.7666  0.5820  0.3693
   76MOL0     C 9910   2.888   1.841   5.525  0.4763 -0.3487 -0.9046
   76MOL0     C 9911   2.798   1.781   5.633 -0.0313  0.7640  1.1639
   76MOL0     C 9912   2.648   1.799   5.600  0.5079 -0.1352 -0.7053
   76MOL0     C 9913   2.562   1.714   5.707  0.0389 -0.2967  0.1228
   76MOL0     C 9914   2.422   1.735   5.668  0.0569  0.1352 -0.4742
   76MOL0     C 9915   2.339   1.614   5.702 -0.6525 -0.2858  0.7297
   76MOL0     C 9916   2.189   1.653   5.707 -1.0166  0.1203  0.1460
   76MOL0     N 9917   2.157   1.748   5.817  0.1925 -0.1646 -0.3458
   76MOL0     C 9918   2.124   1.722   5.946  0.1864 -0.1768  0.7074
   76MOL0     C 9919   2.110   1.847   5.996  0.2461 -0.0955 -0.1948
   76MOL0     C 9920   2.046   1.878   6.127  0.3495 -0.4285 -0.5947
   76MOL0     C 9921   1.891   1.885   6.122 -0.4656 -0.1208  0.0637
   76MOL0     C 9922   1.813   1.762   6.077  0.0257  0.2818 -0.5914
   76MOL0     C 9923   1.849   1.641   6.155  0.4697 -0.1103 -0.0591
   76MOL0     O 9924   1.801   1.516   6.099 -0.2685 -0.3567  0.3127
   76MOL0     C 9925   1.673   1.476   6.123 -0.1207  0.0300 -0.1947
   76MOL0     C 9926   1.579   1.551   6.196 -0.0259 -1.0463 -0.2987
   76MOL0     C 9927   1.455   1.493   6.228  0.7282 -0.0044 -0.0422
   76MOL0     C 9928   1.418   1.364   6.192  0.0197 -0.0201 -0.8502
   76MOL0     C 9929   1.292   1.302   6.242  0.1766  0.6240 -0.7668
   76MOL0     O 9930   1.196   1.385   6.281 -0.0688  0.4808 -0.4686
   76MOL0     C 9931   1.077   1.351   6.351  0.3717 -0.0384 -0.8126
   76MOL0     C 9932   1.062   1.238   6.439 -0.3004 -0.0493 -0.2366
   76MOL0     C 9933   0.944   1.203   6.493  0.4027  1.0753  0.2508
   76MOL0     C 9934   0.824   1.273   6.471  0.7419  0.5813  0.0114
   76MOL0     O 9935   0.710   1.247   6.531  0.1582 -0.6172 -0.2374
   76MOL0     C 9936   0.702   1.192   6.663  0.2320  0.0645 -0.2571
   76MOL0     C 9937   0.561   1.247   6.706 -1.4892 -0.8380 -0.6738
   76MOL0     C 9938   0.444   1.211   6.606 -0.8278  0.0722 -0.5072
   76MOL0     C 9939   0.317   1.298   6.606 -0.7209 -0.0350 -0.1143
   76MOL0     C 9940   0.313   1.443   6.559 -0.4070  0.0448 -0.5847
   76MOL0     C 9941   0.397   1.486   6.441  0.1228  0.2676 -0.5201
   76MOL0     C 9942   0.380   1.634   6.398  0.4037  0.7432  0.1395
   76MOL0     C 9943   0.438   1.662   6.257 -0.1522  0.0290 -0.1361
   76MOL0    Cl 9944   0.622   1.620   6.244  0.1298  0.0893  0.2432
   76MOL0     C 9945   0.837   1.387   6.392  0.3421 -0.2570 -0.1775
   76MOL0     C 9946   0.961   1.429   6.333  0.3406 -0.2424  0.4651
   76MOL0     O 9947   1.287   1.174   6.248 -0.2874 -0.1480  0.2019
   76MOL0     C 9948   1.517   1.288   6.122  0.5219  0.5955 -0.6627
   76MOL0     C 9949   1.639   1.347   6.082 -0.3496 -0.9033 -0.2772
   76MOL0     N 9950   2.132   1.940   5.900 -0.3228  1.2103  0.0418
   76MOL0     N 9951   2.150   1.880   5.787 -0.4880 -0.3262 -0.5157
   76MOL0     C 9952   3.324   1.974   5.483 -0.9836  0.5133  0.6532
   76MOL0     C 9953   3.459   1.971   5.467  0.5043 -0.2754  0.2503
   76MOL0     C 9954   3.865   1.894   5.647  0.1992  0.8405 -0.4933
   76MOL0     C 9955   3.925   1.970   5.552  0.0490 -0.4685 -1.4522
   76MOL0     C 9956   4.061   2.006   5.566  0.3399  0.5607 -0.1236
   76MOL0     C 9957   4.134   1.972   5.689 -0.1327  0.3066  0.7207
   76MOL0     O 9958   4.268   2.000   5.697  0.0823 -0.1200  0.0439
   76MOL0     C 9959   4.355   1.900   5.737 -0.0790  0.6987 -0.1622
   76MOL0     C 9960   4.489   1.950   5.682  0.2181  0.7069 -0.5415
   76MOL0     C 9961   4.494   1.945   5.532  0.2758 -0.0592 -0.1215
   76MOL0     C 9962   4.484   1.808   5.475 -0.7489 -0.3680  0.1091
   76MOL0     C 9963   4.522   1.821   5.337  0.6325  0.3992  0.7396
   76MOL0     C 9964   4.567   1.826   5.226 -0.7370 -0.9385  0.0671
   76MOL0     C 9965   4.056   1.907   5.788 -0.2687 -1.0650 -0.4087
   76MOL0     C 9966   3.930   1.863   5.763  0.4898  0.5412 -0.3754
   76MOL0     H 9967   3.483   1.647   5.543 -1.6940 -1.4353 -1.6083
   76MOL0     H 9968   3.251   1.651   5.542  0.9159  0.0643  0.6258
   76MOL0     H 9969   3.044   1.873   5.675 -0.8281  0.3390  0.7109
   76MOL0     H 9970   3.047   1.722   5.574  0.0029  0.4229 -2.1675
   76MOL0     H 9971   2.858   1.789   5.435 -1.9425  0.3622 -0.5672
   76MOL0     H 9972   2.865   1.945   5.501  3.0911 -0.0976 -2.7940
   76MOL0     H 9973   2.820   1.820   5.733 -2.3493 -1.6391  2.7551
   76MOL0     H 9974   2.818   1.674   5.647  0.5895  0.3554 -2.0856
   76MOL0     H 9975   2.624   1.906   5.603 -1.6489 -0.5530  2.7372
   76MOL0     H 9976   2.637   1.760   5.498 -1.5152  0.2508 -0.6949
   76MOL0     H 9977   2.580   1.746   5.810 -0.6966 -1.3480  0.6023
   76MOL0     H 9978   2.591   1.609   5.707 -1.2642 -0.6867  0.8310
   76MOL0     H 9979   2.401   1.736   5.561 -0.9145  0.8028 -0.2891
   76MOL0     H 9980   2.381   1.828   5.709 -1.3994 -0.2284 -1.0436
   76MOL0     H 9981   2.361   1.525   5.642 -0.5495  0.8676 -1.0080
   76MOL0     H 9982   2.365   1.588   5.805 -1.9670  0.2678  1.2228
   76MOL0     H 9983   2.126   1.565   5.727  0.8133 -0.9602  1.4035
   76MOL0     H 9984   2.164   1.708   5.616 -0.2694 -0.6833 -0.5631
   76MOL0     H 9985   2.121   1.619   5.980 -2.8983 -0.8076 -1.0907
   76MOL0     H 9986   2.095   1.967   6.168  0.8615 -1.0082  0.0756
   76MOL0     H 9987   2.069   1.802   6.202 -2.1292  1.9356  2.8166
   76MOL0     H 9988   1.862   1.964   6.052  0.4528  0.9851  0.8958
   76MOL0     H 9989   1.851   1.915   6.219  0.0158  2.2530 -0.4040
   76MOL0     H 9990   1.708   1.786   6.095 -0.0144  0.5680 -1.2063
   76MOL0     H 9991   1.833   1.746   5.971  0.5548  1.9033 -0.7636
   76MOL0     H 9992   1.811   1.660   6.256  0.2944  2.3845 -0.5256
   76MOL0     H 9993   1.957   1.638   6.170  0.8224  3.0256 -1.2500
   76MOL0     H 9994   1.603   1.655   6.216  2.9310 -1.7913  0.5274
   76MOL0     H 9995   1.384   1.548   6.289  2.8399  0.6608  1.9766
   76MOL0     H 9996   1.153   1.181   6.456  1.6097  3.2288  1.6585
   76MOL0     H 9997   0.937   1.112   6.551  0.8842 -0.6468 -2.2599
   76MOL0     H 9998   0.773   1.223   6.740 -1.5404  3.7819  0.1161
   76MOL0     H 9999   0.707   1.083   6.663 -0.2483 -0.0498  2.7681
   76MOL0     H10000   0.569   1.354   6.727  3.4215 -1.1737  0.1461
   76MOL0     H10001   0.544   1.203   6.805  2.1818  0.9835  0.9271
   76MOL0     H10002   0.404   1.115   6.637 -0.5177 -0.1452 -0.7772
   76MOL0     H10003   0.491   1.221   6.508  3.2297 -0.0635  1.2250
   76MOL0     H10004   0.249   1.243   6.541 -0.3830  1.9788 -2.2939
   76MOL0     H10005   0.285   1.305   6.710 -1.3581 -2.1486 -0.1115
   76MOL0     H10006   0.351   1.509   6.637  1.0951 -0.8144 -0.5512
   76MOL0     H10007   0.207   1.469   6.560 -0.4689 -0.0430  2.1626
   76MOL0     H10008   0.377   1.421   6.355  0.2934  0.7795 -0.9532
   76MOL0     H10009   0.501   1.475   6.474  0.2072  1.1279 -0.4772
   76MOL0     H10010   0.273   1.655   6.400  0.4809  1.5866 -1.7347
   76MOL0     H10011   0.421   1.704   6.471  0.3871  1.7821 -0.8164
   76MOL0     H10012   0.416   1.764   6.227  2.5307  0.2157 -1.7501
   76MOL0     H10013   0.390   1.599   6.182  0.8403  1.3720 -1.9621
   76MOL0     H10014   0.747   1.446   6.380  1.9485  2.2178 -0.7775
   76MOL0     H10015   0.978   1.511   6.264  5.1874 -1.6678 -0.4523
   76MOL0     H10016   1.477   1.190   6.099  0.7348  0.5968 -1.0508
   76MOL0     H10017   1.708   1.292   6.019 -0.1624  1.1306 -1.9566
   76MOL0     H10018   3.279   2.071   5.466 -1.6175  0.0524 -0.3892
   76MOL0     H10019   3.513   2.060   5.438 -0.5081  1.0117  2.1285
   76MOL0     H10020   3.862   1.990   5.467 -0.9424 -0.3077 -0.7005
   76MOL0     H10021   4.121   2.054   5.490  0.2932  2.5206  1.0266
   76MOL0     H10022   4.318   1.808   5.691 -4.4496  1.0526  2.0339
   76MOL0     H10023   4.347   1.879   5.844 -1.5017 -4.1949 -0.9969
   76MOL0     H10024   4.509   2.056   5.703  0.7242  0.6040 -0.4873
   76MOL0     H10025   4.573   1.889   5.716  0.4863  1.1250 -0.4353
   76MOL0     H10026   4.589   1.996   5.512  1.2487 -1.2994  1.1878
   76MOL0     H10027   4.415   2.011   5.492  2.3621  1.8431 -1.3766
   76MOL0     H10028   4.566   1.744   5.510 -1.3951 -1.7154 -0.7293
   76MOL0     H10029   4.392   1.753   5.495 -0.0279 -1.7877 -0.2707
   76MOL0     H10030   4.603   1.822   5.125 -1.7517  1.9848 -0.5151
   76MOL0     H10031   4.096   1.902   5.889 -1.8935  1.1296  0.4339
   76MOL0     H10032   3.874   1.803   5.835 -0.6082  1.7506 -0.1841
   77MOL0     O10033   3.552   7.283   8.575  0.3310  0.1083 -0.3560
   77MOL0     C10034   3.640   7.260   8.489 -0.6184 -0.1906  0.4064
   77MOL0     O10035   3.695   7.141   8.463  0.3584 -0.1544  0.0700
   77MOL0     C10036   3.634   7.013   8.502 -0.4574  0.6840 -1.2879
   77MOL0     C10037   3.500   6.981   8.495  1.5785  1.0912  0.7230
   77MOL0     C10038   3.459   6.857   8.548  0.2641  0.1359 -0.1978
   77MOL0     C10039   3.557   6.773   8.617 -0.8697  0.1234  0.8221
   77MOL0     O10040   3.490   6.683   8.695  0.3736 -0.2326  0.2812
   77MOL0     C10041   3.570   6.575   8.743 -0.1044 -0.0657 -0.1199
   77MOL0     C10042   3.485   6.446   8.755  0.6268 -0.3599  0.0795
   77MOL0     C10043   3.385   6.455   8.866 -1.4013  1.1110  0.5862
   77MOL0     C10044   3.299   6.338   8.846 -0.5780 -0.5126 -0.3908
   77MOL0     C10045   3.192   6.334   8.952 -0.1011  0.3856  0.2637
   77MOL0     C10046   3.129   6.187   8.963 -0.7792 -0.3120 -0.7712
   77MOL0     C10047   3.229   6.081   9.019 -1.0117  0.0081 -0.3883
   77MOL0     C10048   3.154   5.969   9.100  0.0250  0.4183  0.5207
   77MOL0     N10049   3.256   5.880   9.152 -0.0831  0.0767  0.3292
   77MOL0     C10050   3.266   5.843   9.281 -0.1889 -0.0124 -0.3385
   77MOL0     C10051   3.384   5.778   9.291 -0.3263  0.0922  0.4235
   77MOL0     C10052   3.440   5.721   9.413 -0.4992  0.3105 -0.7331
   77MOL0     C10053   3.593   5.689   9.402  0.4006  0.1055 -0.1671
   77MOL0     C10054   3.684   5.812   9.408  0.5428 -0.0162  0.8396
   77MOL0     C10055   3.656   5.931   9.314  0.0510  0.6119 -0.5481
   77MOL0     O10056   3.771   6.019   9.328  0.2421 -0.3987 -0.2433
   77MOL0     C10057   3.766   6.137   9.261 -0.0583  0.5971 -0.5678
   77MOL0     C10058   3.872   6.220   9.294  0.4527  0.6789 -0.4261
   77MOL0     C10059   3.885   6.342   9.234 -0.0522 -0.4969 -0.2540
   77MOL0     C10060   3.791   6.394   9.148  0.8822  1.1230 -0.3513
   77MOL0     C10061   3.812   6.530   9.085 -0.5845  0.2788  0.3112
   77MOL0     O10062   3.936   6.585   9.059  0.0701 -0.5572  0.5305
   77MOL0     C10063   3.945   6.691   8.971 -0.0709 -0.3423  1.0330
   77MOL0     C10064   4.064   6.710   8.888  0.6661  0.2536  0.6934
   77MOL0     C10065   4.084   6.816   8.800  0.7660 -0.6093 -0.2693
   77MOL0     C10066   3.990   6.916   8.787 -0.3413  0.2773 -0.4342
   77MOL0     O10067   4.034   7.031   8.719 -0.2190 -0.5916  0.3062
   77MOL0     C10068   3.966   7.155   8.736  0.0321  0.1814 -0.9944
   77MOL0     C10069   4.038   7.273   8.664 -1.0366 -0.1993  0.1192
   77MOL0     C10070   4.154   7.335   8.753 -0.3622  0.3831 -0.1381
   77MOL0     C10071   4.113   7.449   8.848 -0.2450  0.2640  0.0739
   77MOL0     C10072   4.223   7.537   8.904  0.1061  0.2446  1.2828
   77MOL0     C10073   4.168   7.674   8.940  0.4099  0.0345  0.5018
   77MOL0     C10074   4.260   7.758   9.024  0.5203 -0.5245 -0.6016
   77MOL0     C10075   4.383   7.825   8.961 -0.1276  0.0319  0.5361
   77MOL0    Cl10076   4.497   7.711   8.869  0.2142 -0.3783 -0.1931
   77MOL0     C10077   3.877   6.910   8.875 -0.1678 -0.4628 -1.7839
   77MOL0     C10078   3.850   6.795   8.965  0.7809 -0.8904  0.4531
   77MOL0     O10079   3.706   6.580   9.058  0.0799  0.1475  0.0019
   77MOL0     C10080   3.681   6.307   9.113  1.0676 -0.3775 -0.3835
   77MOL0     C10081   3.674   6.176   9.170 -0.3567 -0.1814  0.3223
   77MOL0     N10082   3.434   5.771   9.157 -0.4977 -0.3034  0.2266
   77MOL0     N10083   3.345   5.811   9.074  0.1600 -0.3754  0.1459
   77MOL0     C10084   3.693   6.807   8.614  0.0170  0.4836  0.4428
   77MOL0     C10085   3.724   6.922   8.556 -0.4288 -0.0689  0.5145
   77MOL0     C10086   3.731   7.375   8.440  0.1986 -0.5828  0.6893
   77MOL0     C10087   3.851   7.342   8.385 -0.4183 -0.2223 -0.2033
   77MOL0     C10088   3.951   7.433   8.350 -0.4495 -0.5799 -0.2503
   77MOL0     C10089   3.930   7.568   8.369  0.1411 -0.1317 -0.1974
   77MOL0     O10090   4.034   7.653   8.345 -0.2776  0.2924  0.9239
   77MOL0     C10091   4.016   7.795   8.315  0.8848  0.5533 -0.5218
   77MOL0     C10092   3.945   7.804   8.180  0.0174  0.0777 -0.0863
   77MOL0     C10093   3.983   7.938   8.101 -0.1028  0.7031 -0.6338
   77MOL0     C10094   3.960   7.920   7.950  1.1036 -0.3892  0.2869
   77MOL0     C10095   3.812   7.906   7.913 -0.2189 -0.2470  0.6031
   77MOL0     C10096   3.705   7.893   7.863  0.3437 -0.3920 -0.7236
   77MOL0     C10097   3.796   7.611   8.408 -0.0660 -0.7585 -1.2842
   77MOL0     C10098   3.704   7.507   8.453 -0.1371 -0.5598 -0.6274
   77MOL0     H10099   3.427   7.039   8.438 -2.4844 -2.9189  1.2245
   77MOL0     H10100   3.353   6.837   8.537  0.2758 -0.2913  0.4242
   77MOL0     H10101   3.608   6.593   8.844  1.2369 -1.2938 -0.3684
   77MOL0     H10102   3.663   6.568   8.686  0.2867 -0.1911  0.5278
   77MOL0     H10103   3.557   6.369   8.784 -0.3676 -1.4709 -0.3339
   77MOL0     H10104   3.443   6.412   8.660 -0.4235 -0.6185  0.6252
   77MOL0     H10105   3.331   6.549   8.877  0.1281  2.0833  0.2089
   77MOL0     H10106   3.440   6.437   8.959  0.8656  2.3157 -0.4481
   77MOL0     H10107   3.253   6.351   8.748 -0.8103  1.9969 -0.0027
   77MOL0     H10108   3.356   6.244   8.844  3.5049  1.7462 -0.8986
   77MOL0     H10109   3.113   6.405   8.927  0.1460  0.4966 -0.2157
   77MOL0     H10110   3.241   6.357   9.047  0.3407 -0.4997  0.2680
   77MOL0     H10111   3.088   6.159   8.865  2.4621  0.7134 -2.5531
   77MOL0     H10112   3.054   6.188   9.042 -0.3819 -1.7712 -0.3451
   77MOL0     H10113   3.272   6.041   8.926 -0.6703  0.5211 -0.4553
   77MOL0     H10114   3.312   6.121   9.078 -1.2583  0.6558 -0.4750
   77MOL0     H10115   3.084   5.908   9.042 -0.2634 -0.3539  1.6478
   77MOL0     H10116   3.097   6.018   9.180 -0.0318  2.2351 -0.5767
   77MOL0     H10117   3.201   5.883   9.358  2.7592 -0.3068  2.5638
   77MOL0     H10118   3.386   5.626   9.421  1.6264 -1.1491 -2.5778
   77MOL0     H10119   3.427   5.785   9.500  1.3522  1.2280 -1.0836
   77MOL0     H10120   3.624   5.631   9.315  2.3850 -0.2590  0.7320
   77MOL0     H10121   3.623   5.637   9.493  0.3705  0.5582  0.1039
   77MOL0     H10122   3.693   5.860   9.506 -1.4769  2.3321 -0.0231
   77MOL0     H10123   3.780   5.764   9.388 -1.2714 -3.1791 -1.1646
   77MOL0     H10124   3.566   5.983   9.347 -1.1374 -2.3117  1.2163
   77MOL0     H10125   3.655   5.898   9.209 -3.1567 -1.2336 -0.0541
   77MOL0     H10126   3.956   6.187   9.355  0.9299 -0.6275 -1.7385
   77MOL0     H10127   3.974   6.395   9.265 -1.2443  0.8912  0.9394
   77MOL0     H10128   4.138   6.631   8.895  0.1083 -0.4576 -0.9208
   77MOL0     H10129   4.173   6.808   8.738  0.4665 -0.3315 -0.7407
   77MOL0     H10130   3.983   7.179   8.842 -0.2076 -1.5821 -0.5081
   77MOL0     H10131   3.860   7.154   8.713 -0.7198 -0.7220  1.9742
   77MOL0     H10132   3.957   7.343   8.641 -1.5329 -1.2521 -1.5065
   77MOL0     H10133   4.092   7.240   8.574  0.0326  1.2609  0.1843
   77MOL0     H10134   4.239   7.374   8.696  2.3614 -1.3323  2.4281
   77MOL0     H10135   4.199   7.261   8.820 -2.1375  1.6134  2.6307
   77MOL0     H10136   4.028   7.504   8.808 -0.9374 -2.7311 -3.0183
   77MOL0     H10137   4.073   7.400   8.937  1.5451 -0.7335  0.3759
   77MOL0     H10138   4.290   7.550   8.819  0.9561 -2.0541  1.5361
   77MOL0     H10139   4.275   7.485   8.985 -2.1260 -2.3543  1.1834
   77MOL0     H10140   4.074   7.656   8.993  0.7631 -2.4195  0.3974
   77MOL0     H10141   4.141   7.726   8.848  0.3656 -0.0643  0.4588
   77MOL0     H10142   4.201   7.845   9.054 -0.0128 -0.8828 -0.5949
   77MOL0     H10143   4.283   7.703   9.115  4.0719  1.3748 -0.1768
   77MOL0     H10144   4.443   7.872   9.041 -1.3067  1.4613  0.6098
   77MOL0     H10145   4.374   7.907   8.889  1.6072  0.0922  0.3324
   77MOL0     H10146   3.811   6.992   8.901  0.2483 -1.5261  4.3330
   77MOL0     H10147   3.761   6.802   9.028  1.2354 -1.5873  1.1907
   77MOL0     H10148   3.602   6.348   9.050 -1.1228  1.4236  3.1864
   77MOL0     H10149   3.597   6.105   9.139  0.2191 -0.7210  0.1212
   77MOL0     H10150   3.756   6.745   8.677  2.7041  3.2690  0.7359
   77MOL0     H10151   3.830   6.943   8.556  0.0536 -2.0201  2.7230
   77MOL0     H10152   3.874   7.238   8.365 -0.7343 -0.0174 -1.7403
   77MOL0     H10153   4.035   7.399   8.290 -1.4471  1.3243 -2.9239
   77MOL0     H10154   4.118   7.831   8.302  0.3880  1.7544 -1.3508
   77MOL0     H10155   3.966   7.856   8.392  1.2903 -0.0383  0.2248
   77MOL0     H10156   3.969   7.717   8.118  0.4608  1.0700 -1.3679
   77MOL0     H10157   3.837   7.804   8.197 -0.1828 -1.0668 -1.2195
   77MOL0     H10158   4.091   7.948   8.117  0.4355  0.6324 -3.5103
   77MOL0     H10159   3.941   8.031   8.141  0.2850  0.2443  0.8627
   77MOL0     H10160   3.997   8.008   7.896 -3.1036 -0.1598 -2.7207
   77MOL0     H10161   4.020   7.838   7.911  0.9196  0.3330 -1.6178
   77MOL0     H10162   3.629   7.883   7.789  1.6828 -1.7659 -1.9622
   77MOL0     H10163   3.778   7.715   8.435  4.0377 -0.0107 -0.7108
   77MOL0     H10164   3.617   7.538   8.509  0.5546  2.6592 -1.1194
   78MOL0     O10165   3.133   8.907   3.931 -0.1912 -0.1834 -0.1343
   78MOL0     C10166   3.074   8.856   4.028 -0.5361  0.1678 -0.1325
   78MOL0     O10167   2.938   8.858   4.045  0.8018  0.1099 -0.2567
   78MOL0     C10168   2.863   8.946   3.980  0.2583 -1.0422  0.4842
   78MOL0     C10169   2.723   8.915   3.975  0.7658  0.4357  0.5298
   78MOL0     C10170   2.633   8.998   3.918  0.0834 -0.1002  0.7913
   78MOL0     C10171   2.678   9.114   3.843  0.0524  0.8673  0.3003
   78MOL0     O10172   2.583   9.176   3.769  0.1448 -0.3206  0.4424
   78MOL0     C10173   2.610   9.319   3.732  0.1511  0.9592  0.0344
   78MOL0     C10174   2.481   9.386   3.708  0.0826 -1.0754  0.4296
   78MOL0     C10175   2.478   9.539   3.664  0.1513  0.2148 -0.1670
   78MOL0     C10176   2.563   9.553   3.546 -0.3124 -0.3719 -0.6102
   78MOL0     C10177   2.571   9.699   3.495 -0.0050 -0.8851 -0.2732
   78MOL0     C10178   2.665   9.710   3.376  0.2441 -0.4879  0.2915
   78MOL0     C10179   2.686   9.855   3.344  0.0672  0.0003 -0.7680
   78MOL0     C10180   2.822   9.880   3.266  0.4741 -0.0850 -0.2481
   78MOL0     N10181   2.862  10.018   3.280 -0.0943  0.8265  0.1012
   78MOL0     C10182   2.812  10.125   3.209 -0.4303 -0.1508  0.3928
   78MOL0     C10183   2.882  10.233   3.251  0.7948  0.2327 -0.0300
   78MOL0     C10184   2.863  10.381   3.206 -0.6493  0.0967 -0.7034
   78MOL0     C10185   2.785  10.452   3.315  0.5646  0.4412  0.5082
   78MOL0     C10186   2.829  10.593   3.342 -0.4274  0.6337  0.3758
   78MOL0     C10187   2.740  10.673   3.443  0.6573 -0.3270 -0.1449
   78MOL0     O10188   2.785  10.809   3.463 -1.1447  0.4450 -0.0250
   78MOL0     C10189   2.908  10.817   3.513  0.2868 -0.0611  0.3839
   78MOL0     C10190   3.002  10.896   3.449  0.1169  0.1051 -0.3503
   78MOL0     C10191   3.125  10.917   3.504  0.1628  0.8871 -0.2622
   78MOL0     C10192   3.160  10.861   3.631 -0.9186 -0.6007 -0.0602
   78MOL0     C10193   3.291  10.899   3.691 -0.0918 -0.6206  0.4726
   78MOL0     O10194   3.391  10.947   3.610 -0.1239  0.1849 -0.8506
   78MOL0     C10195   3.522  10.975   3.652  0.0056  0.6034 -1.0838
   78MOL0     C10196   3.622  11.025   3.569  0.5975  0.9726  0.6137
   78MOL0     C10197   3.748  11.066   3.607  0.0411 -0.4599  0.8605
   78MOL0     C10198   3.788  11.058   3.741  0.5473  0.1259 -0.4190
   78MOL0     O10199   3.916  11.080   3.784  0.3457  0.1073 -0.5425
   78MOL0     C10200   4.019  11.005   3.714 -0.4367 -0.2446 -0.8541
   78MOL0     C10201   4.094  11.112   3.633 -0.5059 -0.0713  0.4800
   78MOL0     C10202   4.194  11.184   3.730 -0.0468 -0.7258  0.5618
   78MOL0     C10203   4.258  11.296   3.654  0.0225 -0.2609  0.8019
   78MOL0     C10204   4.381  11.357   3.718  0.2466  0.0253  0.3423
   78MOL0     C10205   4.473  11.434   3.615  0.5994 -0.2369 -0.0024
   78MOL0     C10206   4.521  11.561   3.674  0.0896 -0.9996  0.5763
   78MOL0     C10207   4.578  11.655   3.568 -0.9403 -0.2867 -0.3746
   78MOL0    Cl10208   4.447  11.714   3.462  0.0045 -0.0493 -0.1085
   78MOL0     C10209   3.692  11.017   3.832  0.2058 -0.6748  0.0125
   78MOL0     C10210   3.560  10.970   3.790 -0.0083  0.3615  1.1170
   78MOL0     O10211   3.295  10.871   3.808 -0.0884 -0.2386 -1.1562
   78MOL0     C10212   3.065  10.781   3.694  0.0311 -0.9205 -1.2421
   78MOL0     C10213   2.936  10.763   3.634 -0.2409  0.0667  0.4455
   78MOL0     N10214   2.970  10.187   3.350  0.0985  0.3852 -0.0922
   78MOL0     N10215   2.955  10.059   3.366 -0.4110  0.4540  0.8599
   78MOL0     C10216   2.811   9.152   3.855  0.4963  0.6659  0.1359
   78MOL0     C10217   2.905   9.069   3.917  0.5858 -0.1637 -0.3156
   78MOL0     C10218   3.152   8.773   4.125 -0.3370  0.5944  1.0645
   78MOL0     C10219   3.102   8.752   4.247  0.4194 -0.3768 -0.4146
   78MOL0     C10220   3.153   8.655   4.332  0.2202 -0.9328 -0.0169
   78MOL0     C10221   3.272   8.585   4.295 -0.9430 -0.7564  0.3361
   78MOL0     O10222   3.332   8.492   4.378  0.6272 -0.5907  0.8392
   78MOL0     C10223   3.431   8.546   4.461 -0.4973 -0.5877  0.1580
   78MOL0     C10224   3.464   8.457   4.578  0.2828  0.1388 -1.1361
   78MOL0     C10225   3.593   8.382   4.579  0.2181 -0.1771 -0.0876
   78MOL0     C10226   3.620   8.319   4.718  0.3640  0.5104 -0.3515
   78MOL0     C10227   3.713   8.416   4.785  0.3388  0.0619 -0.3733
   78MOL0     C10228   3.781   8.496   4.843  1.0449 -0.9807 -0.1689
   78MOL0     C10229   3.328   8.613   4.178 -0.7338  0.5667 -0.1337
   78MOL0     C10230   3.270   8.706   4.088 -0.8381  0.5054 -0.1391
   78MOL0     H10231   2.688   8.825   4.025  2.0733  0.6823  1.9677
   78MOL0     H10232   2.527   8.984   3.936 -0.7108  4.4430  0.6722
   78MOL0     H10233   2.666   9.316   3.638  2.1492 -2.4744  1.1127
   78MOL0     H10234   2.658   9.379   3.811 -0.5293  0.7514  0.6174
   78MOL0     H10235   2.427   9.360   3.799  0.3596 -1.5028  0.4764
   78MOL0     H10236   2.436   9.326   3.628 -0.3267 -0.7605  0.4220
   78MOL0     H10237   2.514   9.609   3.741  0.6128 -2.0410  1.7860
   78MOL0     H10238   2.377   9.571   3.639  0.5909  2.3010  0.5219
   78MOL0     H10239   2.665   9.533   3.579 -0.9899 -0.7417  1.4099
   78MOL0     H10240   2.537   9.482   3.467  1.0008 -1.6202  0.0396
   78MOL0     H10241   2.603   9.771   3.570 -2.6451  1.3962 -1.1831
   78MOL0     H10242   2.471   9.735   3.469  0.2792  1.7190  1.7850
   78MOL0     H10243   2.616   9.653   3.296 -1.4806  1.5932 -0.2103
   78MOL0     H10244   2.767   9.672   3.394  1.2463  1.3238 -1.2084
   78MOL0     H10245   2.593   9.887   3.296 -1.6682 -1.6939  1.2841
   78MOL0     H10246   2.692   9.904   3.442 -0.2387  1.1249 -1.2974
   78MOL0     H10247   2.811   9.852   3.160  1.7086 -1.2272 -0.1164
   78MOL0     H10248   2.905   9.819   3.303  0.7948 -1.2441 -2.6692
   78MOL0     H10249   2.725  10.132   3.143 -0.4947 -0.0322  0.4904
   78MOL0     H10250   2.812  10.382   3.110  0.7706 -1.2276 -1.5029
   78MOL0     H10251   2.958  10.434   3.190 -1.5448  1.2247 -2.5942
   78MOL0     H10252   2.791  10.391   3.406  0.7290 -1.6187 -0.8226
   78MOL0     H10253   2.685  10.447   3.271  1.3043 -1.0464 -1.1056
   78MOL0     H10254   2.930  10.563   3.371  0.7162  1.3548 -2.5842
   78MOL0     H10255   2.850  10.652   3.253 -0.7593 -0.9443 -0.7875
   78MOL0     H10256   2.736  10.617   3.537 -0.6365 -0.5094 -0.2987
   78MOL0     H10257   2.642  10.679   3.395  0.0234  0.2418  1.1813
   78MOL0     H10258   2.964  10.953   3.365 -1.6847 -2.1671 -1.1801
   78MOL0     H10259   3.193  10.987   3.457  2.2729 -1.1763 -0.4952
   78MOL0     H10260   3.599  11.053   3.466 -0.9877 -1.0964  0.3513
   78MOL0     H10261   3.817  11.105   3.534 -1.0000 -1.6888 -0.8677
   78MOL0     H10262   3.989  10.921   3.651 -0.6498  1.3779 -3.0412
   78MOL0     H10263   4.083  10.957   3.788 -0.5418  0.0424 -0.5704
   78MOL0     H10264   4.029  11.190   3.594  2.1969  0.9012 -2.4941
   78MOL0     H10265   4.135  11.056   3.549 -1.8672 -0.4811  0.0580
   78MOL0     H10266   4.273  11.112   3.754  3.6390  2.7541 -0.0508
   78MOL0     H10267   4.140  11.219   3.819 -1.4683 -0.6769 -0.2933
   78MOL0     H10268   4.289  11.262   3.555  1.5271  2.5166  0.2054
   78MOL0     H10269   4.188  11.378   3.635  0.3006 -0.5986 -2.1628
   78MOL0     H10270   4.442  11.277   3.763  3.0485  1.0772 -1.3508
   78MOL0     H10271   4.348  11.433   3.789 -3.5472 -0.7830 -0.3499
   78MOL0     H10272   4.408  11.455   3.530 -1.5402 -3.7717  0.5284
   78MOL0     H10273   4.553  11.365   3.588  0.3289  0.0316 -1.6298
   78MOL0     H10274   4.435  11.610   3.719  2.0902  2.9382  0.5170
   78MOL0     H10275   4.601  11.527   3.740  0.4507 -0.1586  0.5809
   78MOL0     H10276   4.648  11.599   3.505 -0.4460  0.8284 -0.8305
   78MOL0     H10277   4.632  11.733   3.621  0.9184 -2.4392  1.0959
   78MOL0     H10278   3.708  11.009   3.939 -2.1059  1.1203  0.5769
   78MOL0     H10279   3.483  10.946   3.864 -3.4721  2.3274 -1.5600
   78MOL0     H10280   3.077  10.736   3.792 -1.2097  2.9371  0.9068
   78MOL0     H10281   2.865  10.699   3.687 -1.9941 -1.2879 -3.1943
   78MOL0     H10282   2.842   9.241   3.800 -1.0362  1.3740  0.3763
   78MOL0     H10283   3.009   9.101   3.910  0.1870  1.0949 -0.8387
   78MOL0     H10284   3.011   8.799   4.285  0.9439 -0.7003  1.2914
   78MOL0     H10285   3.106   8.644   4.429 -1.1894  2.0736 -0.2353
   78MOL0     H10286   3.396   8.640   4.505 -1.0948 -0.9666  0.5038
   78MOL0     H10287   3.517   8.573   4.398  0.2216  0.7057  1.6071
   78MOL0     H10288   3.458   8.528   4.661 -1.5163 -2.1500  0.8456
   78MOL0     H10289   3.382   8.385   4.584 -0.8712  1.3636 -1.6003
   78MOL0     H10290   3.678   8.439   4.539  0.1897  0.3130  0.5379
   78MOL0     H10291   3.576   8.297   4.512  0.0460  2.1223 -3.1731
   78MOL0     H10292   3.539   8.312   4.792 -1.0788  0.5584 -1.8553
   78MOL0     H10293   3.669   8.223   4.698 -1.5399 -0.7827  0.8551
   78MOL0     H10294   3.839   8.572   4.890 -0.2575 -1.6958  2.8379
   78MOL0     H10295   3.416   8.559   4.146 -1.8050 -1.5958  0.4274
   78MOL0     H10296   3.324   8.711   3.993 -3.0971  0.2129 -1.5220
   79MOL0     O10297   0.807   9.486  10.488 -1.0556 -1.4323  0.6106
   79MOL0     C10298   0.868   9.540  10.587  0.0190  0.0118  1.1815
   79MOL0     O10299   0.822   9.573  10.703 -0.9885  0.1974 -0.5772
   79MOL0     C10300   0.691   9.571  10.736  0.0301 -0.8121  1.0451
   79MOL0     C10301   0.633   9.678  10.807 -0.0143 -0.7540 -0.6735
   79MOL0     C10302   0.503   9.685  10.869 -0.3677  0.4210 -0.3609
   79MOL0     C10303   0.421   9.572  10.854  0.6720 -0.1241  0.7248
   79MOL0     O10304   0.294   9.563  10.911  0.0483  0.1728 -0.3032
   79MOL0     C10305   0.278   9.589  11.048 -0.1172 -0.3470  0.1464
   79MOL0     C10306   0.141   9.551  11.096 -0.6666 -0.5906 -0.6713
   79MOL0     C10307   0.044   9.668  11.047  1.0061 -0.2787  0.2581
   79MOL0     C10308  -0.095   9.644  11.112  1.0034 -0.2126  0.5208
   79MOL0     C10309  -0.218   9.728  11.062  0.2663  0.0149  0.2530
   79MOL0     C10310  -0.207   9.873  11.091  0.8463 -0.0838 -0.1172
   79MOL0     C10311  -0.330   9.941  11.034 -0.2389  0.0129  1.9250
   79MOL0     C10312  -0.349  10.075  11.104  1.1342 -0.6709 -0.3700
   79MOL0     N10313  -0.416  10.063  11.237 -1.0237 -0.5683 -0.2856
   79MOL0     C10314  -0.541  10.018  11.261  0.6253 -0.7600  1.1596
   79MOL0     C10315  -0.582  10.062  11.385 -0.3802 -0.5913  1.2785
   79MOL0     C10316  -0.718  10.036  11.449  0.5508  1.0757  0.2282
   79MOL0     C10317  -0.778  10.151  11.538  0.3401 -0.2071  0.5364
   79MOL0     C10318  -0.719  10.183  11.674 -0.6701 -0.3699 -0.4387
   79MOL0     C10319  -0.683  10.059  11.757  1.3198  0.7320 -0.8839
   79MOL0     O10320  -0.611  10.102  11.867  0.4936 -0.0856  0.6368
   79MOL0     C10321  -0.603  10.023  11.988  1.0884  0.1677 -0.5618
   79MOL0     C10322  -0.527  10.060  12.102  0.0122  0.0572 -0.1141
   79MOL0     C10323  -0.514   9.980  12.208  1.0639  0.0411  0.0166
   79MOL0     C10324  -0.583   9.857  12.219 -0.2090  0.7329 -0.2887
   79MOL0     C10325  -0.548   9.776  12.338  0.4966  0.0519  0.3089
   79MOL0     O10326  -0.439   9.813  12.414 -0.1649  0.2597  0.6861
   79MOL0     C10327  -0.397   9.737  12.517  0.1668 -0.3826  0.3465
   79MOL0     C10328  -0.451   9.738  12.643  0.6835 -1.0123 -0.2237
   79MOL0     C10329  -0.407   9.663  12.745 -0.5001 -0.5637  0.7219
   79MOL0     C10330  -0.274   9.610  12.735  0.8499 -0.5456  1.1239
   79MOL0     O10331  -0.215   9.553  12.839  0.1977 -0.3815  0.0853
   79MOL0     C10332  -0.089   9.501  12.835 -0.5529  1.1618  0.7308
   79MOL0     C10333  -0.052   9.474  12.979 -0.3715 -1.0587 -0.1294
   79MOL0     C10334  -0.153   9.377  13.064 -0.3452 -0.9860  0.9404
   79MOL0     C10335  -0.088   9.312  13.187  0.2930  0.8432  0.4969
   79MOL0     C10336  -0.177   9.245  13.292 -0.2202 -0.3413 -0.2978
   79MOL0     C10337  -0.282   9.332  13.348  0.0957 -0.2213  0.1107
   79MOL0     C10338  -0.243   9.474  13.388 -1.1528 -0.5421 -0.5983
   79MOL0     C10339  -0.134   9.476  13.499 -0.3783 -0.4939 -0.0801
   79MOL0    Cl10340  -0.206   9.442  13.659  0.2570 -0.3481  0.4751
   79MOL0     C10341  -0.208   9.620  12.609  0.5428  0.4342  0.4091
   79MOL0     C10342  -0.268   9.686  12.500  0.6299 -0.3941  0.0907
   79MOL0     O10343  -0.617   9.680  12.356 -0.1676  0.5163  0.2865
   79MOL0     C10344  -0.668   9.821  12.117 -0.3592  0.2023  0.1547
   79MOL0     C10345  -0.678   9.899  11.998 -0.9507  0.1470 -0.3487
   79MOL0     N10346  -0.469  10.122  11.439 -0.0672 -0.4549 -0.6373
   79MOL0     N10347  -0.375  10.126  11.350 -0.6231  0.2498 -0.3866
   79MOL0     C10348   0.476   9.462  10.777 -0.8227 -0.0916 -0.3579
   79MOL0     C10349   0.608   9.462  10.720 -0.2423  0.2391 -0.0141
   79MOL0     C10350   1.017   9.532  10.594  1.1433 -0.6549  0.0405
   79MOL0     C10351   1.091   9.606  10.684 -0.7445 -0.2343 -0.1821
   79MOL0     C10352   1.232   9.587  10.696  0.8982 -0.8546  1.0909
   79MOL0     C10353   1.300   9.501  10.614  0.5208  0.5193  0.5218
   79MOL0     O10354   1.423   9.470  10.640  0.2715 -0.0443 -1.0259
   79MOL0     C10355   1.457   9.436  10.775  0.1732 -0.0347 -0.3003
   79MOL0     C10356   1.592   9.374  10.761  0.1360 -0.3867  0.6824
   79MOL0     C10357   1.594   9.260  10.657  0.0389  0.1425  0.3695
   79MOL0     C10358   1.716   9.167  10.676 -0.2225  0.1565 -0.3926
   79MOL0     C10359   1.727   9.061  10.574 -0.4248 -0.1095 -1.1585
   79MOL0     C10360   1.749   8.975  10.502 -0.4412  0.4229  0.0388
   79MOL0     C10361   1.227   9.419  10.527 -0.3180 -0.0260 -0.0119
   79MOL0     C10362   1.089   9.432  10.520  0.3802  1.2885  0.0940
   79MOL0     H10363   0.698   9.764  10.826 -0.0804 -0.8315 -0.0679
   79MOL0     H10364   0.482   9.779  10.919  1.4056  0.7740 -0.1924
   79MOL0     H10365   0.304   9.693  11.069 -1.0913  0.5201 -2.6135
   79MOL0     H10366   0.336   9.527  11.118 -1.1238 -2.7342 -1.0097
   79MOL0     H10367   0.142   9.546  11.205  0.0949  1.1424 -0.5713
   79MOL0     H10368   0.092   9.457  11.068 -1.0637 -0.7103  0.4077
   79MOL0     H10369   0.025   9.663  10.939 -0.2509  1.0680  0.3897
   79MOL0     H10370   0.088   9.765  11.075  2.2780 -1.5039  2.8948
   79MOL0     H10371  -0.116   9.537  11.105  1.8810 -0.3755  0.2315
   79MOL0     H10372  -0.094   9.675  11.217 -2.1334  1.9692  0.0312
   79MOL0     H10373  -0.310   9.690  11.107  2.0643  0.5986  5.0154
   79MOL0     H10374  -0.222   9.709  10.954  1.0014 -0.1201  0.2482
   79MOL0     H10375  -0.110   9.919  11.072  1.7214 -0.5201  2.8068
   79MOL0     H10376  -0.206   9.884  11.199 -1.4680  0.1149 -0.0701
   79MOL0     H10377  -0.325   9.952  10.925  0.6599  0.2872  1.9799
   79MOL0     H10378  -0.419   9.880  11.046 -0.2990 -1.3758 -3.3932
   79MOL0     H10379  -0.408  10.137  11.036 -2.2880 -1.4259  1.6753
   79MOL0     H10380  -0.255  10.128  11.124 -0.8706  2.6720  1.0382
   79MOL0     H10381  -0.611   9.969  11.194  0.3352  1.2044 -0.0548
   79MOL0     H10382  -0.714   9.943  11.507 -2.0564  0.8314  0.1437
   79MOL0     H10383  -0.783  10.040  11.362 -1.1041  4.7942  1.4502
   79MOL0     H10384  -0.882  10.127  11.561  0.2905 -0.4839  0.0334
   79MOL0     H10385  -0.784  10.240  11.475  2.9705 -1.8579 -2.3749
   79MOL0     H10386  -0.630  10.244  11.664 -1.3600  0.5615 -1.0779
   79MOL0     H10387  -0.790  10.245  11.729  3.0882  1.7842  2.4277
   79MOL0     H10388  -0.622   9.983  11.707  2.4850  1.1714 -0.1831
   79MOL0     H10389  -0.780  10.017  11.787  0.6603  0.8866 -2.6730
   79MOL0     H10390  -0.471  10.153  12.106  0.2233 -0.0324 -0.7766
   79MOL0     H10391  -0.460  10.026  12.290  1.2350  2.7848 -1.5155
   79MOL0     H10392  -0.535   9.807  12.651  2.4455  1.5149 -2.0905
   79MOL0     H10393  -0.455   9.660  12.843  1.6267 -0.3664  1.8474
   79MOL0     H10394  -0.034   9.586  12.793 -2.2851  1.5235 -0.9554
   79MOL0     H10395  -0.074   9.408  12.781  0.1960  0.8309  1.4811
   79MOL0     H10396  -0.050   9.572  13.026  0.6993 -0.3072 -1.6573
   79MOL0     H10397   0.053   9.443  12.980  0.2050  0.7975 -0.1295
   79MOL0     H10398  -0.207   9.306  13.001 -0.7238  1.0954 -1.2119
   79MOL0     H10399  -0.222   9.457  13.091  2.0181  1.3101  0.5595
   79MOL0     H10400  -0.012   9.238  13.163 -0.4058  0.1974  0.2466
   79MOL0     H10401  -0.027   9.385  13.240  1.5948  0.6870 -0.7335
   79MOL0     H10402  -0.127   9.209  13.382 -0.7524 -3.4345 -1.1111
   79MOL0     H10403  -0.220   9.158  13.240  1.6689  0.3334 -3.2231
   79MOL0     H10404  -0.333   9.278  13.427 -0.6893  1.9981  1.1968
   79MOL0     H10405  -0.346   9.341  13.260  2.8931 -5.0869 -2.8768
   79MOL0     H10406  -0.210   9.533  13.302  0.5797 -1.5385 -0.6678
   79MOL0     H10407  -0.334   9.521  13.425 -0.8636 -0.3519 -0.1348
   79MOL0     H10408  -0.084   9.573  13.500 -0.4394 -0.4313 -1.6869
   79MOL0     H10409  -0.061   9.398  13.479  0.1111 -0.4449  1.3616
   79MOL0     H10410  -0.108   9.582  12.592  0.7119 -0.1966  2.5227
   79MOL0     H10411  -0.205   9.696  12.412  0.3920 -0.7155 -0.1176
   79MOL0     H10412  -0.724   9.728  12.115  0.2913 -0.3229  2.7852
   79MOL0     H10413  -0.737   9.859  11.915  1.8572 -1.3176 -1.7993
   79MOL0     H10414   0.430   9.365  10.761 -2.1328  0.5397 -0.5037
   79MOL0     H10415   0.651   9.373  10.675  1.3065  0.0896  1.6445
   79MOL0     H10416   1.044   9.690  10.733 -2.7839  1.8735 -5.1139
   79MOL0     H10417   1.283   9.653  10.765 -0.8832  2.7454 -0.6995
   79MOL0     H10418   1.393   9.358  10.818 -0.6713  1.3210  1.0047
   79MOL0     H10419   1.445   9.517  10.848  0.8439  1.1475 -1.4529
   79MOL0     H10420   1.669   9.449  10.741 -0.6844 -0.5206 -4.2293
   79MOL0     H10421   1.636   9.326  10.849  1.4201 -2.7561 -1.1552
   79MOL0     H10422   1.596   9.305  10.557 -0.3426 -0.7628 -0.0529
   79MOL0     H10423   1.509   9.192  10.662  1.3667 -1.8129 -1.5290
   79MOL0     H10424   1.801   9.235  10.685 -0.2795 -0.0340  2.7636
   79MOL0     H10425   1.702   9.111  10.769  1.5849 -0.0302 -0.1949
   79MOL0     H10426   1.778   8.901  10.429 -2.7090 -2.3784  1.7822
   79MOL0     H10427   1.270   9.333  10.477 -3.9487 -1.8890 -0.2478
   79MOL0     H10428   1.036   9.365  10.454  1.8519  1.1017 -0.9527
   80MOL0     O10429   0.559   1.549   8.140  0.0383 -0.0344  0.0015
   80MOL0     C10430   0.628   1.445   8.151  0.7608  0.9179 -0.5891
   80MOL0     O10431   0.685   1.374   8.052  0.1666 -0.3242 -0.4093
   80MOL0     C10432   0.712   1.448   7.935 -0.3726 -0.1420 -0.0868
   80MOL0     C10433   0.683   1.379   7.817  0.1909  0.0630 -0.2444
   80MOL0     C10434   0.718   1.440   7.695  0.2239  0.1418 -0.0856
   80MOL0     C10435   0.761   1.576   7.690  0.1756 -0.1478 -1.3516
   80MOL0     O10436   0.793   1.629   7.561  1.2187  0.2543 -0.5486
   80MOL0     C10437   0.798   1.769   7.543 -0.1298 -0.3234 -0.3655
   80MOL0     C10438   0.826   1.775   7.387 -0.0595 -0.0891  0.7156
   80MOL0     C10439   0.811   1.917   7.339 -0.3776 -1.0746 -0.1513
   80MOL0     C10440   0.934   1.968   7.265  0.5927 -0.0829 -0.7077
   80MOL0     C10441   0.921   2.115   7.238  0.2365  0.1207 -1.0460
   80MOL0     C10442   1.023   2.166   7.135 -0.0541  0.9149  0.7084
   80MOL0     C10443   1.006   2.313   7.127 -0.5801  0.6005  1.0986
   80MOL0     C10444   1.124   2.368   7.042  0.6137 -0.1430  0.9068
   80MOL0     N10445   1.114   2.513   7.025  0.1774 -0.5128  0.0000
   80MOL0     C10446   1.113   2.614   7.123 -0.3097  0.6495 -0.6166
   80MOL0     C10447   1.115   2.728   7.042  0.5856  0.2327 -0.1575
   80MOL0     C10448   1.083   2.866   7.091  1.1200  0.9035 -0.0689
   80MOL0     C10449   1.189   2.924   7.175 -0.4261 -0.6715  0.3065
   80MOL0     C10450   1.331   2.908   7.104  1.1010  0.2278 -0.4426
   80MOL0     C10451   1.436   2.990   7.175 -0.7396  0.5387  0.3826
   80MOL0     O10452   1.560   2.949   7.109  0.5366 -0.6215  0.4434
   80MOL0     C10453   1.681   2.991   7.154  0.0774 -0.2767  0.5284
   80MOL0     C10454   1.781   2.979   7.060 -0.6592 -0.6889  0.1755
   80MOL0     C10455   1.908   3.010   7.103 -0.9329  0.1934  0.4191
   80MOL0     C10456   1.937   3.052   7.232 -0.2718 -0.6951 -0.6436
   80MOL0     C10457   2.073   3.074   7.268 -0.6312  0.5554  0.7473
   80MOL0     O10458   2.099   3.129   7.394 -0.7901  0.1197 -0.3158
   80MOL0     C10459   2.227   3.115   7.461 -0.0555  0.6444 -0.2688
   80MOL0     C10460   2.345   3.057   7.404 -0.0300 -0.2526  1.0177
   80MOL0     C10461   2.459   3.045   7.488 -0.3119  1.1247 -0.1095
   80MOL0     C10462   2.466   3.100   7.616 -0.4114  0.8532 -0.0635
   80MOL0     O10463   2.580   3.087   7.701  0.5325 -0.0188 -0.1444
   80MOL0     C10464   2.632   3.202   7.761 -0.1814  0.3940 -0.3271
   80MOL0     C10465   2.777   3.176   7.796  0.9122 -0.3084 -0.0244
   80MOL0     C10466   2.840   3.317   7.837  0.7866  0.7070 -0.4064
   80MOL0     C10467   2.971   3.297   7.906  0.4638 -0.1287  0.0296
   80MOL0     C10468   3.046   3.426   7.928  0.4966 -0.4533 -0.6255
   80MOL0     C10469   3.153   3.409   8.037 -0.4387 -0.5236  0.4970
   80MOL0     C10470   3.273   3.514   8.041 -0.6940 -0.5055  1.3448
   80MOL0     C10471   3.378   3.473   8.143  1.1105 -1.0400  1.1570
   80MOL0    Cl10472   3.280   3.503   8.296  0.3401 -0.1989  0.2383
   80MOL0     C10473   2.346   3.157   7.663 -0.3588  1.2987  0.1074
   80MOL0     C10474   2.226   3.166   7.591 -0.5010  0.4435 -0.6466
   80MOL0     O10475   2.158   3.052   7.185 -0.2893 -0.1563  0.3747
   80MOL0     C10476   1.837   3.074   7.326 -0.3344 -0.5858 -0.1972
   80MOL0     C10477   1.709   3.039   7.281  0.5445  0.3779  0.3281
   80MOL0     N10478   1.122   2.700   6.910 -0.3111  0.8877  0.3490
   80MOL0     N10479   1.114   2.570   6.901  0.0855  0.4082  0.0680
   80MOL0     C10480   0.768   1.649   7.812  0.1048  0.3225  1.2612
   80MOL0     C10481   0.749   1.584   7.933  0.2729 -0.3219  0.2748
   80MOL0     C10482   0.633   1.376   8.283  0.0658  0.1681 -0.3178
   80MOL0     C10483   0.647   1.235   8.294 -0.8309 -0.1874  0.0379
   80MOL0     C10484   0.637   1.174   8.426 -0.0071  0.1376  0.7083
   80MOL0     C10485   0.599   1.249   8.538 -0.5466  0.1664 -0.2792
   80MOL0     O10486   0.581   1.194   8.659 -0.4774  0.7380 -0.0829
   80MOL0     C10487   0.662   1.074   8.703 -0.1861  0.1170  0.1588
   80MOL0     C10488   0.654   1.080   8.856  0.1829  0.4511  0.4513
   80MOL0     C10489   0.714   0.961   8.933  0.6183 -0.7401 -0.4590
   80MOL0     C10490   0.699   0.821   8.870  0.2359 -0.7521 -1.1378
   80MOL0     C10491   0.799   0.789   8.772 -0.5854  0.5341 -0.0722
   80MOL0     C10492   0.879   0.752   8.684 -0.4133 -1.0422  0.1781
   80MOL0     C10493   0.580   1.380   8.526  0.1194 -0.5193  0.7020
   80MOL0     C10494   0.598   1.444   8.401  0.1732  0.1033  0.8623
   80MOL0     H10495   0.656   1.274   7.826 -3.0958  0.9231  1.9178
   80MOL0     H10496   0.700   1.387   7.602  1.6678 -0.4013 -0.0909
   80MOL0     H10497   0.881   1.820   7.592  0.3199  1.4776 -2.7960
   80MOL0     H10498   0.707   1.822   7.573 -0.4081 -0.5459 -0.8035
   80MOL0     H10499   0.761   1.704   7.337  4.4814 -4.5364  0.3762
   80MOL0     H10500   0.924   1.737   7.359  0.1023 -1.5612  3.0224
   80MOL0     H10501   0.784   1.988   7.418  1.8179 -0.8194  0.4396
   80MOL0     H10502   0.728   1.924   7.269 -1.1648 -3.1970  0.4911
   80MOL0     H10503   1.027   1.957   7.321  1.3558 -0.0809 -1.9356
   80MOL0     H10504   0.946   1.922   7.166  0.5796 -0.0054 -0.7445
   80MOL0     H10505   0.958   2.166   7.328  2.9297  0.1187 -2.0493
   80MOL0     H10506   0.815   2.136   7.223 -0.4657 -3.3210 -1.7256
   80MOL0     H10507   0.992   2.119   7.041  1.9164  1.5848 -0.3457
   80MOL0     H10508   1.128   2.140   7.148  0.0474  1.6436  1.4235
   80MOL0     H10509   0.918   2.346   7.072  0.9331 -0.2583 -2.0881
   80MOL0     H10510   1.015   2.355   7.228  0.9943 -1.3763  1.8381
   80MOL0     H10511   1.111   2.323   6.943 -1.0469 -1.8186  1.8190
   80MOL0     H10512   1.219   2.334   7.082 -0.0316 -2.7479  0.4088
   80MOL0     H10513   1.090   2.599   7.228  0.8838  0.7288 -0.3325
   80MOL0     H10514   0.997   2.867   7.159  2.8834 -2.6103  2.4955
   80MOL0     H10515   1.053   2.928   7.006  1.8808  3.0006  1.1059
   80MOL0     H10516   1.199   2.895   7.280  1.2860 -0.7745  0.1333
   80MOL0     H10517   1.162   3.031   7.172 -0.9583 -0.8101 -2.0431
   80MOL0     H10518   1.358   2.802   7.105 -1.2528 -0.4258  1.3135
   80MOL0     H10519   1.314   2.933   6.999  2.2576 -1.7308 -1.1568
   80MOL0     H10520   1.435   2.977   7.284 -0.6419  0.8272  0.4175
   80MOL0     H10521   1.418   3.096   7.157 -0.8054  0.7445  1.5784
   80MOL0     H10522   1.758   2.940   6.962 -0.1083  3.0794 -1.6697
   80MOL0     H10523   1.977   2.979   7.026 -1.4456  0.5460 -0.1948
   80MOL0     H10524   2.355   3.028   7.300 -1.8798  0.2882  0.6532
   80MOL0     H10525   2.550   2.993   7.460 -0.4664  0.1469  1.1444
   80MOL0     H10526   2.574   3.237   7.847  1.0388 -0.2926  0.7994
   80MOL0     H10527   2.638   3.275   7.679  1.6466  1.4156  0.6710
   80MOL0     H10528   2.830   3.128   7.713  1.4213 -0.2218  0.2520
   80MOL0     H10529   2.777   3.102   7.876  0.5059 -3.1135 -2.4645
   80MOL0     H10530   2.776   3.365   7.912  2.6691 -2.3290  3.5281
   80MOL0     H10531   2.850   3.374   7.744 -0.0704  2.9635  0.8134
   80MOL0     H10532   2.951   3.249   8.002  0.0685 -2.4674 -1.1346
   80MOL0     H10533   3.027   3.227   7.843 -1.3387 -1.1302 -0.5448
   80MOL0     H10534   2.981   3.510   7.952  3.2245  1.1557  1.7415
   80MOL0     H10535   3.107   3.464   7.846  0.3269  1.1802 -0.0255
   80MOL0     H10536   3.188   3.305   8.043 -0.0721 -0.7115 -2.8929
   80MOL0     H10537   3.100   3.432   8.130  0.1193 -1.8946  1.1878
   80MOL0     H10538   3.319   3.512   7.942  0.2715 -1.2995  1.7915
   80MOL0     H10539   3.247   3.618   8.063  1.9791  0.4375  0.4502
   80MOL0     H10540   3.461   3.544   8.137 -0.9934  1.6850  2.2420
   80MOL0     H10541   3.414   3.371   8.127  2.0001 -0.2100 -3.6337
   80MOL0     H10542   2.349   3.214   7.755 -1.5291  2.1267 -0.3395
   80MOL0     H10543   2.149   3.220   7.645  1.0785 -0.8906  3.3190
   80MOL0     H10544   1.857   3.112   7.425 -1.2479 -2.1097  0.6255
   80MOL0     H10545   1.626   3.055   7.350 -0.0998  0.5807 -0.4707
   80MOL0     H10546   0.805   1.751   7.808  1.8243 -0.3091 -0.7901
   80MOL0     H10547   0.766   1.646   8.021 -1.4469 -1.0477  1.1575
   80MOL0     H10548   0.666   1.185   8.199 -2.1200 -1.8091  0.5788
   80MOL0     H10549   0.655   1.067   8.427  1.3678  0.2929 -1.2893
   80MOL0     H10550   0.763   1.095   8.666 -0.2838  0.1633 -0.0837
   80MOL0     H10551   0.618   0.982   8.664 -1.0188  0.9250 -0.8665
   80MOL0     H10552   0.706   1.167   8.897  0.0974 -0.1758  1.9665
   80MOL0     H10553   0.549   1.082   8.885  0.3816  0.6574  1.1675
   80MOL0     H10554   0.650   0.968   9.022  1.1063  3.7367 -0.2581
   80MOL0     H10555   0.821   0.977   8.950  0.8585 -0.3375 -2.2440
   80MOL0     H10556   0.720   0.741   8.941  3.8012 -0.0640 -1.2088
   80MOL0     H10557   0.605   0.805   8.817 -0.2492  1.4761 -1.0527
   80MOL0     H10558   0.944   0.714   8.609  0.7463  0.2172  0.5020
   80MOL0     H10559   0.535   1.436   8.608 -3.5213 -2.9437  0.5713
   80MOL0     H10560   0.576   1.549   8.387 -0.6923 -0.2403 -0.5245
   81MOL0     O10561   0.545   7.422   3.524  0.8449 -0.3718  0.4007
   81MOL0     C10562   0.667   7.438   3.506 -0.2622 -0.9056 -0.0793
   81MOL0     O10563   0.723   7.547   3.461  0.0616  0.2499  0.2289
   81MOL0     C10564   0.635   7.645   3.405  0.4703 -0.0958  0.1170
   81MOL0     C10565   0.521   7.624   3.328  0.4425 -0.2454 -0.0546
   81MOL0     C10566   0.447   7.734   3.279  0.1691 -0.1181 -0.1567
   81MOL0     C10567   0.495   7.859   3.289 -0.7163  0.5581 -0.2101
   81MOL0     O10568   0.412   7.960   3.261 -0.3485  0.7484 -1.1000
   81MOL0     C10569   0.394   7.985   3.117  0.3049  0.4107 -0.5134
   81MOL0     C10570   0.328   8.120   3.084  0.1885 -0.4968  0.8371
   81MOL0     C10571   0.203   8.150   3.178 -0.4768 -0.1784  0.5198
   81MOL0     C10572   0.132   8.275   3.125  0.6906  0.7261  0.1438
   81MOL0     C10573  -0.009   8.290   3.179  0.4652 -0.7390  0.2231
   81MOL0     C10574  -0.080   8.423   3.166  0.2093 -0.2533  0.6108
   81MOL0     C10575  -0.076   8.477   3.022 -0.9807 -0.6649  0.0314
   81MOL0     C10576  -0.122   8.374   2.923  0.1551 -0.0158 -0.0692
   81MOL0     N10577  -0.270   8.370   2.898  0.0135  0.4124  0.4309
   81MOL0     C10578  -0.334   8.312   2.782 -1.5057  0.9885  0.0725
   81MOL0     C10579  -0.451   8.281   2.820 -0.1571 -0.9215 -0.4129
   81MOL0     C10580  -0.553   8.207   2.740  0.4506  0.2650 -0.2836
   81MOL0     C10581  -0.520   8.059   2.726  0.2747  0.4811 -0.2449
   81MOL0     C10582  -0.372   8.039   2.697 -0.5063  0.1369  0.5779
   81MOL0     C10583  -0.327   7.909   2.640 -0.0298  0.2603 -0.1584
   81MOL0     O10584  -0.401   7.805   2.703  0.2485  0.1562 -0.6412
   81MOL0     C10585  -0.380   7.774   2.842  0.1206 -0.7263 -0.7882
   81MOL0     C10586  -0.263   7.817   2.902 -0.6514 -0.1738  0.6998
   81MOL0     C10587  -0.227   7.767   3.025  0.5872 -0.2669  0.2345
   81MOL0     C10588  -0.321   7.692   3.102 -0.8249 -0.1045 -0.2158
   81MOL0     C10589  -0.276   7.648   3.233  1.2759  0.0600 -0.5019
   81MOL0     O10590  -0.178   7.712   3.301  0.3639  0.3700  0.5168
   81MOL0     C10591  -0.161   7.676   3.429  0.5445  1.0145 -0.8635
   81MOL0     C10592  -0.261   7.713   3.520 -0.3540  0.3760 -0.0749
   81MOL0     C10593  -0.247   7.704   3.661  0.0212 -0.0583 -0.8592
   81MOL0     C10594  -0.127   7.647   3.715 -0.8507  0.0677  0.6733
   81MOL0     O10595  -0.103   7.612   3.844  0.0059 -0.2160  0.0477
   81MOL0     C10596  -0.204   7.552   3.916 -0.5817 -0.3661 -0.7905
   81MOL0     C10597  -0.151   7.509   4.049 -0.6594  0.7174 -0.1871
   81MOL0     C10598  -0.264   7.458   4.146 -0.9654 -0.4718  0.4298
   81MOL0     C10599  -0.282   7.307   4.118  0.1916 -0.0121  0.4133
   81MOL0     C10600  -0.420   7.261   4.138  0.0528  0.1517  0.0574
   81MOL0     C10601  -0.430   7.109   4.112 -0.6613 -0.2969 -0.3758
   81MOL0     C10602  -0.576   7.066   4.080 -0.5978 -0.9295 -0.2570
   81MOL0     C10603  -0.583   6.919   4.032 -0.2390  0.2553  0.1099
   81MOL0    Cl10604  -0.539   6.809   4.170 -0.5838 -0.2150  0.3981
   81MOL0     C10605  -0.038   7.605   3.624 -0.3668 -0.8144  0.9469
   81MOL0     C10606  -0.050   7.621   3.482 -0.1446  0.6143 -0.5845
   81MOL0     O10607  -0.340   7.549   3.274  0.0214 -0.5350  0.1966
   81MOL0     C10608  -0.441   7.653   3.037  0.3318  0.1853 -0.0351
   81MOL0     C10609  -0.468   7.696   2.912  0.9520  0.0135 -0.9670
   81MOL0     N10610  -0.474   8.326   2.946  0.0677  0.6348 -0.4368
   81MOL0     N10611  -0.360   8.359   2.994 -0.2778 -0.2211 -0.4702
   81MOL0     C10612   0.612   7.879   3.358 -0.8266  0.6294 -0.4754
   81MOL0     C10613   0.681   7.777   3.420  0.2989 -0.7136 -1.2210
   81MOL0     C10614   0.761   7.335   3.561 -0.3355  0.0416 -0.9021
   81MOL0     C10615   0.901   7.351   3.544  0.7304 -0.0751  0.3476
   81MOL0     C10616   0.983   7.240   3.545 -0.3433 -1.1937 -0.2114
   81MOL0     C10617   0.932   7.112   3.572 -0.6214 -0.3589  0.5245
   81MOL0     O10618   1.009   7.002   3.572  0.3913  0.2959 -0.0864
   81MOL0     C10619   1.139   6.999   3.497  0.0710 -0.0980  0.0254
   81MOL0     C10620   1.160   6.862   3.431 -0.8382  0.6558  0.9061
   81MOL0     C10621   1.199   6.747   3.526  0.3511 -0.7867  0.8685
   81MOL0     C10622   1.315   6.801   3.607 -0.8552 -0.4336 -0.0141
   81MOL0     C10623   1.345   6.688   3.695  0.2173 -0.7586 -0.5633
   81MOL0     C10624   1.387   6.605   3.776 -0.2196  0.0184  0.3136
   81MOL0     C10625   0.802   7.101   3.625  0.1273 -0.6517  0.7283
   81MOL0     C10626   0.713   7.210   3.619 -0.4292  0.0696 -1.2499
   81MOL0     H10627   0.490   7.524   3.299  0.1716  0.4047 -2.1410
   81MOL0     H10628   0.352   7.727   3.227 -1.3244  0.1594  2.3418
   81MOL0     H10629   0.321   7.911   3.082  0.1769  0.3377 -0.0985
   81MOL0     H10630   0.485   7.992   3.056  0.7619  0.4691  0.1682
   81MOL0     H10631   0.286   8.132   2.984 -1.2113  2.3604  1.6441
   81MOL0     H10632   0.402   8.201   3.087 -1.1796  0.7568  2.3290
   81MOL0     H10633   0.244   8.161   3.279  1.3232  2.8874 -0.3823
   81MOL0     H10634   0.136   8.065   3.190  3.6333 -3.7135  0.9949
   81MOL0     H10635   0.193   8.361   3.151  2.1229 -0.1574 -0.2089
   81MOL0     H10636   0.127   8.275   3.016  1.1544  2.6391  0.0934
   81MOL0     H10637  -0.001   8.278   3.288 -2.6704 -1.5989  0.4655
   81MOL0     H10638  -0.074   8.206   3.152  1.7361 -1.4861 -0.6133
   81MOL0     H10639  -0.049   8.502   3.235 -2.0216 -0.9333  2.5081
   81MOL0     H10640  -0.185   8.409   3.194 -0.1905  3.3802  1.3694
   81MOL0     H10641  -0.142   8.563   3.008  2.1982  2.1068  0.6458
   81MOL0     H10642   0.027   8.508   2.998 -1.1821  0.4739  0.5752
   81MOL0     H10643  -0.096   8.268   2.936 -2.4658 -0.5743  1.2310
   81MOL0     H10644  -0.087   8.400   2.823 -0.1313 -1.2724 -0.5086
   81MOL0     H10645  -0.283   8.282   2.691  0.4568  0.9087  1.1414
   81MOL0     H10646  -0.554   8.257   2.643 -1.4086  0.0934 -0.3816
   81MOL0     H10647  -0.652   8.225   2.781  1.0344 -0.1468  1.4110
   81MOL0     H10648  -0.580   8.023   2.642 -3.2436  1.3812  1.6966
   81MOL0     H10649  -0.547   8.016   2.823  2.2017 -1.8736 -0.6571
   81MOL0     H10650  -0.353   8.108   2.614 -1.3187  0.8423  0.9622
   81MOL0     H10651  -0.309   8.059   2.784 -1.0500 -1.3187  1.3470
   81MOL0     H10652  -0.219   7.917   2.653  0.5002  0.1415 -3.5652
   81MOL0     H10653  -0.349   7.891   2.535  1.3312 -2.5161 -0.0424
   81MOL0     H10654  -0.190   7.886   2.860 -0.4557 -1.2011 -0.7539
   81MOL0     H10655  -0.134   7.790   3.076  1.6927 -0.3728 -1.6270
   81MOL0     H10656  -0.347   7.765   3.478 -0.7550  1.2558  1.7754
   81MOL0     H10657  -0.318   7.752   3.728  2.9008  1.8840  1.0437
   81MOL0     H10658  -0.247   7.469   3.860 -3.1325  1.8153 -2.3330
   81MOL0     H10659  -0.288   7.619   3.938 -0.6106 -0.0404 -1.8628
   81MOL0     H10660  -0.097   7.592   4.094  0.0810 -1.0224  2.3458
   81MOL0     H10661  -0.073   7.433   4.037 -2.8157 -1.8304  0.9824
   81MOL0     H10662  -0.354   7.514   4.123 -0.3395  0.0038 -0.9634
   81MOL0     H10663  -0.238   7.481   4.250  1.6917 -1.4528  0.0727
   81MOL0     H10664  -0.260   7.296   4.011 -1.5202 -1.6573  0.1938
   81MOL0     H10665  -0.206   7.259   4.180 -0.3748 -2.5671 -0.7510
   81MOL0     H10666  -0.471   7.329   4.068  3.5998  0.6772 -2.2552
   81MOL0     H10667  -0.459   7.273   4.240 -3.9262 -4.3798 -0.5879
   81MOL0     H10668  -0.387   7.060   4.200 -1.2065 -0.3304 -0.1234
   81MOL0     H10669  -0.368   7.095   4.023 -0.6995  1.1740 -0.6585
   81MOL0     H10670  -0.649   7.084   4.160 -1.7564 -1.3186 -1.2007
   81MOL0     H10671  -0.616   7.130   4.001  1.2186  1.8014  0.8725
   81MOL0     H10672  -0.500   6.910   3.961  0.5225  4.3033  0.2263
   81MOL0     H10673  -0.678   6.892   3.984 -1.7050  1.4093  2.2245
   81MOL0     H10674   0.053   7.552   3.651  0.4084 -0.4707 -0.8276
   81MOL0     H10675   0.027   7.582   3.416 -1.9207 -0.0466 -2.3677
   81MOL0     H10676  -0.513   7.589   3.086 -0.0306 -0.3721 -1.2585
   81MOL0     H10677  -0.553   7.658   2.856  1.8976  1.1790 -3.3303
   81MOL0     H10678   0.637   7.980   3.387 -0.7794  0.2124  1.0292
   81MOL0     H10679   0.751   7.805   3.498  0.4136 -1.2999 -1.1118
   81MOL0     H10680   0.942   7.444   3.507  1.1654 -0.3806  0.0415
   81MOL0     H10681   1.085   7.257   3.511 -0.3946  0.2060  0.2527
   81MOL0     H10682   1.216   7.054   3.550  1.2840  1.0631 -2.7717
   81MOL0     H10683   1.132   7.065   3.410  0.4619 -0.7144 -0.4810
   81MOL0     H10684   1.079   6.829   3.366  0.2945  0.4343 -0.4122
   81MOL0     H10685   1.240   6.867   3.357 -1.0763 -0.2108  0.5791
   81MOL0     H10686   1.225   6.656   3.472  4.6968  0.0680  1.1623
   81MOL0     H10687   1.124   6.718   3.601 -0.0425 -2.4081 -0.1081
   81MOL0     H10688   1.400   6.817   3.540 -1.3750 -1.9951 -1.1050
   81MOL0     H10689   1.296   6.883   3.676  2.1063 -0.4452  0.9741
   81MOL0     H10690   1.423   6.531   3.845 -1.0783 -0.4463  0.2774
   81MOL0     H10691   0.759   7.006   3.655  1.4773 -2.1206 -1.7396
   81MOL0     H10692   0.610   7.206   3.652 -0.0463  0.4346  0.0462
   82MOL0     O10693   2.727   2.693   6.629 -0.0449  0.4686 -0.2609
   82MOL0     C10694   2.725   2.808   6.663 -0.1937 -0.1422  0.1115
   82MOL0     O10695   2.624   2.896   6.648  0.2571 -0.1847  0.5179
   82MOL0     C10696   2.493   2.866   6.690 -0.4462  0.4868  0.6350
   82MOL0     C10697   2.449   2.765   6.773  0.4422  0.0038  0.5061
   82MOL0     C10698   2.314   2.754   6.824  0.1289  0.7411 -0.1959
   82MOL0     C10699   2.214   2.831   6.769  0.0263 -0.5346 -0.6166
   82MOL0     O10700   2.087   2.796   6.801  0.1240 -0.2384  0.5835
   82MOL0     C10701   1.973   2.835   6.725 -0.2025 -0.5919 -0.4425
   82MOL0     C10702   1.849   2.751   6.753 -0.9042  0.3821 -0.7145
   82MOL0     C10703   1.851   2.612   6.675 -0.1008  0.0763 -0.5285
   82MOL0     C10704   1.974   2.529   6.699 -0.0794 -0.2594 -0.1265
   82MOL0     C10705   1.928   2.383   6.661  0.5588  0.0141  0.0605
   82MOL0     C10706   1.867   2.296   6.773  0.0862 -0.1863  0.6830
   82MOL0     C10707   1.821   2.154   6.727 -0.0303  0.4857 -0.5261
   82MOL0     C10708   1.716   2.083   6.818 -0.3187 -0.7628  0.6205
   82MOL0     N10709   1.761   2.079   6.958  0.7094 -0.2578 -0.2563
   82MOL0     C10710   1.888   2.037   6.984  0.3043 -0.3386 -0.3187
   82MOL0     C10711   1.899   2.069   7.121 -1.0282  0.0265  0.4441
   82MOL0     C10712   2.026   2.026   7.195  0.4805  0.0777  0.4629
   82MOL0     C10713   1.989   1.958   7.339 -0.9823  0.6333 -0.9990
   82MOL0     C10714   1.914   1.825   7.332 -0.4760 -0.4824  0.2022
   82MOL0     C10715   1.940   1.734   7.446 -0.0680  0.1178  1.4136
   82MOL0     O10716   1.871   1.761   7.567  0.0182  0.2096  0.2760
   82MOL0     C10717   1.894   1.668   7.669 -0.3223 -0.0298  0.8776
   82MOL0     C10718   1.833   1.701   7.787 -0.0612 -1.2258  0.0269
   82MOL0     C10719   1.833   1.622   7.905 -0.0432  0.7759  0.6352
   82MOL0     C10720   1.899   1.489   7.888  0.6605 -0.0888 -0.3893
   82MOL0     C10721   1.896   1.389   8.001  0.5086 -0.1430  0.0761
   82MOL0     O10722   1.843   1.427   8.120 -0.1040 -0.5844  0.5686
   82MOL0     C10723   1.881   1.352   8.221 -0.3216  0.3471 -0.1960
   82MOL0     C10724   1.978   1.397   8.312 -0.6808 -0.2378  0.1128
   82MOL0     C10725   2.003   1.309   8.418 -0.1027  0.1267 -0.8301
   82MOL0     C10726   1.942   1.186   8.439  0.1721  0.4711  0.4580
   82MOL0     O10727   1.980   1.108   8.546  0.0913 -0.4118 -0.0716
   82MOL0     C10728   2.092   1.149   8.630 -0.1835  0.8202  0.0188
   82MOL0     C10729   2.130   1.020   8.710 -0.0117 -0.4194 -0.0307
   82MOL0     C10730   2.024   0.970   8.809 -0.7368  0.0331 -0.3770
   82MOL0     C10731   2.001   1.082   8.911 -0.2536  0.5828 -0.9845
   82MOL0     C10732   1.907   1.050   9.022 -0.3456  0.3260 -0.7731
   82MOL0     C10733   1.940   0.897   9.076 -0.1246  0.0557  0.2638
   82MOL0     C10734   1.850   0.873   9.209 -0.6886 -0.4333  0.1247
   82MOL0     C10735   1.893   0.750   9.285 -0.4067  0.2601  0.1144
   82MOL0    Cl10736   1.744   0.677   9.366 -0.0268 -0.4745 -0.2882
   82MOL0     C10737   1.846   1.145   8.352 -0.3443 -0.1129 -0.2861
   82MOL0     C10738   1.816   1.227   8.242  0.8045  0.5538  0.4932
   82MOL0     O10739   1.949   1.284   7.973 -0.4662 -0.0952 -0.1799
   82MOL0     C10740   1.974   1.460   7.772 -0.2521  0.1013  0.4207
   82MOL0     C10741   1.972   1.550   7.660 -0.2274 -0.0616 -0.6186
   82MOL0     N10742   1.790   2.146   7.166 -0.1355 -0.3005 -0.4330
   82MOL0     N10743   1.707   2.151   7.071 -0.1441  0.8058  0.3969
   82MOL0     C10744   2.258   2.929   6.686 -0.1477 -1.3621 -0.8755
   82MOL0     C10745   2.393   2.955   6.657 -0.2739  0.1134 -0.4060
   82MOL0     C10746   2.849   2.874   6.725  0.2301  1.1843  0.7899
   82MOL0     C10747   2.967   2.807   6.736 -0.0732 -0.1547  0.8519
   82MOL0     C10748   3.075   2.860   6.806 -0.0692 -0.0482  0.1266
   82MOL0     C10749   3.061   2.987   6.861 -0.1899 -0.0857 -1.0414
   82MOL0     O10750   3.158   3.055   6.934 -0.3478  0.8877 -0.3357
   82MOL0     C10751   3.252   2.968   7.002 -0.3073 -0.2531 -0.0086
   82MOL0     C10752   3.196   2.898   7.114 -0.4105 -0.9781 -1.0373
   82MOL0     C10753   3.151   2.993   7.225  0.0208  0.1255 -0.1533
   82MOL0     C10754   3.105   2.908   7.348 -0.2230 -0.5175 -0.3135
   82MOL0     C10755   3.060   2.994   7.452 -0.7047  0.6121  0.2817
   82MOL0     C10756   3.029   3.071   7.529 -0.8561  0.4039  0.1373
   82MOL0     C10757   2.943   3.062   6.847 -0.7687  0.2963  0.4885
   82MOL0     C10758   2.840   3.001   6.776 -0.0635  0.1345 -0.2968
   82MOL0     H10759   2.507   2.683   6.814  1.9752  0.4370 -0.7035
   82MOL0     H10760   2.283   2.683   6.900  0.2146 -0.4689 -1.2583
   82MOL0     H10761   2.000   2.826   6.619  1.3586  1.2154 -0.2532
   82MOL0     H10762   1.958   2.937   6.762 -0.2691 -1.3184  1.7205
   82MOL0     H10763   1.758   2.805   6.724 -0.6877  0.2436 -1.6761
   82MOL0     H10764   1.845   2.736   6.862  1.4780 -2.4611 -0.8689
   82MOL0     H10765   1.836   2.630   6.569 -2.7701 -0.2089 -0.2837
   82MOL0     H10766   1.759   2.556   6.694  0.8973 -0.8869  2.0444
   82MOL0     H10767   2.062   2.572   6.651 -1.4248  1.5647 -1.0768
   82MOL0     H10768   1.995   2.520   6.806 -2.3308  0.0246  0.3787
   82MOL0     H10769   2.014   2.327   6.623 -0.1259 -0.2429 -1.1995
   82MOL0     H10770   1.858   2.394   6.577  2.1394  1.3128 -1.1436
   82MOL0     H10771   1.773   2.340   6.809 -1.1979 -3.0938  1.2247
   82MOL0     H10772   1.945   2.288   6.848  1.5147  1.8528 -0.4913
   82MOL0     H10773   1.773   2.161   6.629  0.1886 -0.7813 -0.7407
   82MOL0     H10774   1.911   2.092   6.731  1.7471  2.9373  0.1013
   82MOL0     H10775   1.705   1.984   6.774 -3.5137  0.6834 -2.3383
   82MOL0     H10776   1.624   2.142   6.813 -0.7365 -1.3049  1.7060
   82MOL0     H10777   1.963   1.984   6.924  1.0365 -1.1419  1.2369
   82MOL0     H10778   2.089   2.113   7.214  0.3022  0.7165 -1.5840
   82MOL0     H10779   2.093   1.963   7.135  0.5215  0.6655 -0.1227
   82MOL0     H10780   1.940   2.027   7.408  0.4674 -0.2223  0.9594
   82MOL0     H10781   2.083   1.943   7.392 -1.8890  1.5488  0.9469
   82MOL0     H10782   1.808   1.851   7.325 -0.3812 -0.5221 -1.9337
   82MOL0     H10783   1.945   1.773   7.241  5.1707  0.9878  0.8977
   82MOL0     H10784   2.048   1.721   7.458  0.2381 -0.9563 -1.6619
   82MOL0     H10785   1.902   1.633   7.426  1.9629 -0.5825  0.8359
   82MOL0     H10786   1.783   1.794   7.812  3.1294  0.7522 -0.4940
   82MOL0     H10787   1.785   1.656   7.996  1.1837  2.0971  0.8257
   82MOL0     H10788   2.021   1.497   8.310 -3.4225  1.2480  3.5959
   82MOL0     H10789   2.062   1.352   8.497 -1.7787  2.2748 -0.6466
   82MOL0     H10790   2.072   1.228   8.702  1.9880  0.7335  0.7799
   82MOL0     H10791   2.180   1.174   8.570  1.8850 -0.4229  2.3299
   82MOL0     H10792   2.223   1.037   8.765  0.2193 -0.3054 -0.4544
   82MOL0     H10793   2.156   0.941   8.638 -3.1171 -2.7244  1.1418
   82MOL0     H10794   2.069   0.882   8.856  0.2734  1.1385  0.7823
   82MOL0     H10795   1.936   0.936   8.753  0.2246  0.2914 -2.1190
   82MOL0     H10796   2.093   1.119   8.957 -2.0889  1.1382  2.5880
   82MOL0     H10797   1.944   1.157   8.856  0.6879  1.6992 -0.4843
   82MOL0     H10798   1.807   1.056   8.979 -0.2162 -0.5382 -1.2178
   82MOL0     H10799   1.912   1.130   9.097 -1.3819 -0.8232  0.5842
   82MOL0     H10800   2.042   0.888   9.114 -0.9644 -0.2467  2.6335
   82MOL0     H10801   1.912   0.824   9.000 -0.6135  1.1109 -0.5987
   82MOL0     H10802   1.866   0.968   9.261  0.1363 -0.0782 -0.7462
   82MOL0     H10803   1.743   0.873   9.187 -0.7027  0.4374  0.1434
   82MOL0     H10804   1.969   0.790   9.352  1.6817 -1.2088 -1.2435
   82MOL0     H10805   1.924   0.662   9.228 -3.9013 -0.3756 -1.0888
   82MOL0     H10806   1.787   1.056   8.368 -1.5496  0.6324 -0.4327
   82MOL0     H10807   1.755   1.191   8.160 -0.1762  0.5315  1.2167
   82MOL0     H10808   2.032   1.368   7.767  0.2005  0.3354  1.1937
   82MOL0     H10809   2.027   1.513   7.574 -2.6874 -4.5017 -0.5622
   82MOL0     H10810   2.178   2.997   6.659 -0.8966 -0.6311  2.6423
   82MOL0     H10811   2.423   3.034   6.589  2.6613  0.6795  1.3724
   82MOL0     H10812   2.980   2.716   6.678 -1.7194  1.3196 -2.1096
   82MOL0     H10813   3.164   2.801   6.825 -0.9951 -1.7784 -0.6361
   82MOL0     H10814   3.338   3.024   7.040  0.9727 -2.7361  0.9401
   82MOL0     H10815   3.292   2.894   6.933 -0.0818 -1.9164  1.8227
   82MOL0     H10816   3.118   2.826   7.085 -0.0843 -1.1044 -1.6074
   82MOL0     H10817   3.276   2.838   7.157 -0.5379 -1.5053 -1.5282
   82MOL0     H10818   3.061   3.044   7.189  1.0714  0.4551 -2.5111
   82MOL0     H10819   3.233   3.060   7.251  0.7181 -0.8132  0.1233
   82MOL0     H10820   3.024   2.839   7.325  1.3912 -2.3280 -0.7748
   82MOL0     H10821   3.186   2.854   7.397  0.5894 -0.0998 -1.1810
   82MOL0     H10822   3.001   3.150   7.596  0.2388  0.4443  0.5636
   82MOL0     H10823   2.945   3.168   6.870  1.3883  1.2047 -3.1392
   82MOL0     H10824   2.749   3.061   6.769  0.5241  1.7098  3.1530
   83MOL0     O10825   1.275   5.984  10.619  0.5803  0.9847  0.3218
   83MOL0     C10826   1.326   5.899  10.546 -0.9654  0.5456 -0.4467
   83MOL0     O10827   1.307   5.890  10.410 -0.5354 -0.4638 -0.4312
   83MOL0     C10828   1.219   5.971  10.359 -0.5930  0.3024 -0.1734
   83MOL0     C10829   1.098   5.919  10.346  0.3832  0.0524  0.0990
   83MOL0     C10830   0.998   5.990  10.276 -0.7944  0.1022 -0.1133
   83MOL0     C10831   1.021   6.119  10.224 -1.1440 -0.0087  0.1523
   83MOL0     O10832   0.913   6.174  10.150 -0.1619 -0.3879 -0.1571
   83MOL0     C10833   0.938   6.248  10.034  1.1015 -0.0750 -0.2944
   83MOL0     C10834   0.996   6.179   9.915  0.6616  0.1337  0.0631
   83MOL0     C10835   0.893   6.089   9.850 -0.1638 -0.1248  0.1956
   83MOL0     C10836   0.964   6.001   9.742 -0.0340 -0.2067  0.5797
   83MOL0     C10837   1.022   6.075   9.619 -0.4157  0.9626  0.0247
   83MOL0     C10838   0.914   6.121   9.525 -0.4006  0.1122 -0.0389
   83MOL0     C10839   0.969   6.182   9.401  0.1511 -0.8402  0.5315
   83MOL0     C10840   0.992   6.335   9.395  0.2182 -0.3785  0.7261
   83MOL0     N10841   1.077   6.376   9.508 -0.0956  0.2823  1.0600
   83MOL0     C10842   1.207   6.360   9.503  0.1362  0.1561 -0.6047
   83MOL0     C10843   1.257   6.426   9.612  0.5294  1.4330  1.0154
   83MOL0     C10844   1.397   6.435   9.666 -0.2139  0.3941 -0.2037
   83MOL0     C10845   1.448   6.294   9.704 -0.3798  0.3180 -0.0083
   83MOL0     C10846   1.378   6.219   9.822 -0.1549  0.7112 -0.4069
   83MOL0     C10847   1.404   6.066   9.823 -1.3228 -0.2450 -0.4892
   83MOL0     O10848   1.545   6.029   9.846  0.2767  0.3167  0.5487
   83MOL0     C10849   1.600   6.033   9.974 -0.6925 -0.0218  0.4777
   83MOL0     C10850   1.738   6.059   9.978  0.1700  0.1805  0.1875
   83MOL0     C10851   1.816   6.050  10.097 -0.1816 -0.0632 -0.0713
   83MOL0     C10852   1.741   6.029  10.219  0.1876 -0.3938 -0.9467
   83MOL0     C10853   1.813   6.014  10.346  0.2719 -0.6287 -0.2828
   83MOL0     O10854   1.738   6.014  10.466  0.1962 -0.7784 -0.1343
   83MOL0     C10855   1.792   6.054  10.584  0.6085  0.2794  0.5132
   83MOL0     C10856   1.702   6.076  10.689 -0.0566 -0.3937 -0.6727
   83MOL0     C10857   1.743   6.118  10.817 -0.2337  0.1936  0.2738
   83MOL0     C10858   1.880   6.128  10.851  1.2681  0.7628 -0.0729
   83MOL0     O10859   1.932   6.163  10.977 -0.0317  0.5003  0.4869
   83MOL0     C10860   1.846   6.142  11.094  0.1758  0.9863 -0.1069
   83MOL0     C10861   1.810   5.994  11.100 -0.2839  0.1130  0.6591
   83MOL0     C10862   1.682   5.956  11.176  0.4309 -0.2374  0.4094
   83MOL0     C10863   1.674   5.812  11.198  0.6048 -0.6316  0.1499
   83MOL0     C10864   1.569   5.761  11.304  0.5959 -0.9919 -0.5055
   83MOL0     C10865   1.534   5.602  11.283  0.4135 -0.1675 -1.1376
   83MOL0     C10866   1.630   5.495  11.355  0.5701  0.3695  0.0819
   83MOL0     C10867   1.563   5.354  11.334  0.1708  0.0929 -0.1152
   83MOL0    Cl10868   1.425   5.324  11.452 -0.1094 -0.5793 -0.2085
   83MOL0     C10869   1.970   6.124  10.745 -1.0125  0.1226  0.4292
   83MOL0     C10870   1.926   6.088  10.615 -0.0791  0.4271 -0.5935
   83MOL0     O10871   1.932   6.018  10.342  0.1864 -0.1043 -0.4648
   83MOL0     C10872   1.603   6.010  10.218  0.0594 -0.1866 -0.3288
   83MOL0     C10873   1.537   6.014  10.094 -0.6287  0.0308  0.2274
   83MOL0     N10874   1.153   6.477   9.678 -0.0748 -0.2290 -0.0983
   83MOL0     N10875   1.048   6.450   9.618 -0.8354  0.2396  1.2767
   83MOL0     C10876   1.151   6.170  10.246 -0.9794 -1.6505  1.1606
   83MOL0     C10877   1.248   6.096  10.309 -0.0568 -0.4644  0.1023
   83MOL0     C10878   1.436   5.814  10.600 -0.6018  0.5625 -0.4325
   83MOL0     C10879   1.463   5.816  10.731 -0.2002 -0.1992  0.1671
   83MOL0     C10880   1.560   5.735  10.792  0.1589 -0.0275  0.1868
   83MOL0     C10881   1.644   5.660  10.711 -0.1463  0.4074  0.1810
   83MOL0     O10882   1.733   5.564  10.764  0.7095  0.6518 -0.4667
   83MOL0     C10883   1.692   5.506  10.888 -0.3274 -0.1124  0.3297
   83MOL0     C10884   1.720   5.359  10.903 -1.2610  0.6438 -1.1102
   83MOL0     C10885   1.871   5.326  10.879 -0.0392  0.0947 -0.3065
   83MOL0     C10886   1.881   5.177  10.861  0.1925  0.1357 -0.3839
   83MOL0     C10887   1.898   5.121  10.996  0.3982 -0.1203 -0.1245
   83MOL0     C10888   1.916   5.085  11.112 -0.1190 -0.7277  0.3675
   83MOL0     C10889   1.623   5.666  10.570 -0.5928  0.1282  0.7550
   83MOL0     C10890   1.521   5.738  10.516  0.1619  0.8008  0.1071
   83MOL0     H10891   1.067   5.821  10.382 -2.7851 -0.4678 -3.3998
   83MOL0     H10892   0.906   5.933  10.267 -0.3397 -0.9067  1.2202
   83MOL0     H10893   0.993   6.340  10.056  1.7574 -1.1714  3.3102
   83MOL0     H10894   0.841   6.294  10.012  1.9912  2.3570  0.5348
   83MOL0     H10895   1.078   6.113   9.945 -0.6345 -1.7364 -0.2687
   83MOL0     H10896   1.038   6.247   9.841  0.5575 -2.1132 -2.2014
   83MOL0     H10897   0.817   6.154   9.805 -2.1291 -0.8735  2.2635
   83MOL0     H10898   0.831   6.029   9.917 -1.2286 -2.4061 -2.6125
   83MOL0     H10899   1.045   5.937   9.777 -1.2493 -3.3116 -1.8096
   83MOL0     H10900   0.882   5.940   9.703 -2.5570  2.6544  1.0164
   83MOL0     H10901   1.096   6.011   9.570 -1.1477  0.3384 -0.2800
   83MOL0     H10902   1.081   6.161   9.652  1.8816  0.1930 -1.7941
   83MOL0     H10903   0.845   6.187   9.579 -0.5017 -1.1089  1.3864
   83MOL0     H10904   0.869   6.022   9.510 -2.8283  0.7636  2.1473
   83MOL0     H10905   1.066   6.139   9.377  0.2581  0.5048 -1.7469
   83MOL0     H10906   0.905   6.149   9.319  1.8685 -2.4278 -0.2468
   83MOL0     H10907   0.897   6.390   9.386 -0.4460 -1.6471 -0.4566
   83MOL0     H10908   1.040   6.353   9.299 -2.6059 -3.2138 -1.4688
   83MOL0     H10909   1.263   6.305   9.428  0.6926  3.0079 -2.4427
   83MOL0     H10910   1.390   6.501   9.753  2.3463  1.7085 -0.8982
   83MOL0     H10911   1.465   6.478   9.592 -2.6112  5.3063  0.0534
   83MOL0     H10912   1.549   6.314   9.742 -0.5280 -1.1514  1.2582
   83MOL0     H10913   1.450   6.218   9.626  4.6566 -0.3429  0.4260
   83MOL0     H10914   1.413   6.262   9.916 -1.4087  0.2427  0.2967
   83MOL0     H10915   1.269   6.230   9.821 -0.1483  0.9563  0.5311
   83MOL0     H10916   1.353   6.021   9.737 -0.3637 -0.8811 -0.7339
   83MOL0     H10917   1.353   6.019   9.908 -1.0398  1.0177  0.4217
   83MOL0     H10918   1.782   6.075   9.880 -2.5250 -1.8379 -1.5178
   83MOL0     H10919   1.922   6.070  10.106  0.2404 -2.6225  1.9554
   83MOL0     H10920   1.597   6.060  10.663 -0.9637 -0.1154  2.4868
   83MOL0     H10921   1.668   6.149  10.889 -0.2257  0.5909  0.1144
   83MOL0     H10922   1.751   6.195  11.080 -2.1295 -2.8714 -0.3859
   83MOL0     H10923   1.907   6.174  11.179  0.0396  1.0712 -0.0414
   83MOL0     H10924   1.899   5.944  11.140  1.5224 -0.4480 -3.4516
   83MOL0     H10925   1.800   5.943  11.003 -1.6646  2.8618 -0.7824
   83MOL0     H10926   1.603   5.996  11.112  1.7613  1.1702 -0.4182
   83MOL0     H10927   1.674   6.003  11.275 -1.3598  2.1127 -0.7262
   83MOL0     H10928   1.658   5.777  11.096  0.4416 -2.5109  0.7645
   83MOL0     H10929   1.774   5.777  11.225  1.5723 -0.4249 -2.8548
   83MOL0     H10930   1.471   5.811  11.308  0.4217 -1.1157 -2.3110
   83MOL0     H10931   1.617   5.780  11.400  0.0910  0.5829 -0.5354
   83MOL0     H10932   1.529   5.583  11.176 -1.7434 -1.0442 -0.9234
   83MOL0     H10933   1.438   5.580  11.330  0.9668 -0.1833  0.0310
   83MOL0     H10934   1.729   5.494  11.308 -0.8098 -1.9099 -3.2097
   83MOL0     H10935   1.652   5.512  11.461  2.0500 -1.9070  0.2004
   83MOL0     H10936   1.634   5.270  11.339 -1.2028 -1.2097 -1.5024
   83MOL0     H10937   1.521   5.350  11.233  1.1532 -2.7189 -0.4931
   83MOL0     H10938   2.078   6.121  10.753 -0.9248  0.3003 -0.5696
   83MOL0     H10939   2.004   6.065  10.543  0.4736 -1.2133  0.4686
   83MOL0     H10940   1.546   5.986  10.307  1.6029  0.6373  0.9417
   83MOL0     H10941   1.432   5.987  10.090 -0.5240 -0.3680  0.1870
   83MOL0     H10942   1.171   6.263  10.194  0.8176 -2.2828  0.6474
   83MOL0     H10943   1.347   6.139  10.304  0.1276 -1.0293 -1.8800
   83MOL0     H10944   1.415   5.886  10.799 -0.2967  1.2292 -1.3239
   83MOL0     H10945   1.574   5.729  10.900  1.6212  2.6710  0.2405
   83MOL0     H10946   1.584   5.514  10.903 -0.3557  1.1288 -0.3753
   83MOL0     H10947   1.728   5.570  10.968 -0.6906  0.2619  0.2017
   83MOL0     H10948   1.680   5.329  11.000 -0.7565  1.7703 -0.5345
   83MOL0     H10949   1.662   5.307  10.826 -0.2902 -2.8252  0.3236
   83MOL0     H10950   1.930   5.361  10.964 -1.1233  0.6059  0.2623
   83MOL0     H10951   1.912   5.383  10.794 -2.1660  3.4054  0.6820
   83MOL0     H10952   1.793   5.143  10.806  0.9048  1.2517 -2.2987
   83MOL0     H10953   1.967   5.158  10.796 -0.9171 -1.8980 -1.3381
   83MOL0     H10954   1.919   5.054  11.214 -0.0279  1.0364  0.9395
   83MOL0     H10955   1.695   5.610  10.511  3.7714  4.1686  1.7154
   83MOL0     H10956   1.510   5.732  10.408 -0.2787 -2.5207  0.2278
   84MOL0     O10957   2.784   8.258   7.805  1.0612  0.6021 -0.9728
   84MOL0     C10958   2.852   8.352   7.841 -0.3802  0.6899 -0.6143
   84MOL0     O10959   2.811   8.481   7.835 -0.1576  0.2995 -0.1087
   84MOL0     C10960   2.696   8.518   7.773  0.1773 -0.4030 -0.8350
   84MOL0     C10961   2.641   8.628   7.839 -0.1733 -0.5121  0.2502
   84MOL0     C10962   2.520   8.678   7.784 -0.4667  0.7923 -0.3162
   84MOL0     C10963   2.465   8.621   7.672  0.6434  0.0815 -0.7427
   84MOL0     O10964   2.355   8.690   7.630 -0.1369  0.5161 -0.5642
   84MOL0     C10965   2.347   8.698   7.496  0.9370 -0.8075  1.0843
   84MOL0     C10966   2.221   8.782   7.465 -0.0876  0.9325  1.0117
   84MOL0     C10967   2.244   8.938   7.487 -0.7572  0.3292 -0.5648
   84MOL0     C10968   2.112   9.001   7.477  0.7282 -0.0307 -0.3464
   84MOL0     C10969   2.110   9.152   7.449  0.6166 -0.4197 -0.4741
   84MOL0     C10970   2.116   9.235   7.582  0.5985 -0.4284 -0.3562
   84MOL0     C10971   2.073   9.381   7.558 -0.4570 -1.4540  0.2628
   84MOL0     C10972   2.002   9.436   7.683  0.0768  0.1077  0.0868
   84MOL0     N10973   1.998   9.579   7.679 -0.0411  0.1172  0.2570
   84MOL0     C10974   1.911   9.654   7.761  0.7735 -0.1404  0.3010
   84MOL0     C10975   1.942   9.786   7.738 -0.1184 -0.9758  0.0446
   84MOL0     C10976   1.858   9.892   7.793  0.1704  0.3163  0.7230
   84MOL0     C10977   1.898  10.034   7.760 -0.4828  0.9271 -0.6403
   84MOL0     C10978   1.849  10.130   7.875  0.6210 -0.3038 -0.7862
   84MOL0     C10979   1.703  10.128   7.901 -0.0209  1.2477  0.2772
   84MOL0     O10980   1.630  10.178   7.780  0.1848  0.1818 -0.7256
   84MOL0     C10981   1.493  10.145   7.756  0.0231  0.8915 -0.0879
   84MOL0     C10982   1.445  10.019   7.777  0.6790 -0.4035 -0.6231
   84MOL0     C10983   1.313   9.989   7.752 -0.0374 -0.0690 -0.7477
   84MOL0     C10984   1.229  10.088   7.717  0.0209 -0.7258  0.7148
   84MOL0     C10985   1.091  10.054   7.669 -0.1990 -0.1901 -0.0934
   84MOL0     O10986   0.996  10.153   7.663  0.4807 -0.1524  0.2219
   84MOL0     C10987   0.864  10.134   7.621  0.4932  0.5439 -0.7699
   84MOL0     C10988   0.826  10.091   7.496 -0.2440  0.6950  0.7204
   84MOL0     C10989   0.691  10.078   7.458 -0.4211 -0.2077 -0.7517
   84MOL0     C10990   0.592  10.103   7.552  0.3135  0.1020 -0.7277
   84MOL0     O10991   0.458  10.090   7.516  0.6857  0.3644 -0.4957
   84MOL0     C10992   0.420   9.971   7.442  0.5608 -1.0539  0.4762
   84MOL0     C10993   0.298   9.903   7.505  0.5628 -0.5549  0.0099
   84MOL0     C10994   0.210   9.822   7.397 -1.1240 -0.7997 -0.7764
   84MOL0     C10995   0.090   9.770   7.470 -0.5154 -0.1737  0.8243
   84MOL0     C10996   0.011   9.675   7.386  0.0835 -0.1571  0.3519
   84MOL0     C10997  -0.141   9.638   7.426  0.5269 -0.7344 -0.3861
   84MOL0     C10998  -0.234   9.765   7.404  0.1128 -0.3564 -0.4604
   84MOL0     C10999  -0.322   9.749   7.278  0.6817  0.0600  0.6659
   84MOL0    Cl11000  -0.451   9.643   7.338  0.2759  0.1461 -0.5613
   84MOL0     C11001   0.620  10.146   7.677 -0.1457  0.6922 -0.8021
   84MOL0     C11002   0.759  10.173   7.710 -0.3940  0.4625 -0.7167
   84MOL0     O11003   1.066   9.935   7.650  1.1099  0.1146 -0.8475
   84MOL0     C11004   1.275  10.230   7.700 -0.1965  0.1066 -0.5339
   84MOL0     C11005   1.412  10.255   7.715  0.1322 -0.0934 -0.0442
   84MOL0     N11006   2.056   9.789   7.652  0.2671 -0.2206 -0.2013
   84MOL0     N11007   2.083   9.671   7.620  0.2070  0.0245 -0.1113
   84MOL0     C11008   2.528   8.518   7.609 -0.3773  0.3260  1.1124
   84MOL0     C11009   2.645   8.468   7.659  0.8548 -0.6511  0.3302
   84MOL0     C11010   2.994   8.326   7.876  0.3756  0.2221 -0.3329
   84MOL0     C11011   3.038   8.195   7.905 -0.1224 -1.2030 -0.1066
   84MOL0     C11012   3.163   8.188   7.970  0.4745  0.1623  0.2705
   84MOL0     C11013   3.258   8.295   7.979  0.0976 -0.9679 -0.7681
   84MOL0     O11014   3.385   8.290   8.025 -0.4646 -0.4890  0.2097
   84MOL0     C11015   3.451   8.167   8.050 -0.1890  0.5228  0.7061
   84MOL0     C11016   3.530   8.166   8.176  0.1649  0.1899  0.4825
   84MOL0     C11017   3.661   8.244   8.144  0.1249 -0.3604 -0.5328
   84MOL0     C11018   3.758   8.222   8.256 -0.1213 -0.3876  0.5085
   84MOL0     C11019   3.720   8.301   8.379 -0.4259  0.4180  0.2042
   84MOL0     C11020   3.672   8.370   8.467 -0.0904 -0.0607  1.4091
   84MOL0     C11021   3.211   8.414   7.936 -0.4654 -0.0182  0.2253
   84MOL0     C11022   3.075   8.432   7.894 -0.6263 -0.2921  0.5450
   84MOL0     H11023   2.677   8.643   7.940  1.2872  0.7867 -0.4094
   84MOL0     H11024   2.470   8.748   7.850  0.7373  0.6916  0.7425
   84MOL0     H11025   2.339   8.600   7.449  0.4272 -0.7439  1.0298
   84MOL0     H11026   2.423   8.761   7.449  0.6478 -0.1189  1.5158
   84MOL0     H11027   2.135   8.731   7.509  0.7945  1.0219  2.9429
   84MOL0     H11028   2.215   8.774   7.356  2.2569  3.5082  0.5825
   84MOL0     H11029   2.316   8.988   7.422  0.2801 -1.7390 -1.0965
   84MOL0     H11030   2.291   8.949   7.585  3.9157 -1.8319 -2.2583
   84MOL0     H11031   2.063   8.962   7.388 -2.2295 -0.7578  1.4562
   84MOL0     H11032   2.054   8.985   7.569  0.6313  0.5661 -0.2993
   84MOL0     H11033   2.012   9.181   7.409 -0.6212 -1.5658  1.5649
   84MOL0     H11034   2.187   9.183   7.379  0.6305 -3.3786 -1.9299
   84MOL0     H11035   2.219   9.226   7.617  2.2966  1.8172 -4.1161
   84MOL0     H11036   2.038   9.185   7.640  0.2983  0.9203  0.4314
   84MOL0     H11037   2.172   9.416   7.529 -0.9563  0.3006  0.5882
   84MOL0     H11038   2.004   9.407   7.478 -0.4095  1.5320  1.0957
   84MOL0     H11039   2.067   9.415   7.769 -0.6370  1.2669  0.9272
   84MOL0     H11040   1.908   9.390   7.716  0.1733 -2.2925 -2.5818
   84MOL0     H11041   1.830   9.609   7.818 -1.6779  1.2454 -1.8944
   84MOL0     H11042   1.866   9.875   7.901  1.7667  1.0323  0.7517
   84MOL0     H11043   1.755   9.873   7.762  0.4764  0.7710 -0.6255
   84MOL0     H11044   1.865  10.048   7.656 -0.1839 -2.1876 -1.2561
   84MOL0     H11045   2.007  10.039   7.752 -0.1876  0.7647  2.2075
   84MOL0     H11046   1.899  10.117   7.971  0.7231  2.4308 -0.4166
   84MOL0     H11047   1.869  10.232   7.844 -3.3655  0.3046 -1.8819
   84MOL0     H11048   1.672  10.185   7.989 -0.4795 -1.0299  1.6800
   84MOL0     H11049   1.665  10.027   7.919  0.3362  1.1465  0.4674
   84MOL0     H11050   1.510   9.940   7.814 -2.0801 -0.3674  5.4582
   84MOL0     H11051   1.269   9.890   7.752 -1.3040  0.4809 -0.3453
   84MOL0     H11052   0.897  10.071   7.416 -2.1889  1.1909 -1.2538
   84MOL0     H11053   0.677  10.062   7.352 -1.5251  1.9186 -0.9796
   84MOL0     H11054   0.513   9.916   7.424  1.6893  1.6151 -3.1552
   84MOL0     H11055   0.395  10.006   7.341  4.1129  3.2917  0.7606
   84MOL0     H11056   0.224   9.979   7.532 -0.8140 -1.7186 -0.4357
   84MOL0     H11057   0.326   9.841   7.591 -1.8513 -0.8766  0.6149
   84MOL0     H11058   0.272   9.739   7.363 -1.0529 -2.1849  2.3899
   84MOL0     H11059   0.180   9.891   7.317  1.5937  1.2658 -0.1761
   84MOL0     H11060   0.122   9.712   7.557 -1.8620 -3.5030 -0.7204
   84MOL0     H11061   0.035   9.856   7.510  1.6478 -0.1174  4.1308
   84MOL0     H11062   0.066   9.581   7.374  0.5754  0.3922 -2.3294
   84MOL0     H11063   0.019   9.719   7.286  0.6178  0.1162  0.5106
   84MOL0     H11064  -0.146   9.613   7.532 -1.5552  1.1015 -0.0003
   84MOL0     H11065  -0.175   9.557   7.360  1.2142  0.8507 -2.8282
   84MOL0     H11066  -0.292   9.771   7.496  1.4550  0.7240  0.3344
   84MOL0     H11067  -0.182   9.860   7.395  2.9069 -1.9053 -2.1307
   84MOL0     H11068  -0.271   9.697   7.195  1.9185  0.8748  0.8926
   84MOL0     H11069  -0.371   9.840   7.243  2.6745  1.8909  2.3617
   84MOL0     H11070   0.539  10.153   7.749 -2.8209  1.6796 -3.6970
   84MOL0     H11071   0.792  10.240   7.789  1.7403  3.0560 -3.5872
   84MOL0     H11072   1.211  10.318   7.689  0.5658  0.7136 -0.1827
   84MOL0     H11073   1.448  10.357   7.706  0.3403 -0.0476  1.2104
   84MOL0     H11074   2.490   8.486   7.513 -0.5884  3.3385  0.0813
   84MOL0     H11075   2.698   8.394   7.600  0.1826 -1.9598  1.3127
   84MOL0     H11076   2.971   8.110   7.897  0.9576 -2.2275  1.2954
   84MOL0     H11077   3.200   8.090   7.996  3.1545  1.4498  1.7658
   84MOL0     H11078   3.511   8.134   7.964 -1.7016 -0.3770 -0.0633
   84MOL0     H11079   3.379   8.086   8.063  0.4410 -0.3659 -0.9845
   84MOL0     H11080   3.486   8.220   8.260 -0.4502  0.5644 -0.0734
   84MOL0     H11081   3.563   8.063   8.193 -0.4674  0.0025  0.5781
   84MOL0     H11082   3.644   8.351   8.128  1.3395  0.0208  0.6043
   84MOL0     H11083   3.710   8.211   8.052  0.9310  0.4023 -0.3894
   84MOL0     H11084   3.760   8.117   8.286  0.9657 -0.0291  1.7962
   84MOL0     H11085   3.852   8.259   8.214 -0.7156 -1.2191 -1.6633
   84MOL0     H11086   3.628   8.442   8.532 -0.6881  2.1577 -1.3148
   84MOL0     H11087   3.278   8.500   7.929 -0.7784  0.1182 -1.3143
   84MOL0     H11088   3.029   8.528   7.874 -0.9007  0.2699  3.4290
   85MOL0     O11089   0.263   6.715   7.182  0.6186 -0.5184  0.0357
   85MOL0     C11090   0.157   6.738   7.244  0.3099  0.0612  0.0068
   85MOL0     O11091   0.116   6.698   7.372 -0.5071  0.8148  0.3984
   85MOL0     C11092   0.191   6.610   7.447 -0.7880 -0.1215 -0.1996
   85MOL0     C11093   0.269   6.506   7.388 -0.6656 -0.3618 -0.3402
   85MOL0     C11094   0.345   6.425   7.474 -0.7571  0.3362 -0.3256
   85MOL0     C11095   0.332   6.418   7.611  0.0253 -0.8118  0.4257
   85MOL0     O11096   0.402   6.314   7.670 -0.2484  0.5735 -0.7300
   85MOL0     C11097   0.376   6.281   7.811 -0.7933 -0.0874  0.8549
   85MOL0     C11098   0.472   6.349   7.907  0.2841 -0.5005  0.1123
   85MOL0     C11099   0.624   6.352   7.860  0.5001  0.3447  0.3338
   85MOL0     C11100   0.720   6.430   7.954  0.6217  0.5680  0.8539
   85MOL0     C11101   0.761   6.556   7.881  0.6683  0.2280 -0.9772
   85MOL0     C11102   0.845   6.644   7.975  0.2044 -0.5480  0.5908
   85MOL0     C11103   0.916   6.755   7.903 -0.1531 -0.6722 -0.0722
   85MOL0     C11104   0.895   6.896   7.969  0.6350  1.3266  0.3077
   85MOL0     N11105   0.964   6.999   7.905 -0.4580 -0.4122  0.5641
   85MOL0     C11106   1.101   7.026   7.911 -0.8196 -0.2998  0.6396
   85MOL0     C11107   1.130   7.140   7.841 -0.2334  0.2295 -0.6297
   85MOL0     C11108   1.270   7.185   7.812  0.6040  0.6846 -1.5644
   85MOL0     C11109   1.309   7.150   7.668 -0.4839  0.0765  0.2766
   85MOL0     C11110   1.265   7.005   7.644 -0.3618 -0.1398  0.2758
   85MOL0     C11111   1.328   6.964   7.500  0.6952  1.0167 -0.6275
   85MOL0     O11112   1.465   6.985   7.500  0.2809 -0.2415 -0.9032
   85MOL0     C11113   1.533   6.988   7.385 -0.5592  0.1135 -0.6389
   85MOL0     C11114   1.668   7.030   7.387  0.1133  0.4204  0.7161
   85MOL0     C11115   1.745   7.030   7.267 -0.0979 -1.1182  0.4105
   85MOL0     C11116   1.694   6.993   7.141  0.3081  0.3522 -0.1115
   85MOL0     C11117   1.767   7.007   7.013  0.1089  0.5216 -0.3555
   85MOL0     O11118   1.900   7.049   7.026 -0.1603 -0.2440 -0.2311
   85MOL0     C11119   1.990   7.027   6.930  0.2074  0.5874  0.6004
   85MOL0     C11120   2.101   7.105   6.935 -0.8218  0.8416  0.2673
   85MOL0     C11121   2.207   7.091   6.844 -0.7352 -0.8162  0.1034
   85MOL0     C11122   2.190   6.997   6.739 -0.1955  0.4699 -0.5646
   85MOL0     O11123   2.288   6.961   6.650  0.5546 -0.1073 -0.2822
   85MOL0     C11124   2.397   6.908   6.732 -0.8158  0.6430  0.2030
   85MOL0     C11125   2.489   6.813   6.659  0.3076 -0.9401  0.0588
   85MOL0     C11126   2.400   6.706   6.596  0.3970  0.0212 -0.1144
   85MOL0     C11127   2.467   6.583   6.564  0.9159  0.3743 -0.0776
   85MOL0     C11128   2.373   6.495   6.487  1.1158 -0.2071 -0.5632
   85MOL0     C11129   2.417   6.351   6.472 -0.2140  0.1290 -0.0276
   85MOL0     C11130   2.563   6.348   6.411 -0.7031  0.1337  0.5286
   85MOL0     C11131   2.595   6.205   6.373  0.5377  0.4836  0.2486
   85MOL0    Cl11132   2.527   6.157   6.205 -0.3440  0.2891 -0.3392
   85MOL0     C11133   2.073   6.915   6.738  0.1362  0.9289  0.0624
   85MOL0     C11134   1.972   6.933   6.823  0.5444  0.2159  0.2982
   85MOL0     O11135   1.710   6.980   6.910 -0.0710  0.4685 -0.2294
   85MOL0     C11136   1.560   6.956   7.142  0.2387  0.5244  0.9224
   85MOL0     C11137   1.483   6.951   7.259 -0.8746  0.0847 -0.2387
   85MOL0     N11138   1.008   7.189   7.798 -0.6244  0.4382 -0.1454
   85MOL0     N11139   0.913   7.106   7.833  0.5550  0.0128  0.6207
   85MOL0     C11140   0.245   6.508   7.671 -0.5691  0.4961 -0.6417
   85MOL0     C11141   0.186   6.605   7.595  0.3327 -0.0948 -0.2919
   85MOL0     C11142   0.058   6.815   7.167 -0.4712  0.1217  0.7843
   85MOL0     C11143  -0.076   6.789   7.185 -0.6283 -0.3635 -0.1381
   85MOL0     C11144  -0.175   6.866   7.120  0.0177 -0.1893 -0.5772
   85MOL0     C11145  -0.140   6.962   7.022  1.0590 -0.8561 -0.3318
   85MOL0     O11146  -0.224   7.036   6.945  0.2665  0.0554  0.0083
   85MOL0     C11147  -0.371   6.994   6.924 -0.2510  0.1738  0.8086
   85MOL0     C11148  -0.369   6.886   6.820  0.4308 -0.4255 -0.2439
   85MOL0     C11149  -0.288   6.915   6.701 -1.2029 -0.5337  0.6576
   85MOL0     C11150  -0.354   6.869   6.569  0.4584  0.1473 -1.0092
   85MOL0     C11151  -0.289   6.919   6.453 -0.4205 -0.2858  1.4318
   85MOL0     C11152  -0.253   6.938   6.335  0.2986  0.0659 -0.3870
   85MOL0     C11153  -0.007   6.999   7.011 -0.8674  0.6924  0.4248
   85MOL0     C11154   0.090   6.921   7.083  0.3894 -0.5973 -0.3344
   85MOL0     H11155   0.292   6.496   7.283  3.7717  2.1314  0.1472
   85MOL0     H11156   0.384   6.337   7.424 -2.4654 -0.3944 -0.4471
   85MOL0     H11157   0.396   6.175   7.830 -1.4175 -0.0283  1.8665
   85MOL0     H11158   0.270   6.288   7.836 -0.8689 -1.6762  1.0931
   85MOL0     H11159   0.448   6.299   8.001 -3.7280 -0.2985 -0.6240
   85MOL0     H11160   0.435   6.451   7.918 -0.2267 -0.7456  0.7533
   85MOL0     H11161   0.640   6.395   7.761  0.8081 -0.7351 -0.1019
   85MOL0     H11162   0.661   6.249   7.858  2.3747  0.9713  0.1858
   85MOL0     H11163   0.669   6.453   8.048 -1.4368  1.6006 -0.4361
   85MOL0     H11164   0.799   6.360   7.981  1.2170  0.4664 -1.0002
   85MOL0     H11165   0.669   6.603   7.846 -0.4252  1.2736  2.7800
   85MOL0     H11166   0.828   6.522   7.802  2.1864  0.6662  0.0728
   85MOL0     H11167   0.920   6.583   8.025 -0.9740 -3.1774 -0.6562
   85MOL0     H11168   0.780   6.683   8.054  0.0568  0.7622 -0.1431
   85MOL0     H11169   1.024   6.734   7.899  0.9100  3.7515 -0.1130
   85MOL0     H11170   0.886   6.764   7.798  0.0622 -0.9964 -0.1615
   85MOL0     H11171   0.929   6.869   8.070  0.6881 -4.7747 -0.9160
   85MOL0     H11172   0.787   6.908   7.971  0.3556 -0.6814 -0.0447
   85MOL0     H11173   1.187   6.980   7.958  1.1790  2.4273 -0.1052
   85MOL0     H11174   1.333   7.133   7.885 -0.7854  5.1234  3.4362
   85MOL0     H11175   1.285   7.292   7.832  1.8080  1.2367 -4.8100
   85MOL0     H11176   1.414   7.166   7.646 -0.8216  1.6230 -0.3417
   85MOL0     H11177   1.260   7.220   7.599 -0.5417  0.1546  0.3947
   85MOL0     H11178   1.305   6.938   7.720 -4.0005 -4.7690 -1.4438
   85MOL0     H11179   1.156   7.007   7.637 -0.6496 -0.1647  3.2746
   85MOL0     H11180   1.286   7.024   7.418  2.4399  1.6192 -1.1533
   85MOL0     H11181   1.310   6.858   7.479 -0.3591  1.5389 -2.5976
   85MOL0     H11182   1.718   7.049   7.482 -0.2346  0.9683  0.7946
   85MOL0     H11183   1.847   7.068   7.263 -0.2969 -0.6858 -1.3853
   85MOL0     H11184   2.115   7.173   7.018  1.6326 -2.5358  2.9048
   85MOL0     H11185   2.290   7.161   6.844 -0.8661 -0.6626 -0.2264
   85MOL0     H11186   2.342   6.852   6.807 -0.7879 -2.1075 -1.6810
   85MOL0     H11187   2.445   6.992   6.783  0.7061  0.2860 -0.5903
   85MOL0     H11188   2.553   6.772   6.738  1.4443 -0.0817 -0.3906
   85MOL0     H11189   2.553   6.878   6.598 -1.9110  1.2326 -0.1223
   85MOL0     H11190   2.352   6.742   6.505 -3.9869 -1.0067  1.5452
   85MOL0     H11191   2.323   6.685   6.671  1.3159  3.0408  1.8517
   85MOL0     H11192   2.558   6.611   6.511 -0.0745  3.1198 -0.4885
   85MOL0     H11193   2.496   6.542   6.661 -0.6597 -0.4194  0.0926
   85MOL0     H11194   2.350   6.542   6.391  0.1841  1.2812  0.3395
   85MOL0     H11195   2.274   6.491   6.535  0.3736 -0.4428 -2.0538
   85MOL0     H11196   2.348   6.290   6.413  0.6976 -1.1111  0.1508
   85MOL0     H11197   2.428   6.305   6.570  6.3988 -1.4884 -1.0727
   85MOL0     H11198   2.581   6.415   6.326 -1.5914 -0.6254 -0.2754
   85MOL0     H11199   2.634   6.379   6.488  0.4757 -0.5413 -0.2353
   85MOL0     H11200   2.535   6.153   6.448 -0.5831  0.8757 -0.3582
   85MOL0     H11201   2.702   6.181   6.373  0.6994  1.0187 -1.8348
   85MOL0     H11202   2.066   6.846   6.654 -1.0345 -0.0125  0.9046
   85MOL0     H11203   1.885   6.872   6.800  0.2480  1.2881 -1.6682
   85MOL0     H11204   1.513   6.933   7.047  0.0278  0.7209  0.9788
   85MOL0     H11205   1.382   6.916   7.242 -1.0800 -1.2589  3.0804
   85MOL0     H11206   0.218   6.509   7.776  0.7413 -2.1468 -0.1670
   85MOL0     H11207   0.117   6.671   7.646  0.5098 -1.2732  1.5579
   85MOL0     H11208  -0.113   6.714   7.254  0.3594 -2.4777 -1.7750
   85MOL0     H11209  -0.279   6.851   7.145  0.1559  0.9238  0.8138
   85MOL0     H11210  -0.425   7.081   6.886 -1.1616 -0.6118  0.2803
   85MOL0     H11211  -0.418   6.961   7.017  0.1677  3.2945  2.2847
   85MOL0     H11212  -0.320   6.804   6.873 -0.8053 -0.5327  0.7920
   85MOL0     H11213  -0.473   6.864   6.796  0.4665  0.2265 -1.0281
   85MOL0     H11214  -0.183   6.887   6.710 -0.0404  3.4226  1.4011
   85MOL0     H11215  -0.264   7.021   6.692  3.7105 -1.3448  1.6862
   85MOL0     H11216  -0.361   6.760   6.564 -1.1852  0.2886 -2.7962
   85MOL0     H11217  -0.453   6.916   6.571  1.1900  1.9932 -3.2611
   85MOL0     H11218  -0.205   6.949   6.240  2.1488  0.8919  0.5935
   85MOL0     H11219   0.029   7.078   6.947 -1.5170 -0.3827 -1.3438
   85MOL0     H11220   0.196   6.941   7.076  0.3512 -0.6322 -1.0196
   86MOL0     O11221   2.219   0.436   6.058  0.4981  0.9592 -0.5400
   86MOL0     C11222   2.275   0.330   6.024  0.5193 -0.1726  0.6588
   86MOL0     O11223   2.208   0.218   5.974  0.1527  0.5806  0.7534
   86MOL0     C11224   2.070   0.236   5.949 -0.0662 -0.0079 -0.6233
   86MOL0     C11225   2.019   0.219   5.818 -0.7981  0.6657 -0.7554
   86MOL0     C11226   1.889   0.195   5.787 -0.1269  0.5733 -1.1820
   86MOL0     C11227   1.798   0.192   5.894 -0.9074 -0.3563 -0.4807
   86MOL0     O11228   1.667   0.196   5.888  0.5988  0.7994  0.0125
   86MOL0     C11229   1.602   0.304   5.822 -0.4750  0.5958 -0.3120
   86MOL0     C11230   1.446   0.285   5.835 -0.5680  0.6851  0.0807
   86MOL0     C11231   1.372   0.415   5.814  0.1018 -0.1471  0.4815
   86MOL0     C11232   1.230   0.407   5.812 -0.0582 -0.4355  0.1414
   86MOL0     C11233   1.188   0.391   5.964 -0.1916 -0.9270 -1.0831
   86MOL0     C11234   1.038   0.385   5.978 -0.6295  0.2610 -0.4816
   86MOL0     C11235   1.000   0.338   6.124 -0.2936 -0.1880  0.8177
   86MOL0     C11236   0.995   0.452   6.226 -0.3317 -0.0470 -0.1386
   86MOL0     N11237   0.956   0.405   6.359  0.6409  0.3972  0.1415
   86MOL0     C11238   0.843   0.451   6.419 -0.0792  0.1139  0.9819
   86MOL0     C11239   0.838   0.399   6.543 -0.2775  0.6607  0.2134
   86MOL0     C11240   0.742   0.421   6.654  0.8482 -0.1300 -0.6043
   86MOL0     C11241   0.706   0.572   6.676  0.4605 -0.4409 -0.9909
   86MOL0     C11242   0.814   0.662   6.735  0.2605 -0.1011  0.1748
   86MOL0     C11243   0.791   0.811   6.723 -0.2561 -0.5463 -0.2532
   86MOL0     O11244   0.677   0.866   6.800 -0.3595  0.7498 -0.1384
   86MOL0     C11245   0.687   0.878   6.938 -0.1825 -0.5900  0.5701
   86MOL0     C11246   0.795   0.844   7.021 -0.5382 -0.3257  0.2872
   86MOL0     C11247   0.785   0.859   7.159 -1.1835 -1.0514  0.3623
   86MOL0     C11248   0.676   0.917   7.221 -0.3649  0.6035 -0.7338
   86MOL0     C11249   0.674   0.933   7.377  0.2054 -0.8737  0.7016
   86MOL0     O11250   0.766   0.869   7.448 -0.6424  0.4726 -0.9537
   86MOL0     C11251   0.795   0.904   7.575 -0.6912 -0.3789 -0.3161
   86MOL0     C11252   0.799   1.029   7.644 -0.0857 -0.8823 -0.0002
   86MOL0     C11253   0.854   1.053   7.768 -0.5553  0.2047 -0.2082
   86MOL0     C11254   0.892   0.946   7.848  0.5325 -0.0077  0.2583
   86MOL0     O11255   0.932   0.967   7.973  0.0943  0.4841 -0.0101
   86MOL0     C11256   1.066   0.921   8.005  0.5118 -0.3723 -0.6570
   86MOL0     C11257   1.076   0.907   8.157  0.0233  0.0300 -1.1209
   86MOL0     C11258   1.072   1.042   8.224  0.9960 -0.4972  0.1433
   86MOL0     C11259   1.091   1.025   8.365  1.0434  0.1991  0.1185
   86MOL0     C11260   0.998   1.110   8.459  0.0732 -0.5021  0.4248
   86MOL0     C11261   1.087   1.193   8.559 -0.6120  0.6880 -0.0209
   86MOL0     C11262   1.006   1.274   8.660  0.1948 -0.1832 -0.1912
   86MOL0     C11263   1.098   1.328   8.765  0.1139  0.0292  0.2059
   86MOL0    Cl11264   1.017   1.466   8.828 -0.0645  0.0124  0.3296
   86MOL0     C11265   0.884   0.822   7.793 -0.3981  0.1937 -0.0226
   86MOL0     C11266   0.841   0.800   7.657  0.8079  0.3861 -0.2185
   86MOL0     O11267   0.579   1.000   7.421 -0.0058  0.3659 -0.2093
   86MOL0     C11268   0.569   0.962   7.136  0.2805 -0.0156 -0.4841
   86MOL0     C11269   0.584   0.947   6.995 -0.1787  0.1329 -0.0869
   86MOL0     N11270   0.953   0.331   6.559 -0.0954  0.3944 -0.1222
   86MOL0     N11271   1.033   0.349   6.453  0.7455  0.1040  1.0745
   86MOL0     C11272   1.842   0.217   6.026  0.3946  0.5273 -1.1694
   86MOL0     C11273   1.977   0.225   6.055 -0.2140 -0.7645  1.1884
   86MOL0     C11274   2.423   0.320   6.036 -0.9971 -0.1984  0.8004
   86MOL0     C11275   2.490   0.208   5.985  0.1122  0.3347  0.4381
   86MOL0     C11276   2.625   0.184   5.993 -0.6076 -0.0544 -1.7030
   86MOL0     C11277   2.702   0.284   6.044  1.3592 -0.1604 -0.6659
   86MOL0     O11278   2.840   0.281   6.063  0.6558 -0.1021 -0.3085
   86MOL0     C11279   2.919   0.167   6.018  0.1557  0.7286 -0.7187
   86MOL0     C11280   2.983   0.172   5.884 -0.1947  0.6139  0.1078
   86MOL0     C11281   3.092   0.287   5.874  1.1044  0.2048  0.0020
   86MOL0     C11282   3.116   0.324   5.725  0.1719 -0.5035  0.2256
   86MOL0     C11283   3.097   0.218   5.628 -0.0918 -0.0719  0.8666
   86MOL0     C11284   3.095   0.138   5.543 -0.3073  0.2835 -0.3170
   86MOL0     C11285   2.636   0.404   6.097 -0.7519  0.4272 -0.3837
   86MOL0     C11286   2.500   0.419   6.095 -0.1262 -1.0134  0.7096
   86MOL0     H11287   2.089   0.228   5.736  1.1075  0.6031  0.7718
   86MOL0     H11288   1.852   0.190   5.685 -1.5842  1.6203 -0.7490
   86MOL0     H11289   1.621   0.289   5.716 -1.9977  1.1529 -0.6897
   86MOL0     H11290   1.643   0.401   5.852 -0.3428  0.8604 -1.3148
   86MOL0     H11291   1.432   0.253   5.939  1.0262  1.0039  0.4187
   86MOL0     H11292   1.411   0.210   5.764  1.5398 -1.9917  1.6948
   86MOL0     H11293   1.394   0.430   5.708 -1.1114  2.0928  0.4923
   86MOL0     H11294   1.407   0.498   5.875 -0.8345  1.1980 -0.7581
   86MOL0     H11295   1.171   0.492   5.776 -2.7295 -3.3428 -3.0032
   86MOL0     H11296   1.205   0.324   5.745  0.1993 -0.2250 -0.2161
   86MOL0     H11297   1.210   0.482   6.021 -1.5625 -0.5183 -1.1719
   86MOL0     H11298   1.233   0.303   6.012 -1.7433 -0.2539  1.8600
   86MOL0     H11299   0.999   0.307   5.912 -0.2429  0.5094 -1.0132
   86MOL0     H11300   0.996   0.481   5.946  0.0078 -0.2642 -3.1423
   86MOL0     H11301   0.902   0.294   6.104 -0.6225  1.9449 -3.3074
   86MOL0     H11302   1.050   0.255   6.174  0.3766  0.7830  1.8025
   86MOL0     H11303   0.920   0.529   6.204 -2.9162 -2.2897  0.1266
   86MOL0     H11304   1.094   0.496   6.236 -0.3955 -0.3587  2.4518
   86MOL0     H11305   0.764   0.519   6.390 -0.0198  2.0169  4.6593
   86MOL0     H11306   0.783   0.380   6.747  0.3191  0.6533 -0.0108
   86MOL0     H11307   0.647   0.374   6.631 -0.0819  1.6921 -0.6988
   86MOL0     H11308   0.632   0.581   6.757  1.7898 -0.4806  0.2576
   86MOL0     H11309   0.652   0.601   6.586 -0.4894  0.3594 -0.1968
   86MOL0     H11310   0.819   0.634   6.841 -1.5345  0.5631  0.4850
   86MOL0     H11311   0.904   0.649   6.675  0.8210  2.3297  0.4028
   86MOL0     H11312   0.769   0.838   6.619 -3.0386 -1.1084  0.0965
   86MOL0     H11313   0.881   0.859   6.762 -0.6406  1.2365 -1.4191
   86MOL0     H11314   0.879   0.787   6.983 -1.3296 -1.8244  0.7171
   86MOL0     H11315   0.872   0.831   7.218 -0.6316  2.7156  1.5752
   86MOL0     H11316   0.766   1.112   7.583  2.7835 -0.6377 -1.3662
   86MOL0     H11317   0.859   1.151   7.814  2.0015  0.3750 -0.6669
   86MOL0     H11318   1.136   0.999   7.973 -0.7889  2.1518  2.1832
   86MOL0     H11319   1.085   0.828   7.951 -3.1871 -0.0394 -2.8662
   86MOL0     H11320   1.174   0.865   8.176  0.7312  1.3079 -1.7746
   86MOL0     H11321   0.992   0.849   8.196  0.7248  0.3544  0.9759
   86MOL0     H11322   0.977   1.094   8.207  0.8014  0.0488  2.5547
   86MOL0     H11323   1.158   1.092   8.178  1.2459 -3.3110 -2.7606
   86MOL0     H11324   1.076   0.924   8.404 -2.3166  0.7232  0.5023
   86MOL0     H11325   1.199   1.035   8.382  1.4216 -2.1600 -0.5760
   86MOL0     H11326   0.928   1.049   8.517 -0.7628 -1.4146 -1.4549
   86MOL0     H11327   0.942   1.187   8.403 -0.6637  0.4096  2.3231
   86MOL0     H11328   1.153   1.269   8.516  1.2499 -0.5014  0.6164
   86MOL0     H11329   1.154   1.122   8.609 -1.6811  0.0358  0.5091
   86MOL0     H11330   0.960   1.364   8.617 -0.7719  0.4764  2.0345
   86MOL0     H11331   0.926   1.220   8.710  0.2037  0.9480  1.1125
   86MOL0     H11332   1.190   1.360   8.715 -1.5440  0.2022 -2.9683
   86MOL0     H11333   1.123   1.257   8.845 -0.1057  0.1662  0.3977
   86MOL0     H11334   0.906   0.741   7.862  0.9395 -1.5309 -2.3186
   86MOL0     H11335   0.830   0.697   7.626 -1.6424  0.7770 -0.8602
   86MOL0     H11336   0.483   1.015   7.173  0.3760 -0.4319  0.3497
   86MOL0     H11337   0.511   0.981   6.921 -2.3169  2.7846  2.9321
   86MOL0     H11338   1.771   0.205   6.107  1.1436  0.3340 -0.5306
   86MOL0     H11339   2.000   0.260   6.156  0.6986 -1.2479  1.1601
   86MOL0     H11340   2.427   0.137   5.932 -0.8661  0.3924  1.4715
   86MOL0     H11341   2.667   0.096   5.947 -0.7887 -1.4083  0.5618
   86MOL0     H11342   2.846   0.087   6.034 -1.0567  2.1978  1.7833
   86MOL0     H11343   2.994   0.154   6.097 -1.0476  2.1698  0.7363
   86MOL0     H11344   3.031   0.075   5.874 -0.3871  0.5344 -0.0300
   86MOL0     H11345   2.902   0.198   5.816 -0.7002  2.4826  1.3386
   86MOL0     H11346   3.178   0.250   5.930 -0.1228 -0.2637  1.6446
   86MOL0     H11347   3.049   0.376   5.920  0.1254 -0.4085  0.2999
   86MOL0     H11348   3.054   0.409   5.694 -2.3740 -1.5832  2.1119
   86MOL0     H11349   3.222   0.344   5.705 -0.2282 -0.5195 -2.2845
   86MOL0     H11350   3.097   0.057   5.473 -0.8023 -0.4907  0.5557
   86MOL0     H11351   2.697   0.489   6.126 -1.9358  1.6101 -1.2345
   86MOL0     H11352   2.451   0.511   6.126 -3.2268 -2.6369  1.0468
   87MOL0     O11353   6.163   3.141   2.631  0.6840  0.4782 -0.0664
   87MOL0     C11354   6.197   3.029   2.611 -0.0234 -0.0809 -0.7979
   87MOL0     O11355   6.322   2.984   2.622  0.8144  0.1683  0.1789
   87MOL0     C11356   6.415   3.057   2.688 -0.4079  0.5817 -0.3119
   87MOL0     C11357   6.499   2.983   2.776 -0.3572 -0.2711 -0.3967
   87MOL0     C11358   6.618   3.047   2.821 -0.7055  0.3233 -0.6631
   87MOL0     C11359   6.651   3.176   2.778 -0.4167  0.5595  0.1557
   87MOL0     O11360   6.781   3.216   2.795 -0.0653 -0.9403  0.1882
   87MOL0     C11361   6.799   3.357   2.839 -0.2062 -0.2772 -0.1554
   87MOL0     C11362   6.943   3.371   2.887  0.4384 -0.7830 -1.0441
   87MOL0     C11363   7.053   3.403   2.780  0.1679  0.1125 -0.8358
   87MOL0     C11364   7.177   3.412   2.859 -0.3701 -0.4197  0.5880
   87MOL0     C11365   7.296   3.423   2.776 -0.8924 -0.6991 -0.5655
   87MOL0     C11366   7.413   3.452   2.873  0.7152  0.8594 -0.1812
   87MOL0     C11367   7.532   3.458   2.782  0.3160 -0.0221  0.1548
   87MOL0     C11368   7.544   3.597   2.710  0.5343  0.1974  0.6433
   87MOL0     N11369   7.641   3.686   2.784  0.5777  1.1321 -0.3164
   87MOL0     C11370   7.773   3.684   2.759 -0.4799  0.3940  0.2160
   87MOL0     C11371   7.843   3.734   2.863  1.4888 -0.2259 -0.0435
   87MOL0     C11372   7.993   3.770   2.859  0.4536  0.0938 -0.2373
   87MOL0     C11373   8.019   3.888   2.759 -0.9316  0.1443  0.5348
   87MOL0     C11374   8.166   3.935   2.798  0.5645  0.0735  0.4265
   87MOL0     C11375   8.260   3.977   2.680 -0.4638 -0.0565 -0.4067
   87MOL0     O11376   8.376   4.036   2.742  0.4019  0.7823  0.2271
   87MOL0     C11377   8.485   4.078   2.668 -0.4547  0.5755  0.4022
   87MOL0     C11378   8.522   4.001   2.561 -0.4523  0.2438 -0.1356
   87MOL0     C11379   8.617   4.051   2.472  0.5255  0.2357 -0.2613
   87MOL0     C11380   8.671   4.183   2.484  0.1357 -0.5875 -0.2234
   87MOL0     C11381   8.735   4.249   2.376 -0.2867  0.5767  0.0263
   87MOL0     O11382   8.724   4.183   2.248  0.3801 -0.2532 -0.5573
   87MOL0     C11383   8.773   4.252   2.137  0.4104  0.2822 -0.9073
   87MOL0     C11384   8.911   4.303   2.127  0.1261  0.4508  0.4494
   87MOL0     C11385   8.958   4.360   2.008  0.0486 -0.3111  0.6911
   87MOL0     C11386   8.882   4.346   1.895 -0.6065 -0.5079  0.0692
   87MOL0     O11387   8.921   4.394   1.768  0.3405  0.0797  0.1673
   87MOL0     C11388   8.947   4.533   1.757 -0.5493 -0.3164 -0.5190
   87MOL0     C11389   8.883   4.575   1.620 -0.4617 -0.1474  0.1303
   87MOL0     C11390   8.965   4.520   1.498  0.0361  0.0801  0.0379
   87MOL0     C11391   8.892   4.559   1.373  0.1103  0.7787  0.4901
   87MOL0     C11392   8.964   4.502   1.255  0.3841  0.8340 -0.5261
   87MOL0     C11393   9.099   4.566   1.234 -0.8766  0.2031  0.1296
   87MOL0     C11394   9.144   4.544   1.086 -0.0028 -0.4789  0.5543
   87MOL0     C11395   9.087   4.637   0.971  0.7462 -0.4742 -0.5787
   87MOL0    Cl11396   9.174   4.601   0.817 -0.4054  0.1453  0.3375
   87MOL0     C11397   8.748   4.301   1.907  0.1919  0.5915 -0.3813
   87MOL0     C11398   8.695   4.249   2.020  0.1078  0.3851 -0.0982
   87MOL0     O11399   8.796   4.357   2.398  0.2915  0.7275 -0.0485
   87MOL0     C11400   8.634   4.263   2.598 -0.7468  0.0333  0.1040
   87MOL0     C11401   8.550   4.203   2.689  0.1053  0.3302 -0.2186
   87MOL0     N11402   7.752   3.756   2.969  0.7749 -0.5189 -0.3698
   87MOL0     N11403   7.631   3.727   2.921 -0.0999  0.8116  0.4944
   87MOL0     C11404   6.557   3.252   2.717 -0.6048 -0.0067 -0.0411
   87MOL0     C11405   6.442   3.194   2.663  0.7803  0.4232 -0.1218
   87MOL0     C11406   6.085   2.931   2.588 -0.5652 -0.1116  0.3023
   87MOL0     C11407   5.962   2.981   2.555  0.1678 -0.0593  0.4320
   87MOL0     C11408   5.851   2.895   2.548  0.5046 -0.1624 -0.0970
   87MOL0     C11409   5.851   2.755   2.583  0.3953  0.2153 -0.0291
   87MOL0     O11410   5.727   2.694   2.581 -0.2959 -0.0837  0.5335
   87MOL0     C11411   5.716   2.554   2.633 -0.2305  0.6257  0.1206
   87MOL0     C11412   5.577   2.493   2.627  0.6709  0.8804 -0.1658
   87MOL0     C11413   5.509   2.493   2.500 -0.3855 -0.2034  1.0852
   87MOL0     C11414   5.556   2.376   2.410 -0.7703  0.4664  0.2773
   87MOL0     C11415   5.682   2.419   2.334  0.2416 -0.7080  0.0443
   87MOL0     C11416   5.775   2.437   2.264  0.3384  0.2318 -1.1680
   87MOL0     C11417   5.980   2.709   2.620  0.7098  0.0609  0.4364
   87MOL0     C11418   6.095   2.789   2.619 -0.1122 -0.1736 -0.4390
   87MOL0     H11419   6.484   2.877   2.795 -3.1374  0.6083  3.4354
   87MOL0     H11420   6.688   2.982   2.874 -1.9771  0.2220  0.9869
   87MOL0     H11421   6.721   3.369   2.914 -2.1280  1.9583 -2.3290
   87MOL0     H11422   6.776   3.430   2.761  0.5278  2.3402  1.9359
   87MOL0     H11423   6.969   3.281   2.942 -0.3375  1.9487  4.4334
   87MOL0     H11424   6.933   3.455   2.956  0.1256  0.4605 -2.5239
   87MOL0     H11425   7.044   3.501   2.733  2.5944  0.9653  0.2907
   87MOL0     H11426   7.056   3.324   2.704 -1.5687 -1.2026  0.3879
   87MOL0     H11427   7.175   3.496   2.928  1.1331  1.1372 -1.1584
   87MOL0     H11428   7.193   3.316   2.910  2.8970  0.6024  1.7190
   87MOL0     H11429   7.282   3.503   2.702  1.0741 -2.1405 -2.6349
   87MOL0     H11430   7.316   3.325   2.733  1.0856 -0.0499 -1.2651
   87MOL0     H11431   7.427   3.367   2.940  0.9647 -1.1168 -2.5965
   87MOL0     H11432   7.405   3.537   2.941  0.2475  2.4855 -2.1404
   87MOL0     H11433   7.620   3.453   2.847  0.0703 -1.1495  0.4304
   87MOL0     H11434   7.537   3.372   2.715  1.8262  0.4180 -0.3327
   87MOL0     H11435   7.446   3.643   2.693  1.2756  0.8641 -2.5650
   87MOL0     H11436   7.587   3.576   2.611 -0.8756  1.2588 -0.2387
   87MOL0     H11437   7.817   3.650   2.666 -2.5087  0.4211 -0.8060
   87MOL0     H11438   8.054   3.681   2.839  1.1918  0.0257  2.0052
   87MOL0     H11439   8.016   3.808   2.959 -2.6467 -0.4411  0.8094
   87MOL0     H11440   7.953   3.972   2.780  0.9272  2.2871 -1.6337
   87MOL0     H11441   8.000   3.856   2.656 -0.6393  1.8386 -0.0731
   87MOL0     H11442   8.153   4.006   2.880  1.6358 -0.0872  0.7481
   87MOL0     H11443   8.228   3.854   2.838  1.7625  0.6121 -0.2657
   87MOL0     H11444   8.214   4.055   2.618  1.4175  1.4866  0.0382
   87MOL0     H11445   8.282   3.888   2.620 -2.0282 -0.1827 -0.8343
   87MOL0     H11446   8.487   3.899   2.554 -1.7320  0.6755 -0.2007
   87MOL0     H11447   8.640   3.987   2.387 -0.1015 -1.5095  0.8170
   87MOL0     H11448   8.979   4.299   2.212 -0.0830 -1.6700  0.5747
   87MOL0     H11449   9.055   4.409   2.007  0.0566 -0.3318 -0.4151
   87MOL0     H11450   9.053   4.559   1.758  0.0616 -2.5183  1.4823
   87MOL0     H11451   8.892   4.581   1.838  0.7115 -1.2913  0.9842
   87MOL0     H11452   8.879   4.684   1.615  1.9534  0.0540  1.3988
   87MOL0     H11453   8.789   4.519   1.614  0.0268 -0.8845 -1.3387
   87MOL0     H11454   8.985   4.412   1.499  0.3694  0.1259 -0.7025
   87MOL0     H11455   9.062   4.571   1.507  0.4942 -0.5002 -1.3072
   87MOL0     H11456   8.791   4.517   1.374 -0.1598  1.3739  2.7496
   87MOL0     H11457   8.884   4.667   1.361 -0.7148  0.5663 -1.1804
   87MOL0     H11458   8.892   4.523   1.175 -0.6362  1.2923  0.5032
   87MOL0     H11459   8.963   4.393   1.263  0.4092  0.8993  0.4758
   87MOL0     H11460   9.173   4.515   1.297  0.7164  0.9666 -1.0413
   87MOL0     H11461   9.101   4.672   1.260 -1.2789  0.2836 -0.1541
   87MOL0     H11462   9.252   4.562   1.080 -0.4168  2.5159  0.5104
   87MOL0     H11463   9.119   4.442   1.055 -4.6251  0.6333 -0.1774
   87MOL0     H11464   9.106   4.738   1.008  1.1966 -2.1522  4.3822
   87MOL0     H11465   8.982   4.613   0.949  0.7004 -2.8877  1.7760
   87MOL0     H11466   8.691   4.280   1.817 -3.1489 -2.6978  2.2030
   87MOL0     H11467   8.591   4.221   2.016  0.3990 -0.8570  0.4381
   87MOL0     H11468   8.678   4.360   2.618 -1.0050  0.6328 -2.0473
   87MOL0     H11469   8.506   4.262   2.768  1.6238  0.5620  0.4853
   87MOL0     H11470   6.576   3.353   2.681 -1.3113 -0.5181 -1.9761
   87MOL0     H11471   6.382   3.246   2.590  1.6442  4.9388  2.0648
   87MOL0     H11472   5.942   3.088   2.544 -2.3342 -0.5773 -0.9336
   87MOL0     H11473   5.765   2.947   2.507 -0.7687 -2.9425 -1.2025
   87MOL0     H11474   5.751   2.547   2.737  4.6340 -0.5903 -1.3373
   87MOL0     H11475   5.781   2.497   2.566  1.1399  3.8568 -1.5111
   87MOL0     H11476   5.577   2.389   2.662  1.9541  0.7427 -0.5080
   87MOL0     H11477   5.517   2.551   2.698 -1.5025  0.5627 -1.6661
   87MOL0     H11478   5.506   2.593   2.456 -0.3296  0.1046  1.7705
   87MOL0     H11479   5.401   2.476   2.510 -0.2422 -1.1883  0.9976
   87MOL0     H11480   5.575   2.288   2.473  0.5458  1.3202  1.1400
   87MOL0     H11481   5.480   2.355   2.334 -0.1177 -2.8595  0.4119
   87MOL0     H11482   5.868   2.450   2.212 -0.2508  0.7531 -2.1192
   87MOL0     H11483   5.993   2.603   2.639  3.3114  0.2807  0.2704
   87MOL0     H11484   6.184   2.745   2.662 -0.8702 -3.2719 -1.7555
   88MOL0     O11485   0.680   6.389   4.933 -0.3055 -0.0230 -0.5192
   88MOL0     C11486   0.635   6.487   4.889  0.1574 -0.2754  0.0904
   88MOL0     O11487   0.577   6.496   4.771 -0.8606  0.3725  0.0802
   88MOL0     C11488   0.545   6.385   4.700 -0.1408 -0.4234 -0.6904
   88MOL0     C11489   0.410   6.352   4.677 -0.0881  0.2494  0.0553
   88MOL0     C11490   0.373   6.235   4.603 -0.7535 -0.2023 -0.5038
   88MOL0     C11491   0.469   6.150   4.551 -0.1959  1.1404  0.1466
   88MOL0     O11492   0.443   6.046   4.478  0.7834  0.3934 -0.6003
   88MOL0     C11493   0.382   6.080   4.357  0.5111 -0.1668  0.7361
   88MOL0     C11494   0.366   5.956   4.259 -0.1367 -0.6683 -0.3480
   88MOL0     C11495   0.310   5.841   4.346  0.9737 -0.6328 -0.3672
   88MOL0     C11496   0.167   5.873   4.421 -0.2721 -0.3144  0.5814
   88MOL0     C11497   0.111   5.755   4.500  0.3026  0.1512  0.5090
   88MOL0     C11498  -0.019   5.784   4.586  0.0949 -0.5522 -0.7747
   88MOL0     C11499   0.005   5.899   4.688  0.2227  0.0827 -0.4190
   88MOL0     C11500  -0.032   6.052   4.661 -0.1833  0.4760  0.2328
   88MOL0     N11501   0.024   6.142   4.772  0.3681  0.6816  0.0037
   88MOL0     C11502  -0.025   6.266   4.776  0.1571  0.3079  0.0667
   88MOL0     C11503   0.021   6.322   4.890  1.3860 -0.2297  0.0969
   88MOL0     C11504  -0.009   6.459   4.948  0.3752 -0.2881  0.7045
   88MOL0     C11505  -0.150   6.524   4.920  0.5759 -0.6506 -0.4126
   88MOL0     C11506  -0.154   6.665   4.856 -0.3704 -0.0217 -0.0167
   88MOL0     C11507  -0.269   6.688   4.761 -0.2789  0.5137  0.6894
   88MOL0     O11508  -0.254   6.801   4.676 -0.5682 -1.2440  0.6607
   88MOL0     C11509  -0.367   6.855   4.616  1.2673 -0.2624 -0.0250
   88MOL0     C11510  -0.343   6.978   4.558  0.3324 -0.4528  0.5403
   88MOL0     C11511  -0.446   7.062   4.511  0.6292  0.4822  0.2677
   88MOL0     C11512  -0.584   7.017   4.513 -0.8120  0.2805  0.4023
   88MOL0     C11513  -0.697   7.108   4.475 -1.3562  0.4752 -0.5071
   88MOL0     O11514  -0.795   7.059   4.397  0.7973  0.5545 -0.4256
   88MOL0     C11515  -0.895   7.145   4.366 -0.0284  0.6682  0.3399
   88MOL0     C11516  -0.875   7.250   4.280  0.3596 -0.4311 -0.3179
   88MOL0     C11517  -0.980   7.325   4.227 -0.0053 -0.8900 -0.7230
   88MOL0     C11518  -1.110   7.304   4.262  0.0591 -0.6017  0.4867
   88MOL0     O11519  -1.217   7.376   4.212 -0.3053  0.3117 -0.1313
   88MOL0     C11520  -1.291   7.450   4.302  0.2254  0.2358  0.1439
   88MOL0     C11521  -1.391   7.556   4.247  0.1426  0.0842 -0.1080
   88MOL0     C11522  -1.320   7.684   4.196  0.6374  0.2849 -0.1056
   88MOL0     C11523  -1.272   7.764   4.318 -0.0677  0.2511  0.7619
   88MOL0     C11524  -1.211   7.904   4.286  0.3860  0.3770 -0.0145
   88MOL0     C11525  -1.106   7.907   4.180 -0.1757  1.0814 -0.2661
   88MOL0     C11526  -1.048   8.039   4.151  0.4577 -1.1176  0.4905
   88MOL0     C11527  -0.922   8.028   4.068  0.6106 -0.1518 -0.0935
   88MOL0    Cl11528  -0.778   7.975   4.161 -0.0029 -0.6607  0.2902
   88MOL0     C11529  -1.141   7.206   4.350 -0.5366  0.0636  0.1056
   88MOL0     C11530  -1.039   7.127   4.393  0.6094 -0.5989 -0.8057
   88MOL0     O11531  -0.679   7.229   4.495 -0.3443 -0.5545 -0.5342
   88MOL0     C11532  -0.607   6.885   4.560  0.8551  1.1760 -0.3220
   88MOL0     C11533  -0.499   6.811   4.621 -0.4690 -1.1369 -0.4906
   88MOL0     N11534   0.113   6.235   4.939  0.1876 -0.1297 -0.0235
   88MOL0     N11535   0.104   6.117   4.878 -0.9399 -1.0430 -0.5107
   88MOL0     C11536   0.603   6.184   4.568  0.4689 -0.7249  0.1549
   88MOL0     C11537   0.639   6.300   4.650 -0.1348  0.3515  0.4536
   88MOL0     C11538   0.650   6.614   4.967 -0.6444 -0.3984 -0.4221
   88MOL0     C11539   0.683   6.601   5.105  0.7631 -0.0319 -0.7477
   88MOL0     C11540   0.695   6.716   5.189 -0.1632 -0.7641  0.1884
   88MOL0     C11541   0.658   6.844   5.142  0.3718 -0.6207  0.0135
   88MOL0     O11542   0.667   6.961   5.215 -0.8102  0.4182 -0.0885
   88MOL0     C11543   0.602   6.951   5.339  0.5955 -0.0419  0.1746
   88MOL0     C11544   0.522   7.091   5.372 -1.0995 -0.6531  0.3674
   88MOL0     C11545   0.630   7.191   5.410 -0.8242  0.0401 -0.7936
   88MOL0     C11546   0.583   7.343   5.405 -0.2221 -0.5087  0.2595
   88MOL0     C11547   0.496   7.367   5.518  0.2860 -0.2220 -0.1679
   88MOL0     C11548   0.410   7.378   5.603 -0.1275 -0.5479 -0.1365
   88MOL0     C11549   0.607   6.854   5.005 -0.0675 -0.1335  0.1558
   88MOL0     C11550   0.620   6.739   4.919  0.6165 -0.4587 -0.5440
   88MOL0     H11551   0.330   6.411   4.722 -1.1556 -0.7908 -0.4210
   88MOL0     H11552   0.269   6.212   4.587 -1.2957  2.2198 -0.9332
   88MOL0     H11553   0.435   6.160   4.304 -2.7204  0.8290 -1.3143
   88MOL0     H11554   0.280   6.118   4.367 -0.4790 -2.0999 -1.3372
   88MOL0     H11555   0.466   5.937   4.220  0.4314 -0.4567  0.9575
   88MOL0     H11556   0.292   5.981   4.182 -1.4555 -1.4559  0.6179
   88MOL0     H11557   0.393   5.807   4.407  1.3948 -3.4503 -2.2910
   88MOL0     H11558   0.294   5.763   4.270  3.1750  0.5950 -2.2085
   88MOL0     H11559   0.185   5.949   4.497  0.7282  0.9054 -0.7963
   88MOL0     H11560   0.092   5.902   4.347  0.4577 -0.0950 -0.0892
   88MOL0     H11561   0.189   5.732   4.573  1.2061  0.3064 -0.3927
   88MOL0     H11562   0.094   5.673   4.429  0.8221  2.7748 -2.8647
   88MOL0     H11563  -0.045   5.693   4.641  4.1510 -1.1209  0.5049
   88MOL0     H11564  -0.100   5.812   4.517  0.3349  2.3421 -0.0184
   88MOL0     H11565  -0.063   5.882   4.772 -0.3505  3.0426 -0.1734
   88MOL0     H11566   0.108   5.892   4.723  0.9397  4.5691 -1.0141
   88MOL0     H11567  -0.140   6.065   4.667 -0.6125 -2.6474  0.5213
   88MOL0     H11568  -0.004   6.084   4.560 -1.7571  1.0491 -0.0377
   88MOL0     H11569  -0.105   6.308   4.717  1.4512  0.8724 -1.3463
   88MOL0     H11570   0.066   6.518   4.893  0.4633 -2.1598 -1.3417
   88MOL0     H11571   0.019   6.462   5.054 -2.8164 -3.7683  1.8431
   88MOL0     H11572  -0.203   6.525   5.016  0.4011 -1.9473 -0.4745
   88MOL0     H11573  -0.201   6.447   4.860  0.8632 -0.5803 -0.7470
   88MOL0     H11574  -0.164   6.742   4.932 -0.9043 -0.6168  0.5272
   88MOL0     H11575  -0.057   6.677   4.808 -1.3791 -2.2596 -2.9534
   88MOL0     H11576  -0.348   6.701   4.836  0.0604 -0.9022  1.3319
   88MOL0     H11577  -0.279   6.595   4.705 -1.3996 -0.1774  1.9948
   88MOL0     H11578  -0.244   7.019   4.538  1.0976 -3.0487 -1.6557
   88MOL0     H11579  -0.445   7.165   4.476 -2.1451 -0.4603 -3.0635
   88MOL0     H11580  -0.773   7.273   4.249  0.0408 -0.8635 -1.7513
   88MOL0     H11581  -0.957   7.404   4.157  1.7013  0.0682  0.8227
   88MOL0     H11582  -1.218   7.495   4.370  1.2804 -1.2132  0.0153
   88MOL0     H11583  -1.356   7.381   4.356 -1.7522  1.7715 -0.1201
   88MOL0     H11584  -1.475   7.575   4.315 -1.7746 -0.7080 -2.1116
   88MOL0     H11585  -1.444   7.512   4.162 -1.0822  0.0037  0.6634
   88MOL0     H11586  -1.385   7.745   4.132 -0.3084 -1.7746 -1.1946
   88MOL0     H11587  -1.241   7.654   4.127 -0.3879 -3.0980  0.0078
   88MOL0     H11588  -1.360   7.771   4.383 -0.8215  1.1393 -0.3205
   88MOL0     H11589  -1.195   7.703   4.366 -1.2437 -1.7873  0.1628
   88MOL0     H11590  -1.180   7.956   4.377  0.0768  0.4493  0.0524
   88MOL0     H11591  -1.299   7.965   4.264 -2.0148 -1.8662  2.4110
   88MOL0     H11592  -1.146   7.873   4.084  1.2401 -1.4183 -0.0396
   88MOL0     H11593  -1.031   7.836   4.215 -1.4184  0.2250  0.7372
   88MOL0     H11594  -1.120   8.103   4.099  0.1804 -2.0024 -0.2429
   88MOL0     H11595  -1.028   8.088   4.247 -0.9187 -1.5846  1.0506
   88MOL0     H11596  -0.914   8.128   4.024 -0.4898  0.6491  1.4450
   88MOL0     H11597  -0.945   7.955   3.990 -4.3657  2.6238 -1.6573
   88MOL0     H11598  -1.244   7.181   4.374 -0.1005 -0.4038  1.5636
   88MOL0     H11599  -1.054   7.037   4.453  1.9418 -0.1196  0.2943
   88MOL0     H11600  -0.709   6.850   4.573  1.3246 -0.6719 -1.2628
   88MOL0     H11601  -0.526   6.730   4.688  1.6131 -0.6658  1.0353
   88MOL0     H11602   0.665   6.107   4.524 -0.8056 -2.5508  1.4030
   88MOL0     H11603   0.744   6.319   4.667  0.0507  0.8753 -1.1022
   88MOL0     H11604   0.693   6.503   5.150 -0.9761 -0.8930 -2.1297
   88MOL0     H11605   0.720   6.720   5.294 -0.6394  3.5268  0.2926
   88MOL0     H11606   0.687   6.933   5.406  3.5115 -0.4148 -3.3034
   88MOL0     H11607   0.537   6.863   5.341  1.5499 -0.7882 -0.4375
   88MOL0     H11608   0.456   7.131   5.295  0.3166  2.0192  0.4201
   88MOL0     H11609   0.466   7.072   5.465  0.8573 -1.4874  1.4244
   88MOL0     H11610   0.712   7.187   5.338 -2.1348 -0.5461 -2.3042
   88MOL0     H11611   0.667   7.170   5.511  2.1877 -0.6211 -1.9142
   88MOL0     H11612   0.660   7.421   5.403 -0.2393 -0.3876  2.2401
   88MOL0     H11613   0.516   7.357   5.319  0.8549  0.6120 -0.4310
   88MOL0     H11614   0.353   7.385   5.694 -3.0659 -0.9506 -1.8399
   88MOL0     H11615   0.573   6.951   4.971  1.3013 -0.6814 -3.1784
   88MOL0     H11616   0.601   6.755   4.813  1.4551  3.1263 -0.2753
   89MOL0     O11617  10.885  10.473   3.102  0.2686 -0.0928 -0.1613
   89MOL0     C11618  10.783  10.542   3.128  0.2599 -0.0655 -0.0715
   89MOL0     O11619  10.667  10.495   3.200 -0.3434 -0.7802 -0.4579
   89MOL0     C11620  10.667  10.373   3.257 -0.2682  0.3339 -0.3016
   89MOL0     C11621  10.615  10.363   3.388  0.3089  0.1746 -0.1913
   89MOL0     C11622  10.601  10.244   3.447 -1.0744  1.2542 -0.2192
   89MOL0     C11623  10.662  10.126   3.389 -0.7521 -1.0269 -0.7354
   89MOL0     O11624  10.653  10.004   3.445 -0.0178  0.0208 -1.0516
   89MOL0     C11625  10.678  10.002   3.594  0.6926 -0.0922  0.3095
   89MOL0     C11626  10.543   9.972   3.660  0.7710 -0.2362 -0.6934
   89MOL0     C11627  10.550  10.022   3.808  0.1551  0.0356  0.0983
   89MOL0     C11628  10.421  10.018   3.880  0.1837  0.2192  0.2605
   89MOL0     C11629  10.444  10.055   4.029  0.3028  0.1385 -0.4793
   89MOL0     C11630  10.324  10.028   4.112  0.6011 -1.2017 -0.6581
   89MOL0     C11631  10.358  10.063   4.252  0.1997 -0.6031 -0.3187
   89MOL0     C11632  10.270  10.037   4.369  0.2183  0.4602 -0.4215
   89MOL0     N11633  10.152  10.125   4.366 -0.8061  1.1396  0.3077
   89MOL0     C11634  10.047  10.096   4.284 -0.9782 -1.1295  1.6947
   89MOL0     C11635   9.948  10.192   4.305  0.1617  0.1317  0.5623
   89MOL0     C11636   9.824  10.206   4.219 -0.3658  0.2042  0.2537
   89MOL0     C11637   9.852  10.331   4.129  0.4441  0.4502  0.1455
   89MOL0     C11638   9.752  10.342   4.006  0.1006  0.0465  0.3751
   89MOL0     C11639   9.770  10.482   3.948 -0.2780  0.0313 -0.3815
   89MOL0     O11640   9.710  10.473   3.819  0.7118  0.3676 -0.6194
   89MOL0     C11641   9.722  10.580   3.729  0.0133  0.2052  0.0553
   89MOL0     C11642   9.784  10.700   3.760 -0.2775  0.3178  0.3653
   89MOL0     C11643   9.809  10.798   3.661  0.6531 -0.3318  0.5807
   89MOL0     C11644   9.763  10.780   3.533 -0.8440  0.1556  0.3449
   89MOL0     C11645   9.795  10.879   3.429  0.5417  0.1312 -0.0685
   89MOL0     O11646   9.728  10.866   3.310 -0.3144  0.0539  0.6121
   89MOL0     C11647   9.757  10.960   3.207  0.8495  0.0068  0.4058
   89MOL0     C11648   9.883  10.987   3.170  0.0042 -0.0912 -0.2393
   89MOL0     C11649   9.915  11.095   3.084  0.3003 -0.1658 -1.1361
   89MOL0     C11650   9.814  11.161   3.010  1.0271 -1.1384  0.2329
   89MOL0     O11651   9.830  11.271   2.926 -0.0640  0.2956 -0.2678
   89MOL0     C11652   9.923  11.275   2.815  0.3940 -0.3388  0.5825
   89MOL0     C11653   9.970  11.419   2.799  0.9012 -0.3008 -0.1917
   89MOL0     C11654  10.050  11.452   2.925  0.3324 -0.2684  1.0311
   89MOL0     C11655  10.071  11.598   2.927 -0.1171 -0.3170 -0.6254
   89MOL0     C11656  10.169  11.637   3.040 -0.1660 -0.3765  0.1061
   89MOL0     C11657  10.241  11.771   3.016  0.6939 -0.1206 -0.2099
   89MOL0     C11658  10.317  11.834   3.143 -0.5437  0.5335 -0.4532
   89MOL0     C11659  10.425  11.930   3.120 -0.0185 -0.2533  0.0944
   89MOL0    Cl11660  10.555  11.830   3.051 -0.2487 -0.4302 -0.4259
   89MOL0     C11661   9.682  11.115   3.037  0.7280 -0.2521 -0.2659
   89MOL0     C11662   9.649  11.029   3.136  0.0007  1.2396  0.3832
   89MOL0     O11663   9.857  10.976   3.462  0.2567 -0.0824 -0.4544
   89MOL0     C11664   9.671  10.670   3.509  0.0342  0.4739  0.1849
   89MOL0     C11665   9.658  10.567   3.603  0.0669 -0.2550 -0.7243
   89MOL0     N11666   9.992  10.252   4.422  0.4666  0.0084 -0.0187
   89MOL0     N11667  10.115  10.217   4.456 -0.2621  0.3009  0.4519
   89MOL0     C11668  10.717  10.135   3.257  0.2165  0.2368 -1.0200
   89MOL0     C11669  10.719  10.265   3.188 -0.0990 -0.0756 -0.2079
   89MOL0     C11670  10.789  10.689   3.089 -0.1713  0.9496  0.5529
   89MOL0     C11671  10.886  10.734   3.000 -0.8373  0.1874  0.2967
   89MOL0     C11672  10.905  10.871   2.985  0.1941 -0.1550 -1.0252
   89MOL0     C11673  10.816  10.961   3.040 -0.0097 -0.6299 -0.2444
   89MOL0     O11674  10.833  11.102   3.016 -0.1678 -0.4543 -0.1638
   89MOL0     C11675  10.779  11.205   3.106 -0.4097 -1.1259 -0.4772
   89MOL0     C11676  10.829  11.192   3.255 -0.7407  0.4065  0.4108
   89MOL0     C11677  10.984  11.168   3.246  0.2668 -0.7077  0.1438
   89MOL0     C11678  11.048  11.169   3.389  0.6022  0.8965 -0.1326
   89MOL0     C11679  11.058  11.297   3.443  1.2998  0.3396  0.5041
   89MOL0     C11680  11.080  11.413   3.481  0.5950  0.4821  0.4294
   89MOL0     C11681  10.716  10.920   3.129  0.2710  0.5320  1.2677
   89MOL0     C11682  10.698  10.784   3.145  0.3520  0.5968  0.0370
   89MOL0     H11683  10.576  10.451   3.438 -0.3766 -1.6846  2.8199
   89MOL0     H11684  10.534  10.230   3.532 -1.6898  0.7832 -0.7737
   89MOL0     H11685  10.714  10.102   3.621  0.0888 -0.1096  1.2239
   89MOL0     H11686  10.749   9.922   3.616  1.5759 -0.4447 -3.1150
   89MOL0     H11687  10.528   9.863   3.659  2.9734 -0.6723  1.7520
   89MOL0     H11688  10.457  10.028   3.623  0.4801 -0.1995  0.0116
   89MOL0     H11689  10.598  10.120   3.816 -2.3542  1.3733 -0.3890
   89MOL0     H11690  10.617   9.952   3.860  0.7343  0.2413 -0.3578
   89MOL0     H11691  10.368  10.098   3.828  3.6218  1.8757 -0.9930
   89MOL0     H11692  10.371   9.921   3.874 -1.9840  1.3715 -2.1690
   89MOL0     H11693  10.467  10.162   4.021  1.9786 -0.1886 -0.3054
   89MOL0     H11694  10.534  10.013   4.074  1.0706  1.8236 -0.3599
   89MOL0     H11695  10.289   9.926   4.093  1.6414 -1.7497  0.2026
   89MOL0     H11696  10.255  10.106   4.080  0.5426 -2.0980 -2.8697
   89MOL0     H11697  10.453  10.019   4.284  1.5460  1.8693 -0.7112
   89MOL0     H11698  10.403  10.163   4.253  0.2870 -0.6368  0.8840
   89MOL0     H11699  10.317  10.046   4.467  1.5081 -3.2954 -0.5653
   89MOL0     H11700  10.229   9.936   4.358 -1.1674  0.7059  1.9172
   89MOL0     H11701  10.040  10.009   4.219 -3.9018  0.5161 -0.4214
   89MOL0     H11702   9.731  10.232   4.271 -2.2191 -1.1913 -2.1661
   89MOL0     H11703   9.812  10.115   4.160  2.2901 -0.0314 -0.0431
   89MOL0     H11704   9.954  10.326   4.091  0.7027 -0.1619  0.8952
   89MOL0     H11705   9.840  10.424   4.185 -1.5551  0.0691  0.4513
   89MOL0     H11706   9.778  10.267   3.931  0.5005  0.2091  0.3495
   89MOL0     H11707   9.646  10.330   4.032  0.9745 -2.8452  3.3052
   89MOL0     H11708   9.874  10.515   3.944 -0.0750 -0.7314 -2.7287
   89MOL0     H11709   9.716  10.562   4.000  1.8059  2.6893 -2.0952
   89MOL0     H11710   9.822  10.716   3.861 -0.5295  0.7635  0.3934
   89MOL0     H11711   9.873  10.882   3.685  0.0484 -0.6441  3.6814
   89MOL0     H11712   9.954  10.930   3.230 -3.5642 -2.4019  2.1891
   89MOL0     H11713  10.016  11.118   3.054  0.4776 -1.9131 -1.9715
   89MOL0     H11714   9.864  11.261   2.724 -0.4762  0.9068  0.9299
   89MOL0     H11715  10.005  11.203   2.827 -0.4277 -1.7970 -1.8102
   89MOL0     H11716   9.875  11.473   2.807  0.2890 -1.1138 -1.6176
   89MOL0     H11717  10.027  11.439   2.708 -0.5191 -0.8424 -1.2370
   89MOL0     H11718  10.146  11.398   2.923  2.5673  3.3712 -0.7576
   89MOL0     H11719   9.988  11.418   3.008 -1.1813 -1.3940 -0.5065
   89MOL0     H11720  10.100  11.641   2.831  0.2666 -0.0940 -0.4175
   89MOL0     H11721   9.978  11.648   2.955  0.7633  0.4437  1.0977
   89MOL0     H11722  10.260  11.579   3.057  1.7242  1.8703 -1.6898
   89MOL0     H11723  10.104  11.641   3.128  0.1185 -0.9630  0.3477
   89MOL0     H11724  10.174  11.848   2.979  1.2195  0.7743  0.6489
   89MOL0     H11725  10.310  11.746   2.935 -0.5633  4.7563 -3.1565
   89MOL0     H11726  10.240  11.886   3.201 -1.1681 -3.3164  2.5655
   89MOL0     H11727  10.352  11.752   3.206 -0.9329  1.0109  0.4044
   89MOL0     H11728  10.468  11.966   3.214 -0.1777 -2.1153  0.9304
   89MOL0     H11729  10.393  12.006   3.048 -1.9299  0.4205  1.5604
   89MOL0     H11730   9.604  11.164   2.980  0.1884 -2.2633 -1.3258
   89MOL0     H11731   9.545  11.007   3.158  0.0456  0.9327  0.3027
   89MOL0     H11732   9.625  10.665   3.411  1.1366  2.9625 -0.5392
   89MOL0     H11733   9.607  10.475   3.575 -0.5910 -0.2087  0.2676
   89MOL0     H11734  10.755  10.046   3.209  4.1375  1.6335 -0.8430
   89MOL0     H11735  10.754  10.268   3.085 -2.1668  5.0934 -1.0430
   89MOL0     H11736  10.955  10.665   2.952  1.7151  1.2552  2.2109
   89MOL0     H11737  10.989  10.909   2.928  1.4699  0.8347  1.3517
   89MOL0     H11738  10.670  11.202   3.097 -0.7740 -2.6502  2.8468
   89MOL0     H11739  10.834  11.292   3.068  0.4455 -1.4066  0.0752
   89MOL0     H11740  10.802  11.286   3.303 -1.3107  0.4420  0.0396
   89MOL0     H11741  10.782  11.109   3.309  1.2388 -0.1799  1.3089
   89MOL0     H11742  11.035  11.240   3.181 -0.1343  1.0290  1.6762
   89MOL0     H11743  10.998  11.069   3.202  0.2762 -0.0271 -1.4833
   89MOL0     H11744  10.998  11.092   3.448 -0.1875  2.3994  1.2275
   89MOL0     H11745  11.150  11.130   3.382  0.1419 -0.6069  1.0625
   89MOL0     H11746  11.115  11.507   3.517  0.3078  1.5068 -1.8069
   89MOL0     H11747  10.645  10.986   3.177  1.4046  4.0728 -1.4194
   89MOL0     H11748  10.619  10.739   3.205 -2.1290 -0.3378 -3.6073
   90MOL0     O11749   0.264   6.690   5.901 -0.4837 -0.7640 -0.1111
   90MOL0     C11750   0.308   6.793   5.839  0.1103 -0.3981 -0.2747
   90MOL0     O11751   0.405   6.799   5.744  0.6736 -0.0220  0.0991
   90MOL0     C11752   0.464   6.678   5.711  0.7287  0.5823  0.2444
   90MOL0     C11753   0.575   6.630   5.781  0.2447 -0.4617  0.0909
   90MOL0     C11754   0.649   6.524   5.722 -0.0516  0.3950  0.3598
   90MOL0     C11755   0.615   6.469   5.600 -0.3134  0.5640  0.7529
   90MOL0     O11756   0.698   6.371   5.556 -0.6872 -0.3306 -0.2703
   90MOL0     C11757   0.662   6.311   5.430  0.3218 -0.1743  0.0979
   90MOL0     C11758   0.780   6.207   5.408  0.3048 -0.3221 -0.0758
   90MOL0     C11759   0.793   6.152   5.268 -0.3114 -0.1603  0.0331
   90MOL0     C11760   0.661   6.096   5.208 -0.3894  0.0096 -0.7498
   90MOL0     C11761   0.660   6.047   5.064  0.1008 -0.2110  0.1001
   90MOL0     C11762   0.526   5.998   5.023 -0.0462  0.4534  0.7403
   90MOL0     C11763   0.524   5.917   4.893 -0.3267 -0.0558  0.1545
   90MOL0     C11764   0.390   5.909   4.825  0.5022  0.5196  1.1249
   90MOL0     N11765   0.300   5.808   4.896 -0.0681  0.5270  0.3399
   90MOL0     C11766   0.241   5.818   5.019 -0.2245 -0.2414 -0.3018
   90MOL0     C11767   0.183   5.701   5.037  0.0783 -0.8299 -1.0986
   90MOL0     C11768   0.096   5.659   5.155 -0.5169 -1.2840  0.2651
   90MOL0     C11769   0.183   5.567   5.253 -0.2993 -0.6039 -0.4916
   90MOL0     C11770   0.153   5.570   5.408 -1.4544 -0.1283 -0.3849
   90MOL0     C11771   0.174   5.713   5.464 -0.6161  0.1856 -0.3158
   90MOL0     O11772   0.288   5.767   5.408 -0.7915  0.7368 -0.0180
   90MOL0     C11773   0.410   5.747   5.464 -0.5415 -0.0134  0.9182
   90MOL0     C11774   0.435   5.685   5.586  0.2829  0.3286  0.2831
   90MOL0     C11775   0.561   5.672   5.634 -0.1745  0.9140  0.7421
   90MOL0     C11776   0.667   5.743   5.571 -0.7758  0.1252 -0.3041
   90MOL0     C11777   0.819   5.720   5.608  0.2948 -0.9178 -0.4130
   90MOL0     O11778   0.923   5.788   5.533  0.0913  0.5859  0.0859
   90MOL0     C11779   1.056   5.754   5.542 -0.0983 -0.3540  0.3670
   90MOL0     C11780   1.108   5.624   5.536 -1.1244  0.5077  0.3675
   90MOL0     C11781   1.253   5.606   5.536 -0.6563  1.3802  0.2352
   90MOL0     C11782   1.338   5.722   5.533  0.3646  0.3063  0.0876
   90MOL0     O11783   1.471   5.715   5.520 -0.2953  0.5993  0.3417
   90MOL0     C11784   1.531   5.616   5.608  0.5027  0.4570  0.0130
   90MOL0     C11785   1.684   5.643   5.620  0.2766 -1.5977 -0.6425
   90MOL0     C11786   1.756   5.560   5.725  0.8035  0.6198  0.6106
   90MOL0     C11787   1.903   5.524   5.677  0.0140  0.1270 -0.2704
   90MOL0     C11788   1.951   5.412   5.769 -0.3459 -0.2948  0.7499
   90MOL0     C11789   2.089   5.352   5.733  0.0752 -0.9405 -0.4245
   90MOL0     C11790   2.195   5.454   5.789  0.0011  0.6032 -0.1529
   90MOL0     C11791   2.326   5.389   5.831 -0.1144  0.1287  0.5960
   90MOL0    Cl11792   2.443   5.376   5.688  0.7736  0.4418  0.0810
   90MOL0     C11793   1.283   5.849   5.544  0.5559 -0.1322  0.0697
   90MOL0     C11794   1.142   5.863   5.542  0.3221  1.1616 -0.3304
   90MOL0     O11795   0.838   5.646   5.701 -0.1083 -0.6978  0.4512
   90MOL0     C11796   0.649   5.796   5.441  0.0829 -0.9347 -0.2111
   90MOL0     C11797   0.521   5.809   5.393 -0.1190 -0.3546 -0.7312
   90MOL0     N11798   0.193   5.615   4.926  0.0427 -0.1929 -0.5607
   90MOL0     N11799   0.285   5.676   4.849 -0.2147  0.0216  0.0048
   90MOL0     C11800   0.505   6.524   5.527 -0.9271  0.6449 -0.5479
   90MOL0     C11801   0.428   6.621   5.587  0.0803 -0.1799 -0.0071
   90MOL0     C11802   0.233   6.918   5.855 -0.0815 -0.8203  0.2930
   90MOL0     C11803   0.159   6.941   5.977 -0.4586  0.3326 -0.6927
   90MOL0     C11804   0.095   7.056   6.000  0.2261  0.0269 -0.1380
   90MOL0     C11805   0.081   7.154   5.896 -0.6204 -0.4412  0.5188
   90MOL0     O11806   0.015   7.272   5.912  0.5218  0.8638 -0.8043
   90MOL0     C11807   0.098   7.374   5.966 -0.6628 -0.1595 -0.6684
   90MOL0     C11808   0.111   7.360   6.116 -1.1058  0.0841  0.5080
   90MOL0     C11809  -0.021   7.368   6.186  0.4979 -0.7763  0.1271
   90MOL0     C11810  -0.022   7.376   6.334 -0.9090 -0.3510  0.2586
   90MOL0     C11811  -0.160   7.341   6.379 -0.5756 -0.0594  0.2234
   90MOL0     C11812  -0.284   7.335   6.398 -0.0646  0.8561  0.2686
   90MOL0     C11813   0.140   7.132   5.775 -0.3835  0.2297  0.3571
   90MOL0     C11814   0.201   7.010   5.753  0.5275  0.1858 -0.5656
   90MOL0     H11815   0.597   6.684   5.873  0.8782  2.5789 -1.7087
   90MOL0     H11816   0.736   6.477   5.766 -0.6184 -0.6137  0.4551
   90MOL0     H11817   0.662   6.389   5.353 -1.0996  3.1441  3.1668
   90MOL0     H11818   0.572   6.250   5.429  0.6962 -0.8401  2.1528
   90MOL0     H11819   0.749   6.117   5.462  1.3766 -0.1586  0.8570
   90MOL0     H11820   0.878   6.242   5.443  0.8362 -1.2329 -0.6247
   90MOL0     H11821   0.864   6.069   5.267 -1.6828 -1.3641  0.1640
   90MOL0     H11822   0.815   6.228   5.192 -2.6982  0.9283  0.3379
   90MOL0     H11823   0.646   6.017   5.282 -0.9275  1.5077  0.8131
   90MOL0     H11824   0.593   6.179   5.228  1.6188  1.3677  0.8734
   90MOL0     H11825   0.740   5.974   5.047  1.4477  0.6012  2.5358
   90MOL0     H11826   0.685   6.115   4.982 -0.0533 -1.0607 -0.6734
   90MOL0     H11827   0.473   6.092   5.007  1.6252  1.1340 -1.1694
   90MOL0     H11828   0.491   5.939   5.109  2.9144 -0.5165  1.4024
   90MOL0     H11829   0.590   5.973   4.826 -0.0995  0.3110  0.6771
   90MOL0     H11830   0.575   5.821   4.908 -2.8529 -1.3523  0.9592
   90MOL0     H11831   0.402   5.893   4.717 -1.1701  2.6300  0.5457
   90MOL0     H11832   0.337   6.005   4.833 -2.4719 -0.9946  0.9239
   90MOL0     H11833   0.252   5.904   5.084  2.3699 -0.3830 -0.4193
   90MOL0     H11834   0.009   5.602   5.121  0.0021 -1.7343 -0.3504
   90MOL0     H11835   0.069   5.749   5.210 -0.8968 -1.5462  0.5125
   90MOL0     H11836   0.283   5.601   5.228 -0.7991  0.4073 -1.1584
   90MOL0     H11837   0.163   5.462   5.230  1.0951 -1.1695  0.6943
   90MOL0     H11838   0.048   5.545   5.423 -1.3393  0.9322  2.8583
   90MOL0     H11839   0.215   5.497   5.461  1.2754  1.7656 -0.7796
   90MOL0     H11840   0.192   5.707   5.572 -1.1969  0.1708 -0.2173
   90MOL0     H11841   0.080   5.768   5.447 -2.1312 -2.6101 -1.6231
   90MOL0     H11842   0.362   5.625   5.639  1.0132  0.2858  1.2531
   90MOL0     H11843   0.575   5.598   5.712 -2.9963 -1.8317 -1.1370
   90MOL0     H11844   1.049   5.533   5.545 -0.7193  0.2470  0.4079
   90MOL0     H11845   1.292   5.504   5.536  2.1059  2.3406 -1.3697
   90MOL0     H11846   1.518   5.515   5.569  1.3868 -0.2546  1.4412
   90MOL0     H11847   1.479   5.620   5.705 -0.7745  0.9154 -0.6662
   90MOL0     H11848   1.682   5.745   5.659 -3.8655 -2.9898  3.7283
   90MOL0     H11849   1.742   5.643   5.527  0.3268  2.3651 -0.8000
   90MOL0     H11850   1.699   5.467   5.728 -3.0194  2.6362 -1.2829
   90MOL0     H11851   1.747   5.597   5.828 -0.9669  1.1447  0.3072
   90MOL0     H11852   1.911   5.488   5.573 -0.1430  1.1119 -0.6286
   90MOL0     H11853   1.958   5.617   5.694 -0.2372 -0.0442  1.6148
   90MOL0     H11854   1.884   5.327   5.754  1.7438 -1.8366 -0.2333
   90MOL0     H11855   1.938   5.454   5.870 -0.2897  0.0940  0.5959
   90MOL0     H11856   2.108   5.315   5.632  2.5106  0.5744 -0.6201
   90MOL0     H11857   2.095   5.261   5.794 -1.4164 -0.1189  1.0317
   90MOL0     H11858   2.217   5.526   5.710 -0.5993  0.8710 -0.0781
   90MOL0     H11859   2.158   5.516   5.872  0.3659  2.2579 -1.1638
   90MOL0     H11860   2.305   5.290   5.871 -0.9624  0.0404 -0.0608
   90MOL0     H11861   2.383   5.451   5.902  2.6501  2.7423 -3.4386
   90MOL0     H11862   1.350   5.933   5.533 -2.6729  2.2670 -3.5047
   90MOL0     H11863   1.095   5.960   5.532  0.1842  1.0677 -0.6007
   90MOL0     H11864   0.724   5.819   5.366  1.7127 -1.6555  1.1135
   90MOL0     H11865   0.502   5.846   5.292  0.5920  0.3314 -0.6258
   90MOL0     H11866   0.476   6.486   5.430  0.3597  0.0546 -0.7238
   90MOL0     H11867   0.347   6.675   5.539  0.6833  3.8205  2.9408
   90MOL0     H11868   0.165   6.876   6.063  1.6420  1.5427  0.1407
   90MOL0     H11869   0.041   7.075   6.092  1.1348  0.0470  0.4018
   90MOL0     H11870   0.062   7.477   5.958  1.0016  1.0783  4.1327
   90MOL0     H11871   0.195   7.373   5.915 -1.8557 -0.5278 -3.0136
   90MOL0     H11872   0.157   7.265   6.144 -2.7944 -0.7098  0.7313
   90MOL0     H11873   0.178   7.438   6.155  2.6752 -1.9431 -1.3548
   90MOL0     H11874  -0.080   7.280   6.159 -2.0966  1.1711 -0.9955
   90MOL0     H11875  -0.081   7.449   6.144 -1.2345 -0.3461  3.1366
   90MOL0     H11876   0.041   7.299   6.380 -0.9351 -0.7285 -0.3293
   90MOL0     H11877   0.003   7.474   6.375  0.7166  0.3428 -2.1734
   90MOL0     H11878  -0.390   7.329   6.418  0.7287 -1.1027  5.5241
   90MOL0     H11879   0.142   7.203   5.693  1.2783  1.2739  1.2596
   90MOL0     H11880   0.253   6.997   5.658  1.7310  3.2072 -0.4346
   91MOL0     O11881   5.715   3.698  10.205 -0.0483 -0.5215  0.1234
   91MOL0     C11882   5.605   3.657  10.235  0.5477  0.2226  0.6771
   91MOL0     O11883   5.517   3.704  10.332  0.9703  0.1271  0.2691
   91MOL0     C11884   5.561   3.791  10.415 -1.4249  0.2271  0.1344
   91MOL0     C11885   5.587   3.920  10.376  0.4767 -0.6663 -0.0703
   91MOL0     C11886   5.636   4.017  10.470  0.1500 -0.4586 -0.0808
   91MOL0     C11887   5.663   3.984  10.601  0.8947 -0.1871  0.0889
   91MOL0     O11888   5.730   4.064  10.688  0.8508 -0.1882 -0.0830
   91MOL0     C11889   5.651   4.173  10.733  0.3269  0.5892  0.7635
   91MOL0     C11890   5.732   4.276  10.801 -0.1102 -0.0891 -0.3356
   91MOL0     C11891   5.860   4.319  10.710 -0.0949 -0.4598 -0.0771
   91MOL0     C11892   5.926   4.439  10.786  0.5502 -0.0173 -0.8887
   91MOL0     C11893   6.042   4.503  10.707 -0.5218 -0.5824 -0.2298
   91MOL0     C11894   6.121   4.608  10.781  0.2993  0.8042  0.0732
   91MOL0     C11895   6.245   4.649  10.707  0.5308  0.9613 -0.1519
   91MOL0     C11896   6.341   4.721  10.800  0.0216 -0.6929  0.7701
   91MOL0     N11897   6.453   4.774  10.726 -0.3563  0.7841  0.5335
   91MOL0     C11898   6.527   4.709  10.632  0.9940 -0.2129  0.0151
   91MOL0     C11899   6.633   4.794  10.609  0.6830  0.8964 -0.2275
   91MOL0     C11900   6.756   4.753  10.532  0.5357  0.5658  0.5908
   91MOL0     C11901   6.812   4.872  10.459  0.3820 -0.3942 -0.7629
   91MOL0     C11902   6.889   4.959  10.554 -0.1374  0.7204  0.4282
   91MOL0     C11903   7.037   4.940  10.548  0.4069  0.6062 -0.6116
   91MOL0     O11904   7.064   4.808  10.601  0.0473  0.9136  0.2480
   91MOL0     C11905   7.193   4.772  10.626 -0.1585  0.3535 -0.0999
   91MOL0     C11906   7.299   4.861  10.618 -0.1397  0.0181  0.3086
   91MOL0     C11907   7.431   4.818  10.626 -0.2904 -0.7921  0.2675
   91MOL0     C11908   7.460   4.682  10.647  0.4667  0.6966  0.5967
   91MOL0     C11909   7.605   4.640  10.643  0.9473  0.3068 -0.5209
   91MOL0     O11910   7.682   4.728  10.584 -0.2457  0.5241 -0.3886
   91MOL0     C11911   7.809   4.696  10.568  1.0529 -0.4496  0.9625
   91MOL0     C11912   7.900   4.777  10.619 -0.6555  0.0030 -0.2988
   91MOL0     C11913   8.045   4.762  10.597 -0.1428 -0.4681 -0.4391
   91MOL0     C11914   8.086   4.647  10.520  0.1889 -0.5271  1.4659
   91MOL0     O11915   8.218   4.632  10.483  0.0783 -0.3260 -1.1836
   91MOL0     C11916   8.290   4.535  10.549 -0.7532  1.2587  0.5934
   91MOL0     C11917   8.406   4.489  10.476  0.3470  0.3891  0.3686
   91MOL0     C11918   8.495   4.608  10.423 -0.3044  0.1750  0.4940
   91MOL0     C11919   8.624   4.557  10.367  0.1665  1.1819 -0.4065
   91MOL0     C11920   8.730   4.558  10.479  0.6870  0.4602 -0.4124
   91MOL0     C11921   8.865   4.496  10.440  0.6749 -0.5164 -1.5215
   91MOL0     C11922   8.958   4.601  10.382 -0.6902 -0.2949 -0.0615
   91MOL0     C11923   9.086   4.548  10.323 -1.0970  1.2143 -0.6524
   91MOL0    Cl11924   9.058   4.427  10.200 -0.1799 -0.0004  0.2072
   91MOL0     C11925   7.984   4.561  10.472 -0.0213 -0.0105  0.3105
   91MOL0     C11926   7.850   4.590  10.495 -0.4005  0.1075 -0.1840
   91MOL0     O11927   7.639   4.539  10.702  0.3947 -0.8920  0.6058
   91MOL0     C11928   7.356   4.584  10.665 -0.3962 -0.7123  0.3725
   91MOL0     C11929   7.229   4.637  10.657 -0.2144 -0.0840  0.6533
   91MOL0     N11930   6.611   4.906  10.687  0.4799  0.0695  0.2018
   91MOL0     N11931   6.508   4.900  10.753  0.3240 -0.4676 -0.7825
   91MOL0     C11932   5.642   3.851  10.637  0.3537 -0.4179  0.0414
   91MOL0     C11933   5.586   3.755  10.547 -0.8539  0.1677 -0.1242
   91MOL0     C11934   5.555   3.533  10.164  0.1209  0.9245 -0.0396
   91MOL0     C11935   5.424   3.482  10.161  0.3447 -0.2079  0.6012
   91MOL0     C11936   5.387   3.365  10.102 -0.2391  0.6514 -1.0273
   91MOL0     C11937   5.484   3.295  10.023  0.1752 -0.4020  0.6792
   91MOL0     O11938   5.467   3.171   9.966 -0.5631 -0.5322  0.4711
   91MOL0     C11939   5.355   3.090   9.988 -0.5869  0.4048 -0.4496
   91MOL0     C11940   5.383   3.018  10.123 -0.1578  0.2369  0.1173
   91MOL0     C11941   5.291   2.893  10.138 -0.1589 -0.0725  0.7580
   91MOL0     C11942   5.303   2.829  10.278 -0.5534  0.2397 -0.1038
   91MOL0     C11943   5.263   2.695  10.270  0.0125 -0.0313 -0.1285
   91MOL0     C11944   5.241   2.579  10.261  0.2044 -0.4421  0.2118
   91MOL0     C11945   5.613   3.346  10.019 -0.5471  0.8058  0.6923
   91MOL0     C11946   5.649   3.452  10.094  0.3645 -0.0405  0.8871
   91MOL0     H11947   5.578   3.941  10.270  1.4341 -0.6485 -0.1618
   91MOL0     H11948   5.654   4.121  10.442  0.1848 -0.1771  0.9491
   91MOL0     H11949   5.570   4.138  10.798  1.0384 -3.9099 -0.3977
   91MOL0     H11950   5.618   4.228  10.644  2.3777  2.2832  0.9682
   91MOL0     H11951   5.768   4.228  10.893 -0.5141  1.9791  0.9656
   91MOL0     H11952   5.657   4.352  10.821 -0.1280  0.0971 -1.0870
   91MOL0     H11953   5.829   4.362  10.615  0.6176  1.5968  0.5457
   91MOL0     H11954   5.935   4.240  10.701  0.5407  0.2518 -1.2829
   91MOL0     H11955   5.852   4.508  10.826  1.4971  1.8802 -2.2894
   91MOL0     H11956   5.963   4.400  10.882 -2.7611  1.5152  1.1910
   91MOL0     H11957   6.010   4.546  10.611  0.5839 -0.8353 -0.7303
   91MOL0     H11958   6.103   4.419  10.674 -2.1154 -1.0311 -2.2405
   91MOL0     H11959   6.151   4.561  10.875 -1.3444 -1.0686 -0.2870
   91MOL0     H11960   6.056   4.695  10.798  0.1135  0.7124 -0.1707
   91MOL0     H11961   6.302   4.561  10.676  4.6162  3.1523  0.4527
   91MOL0     H11962   6.225   4.712  10.620  0.5996  1.5109  0.2254
   91MOL0     H11963   6.369   4.655  10.882  2.6516  2.0392  2.2647
   91MOL0     H11964   6.291   4.806  10.849  2.3932  0.8947  0.5786
   91MOL0     H11965   6.510   4.608  10.595  0.7255 -1.4359  3.1513
   91MOL0     H11966   6.730   4.672  10.463 -1.4257  0.7389  1.0749
   91MOL0     H11967   6.828   4.704  10.599 -0.0090 -3.0042 -1.1773
   91MOL0     H11968   6.733   4.931  10.410 -0.3693 -0.0471  0.8127
   91MOL0     H11969   6.886   4.843  10.384  0.2746  0.9842 -1.4401
   91MOL0     H11970   6.864   5.064  10.533  1.1762  0.2480 -4.9944
   91MOL0     H11971   6.861   4.941  10.658 -3.5741 -2.5854 -0.8374
   91MOL0     H11972   7.063   5.021  10.618 -0.8066 -0.0779  0.6846
   91MOL0     H11973   7.074   4.953  10.446 -0.5781  0.8112 -0.9480
   91MOL0     H11974   7.287   4.967  10.601 -0.5793 -0.2084 -0.9107
   91MOL0     H11975   7.500   4.900  10.610 -2.9642  1.6955  0.6498
   91MOL0     H11976   7.874   4.873  10.662 -1.1742 -0.2992  0.0758
   91MOL0     H11977   8.122   4.827  10.636  0.5695 -1.1401 -0.6910
   91MOL0     H11978   8.228   4.448  10.574 -1.4886  1.7508  0.4951
   91MOL0     H11979   8.329   4.587  10.637  0.0151  1.6184  0.0547
   91MOL0     H11980   8.361   4.437  10.391  0.4230  0.5305  0.2409
   91MOL0     H11981   8.465   4.427  10.544  0.4812  0.5346  0.3854
   91MOL0     H11982   8.520   4.684  10.498 -3.1905  2.2806 -0.5205
   91MOL0     H11983   8.441   4.661  10.344  0.6241  2.1885  1.1481
   91MOL0     H11984   8.615   4.459  10.319  1.4862  0.5966  0.4727
   91MOL0     H11985   8.646   4.628  10.287 -0.4456  0.4926 -1.2041
   91MOL0     H11986   8.694   4.492  10.558 -1.1983  1.7039 -0.1707
   91MOL0     H11987   8.739   4.658  10.521 -2.5127  0.4701  0.5381
   91MOL0     H11988   8.850   4.411  10.373  3.5976 -1.1508 -1.4815
   91MOL0     H11989   8.919   4.451  10.524 -2.7739 -0.9858  0.6626
   91MOL0     H11990   8.895   4.646  10.306 -1.3256 -3.6589 -1.7339
   91MOL0     H11991   8.985   4.671  10.462  4.2564 -2.1263  0.2450
   91MOL0     H11992   9.150   4.492  10.393  0.4796  2.5223 -0.9886
   91MOL0     H11993   9.149   4.627  10.282 -0.5414  1.3427  0.4174
   91MOL0     H11994   8.009   4.475  10.412  2.2523  1.7079 -1.4015
   91MOL0     H11995   7.763   4.531  10.469 -0.8325 -0.2299  1.8264
   91MOL0     H11996   7.355   4.476  10.679  2.1470 -1.3072 -2.9046
   91MOL0     H11997   7.151   4.562  10.668 -0.8174 -0.1985 -3.1038
   91MOL0     H11998   5.671   3.815  10.735 -2.0484  0.1140  1.0043
   91MOL0     H11999   5.575   3.659  10.596  0.6975  0.5342  1.0300
   91MOL0     H12000   5.347   3.547  10.201  0.9504 -0.0356  1.5192
   91MOL0     H12001   5.285   3.327  10.105 -0.7640  2.0237  2.0394
   91MOL0     H12002   5.351   3.018   9.906 -2.3996  1.2244 -1.1370
   91MOL0     H12003   5.251   3.122   9.994 -0.8958 -0.5143 -0.6550
   91MOL0     H12004   5.490   2.994  10.122 -0.3518 -0.6145 -0.5087
   91MOL0     H12005   5.358   3.095  10.198 -0.5766  1.0600 -0.8490
   91MOL0     H12006   5.323   2.821  10.062  0.5817  0.4992  0.5181
   91MOL0     H12007   5.184   2.917  10.132  0.3309  2.1514 -0.0818
   91MOL0     H12008   5.404   2.835  10.318 -0.1638  2.4402 -1.2204
   91MOL0     H12009   5.240   2.865  10.360 -0.2968 -2.8158  1.5618
   91MOL0     H12010   5.234   2.472  10.254  0.9633 -0.4095 -1.3204
   91MOL0     H12011   5.685   3.284   9.966 -1.2802  1.8959 -1.7299
   91MOL0     H12012   5.755   3.471  10.111  0.2033  0.7720  1.0212
   92MOL0     O12013   9.184   3.688   5.999 -0.1648  0.7389  0.0813
   92MOL0     C12014   9.201   3.790   6.062 -0.3425  0.1328  0.2189
   92MOL0     O12015   9.311   3.807   6.142 -0.4640  0.5864 -0.3557
   92MOL0     C12016   9.385   3.698   6.174  0.1098  0.0492 -0.2765
   92MOL0     C12017   9.527   3.693   6.139  0.0480 -1.1618 -0.5242
   92MOL0     C12018   9.606   3.595   6.188 -0.3220 -0.5303 -0.3891
   92MOL0     C12019   9.553   3.490   6.258  0.2426 -0.8682 -0.5054
   92MOL0     O12020   9.631   3.388   6.291 -0.6346  0.2992  0.7581
   92MOL0     C12021   9.647   3.293   6.181 -0.2976 -0.5359 -0.1339
   92MOL0     C12022   9.722   3.166   6.226 -0.4274  0.1924 -0.5295
   92MOL0     C12023   9.879   3.174   6.216  0.4666  0.0188 -0.2333
   92MOL0     C12024   9.936   3.252   6.342  1.0891  0.1236  0.1027
   92MOL0     C12025  10.084   3.281   6.329 -1.1682 -0.4141  0.0245
   92MOL0     C12026  10.109   3.396   6.238  0.1936 -0.1781  0.1748
   92MOL0     C12027  10.261   3.419   6.199  0.4093  0.4212  0.1521
   92MOL0     C12028  10.280   3.565   6.186 -0.3788 -0.5128 -0.4745
   92MOL0     N12029  10.421   3.605   6.151 -0.6937  0.4412  0.1037
   92MOL0     C12030  10.524   3.521   6.105  0.0053 -0.5508  0.5738
   92MOL0     C12031  10.634   3.576   6.155  1.1807 -0.4173 -0.8605
   92MOL0     C12032  10.765   3.518   6.134  0.0857  0.0874 -0.0258
   92MOL0     C12033  10.791   3.394   6.221  0.5419  0.2646  0.9048
   92MOL0     C12034  10.757   3.399   6.365  1.1367  0.3032  0.0429
   92MOL0     C12035  10.859   3.493   6.443 -0.2723  0.9815  0.0622
   92MOL0     O12036  10.993   3.448   6.430  0.3839  0.7636 -0.1216
   92MOL0     C12037  11.080   3.513   6.506 -0.3479 -0.8537 -0.3924
   92MOL0     C12038  11.085   3.501   6.650  0.3194 -0.0098  0.6085
   92MOL0     C12039  11.180   3.577   6.725 -1.1782 -0.2487  0.0170
   92MOL0     C12040  11.270   3.662   6.652 -0.4356 -0.0648 -0.0689
   92MOL0     C12041  11.377   3.733   6.726  0.5830  0.9735 -0.3088
   92MOL0     O12042  11.416   3.849   6.665 -0.5773 -0.8024  0.3827
   92MOL0     C12043  11.521   3.915   6.723 -0.1085 -0.0400  0.0597
   92MOL0     C12044  11.649   3.860   6.772  0.8634  0.3471  0.3399
   92MOL0     C12045  11.754   3.946   6.826 -0.2119 -0.4660  0.1159
   92MOL0     C12046  11.729   4.088   6.849  0.1920 -0.3787  0.0345
   92MOL0     O12047  11.819   4.185   6.899  0.7310  0.8667 -0.1062
   92MOL0     C12048  11.933   4.131   6.970  0.4647 -0.1300  0.3030
   92MOL0     C12049  12.015   4.251   7.019 -1.2256  0.0338  0.0106
   92MOL0     C12050  12.123   4.288   6.918  0.3523  0.1467 -0.3423
   92MOL0     C12051  12.075   4.342   6.785 -0.0802 -0.4780 -0.6022
   92MOL0     C12052  12.197   4.366   6.688  0.3006 -0.2464  0.3155
   92MOL0     C12053  12.188   4.485   6.596  0.4375 -0.7133 -0.4254
   92MOL0     C12054  12.314   4.488   6.508  0.3420  0.4789 -0.2040
   92MOL0     C12055  12.294   4.605   6.425 -0.8494 -0.9446 -0.6543
   92MOL0    Cl12056  12.451   4.653   6.359  0.0964  0.3397  0.6008
   92MOL0     C12057  11.603   4.140   6.809 -0.2590  0.2109 -0.7929
   92MOL0     C12058  11.512   4.052   6.744  0.2855 -0.6988  0.3925
   92MOL0     O12059  11.417   3.689   6.838  0.6280  0.0263  0.1027
   92MOL0     C12060  11.262   3.664   6.518 -1.0249  0.3833  0.5904
   92MOL0     C12061  11.166   3.596   6.442 -0.1234  0.7318 -0.5014
   92MOL0     N12062  10.613   3.696   6.228 -0.6002  0.6897  0.1595
   92MOL0     N12063  10.477   3.710   6.226 -0.2459  0.0162 -0.0700
   92MOL0     C12064   9.415   3.488   6.296 -0.6735  0.1325 -0.0751
   92MOL0     C12065   9.334   3.599   6.265 -0.3764  0.5449  0.2779
   92MOL0     C12066   9.093   3.895   6.068  0.3552 -0.4702 -0.9882
   92MOL0     C12067   9.012   3.921   5.956  0.1309  0.5230  0.5417
   92MOL0     C12068   8.916   4.017   5.959  0.1993 -0.2527 -0.4218
   92MOL0     C12069   8.891   4.082   6.079 -0.7386 -0.4677 -0.2937
   92MOL0     O12070   8.796   4.189   6.083 -0.4035 -0.4016  0.2598
   92MOL0     C12071   8.717   4.239   5.969  0.3718 -0.0721  0.2781
   92MOL0     C12072   8.594   4.148   5.948 -1.1687  0.2168 -0.2146
   92MOL0     C12073   8.492   4.183   6.052 -0.2747  0.0297 -0.3106
   92MOL0     C12074   8.398   4.066   6.087  0.3193  0.6969 -0.4091
   92MOL0     C12075   8.316   4.008   5.982  0.0126  0.1175  0.5128
   92MOL0     C12076   8.231   3.953   5.908  0.0171 -0.3866 -0.4136
   92MOL0     C12077   8.975   4.058   6.190 -0.0761 -0.0942 -0.4732
   92MOL0     C12078   9.074   3.964   6.189  0.1784 -0.0154 -0.1915
   92MOL0     H12079   9.565   3.771   6.074 -2.1308 -0.6875 -1.3110
   92MOL0     H12080   9.712   3.605   6.166 -0.0733  0.0370  0.9589
   92MOL0     H12081   9.699   3.338   6.096 -1.5098  0.0926 -0.5693
   92MOL0     H12082   9.548   3.268   6.140 -1.3907  2.3052  0.5920
   92MOL0     H12083   9.690   3.089   6.155 -2.0663 -0.3335  0.7052
   92MOL0     H12084   9.694   3.120   6.322  0.5965 -1.5945 -1.0221
   92MOL0     H12085   9.889   3.230   6.123 -0.6510  1.5693  0.5505
   92MOL0     H12086   9.919   3.072   6.213  2.1756  0.5814  1.3339
   92MOL0     H12087   9.891   3.351   6.353 -3.2212 -1.8818  2.9962
   92MOL0     H12088   9.906   3.188   6.425 -3.7698  2.2137  0.2719
   92MOL0     H12089  10.143   3.200   6.284  0.2247  0.3246  0.4517
   92MOL0     H12090  10.136   3.296   6.424  1.2059 -0.3210 -1.2114
   92MOL0     H12091  10.072   3.477   6.301  0.8553 -0.1167  0.4900
   92MOL0     H12092  10.053   3.406   6.144 -0.6574  0.2959  0.7199
   92MOL0     H12093  10.320   3.371   6.278 -1.4454  0.1878  1.4493
   92MOL0     H12094  10.290   3.377   6.102 -0.3031  1.0069 -0.3224
   92MOL0     H12095  10.238   3.616   6.273 -0.6195  1.3964 -1.6611
   92MOL0     H12096  10.218   3.588   6.100 -0.6536  1.4265  0.2030
   92MOL0     H12097  10.536   3.435   6.040  2.6796  0.6124 -0.5847
   92MOL0     H12098  10.838   3.594   6.165 -2.6348  2.1889  1.6128
   92MOL0     H12099  10.766   3.497   6.027 -2.0016  2.0780 -0.5000
   92MOL0     H12100  10.896   3.365   6.207  0.0136 -2.0943  1.3346
   92MOL0     H12101  10.732   3.314   6.174 -0.9165  1.4171  0.7024
   92MOL0     H12102  10.653   3.429   6.374  0.4603 -1.8990  0.1196
   92MOL0     H12103  10.756   3.297   6.404 -1.7391 -2.0028 -5.1155
   92MOL0     H12104  10.834   3.496   6.550  1.6914 -1.3741  0.6553
   92MOL0     H12105  10.846   3.591   6.395 -0.4082 -0.4405 -3.0757
   92MOL0     H12106  11.031   3.426   6.708 -0.3591  1.3492  1.7961
   92MOL0     H12107  11.177   3.558   6.832 -2.7795 -1.8522 -0.2529
   92MOL0     H12108  11.671   3.756   6.751  2.3992  0.7509 -0.2450
   92MOL0     H12109  11.843   3.891   6.854 -1.6492  0.0874  7.7998
   92MOL0     H12110  11.997   4.069   6.907  0.7988  1.6821 -1.2626
   92MOL0     H12111  11.899   4.070   7.053 -0.5332  2.7004  2.1060
   92MOL0     H12112  12.048   4.234   7.122 -3.6100  0.8449  0.9750
   92MOL0     H12113  11.947   4.336   7.020 -0.1342  0.9395  1.3099
   92MOL0     H12114  12.191   4.205   6.898 -0.6481 -0.6326 -0.5960
   92MOL0     H12115  12.174   4.374   6.964  0.4389  0.8559 -1.7037
   92MOL0     H12116  12.001   4.272   6.746  0.1574  0.6622 -3.3071
   92MOL0     H12117  12.020   4.435   6.799 -2.3439 -1.7149 -0.7670
   92MOL0     H12118  12.189   4.283   6.618 -1.0300  1.3673 -1.5510
   92MOL0     H12119  12.293   4.363   6.739  0.6734  1.5271 -0.2146
   92MOL0     H12120  12.177   4.574   6.658 -0.8914 -1.2639  0.1577
   92MOL0     H12121  12.089   4.490   6.550  0.4827  4.1984 -0.4883
   92MOL0     H12122  12.405   4.498   6.568 -0.4530  1.3915  0.8973
   92MOL0     H12123  12.326   4.398   6.447  0.3880  1.2682 -1.3870
   92MOL0     H12124  12.264   4.682   6.496 -0.1980 -1.8576  0.6639
   92MOL0     H12125  12.221   4.591   6.345 -0.6062  2.2199 -1.5361
   92MOL0     H12126  11.583   4.238   6.850 -2.3639 -1.5509  2.8669
   92MOL0     H12127  11.419   4.100   6.718  0.8285  0.5386  0.6612
   92MOL0     H12128  11.316   3.732   6.452 -2.8974 -1.5484 -3.2780
   92MOL0     H12129  11.159   3.606   6.334 -0.6204 -4.6419 -1.2700
   92MOL0     H12130   9.370   3.414   6.363 -1.4705  2.3003  1.9271
   92MOL0     H12131   9.238   3.598   6.316  1.2640  0.3659  3.6077
   92MOL0     H12132   9.041   3.883   5.859  3.4639  3.0802  0.3974
   92MOL0     H12133   8.868   4.027   5.862  2.1570  1.4495 -1.2984
   92MOL0     H12134   8.770   4.237   5.874 -1.3945 -0.0950 -0.7626
   92MOL0     H12135   8.671   4.336   5.988  1.5259  0.1225  2.3548
   92MOL0     H12136   8.551   4.161   5.848 -0.4555  0.0724 -0.5433
   92MOL0     H12137   8.627   4.045   5.967 -4.6867 -0.9367  0.4309
   92MOL0     H12138   8.426   4.252   5.999  0.6827 -1.2816 -3.5179
   92MOL0     H12139   8.531   4.233   6.141 -0.2776  2.4157 -1.5834
   92MOL0     H12140   8.458   3.981   6.120 -0.7316  1.0892  2.8692
   92MOL0     H12141   8.324   4.096   6.161 -1.7764 -1.1851 -1.6016
   92MOL0     H12142   8.149   3.919   5.849 -1.6730  2.3359  0.2098
   92MOL0     H12143   8.958   4.132   6.269 -1.6991 -1.2881  0.3581
   92MOL0     H12144   9.132   3.944   6.278  0.7765 -2.3117 -1.0202
   93MOL0     O12145   1.186   4.592   0.172 -0.3760  0.1470  0.0641
   93MOL0     C12146   1.093   4.553   0.111 -0.2660  0.0614  0.1131
   93MOL0     O12147   1.096   4.489  -0.006 -1.4023  0.5742  0.5486
   93MOL0     C12148   1.217   4.472  -0.070 -0.7910 -0.2631 -0.0392
   93MOL0     C12149   1.301   4.369  -0.025 -0.3175 -0.9538  1.0008
   93MOL0     C12150   1.426   4.356  -0.095  0.2319  0.5595 -0.8611
   93MOL0     C12151   1.469   4.430  -0.203 -0.1007  0.1772  0.2557
   93MOL0     O12152   1.589   4.397  -0.266  0.0635 -0.2383  0.4318
   93MOL0     C12153   1.672   4.504  -0.312  0.0810  0.4285  0.2712
   93MOL0     C12154   1.816   4.467  -0.351 -0.1149 -0.6486  0.8732
   93MOL0     C12155   1.899   4.387  -0.251  0.5046  0.5809  0.1962
   93MOL0     C12156   1.872   4.229  -0.277  0.9134 -1.2202 -0.8127
   93MOL0     C12157   1.964   4.148  -0.185 -0.7126 -0.1487 -0.7098
   93MOL0     C12158   1.897   4.076  -0.063  0.6653 -0.1938 -0.5600
   93MOL0     C12159   1.805   4.165   0.020  0.7208  0.2973 -0.4257
   93MOL0     C12160   1.885   4.267   0.107 -0.4448 -0.1168  0.0196
   93MOL0     N12161   1.984   4.204   0.201 -0.0595 -0.2107  0.5095
   93MOL0     C12162   1.956   4.164   0.334 -0.1830  0.1685  0.8128
   93MOL0     C12163   2.082   4.163   0.391  0.4561 -0.2011 -0.2536
   93MOL0     C12164   2.122   4.138   0.539 -0.2443 -0.3802  0.9287
   93MOL0     C12165   2.269   4.108   0.560  0.3442 -0.1319 -0.6502
   93MOL0     C12166   2.307   3.961   0.535  0.2226 -0.1217 -0.0792
   93MOL0     C12167   2.451   3.948   0.560 -0.0682  0.2965  0.7115
   93MOL0     O12168   2.487   3.938   0.691  0.4099 -0.1356 -1.2869
   93MOL0     C12169   2.578   3.841   0.728  0.8170 -0.5029  0.8517
   93MOL0     C12170   2.574   3.709   0.675  0.5115  0.6317 -0.5432
   93MOL0     C12171   2.672   3.619   0.722  0.5379  0.2755 -1.1513
   93MOL0     C12172   2.774   3.659   0.821  0.4346 -0.3248 -0.6975
   93MOL0     C12173   2.875   3.571   0.866  0.2348 -0.2140 -0.0781
   93MOL0     O12174   2.925   3.594   0.992 -0.3920 -0.0715 -0.3654
   93MOL0     C12175   3.010   3.511   1.050  0.1098 -0.8505 -0.1082
   93MOL0     C12176   3.150   3.542   1.046  0.5150  0.3038  0.0829
   93MOL0     C12177   3.233   3.473   1.132  0.1707  0.8136 -0.8719
   93MOL0     C12178   3.191   3.363   1.207 -0.5654  0.7890 -1.1829
   93MOL0     O12179   3.293   3.301   1.281  0.6446  0.1813  0.5313
   93MOL0     C12180   3.243   3.196   1.364  0.2209 -0.8863 -0.7049
   93MOL0     C12181   3.349   3.128   1.439 -0.3375 -0.0748 -0.4184
   93MOL0     C12182   3.429   3.210   1.529 -0.0703 -0.3856 -0.3992
   93MOL0     C12183   3.356   3.257   1.653 -1.3408  0.3657 -0.6014
   93MOL0     C12184   3.438   3.322   1.758 -0.0153 -0.1888 -0.4790
   93MOL0     C12185   3.362   3.352   1.885 -0.0519 -1.0225 -0.2534
   93MOL0     C12186   3.328   3.231   1.971 -0.0128 -0.2941 -1.4621
   93MOL0     C12187   3.464   3.160   2.040 -0.0830  0.2147 -0.0342
   93MOL0    Cl12188   3.408   3.015   2.141 -0.4458 -0.5817 -0.0992
   93MOL0     C12189   3.050   3.336   1.218 -0.3077  0.9598 -0.1483
   93MOL0     C12190   2.967   3.407   1.128 -0.8391 -0.4092 -0.6602
   93MOL0     O12191   2.908   3.481   0.795 -0.0347  1.1678  0.2623
   93MOL0     C12192   2.770   3.796   0.864 -0.6088 -0.0083 -0.2390
   93MOL0     C12193   2.668   3.884   0.821  0.5486 -0.5643  0.1902
   93MOL0     N12194   2.169   4.210   0.303  0.4112 -0.4266  0.6719
   93MOL0     N12195   2.110   4.235   0.185  0.6293  0.5439 -0.0542
   93MOL0     C12196   1.380   4.547  -0.231 -0.1749 -0.1637 -0.0587
   93MOL0     C12197   1.252   4.557  -0.172 -0.7040 -0.3657  0.9111
   93MOL0     C12198   0.966   4.561   0.180 -0.3765 -0.2167 -0.7729
   93MOL0     C12199   0.847   4.509   0.129  0.6603  0.5796  0.0962
   93MOL0     C12200   0.720   4.527   0.192 -0.0974 -0.9672  0.6963
   93MOL0     C12201   0.710   4.592   0.314 -0.5286 -0.3283 -0.9238
   93MOL0     O12202   0.598   4.640   0.367 -0.1973 -0.2416 -0.1215
   93MOL0     C12203   0.476   4.570   0.321 -0.0579  0.2596  0.0884
   93MOL0     C12204   0.354   4.633   0.386 -0.4184  0.0046 -0.5573
   93MOL0     C12205   0.350   4.578   0.530 -0.4618 -0.3668 -0.0311
   93MOL0     C12206   0.243   4.648   0.615  0.5897 -0.4876 -0.3586
   93MOL0     C12207   0.227   4.581   0.746 -0.3012  0.3674 -0.7132
   93MOL0     C12208   0.199   4.529   0.854  0.0666  0.1804  0.5389
   93MOL0     C12209   0.828   4.645   0.368  0.6904  0.0352 -0.0821
   93MOL0     C12210   0.950   4.625   0.308 -0.0540 -0.1950  0.5030
   93MOL0     H12211   1.285   4.300   0.057  2.1083 -2.3224  0.4219
   93MOL0     H12212   1.492   4.280  -0.056 -0.8522  0.5136  0.9954
   93MOL0     H12213   1.680   4.588  -0.243  0.5625 -0.4977  1.3700
   93MOL0     H12214   1.626   4.536  -0.407 -0.2873  0.2376  0.3842
   93MOL0     H12215   1.865   4.565  -0.354 -1.8434  0.2391 -0.3303
   93MOL0     H12216   1.822   4.420  -0.450 -0.4690  2.7665 -0.9238
   93MOL0     H12217   1.861   4.407  -0.150  3.0405 -1.6334  1.7222
   93MOL0     H12218   2.004   4.413  -0.264  0.7607 -1.0341 -1.3349
   93MOL0     H12219   1.774   4.200  -0.236  2.2417 -0.8572  3.0556
   93MOL0     H12220   1.881   4.211  -0.384  1.3856  0.0668 -1.0091
   93MOL0     H12221   2.050   4.200  -0.141 -0.2660 -1.0671 -0.4758
   93MOL0     H12222   2.009   4.071  -0.247  3.0930  0.2669  1.2558
   93MOL0     H12223   1.982   4.042  -0.004 -0.4779  0.7092  1.7552
   93MOL0     H12224   1.836   3.989  -0.088 -0.6349  0.0939  1.3650
   93MOL0     H12225   1.728   4.210  -0.043 -0.2947 -1.1477 -0.2640
   93MOL0     H12226   1.756   4.093   0.085  1.1248 -0.4790 -0.9534
   93MOL0     H12227   1.814   4.330   0.161 -1.1894 -2.4452  1.9296
   93MOL0     H12228   1.942   4.338   0.045 -0.5937 -1.4623 -1.7444
   93MOL0     H12229   1.863   4.132   0.380 -0.5399  1.8180  1.3011
   93MOL0     H12230   2.059   4.064   0.589 -3.2816 -1.3103 -3.6846
   93MOL0     H12231   2.105   4.232   0.593 -1.6363  0.9188 -1.6038
   93MOL0     H12232   2.294   4.133   0.664 -1.6989  2.1257 -0.6035
   93MOL0     H12233   2.327   4.174   0.494  1.2416 -0.3850 -0.1405
   93MOL0     H12234   2.257   3.905   0.614  2.4670 -0.3165  1.2700
   93MOL0     H12235   2.286   3.920   0.436 -1.0300  0.4098 -0.0530
   93MOL0     H12236   2.514   4.023   0.511  1.5760 -2.7116 -2.2249
   93MOL0     H12237   2.500   3.860   0.515  3.7901  1.1963  2.6918
   93MOL0     H12238   2.486   3.682   0.618 -0.0500 -0.2335  0.6823
   93MOL0     H12239   2.676   3.522   0.675  2.5984 -0.6315  0.7167
   93MOL0     H12240   3.175   3.620   0.975  0.9862 -3.1297 -3.9124
   93MOL0     H12241   3.341   3.482   1.127  0.5371 -1.8723  0.2394
   93MOL0     H12242   3.185   3.121   1.310 -3.0016 -0.7499  2.1670
   93MOL0     H12243   3.180   3.247   1.437 -0.0154  2.3235 -2.9686
   93MOL0     H12244   3.416   3.067   1.376  0.1920  0.0138  0.0512
   93MOL0     H12245   3.309   3.050   1.505  3.5704 -0.1046  2.2998
   93MOL0     H12246   3.488   3.285   1.475  1.0992 -1.6577 -0.9571
   93MOL0     H12247   3.509   3.145   1.568 -0.0616  0.0813  0.3806
   93MOL0     H12248   3.268   3.318   1.631 -2.3302 -0.4292  0.9606
   93MOL0     H12249   3.312   3.171   1.703 -0.4254  1.5589  2.4574
   93MOL0     H12250   3.473   3.416   1.714  0.9768 -0.5298 -0.4340
   93MOL0     H12251   3.527   3.260   1.772 -0.0954 -0.2460 -0.2323
   93MOL0     H12252   3.264   3.395   1.860 -0.3484 -0.3595  1.8481
   93MOL0     H12253   3.399   3.435   1.946 -4.2758  0.1773  1.0624
   93MOL0     H12254   3.269   3.268   2.056  3.8921  0.3186  1.2907
   93MOL0     H12255   3.270   3.160   1.912 -3.7395  1.5816 -0.3781
   93MOL0     H12256   3.506   3.245   2.096 -2.3840  1.8374 -0.6258
   93MOL0     H12257   3.535   3.142   1.959  2.1830  1.7476  1.4826
   93MOL0     H12258   3.016   3.268   1.294  2.7767 -1.4008 -0.6924
   93MOL0     H12259   2.859   3.397   1.126 -0.9369  0.4130 -0.1363
   93MOL0     H12260   2.841   3.840   0.932 -1.8751 -0.5478  1.5012
   93MOL0     H12261   2.663   3.991   0.836 -2.2087 -0.2161 -2.2238
   93MOL0     H12262   1.394   4.623  -0.306 -2.5630  0.4723  0.0679
   93MOL0     H12263   1.183   4.630  -0.213  0.3933  0.1301 -0.1206
   93MOL0     H12264   0.836   4.462   0.031  2.3162 -0.8326  0.5451
   93MOL0     H12265   0.634   4.489   0.138  0.0895 -1.0938  0.4858
   93MOL0     H12266   0.473   4.463   0.346 -0.5882  0.0603 -0.7756
   93MOL0     H12267   0.467   4.581   0.212  0.1887 -3.3359 -0.4443
   93MOL0     H12268   0.360   4.742   0.388 -3.5823  0.2632  0.6815
   93MOL0     H12269   0.271   4.592   0.327 -1.2911 -0.3704  0.8854
   93MOL0     H12270   0.443   4.576   0.588 -0.6884  0.5634  0.3796
   93MOL0     H12271   0.336   4.469   0.525  2.5335 -0.7922 -1.3800
   93MOL0     H12272   0.263   4.756   0.613 -0.0524 -0.3686 -0.8346
   93MOL0     H12273   0.146   4.653   0.564 -0.9388  1.7040  2.4756
   93MOL0     H12274   0.191   4.479   0.949  1.8132 -1.0641  0.0764
   93MOL0     H12275   0.838   4.706   0.457 -1.9898  0.5328 -0.0403
   93MOL0     H12276   1.041   4.648   0.363 -0.7852 -0.8958  2.0868
   94MOL0     O12277  11.116   5.720   7.279  0.1251 -0.1278  0.2419
   94MOL0     C12278  11.105   5.794   7.180  0.6049 -0.1275  0.5586
   94MOL0     O12279  11.003   5.793   7.092  0.5914  0.4301  0.3417
   94MOL0     C12280  10.896   5.701   7.114  0.5574  1.0387 -0.2206
   94MOL0     C12281  10.872   5.601   7.014  0.8074  0.2859  0.4052
   94MOL0     C12282  10.759   5.516   7.036  0.8191 -0.4009  0.1574
   94MOL0     C12283  10.670   5.528   7.149  0.4826 -0.2115  1.7597
   94MOL0     O12284  10.569   5.436   7.163 -0.0584  0.4700 -0.2828
   94MOL0     C12285  10.441   5.472   7.219  0.2139  0.1172  0.3491
   94MOL0     C12286  10.380   5.595   7.155 -0.4271 -0.3293 -0.5938
   94MOL0     C12287  10.245   5.630   7.206 -0.2949  0.4626 -0.6787
   94MOL0     C12288  10.233   5.636   7.360  1.0374  0.2312 -0.4496
   94MOL0     C12289  10.098   5.684   7.407 -0.7655 -0.2157 -1.1663
   94MOL0     C12290  10.055   5.683   7.561 -0.3031  0.1240 -0.2181
   94MOL0     C12291  10.038   5.537   7.613  0.3420 -0.4342 -0.4157
   94MOL0     C12292   9.887   5.497   7.619 -1.1173  0.6623 -0.2888
   94MOL0     N12293   9.866   5.393   7.717 -0.4800 -0.3148 -0.6797
   94MOL0     C12294   9.928   5.273   7.713  0.2596  0.4908 -0.6452
   94MOL0     C12295   9.853   5.208   7.809 -0.2145  0.6717 -0.0206
   94MOL0     C12296   9.851   5.062   7.822 -0.4874  0.1516 -0.2395
   94MOL0     C12297   9.951   5.005   7.904  0.0098 -0.9320  1.2815
   94MOL0     C12298  10.092   5.015   7.834 -0.6138  0.4902 -0.4123
   94MOL0     C12299  10.209   5.017   7.932 -1.7591 -0.0844  0.3982
   94MOL0     O12300  10.330   5.045   7.859  0.2290 -0.5053  0.3121
   94MOL0     C12301  10.453   5.041   7.921 -0.7925  0.1694 -0.6538
   94MOL0     C12302  10.477   4.992   8.050 -1.1333  0.3470 -1.1746
   94MOL0     C12303  10.601   4.995   8.121  0.5931  0.1034  0.2205
   94MOL0     C12304  10.704   5.043   8.046 -0.1912  0.5486 -0.1969
   94MOL0     C12305  10.843   5.028   8.106  0.2323  0.4918  0.9174
   94MOL0     O12306  10.947   5.063   8.026 -0.9520 -0.1350 -0.0221
   94MOL0     C12307  11.080   5.049   8.061 -0.1037 -0.4721 -0.6663
   94MOL0     C12308  11.165   5.141   8.010 -0.0539 -0.8283 -0.1259
   94MOL0     C12309  11.304   5.135   8.030  0.9073  0.0878  0.2132
   94MOL0     C12310  11.350   5.018   8.107  0.2363 -0.2798 -0.1043
   94MOL0     O12311  11.487   5.006   8.105 -0.3015  0.2028  0.3626
   94MOL0     C12312  11.566   4.932   8.203  0.1565  0.4360 -0.4323
   94MOL0     C12313  11.677   4.868   8.127  0.0584 -0.0837 -0.2190
   94MOL0     C12314  11.787   4.966   8.093  0.9914 -0.3803 -0.7231
   94MOL0     C12315  11.902   4.876   8.042 -0.0124 -0.4752 -0.2485
   94MOL0     C12316  12.012   4.870   8.154 -0.1136  0.2283 -0.4219
   94MOL0     C12317  12.152   4.826   8.093  0.0666  0.8808  0.2465
   94MOL0     C12318  12.260   4.825   8.202 -0.1273  0.2356  0.0913
   94MOL0     C12319  12.398   4.789   8.148 -0.4236 -0.3655  0.2509
   94MOL0    Cl12320  12.533   4.834   8.266  0.3281  0.2001 -0.0323
   94MOL0     C12321  11.266   4.928   8.163  0.6161 -0.9236  0.2257
   94MOL0     C12322  11.129   4.950   8.146 -0.4684  0.5515 -0.2382
   94MOL0     O12323  10.849   4.987   8.222  0.1717 -0.0608 -0.3940
   94MOL0     C12324  10.682   5.076   7.913  0.0256 -0.0805  0.3695
   94MOL0     C12325  10.563   5.077   7.846 -0.9969  0.4061 -0.6953
   94MOL0     N12326   9.760   5.298   7.869  0.3356  0.2364  0.1008
   94MOL0     N12327   9.772   5.409   7.803 -0.1496  0.3549  0.4192
   94MOL0     C12328  10.708   5.620   7.244 -0.8128 -0.6719  0.7578
   94MOL0     C12329  10.821   5.702   7.226  0.4125 -0.1033 -0.5674
   94MOL0     C12330  11.212   5.887   7.143  0.2884 -0.5751 -0.9378
   94MOL0     C12331  11.196   5.947   7.018 -0.0153  0.1175 -0.1318
   94MOL0     C12332  11.300   6.030   6.982 -0.7896 -1.1150 -0.0680
   94MOL0     C12333  11.401   6.072   7.080 -0.3975 -0.0126 -0.0576
   94MOL0     O12334  11.487   6.177   7.058 -0.0944 -0.2268  0.2039
   94MOL0     C12335  11.528   6.279   7.159 -1.1722 -0.0373  0.6207
   94MOL0     C12336  11.408   6.371   7.197  0.1417 -0.1950  0.3584
   94MOL0     C12337  11.360   6.339   7.332 -0.4574  0.0039 -0.7969
   94MOL0     C12338  11.244   6.429   7.373 -0.1267 -0.0855 -0.3159
   94MOL0     C12339  11.116   6.408   7.304  0.0295  1.1473  0.8244
   94MOL0     C12340  11.010   6.371   7.257  0.1818 -0.5397 -0.0219
   94MOL0     C12341  11.403   6.017   7.205 -0.6197  0.3071 -0.7623
   94MOL0     C12342  11.314   5.916   7.237  0.8675  0.0506  0.6584
   94MOL0     H12343  10.932   5.596   6.923  1.5816 -1.2302  0.9590
   94MOL0     H12344  10.731   5.451   6.955  0.5779 -0.7800  0.5436
   94MOL0     H12345  10.451   5.481   7.327 -1.3978  2.5415  0.3673
   94MOL0     H12346  10.378   5.383   7.208 -1.2257  0.8823  1.9737
   94MOL0     H12347  10.377   5.567   7.049  2.0021 -4.6665  0.2473
   94MOL0     H12348  10.454   5.670   7.186  0.3896 -1.0835 -0.6720
   94MOL0     H12349  10.164   5.571   7.164  1.3708 -0.7480 -2.3533
   94MOL0     H12350  10.219   5.729   7.166  0.8563  1.3747  0.7080
   94MOL0     H12351  10.255   5.544   7.415 -2.7474 -0.0397  0.9610
   94MOL0     H12352  10.307   5.702   7.407  0.3665 -0.2144  1.3314
   94MOL0     H12353  10.017   5.621   7.368 -3.0037 -1.3325  4.3450
   94MOL0     H12354  10.096   5.789   7.378 -1.8081  0.6296  1.6618
   94MOL0     H12355   9.967   5.748   7.568 -0.1615  0.3263 -0.3017
   94MOL0     H12356  10.137   5.732   7.614 -0.8072 -0.2496  0.9346
   94MOL0     H12357  10.103   5.465   7.562  1.8018 -1.8138  3.0821
   94MOL0     H12358  10.076   5.543   7.715  0.6409 -0.9250 -0.4915
   94MOL0     H12359   9.856   5.462   7.520  1.0223  2.7339 -1.8056
   94MOL0     H12360   9.825   5.584   7.642 -0.0013  0.6494  3.3647
   94MOL0     H12361   9.999   5.244   7.636  2.3777  2.6582  0.3691
   94MOL0     H12362   9.868   5.025   7.721  0.8688  2.4949 -0.9465
   94MOL0     H12363   9.751   5.035   7.858 -0.8935 -1.1168 -2.1779
   94MOL0     H12364   9.923   4.900   7.918 -5.1724  0.2250  1.4279
   94MOL0     H12365   9.957   5.050   8.003  1.1117  0.9501  0.4235
   94MOL0     H12366  10.107   4.925   7.773 -1.1492 -0.9810  1.5420
   94MOL0     H12367  10.093   5.107   7.774 -1.9798  2.0604  1.8293
   94MOL0     H12368  10.213   4.923   7.988  3.3087 -0.2346  0.2551
   94MOL0     H12369  10.188   5.095   8.005  0.0209  2.9943 -2.1509
   94MOL0     H12370  10.391   4.966   8.111  0.3070 -2.7605 -0.3085
   94MOL0     H12371  10.613   4.968   8.225 -0.6619  0.6227  0.5201
   94MOL0     H12372  11.127   5.220   7.946 -0.1048 -0.6327  0.1449
   94MOL0     H12373  11.369   5.204   7.978  0.9606 -1.4797 -1.9119
   94MOL0     H12374  11.504   4.849   8.237 -2.2349  2.0478 -0.6216
   94MOL0     H12375  11.600   4.996   8.285  0.6052  0.2226 -0.4492
   94MOL0     H12376  11.650   4.817   8.034  3.1656 -0.5924 -0.9857
   94MOL0     H12377  11.714   4.779   8.179 -1.1547 -0.4401  0.0493
   94MOL0     H12378  11.819   5.018   8.183  1.1169 -1.4915 -0.1005
   94MOL0     H12379  11.747   5.044   8.027 -3.6138 -2.7379 -1.1531
   94MOL0     H12380  11.860   4.779   8.016 -0.8478  0.1888 -1.4470
   94MOL0     H12381  11.950   4.909   7.949  3.2739 -1.2694  0.9983
   94MOL0     H12382  11.973   4.809   8.237  0.1705 -2.0945 -1.9064
   94MOL0     H12383  12.047   4.968   8.187  1.3974 -0.9790  1.8829
   94MOL0     H12384  12.171   4.892   8.008  0.8421 -0.2493 -0.4802
   94MOL0     H12385  12.145   4.725   8.052  3.5405 -0.1013  1.7141
   94MOL0     H12386  12.266   4.926   8.244  0.9925 -0.7117  2.3313
   94MOL0     H12387  12.235   4.757   8.283 -0.0242  0.3157  0.1896
   94MOL0     H12388  12.412   4.831   8.048 -1.6889 -0.0678  0.1936
   94MOL0     H12389  12.401   4.681   8.132  1.9410 -0.2829 -0.2859
   94MOL0     H12390  11.299   4.854   8.235 -1.1376  0.4221  2.5500
   94MOL0     H12391  11.060   4.881   8.194 -0.6181  1.8507  1.5093
   94MOL0     H12392  10.766   5.108   7.851  1.4901  3.5892  3.7983
   94MOL0     H12393  10.561   5.105   7.741  1.0045  1.1377 -0.5840
   94MOL0     H12394  10.644   5.631   7.331 -2.3078 -0.3409 -0.3362
   94MOL0     H12395  10.856   5.777   7.297  2.3137  0.3544 -1.9184
   94MOL0     H12396  11.123   5.925   6.940  0.5489 -0.0171 -0.6267
   94MOL0     H12397  11.296   6.085   6.888  0.2267  1.0441  1.0841
   94MOL0     H12398  11.600   6.346   7.111  0.4554 -1.7921  0.4934
   94MOL0     H12399  11.566   6.225   7.246  0.0747 -1.9337 -0.9839
   94MOL0     H12400  11.446   6.473   7.193 -1.5767  0.4493 -1.8685
   94MOL0     H12401  11.321   6.362   7.131 -1.0273 -2.6343  2.0495
   94MOL0     H12402  11.445   6.364   7.396 -2.0026 -0.3492  1.4980
   94MOL0     H12403  11.332   6.233   7.331 -1.9477  0.3583  0.0913
   94MOL0     H12404  11.229   6.417   7.481 -2.3271 -1.3917 -0.6944
   94MOL0     H12405  11.288   6.528   7.360 -0.3274 -0.3326 -3.9959
   94MOL0     H12406  10.912   6.347   7.222 -0.5822  0.7899  1.1256
   94MOL0     H12407  11.483   6.038   7.276 -2.3085 -0.5373  1.5033
   94MOL0     H12408  11.317   5.855   7.327  1.6953  0.5502  0.9738
   95MOL0     O12409   7.019   2.306   7.714 -0.2493  0.0769  0.4694
   95MOL0     C12410   7.046   2.397   7.631  0.3391  1.3818 -0.2604
   95MOL0     O12411   6.957   2.491   7.593  0.0079 -0.9090  0.2297
   95MOL0     C12412   6.836   2.518   7.650 -0.2574  0.0148 -0.2746
   95MOL0     C12413   6.827   2.566   7.781  0.7339  0.7830  0.2368
   95MOL0     C12414   6.700   2.605   7.834  0.1741  0.3078 -0.3319
   95MOL0     C12415   6.581   2.607   7.755  0.5815  0.2980  0.0801
   95MOL0     O12416   6.464   2.643   7.816  0.0887 -0.4709  0.2562
   95MOL0     C12417   6.344   2.660   7.738  0.6363  0.3885  0.5999
   95MOL0     C12418   6.227   2.734   7.802  0.1966  0.1457  0.3798
   95MOL0     C12419   6.089   2.706   7.749  1.4673  0.1237  0.1805
   95MOL0     C12420   5.980   2.787   7.829 -0.7134 -0.1863  0.5321
   95MOL0     C12421   5.838   2.775   7.763  0.1132 -0.4682 -0.1455
   95MOL0     C12422   5.735   2.837   7.855 -0.6951  0.1202 -0.5403
   95MOL0     C12423   5.599   2.787   7.829  0.2486  0.2823 -0.6043
   95MOL0     C12424   5.511   2.834   7.939  1.4515  0.3727 -1.3589
   95MOL0     N12425   5.374   2.855   7.899  0.4899 -0.2095  0.7630
   95MOL0     C12426   5.288   2.950   7.936 -0.1421 -0.2744  0.3052
   95MOL0     C12427   5.177   2.945   7.853 -0.7442 -0.1985 -0.2152
   95MOL0     C12428   5.062   3.042   7.862 -0.0505  0.5085  0.6457
   95MOL0     C12429   4.945   2.988   7.944 -0.5203 -0.6609 -0.6752
   95MOL0     C12430   4.873   2.873   7.876  0.0493  0.1879 -0.6654
   95MOL0     C12431   4.872   2.743   7.950  0.1698  0.0581  0.1266
   95MOL0     O12432   4.807   2.770   8.079 -0.5384 -0.4779 -0.2268
   95MOL0     C12433   4.667   2.758   8.081 -0.6578  0.3852 -0.2036
   95MOL0     C12434   4.603   2.774   8.199 -0.0090  0.7559  0.2606
   95MOL0     C12435   4.460   2.743   8.219 -0.2886 -0.5281  0.3706
   95MOL0     C12436   4.386   2.712   8.099  1.0423 -0.3011 -0.3131
   95MOL0     C12437   4.234   2.705   8.121 -0.0178  0.7215  0.8637
   95MOL0     O12438   4.167   2.665   8.010  0.6494 -0.5477 -0.0018
   95MOL0     C12439   4.032   2.658   8.023 -0.8667  0.2003 -0.0530
   95MOL0     C12440   3.951   2.773   8.010 -0.1231  0.0999  0.2607
   95MOL0     C12441   3.813   2.760   8.010  0.5859 -0.0565  0.1678
   95MOL0     C12442   3.750   2.635   8.021 -0.5799  0.2613 -0.1701
   95MOL0     O12443   3.609   2.635   8.011 -0.5181 -0.2258  0.2788
   95MOL0     C12444   3.534   2.517   8.028 -0.0927 -0.2743  0.2959
   95MOL0     C12445   3.392   2.558   8.000 -0.5218  0.9612 -0.6482
   95MOL0     C12446   3.290   2.440   8.014  0.0206  0.0787  0.0060
   95MOL0     C12447   3.157   2.496   8.057 -1.3588  0.0598 -0.3570
   95MOL0     C12448   3.048   2.389   8.076 -0.7845  0.5247  0.2178
   95MOL0     C12449   2.917   2.439   8.026  1.4202 -0.4355  0.8784
   95MOL0     C12450   2.801   2.341   8.051  0.7602 -0.9132 -0.5838
   95MOL0     C12451   2.670   2.391   7.985 -0.6764  1.1147  0.5103
   95MOL0    Cl12452   2.598   2.506   8.090 -0.5133 -0.3528  0.2731
   95MOL0     C12453   3.834   2.524   8.036 -0.9636  0.5401  0.0808
   95MOL0     C12454   3.975   2.533   8.029  0.7709 -0.4714 -0.3892
   95MOL0     O12455   4.182   2.738   8.227 -0.2720 -0.4042  0.0638
   95MOL0     C12456   4.448   2.709   7.975  0.0555 -0.3436  0.6776
   95MOL0     C12457   4.581   2.742   7.970 -0.2012  0.7353  0.2220
   95MOL0     N12458   5.200   2.845   7.762  0.6615  0.1529 -0.6014
   95MOL0     N12459   5.314   2.792   7.795 -0.6374 -0.3851 -0.2714
   95MOL0     C12460   6.592   2.555   7.626  0.4822  0.6415  0.8702
   95MOL0     C12461   6.721   2.510   7.568 -0.2591  0.2334 -0.2435
   95MOL0     C12462   7.185   2.413   7.582  0.0477  0.5917  0.0590
   95MOL0     C12463   7.282   2.309   7.585  0.5747 -0.0013 -1.0828
   95MOL0     C12464   7.405   2.325   7.523 -0.0934 -0.1845  0.4035
   95MOL0     C12465   7.431   2.437   7.438 -0.6104 -0.2232  0.0756
   95MOL0     O12466   7.543   2.457   7.363 -0.5717 -0.6575  0.4723
   95MOL0     C12467   7.654   2.373   7.376 -0.5025  1.0118 -0.2897
   95MOL0     C12468   7.751   2.405   7.488  0.2888 -0.3766 -0.5894
   95MOL0     C12469   7.857   2.292   7.490 -0.5280  0.1327 -0.2272
   95MOL0     C12470   7.914   2.296   7.629  0.1554  0.4509  0.3393
   95MOL0     C12471   7.999   2.419   7.654 -0.0288 -0.1843  0.7180
   95MOL0     C12472   8.062   2.519   7.663  0.4384 -0.2439 -0.4723
   95MOL0     C12473   7.336   2.535   7.429 -0.1448 -0.2662  0.6023
   95MOL0     C12474   7.216   2.527   7.512 -0.0475 -0.6129  0.6471
   95MOL0     H12475   6.906   2.568   7.856 -0.0949 -2.5833  1.3886
   95MOL0     H12476   6.705   2.633   7.939 -1.9791  0.5497 -0.2460
   95MOL0     H12477   6.304   2.563   7.710  2.1643  0.7670 -3.4896
   95MOL0     H12478   6.353   2.707   7.640 -3.1956 -0.0821 -0.1451
   95MOL0     H12479   6.249   2.841   7.801  2.5235 -0.2638  1.1569
   95MOL0     H12480   6.226   2.701   7.906  2.0323 -2.4778 -0.3160
   95MOL0     H12481   6.056   2.601   7.745 -1.7953  0.9584  1.7804
   95MOL0     H12482   6.083   2.739   7.645 -0.7410  1.6794  0.7202
   95MOL0     H12483   5.978   2.753   7.933 -2.2584  2.8314  1.5816
   95MOL0     H12484   6.009   2.892   7.821 -2.3047  0.2012 -0.7137
   95MOL0     H12485   5.809   2.670   7.755 -2.4812  0.0605  1.2130
   95MOL0     H12486   5.833   2.819   7.663  0.4622  0.8993  0.4108
   95MOL0     H12487   5.736   2.946   7.863  0.8765 -0.0257  2.8989
   95MOL0     H12488   5.753   2.792   7.953 -4.2559 -4.0166 -1.4737
   95MOL0     H12489   5.554   2.832   7.740  1.6959  2.4625 -0.3148
   95MOL0     H12490   5.609   2.679   7.825  0.6824  0.3176 -0.5716
   95MOL0     H12491   5.538   2.929   7.986 -0.9565  1.2165 -1.5443
   95MOL0     H12492   5.509   2.753   8.013  1.5927  1.1410 -0.5013
   95MOL0     H12493   5.298   3.014   8.024  1.4186 -2.0806  1.5290
   95MOL0     H12494   5.022   3.060   7.761  0.2547 -2.5016 -0.1101
   95MOL0     H12495   5.097   3.134   7.910  1.1741 -0.0437  0.8277
   95MOL0     H12496   4.875   3.068   7.968  0.2825 -0.6536  2.0666
   95MOL0     H12497   4.981   2.956   8.042 -1.9306 -0.2027  0.0207
   95MOL0     H12498   4.771   2.908   7.857 -0.2963 -0.1120  0.5729
   95MOL0     H12499   4.910   2.854   7.775  2.0114  1.2307 -0.2031
   95MOL0     H12500   4.972   2.709   7.978 -0.0943 -0.1124  0.8787
   95MOL0     H12501   4.825   2.668   7.885  5.7345 -2.4531 -1.5719
   95MOL0     H12502   4.661   2.809   8.283  0.6461  2.0483 -0.6927
   95MOL0     H12503   4.418   2.763   8.317 -3.0687  0.3203 -0.8630
   95MOL0     H12504   4.006   2.865   7.996  0.6964 -0.5445 -1.0131
   95MOL0     H12505   3.751   2.848   8.001  0.2869 -0.3682 -0.9263
   95MOL0     H12506   3.551   2.471   8.126 -1.2181 -0.2834  0.4967
   95MOL0     H12507   3.567   2.438   7.960 -1.5683 -2.3948  1.9224
   95MOL0     H12508   3.388   2.604   7.901 -1.5034  0.0865 -1.0316
   95MOL0     H12509   3.371   2.641   8.068  3.1640 -1.0234  3.4149
   95MOL0     H12510   3.325   2.390   8.104 -0.1035  1.9496  1.1483
   95MOL0     H12511   3.286   2.381   7.921  1.3428  0.3046 -0.2238
   95MOL0     H12512   3.164   2.558   8.147 -0.5053 -0.5960  0.0419
   95MOL0     H12513   3.123   2.568   7.982 -1.7213  1.1966  0.8542
   95MOL0     H12514   3.059   2.346   8.176  2.4122  2.1736  0.7316
   95MOL0     H12515   3.077   2.304   8.013  1.2626  1.5845 -0.3598
   95MOL0     H12516   2.912   2.466   7.920 -3.8190 -1.3512  0.5856
   95MOL0     H12517   2.896   2.536   8.073  5.8849  1.4347 -0.4972
   95MOL0     H12518   2.822   2.241   8.012 -3.1869 -0.8728 -3.4056
   95MOL0     H12519   2.788   2.326   8.159 -1.1028  1.7253 -0.3342
   95MOL0     H12520   2.611   2.302   7.962 -1.9606  2.6984 -3.1791
   95MOL0     H12521   2.691   2.427   7.884  0.0083  0.1572  0.2970
   95MOL0     H12522   3.787   2.426   8.042 -1.3714  0.6370 -1.2012
   95MOL0     H12523   4.039   2.445   8.028 -2.4617 -3.1247 -3.7759
   95MOL0     H12524   4.392   2.670   7.891 -0.7935 -1.3692  1.6826
   95MOL0     H12525   4.622   2.736   7.869 -0.0222  0.1805  0.3282
   95MOL0     H12526   6.500   2.549   7.569 -0.4131  0.8785  2.2487
   95MOL0     H12527   6.710   2.471   7.467 -0.1865  2.1213 -1.0307
   95MOL0     H12528   7.264   2.221   7.646  2.0891  0.0535 -0.5290
   95MOL0     H12529   7.478   2.246   7.533  0.6663  0.4322 -0.0696
   95MOL0     H12530   7.718   2.381   7.287  0.6317 -2.0787  0.1169
   95MOL0     H12531   7.619   2.269   7.382 -0.4359  0.9942 -0.2097
   95MOL0     H12532   7.795   2.504   7.487 -0.6208  0.2201  3.0284
   95MOL0     H12533   7.695   2.414   7.582  0.8716 -0.5794 -0.2161
   95MOL0     H12534   7.932   2.312   7.413 -3.2294  0.7679 -2.8675
   95MOL0     H12535   7.819   2.191   7.473 -2.4281  0.6194  0.7923
   95MOL0     H12536   7.843   2.293   7.712  1.6256  1.1318  1.6845
   95MOL0     H12537   7.985   2.215   7.650  0.3181 -0.0284 -1.8945
   95MOL0     H12538   8.106   2.616   7.663 -3.0077  1.4989 -2.5259
   95MOL0     H12539   7.366   2.628   7.382  2.7593 -0.7394  1.3485
   95MOL0     H12540   7.144   2.608   7.510 -0.7126 -1.2064  0.3367
   96MOL0     O12541  11.001  10.130   7.834  0.0628  0.0125  0.3347
   96MOL0     C12542  10.991  10.053   7.736 -0.6349 -1.0352  0.2774
   96MOL0     O12543  11.076  10.044   7.633 -0.5139 -0.8086  0.0589
   96MOL0     C12544  11.187  10.119   7.635 -0.5352 -0.5985 -0.0288
   96MOL0     C12545  11.283  10.137   7.736 -0.1331  0.3175 -0.0230
   96MOL0     C12546  11.410  10.196   7.708 -0.0268 -0.1865 -1.1949
   96MOL0     C12547  11.433  10.246   7.576  0.2203 -1.1263 -0.1362
   96MOL0     O12548  11.551  10.285   7.539  0.4323 -0.0536  0.1507
   96MOL0     C12549  11.629  10.337   7.638 -0.4459 -0.9425 -0.1868
   96MOL0     C12550  11.747  10.399   7.560 -0.8693 -0.9294 -0.2005
   96MOL0     C12551  11.862  10.461   7.642 -1.1914  0.8001 -0.2273
   96MOL0     C12552  11.972  10.502   7.549 -0.0921 -0.3185 -0.4807
   96MOL0     C12553  12.094  10.548   7.630 -0.8102 -0.1960  0.5563
   96MOL0     C12554  12.194  10.632   7.550  0.4675 -0.2967  0.8475
   96MOL0     C12555  12.315  10.682   7.638 -0.5611 -0.0744 -0.8366
   96MOL0     C12556  12.389  10.575   7.728  0.2378  0.4727  0.0370
   96MOL0     N12557  12.522  10.614   7.777 -0.2653  0.0423  0.8763
   96MOL0     C12558  12.633  10.628   7.692 -0.4116  0.5058 -0.0294
   96MOL0     C12559  12.727  10.686   7.775 -0.3005  0.1916 -0.4388
   96MOL0     C12560  12.870  10.745   7.763 -0.4232 -0.4932 -1.4784
   96MOL0     C12561  12.983  10.650   7.814  0.2009 -0.2563 -0.0918
   96MOL0     C12562  12.983  10.671   7.964 -0.5199  0.0161  0.3399
   96MOL0     C12563  13.082  10.571   8.029  0.1420  0.4656  0.9588
   96MOL0     O12564  13.060  10.577   8.177 -0.4901 -0.0786  0.9351
   96MOL0     C12565  13.144  10.504   8.261  0.0163  0.2502 -1.0125
   96MOL0     C12566  13.113  10.496   8.401 -0.9557  0.5099 -0.0024
   96MOL0     C12567  13.193  10.410   8.479 -0.1889  0.2070 -1.7112
   96MOL0     C12568  13.303  10.345   8.433 -0.9559 -0.5771  0.3218
   96MOL0     C12569  13.389  10.262   8.525  0.2239 -0.5835  0.4358
   96MOL0     O12570  13.533  10.247   8.500  0.6002  0.1980  0.5493
   96MOL0     C12571  13.599  10.199   8.603 -0.0780 -0.2041 -0.0430
   96MOL0     C12572  13.674  10.085   8.590 -0.5892  1.1111 -0.4027
   96MOL0     C12573  13.750  10.036   8.703 -0.3035  0.0346  0.2077
   96MOL0     C12574  13.756  10.109   8.818 -0.2851 -0.1848 -0.3574
   96MOL0     O12575  13.854  10.075   8.902 -0.1180  0.8937  0.0517
   96MOL0     C12576  13.882  10.148   9.023 -0.2914 -0.8929  0.0258
   96MOL0     C12577  14.022  10.100   9.063 -0.0231  1.0010 -1.5957
   96MOL0     C12578  14.048  10.163   9.200 -0.1734 -0.2654 -0.8598
   96MOL0     C12579  14.182  10.107   9.243 -1.0153  0.3006 -0.1590
   96MOL0     C12580  14.181  10.038   9.388  0.3300 -0.5116 -0.2075
   96MOL0     C12581  14.314  10.020   9.450  0.0902  1.3723 -0.1241
   96MOL0     C12582  14.308   9.922   9.570  0.3085 -0.0581  0.1551
   96MOL0     C12583  14.234   9.972   9.693 -0.1170  0.1507  0.2367
   96MOL0    Cl12584  14.338  10.069   9.799 -0.1745  0.4270  0.1443
   96MOL0     C12585  13.681  10.230   8.831  0.1877 -0.6991  0.5531
   96MOL0     C12586  13.603  10.275   8.722  0.0380 -0.8837  0.2379
   96MOL0     O12587  13.325  10.208   8.617  0.0263 -0.1482 -0.0985
   96MOL0     C12588  13.337  10.355   8.292 -0.0612 -0.2727  0.2736
   96MOL0     C12589  13.262  10.439   8.213  0.0043  0.3996 -0.8825
   96MOL0     N12590  12.673  10.698   7.905  0.6150 -0.3140 -0.3033
   96MOL0     N12591  12.548  10.670   7.903  0.3249 -0.1622 -0.4995
   96MOL0     C12592  11.339  10.227   7.478 -0.0916  0.1126  0.4572
   96MOL0     C12593  11.217  10.169   7.512 -0.2160  0.8530  0.6585
   96MOL0     C12594  10.873   9.954   7.740  0.1843 -0.6158 -0.3644
   96MOL0     C12595  10.823   9.909   7.865  0.4988  0.8833 -0.4688
   96MOL0     C12596  10.713   9.819   7.866 -1.0518 -0.1727  0.7720
   96MOL0     C12597  10.668   9.753   7.746 -1.1831  0.4205 -0.4818
   96MOL0     O12598  10.586   9.653   7.735 -0.6884  0.2510 -0.6222
   96MOL0     C12599  10.465   9.670   7.804  0.6694 -0.7210  0.3326
   96MOL0     C12600  10.363   9.734   7.712 -0.4025  0.0790  0.4718
   96MOL0     C12601  10.312   9.638   7.603 -0.3315 -0.4486  0.5327
   96MOL0     C12602  10.201   9.715   7.537  0.3144 -0.2574 -0.1919
   96MOL0     C12603  10.114   9.631   7.460 -0.7544 -0.3498  0.1967
   96MOL0     C12604  10.046   9.551   7.391 -0.6790  0.0804 -0.2654
   96MOL0     C12605  10.715   9.801   7.629  0.0994 -0.2105  0.6218
   96MOL0     C12606  10.819   9.899   7.625  0.1282  0.0124 -0.5400
   96MOL0     H12607  11.266  10.099   7.836 -1.3782  1.0484  0.0605
   96MOL0     H12608  11.474  10.211   7.794 -1.0186 -2.3198 -0.0118
   96MOL0     H12609  11.666  10.265   7.712 -1.0259 -0.3559  0.6745
   96MOL0     H12610  11.585  10.428   7.678 -1.2022 -1.7467  0.8654
   96MOL0     H12611  11.707  10.481   7.500  0.8457 -2.1091 -3.2255
   96MOL0     H12612  11.784  10.337   7.478  1.8086  2.2964 -1.6589
   96MOL0     H12613  11.905  10.376   7.697 -1.8583  1.0246  0.6684
   96MOL0     H12614  11.852  10.545   7.711  0.8288  1.0141 -0.1209
   96MOL0     H12615  11.997  10.427   7.474  2.7790 -0.0133  0.0517
   96MOL0     H12616  11.932  10.589   7.496 -2.1338  0.6239  2.3472
   96MOL0     H12617  12.137  10.459   7.677 -1.0689 -0.3056  0.5859
   96MOL0     H12618  12.054  10.609   7.711 -1.6528 -2.3468  1.8520
   96MOL0     H12619  12.146  10.717   7.502 -0.4806 -0.1306  2.0431
   96MOL0     H12620  12.230  10.567   7.469  2.0248 -0.2878  1.5038
   96MOL0     H12621  12.385  10.735   7.573 -2.0211  0.3708 -2.1073
   96MOL0     H12622  12.274  10.752   7.711  1.3285  0.8290 -0.5852
   96MOL0     H12623  12.411  10.482   7.673  0.3689 -3.1745  5.4702
   96MOL0     H12624  12.332  10.536   7.813  2.5735 -1.5010  0.8228
   96MOL0     H12625  12.649  10.598   7.589 -2.9206 -0.0731 -0.3212
   96MOL0     H12626  12.875  10.837   7.821 -4.4029 -0.9924 -0.0168
   96MOL0     H12627  12.897  10.762   7.659 -0.5077 -0.6652 -1.5293
   96MOL0     H12628  13.078  10.661   7.762  0.9051  0.1512  1.2281
   96MOL0     H12629  12.956  10.546   7.793 -0.9973 -0.9561  3.9319
   96MOL0     H12630  13.030  10.768   7.982  0.0273  0.1795 -1.7432
   96MOL0     H12631  12.884  10.649   8.005 -0.0181  1.2689  2.3737
   96MOL0     H12632  13.184  10.601   8.002 -0.5721 -0.2928 -3.2740
   96MOL0     H12633  13.068  10.472   7.985 -0.5371  2.0970 -2.8669
   96MOL0     H12634  13.032  10.556   8.440  0.6399  0.9440  2.9233
   96MOL0     H12635  13.171  10.419   8.585  0.1699 -0.3582 -1.5869
   96MOL0     H12636  13.684  10.027   8.499 -1.9047 -1.2116  0.8444
   96MOL0     H12637  13.826   9.959   8.699 -1.1406 -1.0775  2.9555
   96MOL0     H12638  13.815  10.117   9.105  1.3215 -0.8915  1.3981
   96MOL0     H12639  13.886  10.256   9.008 -0.1081 -0.9267 -0.1624
   96MOL0     H12640  14.093  10.138   8.989  0.0631  2.8121 -0.6507
   96MOL0     H12641  14.027   9.991   9.063 -0.1892  0.9381  0.8133
   96MOL0     H12642  13.977  10.143   9.280  0.1813 -0.3921 -0.5711
   96MOL0     H12643  14.044  10.273   9.199  1.3422 -0.0976  1.7405
   96MOL0     H12644  14.227  10.027   9.183  0.4620 -1.1938  2.6928
   96MOL0     H12645  14.244  10.196   9.252 -1.1729  0.2158  5.5844
   96MOL0     H12646  14.133   9.940   9.382  0.9293 -0.9162  1.1930
   96MOL0     H12647  14.126  10.109   9.451  0.6834 -1.0619  0.7480
   96MOL0     H12648  14.347  10.119   9.483  0.4436  2.0778 -2.4063
   96MOL0     H12649  14.375   9.977   9.370 -1.0838  2.0958 -1.4523
   96MOL0     H12650  14.264   9.830   9.531 -2.0856  0.5928  1.1345
   96MOL0     H12651  14.411   9.892   9.591 -0.2598 -4.5476 -2.3149
   96MOL0     H12652  14.198   9.889   9.754  0.0743 -1.3949 -1.6391
   96MOL0     H12653  14.145  10.024   9.659 -0.8237 -0.1321  1.5936
   96MOL0     H12654  13.684  10.306   8.908  2.2138  1.2620 -1.2957
   96MOL0     H12655  13.537  10.361   8.719 -1.0610 -1.7153 -0.0995
   96MOL0     H12656  13.429  10.305   8.262  0.6640 -0.1507  2.1665
   96MOL0     H12657  13.298  10.427   8.111  3.9740 -0.7518  0.4582
   96MOL0     H12658  11.340  10.259   7.374 -2.0958 -2.0973 -0.3264
   96MOL0     H12659  11.142  10.151   7.435 -1.5255  2.0889  1.5788
   96MOL0     H12660  10.854   9.955   7.958  2.0426  1.3211 -1.1613
   96MOL0     H12661  10.685   9.794   7.968  1.8419 -1.0532  1.4599
   96MOL0     H12662  10.466   9.737   7.890 -0.5125 -0.7516  0.3989
   96MOL0     H12663  10.433   9.576   7.850 -1.3912  0.0257  0.5370
   96MOL0     H12664  10.279   9.760   7.777 -1.5805 -0.0393 -0.9580
   96MOL0     H12665  10.411   9.817   7.661  1.8108 -1.3099  0.1821
   96MOL0     H12666  10.281   9.542   7.644  0.1631 -1.2754 -0.9624
   96MOL0     H12667  10.383   9.604   7.527 -1.1239 -1.6642  0.3117
   96MOL0     H12668  10.151   9.787   7.602  2.4755  2.5009 -1.3300
   96MOL0     H12669  10.242   9.783   7.461 -0.3200  0.8789  0.4543
   96MOL0     H12670   9.983   9.499   7.322 -1.6538  0.7543  0.0981
   96MOL0     H12671  10.671   9.761   7.539 -1.2382 -2.9748  2.3850
   96MOL0     H12672  10.860   9.926   7.528  2.0411  1.5719  0.6283
   97MOL0     O12673   6.929   7.987   2.095 -0.2024 -0.6611 -0.0592
   97MOL0     C12674   7.002   7.949   2.186 -0.3249  0.8485  1.6507
   97MOL0     O12675   7.050   7.817   2.189 -0.2183 -0.1283 -0.3277
   97MOL0     C12676   7.017   7.725   2.094 -0.1725  1.1040 -0.2326
   97MOL0     C12677   7.073   7.733   1.965  0.4318  1.2169  0.4099
   97MOL0     C12678   7.048   7.624   1.881  0.7097 -0.1496 -0.0002
   97MOL0     C12679   6.965   7.523   1.920 -1.0289 -0.6847 -2.0254
   97MOL0     O12680   6.952   7.409   1.850 -0.4573 -0.3394 -0.8783
   97MOL0     C12681   6.815   7.375   1.819  0.4832  0.3021 -0.8332
   97MOL0     C12682   6.809   7.305   1.676  0.2430 -0.9754 -0.2270
   97MOL0     C12683   6.671   7.256   1.653  0.7225  0.2257  0.5072
   97MOL0     C12684   6.661   7.147   1.553  0.9644 -0.3717  0.1888
   97MOL0     C12685   6.522   7.132   1.498  0.3102  0.7126  0.9113
   97MOL0     C12686   6.468   7.253   1.416 -0.7453  0.2803 -0.4554
   97MOL0     C12687   6.331   7.222   1.351  0.0411  0.0145  0.4082
   97MOL0     C12688   6.328   7.178   1.209 -0.1797  0.4862 -0.1592
   97MOL0     N12689   6.196   7.126   1.168 -0.3456  0.2379  0.4038
   97MOL0     C12690   6.118   7.169   1.064 -0.8378  0.3203  0.2839
   97MOL0     C12691   6.050   7.051   1.032  0.6953 -0.4684 -0.4023
   97MOL0     C12692   5.944   7.030   0.920  0.7147 -0.3876  0.8140
   97MOL0     C12693   5.805   7.072   0.954  0.0098  0.2206 -0.5519
   97MOL0     C12694   5.795   7.229   0.955 -0.3820 -0.2559  0.5037
   97MOL0     C12695   5.653   7.240   1.002  0.3555  0.2016 -0.2619
   97MOL0     O12696   5.618   7.377   1.062 -0.5113  0.8538  0.3569
   97MOL0     C12697   5.516   7.373   1.146 -0.3392 -0.0059  0.0062
   97MOL0     C12698   5.536   7.338   1.276  0.6680  0.8421 -0.4317
   97MOL0     C12699   5.425   7.309   1.354  0.3034 -0.8375  0.3642
   97MOL0     C12700   5.291   7.322   1.308  0.3784  0.0581 -0.1872
   97MOL0     C12701   5.187   7.282   1.396 -0.3122 -0.3865 -0.2883
   97MOL0     O12702   5.221   7.211   1.508  0.2441 -0.7676 -0.0818
   97MOL0     C12703   5.125   7.214   1.607 -0.8732 -0.4892  0.6978
   97MOL0     C12704   5.112   7.310   1.716 -0.3075 -0.2112 -0.3583
   97MOL0     C12705   5.010   7.295   1.810 -0.1704  0.2226  0.0514
   97MOL0     C12706   4.924   7.191   1.805 -0.2925  0.0888 -1.0691
   97MOL0     O12707   4.827   7.186   1.903 -0.7367 -0.3866 -0.7947
   97MOL0     C12708   4.697   7.158   1.855  1.1112  0.4401  0.3533
   97MOL0     C12709   4.646   7.054   1.948  0.7255  1.1283 -0.4209
   97MOL0     C12710   4.504   7.005   1.932  1.0704  0.7175  0.8746
   97MOL0     C12711   4.481   6.940   1.797  0.6159  0.4320  0.6136
   97MOL0     C12712   4.554   6.800   1.790 -0.2024  0.2177  0.0227
   97MOL0     C12713   4.533   6.745   1.648  0.4250 -0.1709 -0.7014
   97MOL0     C12714   4.636   6.635   1.626 -0.1170 -0.6349  0.0668
   97MOL0     C12715   4.635   6.609   1.474  0.0529 -1.0709 -0.4674
   97MOL0    Cl12716   4.473   6.546   1.432  0.5173  0.5639 -0.0224
   97MOL0     C12717   4.926   7.103   1.699  0.4883 -0.5923 -0.4782
   97MOL0     C12718   5.027   7.114   1.597  1.4380 -0.9042 -0.7897
   97MOL0     O12719   5.073   7.314   1.365  0.3772 -0.2268  0.8378
   97MOL0     C12720   5.272   7.370   1.178 -0.7613  0.0848 -0.6360
   97MOL0     C12721   5.384   7.395   1.100 -0.4097  0.6656  0.3598
   97MOL0     N12722   6.072   6.957   1.121 -0.3489  0.3881 -0.5836
   97MOL0     N12723   6.156   7.004   1.215  0.1694  0.4235  0.0313
   97MOL0     C12724   6.910   7.521   2.052 -0.8019  0.0389 -0.3062
   97MOL0     C12725   6.941   7.620   2.142  0.4032  0.2807 -0.2535
   97MOL0     C12726   7.061   8.042   2.278  0.5965 -0.2428 -1.2171
   97MOL0     C12727   7.108   8.010   2.403  0.5544 -0.2323  0.2146
   97MOL0     C12728   7.161   8.107   2.494 -0.4621 -0.1763  0.3353
   97MOL0     C12729   7.198   8.235   2.446 -0.5661  0.7395 -0.1539
   97MOL0     O12730   7.288   8.327   2.502  0.3725 -0.5688  0.5732
   97MOL0     C12731   7.411   8.272   2.556 -0.5139 -0.4722  0.3270
   97MOL0     C12732   7.390   8.274   2.705 -0.3583 -0.6568 -0.5476
   97MOL0     C12733   7.403   8.411   2.756 -0.1917 -0.2666  0.0540
   97MOL0     C12734   7.419   8.406   2.910 -0.8105 -1.0646  0.2004
   97MOL0     C12735   7.437   8.537   2.973 -0.8292  0.2480  0.3696
   97MOL0     C12736   7.461   8.653   3.014 -0.2971  0.1839 -0.5138
   97MOL0     C12737   7.135   8.275   2.325 -0.0899 -0.0619 -0.6945
   97MOL0     C12738   7.080   8.180   2.236  0.1757  0.2914  0.1379
   97MOL0     H12739   7.148   7.805   1.936  3.5507 -1.9290 -0.1345
   97MOL0     H12740   7.098   7.619   1.785  1.3223  0.4015  0.2758
   97MOL0     H12741   6.750   7.462   1.822 -0.3763 -0.3593  0.9988
   97MOL0     H12742   6.778   7.310   1.899 -0.4971  1.0153 -0.6991
   97MOL0     H12743   6.891   7.232   1.680  1.4294  0.3320  0.6448
   97MOL0     H12744   6.835   7.379   1.600  1.6288  1.9103  2.7662
   97MOL0     H12745   6.607   7.337   1.614 -1.6414 -1.6592  0.2275
   97MOL0     H12746   6.615   7.219   1.739  0.3024 -3.8742 -1.3045
   97MOL0     H12747   6.727   7.178   1.471  0.3406  1.5534  0.3673
   97MOL0     H12748   6.693   7.053   1.598 -0.2960 -1.7729 -1.6709
   97MOL0     H12749   6.454   7.099   1.577  1.5005 -1.5300  1.0773
   97MOL0     H12750   6.531   7.053   1.423  0.2909  4.4667 -3.4746
   97MOL0     H12751   6.541   7.278   1.338 -3.3360 -2.9018 -4.3119
   97MOL0     H12752   6.449   7.342   1.477 -1.0907  0.1103 -0.3147
   97MOL0     H12753   6.283   7.143   1.409  0.3134 -1.3094 -1.0981
   97MOL0     H12754   6.271   7.312   1.359  0.1689  0.0959  0.4537
   97MOL0     H12755   6.406   7.104   1.188  1.0293  1.5646  0.3489
   97MOL0     H12756   6.362   7.257   1.142 -0.4790 -0.4369 -1.4232
   97MOL0     H12757   6.113   7.263   1.010  3.4229  0.0537 -0.9510
   97MOL0     H12758   5.938   6.927   0.883  2.8084 -1.0855  2.1883
   97MOL0     H12759   5.986   7.087   0.837  2.4671  0.4392  2.2061
   97MOL0     H12760   5.792   7.017   1.048 -0.5786  0.0768 -0.7154
   97MOL0     H12761   5.733   7.032   0.883 -0.2491 -3.0009  1.3149
   97MOL0     H12762   5.863   7.268   1.031  0.9942 -1.3919 -0.0753
   97MOL0     H12763   5.811   7.279   0.859 -0.5048  4.9055  2.8419
   97MOL0     H12764   5.636   7.168   1.083  2.0626 -0.0898 -0.1432
   97MOL0     H12765   5.582   7.214   0.923  1.2344  1.5649 -1.5582
   97MOL0     H12766   5.632   7.311   1.318  1.5872  0.8587 -2.4008
   97MOL0     H12767   5.442   7.280   1.457 -0.5494  1.1124  1.1194
   97MOL0     H12768   5.185   7.390   1.724  1.6983 -1.8386 -1.3430
   97MOL0     H12769   5.018   7.373   1.885  0.2372  1.1500 -0.9337
   97MOL0     H12770   4.697   7.123   1.751  2.8228  2.0697 -0.2615
   97MOL0     H12771   4.636   7.248   1.865  3.5560  2.7528 -3.0522
   97MOL0     H12772   4.645   7.089   2.051 -0.7872  1.1781 -0.4326
   97MOL0     H12773   4.715   6.972   1.929 -0.4454  0.0143  0.0286
   97MOL0     H12774   4.425   7.079   1.946 -2.2629 -2.6185  1.1669
   97MOL0     H12775   4.487   6.939   2.018 -0.3327  0.9563  0.8015
   97MOL0     H12776   4.375   6.928   1.770  0.5308  0.0217  1.1100
   97MOL0     H12777   4.513   6.997   1.709  1.4666 -2.6258 -1.2149
   97MOL0     H12778   4.523   6.723   1.862  0.2425 -0.6266 -0.6670
   97MOL0     H12779   4.661   6.814   1.811 -0.8144  2.0581  2.2702
   97MOL0     H12780   4.549   6.831   1.582  2.0139  2.1715  2.4740
   97MOL0     H12781   4.433   6.703   1.641  0.7278 -1.6515  2.2950
   97MOL0     H12782   4.741   6.652   1.652 -0.5592  0.2171  1.4274
   97MOL0     H12783   4.603   6.549   1.684  0.0864 -0.1835  0.8598
   97MOL0     H12784   4.721   6.544   1.457  3.3697  2.1424  2.3407
   97MOL0     H12785   4.648   6.700   1.417 -0.5655  1.3256  2.9064
   97MOL0     H12786   4.859   7.019   1.696  0.3152 -0.4419 -0.9781
   97MOL0     H12787   5.027   7.062   1.502 -1.3324 -0.7528 -0.9455
   97MOL0     H12788   5.176   7.369   1.126 -0.6901 -0.1652 -0.7680
   97MOL0     H12789   5.386   7.427   0.996 -1.2334 -1.2481 -0.2819
   97MOL0     H12790   6.853   7.433   2.081  1.1817 -1.0942  0.3102
   97MOL0     H12791   6.921   7.619   2.249  0.4827  5.3296  0.0738
   97MOL0     H12792   7.105   7.904   2.429 -1.0388 -0.4797 -0.8531
   97MOL0     H12793   7.199   8.058   2.583  0.1340  2.9452  1.9127
   97MOL0     H12794   7.503   8.324   2.526  0.8101 -1.7837  1.9223
   97MOL0     H12795   7.432   8.178   2.505  1.2628  0.8328 -1.5037
   97MOL0     H12796   7.295   8.233   2.740 -0.8567  1.6599  1.0577
   97MOL0     H12797   7.463   8.201   2.741 -2.0950 -2.4003 -0.4511
   97MOL0     H12798   7.318   8.475   2.733  0.7130 -0.3996 -4.6091
   97MOL0     H12799   7.494   8.458   2.718  0.4303 -0.2145  1.5288
   97MOL0     H12800   7.326   8.360   2.944 -1.4430 -2.2958 -2.8597
   97MOL0     H12801   7.495   8.333   2.939  0.5003  1.4827  3.8598
   97MOL0     H12802   7.492   8.750   3.046  0.6524 -0.5651  0.9504
   97MOL0     H12803   7.134   8.383   2.311 -0.4979  0.0196 -0.0912
   97MOL0     H12804   7.024   8.215   2.150  0.3888 -0.9121 -0.5180
   98MOL0     O12805   7.635   6.098   6.534  0.3087 -0.1349  0.2596
   98MOL0     C12806   7.723   6.025   6.568  0.0311 -0.3087 -0.1590
   98MOL0     O12807   7.723   5.892   6.539 -0.0525 -0.4570 -0.0321
   98MOL0     C12808   7.609   5.839   6.490  0.3421  0.1395  0.1525
   98MOL0     C12809   7.578   5.825   6.347  1.1210 -0.1721 -1.3509
   98MOL0     C12810   7.466   5.758   6.298 -0.8768  0.1115 -0.2041
   98MOL0     C12811   7.369   5.706   6.387 -0.4554 -0.6564 -0.0565
   98MOL0     O12812   7.253   5.651   6.331  0.8525 -1.3367 -0.6296
   98MOL0     C12813   7.184   5.550   6.403 -0.7643 -0.2832 -0.8700
   98MOL0     C12814   7.076   5.474   6.342  0.4073 -0.2777 -0.4066
   98MOL0     C12815   6.966   5.569   6.280 -0.0645  0.5890 -0.2460
   98MOL0     C12816   6.906   5.662   6.388  1.3201 -0.9749 -0.1563
   98MOL0     C12817   6.778   5.732   6.352 -0.0915 -0.0957 -0.4977
   98MOL0     C12818   6.662   5.654   6.303 -0.1633  1.0122 -0.4712
   98MOL0     C12819   6.559   5.751   6.264  0.8830  0.0585  0.7191
   98MOL0     C12820   6.442   5.671   6.200 -0.2274  0.5626 -0.0415
   98MOL0     N12821   6.321   5.758   6.195 -0.4704  0.2293  0.1061
   98MOL0     C12822   6.308   5.881   6.131 -0.0323  0.0912  1.0219
   98MOL0     C12823   6.182   5.902   6.123  0.4194  0.3438  0.2296
   98MOL0     C12824   6.096   6.011   6.067 -0.6461 -0.8239  1.1225
   98MOL0     C12825   6.044   6.098   6.177 -0.3219  0.1330 -0.5351
   98MOL0     C12826   5.937   6.197   6.129 -0.3812  0.0450  0.3291
   98MOL0     C12827   5.879   6.276   6.241 -0.0987 -0.4094 -0.0415
   98MOL0     O12828   5.779   6.364   6.200 -0.0802  1.1906 -0.3561
   98MOL0     C12829   5.822   6.493   6.174 -0.7460  0.3096  0.0285
   98MOL0     C12830   5.716   6.586   6.169 -0.8470 -1.1182 -0.0530
   98MOL0     C12831   5.735   6.721   6.125 -0.2076  0.2007  0.5295
   98MOL0     C12832   5.869   6.775   6.107  0.1336 -0.0245 -0.2352
   98MOL0     C12833   5.890   6.927   6.088  0.6494  0.0719  0.2335
   98MOL0     O12834   5.769   7.001   6.074  0.7344 -0.1305 -1.0439
   98MOL0     C12835   5.784   7.128   6.043 -0.1673 -0.6117 -0.7348
   98MOL0     C12836   5.866   7.181   5.941  0.5285  0.4428 -0.1571
   98MOL0     C12837   5.870   7.318   5.926 -0.1518 -1.0598 -0.3068
   98MOL0     C12838   5.811   7.411   6.001  0.1653  0.4422  0.7957
   98MOL0     O12839   5.837   7.535   5.956 -0.7928 -0.5629 -0.0740
   98MOL0     C12840   5.751   7.643   5.984 -0.2134 -0.3721  0.7898
   98MOL0     C12841   5.819   7.779   5.960 -0.1375 -0.2776  0.1457
   98MOL0     C12842   5.730   7.900   5.916  0.5435  0.6193  1.1283
   98MOL0     C12843   5.693   7.895   5.759  0.4465 -0.4917 -0.1658
   98MOL0     C12844   5.601   8.019   5.733  0.4629  0.5209  0.3850
   98MOL0     C12845   5.588   8.063   5.593  0.5345 -0.8791  0.0529
   98MOL0     C12846   5.514   8.198   5.599  1.2074 -0.2796 -0.1109
   98MOL0     C12847   5.517   8.268   5.465  0.6486 -0.2369  0.1706
   98MOL0    Cl12848   5.492   8.441   5.486  0.3804  0.3551 -0.5433
   98MOL0     C12849   5.744   7.364   6.115 -0.3312 -0.6682 -0.8633
   98MOL0     C12850   5.727   7.221   6.135 -0.1792  0.0985  0.3489
   98MOL0     O12851   6.003   6.971   6.079 -0.2644  0.5293 -0.3329
   98MOL0     C12852   5.971   6.683   6.105 -0.1866 -0.0039 -0.0246
   98MOL0     C12853   5.951   6.544   6.129  0.0506  0.3406  0.3130
   98MOL0     N12854   6.118   5.797   6.191  0.5663  0.1507 -0.2385
   98MOL0     N12855   6.204   5.720   6.246  0.1303  0.0498  0.3107
   98MOL0     C12856   7.399   5.720   6.529 -0.1636 -0.5945  0.1989
   98MOL0     C12857   7.517   5.781   6.579 -0.3274 -0.1312 -0.0612
   98MOL0     C12858   7.843   6.085   6.624  0.3525 -0.7246 -0.0344
   98MOL0     C12859   7.837   6.214   6.682 -0.5814  0.3560 -0.1776
   98MOL0     C12860   7.945   6.270   6.746 -0.8347 -1.0095 -1.3463
   98MOL0     C12861   8.068   6.199   6.752  0.3411 -0.5379  0.7319
   98MOL0     O12862   8.168   6.259   6.820 -0.3675  0.0668  0.3483
   98MOL0     C12863   8.166   6.269   6.969  0.8019 -0.4328  0.5529
   98MOL0     C12864   8.206   6.145   7.042  0.0901  0.1632 -0.3924
   98MOL0     C12865   8.153   6.163   7.180  0.0770  0.3906 -0.6907
   98MOL0     C12866   8.221   6.075   7.290 -0.7631  0.4424  0.3113
   98MOL0     C12867   8.351   6.140   7.322 -0.0664  0.3674 -0.2883
   98MOL0     C12868   8.451   6.203   7.340  0.0553  0.0126  0.6616
   98MOL0     C12869   8.080   6.085   6.687 -0.1724  0.3007  0.5796
   98MOL0     C12870   7.974   6.020   6.625 -0.1049  0.8851 -0.7353
   98MOL0     H12871   7.659   5.865   6.286  0.9666  3.1549  0.3748
   98MOL0     H12872   7.452   5.765   6.191  1.6537  4.6044 -0.5146
   98MOL0     H12873   7.144   5.578   6.501  2.6380 -1.5282  1.0527
   98MOL0     H12874   7.257   5.470   6.424  1.8476  2.5751  2.0327
   98MOL0     H12875   7.036   5.412   6.422 -0.1315 -2.8698 -2.5677
   98MOL0     H12876   7.113   5.417   6.257 -0.0666 -0.2798 -0.6183
   98MOL0     H12877   6.886   5.507   6.238  1.1021 -0.5076 -0.9475
   98MOL0     H12878   7.011   5.626   6.198 -0.6080 -0.3624 -1.2336
   98MOL0     H12879   6.879   5.600   6.474  1.9206 -0.1508  0.6418
   98MOL0     H12880   6.981   5.739   6.410  0.4085  0.5474 -2.0974
   98MOL0     H12881   6.800   5.806   6.275  4.1260 -2.5871 -1.9804
   98MOL0     H12882   6.739   5.785   6.440 -1.8019 -2.3056  0.1711
   98MOL0     H12883   6.631   5.585   6.382 -1.7392  0.1533 -1.7739
   98MOL0     H12884   6.693   5.591   6.220 -1.0671  1.7334 -1.3726
   98MOL0     H12885   6.517   5.800   6.353 -2.2421  1.1409 -1.1867
   98MOL0     H12886   6.579   5.833   6.195 -1.2869  0.0101 -0.0469
   98MOL0     H12887   6.415   5.583   6.259  1.3830  1.1003  1.5941
   98MOL0     H12888   6.468   5.638   6.099 -0.9062  0.8052 -0.3048
   98MOL0     H12889   6.389   5.934   6.083  0.8316 -2.8175 -0.9383
   98MOL0     H12890   6.004   5.969   6.024 -2.5050  3.7485  0.0620
   98MOL0     H12891   6.146   6.069   5.989 -0.1401 -3.1243 -0.3782
   98MOL0     H12892   6.133   6.154   6.208 -1.9747  4.4203 -2.6803
   98MOL0     H12893   5.998   6.024   6.244 -2.0929  0.5481 -1.2316
   98MOL0     H12894   5.982   6.266   6.057 -3.3800 -0.5769 -2.4215
   98MOL0     H12895   5.850   6.148   6.085 -0.7911  0.7803  0.3025
   98MOL0     H12896   5.959   6.337   6.286 -0.1709 -0.4100  0.0894
   98MOL0     H12897   5.857   6.211   6.326 -0.5551 -0.5384 -0.2601
   98MOL0     H12898   5.612   6.563   6.192 -2.0919  3.8550  0.3591
   98MOL0     H12899   5.646   6.780   6.106  1.7273  3.0920 -0.1634
   98MOL0     H12900   5.928   7.111   5.886  1.9241  0.0402  1.8291
   98MOL0     H12901   5.931   7.350   5.842 -1.3695  2.4415  0.0042
   98MOL0     H12902   5.722   7.628   6.089  3.0964  1.3337  2.0963
   98MOL0     H12903   5.663   7.635   5.919 -0.2125 -0.0707  0.7475
   98MOL0     H12904   5.897   7.767   5.884 -0.3128  1.2639 -0.3265
   98MOL0     H12905   5.873   7.808   6.051  1.0765  3.6795 -1.6015
   98MOL0     H12906   5.793   7.982   5.951 -1.8969  2.5777  1.1925
   98MOL0     H12907   5.637   7.917   5.972 -0.1282  2.4090 -0.4607
   98MOL0     H12908   5.787   7.896   5.704  0.1288 -3.3806 -0.9111
   98MOL0     H12909   5.641   7.803   5.732  1.4859 -0.7152 -1.5012
   98MOL0     H12910   5.631   8.104   5.795  0.1318  2.7475 -2.2946
   98MOL0     H12911   5.501   7.987   5.761  1.2858 -0.2464  2.6604
   98MOL0     H12912   5.531   7.987   5.539 -0.3311 -0.6025  0.5597
   98MOL0     H12913   5.681   8.056   5.536  0.3922 -1.4123 -0.1146
   98MOL0     H12914   5.413   8.195   5.640  2.3121 -2.9609  2.9399
   98MOL0     H12915   5.566   8.263   5.671  0.3484 -0.6858  0.9094
   98MOL0     H12916   5.442   8.217   5.404  2.2774 -0.6730 -1.5749
   98MOL0     H12917   5.602   8.252   5.398 -1.1873 -0.7739 -2.1757
   98MOL0     H12918   5.695   7.432   6.184  0.6878 -0.8105  0.0235
   98MOL0     H12919   5.661   7.207   6.220  0.5895  0.0868  0.9571
   98MOL0     H12920   6.073   6.710   6.077  0.3198 -0.3169  1.4430
   98MOL0     H12921   6.042   6.485   6.131  0.4260  0.6539 -2.8647
   98MOL0     H12922   7.329   5.689   6.607 -2.7589  1.4826 -1.1576
   98MOL0     H12923   7.529   5.766   6.686  0.9257  1.6885  0.1095
   98MOL0     H12924   7.744   6.268   6.689  0.5128  2.3279 -0.2189
   98MOL0     H12925   7.933   6.369   6.788  1.6162  0.1084 -3.0996
   98MOL0     H12926   8.062   6.291   6.994 -0.7251 -0.9079 -4.3607
   98MOL0     H12927   8.226   6.353   7.006  2.3240 -0.4839 -1.6018
   98MOL0     H12928   8.155   6.059   6.997  0.1663 -1.4390  2.3264
   98MOL0     H12929   8.313   6.125   7.045 -0.0567 -0.5902  0.6338
   98MOL0     H12930   8.051   6.124   7.176 -0.2514  1.2339 -0.5623
   98MOL0     H12931   8.153   6.266   7.215 -0.3913 -0.3803  1.7972
   98MOL0     H12932   8.159   6.068   7.380  1.9594 -1.3468  2.2133
   98MOL0     H12933   8.225   5.975   7.245 -2.8249  0.6616 -0.4547
   98MOL0     H12934   8.534   6.269   7.354  1.6750 -1.2818 -1.9732
   98MOL0     H12935   8.173   6.036   6.714 -1.7782 -2.5341  1.3515
   98MOL0     H12936   7.991   5.922   6.581 -1.6200  0.3309 -0.1860
   99MOL0     O12937  10.317   5.271   7.661  0.8042 -0.0118  0.2663
   99MOL0     C12938  10.394   5.266   7.570  0.2793  0.6188  0.4163
   99MOL0     O12939  10.362   5.220   7.446 -0.1216 -0.3321 -0.6527
   99MOL0     C12940  10.233   5.162   7.425 -0.4644  0.2238  1.0396
   99MOL0     C12941  10.220   5.023   7.434 -0.1870 -0.6912  1.0408
   99MOL0     C12942  10.089   4.966   7.441  0.1818 -0.3610  0.3242
   99MOL0     C12943   9.976   5.048   7.417 -0.5125 -0.4295 -0.3393
   99MOL0     O12944   9.849   5.002   7.388 -0.3704  0.2799 -0.2815
   99MOL0     C12945   9.819   4.878   7.456 -0.1164 -0.4374 -0.2851
   99MOL0     C12946   9.675   4.851   7.489 -0.6064 -0.6298 -0.4415
   99MOL0     C12947   9.601   4.970   7.551 -0.1677  0.2020  0.0292
   99MOL0     C12948   9.450   4.973   7.503  0.4550 -0.2055 -0.5669
   99MOL0     C12949   9.431   5.019   7.353  0.5212 -0.5679  0.0356
   99MOL0     C12950   9.431   5.166   7.325 -0.1281  0.2883  0.7696
   99MOL0     C12951   9.570   5.225   7.295 -0.7325 -0.6814 -0.1419
   99MOL0     C12952   9.596   5.263   7.144 -0.0701  0.3064  0.3686
   99MOL0     N12953   9.734   5.319   7.131 -0.0201 -0.4587 -0.0833
   99MOL0     C12954   9.838   5.251   7.072  0.3215 -0.3007  0.1805
   99MOL0     C12955   9.939   5.338   7.055 -0.4919 -0.5926 -0.1193
   99MOL0     C12956  10.081   5.316   6.996  0.6558 -0.5383 -1.3330
   99MOL0     C12957  10.128   5.175   7.030  0.1269  0.4521  0.6888
   99MOL0     C12958  10.097   5.067   6.919 -0.4437  0.3786 -0.0658
   99MOL0     C12959  10.155   5.083   6.777  0.6761  0.8660 -1.5839
   99MOL0     O12960  10.087   5.002   6.680  0.1250 -0.1556 -0.0835
   99MOL0     C12961  10.110   4.862   6.671  0.1953  0.0079 -0.4972
   99MOL0     C12962  10.228   4.789   6.707 -0.5814  0.5644 -0.8135
   99MOL0     C12963  10.241   4.651   6.715 -0.0717 -0.1018  0.1195
   99MOL0     C12964  10.142   4.573   6.666 -0.0064 -0.6252 -0.4701
   99MOL0     C12965  10.163   4.427   6.659  0.1701  1.2972 -0.0242
   99MOL0     O12966  10.082   4.342   6.572 -0.6543 -0.0868  0.0521
   99MOL0     C12967  10.096   4.372   6.438 -0.3881  0.6922 -0.7212
   99MOL0     C12968   9.999   4.320   6.361 -0.1947 -0.0706  0.3088
   99MOL0     C12969   9.991   4.367   6.229 -0.1238 -0.5351  0.5859
   99MOL0     C12970  10.084   4.465   6.178  0.6584  1.2706 -0.3784
   99MOL0     O12971  10.085   4.510   6.043  0.0906  0.3811 -0.2165
   99MOL0     C12972  10.193   4.579   5.986 -0.2456  1.1446  0.6130
   99MOL0     C12973  10.171   4.585   5.837 -0.0551 -0.3926  0.5479
   99MOL0     C12974  10.200   4.443   5.785 -0.9873 -0.1914  0.2593
   99MOL0     C12975  10.159   4.428   5.642  0.1105 -0.3139 -0.1064
   99MOL0     C12976  10.268   4.481   5.556  0.3440 -0.5060  0.4520
   99MOL0     C12977  10.225   4.449   5.404 -0.3711  0.6002  0.1034
   99MOL0     C12978  10.343   4.428   5.302 -0.4708  0.3120  0.2763
   99MOL0     C12979  10.276   4.396   5.173 -0.4918  0.4566  0.3596
   99MOL0    Cl12980  10.258   4.552   5.076 -0.1156  0.1355 -0.4266
   99MOL0     C12981  10.185   4.506   6.264  0.0461 -0.0371 -0.4507
   99MOL0     C12982  10.193   4.464   6.393  0.0580  0.0800  0.6262
   99MOL0     O12983  10.263   4.383   6.714  0.9828  0.1265  0.3862
   99MOL0     C12984  10.016   4.639   6.634 -0.0846  0.0228 -0.7412
   99MOL0     C12985  10.006   4.783   6.626  0.1877  0.3724  0.3848
   99MOL0     N12986   9.895   5.464   7.100  0.2723  0.5003 -0.1083
   99MOL0     N12987   9.770   5.449   7.144 -0.4042  0.4792  0.8056
   99MOL0     C12988   9.989   5.185   7.388 -0.2374  0.6420  0.3815
   99MOL0     C12989  10.123   5.240   7.397  0.3988 -0.9823 -0.4422
   99MOL0     C12990  10.527   5.323   7.597  0.4011 -0.3667 -0.1691
   99MOL0     C12991  10.567   5.375   7.729  0.1839  0.0378  0.3051
   99MOL0     C12992  10.706   5.398   7.749  0.5925  0.0529 -0.1869
   99MOL0     C12993  10.805   5.392   7.644 -0.2887 -0.1615  0.8453
   99MOL0     O12994  10.927   5.443   7.683  0.1766  0.0193  0.9322
   99MOL0     C12995  11.010   5.491   7.578  0.4656 -0.1723  1.2018
   99MOL0     C12996  11.122   5.584   7.631  1.3649  0.2059 -0.2307
   99MOL0     C12997  11.181   5.543   7.767  0.0206  0.3380  0.5082
   99MOL0     C12998  11.139   5.635   7.879 -0.8158  0.0941  0.1336
   99MOL0     C12999  11.227   5.751   7.894  0.7928  0.3032  0.5700
   99MOL0     C13000  11.287   5.854   7.918  0.1712  0.0604  0.3956
   99MOL0     C13001  10.762   5.346   7.514  0.3337  0.6882 -0.2117
   99MOL0     C13002  10.630   5.316   7.494  0.0826 -0.0192 -0.8914
   99MOL0     H13003  10.314   4.973   7.457  0.5543  0.4299  0.5226
   99MOL0     H13004  10.075   4.858   7.450  0.9963 -0.4425  0.7351
   99MOL0     H13005   9.885   4.858   7.541 -1.4756  0.8395  1.1436
   99MOL0     H13006   9.835   4.801   7.380 -2.6061 -0.3397 -1.0063
   99MOL0     H13007   9.676   4.766   7.559 -0.2689  0.0779  0.4359
   99MOL0     H13008   9.623   4.825   7.397 -0.5457 -3.4010  0.2135
   99MOL0     H13009   9.641   5.070   7.538 -1.9320  1.2539  2.0341
   99MOL0     H13010   9.601   4.950   7.659  1.5055 -3.5368 -0.4918
   99MOL0     H13011   9.399   4.877   7.516 -1.4832  0.8247 -0.1267
   99MOL0     H13012   9.400   5.045   7.567  0.7330  1.9868 -2.6861
   99MOL0     H13013   9.339   4.969   7.321  0.8957 -0.3846 -1.4335
   99MOL0     H13014   9.508   4.977   7.287 -0.6454 -0.3606 -1.5098
   99MOL0     H13015   9.379   5.222   7.402  0.2076 -1.5489  2.4183
   99MOL0     H13016   9.378   5.179   7.230  1.3659 -0.8216 -0.2645
   99MOL0     H13017   9.587   5.313   7.357  1.1962 -1.7179  0.8943
   99MOL0     H13018   9.650   5.154   7.320  1.3773  1.5415 -0.2269
   99MOL0     H13019   9.529   5.336   7.099  0.9730  1.3207  0.4067
   99MOL0     H13020   9.579   5.169   7.091 -1.2856  0.4410  0.4900
   99MOL0     H13021   9.840   5.148   7.038  1.4092 -0.1097 -0.3898
   99MOL0     H13022  10.154   5.386   7.038  2.2191  0.0671 -4.7028
   99MOL0     H13023  10.072   5.340   6.890  1.8872  2.9808 -0.7739
   99MOL0     H13024  10.079   5.143   7.122  1.6781 -1.0848  1.0361
   99MOL0     H13025  10.235   5.188   7.051 -0.3140  4.8738  1.0633
   99MOL0     H13026  10.128   4.970   6.959 -0.7778 -2.3890 -5.5790
   99MOL0     H13027   9.988   5.065   6.906 -0.2049  1.3094 -2.7773
   99MOL0     H13028  10.262   5.064   6.766  0.7150 -2.0298  2.0688
   99MOL0     H13029  10.142   5.188   6.747  0.9641  1.0203 -1.1762
   99MOL0     H13030  10.315   4.844   6.741 -0.3208  1.9777 -3.5116
   99MOL0     H13031  10.329   4.602   6.756  0.4693 -0.3268 -1.2508
   99MOL0     H13032   9.922   4.251   6.393 -1.1669  1.5240  1.5174
   99MOL0     H13033   9.913   4.327   6.166  1.2359 -0.8141 -1.0049
   99MOL0     H13034  10.287   4.531   6.012 -2.0299 -1.8707  2.0045
   99MOL0     H13035  10.190   4.681   6.026  3.5981  0.2469  3.7291
   99MOL0     H13036  10.242   4.660   5.800  1.4347 -2.3084 -0.6594
   99MOL0     H13037  10.075   4.632   5.816  0.5170  0.6258  0.1207
   99MOL0     H13038  10.136   4.374   5.841  1.3099 -2.8558 -0.1395
   99MOL0     H13039  10.299   4.400   5.804 -0.4644  0.7110 -0.3729
   99MOL0     H13040  10.154   4.320   5.626  1.6428 -0.6935  1.7020
   99MOL0     H13041  10.062   4.469   5.611 -0.9860 -2.1298  0.7093
   99MOL0     H13042  10.362   4.434   5.585 -0.0458 -1.6949 -0.1420
   99MOL0     H13043  10.306   4.582   5.569  1.6358 -1.0563  1.1822
   99MOL0     H13044  10.159   4.527   5.364 -1.7814  0.3744  1.8264
   99MOL0     H13045  10.170   4.355   5.396 -0.2108  0.4621  0.5752
   99MOL0     H13046  10.408   4.516   5.300 -0.4513  0.2844 -0.4311
   99MOL0     H13047  10.408   4.347   5.338 -2.3562  0.7667  5.6370
   99MOL0     H13048  10.178   4.349   5.185  1.5614 -3.9317  1.9058
   99MOL0     H13049  10.335   4.333   5.106  2.2250  2.7242  0.4195
   99MOL0     H13050  10.267   4.573   6.239  2.2273 -1.4667  2.2780
   99MOL0     H13051  10.281   4.499   6.446  2.3482 -3.3809 -0.5574
   99MOL0     H13052   9.936   4.569   6.611  1.8634 -2.8524  0.5960
   99MOL0     H13053   9.911   4.826   6.597  0.2691  1.1192  1.1884
   99MOL0     H13054   9.902   5.250   7.390 -1.0505 -0.4181  0.1039
   99MOL0     H13055  10.130   5.348   7.388  2.0626 -1.0123  0.2013
   99MOL0     H13056  10.481   5.393   7.793  0.7066  1.8805  0.5559
   99MOL0     H13057  10.745   5.427   7.846  2.1744  0.5807 -0.9622
   99MOL0     H13058  10.955   5.550   7.504  3.1254 -0.3316 -1.1076
   99MOL0     H13059  11.059   5.409   7.525  0.5006 -1.2312  2.8164
   99MOL0     H13060  11.205   5.599   7.561  0.8210 -0.5223 -1.0587
   99MOL0     H13061  11.075   5.680   7.654  2.2344 -0.2095  4.1817
   99MOL0     H13062  11.290   5.550   7.760 -0.0208  0.8778  0.3592
   99MOL0     H13063  11.158   5.436   7.772  0.8661  0.0645 -0.8926
   99MOL0     H13064  11.033   5.656   7.860 -1.0521 -1.6182 -0.6422
   99MOL0     H13065  11.136   5.579   7.973 -2.3686 -0.0813  0.0041
   99MOL0     H13066  11.353   5.937   7.928  2.2686 -1.6497  1.9168
   99MOL0     H13067  10.834   5.359   7.434 -0.6201  3.5551 -0.7251
   99MOL0     H13068  10.605   5.280   7.395  1.4885  1.5158 -1.8665
  100MOL0     O13069   0.344   1.330   3.313  1.1407  0.5528 -0.1162
  100MOL0     C13070   0.278   1.438   3.316  0.5946  0.9796  0.0506
  100MOL0     O13071   0.213   1.491   3.205  0.2411  0.7208 -0.4441
  100MOL0     C13072   0.237   1.431   3.085 -0.6812  0.1228  0.3100
  100MOL0     C13073   0.157   1.318   3.042  0.0612 -0.4785 -0.9561
  100MOL0     C13074   0.188   1.262   2.925  0.0355  0.2345  0.0473
  100MOL0     C13075   0.297   1.300   2.838 -0.2474 -0.8406  0.5314
  100MOL0     O13076   0.333   1.246   2.715  0.1371 -0.2818  0.0888
  100MOL0     C13077   0.260   1.136   2.667  0.0451 -0.1650 -0.2695
  100MOL0     C13078   0.130   1.165   2.610  0.4336 -0.1397  0.7012
  100MOL0     C13079   0.111   1.089   2.473 -0.3284  0.2628 -0.4670
  100MOL0     C13080   0.075   0.950   2.494  0.7012 -0.4721 -0.3168
  100MOL0     C13081   0.031   0.874   2.362 -0.0484  0.4789 -0.2878
  100MOL0     C13082   0.056   0.721   2.369  0.1175 -0.8947 -0.0795
  100MOL0     C13083  -0.054   0.642   2.436 -0.3177  0.3681 -0.5511
  100MOL0     C13084  -0.048   0.488   2.409 -0.8649 -0.6297  0.0284
  100MOL0     N13085   0.089   0.424   2.386  0.2885  0.2617  0.0666
  100MOL0     C13086   0.117   0.329   2.303  0.5073  0.2385  0.5573
  100MOL0     C13087   0.246   0.287   2.322  0.5456 -0.0894 -0.1331
  100MOL0     C13088   0.332   0.199   2.231 -0.2478 -0.3450  0.1770
  100MOL0     C13089   0.341   0.051   2.263  0.5721 -0.2572  0.3941
  100MOL0     C13090   0.407   0.009   2.398  0.1082  0.1091 -0.2800
  100MOL0     C13091   0.370  -0.136   2.430  0.2942 -0.1258  0.0501
  100MOL0     O13092   0.427  -0.237   2.339 -0.7449 -1.0384 -0.4833
  100MOL0     C13093   0.403  -0.371   2.369  0.0914 -0.3325 -0.0350
  100MOL0     C13094   0.450  -0.455   2.272  0.2285  0.2325 -0.1234
  100MOL0     C13095   0.446  -0.592   2.280 -0.2387 -0.0648 -0.3114
  100MOL0     C13096   0.411  -0.651   2.397  0.6995  0.0352 -0.4409
  100MOL0     C13097   0.411  -0.797   2.414  0.2521 -0.1052 -0.2975
  100MOL0     O13098   0.397  -0.856   2.538  0.2083 -0.0355  0.1006
  100MOL0     C13099   0.450  -0.982   2.544  0.1730 -0.3427 -0.3853
  100MOL0     C13100   0.378  -1.098   2.565  0.2058 -0.5200  0.8126
  100MOL0     C13101   0.433  -1.232   2.580 -0.6172 -0.5904  0.4691
  100MOL0     C13102   0.575  -1.235   2.593  0.0658 -0.5062 -0.4117
  100MOL0     O13103   0.620  -1.354   2.633  0.0431  0.5790  0.5613
  100MOL0     C13104   0.730  -1.346   2.731 -0.1464  0.3041 -0.7377
  100MOL0     C13105   0.793  -1.479   2.723 -0.0940  0.8309  0.6547
  100MOL0     C13106   0.870  -1.514   2.847 -0.6240 -0.2670 -0.2101
  100MOL0     C13107   0.912  -1.668   2.832  0.9323  0.0890 -0.5810
  100MOL0     C13108   0.973  -1.725   2.956 -0.2613 -0.6066 -0.3348
  100MOL0     C13109   1.000  -1.874   2.941  0.1726  0.8023 -0.0611
  100MOL0     C13110   1.104  -1.910   3.050 -0.6655 -0.1658 -0.1740
  100MOL0     C13111   1.145  -2.054   3.051 -0.1083 -0.3810 -0.6347
  100MOL0    Cl13112   1.191  -2.101   3.208  0.0149  0.5209 -0.7129
  100MOL0     C13113   0.659  -1.118   2.577  1.6926  0.9499 -0.5404
  100MOL0     C13114   0.594  -0.997   2.539 -0.4410 -0.2967 -0.6201
  100MOL0     O13115   0.419  -0.860   2.303  0.6931 -0.1189 -0.6563
  100MOL0     C13116   0.358  -0.567   2.500 -0.0910  0.8853  0.0057
  100MOL0     C13117   0.352  -0.433   2.486 -0.9450  0.3761 -0.3250
  100MOL0     N13118   0.288   0.348   2.439 -0.2644  0.4191  0.1897
  100MOL0     N13119   0.195   0.434   2.467 -0.8744 -0.4277  0.0812
  100MOL0     C13120   0.374   1.413   2.884  0.0277  1.0855  0.1270
  100MOL0     C13121   0.336   1.479   3.004 -0.4467 -0.0828  1.2850
  100MOL0     C13122   0.286   1.510   3.440  0.9867  0.0430  1.2450
  100MOL0     C13123   0.189   1.607   3.463 -0.4725 -0.4316 -0.3899
  100MOL0     C13124   0.189   1.680   3.584 -0.7947  0.5164 -0.7219
  100MOL0     C13125   0.291   1.672   3.675  0.3402  0.2447  0.3818
  100MOL0     O13126   0.276   1.768   3.778 -0.8964  0.1203  0.0174
  100MOL0     C13127   0.315   1.736   3.911  0.0872  0.3193 -0.1357
  100MOL0     C13128   0.245   1.623   3.972  0.4913 -0.0994  0.0468
  100MOL0     C13129   0.098   1.640   3.978 -0.5295 -0.2750 -1.0357
  100MOL0     C13130   0.028   1.511   4.021  0.4190 -0.2565 -0.1034
  100MOL0     C13131  -0.119   1.543   4.005  0.8600 -0.1087  0.1961
  100MOL0     C13132  -0.232   1.584   4.016  0.9458  0.9746 -0.1543
  100MOL0     C13133   0.390   1.573   3.652 -0.0144 -0.9131 -0.3946
  100MOL0     C13134   0.387   1.493   3.542 -0.4400  0.0880 -0.1008
  100MOL0     H13135   0.065   1.300   3.097 -1.4286  3.3179 -1.9014
  100MOL0     H13136   0.118   1.185   2.895 -0.6873  0.7643  0.3584
  100MOL0     H13137   0.247   1.055   2.740  0.2009  0.5472  0.5697
  100MOL0     H13138   0.328   1.091   2.594  0.1453 -0.4215 -0.0201
  100MOL0     H13139   0.131   1.273   2.592  0.3149 -0.2647 -0.0742
  100MOL0     H13140   0.049   1.136   2.678  0.6774 -0.5979  0.8037
  100MOL0     H13141   0.195   1.103   2.406 -0.5613 -1.8284 -1.2715
  100MOL0     H13142   0.029   1.125   2.409  0.5098  1.4558 -0.8933
  100MOL0     H13143   0.152   0.904   2.557 -1.1644  0.9847  3.4009
  100MOL0     H13144  -0.016   0.945   2.555  1.2458 -2.0583  0.4095
  100MOL0     H13145   0.102   0.900   2.284  1.4263  0.8344  1.1122
  100MOL0     H13146  -0.071   0.891   2.327  0.6078 -0.8219 -3.1112
  100MOL0     H13147   0.152   0.717   2.422 -0.1784  2.1059  0.8778
  100MOL0     H13148   0.067   0.681   2.268 -0.1748  2.8189 -1.7131
  100MOL0     H13149  -0.032   0.663   2.541  0.0495  3.0179 -1.0964
  100MOL0     H13150  -0.160   0.666   2.426 -1.3205 -2.9492  0.8118
  100MOL0     H13151  -0.093   0.470   2.311  0.1537 -1.1002 -0.3662
  100MOL0     H13152  -0.108   0.432   2.480  0.1879 -3.9799 -1.5112
  100MOL0     H13153   0.047   0.303   2.224  1.1658  0.6894 -0.1877
  100MOL0     H13154   0.431   0.237   2.258 -0.7776  0.3087  1.2494
  100MOL0     H13155   0.299   0.205   2.127  0.2798 -2.5065 -0.1618
  100MOL0     H13156   0.380  -0.014   2.184 -3.3536 -0.0432 -2.0113
  100MOL0     H13157   0.234   0.026   2.265 -0.9261  3.9196 -4.6916
  100MOL0     H13158   0.515   0.013   2.379  0.1050  1.6872 -0.1063
  100MOL0     H13159   0.377   0.072   2.482  0.6916 -3.5147  2.9383
  100MOL0     H13160   0.261  -0.140   2.444  0.7235 -1.0692  4.9485
  100MOL0     H13161   0.417  -0.143   2.528 -0.3663  1.2479  0.5010
  100MOL0     H13162   0.487  -0.398   2.187 -0.0164  3.3947  1.7138
  100MOL0     H13163   0.480  -0.651   2.195 -0.5887 -0.3306 -0.2673
  100MOL0     H13164   0.271  -1.093   2.579  0.0605 -1.5725  0.1293
  100MOL0     H13165   0.376  -1.324   2.585 -0.8107 -1.0302 -4.5051
  100MOL0     H13166   0.685  -1.345   2.831  3.6290  0.6798  1.1592
  100MOL0     H13167   0.801  -1.262   2.733  0.5169 -0.2339  1.0154
  100MOL0     H13168   0.848  -1.480   2.628  1.8688  1.1995  1.7254
  100MOL0     H13169   0.714  -1.555   2.722  0.4591  0.2304 -1.0120
  100MOL0     H13170   0.804  -1.498   2.933 -0.8622  2.3566 -0.7959
  100MOL0     H13171   0.965  -1.458   2.852 -0.1969 -1.0401  0.5508
  100MOL0     H13172   0.823  -1.729   2.814  1.3968 -1.0784  0.9378
  100MOL0     H13173   0.975  -1.679   2.743 -0.8274 -1.8391 -1.6561
  100MOL0     H13174   0.903  -1.708   3.038  0.2386  1.0067 -0.2076
  100MOL0     H13175   1.070  -1.679   2.980  0.4453 -1.9960 -0.4357
  100MOL0     H13176   1.057  -1.890   2.849  0.3335  1.8115 -0.1489
  100MOL0     H13177   0.913  -1.941   2.944  0.7710  0.0018 -0.1310
  100MOL0     H13178   1.197  -1.857   3.027 -2.0786  1.6986 -1.9582
  100MOL0     H13179   1.070  -1.876   3.148 -2.5715  1.2543 -1.2525
  100MOL0     H13180   1.229  -2.065   2.983  0.7207  0.8029  0.1587
  100MOL0     H13181   1.061  -2.118   3.022 -0.2761 -1.7302  2.3738
  100MOL0     H13182   0.767  -1.127   2.581  1.5658 -0.9706 -0.0253
  100MOL0     H13183   0.662  -0.913   2.527  1.0548 -0.7821  3.1581
  100MOL0     H13184   0.322  -0.614   2.591 -0.0800  0.1342 -0.3657
  100MOL0     H13185   0.318  -0.383   2.576 -0.2293 -2.7876  1.8840
  100MOL0     H13186   0.444   1.463   2.816 -1.6779  1.3676 -1.5027
  100MOL0     H13187   0.384   1.565   3.050 -0.1041 -0.5900  1.8981
  100MOL0     H13188   0.110   1.638   3.396  1.3934  1.2776 -1.9193
  100MOL0     H13189   0.112   1.756   3.596  1.0562  2.3388  0.2717
  100MOL0     H13190   0.305   1.827   3.972  0.7258  0.7572 -0.6746
  100MOL0     H13191   0.422   1.713   3.903  0.1265  0.1079  0.8383
  100MOL0     H13192   0.260   1.536   3.908 -0.5895 -0.4321  0.2282
  100MOL0     H13193   0.282   1.592   4.070 -0.6596 -1.6154  0.0292
  100MOL0     H13194   0.056   1.672   3.882  0.9437  0.0337 -1.6041
  100MOL0     H13195   0.083   1.715   4.057  1.4870  0.0963 -0.9656
  100MOL0     H13196   0.048   1.422   3.959  0.6865 -0.4634  0.2761
  100MOL0     H13197   0.055   1.480   4.122 -4.0213  0.1120  1.4061
  100MOL0     H13198  -0.335   1.610   4.033  0.7259 -0.7393  1.5485
  100MOL0     H13199   0.459   1.542   3.729 -0.9164 -2.1796 -0.0631
  100MOL0     H13200   0.472   1.429   3.520 -0.4219 -0.3821  1.2190
  101MOL0     O13201   7.828   0.611   5.436 -0.2395  0.0085 -0.4215
  101MOL0     C13202   7.807   0.621   5.558 -0.3113  1.3927  0.2066
  101MOL0     O13203   7.906   0.634   5.654  0.1559 -0.6253 -0.0634
  101MOL0     C13204   8.037   0.639   5.619  0.5659 -0.1417  0.4808
  101MOL0     C13205   8.087   0.539   5.540  0.0035 -0.2297  0.5366
  101MOL0     C13206   8.212   0.537   5.485 -0.0086 -0.3417 -0.0607
  101MOL0     C13207   8.296   0.647   5.520  0.9579  0.0103 -0.1078
  101MOL0     O13208   8.421   0.649   5.471 -0.2879  0.7276  0.2671
  101MOL0     C13209   8.490   0.528   5.429  0.0514 -0.3701  0.6756
  101MOL0     C13210   8.638   0.556   5.452  0.1560 -0.4007  0.0779
  101MOL0     C13211   8.668   0.623   5.584 -0.1290 -0.2681  0.0377
  101MOL0     C13212   8.625   0.543   5.702 -0.3196  0.7598 -1.0341
  101MOL0     C13213   8.689   0.572   5.844  0.0370 -0.0903  0.6455
  101MOL0     C13214   8.602   0.675   5.935  0.7291  0.3281  0.4146
  101MOL0     C13215   8.555   0.805   5.860  0.8147 -0.2293  0.0878
  101MOL0     C13216   8.465   0.882   5.960  0.2074 -0.1242 -0.6753
  101MOL0     N13217   8.385   0.997   5.909 -0.4232 -0.2473  0.8106
  101MOL0     C13218   8.431   1.122   5.882  0.3901 -1.3805  1.0328
  101MOL0     C13219   8.335   1.169   5.800  0.5830  0.2438 -0.3977
  101MOL0     C13220   8.333   1.315   5.769  0.6492 -1.0115  1.2593
  101MOL0     C13221   8.225   1.353   5.654 -0.0035  0.8105 -1.2172
  101MOL0     C13222   8.274   1.481   5.592  0.5225  0.2957 -0.7397
  101MOL0     C13223   8.175   1.504   5.481  0.8053 -0.3412  0.1794
  101MOL0     O13224   8.223   1.433   5.368 -0.4581 -0.0476  0.3742
  101MOL0     C13225   8.318   1.499   5.283 -1.5434  0.6364  0.0230
  101MOL0     C13226   8.378   1.419   5.184  0.2096  0.1797 -0.1339
  101MOL0     C13227   8.469   1.465   5.090  0.2757 -1.3399  0.3854
  101MOL0     C13228   8.518   1.593   5.107 -0.8025 -0.0594  0.8155
  101MOL0     C13229   8.639   1.631   5.011  0.7318 -0.1893 -0.6779
  101MOL0     O13230   8.667   1.544   4.912 -0.2214 -0.2226 -0.4001
  101MOL0     C13231   8.777   1.569   4.831  0.7987  0.7725  0.3234
  101MOL0     C13232   8.880   1.475   4.839  0.0344 -0.5111  0.0069
  101MOL0     C13233   8.998   1.493   4.760  0.9436 -0.4146 -0.3018
  101MOL0     C13234   9.001   1.594   4.671 -0.8600 -0.8711 -0.1678
  101MOL0     O13235   9.102   1.608   4.580  0.0076 -0.2810 -0.3204
  101MOL0     C13236   9.230   1.602   4.643 -0.1043 -0.0490  0.4164
  101MOL0     C13237   9.318   1.502   4.584  0.9085  0.0206 -0.4966
  101MOL0     C13238   9.439   1.488   4.671 -0.8528 -0.4123 -0.7359
  101MOL0     C13239   9.533   1.378   4.624  1.5289 -0.0202  0.3183
  101MOL0     C13240   9.647   1.350   4.725  0.5941  1.2310 -0.0620
  101MOL0     C13241   9.751   1.245   4.687 -0.8568 -0.1009  0.1683
  101MOL0     C13242   9.709   1.106   4.705 -0.5585 -0.5502  0.8114
  101MOL0     C13243   9.794   1.000   4.635  0.6521  0.4210  0.0423
  101MOL0    Cl13244   9.720   0.834   4.684  0.1332  0.1871 -0.0297
  101MOL0     C13245   8.900   1.692   4.660 -0.1864 -0.1976 -0.4408
  101MOL0     C13246   8.786   1.670   4.734  0.0484  0.8261  0.0401
  101MOL0     O13247   8.682   1.737   5.023  0.4858 -0.9460  0.5799
  101MOL0     C13248   8.462   1.682   5.200  0.3678  0.1877  0.0009
  101MOL0     C13249   8.368   1.629   5.290  0.7184 -0.3607 -0.5182
  101MOL0     N13250   8.226   1.085   5.790 -0.9289 -0.3515  0.3030
  101MOL0     N13251   8.261   0.976   5.854 -0.5956 -0.7288  0.4096
  101MOL0     C13252   8.254   0.749   5.614 -0.1565  0.1355  0.1957
  101MOL0     C13253   8.126   0.742   5.658  0.2641  0.0682 -1.1152
  101MOL0     C13254   7.660   0.630   5.599 -0.1313 -0.6750  0.5050
  101MOL0     C13255   7.549   0.624   5.505  0.3792 -0.6283  0.4008
  101MOL0     C13256   7.422   0.632   5.557  0.0588 -1.4532 -1.0881
  101MOL0     C13257   7.403   0.649   5.695 -0.1283 -0.5209 -0.7713
  101MOL0     O13258   7.287   0.652   5.766  0.7747  0.5182  0.4483
  101MOL0     C13259   7.170   0.628   5.684 -1.0729  0.6178 -0.2528
  101MOL0     C13260   7.039   0.618   5.767  0.3367  0.6165 -0.0990
  101MOL0     C13261   6.899   0.624   5.695  0.1652  0.6848  0.0527
  101MOL0     C13262   6.804   0.675   5.802  0.4242  0.0374  0.5825
  101MOL0     C13263   6.670   0.660   5.746  0.3637  0.9352  0.2924
  101MOL0     C13264   6.563   0.676   5.709  1.2603  0.4669 -0.2327
  101MOL0     C13265   7.512   0.646   5.781  0.5530 -0.2271  0.5808
  101MOL0     C13266   7.643   0.630   5.737 -0.7187 -0.9844 -0.1496
  101MOL0     H13267   8.015   0.466   5.504 -2.7995  2.0957  1.0912
  101MOL0     H13268   8.249   0.458   5.420 -2.8710  0.4918 -2.9984
  101MOL0     H13269   8.473   0.499   5.325 -1.3987 -1.6138  1.2221
  101MOL0     H13270   8.456   0.440   5.485 -3.9956  0.1600 -0.6306
  101MOL0     H13271   8.676   0.625   5.376  3.4787 -1.3867  0.6907
  101MOL0     H13272   8.692   0.462   5.435  1.1883 -0.3734  2.6694
  101MOL0     H13273   8.620   0.721   5.589 -0.4291 -0.3848 -0.5215
  101MOL0     H13274   8.775   0.645   5.587 -0.0545 -0.6909  2.1972
  101MOL0     H13275   8.518   0.562   5.716  0.0206  3.6354 -1.8058
  101MOL0     H13276   8.647   0.439   5.676  3.9612  1.0280  0.7183
  101MOL0     H13277   8.788   0.615   5.826 -0.8128  1.3049 -1.0166
  101MOL0     H13278   8.692   0.477   5.899 -0.6635 -1.2011 -1.1560
  101MOL0     H13279   8.660   0.713   6.019  1.1423 -0.0897  0.3211
  101MOL0     H13280   8.514   0.619   5.970 -0.1442  1.1325 -0.4053
  101MOL0     H13281   8.642   0.859   5.823 -0.2539 -0.0260 -2.3004
  101MOL0     H13282   8.491   0.783   5.774  2.2877 -0.7276 -0.9090
  101MOL0     H13283   8.534   0.930   6.029  2.2943 -1.5372 -1.6618
  101MOL0     H13284   8.402   0.801   5.999 -1.5256 -0.2503 -3.4303
  101MOL0     H13285   8.525   1.173   5.900  0.7155 -0.0646 -3.3203
  101MOL0     H13286   8.437   1.343   5.752  0.9257 -2.1570  0.9744
  101MOL0     H13287   8.307   1.360   5.865  1.3869  0.3995  0.8190
  101MOL0     H13288   8.126   1.353   5.701 -0.3270 -2.3859 -1.6520
  101MOL0     H13289   8.224   1.274   5.578  0.8705  0.6414 -1.0595
  101MOL0     H13290   8.264   1.561   5.666  0.0667 -0.7517  0.3761
  101MOL0     H13291   8.375   1.460   5.556 -0.7341 -0.8703 -3.9888
  101MOL0     H13292   8.161   1.612   5.469 -0.4702  0.1714  4.5356
  101MOL0     H13293   8.071   1.477   5.498  0.7487  0.6907  1.7023
  101MOL0     H13294   8.326   1.324   5.179 -2.2234  1.4329  0.2611
  101MOL0     H13295   8.507   1.394   5.017  1.6861 -1.2300  0.9888
  101MOL0     H13296   8.878   1.391   4.909  1.7998 -0.3880  0.2448
  101MOL0     H13297   9.077   1.420   4.759  2.4151  1.0933 -2.2146
  101MOL0     H13298   9.214   1.590   4.750 -3.3779  1.6645  0.2437
  101MOL0     H13299   9.275   1.700   4.621 -2.9236  1.2225 -0.2059
  101MOL0     H13300   9.336   1.538   4.483 -0.1069  0.5484 -0.5022
  101MOL0     H13301   9.264   1.409   4.562  0.6171  0.7833 -3.2732
  101MOL0     H13302   9.406   1.461   4.772 -0.7005 -0.2784 -0.6501
  101MOL0     H13303   9.487   1.586   4.679  3.6153 -2.3483 -0.9608
  101MOL0     H13304   9.476   1.287   4.602 -1.1370  1.4916  0.4824
  101MOL0     H13305   9.567   1.394   4.521 -0.6829 -3.1039 -1.0479
  101MOL0     H13306   9.591   1.305   4.808 -1.7471 -1.1932 -2.7111
  101MOL0     H13307   9.680   1.452   4.745 -1.6610  2.4616 -2.0680
  101MOL0     H13308   9.846   1.261   4.738  0.4532 -0.8311 -1.9500
  101MOL0     H13309   9.783   1.252   4.583 -0.4431 -1.6388  0.1691
  101MOL0     H13310   9.694   1.092   4.813  1.7446 -0.5682  1.1905
  101MOL0     H13311   9.609   1.093   4.663 -0.9951 -0.8984  1.9268
  101MOL0     H13312   9.900   1.005   4.664  1.0913 -0.5868 -1.2457
  101MOL0     H13313   9.783   0.998   4.526  0.9822 -4.1620 -0.1289
  101MOL0     H13314   8.901   1.781   4.597 -1.8137  1.3378  1.5495
  101MOL0     H13315   8.698   1.734   4.730  1.3140  3.0446  3.0965
  101MOL0     H13316   8.505   1.781   5.205  0.6599  0.0217  4.0463
  101MOL0     H13317   8.323   1.692   5.366 -0.2284 -0.4408 -1.0012
  101MOL0     H13318   8.317   0.829   5.650 -1.7511 -0.1964  4.3236
  101MOL0     H13319   8.092   0.810   5.735  1.8031 -0.4970  0.1177
  101MOL0     H13320   7.564   0.603   5.400  3.2346 -1.2574  0.8503
  101MOL0     H13321   7.336   0.624   5.492 -0.5286  3.1007 -1.2007
  101MOL0     H13322   7.185   0.534   5.631  0.5101  1.0673 -0.6565
  101MOL0     H13323   7.170   0.713   5.615  4.7152  2.2180  1.2458
  101MOL0     H13324   7.049   0.514   5.799  2.1861  0.8231  0.0505
  101MOL0     H13325   7.054   0.690   5.848  2.1517 -0.8641  0.9517
  101MOL0     H13326   6.868   0.526   5.655  0.0099 -0.3374  2.5172
  101MOL0     H13327   6.904   0.700   5.617  4.3216  0.6394  0.0537
  101MOL0     H13328   6.808   0.616   5.893 -1.1734  0.0286  0.6826
  101MOL0     H13329   6.833   0.778   5.827  2.3549 -0.2217 -0.3846
  101MOL0     H13330   6.463   0.678   5.670  1.8240 -5.0926 -3.0965
  101MOL0     H13331   7.478   0.658   5.883  0.7636 -1.8768  0.8813
  101MOL0     H13332   7.722   0.649   5.809 -3.0164  1.9220  1.8406
  102MOL0     O13333   7.896   3.899   0.726 -0.3548 -0.1234  0.2499
  102MOL0     C13334   7.896   3.832   0.625 -0.1222  0.3001  0.2991
  102MOL0     O13335   7.860   3.704   0.610 -0.5301  0.3895  0.2466
  102MOL0     C13336   7.827   3.632   0.721  0.6208 -1.3674  0.0174
  102MOL0     C13337   7.692   3.636   0.777 -0.3541 -0.7256  0.5734
  102MOL0     C13338   7.662   3.550   0.883  0.0824 -0.4006  0.1384
  102MOL0     C13339   7.753   3.475   0.945 -0.1004 -0.2888 -0.5131
  102MOL0     O13340   7.712   3.403   1.055 -0.1213 -0.0587 -0.5081
  102MOL0     C13341   7.797   3.305   1.104 -1.0148 -0.2568 -1.1734
  102MOL0     C13342   7.729   3.252   1.227  0.0490 -0.0859  0.8741
  102MOL0     C13343   7.669   3.366   1.308  0.2185 -0.2321 -0.1403
  102MOL0     C13344   7.610   3.318   1.449  0.2448 -0.1077  0.7073
  102MOL0     C13345   7.547   3.426   1.532  0.7038  0.1149  0.4861
  102MOL0     C13346   7.634   3.531   1.584 -0.5262  0.4743 -0.0451
  102MOL0     C13347   7.754   3.474   1.671 -0.4820  0.5881 -0.0154
  102MOL0     C13348   7.845   3.591   1.715  0.8648 -0.1366 -0.3445
  102MOL0     N13349   7.941   3.545   1.815  0.0364 -0.0083  0.0280
  102MOL0     C13350   8.060   3.493   1.790  0.3732  0.1696  0.9210
  102MOL0     C13351   8.112   3.465   1.913  0.1665 -0.2671  0.5084
  102MOL0     C13352   8.259   3.437   1.948  0.9118 -0.4613  0.7349
  102MOL0     C13353   8.281   3.285   1.935 -0.5789 -0.8455  1.2459
  102MOL0     C13354   8.434   3.263   1.938  0.5166  0.2667  0.5368
  102MOL0     C13355   8.465   3.112   1.933  0.2982  0.4432 -0.0336
  102MOL0     O13356   8.605   3.087   1.930  0.6507 -0.8470 -0.3749
  102MOL0     C13357   8.640   2.996   1.839 -0.3888 -0.9088 -0.7897
  102MOL0     C13358   8.687   3.028   1.709 -0.3446  0.8647 -0.1375
  102MOL0     C13359   8.728   2.926   1.625 -0.6437  0.0443  0.1957
  102MOL0     C13360   8.742   2.793   1.673 -0.2902 -0.5910 -0.4841
  102MOL0     C13361   8.812   2.697   1.584 -0.2050  0.1836  0.3495
  102MOL0     O13362   8.889   2.743   1.485  0.2883 -0.1174  0.4999
  102MOL0     C13363   8.975   2.656   1.413  0.5241  0.5649  0.0244
  102MOL0     C13364   9.064   2.562   1.469 -0.5148 -1.1573 -0.3245
  102MOL0     C13365   9.150   2.480   1.393 -0.0308  0.5468 -0.0623
  102MOL0     C13366   9.134   2.489   1.259 -0.6997  0.5152  0.0122
  102MOL0     O13367   9.220   2.403   1.189 -0.3245 -0.8134 -0.4256
  102MOL0     C13368   9.217   2.392   1.047  0.4672  0.1725 -0.2259
  102MOL0     C13369   9.332   2.307   0.996 -0.6715  0.1260 -0.4729
  102MOL0     C13370   9.312   2.163   1.043  0.4365 -0.7006 -0.2244
  102MOL0     C13371   9.432   2.078   0.984  0.5731  0.2871 -0.0060
  102MOL0     C13372   9.459   1.957   1.075 -0.0272  0.2802 -0.1886
  102MOL0     C13373   9.554   2.002   1.196  0.3826 -0.4235  0.9533
  102MOL0     C13374   9.630   1.887   1.260 -0.2521  0.6357  0.0602
  102MOL0     C13375   9.779   1.888   1.215  0.6386 -0.3206 -0.8311
  102MOL0    Cl13376   9.878   1.843   1.350 -0.0171  0.2166 -0.1127
  102MOL0     C13377   9.041   2.586   1.194 -0.2569  0.8489 -0.1593
  102MOL0     C13378   8.967   2.671   1.278  0.1465 -0.9582 -0.1348
  102MOL0     O13379   8.800   2.578   1.617  0.0944  0.4765  0.5482
  102MOL0     C13380   8.685   2.758   1.798  0.3732  0.3380  0.1320
  102MOL0     C13381   8.637   2.861   1.882  0.1051 -0.5989 -0.0286
  102MOL0     N13382   8.022   3.504   2.020 -0.4854 -0.6727 -0.0344
  102MOL0     N13383   7.915   3.536   1.956 -0.4359  0.6676  0.7718
  102MOL0     C13384   7.887   3.496   0.907 -0.5641  0.7888 -0.5416
  102MOL0     C13385   7.927   3.571   0.795 -0.8725 -0.4537  0.4590
  102MOL0     C13386   7.936   3.896   0.495 -0.3790 -0.5254 -0.3928
  102MOL0     C13387   7.936   3.824   0.373  0.9693  0.7459  0.3359
  102MOL0     C13388   7.974   3.886   0.248 -0.1411  0.6187 -0.1696
  102MOL0     C13389   8.010   4.019   0.243  0.7341 -1.1569  0.2548
  102MOL0     O13390   8.047   4.089   0.133  0.1012  0.3834  0.2182
  102MOL0     C13391   8.186   4.136   0.135  0.2461  0.0447  0.9717
  102MOL0     C13392   8.211   4.194  -0.007 -0.0270 -0.1995 -1.3503
  102MOL0     C13393   8.193   4.078  -0.104 -0.8006  0.0147 -0.9019
  102MOL0     C13394   8.321   4.027  -0.156  0.5283  0.0506  1.1498
  102MOL0     C13395   8.299   3.941  -0.273  1.5539 -0.3399  1.1511
  102MOL0     C13396   8.279   3.858  -0.363  0.5737  0.4867  0.0060
  102MOL0     C13397   8.018   4.088   0.367  0.8055  1.1946  1.0240
  102MOL0     C13398   7.990   4.023   0.492  0.6466  0.6106  1.3521
  102MOL0     H13399   7.614   3.682   0.717  0.1664 -2.1754 -1.3317
  102MOL0     H13400   7.558   3.526   0.905  0.0294 -2.2831 -1.7706
  102MOL0     H13401   7.888   3.350   1.144 -1.0790 -0.8729 -0.2949
  102MOL0     H13402   7.805   3.230   1.026 -3.7733  0.3643 -2.1936
  102MOL0     H13403   7.798   3.191   1.286  1.5744  0.4577 -0.2906
  102MOL0     H13404   7.645   3.194   1.186 -2.7207  4.0455  0.1532
  102MOL0     H13405   7.586   3.414   1.256  0.0507  1.1120  1.3040
  102MOL0     H13406   7.745   3.444   1.319 -2.9126  2.9828  0.3894
  102MOL0     H13407   7.533   3.243   1.429 -0.7957  0.7153  1.5162
  102MOL0     H13408   7.684   3.266   1.511 -2.0453  0.5984  4.3142
  102MOL0     H13409   7.501   3.368   1.612 -1.3562  1.4678  0.3381
  102MOL0     H13410   7.467   3.477   1.478  0.7358 -0.1280  0.2016
  102MOL0     H13411   7.575   3.600   1.645 -1.1905  3.1866 -3.4345
  102MOL0     H13412   7.682   3.591   1.506 -1.2235  3.0498  1.4047
  102MOL0     H13413   7.707   3.424   1.756  0.0871 -1.4596 -0.8526
  102MOL0     H13414   7.815   3.395   1.627  1.2693  1.1733  1.2709
  102MOL0     H13415   7.786   3.661   1.774  1.3039  0.1472 -0.2438
  102MOL0     H13416   7.886   3.641   1.628  0.2985 -0.1759 -0.6408
  102MOL0     H13417   8.103   3.476   1.692 -1.8289 -1.9914  0.2153
  102MOL0     H13418   8.261   3.466   2.054 -3.4129 -0.8039  1.0968
  102MOL0     H13419   8.325   3.504   1.894  1.0407  0.9874  2.5763
  102MOL0     H13420   8.234   3.252   1.842 -1.0539  0.3813  1.0368
  102MOL0     H13421   8.244   3.235   2.025 -0.5433  0.7422  2.1697
  102MOL0     H13422   8.475   3.314   1.850  4.2764 -2.6955  0.3323
  102MOL0     H13423   8.463   3.302   2.036  0.3672  1.5969  0.0664
  102MOL0     H13424   8.412   3.066   1.849 -1.6433 -1.0214  1.8648
  102MOL0     H13425   8.420   3.060   2.019  0.0764 -2.5531 -1.8187
  102MOL0     H13426   8.689   3.129   1.670 -2.4910 -0.0844 -3.1422
  102MOL0     H13427   8.772   2.962   1.533 -3.1750 -0.0345 -1.1517
  102MOL0     H13428   9.092   2.575   1.573  1.1529  5.5144 -1.1358
  102MOL0     H13429   9.225   2.423   1.446  1.0091  2.0461  0.1278
  102MOL0     H13430   9.225   2.487   0.993 -0.6340 -1.1577 -2.9641
  102MOL0     H13431   9.119   2.349   1.023 -0.2613  0.5399  1.8998
  102MOL0     H13432   9.424   2.342   1.045 -1.6264 -0.5755  2.0082
  102MOL0     H13433   9.344   2.323   0.889  0.4062 -1.6457 -0.6504
  102MOL0     H13434   9.223   2.119   0.997  0.0615  0.6281 -0.8117
  102MOL0     H13435   9.298   2.153   1.151 -0.1067 -0.3421 -0.2562
  102MOL0     H13436   9.410   2.041   0.883  2.3354  4.6601 -2.2579
  102MOL0     H13437   9.521   2.141   0.986  1.5759 -1.0680 -0.1204
  102MOL0     H13438   9.501   1.881   1.008  3.9403  4.4070 -3.0196
  102MOL0     H13439   9.364   1.917   1.113 -0.7106  3.7253  2.1336
  102MOL0     H13440   9.480   2.038   1.268 -0.6086  1.5008 -0.9019
  102MOL0     H13441   9.618   2.088   1.174 -3.7181  3.7928  3.4981
  102MOL0     H13442   9.621   1.905   1.368  2.1031  1.3148  0.1927
  102MOL0     H13443   9.588   1.790   1.233  2.1108 -0.9349  1.6336
  102MOL0     H13444   9.805   1.992   1.192 -2.4069  0.5762 -0.7798
  102MOL0     H13445   9.797   1.825   1.127  5.0073 -1.6847  0.8198
  102MOL0     H13446   9.050   2.600   1.086  0.9309  2.0403  0.0655
  102MOL0     H13447   8.906   2.754   1.243 -0.3386 -0.3736  1.9491
  102MOL0     H13448   8.686   2.657   1.838 -0.8569  0.5261  0.6931
  102MOL0     H13449   8.592   2.840   1.978  2.7937 -4.0320  0.6706
  102MOL0     H13450   7.972   3.452   0.958 -0.0193  0.2860 -1.8374
  102MOL0     H13451   8.028   3.577   0.756 -1.0777  0.1565 -0.0015
  102MOL0     H13452   7.894   3.725   0.384 -1.6171  1.7808  0.5265
  102MOL0     H13453   7.961   3.817   0.166  1.9523 -4.1312  3.0449
  102MOL0     H13454   8.252   4.050   0.150  2.6189  1.0962 -2.3483
  102MOL0     H13455   8.191   4.212   0.213  0.0860  0.6174  0.4407
  102MOL0     H13456   8.135   4.271  -0.023 -2.3879 -2.1885 -0.4668
  102MOL0     H13457   8.314   4.228  -0.011  1.9929 -5.1924  0.4246
  102MOL0     H13458   8.134   4.127  -0.182  0.9572  1.6878 -1.2629
  102MOL0     H13459   8.136   3.998  -0.057  0.4752  0.7740  2.1794
  102MOL0     H13460   8.391   4.103  -0.191  1.6743 -2.6163 -2.9428
  102MOL0     H13461   8.383   3.970  -0.086  2.9512 -0.1117 -0.9966
  102MOL0     H13462   8.260   3.788  -0.441  3.3830 -0.0525 -0.3282
  102MOL0     H13463   8.040   4.194   0.362  0.9969  1.2135  2.0487
  102MOL0     H13464   8.024   4.071   0.584  2.3479 -1.4136  1.8508
  103MOL0     O13465   4.065   0.333   1.807 -0.3665  0.1238 -0.5698
  103MOL0     C13466   4.143   0.412   1.765 -0.8950  0.1822 -0.9578
  103MOL0     O13467   4.141   0.549   1.797 -0.7026  0.4892  0.4181
  103MOL0     C13468   4.062   0.610   1.894 -0.6097 -0.2353 -0.1138
  103MOL0     C13469   4.073   0.753   1.906 -0.4179  1.0225 -0.5211
  103MOL0     C13470   4.013   0.819   2.017  0.8519 -0.2540 -0.4596
  103MOL0     C13471   3.930   0.746   2.101  0.2245  0.5141 -0.5912
  103MOL0     O13472   3.856   0.824   2.189  0.0614  0.2164 -0.1000
  103MOL0     C13473   3.850   0.772   2.326 -0.0735 -0.1496 -0.7903
  103MOL0     C13474   3.773   0.879   2.402 -1.0219 -0.0832  1.2707
  103MOL0     C13475   3.807   0.883   2.554 -0.0695  0.1216  0.2314
  103MOL0     C13476   3.726   0.767   2.622 -0.2819 -0.4404 -0.2285
  103MOL0     C13477   3.759   0.761   2.772  0.7576  0.2720 -0.4406
  103MOL0     C13478   3.741   0.888   2.852 -0.1991 -0.0638  0.2792
  103MOL0     C13479   3.607   0.957   2.842  0.6874  0.3801  0.5003
  103MOL0     C13480   3.538   0.965   2.978 -0.2596  0.5988  0.4134
  103MOL0     N13481   3.397   0.999   2.969 -0.0351  0.7305  0.0428
  103MOL0     C13482   3.334   1.092   3.047 -0.3990  0.1808  0.5117
  103MOL0     C13483   3.207   1.095   3.007  0.0280  0.6787  0.1367
  103MOL0     C13484   3.107   1.178   3.083  0.7414 -0.2372 -0.2518
  103MOL0     C13485   2.968   1.188   3.009 -0.3710  0.3066 -0.2145
  103MOL0     C13486   2.899   1.323   3.005  0.3176 -0.1324 -0.1635
  103MOL0     C13487   2.965   1.426   2.910  0.4279  1.0917  0.0774
  103MOL0     O13488   3.090   1.489   2.963  0.0428  0.2504 -0.4137
  103MOL0     C13489   3.110   1.623   2.936  0.1978  0.2478  0.6217
  103MOL0     C13490   3.196   1.706   3.018 -0.1835  0.7815  0.1687
  103MOL0     C13491   3.216   1.838   2.988  0.2677 -0.1297 -0.0825
  103MOL0     C13492   3.146   1.903   2.883  0.1211  0.6804 -0.2532
  103MOL0     C13493   3.152   2.047   2.861 -0.2488 -0.5954 -0.2880
  103MOL0     O13494   3.054   2.094   2.783  1.3681 -0.4868  0.2080
  103MOL0     C13495   3.086   2.210   2.711  0.7808  0.0523  1.1939
  103MOL0     C13496   3.157   2.203   2.587  0.5219  0.2270 -1.2246
  103MOL0     C13497   3.207   2.324   2.522 -0.3351  0.5951  0.2917
  103MOL0     C13498   3.165   2.444   2.580  0.0977  0.2947 -0.0602
  103MOL0     O13499   3.200   2.567   2.544  0.1601 -0.3944  0.0293
  103MOL0     C13500   3.307   2.577   2.446  0.2672  0.0931  0.2322
  103MOL0     C13501   3.335   2.732   2.426  0.4099  0.5054  0.8845
  103MOL0     C13502   3.391   2.792   2.553  0.1499  0.5206  0.9608
  103MOL0     C13503   3.445   2.926   2.539  0.0091 -0.0565 -0.4032
  103MOL0     C13504   3.337   3.034   2.512 -0.4282 -0.0775 -0.0641
  103MOL0     C13505   3.396   3.172   2.505 -0.3629 -0.6674 -0.4791
  103MOL0     C13506   3.306   3.283   2.448 -0.7739 -0.5228  0.4987
  103MOL0     C13507   3.165   3.286   2.512 -0.2169  0.5705  0.0532
  103MOL0    Cl13508   3.088   3.438   2.469  0.0726  0.6209 -0.2082
  103MOL0     C13509   3.075   2.446   2.682  0.1547 -0.0764  0.4941
  103MOL0     C13510   3.030   2.333   2.741 -1.4250 -0.2805 -0.2785
  103MOL0     O13511   3.223   2.111   2.934  0.2615 -0.8692  0.3267
  103MOL0     C13512   3.057   1.822   2.809 -0.0079 -0.8520  0.3430
  103MOL0     C13513   3.045   1.691   2.829 -0.1963  1.4608 -0.5211
  103MOL0     N13514   3.197   1.020   2.889  0.1481 -0.2115 -0.4925
  103MOL0     N13515   3.308   0.958   2.873  0.9769 -0.0831  0.1294
  103MOL0     C13516   3.915   0.604   2.081 -0.0194 -1.5038 -0.5157
  103MOL0     C13517   3.984   0.542   1.982  0.4482  0.5655  0.8633
  103MOL0     C13518   4.244   0.370   1.667  0.0488 -1.4165  0.5596
  103MOL0     C13519   4.344   0.464   1.617  0.8343  0.0027 -0.8501
  103MOL0     C13520   4.435   0.427   1.517  0.6406 -0.8923  0.4007
  103MOL0     C13521   4.445   0.291   1.480  0.9415  0.6676 -0.2021
  103MOL0     O13522   4.526   0.235   1.393  0.3678 -0.0576  0.6318
  103MOL0     C13523   4.579   0.323   1.294 -0.0957  0.3861  0.0574
  103MOL0     C13524   4.641   0.241   1.190  0.0458 -0.0185 -0.0947
  103MOL0     C13525   4.781   0.186   1.222 -0.0054  0.5218 -0.4770
  103MOL0     C13526   4.759   0.059   1.300 -0.0840  0.2969  1.2797
  103MOL0     C13527   4.890  -0.007   1.334 -1.1349  0.3154 -0.1974
  103MOL0     C13528   5.004  -0.057   1.358  0.1774 -0.3129  0.4457
  103MOL0     C13529   4.359   0.196   1.545 -0.5443 -0.0441  0.4600
  103MOL0     C13530   4.263   0.233   1.638  0.1348 -0.1436  0.0296
  103MOL0     H13531   4.132   0.807   1.833 -2.2578  0.2795 -2.6982
  103MOL0     H13532   4.036   0.921   2.045  0.5953 -0.3340  0.0424
  103MOL0     H13533   3.952   0.750   2.358  1.2661 -1.2839 -5.2351
  103MOL0     H13534   3.789   0.681   2.323 -1.0248  0.4292  0.1693
  103MOL0     H13535   3.666   0.865   2.386 -0.9610 -0.5503  1.2494
  103MOL0     H13536   3.803   0.978   2.366 -0.2584 -1.6872 -3.0953
  103MOL0     H13537   3.775   0.982   2.587 -0.6916 -0.8610  2.7971
  103MOL0     H13538   3.915   0.887   2.564  0.0001  1.5070 -0.7598
  103MOL0     H13539   3.618   0.780   2.609 -0.4934 -0.4979  1.3316
  103MOL0     H13540   3.746   0.674   2.569  0.5713 -2.3606  3.2066
  103MOL0     H13541   3.849   0.710   2.807 -1.0902 -1.2872  2.3907
  103MOL0     H13542   3.690   0.685   2.807  1.4636  0.1209  0.6641
  103MOL0     H13543   3.819   0.958   2.821  1.9846 -1.1931  2.9187
  103MOL0     H13544   3.778   0.876   2.954  1.3860 -2.2866 -0.4728
  103MOL0     H13545   3.628   1.045   2.780 -0.9437 -2.0256 -3.9451
  103MOL0     H13546   3.538   0.891   2.788  0.4593 -0.6418  1.9841
  103MOL0     H13547   3.601   1.033   3.036 -2.0900  1.3174  1.6484
  103MOL0     H13548   3.539   0.865   3.022  3.4238  0.4984  0.3936
  103MOL0     H13549   3.377   1.144   3.133 -0.0920  1.3645 -0.3244
  103MOL0     H13550   3.154   1.274   3.104  1.2088 -0.8127  1.5755
  103MOL0     H13551   3.091   1.127   3.179  0.5192 -0.6271 -0.4932
  103MOL0     H13552   2.905   1.113   3.058 -0.7154  1.7484  1.6192
  103MOL0     H13553   2.968   1.155   2.904 -2.7250  4.1125 -1.5905
  103MOL0     H13554   2.796   1.302   2.975 -0.0114 -0.4891  1.1396
  103MOL0     H13555   2.907   1.356   3.109  3.5230 -1.3237  0.0618
  103MOL0     H13556   2.889   1.504   2.905  0.3341  1.1300  1.7349
  103MOL0     H13557   2.981   1.370   2.817  1.7388 -0.6927  1.3090
  103MOL0     H13558   3.254   1.659   3.097  1.4568  0.9720 -0.8710
  103MOL0     H13559   3.280   1.901   3.048  1.2680  0.3084 -1.5748
  103MOL0     H13560   3.197   2.106   2.557 -1.7213 -1.3448  0.6005
  103MOL0     H13561   3.280   2.322   2.442  0.9777  2.0795  1.3795
  103MOL0     H13562   3.283   2.530   2.350  0.6690 -0.8270  0.5705
  103MOL0     H13563   3.402   2.530   2.474 -1.2282 -1.5375  2.9722
  103MOL0     H13564   3.239   2.780   2.405  0.4524  1.7633  3.2484
  103MOL0     H13565   3.408   2.727   2.344 -0.7663  0.1159 -0.1698
  103MOL0     H13566   3.468   2.723   2.587  1.9422  2.1277  0.3466
  103MOL0     H13567   3.305   2.790   2.621 -2.7180  1.8085 -2.3268
  103MOL0     H13568   3.502   2.957   2.628  0.1179 -0.3571 -0.3641
  103MOL0     H13569   3.516   2.928   2.455  0.6042 -2.0299 -0.0155
  103MOL0     H13570   3.260   3.038   2.590 -0.6889 -0.9207 -0.2643
  103MOL0     H13571   3.274   3.014   2.425 -4.6254 -1.6894  2.9899
  103MOL0     H13572   3.484   3.151   2.444 -1.8354 -4.2761 -1.6159
  103MOL0     H13573   3.439   3.197   2.602  0.8596  0.4212 -1.2663
  103MOL0     H13574   3.350   3.383   2.450  0.0995 -0.8568 -0.6824
  103MOL0     H13575   3.292   3.244   2.347  0.7237 -2.4621  0.9787
  103MOL0     H13576   3.168   3.276   2.621 -3.2207  2.0980  0.3606
  103MOL0     H13577   3.108   3.199   2.479  0.2641  0.7695 -1.3383
  103MOL0     H13578   3.044   2.539   2.730 -1.4889 -1.6325  2.6788
  103MOL0     H13579   2.973   2.349   2.832  1.1365  0.9231  1.2262
  103MOL0     H13580   3.007   1.872   2.726  2.0781  1.4749  0.3712
  103MOL0     H13581   2.977   1.639   2.763  2.0521  1.5093 -3.0138
  103MOL0     H13582   3.845   0.558   2.150 -1.0344 -0.2581 -0.6713
  103MOL0     H13583   3.949   0.440   1.974 -0.4954  0.9146  0.3252
  103MOL0     H13584   4.356   0.566   1.652  2.4827 -0.0297 -1.2504
  103MOL0     H13585   4.501   0.500   1.471 -0.7785 -1.1882 -2.2831
  103MOL0     H13586   4.643   0.397   1.343 -1.5677  0.0991  2.5875
  103MOL0     H13587   4.509   0.384   1.237 -0.7575 -2.1378 -2.0540
  103MOL0     H13588   4.567   0.163   1.170 -1.5714  0.2998  3.8001
  103MOL0     H13589   4.653   0.296   1.095 -1.8443 -0.6103 -0.7211
  103MOL0     H13590   4.852   0.258   1.262 -1.5500  1.4247  0.7550
  103MOL0     H13591   4.822   0.152   1.127 -1.9835  0.3444 -1.3312
  103MOL0     H13592   4.707   0.080   1.393 -2.4391 -1.0055  0.3296
  103MOL0     H13593   4.689  -0.011   1.253  0.4909 -1.5118  2.9862
  103MOL0     H13594   5.105  -0.087   1.380  2.0789  5.8531  2.5038
  103MOL0     H13595   4.375   0.094   1.512  1.9177  1.5665 -4.1781
  103MOL0     H13596   4.200   0.164   1.693  0.3604  1.3732  2.3704
  104MOL0     O13597   2.833   7.922   1.142 -0.8615  0.4486  0.0076
  104MOL0     C13598   2.876   7.807   1.127  0.2930 -0.7331  0.0271
  104MOL0     O13599   2.980   7.749   1.194 -0.3487 -0.4008 -0.2711
  104MOL0     C13600   3.058   7.824   1.282  0.8902 -0.9378 -0.2618
  104MOL0     C13601   3.128   7.934   1.234  0.4247 -0.4316 -0.2319
  104MOL0     C13602   3.231   8.002   1.301  0.4416  0.5154 -0.1673
  104MOL0     C13603   3.248   7.965   1.437  0.2488 -0.7297  0.1127
  104MOL0     O13604   3.338   8.018   1.523 -0.2402 -0.0719 -0.5050
  104MOL0     C13605   3.440   8.099   1.459  0.5321  0.9888 -0.3317
  104MOL0     C13606   3.529   8.159   1.566  0.5986 -0.1115  0.2635
  104MOL0     C13607   3.644   8.234   1.500  0.4602  0.8748  0.3665
  104MOL0     C13608   3.706   8.329   1.593  0.3399  0.6443 -0.2981
  104MOL0     C13609   3.832   8.396   1.532  0.9142 -0.2721  0.2287
  104MOL0     C13610   3.844   8.534   1.601 -0.0023 -0.4612  0.5853
  104MOL0     C13611   3.952   8.625   1.554 -0.2316  0.2091  0.1779
  104MOL0     C13612   4.092   8.562   1.557 -0.1170  0.2618 -0.4024
  104MOL0     N13613   4.150   8.541   1.694  0.1992 -0.4143 -0.4189
  104MOL0     C13614   4.113   8.440   1.771  0.4125 -0.4841  0.0169
  104MOL0     C13615   4.169   8.468   1.893 -0.4507 -0.1363 -0.0760
  104MOL0     C13616   4.150   8.378   2.016 -0.5923  0.3950  0.1548
  104MOL0     C13617   4.220   8.241   1.990 -0.2229  0.5549  0.0544
  104MOL0     C13618   4.198   8.146   2.111  0.0090  0.4342  0.8853
  104MOL0     C13619   4.054   8.137   2.149  0.6041  0.7210 -0.1060
  104MOL0     O13620   4.033   8.010   2.212 -0.0719 -1.0535  0.3062
  104MOL0     C13621   4.038   7.991   2.353  0.4866  0.7091  0.7566
  104MOL0     C13622   3.979   7.870   2.405 -0.4428  0.4226 -0.7776
  104MOL0     C13623   3.995   7.833   2.546  0.5725 -0.2881  0.4791
  104MOL0     C13624   4.068   7.921   2.631 -0.2680  0.5541 -1.1051
  104MOL0     C13625   4.089   7.880   2.775  0.6783 -0.4425  0.8705
  104MOL0     O13626   4.028   7.968   2.865 -0.3827 -0.0277  1.0089
  104MOL0     C13627   4.035   7.940   3.001  0.2606 -0.1761  0.2356
  104MOL0     C13628   3.924   7.963   3.075  0.1936 -0.8884 -0.1191
  104MOL0     C13629   3.921   7.950   3.216 -0.5508  0.2340 -1.3478
  104MOL0     C13630   4.035   7.909   3.283 -0.7371 -0.4390  1.3247
  104MOL0     O13631   4.027   7.913   3.417 -0.5566  0.1503  0.2966
  104MOL0     C13632   4.119   7.822   3.479 -0.6665  1.0167 -0.5060
  104MOL0     C13633   4.080   7.829   3.628  0.6052  0.3428 -0.6286
  104MOL0     C13634   4.165   7.731   3.707  1.6489  0.4424 -0.0438
  104MOL0     C13635   4.149   7.771   3.859 -0.6526 -0.2680 -0.0804
  104MOL0     C13636   4.208   7.667   3.957  0.5011 -0.6599  0.5373
  104MOL0     C13637   4.167   7.700   4.098  0.3882 -0.3032 -0.5758
  104MOL0     C13638   4.218   7.582   4.176 -0.3320  0.3729 -0.4823
  104MOL0     C13639   4.203   7.604   4.330  0.9778 -0.2575 -0.0133
  104MOL0    Cl13640   4.031   7.594   4.377 -0.7244 -0.3478  0.0109
  104MOL0     C13641   4.150   7.885   3.206 -0.1159  0.1229  0.4383
  104MOL0     C13642   4.150   7.907   3.062  0.3663  0.1435 -0.6892
  104MOL0     O13643   4.148   7.782   2.799  0.5063  0.1281  0.2222
  104MOL0     C13644   4.115   8.037   2.589 -0.1721 -0.3766  0.0837
  104MOL0     C13645   4.092   8.081   2.450  0.4633  0.0059  0.0854
  104MOL0     N13646   4.219   8.602   1.881  0.1716  0.1055 -0.2153
  104MOL0     N13647   4.199   8.641   1.760 -0.4342 -0.4247  0.4565
  104MOL0     C13648   3.183   7.856   1.494 -0.0157  0.4074  0.3142
  104MOL0     C13649   3.096   7.779   1.416  0.3147  0.6863  0.3898
  104MOL0     C13650   2.814   7.739   1.016  0.9054 -0.2494  0.1649
  104MOL0     C13651   2.674   7.778   0.973 -0.7606 -0.5086 -0.3703
  104MOL0     C13652   2.630   7.714   0.858  0.5345 -0.0186 -0.1293
  104MOL0     C13653   2.710   7.621   0.783 -0.1030  0.4104  0.6453
  104MOL0     O13654   2.671   7.551   0.678  0.1474 -0.8384 -0.0399
  104MOL0     C13655   2.536   7.574   0.635  0.0514  0.1778  0.2760
  104MOL0     C13656   2.446   7.471   0.709  0.0356 -0.6013  1.1510
  104MOL0     C13657   2.304   7.489   0.635  0.4504 -0.4868  0.0973
  104MOL0     C13658   2.192   7.405   0.699 -0.3341 -1.1385  0.1665
  104MOL0     C13659   2.235   7.264   0.710  0.3474  0.0971  1.2835
  104MOL0     C13660   2.246   7.151   0.745  0.3918  0.4745  0.4745
  104MOL0     C13661   2.845   7.600   0.827  0.5393  0.1999  1.3029
  104MOL0     C13662   2.893   7.653   0.945  0.1667  0.6832  0.4540
  104MOL0     H13663   3.120   7.974   1.133  2.7340 -0.1273 -0.3499
  104MOL0     H13664   3.278   8.087   1.252  0.6547  1.0304  0.9058
  104MOL0     H13665   3.391   8.173   1.395 -1.9230 -0.2255 -0.0080
  104MOL0     H13666   3.502   8.027   1.404  0.2055  0.1632  0.3478
  104MOL0     H13667   3.570   8.088   1.638 -0.6745 -2.9389 -1.6358
  104MOL0     H13668   3.467   8.233   1.617  0.9243 -0.6060  1.4048
  104MOL0     H13669   3.606   8.286   1.411 -1.4141 -1.7574 -0.5120
  104MOL0     H13670   3.712   8.152   1.473 -1.5946 -2.5011  4.3044
  104MOL0     H13671   3.641   8.414   1.615  2.5620  2.5680 -0.7315
  104MOL0     H13672   3.738   8.278   1.685 -0.6279  1.3206  0.4328
  104MOL0     H13673   3.817   8.396   1.424  0.2126 -0.6896  0.3206
  104MOL0     H13674   3.923   8.340   1.553  0.8080 -1.1536 -1.5134
  104MOL0     H13675   3.857   8.529   1.709  1.5568  1.5630  0.5450
  104MOL0     H13676   3.750   8.582   1.574  1.0537 -0.0225 -2.8707
  104MOL0     H13677   3.924   8.656   1.453 -2.3547  0.7938  0.8903
  104MOL0     H13678   3.947   8.721   1.606  2.2178  0.3340  0.2892
  104MOL0     H13679   4.156   8.626   1.496  3.2750 -1.4494  1.1286
  104MOL0     H13680   4.099   8.466   1.505  0.6460  0.9017 -1.5252
  104MOL0     H13681   4.044   8.363   1.735  0.0055  0.9256 -2.4842
  104MOL0     H13682   4.043   8.358   2.028 -0.5228 -0.4191 -0.5357
  104MOL0     H13683   4.196   8.431   2.100  1.5842 -0.5286 -0.3973
  104MOL0     H13684   4.328   8.253   1.975  0.4127 -1.9187  1.9778
  104MOL0     H13685   4.177   8.192   1.902 -0.9188  0.1625  0.6067
  104MOL0     H13686   4.249   8.051   2.090  0.7146  1.0731 -0.3753
  104MOL0     H13687   4.247   8.206   2.188  1.3046  2.8460 -1.6505
  104MOL0     H13688   3.995   8.144   2.057  0.1962  0.6793  0.1468
  104MOL0     H13689   4.025   8.220   2.214  1.6551  1.0012  0.0128
  104MOL0     H13690   3.937   7.800   2.334  0.6145  1.5459 -2.5739
  104MOL0     H13691   3.978   7.731   2.578 -2.8468  0.5207  1.6363
  104MOL0     H13692   3.829   7.998   3.034 -0.8243  0.0350  2.7677
  104MOL0     H13693   3.824   7.958   3.263  0.6360 -0.9409  1.5405
  104MOL0     H13694   4.224   7.847   3.462  0.1195 -3.0858 -3.0825
  104MOL0     H13695   4.107   7.715   3.455  0.8143 -0.2556  3.6150
  104MOL0     H13696   3.979   7.797   3.652 -0.5545  3.2054 -1.2851
  104MOL0     H13697   4.103   7.926   3.674  1.1455 -1.4510  3.2544
  104MOL0     H13698   4.272   7.725   3.685  1.8774  0.3883  1.0296
  104MOL0     H13699   4.105   7.640   3.691 -1.3489  2.3308 -0.3303
  104MOL0     H13700   4.207   7.863   3.872 -1.7151  0.6805 -1.6991
  104MOL0     H13701   4.046   7.789   3.892  0.1258  1.5727  1.5372
  104MOL0     H13702   4.315   7.657   3.940  0.4873  0.6980 -0.5195
  104MOL0     H13703   4.177   7.570   3.916  0.4203  0.6763 -2.8170
  104MOL0     H13704   4.058   7.712   4.101  0.1304 -0.8739 -3.7859
  104MOL0     H13705   4.215   7.795   4.123 -1.2427 -0.0913  2.1341
  104MOL0     H13706   4.165   7.492   4.143  2.0081  0.3116 -4.7715
  104MOL0     H13707   4.323   7.558   4.153 -0.2327 -1.4118  1.5136
  104MOL0     H13708   4.241   7.702   4.359 -2.2919  1.2089 -0.2172
  104MOL0     H13709   4.245   7.517   4.381  0.1650 -1.2052 -0.9150
  104MOL0     H13710   4.238   7.853   3.260  3.9788  3.7276 -3.2922
  104MOL0     H13711   4.238   7.893   3.000  0.9903 -0.6153  0.3415
  104MOL0     H13712   4.160   8.112   2.654  1.2406 -0.4200 -0.8068
  104MOL0     H13713   4.142   8.168   2.407 -0.1616  0.7869  0.8918
  104MOL0     H13714   3.216   7.834   1.595  0.7174 -0.7809 -0.1643
  104MOL0     H13715   3.062   7.681   1.448 -1.0828  1.7558  2.4526
  104MOL0     H13716   2.618   7.838   1.044  2.5787  0.5932  1.5478
  104MOL0     H13717   2.543   7.752   0.805  1.3924 -0.3878 -1.8814
  104MOL0     H13718   2.548   7.550   0.528  0.9289  2.4461 -0.1899
  104MOL0     H13719   2.494   7.675   0.641  0.2737  0.2569  0.4701
  104MOL0     H13720   2.478   7.368   0.691 -1.8938 -0.8453 -1.5629
  104MOL0     H13721   2.427   7.495   0.814 -0.5864  5.0451  0.0624
  104MOL0     H13722   2.313   7.480   0.526 -0.3550  0.1892 -0.0328
  104MOL0     H13723   2.266   7.590   0.653 -0.5681 -0.5344 -1.5817
  104MOL0     H13724   2.177   7.429   0.805  2.0495  3.5846 -0.2917
  104MOL0     H13725   2.099   7.401   0.641 -2.1408  1.8291  2.5190
  104MOL0     H13726   2.251   7.048   0.775  0.6163  0.2728 -0.2327
  104MOL0     H13727   2.907   7.533   0.767 -1.3497 -0.6437  0.1888
  104MOL0     H13728   2.990   7.621   0.981 -0.6253  1.0428  3.1632
  105MOL0     O13729   4.340   1.777   8.691  0.8271 -0.5380 -0.1095
  105MOL0     C13730   4.250   1.815   8.617  0.2713  0.3082  0.4147
  105MOL0     O13731   4.235   1.807   8.486 -0.7792 -0.1168 -0.3279
  105MOL0     C13732   4.330   1.729   8.422 -0.0826  0.4990 -0.4917
  105MOL0     C13733   4.280   1.647   8.319 -0.1042  0.0011 -0.2995
  105MOL0     C13734   4.366   1.554   8.251  0.6446  0.5163  0.3523
  105MOL0     C13735   4.498   1.552   8.282 -0.3614 -0.5535 -0.3495
  105MOL0     O13736   4.562   1.446   8.225  0.1513  0.4649 -0.0874
  105MOL0     C13737   4.693   1.469   8.175 -1.0346 -0.1077 -0.4067
  105MOL0     C13738   4.727   1.355   8.072 -0.1046 -0.9058 -0.3038
  105MOL0     C13739   4.703   1.368   7.921  1.7451 -0.3140  0.3206
  105MOL0     C13740   4.556   1.330   7.874  0.7906 -0.4673  0.1575
  105MOL0     C13741   4.511   1.185   7.916  1.0876 -0.2946  0.1848
  105MOL0     C13742   4.438   1.115   7.798 -0.0627  0.2603  0.4360
  105MOL0     C13743   4.416   0.965   7.841 -0.2556 -0.3116  0.4014
  105MOL0     C13744   4.289   0.946   7.923  0.4016 -0.0980  0.0792
  105MOL0     N13745   4.251   0.815   7.963 -0.7191 -0.6779  0.0382
  105MOL0     C13746   4.132   0.788   8.024  0.3120 -0.1056  0.1145
  105MOL0     C13747   4.144   0.656   8.055  0.4593  0.0215 -0.5051
  105MOL0     C13748   4.036   0.567   8.123 -0.7927 -0.7002 -0.1968
  105MOL0     C13749   3.990   0.615   8.256 -0.5471  1.1851 -0.9849
  105MOL0     C13750   4.106   0.650   8.356 -0.6645 -0.1537 -0.1940
  105MOL0     C13751   4.212   0.544   8.378  0.8583 -0.2270 -1.6655
  105MOL0     O13752   4.283   0.569   8.506  0.1763  0.2289 -0.4978
  105MOL0     C13753   4.404   0.510   8.502  0.2100 -0.0580 -1.0631
  105MOL0     C13754   4.429   0.383   8.444 -0.3239  0.1808 -0.2910
  105MOL0     C13755   4.555   0.332   8.458 -0.2534 -0.3877 -0.6076
  105MOL0     C13756   4.660   0.405   8.509 -0.3284 -0.7602 -0.0934
  105MOL0     C13757   4.794   0.335   8.526 -0.1091  0.0124  0.8968
  105MOL0     O13758   4.804   0.207   8.478  0.1734 -0.8105 -1.0796
  105MOL0     C13759   4.930   0.154   8.502  0.4625  0.7443 -0.2479
  105MOL0     C13760   4.962   0.113   8.632  0.6043 -1.4716  0.2610
  105MOL0     C13761   5.090   0.063   8.652 -0.9923 -0.2154  0.2269
  105MOL0     C13762   5.182   0.038   8.546 -1.3588  0.5610  0.2440
  105MOL0     O13763   5.314  -0.003   8.556  0.1408 -0.6617  0.6570
  105MOL0     C13764   5.340  -0.088   8.668  0.3499 -0.5607 -1.2010
  105MOL0     C13765   5.444  -0.190   8.661  0.2440 -0.3200  0.4521
  105MOL0     C13766   5.563  -0.148   8.571 -0.7515 -0.0851 -0.6571
  105MOL0     C13767   5.675  -0.086   8.656  0.4621 -0.0275  0.6527
  105MOL0     C13768   5.790  -0.050   8.567  0.2941 -1.1161  0.1274
  105MOL0     C13769   5.901   0.036   8.629 -0.4800  0.7136  0.1050
  105MOL0     C13770   6.014   0.072   8.527 -0.2521 -0.5971 -0.2845
  105MOL0     C13771   6.144   0.123   8.598  0.2305 -0.3150 -0.1541
  105MOL0    Cl13772   6.183   0.030   8.738  0.0096  0.2434  0.1840
  105MOL0     C13773   5.140   0.056   8.423 -0.9614 -0.2198  0.3084
  105MOL0     C13774   5.020   0.119   8.397 -0.1153  0.1721  1.1948
  105MOL0     O13775   4.880   0.393   8.587  0.1684 -0.0884  0.7771
  105MOL0     C13776   4.636   0.528   8.565 -0.4583  0.1428 -0.2714
  105MOL0     C13777   4.511   0.575   8.561  1.4935 -0.3698  0.5617
  105MOL0     N13778   4.262   0.605   8.000  0.4465 -0.1023 -0.7278
  105MOL0     N13779   4.328   0.704   7.960 -0.7610 -0.6097 -0.3346
  105MOL0     C13780   4.552   1.642   8.375 -0.4234 -0.7550  0.1182
  105MOL0     C13781   4.467   1.732   8.440 -0.4106 -1.3012  0.3095
  105MOL0     C13782   4.137   1.885   8.684 -0.4598  0.4656 -0.8787
  105MOL0     C13783   4.143   1.922   8.821 -0.2348  0.2228 -0.2429
  105MOL0     C13784   4.042   1.994   8.893  0.0828  1.0296  0.8167
  105MOL0     C13785   3.916   2.009   8.820 -0.1598 -1.4286  0.3823
  105MOL0     O13786   3.813   2.061   8.889 -0.2195  0.5359  0.0223
  105MOL0     C13787   3.688   2.053   8.815 -0.1403 -0.4007 -0.5043
  105MOL0     C13788   3.563   2.052   8.896 -0.3568 -0.1921 -0.0879
  105MOL0     C13789   3.423   2.100   8.852 -0.1084 -0.3142  1.2182
  105MOL0     C13790   3.406   2.124   8.693  0.8015  0.8515  0.0173
  105MOL0     C13791   3.266   2.093   8.669  0.2784  0.0108 -0.2319
  105MOL0     C13792   3.150   2.057   8.637 -0.0683 -0.6077 -1.0069
  105MOL0     C13793   3.905   1.972   8.680 -1.5311 -0.0936  0.2794
  105MOL0     C13794   4.022   1.918   8.622  0.4200  0.0872  0.1745
  105MOL0     H13795   4.175   1.658   8.294  0.0032  0.9526 -0.3707
  105MOL0     H13796   4.328   1.486   8.176 -0.5208 -2.3067  3.2759
  105MOL0     H13797   4.763   1.442   8.255 -0.2017  0.0639 -1.0594
  105MOL0     H13798   4.714   1.565   8.126 -4.0644  1.1891  0.6082
  105MOL0     H13799   4.661   1.272   8.099 -2.7673  0.2039 -2.7220
  105MOL0     H13800   4.831   1.323   8.079  0.4756  0.5340 -1.6634
  105MOL0     H13801   4.769   1.297   7.869  0.2543 -2.1116  0.7716
  105MOL0     H13802   4.729   1.467   7.882 -2.2098  0.2428 -1.3103
  105MOL0     H13803   4.499   1.399   7.937  2.5216 -0.0619  1.3541
  105MOL0     H13804   4.531   1.347   7.769 -0.9467  3.6513  1.0468
  105MOL0     H13805   4.455   1.197   8.009 -1.1290  0.4469 -1.1663
  105MOL0     H13806   4.598   1.125   7.945  0.4817 -1.7084 -0.7876
  105MOL0     H13807   4.492   1.113   7.703 -0.6228  0.5071  0.1035
  105MOL0     H13808   4.340   1.158   7.776 -0.0613  0.1947  0.2993
  105MOL0     H13809   4.406   0.906   7.749 -1.2948  0.6077 -0.0875
  105MOL0     H13810   4.495   0.917   7.899 -0.9016 -2.5425 -0.4442
  105MOL0     H13811   4.200   0.985   7.873  0.0819  0.8418  1.3511
  105MOL0     H13812   4.299   1.014   8.008 -1.1446  1.3810 -0.8440
  105MOL0     H13813   4.047   0.852   8.046  1.3561  1.5612 -0.4523
  105MOL0     H13814   4.078   0.467   8.135 -1.3568 -0.7257  1.9926
  105MOL0     H13815   3.954   0.564   8.051 -1.9465 -0.9122  1.1022
  105MOL0     H13816   3.933   0.531   8.298 -0.3385  1.1575 -0.7546
  105MOL0     H13817   3.925   0.701   8.241 -0.3560  1.6761  0.7494
  105MOL0     H13818   4.157   0.744   8.336  1.2455 -0.9458  0.7197
  105MOL0     H13819   4.048   0.660   8.449 -1.8975  1.1438 -1.0644
  105MOL0     H13820   4.266   0.541   8.283 -0.1515  0.6887 -2.2890
  105MOL0     H13821   4.161   0.448   8.394 -1.3967  0.7674 -2.5186
  105MOL0     H13822   4.352   0.326   8.393  1.1017 -1.4546 -0.6911
  105MOL0     H13823   4.560   0.228   8.427 -3.1730 -1.2385  1.4057
  105MOL0     H13824   4.888   0.131   8.709  0.1562  0.7975 -0.6291
  105MOL0     H13825   5.121   0.021   8.747  1.5357 -0.1613 -0.5040
  105MOL0     H13826   5.247  -0.139   8.694 -0.4003  0.4047 -1.8900
  105MOL0     H13827   5.371  -0.020   8.748 -2.8880 -0.6097  0.2352
  105MOL0     H13828   5.406  -0.273   8.602 -2.0725  1.9552 -1.5302
  105MOL0     H13829   5.457  -0.230   8.762 -1.0531 -0.1881  0.6940
  105MOL0     H13830   5.526  -0.087   8.488 -1.6182 -3.6081 -3.0652
  105MOL0     H13831   5.609  -0.231   8.517  1.2422  0.1701  0.5047
  105MOL0     H13832   5.643   0.013   8.689  1.0540 -0.0464  1.3175
  105MOL0     H13833   5.711  -0.155   8.734  3.3427  0.3265 -0.2330
  105MOL0     H13834   5.763   0.014   8.483  2.2841 -2.3961 -1.5869
  105MOL0     H13835   5.831  -0.146   8.532  2.0021 -0.6101  0.6555
  105MOL0     H13836   5.936  -0.025   8.712  1.4600 -0.3475 -1.3984
  105MOL0     H13837   5.861   0.134   8.657 -5.2721 -0.2491 -2.3456
  105MOL0     H13838   6.030  -0.021   8.473 -0.1840  0.4890 -2.2235
  105MOL0     H13839   5.978   0.138   8.448 -0.9508 -2.8115 -1.9089
  105MOL0     H13840   6.140   0.229   8.624  2.2980 -0.0873 -0.6028
  105MOL0     H13841   6.221   0.101   8.523 -1.4722 -3.3479 -1.1800
  105MOL0     H13842   5.206   0.026   8.342 -2.6901 -0.2830 -1.1370
  105MOL0     H13843   4.989   0.148   8.297 -2.2104 -1.8403  1.1601
  105MOL0     H13844   4.715   0.587   8.609 -1.2761 -0.3550  1.9922
  105MOL0     H13845   4.498   0.676   8.599  0.1583 -0.1001 -0.5137
  105MOL0     H13846   4.657   1.635   8.400 -0.8744  1.2051  2.9976
  105MOL0     H13847   4.499   1.816   8.502 -1.8195  1.6949 -2.6982
  105MOL0     H13848   4.232   1.899   8.879 -0.7870  0.2578  0.6490
  105MOL0     H13849   4.058   2.050   8.985 -0.3370  2.0850  0.2674
  105MOL0     H13850   3.679   1.965   8.751 -2.1566  0.9425 -2.2233
  105MOL0     H13851   3.690   2.147   8.759  1.7901  0.1099  0.3430
  105MOL0     H13852   3.555   1.949   8.930 -0.3821  0.8201  3.3904
  105MOL0     H13853   3.586   2.112   8.985  1.1209  0.3041 -0.7694
  105MOL0     H13854   3.395   2.195   8.899  0.5821  0.6241 -0.1790
  105MOL0     H13855   3.347   2.032   8.892 -0.7725 -0.4640 -0.2241
  105MOL0     H13856   3.424   2.228   8.662 -0.8319  0.2722 -3.3421
  105MOL0     H13857   3.471   2.057   8.636  0.5295 -0.9596  1.7390
  105MOL0     H13858   3.060   2.006   8.610 -0.3979 -1.3565  1.3052
  105MOL0     H13859   3.824   1.995   8.612 -0.1902 -0.2607 -1.4422
  105MOL0     H13860   4.003   1.883   8.521 -2.2226  1.4532  0.1155
  106MOL0     O13861   8.453   2.262  10.524 -0.2777  0.4778  0.6383
  106MOL0     C13862   8.540   2.285  10.434  1.0122 -0.2013  0.1207
  106MOL0     O13863   8.573   2.415  10.398  0.5934  0.1222  0.2554
  106MOL0     C13864   8.505   2.515  10.461 -0.2396 -0.9418 -0.0369
  106MOL0     C13865   8.436   2.603  10.383  0.8507  0.7451 -0.5632
  106MOL0     C13866   8.355   2.705  10.444 -0.2798  0.0513  0.1173
  106MOL0     C13867   8.362   2.725  10.584  0.0539 -0.5308  0.1547
  106MOL0     O13868   8.315   2.823  10.665 -0.4824 -0.0569 -0.5216
  106MOL0     C13869   8.182   2.864  10.654 -0.0791 -0.6938  0.5894
  106MOL0     C13870   8.093   2.813  10.759 -0.3980  0.1606 -0.5428
  106MOL0     C13871   8.077   2.657  10.734  0.2273 -0.8634  0.0708
  106MOL0     C13872   7.959   2.601  10.822 -0.0120  0.3662 -0.6715
  106MOL0     C13873   7.956   2.452  10.832  0.1248  0.2121 -0.2283
  106MOL0     C13874   7.925   2.395  10.695  0.3348 -0.1065  0.4637
  106MOL0     C13875   7.862   2.256  10.702 -0.4222 -0.1803 -0.4955
  106MOL0     C13876   7.951   2.145  10.770  0.8491 -0.2915  1.0673
  106MOL0     N13877   7.863   2.034  10.820  0.8140  0.0801 -0.1447
  106MOL0     C13878   7.903   1.935  10.909  0.6453  0.9017  0.3285
  106MOL0     C13879   7.812   1.837  10.901 -0.2263  0.3316  0.2950
  106MOL0     C13880   7.813   1.705  10.971 -0.6083 -0.2441 -0.3359
  106MOL0     C13881   7.728   1.713  11.094  0.0516 -0.4563 -0.8861
  106MOL0     C13882   7.678   1.572  11.135  0.4996 -0.8255  0.1494
  106MOL0     C13883   7.681   1.542  11.291 -0.4909 -0.4931 -0.3979
  106MOL0     O13884   7.631   1.652  11.367  0.2825  0.8320  0.1992
  106MOL0     C13885   7.652   1.630  11.509 -0.6614 -0.6747 -0.9801
  106MOL0     C13886   7.706   1.525  11.576  0.3413 -0.1279 -0.5099
  106MOL0     C13887   7.716   1.519  11.712 -0.6274  0.6433 -0.5383
  106MOL0     C13888   7.666   1.629  11.793  0.1027  0.1997  0.0485
  106MOL0     C13889   7.682   1.615  11.941 -0.0841 -0.3078 -0.0180
  106MOL0     O13890   7.784   1.534  11.981  0.1172 -1.0249  0.4453
  106MOL0     C13891   7.785   1.499  12.112  0.1487  1.0258 -0.2300
  106MOL0     C13892   7.675   1.425  12.175  0.1411 -0.8430  0.1759
  106MOL0     C13893   7.686   1.369  12.297  0.1335 -0.3112  0.4752
  106MOL0     C13894   7.803   1.391  12.362 -0.0577  0.6318  0.0765
  106MOL0     O13895   7.822   1.344  12.496  0.5168 -0.1717  0.4598
  106MOL0     C13896   7.854   1.203  12.490  0.3073  0.2864 -0.2077
  106MOL0     C13897   7.924   1.166  12.614 -0.9763  1.0668 -0.7097
  106MOL0     C13898   8.080   1.176  12.597 -0.3087 -0.0283 -0.0824
  106MOL0     C13899   8.157   1.212  12.719  0.4154 -0.0323 -0.5637
  106MOL0     C13900   8.304   1.196  12.709 -0.6730 -0.2991 -0.3241
  106MOL0     C13901   8.381   1.193  12.839 -0.7556  0.2085 -0.8027
  106MOL0     C13902   8.348   1.074  12.939 -0.3705 -1.4291  0.2285
  106MOL0     C13903   8.337   0.940  12.858  0.4081  1.2982 -0.2175
  106MOL0    Cl13904   8.245   0.828  12.949  0.3406  0.2947  0.1142
  106MOL0     C13905   7.915   1.453  12.309  0.7111 -0.3490  0.1355
  106MOL0     C13906   7.905   1.516  12.179 -0.7502  0.9406  0.6932
  106MOL0     O13907   7.597   1.661  12.014 -0.1945 -0.3470 -0.0386
  106MOL0     C13908   7.610   1.736  11.726 -0.8883  0.0684 -0.1023
  106MOL0     C13909   7.613   1.744  11.589  0.4500  0.3567  0.0136
  106MOL0     N13910   7.708   1.882  10.817  0.4052 -0.3693  0.5550
  106MOL0     N13911   7.753   1.993  10.758  0.1365  0.8931  0.5981
  106MOL0     C13912   8.450   2.645  10.654  0.1609 -0.6260  0.2887
  106MOL0     C13913   8.525   2.541  10.600 -0.1104 -0.4982 -1.0063
  106MOL0     C13914   8.607   2.167  10.365  0.8226 -0.0982  0.2515
  106MOL0     C13915   8.705   2.193  10.268 -0.0214 -0.3325 -1.0868
  106MOL0     C13916   8.756   2.091  10.194  0.2074 -0.3002  0.6724
  106MOL0     C13917   8.711   1.961  10.211 -0.8064  0.8029 -0.0402
  106MOL0     O13918   8.771   1.871  10.126  0.2823 -0.0236  0.0473
  106MOL0     C13919   8.714   1.739  10.115 -0.1126 -0.0670  0.0705
  106MOL0     C13920   8.802   1.649  10.020  0.2576 -0.2042  0.1468
  106MOL0     C13921   8.803   1.710   9.879 -0.0908  0.4400 -0.1546
  106MOL0     C13922   8.684   1.678   9.784  1.0197  0.4077  0.3711
  106MOL0     C13923   8.720   1.720   9.643  0.4980  0.1864 -0.0653
  106MOL0     C13924   8.755   1.754   9.531  0.0153 -0.3255 -1.1082
  106MOL0     C13925   8.625   1.934  10.314  0.5964 -0.1948  1.3379
  106MOL0     C13926   8.569   2.036  10.381  0.4482 -0.3416 -0.5444
  106MOL0     H13927   8.448   2.580  10.277  0.2454  0.6640 -0.6147
  106MOL0     H13928   8.298   2.778  10.386  0.1354 -0.4176 -0.9142
  106MOL0     H13929   8.145   2.832  10.556  0.3392 -1.7956  0.7787
  106MOL0     H13930   8.189   2.973  10.664  0.7459 -0.3447 -2.7205
  106MOL0     H13931   7.999   2.869  10.760 -1.7364 -1.9516 -1.2560
  106MOL0     H13932   8.134   2.830  10.860  1.4324 -4.1029 -0.3531
  106MOL0     H13933   8.169   2.599  10.746  0.0915 -1.2316 -0.6284
  106MOL0     H13934   8.046   2.659  10.629 -0.1826 -0.5552  0.1938
  106MOL0     H13935   7.980   2.636  10.924  0.6407 -1.4567 -0.1531
  106MOL0     H13936   7.860   2.643  10.802  0.1256  0.2815 -1.5447
  106MOL0     H13937   7.868   2.430  10.892 -1.8083  1.8894 -2.2538
  106MOL0     H13938   8.039   2.398  10.878  0.0248  0.2195 -0.0351
  106MOL0     H13939   8.025   2.381  10.653  0.4159 -0.7240  0.8432
  106MOL0     H13940   7.850   2.461  10.650  1.6623  1.2256  0.1171
  106MOL0     H13941   7.771   2.259  10.762 -0.9633  3.0077 -1.3013
  106MOL0     H13942   7.838   2.211  10.606 -0.5929  1.0124 -1.0224
  106MOL0     H13943   8.000   2.196  10.853  1.4692 -0.0718  0.5712
  106MOL0     H13944   8.030   2.120  10.699 -0.0661  2.8057 -1.2489
  106MOL0     H13945   8.001   1.933  10.955  0.1484 -1.9746  1.4903
  106MOL0     H13946   7.911   1.666  11.000 -0.6468  0.4240  0.7449
  106MOL0     H13947   7.770   1.632  10.902  0.6663 -1.3663  0.0082
  106MOL0     H13948   7.644   1.783  11.089  2.1090  2.3599  1.0010
  106MOL0     H13949   7.783   1.757  11.177 -3.8695  0.6164  1.3912
  106MOL0     H13950   7.571   1.567  11.114  0.9214  0.1633 -2.5862
  106MOL0     H13951   7.727   1.489  11.083  1.9574  0.7667 -1.1547
  106MOL0     H13952   7.785   1.512  11.309 -0.4130 -0.1193 -0.2055
  106MOL0     H13953   7.617   1.460  11.325 -0.4559 -0.7563 -0.9543
  106MOL0     H13954   7.739   1.435  11.525 -1.8531 -0.8204 -0.7966
  106MOL0     H13955   7.778   1.434  11.740  3.3394  3.1077 -0.9484
  106MOL0     H13956   7.580   1.431  12.122 -0.3180 -0.5024  1.0148
  106MOL0     H13957   7.616   1.320  12.363 -0.0010  1.1112  1.4279
  106MOL0     H13958   7.896   1.159  12.399 -1.6234  0.2108 -1.1306
  106MOL0     H13959   7.750   1.168  12.494  0.3124 -0.0789 -2.1628
  106MOL0     H13960   7.885   1.069  12.644 -0.1466  1.2633  1.1055
  106MOL0     H13961   7.895   1.232  12.696 -1.6315 -2.2242  1.8989
  106MOL0     H13962   8.113   1.234  12.510  2.8422 -3.7105 -1.6441
  106MOL0     H13963   8.104   1.072  12.572  0.1851 -0.7690  3.0328
  106MOL0     H13964   8.121   1.312  12.747 -0.9165 -1.3650  3.1907
  106MOL0     H13965   8.119   1.157  12.805  0.6798 -1.5759 -1.4044
  106MOL0     H13966   8.332   1.278  12.643 -0.5399 -0.2711 -0.2336
  106MOL0     H13967   8.326   1.105  12.653 -1.6849 -2.2539  2.2108
  106MOL0     H13968   8.384   1.285  12.898  0.4125 -2.3884  3.6308
  106MOL0     H13969   8.486   1.180  12.813  0.0093  4.0526 -0.2324
  106MOL0     H13970   8.419   1.060  13.020  0.6974 -0.5984 -0.5401
  106MOL0     H13971   8.257   1.099  12.996 -0.5902 -1.1825 -0.2268
  106MOL0     H13972   8.434   0.890  12.846  0.4498  1.5943 -1.2601
  106MOL0     H13973   8.296   0.942  12.756  3.3584 -2.2216 -1.7209
  106MOL0     H13974   8.006   1.457  12.368 -1.5855  0.2658  3.9721
  106MOL0     H13975   7.994   1.557  12.132 -1.1530  0.4274 -0.5546
  106MOL0     H13976   7.558   1.820  11.770 -3.1208 -1.8367  1.1263
  106MOL0     H13977   7.569   1.829  11.539 -1.6240 -0.8915 -0.4165
  106MOL0     H13978   8.464   2.648  10.762  3.0783  1.2237  0.0043
  106MOL0     H13979   8.584   2.477  10.665 -1.6416 -0.0678  0.8993
  106MOL0     H13980   8.737   2.294  10.247 -0.6203 -0.1940 -1.3395
  106MOL0     H13981   8.832   2.114  10.120 -0.1925  0.0234  0.3561
  106MOL0     H13982   8.610   1.746  10.083  0.2408  1.1319 -0.8624
  106MOL0     H13983   8.724   1.686  10.210 -1.4206  1.6210  1.2311
  106MOL0     H13984   8.904   1.645  10.058  0.5352  2.8522 -0.0580
  106MOL0     H13985   8.748   1.554  10.027 -1.8428  0.8984 -0.1533
  106MOL0     H13986   8.887   1.668   9.823 -0.5634  1.3169 -1.5689
  106MOL0     H13987   8.818   1.818   9.883 -1.1305  0.6226 -0.7724
  106MOL0     H13988   8.657   1.572   9.772  2.3412 -0.0679  1.3373
  106MOL0     H13989   8.594   1.729   9.818  0.3278  0.3235 -1.2612
  106MOL0     H13990   8.780   1.778   9.430 -0.3210 -0.4819 -1.2317
  106MOL0     H13991   8.609   1.828  10.333 -1.0104  0.1263  1.9686
  106MOL0     H13992   8.497   2.004  10.454 -1.0907 -4.7083 -3.5559
  107MOL0     O13993   6.382   3.967   6.106  0.3159  1.0803  0.1758
  107MOL0     C13994   6.292   4.007   6.176 -0.3031 -0.1271 -0.0072
  107MOL0     O13995   6.258   3.956   6.296  0.3824 -0.3333  0.4813
  107MOL0     C13996   6.316   3.842   6.346  0.1468 -0.6165  0.6593
  107MOL0     C13997   6.327   3.841   6.487 -0.4932 -0.3095 -0.2912
  107MOL0     C13998   6.367   3.730   6.559 -0.1620 -0.2534 -0.1662
  107MOL0     C13999   6.395   3.607   6.486  0.5423 -0.9845  0.0407
  107MOL0     O14000   6.429   3.499   6.558  0.2013  0.1411 -0.1924
  107MOL0     C14001   6.453   3.373   6.491  0.0819 -0.0795 -0.1177
  107MOL0     C14002   6.454   3.254   6.590 -0.1417 -0.6017 -0.4943
  107MOL0     C14003   6.489   3.121   6.526 -0.3179  0.0433  0.4624
  107MOL0     C14004   6.479   3.019   6.631  0.5593  0.6359  0.4619
  107MOL0     C14005   6.516   2.872   6.579 -0.0464 -1.0789  0.2353
  107MOL0     C14006   6.668   2.863   6.541 -0.2240 -0.3954 -0.5487
  107MOL0     C14007   6.720   2.733   6.472 -0.6392  0.3128  0.9949
  107MOL0     C14008   6.706   2.609   6.566  0.7844  0.9202 -1.2992
  107MOL0     N14009   6.836   2.585   6.637 -0.1309  0.1989 -0.9125
  107MOL0     C14010   6.938   2.495   6.599 -0.1416 -0.4166 -0.2031
  107MOL0     C14011   7.030   2.492   6.698  0.6967 -0.2352  0.8416
  107MOL0     C14012   7.149   2.387   6.679 -0.1745 -0.4463 -1.2038
  107MOL0     C14013   7.241   2.419   6.559 -0.7923  0.3973 -0.6562
  107MOL0     C14014   7.348   2.315   6.534  0.6902 -0.1070 -0.3175
  107MOL0     C14015   7.297   2.168   6.525  0.3904 -0.5957  0.2980
  107MOL0     O14016   7.405   2.095   6.471 -0.1976 -0.2295  1.2224
  107MOL0     C14017   7.489   2.028   6.549  0.2571  1.0108 -0.2974
  107MOL0     C14018   7.434   1.917   6.613 -0.0493 -0.1911  0.6277
  107MOL0     C14019   7.510   1.834   6.703 -0.3254  0.2183  1.0207
  107MOL0     C14020   7.644   1.871   6.729 -0.0148 -1.0285  0.6932
  107MOL0     C14021   7.725   1.789   6.818 -0.4418 -0.6583  0.2059
  107MOL0     O14022   7.655   1.686   6.870 -0.3185  0.1138  0.8633
  107MOL0     C14023   7.721   1.583   6.930 -0.6806 -0.6521  0.2733
  107MOL0     C14024   7.808   1.608   7.038 -0.3220 -0.6091  0.4353
  107MOL0     C14025   7.870   1.499   7.096 -1.2397  0.4179 -0.1226
  107MOL0     C14026   7.840   1.366   7.057 -0.4219 -0.2599 -0.6759
  107MOL0     O14027   7.919   1.272   7.117 -0.6915  0.1363  0.0292
  107MOL0     C14028   7.995   1.175   7.029  0.1583  0.4594  0.4476
  107MOL0     C14029   8.141   1.146   7.083  0.4639  0.6078  0.3211
  107MOL0     C14030   8.161   1.124   7.235 -0.8002 -0.5482 -0.0619
  107MOL0     C14031   8.077   1.016   7.285 -0.2532 -0.2700 -0.3498
  107MOL0     C14032   8.129   0.990   7.427 -0.7284  0.5680  0.1393
  107MOL0     C14033   8.061   0.863   7.495  0.0307  0.4291 -0.1380
  107MOL0     C14034   8.090   0.865   7.646 -0.2598  0.8284 -0.0958
  107MOL0     C14035   8.031   0.740   7.718 -0.5178  0.4208 -0.0459
  107MOL0    Cl14036   8.147   0.600   7.715  0.3743 -0.2827 -0.2762
  107MOL0     C14037   7.751   1.340   6.962  0.1191 -0.5290 -0.5497
  107MOL0     C14038   7.689   1.451   6.895  0.1561  0.0010 -0.6118
  107MOL0     O14039   7.846   1.816   6.831  0.2164 -0.5848 -1.1665
  107MOL0     C14040   7.699   1.986   6.662 -0.2703  0.2445 -0.3336
  107MOL0     C14041   7.624   2.064   6.572  0.2740  0.2738 -0.8163
  107MOL0     N14042   6.993   2.577   6.800  0.0733 -0.0618  0.0287
  107MOL0     N14043   6.879   2.632   6.762  0.2069 -0.7601 -0.0164
  107MOL0     C14044   6.406   3.617   6.348 -0.2373  0.4344 -0.1345
  107MOL0     C14045   6.366   3.730   6.280 -0.1536  0.4815 -0.6722
  107MOL0     C14046   6.206   4.120   6.118  0.2663 -0.1292 -0.9609
  107MOL0     C14047   6.111   4.190   6.195 -0.4202 -0.5782 -0.2814
  107MOL0     C14048   6.022   4.282   6.137  0.7203  0.1846 -0.2367
  107MOL0     C14049   6.046   4.331   6.002 -0.1916 -0.2057  0.4880
  107MOL0     O14050   5.988   4.432   5.938  0.5906 -0.0759  0.1429
  107MOL0     C14051   5.869   4.481   6.002  1.0982  0.2190  0.9013
  107MOL0     C14052   5.772   4.530   5.895  0.2849 -0.5279 -0.4856
  107MOL0     C14053   5.734   4.434   5.782 -0.3263  0.2689  0.2079
  107MOL0     C14054   5.675   4.505   5.659  0.4421 -0.7100 -0.6282
  107MOL0     C14055   5.686   4.424   5.543  0.2137  0.6266  0.0092
  107MOL0     C14056   5.692   4.385   5.430  0.1354  0.2985  0.6033
  107MOL0     C14057   6.143   4.263   5.932 -0.2736 -0.3096 -0.8011
  107MOL0     C14058   6.210   4.153   5.988  0.1047  0.2767  0.8089
  107MOL0     H14059   6.303   3.932   6.542  0.2390 -0.8896  1.0256
  107MOL0     H14060   6.370   3.751   6.666  0.3943 -3.0745  0.4528
  107MOL0     H14061   6.537   3.382   6.422 -1.1293 -0.0564 -1.6527
  107MOL0     H14062   6.365   3.357   6.427  0.1806 -2.4275  0.2298
  107MOL0     H14063   6.356   3.240   6.636  0.3822 -3.5359 -0.0755
  107MOL0     H14064   6.530   3.269   6.667 -0.9239 -0.1864  0.2177
  107MOL0     H14065   6.590   3.130   6.486 -0.7062 -0.9048 -0.8327
  107MOL0     H14066   6.422   3.096   6.442  1.3517  0.2581 -0.9979
  107MOL0     H14067   6.548   3.041   6.713  0.2050  0.7578  0.7287
  107MOL0     H14068   6.378   3.036   6.671  1.1235 -0.5683  2.5835
  107MOL0     H14069   6.446   2.843   6.500  1.3786 -1.3131 -0.9794
  107MOL0     H14070   6.495   2.808   6.665 -1.9966  0.9986  1.4242
  107MOL0     H14071   6.723   2.886   6.633 -0.3910  1.6012 -0.9223
  107MOL0     H14072   6.692   2.943   6.471 -0.4726 -0.5279 -0.7847
  107MOL0     H14073   6.659   2.720   6.382  1.8066 -0.0870 -0.6998
  107MOL0     H14074   6.824   2.741   6.439 -1.5816  1.7695 -1.9138
  107MOL0     H14075   6.659   2.523   6.516 -1.4005  2.3000 -1.7664
  107MOL0     H14076   6.622   2.624   6.635  2.0088 -4.3606  1.9540
  107MOL0     H14077   6.943   2.421   6.520 -0.9702 -0.6657 -0.0254
  107MOL0     H14078   7.111   2.285   6.671  2.9220 -1.9085  0.7828
  107MOL0     H14079   7.215   2.382   6.766  0.2266  0.3929 -1.4482
  107MOL0     H14080   7.285   2.517   6.583 -2.6905  0.5430  2.9594
  107MOL0     H14081   7.178   2.427   6.471 -2.3802  1.0536  0.4959
  107MOL0     H14082   7.393   2.335   6.437 -1.8883  3.8323 -0.9349
  107MOL0     H14083   7.419   2.330   6.616 -1.7534  3.0720  1.4838
  107MOL0     H14084   7.221   2.159   6.448  1.5613  0.9649 -1.0988
  107MOL0     H14085   7.269   2.131   6.624  0.7675  1.2666  1.1620
  107MOL0     H14086   7.333   1.885   6.586 -1.2465  3.9070 -0.4237
  107MOL0     H14087   7.454   1.751   6.744 -0.8644 -0.0673 -0.2458
  107MOL0     H14088   7.838   1.710   7.059 -2.5950  0.6347 -1.7722
  107MOL0     H14089   7.951   1.513   7.167 -2.8934  0.2234  1.9073
  107MOL0     H14090   7.985   1.201   6.923 -1.0905  1.0653  0.7045
  107MOL0     H14091   7.934   1.085   7.036  1.6698 -0.5976  0.5869
  107MOL0     H14092   8.199   1.236   7.064  1.5667 -0.0326  0.6025
  107MOL0     H14093   8.185   1.066   7.023 -1.0181  0.9608 -1.3241
  107MOL0     H14094   8.138   1.216   7.288 -0.1150 -0.3686 -0.0577
  107MOL0     H14095   8.262   1.088   7.260 -1.8827 -3.7178  0.1429
  107MOL0     H14096   7.969   1.028   7.272 -0.3131  0.3556  0.6508
  107MOL0     H14097   8.109   0.924   7.235  0.5947 -0.3436  0.2925
  107MOL0     H14098   8.107   1.068   7.501  1.7364 -0.8106  2.4674
  107MOL0     H14099   8.235   0.968   7.438 -1.0785 -1.3113  0.1099
  107MOL0     H14100   8.086   0.764   7.457 -2.7791 -0.5857  0.3950
  107MOL0     H14101   7.954   0.882   7.484 -0.5317 -2.8785 -1.4113
  107MOL0     H14102   8.199   0.871   7.652 -0.2292  3.1140 -1.7277
  107MOL0     H14103   8.048   0.952   7.697 -0.9161 -1.6007  3.9812
  107MOL0     H14104   7.934   0.720   7.671  0.4296  1.0551 -2.4033
  107MOL0     H14105   8.016   0.756   7.825  0.7939 -1.3027  0.4483
  107MOL0     H14106   7.724   1.239   6.936 -1.9573  0.3483 -2.1116
  107MOL0     H14107   7.612   1.423   6.825  0.1350 -1.2868 -0.1014
  107MOL0     H14108   7.804   2.004   6.681 -0.1854 -1.2883  0.8467
  107MOL0     H14109   7.662   2.154   6.524 -0.8497  0.5581 -1.1918
  107MOL0     H14110   6.435   3.535   6.283 -0.3772  2.2613 -2.6454
  107MOL0     H14111   6.371   3.746   6.173  0.7011  2.0021 -0.4264
  107MOL0     H14112   6.100   4.171   6.301 -0.9603 -1.1204 -0.4247
  107MOL0     H14113   5.956   4.329   6.209 -1.1024 -2.4555 -0.0093
  107MOL0     H14114   5.887   4.556   6.079 -1.2529 -1.5665  3.3905
  107MOL0     H14115   5.806   4.404   6.048 -0.9314  2.5604  2.2295
  107MOL0     H14116   5.685   4.551   5.958  1.6086  0.6394  1.0433
  107MOL0     H14117   5.801   4.620   5.840 -0.6141  0.3632  0.4596
  107MOL0     H14118   5.652   4.375   5.825  1.0560 -1.2467  0.8761
  107MOL0     H14119   5.825   4.376   5.766 -0.8274  0.1007 -2.3208
  107MOL0     H14120   5.569   4.530   5.671  0.7379  1.6143 -2.0879
  107MOL0     H14121   5.730   4.599   5.644 -1.9280  1.0524  0.9688
  107MOL0     H14122   5.692   4.372   5.324 -1.1654 -3.8772  0.9272
  107MOL0     H14123   6.177   4.299   5.835  0.2794 -0.9841 -0.8634
  107MOL0     H14124   6.281   4.096   5.930  0.0384 -1.4566  2.3395
  108MOL0     O14125   6.592   0.305   2.901 -0.0419 -0.3550  0.2413
  108MOL0     C14126   6.619   0.392   2.821  0.3778  0.6865  0.2011
  108MOL0     O14127   6.534   0.492   2.786  0.3291 -0.2383 -0.1395
  108MOL0     C14128   6.415   0.500   2.852  0.3369 -0.5247  0.8722
  108MOL0     C14129   6.318   0.403   2.858 -0.1465  0.3081 -0.2094
  108MOL0     C14130   6.196   0.418   2.920  0.0768  0.1361  0.1306
  108MOL0     C14131   6.166   0.539   2.983 -0.5094 -0.3458 -0.9295
  108MOL0     O14132   6.052   0.565   3.055  0.1345 -0.2318 -0.4048
  108MOL0     C14133   5.959   0.463   3.099 -1.0202  0.4695  1.1447
  108MOL0     C14134   5.837   0.510   3.176 -0.2327 -0.3129  0.8673
  108MOL0     C14135   5.737   0.401   3.192 -0.0754  0.2567  0.6487
  108MOL0     C14136   5.596   0.461   3.216 -0.6181 -1.2320 -0.5425
  108MOL0     C14137   5.495   0.338   3.232 -0.5948 -0.1261 -0.5044
  108MOL0     C14138   5.348   0.381   3.224 -0.3197  0.4131 -0.2426
  108MOL0     C14139   5.308   0.454   3.098  0.0198 -0.1589  0.9484
  108MOL0     C14140   5.159   0.491   3.080 -0.8876  0.1386 -0.0569
  108MOL0     N14141   5.093   0.364   3.042 -0.9776 -0.2082  0.5110
  108MOL0     C14142   5.004   0.283   3.104 -0.1925 -0.0510  0.4842
  108MOL0     C14143   4.962   0.201   3.004 -0.5628  0.7580  0.5726
  108MOL0     C14144   4.849   0.108   3.023  0.0662  0.3093 -0.0119
  108MOL0     C14145   4.862   0.006   3.136 -0.1310 -0.6341  0.7500
  108MOL0     C14146   4.735  -0.073   3.139  0.9953 -0.0649  0.5446
  108MOL0     C14147   4.714  -0.182   3.242  0.1616  1.0360 -1.0050
  108MOL0     O14148   4.576  -0.229   3.238 -0.2108 -0.6744 -0.0786
  108MOL0     C14149   4.527  -0.340   3.306  0.6539  0.8928 -0.6754
  108MOL0     C14150   4.603  -0.429   3.394  0.0169  0.6319  0.3208
  108MOL0     C14151   4.546  -0.535   3.459 -0.1513  0.7836  0.0752
  108MOL0     C14152   4.403  -0.548   3.474  0.1184  0.6315 -0.6623
  108MOL0     C14153   4.339  -0.643   3.555 -0.1094  0.5336 -0.3871
  108MOL0     O14154   4.417  -0.738   3.602  0.8892  0.8232  0.2385
  108MOL0     C14155   4.354  -0.847   3.665 -0.5911  0.1352 -0.0266
  108MOL0     C14156   4.307  -0.950   3.592 -0.4846 -0.0314  0.2725
  108MOL0     C14157   4.254  -1.062   3.653  0.2629 -0.1410 -0.4017
  108MOL0     C14158   4.242  -1.069   3.791  0.2601  1.6885 -0.3632
  108MOL0     O14159   4.176  -1.180   3.844 -0.1129 -0.4903  0.3811
  108MOL0     C14160   4.180  -1.214   3.983  0.3793  0.4169  0.0124
  108MOL0     C14161   4.102  -1.344   3.995 -0.1452  1.1155 -0.1055
  108MOL0     C14162   4.151  -1.431   4.111 -0.1819 -0.6855 -0.1645
  108MOL0     C14163   4.058  -1.551   4.106 -0.6715 -0.5742  0.1754
  108MOL0     C14164   4.101  -1.647   4.222 -1.0620  0.3362 -0.0556
  108MOL0     C14165   4.036  -1.786   4.206 -0.5332 -0.7305  0.9898
  108MOL0     C14166   3.888  -1.785   4.243 -0.3292  0.0368 -0.2935
  108MOL0     C14167   3.861  -1.797   4.392  0.3313 -0.2674  0.1053
  108MOL0    Cl14168   3.928  -1.938   4.465 -0.0541  0.1930 -0.0131
  108MOL0     C14169   4.269  -0.957   3.872 -0.2594  0.8840 -0.1359
  108MOL0     C14170   4.330  -0.856   3.805 -0.3015  0.2682 -0.2803
  108MOL0     O14171   4.219  -0.637   3.557 -0.2008 -0.0515 -0.7045
  108MOL0     C14172   4.334  -0.476   3.379  0.1452 -0.3525 -1.0042
  108MOL0     C14173   4.392  -0.379   3.300  0.3790  0.6689 -0.3232
  108MOL0     N14174   5.039   0.221   2.892 -0.3112 -0.3445  1.2624
  108MOL0     N14175   5.110   0.328   2.913 -0.5546  0.2375  0.8479
  108MOL0     C14176   6.266   0.636   2.992 -0.3292  0.4390 -0.6203
  108MOL0     C14177   6.378   0.623   2.919 -1.3482 -0.0314  0.7964
  108MOL0     C14178   6.746   0.383   2.730  1.0782 -0.2510 -0.0107
  108MOL0     C14179   6.803   0.257   2.707  0.9232  1.2969 -0.0948
  108MOL0     C14180   6.912   0.245   2.626  0.6646  0.5685 -0.2098
  108MOL0     C14181   6.973   0.361   2.580 -0.4141  0.3744 -0.1733
  108MOL0     O14182   7.097   0.340   2.515  0.8918 -0.3852 -0.6361
  108MOL0     C14183   7.108   0.361   2.370  1.0314  0.0120  0.4862
  108MOL0     C14184   6.985   0.421   2.292  0.3516  0.0684 -0.3549
  108MOL0     C14185   6.878   0.317   2.261 -0.7691 -0.3329  0.4711
  108MOL0     C14186   6.746   0.388   2.219 -0.7159  1.1804 -0.1879
  108MOL0     C14187   6.649   0.385   2.327 -0.0774  0.3582 -0.1556
  108MOL0     C14188   6.583   0.353   2.430 -1.4575 -0.3635  0.6248
  108MOL0     C14189   6.919   0.490   2.597  0.1641  0.0937  0.7084
  108MOL0     C14190   6.792   0.493   2.657 -0.9423  0.1178 -0.5577
  108MOL0     H14191   6.361   0.311   2.817  2.9883 -0.3791  3.9841
  108MOL0     H14192   6.136   0.328   2.916  0.7379 -0.3451  0.6813
  108MOL0     H14193   6.000   0.386   3.164 -0.2679  0.3010  0.4842
  108MOL0     H14194   5.933   0.411   3.006  2.4103 -1.2836  1.0099
  108MOL0     H14195   5.791   0.590   3.118  1.0622  1.2247  1.8945
  108MOL0     H14196   5.867   0.544   3.275  1.3761 -2.0061  1.0199
  108MOL0     H14197   5.764   0.338   3.277 -0.7431 -0.2136  0.5271
  108MOL0     H14198   5.726   0.339   3.102  0.5702 -1.9540  2.0280
  108MOL0     H14199   5.603   0.532   3.300  3.4598  0.5299 -2.1063
  108MOL0     H14200   5.555   0.509   3.127 -0.0037 -2.9136 -1.7819
  108MOL0     H14201   5.524   0.292   3.327 -0.5976  0.0437 -0.4220
  108MOL0     H14202   5.511   0.264   3.152  1.0260  0.9496 -1.2284
  108MOL0     H14203   5.335   0.447   3.310 -0.8711  0.6428 -0.4956
  108MOL0     H14204   5.277   0.298   3.228  1.2006 -0.8769  1.3294
  108MOL0     H14205   5.360   0.550   3.103  0.0237  0.0511 -1.8335
  108MOL0     H14206   5.355   0.401   3.015 -1.3563 -0.7763  0.5344
  108MOL0     H14207   5.157   0.570   3.005 -0.9670 -0.8289 -1.0974
  108MOL0     H14208   5.134   0.542   3.173  5.3914  0.8607  1.7499
  108MOL0     H14209   4.974   0.289   3.209 -2.7920 -3.3484  0.1287
  108MOL0     H14210   4.829   0.062   2.926  1.4468  2.8214 -1.6224
  108MOL0     H14211   4.761   0.170   3.044 -1.1850 -1.2164 -0.5878
  108MOL0     H14212   4.872   0.066   3.227 -2.8714 -1.4220  1.6640
  108MOL0     H14213   4.956  -0.049   3.127  0.8335  0.7416  1.8517
  108MOL0     H14214   4.650  -0.004   3.137  0.7678 -0.3554 -0.5182
  108MOL0     H14215   4.727  -0.122   3.041 -0.8861 -1.0833  1.1536
  108MOL0     H14216   4.733  -0.138   3.340  1.0368 -0.8515 -0.2586
  108MOL0     H14217   4.772  -0.274   3.225  0.4171  1.0221 -0.1193
  108MOL0     H14218   4.710  -0.411   3.396  0.5633 -1.4214 -2.9349
  108MOL0     H14219   4.612  -0.608   3.504  0.7597  3.1930  2.9864
  108MOL0     H14220   4.301  -0.937   3.484  1.7790  0.7762  0.1927
  108MOL0     H14221   4.217  -1.147   3.597  0.2343 -0.2466 -0.2239
  108MOL0     H14222   4.134  -1.143   4.052  2.4709 -1.0058  3.1255
  108MOL0     H14223   4.281  -1.244   4.015  1.4709  2.2145 -1.5523
  108MOL0     H14224   4.102  -1.397   3.899  0.7321  1.9684 -0.5990
  108MOL0     H14225   4.000  -1.306   4.002  0.4974  3.4339 -1.9875
  108MOL0     H14226   4.145  -1.375   4.204 -0.5554  1.8703 -1.6395
  108MOL0     H14227   4.256  -1.460   4.097  0.4318  1.3584 -0.0910
  108MOL0     H14228   3.951  -1.529   4.106 -0.3461  1.2200  1.3302
  108MOL0     H14229   4.073  -1.611   4.016 -0.8999  1.3939 -1.2400
  108MOL0     H14230   4.071  -1.594   4.313 -1.1371 -0.8433  0.6327
  108MOL0     H14231   4.210  -1.651   4.222 -0.9789  0.4490 -3.1973
  108MOL0     H14232   4.075  -1.878   4.250 -0.7365 -1.3688 -0.1294
  108MOL0     H14233   4.044  -1.800   4.098  2.3734 -0.6707  1.1266
  108MOL0     H14234   3.835  -1.703   4.193 -0.1807  0.7933  0.7455
  108MOL0     H14235   3.836  -1.864   4.188 -0.5661  1.4736 -2.2462
  108MOL0     H14236   3.753  -1.779   4.402  0.4315  1.2111 -1.0853
  108MOL0     H14237   3.908  -1.708   4.435  0.3380 -1.1417  2.0169
  108MOL0     H14238   4.259  -0.954   3.980 -1.6761  2.0347 -0.2677
  108MOL0     H14239   4.370  -0.776   3.866  1.6951 -0.2114 -0.8782
  108MOL0     H14240   4.229  -0.500   3.371 -0.3074  1.2826 -0.3037
  108MOL0     H14241   4.336  -0.323   3.226  0.5764  1.4990  0.1374
  108MOL0     H14242   6.254   0.724   3.055  0.1965 -1.0674  1.7160
  108MOL0     H14243   6.450   0.704   2.914  2.7019 -3.2894  0.3558
  108MOL0     H14244   6.762   0.167   2.751  0.7430  1.7405  0.6774
  108MOL0     H14245   6.958   0.150   2.601  1.1347  0.6775  0.2233
  108MOL0     H14246   7.143   0.270   2.321  0.0426  0.3281 -0.8578
  108MOL0     H14247   7.195   0.428   2.360  1.1085 -0.2888 -1.0701
  108MOL0     H14248   6.932   0.501   2.343  0.2695 -1.4165  2.0365
  108MOL0     H14249   7.015   0.462   2.195  2.2808 -2.0252 -0.7296
  108MOL0     H14250   6.869   0.256   2.351  1.5698  0.3364  1.2415
  108MOL0     H14251   6.917   0.254   2.180  0.3328  1.6103 -0.5846
  108MOL0     H14252   6.764   0.491   2.188  0.2542  0.9394 -0.4656
  108MOL0     H14253   6.708   0.343   2.127 -0.1723 -0.9085  0.5368
  108MOL0     H14254   6.518   0.340   2.514 -1.2888 -0.0743  0.8022
  108MOL0     H14255   6.956   0.581   2.550 -0.8162  0.0028 -0.2748
  108MOL0     H14256   6.737   0.586   2.665 -0.2104  0.4077  2.0350
  109MOL0     O14257  11.209  11.295   6.556  0.3232 -0.4623 -0.3146
  109MOL0     C14258  11.258  11.405   6.562  0.0246 -0.3020 -0.3471
  109MOL0     O14259  11.300  11.473   6.462  0.1947  0.2679 -0.5488
  109MOL0     C14260  11.343  11.404   6.349 -0.2605 -1.1961 -0.4217
  109MOL0     C14261  11.483  11.378   6.327 -1.0086 -0.7159 -0.7388
  109MOL0     C14262  11.523  11.328   6.202 -0.6772 -0.4310 -0.2316
  109MOL0     C14263  11.438  11.303   6.098  0.7767 -0.1379 -0.4236
  109MOL0     O14264  11.452  11.235   5.980  0.8983  0.4181 -0.2946
  109MOL0     C14265  11.585  11.242   5.925 -0.1264  0.1773  0.5677
  109MOL0     C14266  11.607  11.140   5.808  0.9203 -0.1298 -1.0584
  109MOL0     C14267  11.700  11.179   5.691 -0.4149  0.0486 -0.9673
  109MOL0     C14268  11.646  11.270   5.581 -0.3803 -1.0156 -0.2084
  109MOL0     C14269  11.717  11.243   5.439 -0.8624  0.1238 -0.4580
  109MOL0     C14270  11.872  11.267   5.446  0.1250  0.6439 -0.2553
  109MOL0     C14271  11.949  11.244   5.315 -0.0099  0.2394  0.6995
  109MOL0     C14272  12.105  11.232   5.313  1.5207  0.2890 -0.1168
  109MOL0     N14273  12.154  11.196   5.180  0.1506  0.0946  0.1867
  109MOL0     C14274  12.152  11.064   5.141  0.2144  0.6987 -0.2877
  109MOL0     C14275  12.200  11.056   5.017  0.9446  0.2957 -1.3175
  109MOL0     C14276  12.218  10.944   4.924 -0.1901 -0.0473 -0.2260
  109MOL0     C14277  12.346  10.928   4.852 -1.2510  1.1926  0.1003
  109MOL0     C14278  12.341  10.809   4.757  0.5769  0.2225 -0.3818
  109MOL0     C14279  12.341  10.671   4.817 -0.3299 -0.3636  0.0054
  109MOL0     O14280  12.390  10.571   4.728 -0.1568 -0.2498 -0.3758
  109MOL0     C14281  12.521  10.545   4.708 -0.2482  0.1186 -0.3410
  109MOL0     C14282  12.628  10.618   4.770 -0.4929 -0.0407  0.2217
  109MOL0     C14283  12.766  10.576   4.751  0.0646 -0.7916 -0.3490
  109MOL0     C14284  12.806  10.461   4.675  0.3850  0.1453 -0.1352
  109MOL0     C14285  12.945  10.428   4.660 -0.1628  0.6036  0.0904
  109MOL0     O14286  12.967  10.296   4.623 -0.0623 -0.4809  0.0628
  109MOL0     C14287  13.097  10.279   4.584  0.4278  0.0617  0.5267
  109MOL0     C14288  13.143  10.297   4.449  0.7908 -0.2269 -0.3396
  109MOL0     C14289  13.269  10.253   4.423  0.2826 -0.1030 -0.0632
  109MOL0     C14290  13.362  10.206   4.513 -0.3890 -0.1972 -0.0302
  109MOL0     O14291  13.488  10.161   4.479  0.5888  0.4039  0.2400
  109MOL0     C14292  13.490  10.083   4.354  0.2978 -0.9344 -0.6297
  109MOL0     C14293  13.622   9.998   4.358  0.1569  0.7994 -0.0100
  109MOL0     C14294  13.752  10.075   4.372  0.4379 -0.0913  0.1455
  109MOL0     C14295  13.883  10.003   4.324 -0.1583  0.0896 -0.4050
  109MOL0     C14296  13.902   9.862   4.375 -0.2749 -0.4358 -0.0407
  109MOL0     C14297  13.980   9.861   4.508  0.2551  0.5286 -0.3884
  109MOL0     C14298  13.954   9.748   4.608  0.3386 -0.0414  0.3261
  109MOL0     C14299  14.068   9.739   4.704  0.1278 -1.1839 -0.7997
  109MOL0    Cl14300  14.072   9.590   4.792 -0.4087  0.1019  0.3485
  109MOL0     C14301  13.325  10.212   4.642  1.3827 -0.1570  0.5181
  109MOL0     C14302  13.192  10.241   4.682 -0.0126  0.0324 -0.7059
  109MOL0     O14303  13.037  10.507   4.704  0.1985 -0.2156  0.3026
  109MOL0     C14304  12.700  10.392   4.617 -0.0492 -0.0324  0.8899
  109MOL0     C14305  12.562  10.437   4.631  1.0099  0.1755  0.2157
  109MOL0     N14306  12.218  11.180   4.983 -0.3961 -0.3372  0.2634
  109MOL0     N14307  12.200  11.266   5.082  0.6067 -0.6857  0.1741
  109MOL0     C14308  11.302  11.347   6.118 -0.5545 -0.0015 -0.1769
  109MOL0     C14309  11.266  11.401   6.239  0.6483  0.3068  0.7452
  109MOL0     C14310  11.247  11.477   6.696 -0.2019  0.0622  0.1659
  109MOL0     C14311  11.171  11.411   6.795 -0.1593  0.2247 -1.3322
  109MOL0     C14312  11.177  11.464   6.929  0.5601  0.5024  0.0260
  109MOL0     C14313  11.263  11.574   6.956 -0.1406 -0.3630 -1.2231
  109MOL0     O14314  11.265  11.628   7.083  0.4277  0.3271  0.0953
  109MOL0     C14315  11.297  11.554   7.200 -0.6176 -0.3530  0.4980
  109MOL0     C14316  11.445  11.580   7.232  0.0941 -1.0065  0.3890
  109MOL0     C14317  11.554  11.556   7.125  0.7231  0.8657  0.4069
  109MOL0     C14318  11.705  11.534   7.173  0.0623 -0.5575  0.6040
  109MOL0     C14319  11.714  11.405   7.244  0.0700  0.1680  1.0501
  109MOL0     C14320  11.698  11.303   7.310  0.2415  0.3907  0.4309
  109MOL0     C14321  11.333  11.634   6.856 -0.2808  0.6206  0.3817
  109MOL0     C14322  11.327  11.596   6.720  0.0099 -0.7554 -0.5616
  109MOL0     H14323  11.557  11.401   6.403 -3.6665  4.9325  0.6498
  109MOL0     H14324  11.622  11.287   6.189 -1.1261 -1.6681  0.1387
  109MOL0     H14325  11.661  11.235   6.003  2.3500  3.3590 -1.2997
  109MOL0     H14326  11.601  11.340   5.879 -2.8309 -0.8622 -3.0186
  109MOL0     H14327  11.512  11.115   5.759  1.7083 -2.6130 -1.4438
  109MOL0     H14328  11.638  11.049   5.861 -0.0979 -0.0595 -0.2949
  109MOL0     H14329  11.744  11.088   5.649  1.9461  0.1608  0.9772
  109MOL0     H14330  11.785  11.229   5.740 -2.1195  2.3150 -0.1620
  109MOL0     H14331  11.539  11.248   5.586 -0.9089  1.2261 -0.5854
  109MOL0     H14332  11.662  11.374   5.613 -1.1646 -0.6712 -0.8811
  109MOL0     H14333  11.684  11.319   5.367 -1.8228  1.5972  1.4244
  109MOL0     H14334  11.701  11.138   5.414 -0.7847 -0.3426  1.3500
  109MOL0     H14335  11.914  11.205   5.526  0.9220  0.5192 -0.7499
  109MOL0     H14336  11.881  11.371   5.480 -0.3663  0.2318  1.1875
  109MOL0     H14337  11.913  11.146   5.280 -2.1793  0.8782  0.9830
  109MOL0     H14338  11.914  11.314   5.239  2.9458  3.1592  1.8238
  109MOL0     H14339  12.130  11.146   5.375 -3.6952  0.4280  2.6698
  109MOL0     H14340  12.154  11.325   5.345  1.3224  0.2040  0.4257
  109MOL0     H14341  12.118  10.984   5.206  1.1418  0.8626  0.4258
  109MOL0     H14342  12.142  10.953   4.847 -1.0915 -1.0681  0.5115
  109MOL0     H14343  12.189  10.848   4.969 -0.0293  0.7460  1.6639
  109MOL0     H14344  12.421  10.937   4.930 -2.4396  3.2236  1.1002
  109MOL0     H14345  12.362  11.006   4.776  0.5209  2.2105  1.4475
  109MOL0     H14346  12.248  10.829   4.703  0.7950  1.5696 -0.3047
  109MOL0     H14347  12.413  10.815   4.676 -1.2740 -2.2423 -2.3478
  109MOL0     H14348  12.239  10.646   4.848 -1.4044 -0.4037 -3.2352
  109MOL0     H14349  12.403  10.674   4.908 -2.0819  0.1378  1.2350
  109MOL0     H14350  12.612  10.712   4.823 -0.2860  0.8662 -1.2666
  109MOL0     H14351  12.845  10.635   4.795  1.4250 -1.9748 -1.1149
  109MOL0     H14352  13.077  10.340   4.375 -1.4830  1.6374  2.5650
  109MOL0     H14353  13.306  10.282   4.325  3.6013  0.0122  1.0863
  109MOL0     H14354  13.478  10.148   4.267 -1.5518 -0.2132  0.1103
  109MOL0     H14355  13.393  10.034   4.359 -1.1218  1.6786 -0.3908
  109MOL0     H14356  13.614   9.934   4.270 -4.1530  1.3312 -0.2461
  109MOL0     H14357  13.621   9.934   4.447  0.2411  1.6967  0.6525
  109MOL0     H14358  13.765  10.097   4.479 -2.1367 -0.7435  0.6396
  109MOL0     H14359  13.742  10.171   4.320 -1.4216  0.3723  1.2721
  109MOL0     H14360  13.870   9.990   4.217 -4.5123  1.2427 -0.2216
  109MOL0     H14361  13.975  10.061   4.340 -0.0986 -0.1616  0.2163
  109MOL0     H14362  13.973   9.819   4.303  1.1656  1.9893 -0.1462
  109MOL0     H14363  13.805   9.812   4.377 -1.2271  1.3792  1.2354
  109MOL0     H14364  13.945   9.958   4.544 -0.4533  1.0307 -2.2925
  109MOL0     H14365  14.086   9.860   4.480 -0.5983 -0.4011 -4.1766
  109MOL0     H14366  13.854   9.759   4.651  0.1208  0.0747 -0.2049
  109MOL0     H14367  13.947   9.650   4.559 -3.1139  0.2150  0.0691
  109MOL0     H14368  14.054   9.820   4.775 -3.3242 -3.5257  1.5418
  109MOL0     H14369  14.170   9.743   4.665  0.1512 -3.2516 -1.0910
  109MOL0     H14370  13.392  10.187   4.724 -0.3314  0.0592  2.0413
  109MOL0     H14371  13.166  10.253   4.787  2.0832  2.9812 -0.3869
  109MOL0     H14372  12.713  10.306   4.552 -2.3554 -0.1520  0.5211
  109MOL0     H14373  12.481  10.389   4.577  0.2477  0.0204  1.4430
  109MOL0     H14374  11.233  11.310   6.043  1.7224 -3.8646 -0.6791
  109MOL0     H14375  11.160  11.421   6.255  1.1245  3.0573  1.0881
  109MOL0     H14376  11.124  11.317   6.770  0.9772 -0.1001 -2.3409
  109MOL0     H14377  11.132  11.419   7.017 -1.6374 -1.0538 -1.7918
  109MOL0     H14378  11.289  11.445   7.188  0.6534 -0.6477  2.0942
  109MOL0     H14379  11.230  11.598   7.274 -0.2965  1.1582 -0.0805
  109MOL0     H14380  11.441  11.687   7.253 -3.5235 -0.5060 -2.0202
  109MOL0     H14381  11.463  11.531   7.328 -0.1133  1.2305  1.6200
  109MOL0     H14382  11.555  11.636   7.051 -1.4904 -0.3851 -1.0969
  109MOL0     H14383  11.532  11.472   7.059  4.4671 -0.2843  0.3460
  109MOL0     H14384  11.767  11.535   7.083 -1.9109 -2.8611 -0.9259
  109MOL0     H14385  11.740  11.618   7.233  1.5280  0.2631 -1.2883
  109MOL0     H14386  11.691  11.219   7.376  2.3473 -1.3610 -1.4045
  109MOL0     H14387  11.398  11.714   6.892 -1.8979  1.5679  1.3358
  109MOL0     H14388  11.386  11.630   6.635 -1.9463  0.3858 -1.5419
  110MOL0     O14389   5.483   6.670   5.057  0.3986  0.8742 -0.1903
  110MOL0     C14390   5.564   6.746   5.016 -0.2117  0.8459  0.4928
  110MOL0     O14391   5.624   6.726   4.895 -0.5517 -0.2608 -0.1217
  110MOL0     C14392   5.573   6.653   4.787 -1.1893 -0.6688 -0.1828
  110MOL0     C14393   5.659   6.629   4.680  0.9743 -0.3543 -0.0828
  110MOL0     C14394   5.618   6.569   4.563  0.1645 -0.0716 -0.0874
  110MOL0     C14395   5.488   6.520   4.560 -0.7559 -0.2336  0.1215
  110MOL0     O14396   5.449   6.478   4.432 -0.4141  0.0960  0.0400
  110MOL0     C14397   5.395   6.594   4.363 -0.8717  0.1772 -0.0450
  110MOL0     C14398   5.362   6.543   4.230  0.0513  0.3432 -0.1910
  110MOL0     C14399   5.301   6.651   4.144  0.3306  0.5619 -0.3481
  110MOL0     C14400   5.201   6.602   4.036 -0.2803 -0.7352  0.3063
  110MOL0     C14401   5.272   6.550   3.913 -0.3278 -0.0572  1.1125
  110MOL0     C14402   5.325   6.655   3.816  0.4069 -0.5631  0.0029
  110MOL0     C14403   5.407   6.590   3.709 -0.1339  0.7909 -0.9737
  110MOL0     C14404   5.526   6.496   3.753  0.7863 -0.0797 -0.6766
  110MOL0     N14405   5.612   6.570   3.844 -0.4253 -0.7909  0.7078
  110MOL0     C14406   5.698   6.672   3.812  1.0968 -0.4270  0.1735
  110MOL0     C14407   5.749   6.716   3.924  0.4488 -0.5559  0.0923
  110MOL0     C14408   5.839   6.832   3.941  1.8106  0.3978 -0.5911
  110MOL0     C14409   5.985   6.800   3.904 -0.3535  0.2590 -0.2615
  110MOL0     C14410   6.080   6.905   3.943  0.1794  0.4386  0.5402
  110MOL0     C14411   6.035   7.046   3.909 -0.5540  0.2298 -0.2512
  110MOL0     O14412   6.006   7.057   3.772 -0.3495  0.5832 -0.1112
  110MOL0     C14413   5.946   7.178   3.742 -0.9720 -0.4418  0.7779
  110MOL0     C14414   5.860   7.250   3.834 -1.2165 -0.1930  0.5500
  110MOL0     C14415   5.807   7.371   3.799  0.2960 -0.3830 -0.0691
  110MOL0     C14416   5.843   7.442   3.682 -1.0829  0.2404 -0.8663
  110MOL0     C14417   5.795   7.574   3.650  1.0073  0.1268  0.6321
  110MOL0     O14418   5.713   7.624   3.747  0.3276  0.8312 -0.1317
  110MOL0     C14419   5.648   7.745   3.741  0.0647  0.4538  0.9035
  110MOL0     C14420   5.527   7.742   3.810 -0.1486  1.0110 -0.6929
  110MOL0     C14421   5.454   7.855   3.823 -0.5258 -0.4572 -0.8764
  110MOL0     C14422   5.492   7.978   3.765  1.4085 -0.5333  0.1524
  110MOL0     O14423   5.392   8.081   3.763  0.3834  0.6093 -0.4205
  110MOL0     C14424   5.381   8.156   3.648  0.2057  0.1600 -0.4335
  110MOL0     C14425   5.262   8.249   3.644  0.1541 -0.6001  0.3022
  110MOL0     C14426   5.240   8.330   3.514  0.1703 -0.4710 -0.3821
  110MOL0     C14427   5.113   8.426   3.538 -0.4359 -0.2728  0.0471
  110MOL0     C14428   5.085   8.492   3.395  0.4744  0.1502  0.0056
  110MOL0     C14429   4.984   8.606   3.417 -0.8000  0.7889  1.5986
  110MOL0     C14430   4.983   8.696   3.281  0.1736  0.1952 -0.0370
  110MOL0     C14431   5.090   8.808   3.278  0.6532 -0.5239  0.3131
  110MOL0    Cl14432   5.053   8.927   3.151  0.1367  0.3861  0.0196
  110MOL0     C14433   5.606   7.974   3.699  0.8047 -0.5755 -0.0037
  110MOL0     C14434   5.688   7.864   3.682  0.7585  0.1301 -0.0262
  110MOL0     O14435   5.817   7.620   3.537  0.5470  0.2390 -0.9013
  110MOL0     C14436   5.922   7.371   3.592  0.3019 -0.3550  0.3351
  110MOL0     C14437   5.972   7.244   3.619  0.2941  0.4123  0.2266
  110MOL0     N14438   5.700   6.643   4.023  0.2558 -0.3172 -0.5445
  110MOL0     N14439   5.616   6.555   3.977  1.1304 -0.2401 -0.2144
  110MOL0     C14440   5.406   6.523   4.667  0.0099  0.5068 -0.1211
  110MOL0     C14441   5.442   6.596   4.776  0.0519 -0.1503 -0.2726
  110MOL0     C14442   5.590   6.876   5.091 -0.5737  0.1781  0.4875
  110MOL0     C14443   5.700   6.951   5.064 -0.8651 -0.7106 -0.3622
  110MOL0     C14444   5.734   7.060   5.148 -1.0573 -0.2258 -0.0603
  110MOL0     C14445   5.659   7.099   5.256  0.9765 -0.3676 -0.6205
  110MOL0     O14446   5.706   7.214   5.322  0.2722  0.8920  0.2489
  110MOL0     C14447   5.674   7.219   5.466  0.1331 -0.7820  0.2852
  110MOL0     C14448   5.792   7.306   5.518  0.9169 -0.6934 -0.1797
  110MOL0     C14449   5.769   7.454   5.493  0.5756  0.1772 -0.8633
  110MOL0     C14450   5.880   7.529   5.564 -0.3234 -0.3885  0.1530
  110MOL0     C14451   5.871   7.672   5.531 -0.0527 -0.2813  1.0250
  110MOL0     C14452   5.876   7.790   5.505 -0.8474  0.2900 -0.7702
  110MOL0     C14453   5.548   7.020   5.290  0.6365  0.5018  0.6303
  110MOL0     C14454   5.521   6.905   5.213 -0.7050 -0.1548  0.4432
  110MOL0     H14455   5.754   6.682   4.680  0.7659  0.0259  0.1504
  110MOL0     H14456   5.669   6.555   4.468 -2.5675  0.7733 -1.8073
  110MOL0     H14457   5.460   6.681   4.363 -0.7511  0.0896  0.3818
  110MOL0     H14458   5.307   6.638   4.411 -2.7028  1.2403 -3.9868
  110MOL0     H14459   5.289   6.461   4.237  0.0113  0.4325  0.5598
  110MOL0     H14460   5.456   6.528   4.176 -0.7596  3.7413 -2.8794
  110MOL0     H14461   5.382   6.712   4.104  0.4834 -0.2008 -1.2429
  110MOL0     H14462   5.247   6.723   4.207  2.2022  1.9782 -0.2951
  110MOL0     H14463   5.149   6.512   4.072 -0.5206 -1.0993 -0.8799
  110MOL0     H14464   5.127   6.672   3.995 -0.7891 -1.5322 -0.1943
  110MOL0     H14465   5.205   6.489   3.851  1.9279  0.9147 -2.6669
  110MOL0     H14466   5.360   6.489   3.936 -1.3823 -1.5573  1.3065
  110MOL0     H14467   5.388   6.734   3.860 -0.5270  1.9598 -2.8443
  110MOL0     H14468   5.238   6.712   3.781  0.3023 -1.7201 -1.7278
  110MOL0     H14469   5.347   6.519   3.650  2.1242  0.5990 -3.1833
  110MOL0     H14470   5.444   6.675   3.651  3.1611 -0.9769 -1.6890
  110MOL0     H14471   5.586   6.476   3.664  1.0634 -2.0533 -0.0847
  110MOL0     H14472   5.487   6.404   3.798  1.9832  0.7240  2.2160
  110MOL0     H14473   5.701   6.709   3.710 -2.5089 -1.1211 -0.3099
  110MOL0     H14474   5.842   6.863   4.046 -0.1952  1.7202 -0.8688
  110MOL0     H14475   5.796   6.916   3.884  1.4129  1.8424  1.6970
  110MOL0     H14476   6.000   6.780   3.798 -2.1490  0.6785 -0.6217
  110MOL0     H14477   6.013   6.706   3.954  0.1061  0.9121  0.7568
  110MOL0     H14478   6.102   6.890   4.049  0.9483 -1.0067  0.1994
  110MOL0     H14479   6.174   6.881   3.891  1.0423  1.7933  1.3987
  110MOL0     H14480   6.111   7.113   3.950 -2.3477  1.3081  1.4987
  110MOL0     H14481   5.944   7.056   3.969 -1.5138 -1.2659 -1.3993
  110MOL0     H14482   5.817   7.196   3.918 -2.9650  0.3275  0.0306
  110MOL0     H14483   5.739   7.420   3.869  1.3200 -1.5724  1.8246
  110MOL0     H14484   5.500   7.647   3.856 -0.2125  0.4847 -1.7824
  110MOL0     H14485   5.367   7.868   3.887  1.1209 -0.7378  1.5716
  110MOL0     H14486   5.374   8.096   3.557  0.2963 -1.6318  0.6796
  110MOL0     H14487   5.470   8.219   3.641  0.7968 -0.8151 -2.5416
  110MOL0     H14488   5.273   8.311   3.733  0.5499 -0.6627  0.3001
  110MOL0     H14489   5.168   8.196   3.662  0.6524 -0.8673  2.3230
  110MOL0     H14490   5.210   8.264   3.432 -5.7425  0.8956  0.2903
  110MOL0     H14491   5.334   8.378   3.484 -0.4445  0.5033 -0.7855
  110MOL0     H14492   5.025   8.370   3.569 -0.4207  0.3441  1.2575
  110MOL0     H14493   5.140   8.495   3.619  1.2720  0.1594 -0.8446
  110MOL0     H14494   5.042   8.410   3.337  0.5450 -0.2601  0.5217
  110MOL0     H14495   5.178   8.527   3.351  1.0132  0.1720  1.1136
  110MOL0     H14496   5.007   8.673   3.501  1.4873  1.8003  0.2863
  110MOL0     H14497   4.884   8.566   3.437 -1.9295  1.6296 -1.8392
  110MOL0     H14498   5.009   8.625   3.201  2.4215  1.0767 -0.1697
  110MOL0     H14499   4.882   8.739   3.279  0.4215  0.9164 -3.2979
  110MOL0     H14500   5.186   8.760   3.258  1.8534  1.0091  2.0949
  110MOL0     H14501   5.098   8.862   3.373 -4.2502  0.1593  0.5649
  110MOL0     H14502   5.626   8.068   3.648 -3.5004  1.7869  2.1308
  110MOL0     H14503   5.790   7.876   3.646  0.4654  1.1104 -0.5801
  110MOL0     H14504   5.947   7.416   3.496 -2.1116  1.9675  0.6784
  110MOL0     H14505   6.044   7.201   3.549  0.1242  1.5529 -0.6660
  110MOL0     H14506   5.307   6.481   4.649  0.2728  0.3445 -1.2792
  110MOL0     H14507   5.370   6.608   4.856 -0.6078  5.0371 -1.2816
  110MOL0     H14508   5.768   6.922   4.985  0.2119  1.5801 -0.3688
  110MOL0     H14509   5.831   7.104   5.126  0.2848 -2.6923  0.5418
  110MOL0     H14510   5.673   7.118   5.507  0.6594 -1.0238 -0.2881
  110MOL0     H14511   5.584   7.274   5.495 -0.0525 -2.1372  2.5451
  110MOL0     H14512   5.793   7.291   5.626  0.4155 -3.5815 -0.4871
  110MOL0     H14513   5.883   7.257   5.483  1.1711 -0.9550  0.8145
  110MOL0     H14514   5.676   7.490   5.537  0.5829 -1.6741  0.8014
  110MOL0     H14515   5.774   7.479   5.387 -0.4071  3.5520 -0.2317
  110MOL0     H14516   5.888   7.515   5.672 -0.7310 -0.6696  0.1490
  110MOL0     H14517   5.969   7.492   5.513 -1.0641 -0.2961 -1.2602
  110MOL0     H14518   5.877   7.895   5.484 -4.1810  0.3181 -1.1807
  110MOL0     H14519   5.485   7.047   5.374 -1.5775  1.6285 -1.2980
  110MOL0     H14520   5.427   6.854   5.233 -0.6517  0.2920  1.9078
  111MOL0     O14521   9.106   5.890   6.450 -0.1503 -1.0770 -1.1476
  111MOL0     C14522   9.137   5.978   6.534 -0.0926 -0.9173 -0.0145
  111MOL0     O14523   9.196   6.090   6.498 -0.1587  0.0781  0.0519
  111MOL0     C14524   9.277   6.095   6.388 -0.2533 -0.9454  0.5128
  111MOL0     C14525   9.279   6.214   6.314  0.8036  0.0790 -0.2831
  111MOL0     C14526   9.361   6.230   6.199  0.5396 -0.8543 -0.4228
  111MOL0     C14527   9.459   6.131   6.170 -1.0509  0.2606 -0.0458
  111MOL0     O14528   9.545   6.127   6.054  0.1979  0.1099  0.0455
  111MOL0     C14529   9.572   6.250   5.987  0.0628 -0.2018 -0.3184
  111MOL0     C14530   9.699   6.245   5.906  0.1726 -0.7257 -0.3068
  111MOL0     C14531   9.680   6.144   5.793 -0.9262 -0.0022 -0.1439
  111MOL0     C14532   9.817   6.118   5.721 -0.4842  0.6242 -1.1516
  111MOL0     C14533   9.870   6.240   5.642  0.8197 -0.5925 -0.7052
  111MOL0     C14534   9.993   6.216   5.568 -0.8987 -0.5282  0.4172
  111MOL0     C14535  10.117   6.227   5.662 -0.1927 -0.2554  0.0231
  111MOL0     C14536  10.240   6.250   5.587 -0.0934  0.2188  0.8424
  111MOL0     N14537  10.371   6.229   5.660  1.1401  0.4328  0.0076
  111MOL0     C14538  10.428   6.288   5.771  0.8945 -0.5294 -0.1776
  111MOL0     C14539  10.532   6.215   5.800 -0.1668  0.8571  1.1212
  111MOL0     C14540  10.610   6.256   5.922 -0.7502 -0.0653 -0.3316
  111MOL0     C14541  10.637   6.412   5.924 -0.4071 -0.4541  0.1613
  111MOL0     C14542  10.735   6.461   6.026 -0.2211  0.8840 -0.0490
  111MOL0     C14543  10.875   6.386   6.028 -0.8730  0.7364 -0.7000
  111MOL0     O14544  10.934   6.428   6.149  0.5220 -0.3962  0.0379
  111MOL0     C14545  11.063   6.398   6.179  0.4381 -0.3765  0.4118
  111MOL0     C14546  11.102   6.442   6.307  1.1596  0.1111 -0.1193
  111MOL0     C14547  11.223   6.412   6.363  0.0051 -0.2485  0.3993
  111MOL0     C14548  11.309   6.331   6.288 -0.3222  0.2765 -1.0591
  111MOL0     C14549  11.430   6.282   6.353  0.1386 -0.8341  1.4480
  111MOL0     O14550  11.505   6.202   6.280  0.3746 -0.5009  0.2056
  111MOL0     C14551  11.579   6.102   6.332  1.1718  0.2939 -0.7116
  111MOL0     C14552  11.553   6.037   6.458 -0.3282 -0.0055  0.3532
  111MOL0     C14553  11.646   5.945   6.510 -0.1087  0.1784 -0.3144
  111MOL0     C14554  11.770   5.926   6.443 -0.2267  0.9385 -0.3393
  111MOL0     O14555  11.862   5.831   6.477 -0.6970 -0.3275 -0.2462
  111MOL0     C14556  11.878   5.763   6.609  0.1087 -1.3019 -0.5810
  111MOL0     C14557  12.007   5.693   6.626 -0.2489 -0.2555 -0.0205
  111MOL0     C14558  12.129   5.776   6.592 -0.4337 -0.9408  0.7901
  111MOL0     C14559  12.270   5.711   6.596  0.5517  0.0425  0.4808
  111MOL0     C14560  12.372   5.816   6.556 -0.2010  0.2467 -0.4251
  111MOL0     C14561  12.512   5.759   6.586  0.0282 -0.3713  0.9078
  111MOL0     C14562  12.637   5.844   6.524  0.1980  0.2327 -0.8662
  111MOL0     C14563  12.636   5.840   6.378 -0.1256 -0.2944  0.2007
  111MOL0    Cl14564  12.792   5.903   6.321 -0.0712  0.4198  0.3349
  111MOL0     C14565  11.786   5.981   6.315  0.1811 -0.5773 -0.0795
  111MOL0     C14566  11.693   6.058   6.257 -0.8728 -0.4119  0.0862
  111MOL0     O14567  11.445   6.312   6.472  0.2484  0.1551 -0.0355
  111MOL0     C14568  11.267   6.276   6.170 -1.7919 -0.2812  1.2823
  111MOL0     C14569  11.150   6.313   6.110  0.0949  0.4309  0.5931
  111MOL0     N14570  10.541   6.111   5.707  0.0553  0.0188 -0.8290
  111MOL0     N14571  10.452   6.124   5.613 -1.2473  0.3690 -0.4264
  111MOL0     C14572   9.469   6.014   6.248  0.3444 -0.8570  0.1588
  111MOL0     C14573   9.374   5.996   6.359 -0.1305  0.5167 -0.1657
  111MOL0     C14574   9.097   5.961   6.675  0.3079  0.0054  0.5909
  111MOL0     C14575   9.056   5.824   6.718 -0.1462 -0.0972  0.5767
  111MOL0     C14576   9.038   5.796   6.856  0.6537  0.6383  0.1047
  111MOL0     C14577   9.037   5.898   6.951 -0.2559  0.4181 -0.4654
  111MOL0     O14578   9.028   5.886   7.082  0.2349  0.5514  0.3776
  111MOL0     C14579   9.003   5.758   7.135  0.8381  1.0459  0.1502
  111MOL0     C14580   8.954   5.770   7.282 -0.4055 -0.4426  0.0125
  111MOL0     C14581   8.872   5.894   7.317 -0.9521  0.0167  0.4026
  111MOL0     C14582   8.881   5.918   7.470  0.4409 -0.1954 -0.3046
  111MOL0     C14583   8.808   5.825   7.562  0.3646  0.2641  0.3702
  111MOL0     C14584   8.723   5.751   7.599  0.2342 -0.3154 -0.9593
  111MOL0     C14585   9.071   6.024   6.905  0.3570 -0.2019  0.2926
  111MOL0     C14586   9.096   6.058   6.770  1.1669 -0.2192 -0.2768
  111MOL0     H14587   9.221   6.304   6.323  0.6986  0.2671 -2.3971
  111MOL0     H14588   9.349   6.318   6.137  0.1606 -0.4931  0.1619
  111MOL0     H14589   9.566   6.324   6.067 -1.1330 -1.2173  0.5757
  111MOL0     H14590   9.491   6.275   5.918  0.4894 -2.4437 -1.7447
  111MOL0     H14591   9.783   6.229   5.974  0.5575  0.4900 -0.4701
  111MOL0     H14592   9.710   6.346   5.865 -3.2485  0.4133  1.2237
  111MOL0     H14593   9.611   6.175   5.714 -2.5779 -1.0191  0.8420
  111MOL0     H14594   9.636   6.048   5.820  0.9662 -0.7604  0.4572
  111MOL0     H14595   9.883   6.091   5.804 -1.7240  0.5288 -0.1601
  111MOL0     H14596   9.804   6.029   5.659 -1.3167 -1.9657  2.4192
  111MOL0     H14597   9.882   6.326   5.708  1.2906 -0.8650 -0.4298
  111MOL0     H14598   9.800   6.274   5.565 -1.5992  1.7659  2.2890
  111MOL0     H14599   9.996   6.291   5.488  0.2126 -1.1051 -0.1168
  111MOL0     H14600   9.986   6.125   5.506 -0.4701 -0.0429 -0.3663
  111MOL0     H14601  10.099   6.312   5.728  0.6934 -0.5095  0.6016
  111MOL0     H14602  10.132   6.133   5.715 -0.9800 -0.5328 -0.2293
  111MOL0     H14603  10.232   6.353   5.552 -0.3392 -0.7028 -2.1850
  111MOL0     H14604  10.240   6.189   5.496 -0.5391 -0.1855  1.1100
  111MOL0     H14605  10.387   6.377   5.818  1.0640  0.2765 -1.4980
  111MOL0     H14606  10.706   6.203   5.926 -0.0847  0.9847 -1.5855
  111MOL0     H14607  10.547   6.224   6.005 -0.2987  2.8063  1.2689
  111MOL0     H14608  10.537   6.455   5.934  0.2548  0.9582  1.0295
  111MOL0     H14609  10.686   6.442   5.831  2.5783 -1.3456  1.3310
  111MOL0     H14610  10.754   6.566   6.002  0.8597  0.8863  0.6997
  111MOL0     H14611  10.690   6.473   6.125  1.3091  0.6739  0.7028
  111MOL0     H14612  10.942   6.401   5.943 -0.0545 -1.2725 -0.4623
  111MOL0     H14613  10.860   6.278   6.038  0.0031  0.8428  3.1712
  111MOL0     H14614  11.033   6.490   6.376  2.9331  3.2408 -0.3835
  111MOL0     H14615  11.256   6.452   6.458  0.4601 -0.9906  0.5651
  111MOL0     H14616  11.453   6.042   6.498 -2.2704 -2.6181 -3.5137
  111MOL0     H14617  11.626   5.871   6.586  2.0774 -0.6209 -0.4622
  111MOL0     H14618  11.805   5.681   6.616  1.4777 -2.4878  0.1828
  111MOL0     H14619  11.860   5.837   6.688 -1.0890 -0.2302 -1.7911
  111MOL0     H14620  12.014   5.606   6.559  3.2840  2.0264 -3.0406
  111MOL0     H14621  12.023   5.658   6.728  2.4068 -3.0014 -1.2012
  111MOL0     H14622  12.140   5.857   6.665  2.1145 -0.4879  0.0036
  111MOL0     H14623  12.110   5.815   6.491 -2.7313 -2.8863  0.3704
  111MOL0     H14624  12.275   5.674   6.699 -2.3700  2.2063  1.5397
  111MOL0     H14625  12.279   5.622   6.533 -1.0149  1.1664 -1.4664
  111MOL0     H14626  12.368   5.913   6.607  0.2498 -0.0868  0.2668
  111MOL0     H14627  12.370   5.828   6.447  1.9455 -0.7583 -0.6185
  111MOL0     H14628  12.523   5.661   6.540 -0.6360  0.4322 -1.0709
  111MOL0     H14629  12.534   5.752   6.693  1.0014  1.1398  0.8307
  111MOL0     H14630  12.644   5.950   6.551 -1.6398  0.4126 -0.9675
  111MOL0     H14631  12.726   5.802   6.572  0.6480 -0.3022 -2.1304
  111MOL0     H14632  12.562   5.906   6.332  0.4182 -0.7159 -1.3356
  111MOL0     H14633  12.627   5.737   6.340 -1.3251 -0.5597  1.1361
  111MOL0     H14634  11.877   5.958   6.261  0.4426  0.4687 -0.0961
  111MOL0     H14635  11.726   6.106   6.165  2.4247  1.6380  2.1385
  111MOL0     H14636  11.332   6.218   6.106 -2.4603 -1.2250  1.4438
  111MOL0     H14637  11.131   6.276   6.010 -3.5050  4.3763 -0.4994
  111MOL0     H14638   9.555   5.951   6.231 -0.0208 -0.9878 -1.3492
  111MOL0     H14639   9.385   5.919   6.434  0.5973 -0.6612 -1.4465
  111MOL0     H14640   9.053   5.746   6.643  1.1621  0.9434 -0.6128
  111MOL0     H14641   9.027   5.692   6.885  2.8373  0.5421  0.7592
  111MOL0     H14642   9.095   5.700   7.130 -1.0282 -2.4999  2.5896
  111MOL0     H14643   8.929   5.703   7.076  0.0587  0.3741  1.7085
  111MOL0     H14644   8.905   5.677   7.313  1.6893 -0.2620  4.5756
  111MOL0     H14645   9.047   5.788   7.337 -1.9933  1.5443  2.2632
  111MOL0     H14646   8.766   5.888   7.292 -2.0720 -1.7826  4.6206
  111MOL0     H14647   8.910   5.982   7.266 -0.8003 -0.4861 -0.3690
  111MOL0     H14648   8.987   5.901   7.491  1.6767  1.0202 -4.6032
  111MOL0     H14649   8.855   6.024   7.481 -1.6507 -0.2865 -3.1619
  111MOL0     H14650   8.656   5.678   7.640 -0.2004  1.5922  2.0406
  111MOL0     H14651   9.069   6.109   6.972 -2.5507  2.7060 -3.0298
  111MOL0     H14652   9.130   6.160   6.759 -1.2916  0.5730 -1.0152
  112MOL0     O14653   4.460   9.704   1.928  0.4141 -0.3166  0.0025
  112MOL0     C14654   4.543   9.662   1.852 -0.7370 -0.4647  0.1105
  112MOL0     O14655   4.680   9.662   1.878 -0.3005 -0.6210  0.3318
  112MOL0     C14656   4.709   9.704   1.999 -0.0646  0.1848  0.0548
  112MOL0     C14657   4.726   9.614   2.105 -0.5082  0.1676 -0.0323
  112MOL0     C14658   4.749   9.665   2.236  0.8418  0.4443 -0.0120
  112MOL0     C14659   4.772   9.802   2.248 -0.0105  0.5490  0.2810
  112MOL0     O14660   4.814   9.828   2.379  0.1805 -1.3106  0.0001
  112MOL0     C14661   4.856   9.960   2.413 -0.0313  0.6368 -1.0015
  112MOL0     C14662   4.974   9.946   2.509 -0.3101  0.1556 -0.1873
  112MOL0     C14663   5.032  10.078   2.563  0.1523 -0.3728 -0.6694
  112MOL0     C14664   5.101  10.155   2.453 -0.2554 -0.1869  0.9457
  112MOL0     C14665   5.224  10.235   2.509  0.1792 -0.0776  0.0828
  112MOL0     C14666   5.249  10.353   2.425 -0.1660  0.2756  0.1653
  112MOL0     C14667   5.354  10.445   2.468  0.0020  0.3693 -0.1149
  112MOL0     C14668   5.493  10.389   2.463 -0.0734 -0.4125  0.0787
  112MOL0     N14669   5.592  10.504   2.464 -0.0430 -0.2123 -0.1304
  112MOL0     C14670   5.623  10.583   2.567 -0.5730 -0.4554 -0.3798
  112MOL0     C14671   5.693  10.681   2.511  0.2925  0.0129 -0.1260
  112MOL0     C14672   5.766  10.787   2.583 -0.8024  0.6486  0.0465
  112MOL0     C14673   5.663  10.893   2.628  0.7443 -0.4070  1.8763
  112MOL0     C14674   5.717  11.022   2.684  0.7189  0.5191  0.2268
  112MOL0     C14675   5.607  11.136   2.705 -1.1703  0.0190 -1.0397
  112MOL0     O14676   5.543  11.175   2.580 -0.0075 -0.1752  0.1849
  112MOL0     C14677   5.573  11.291   2.514 -0.4317  0.1379  0.0509
  112MOL0     C14678   5.480  11.332   2.416 -0.7530  0.1732 -0.1343
  112MOL0     C14679   5.501  11.448   2.345  1.1329 -1.0902 -0.2568
  112MOL0     C14680   5.621  11.527   2.365 -0.1698 -0.0833  0.4661
  112MOL0     C14681   5.645  11.651   2.291  0.5879  0.2959  0.4084
  112MOL0     O14682   5.743  11.733   2.333  0.1005  0.5526 -0.4414
  112MOL0     C14683   5.762  11.858   2.288 -0.1709 -0.2592 -0.0561
  112MOL0     C14684   5.897  11.904   2.298 -0.1763  0.1944 -0.8467
  112MOL0     C14685   5.933  12.034   2.262 -0.0400  0.0213  0.5707
  112MOL0     C14686   5.832  12.125   2.209 -0.5276  0.2932  0.6862
  112MOL0     O14687   5.847  12.255   2.161  0.2148  0.4500 -0.1081
  112MOL0     C14688   5.979  12.319   2.162  0.0479  0.1050  0.0753
  112MOL0     C14689   5.977  12.469   2.178  0.6915 -0.8580  0.0727
  112MOL0     C14690   5.924  12.542   2.048 -0.5259 -0.9119 -1.5852
  112MOL0     C14691   5.932  12.693   2.070  0.1466 -0.1368  0.6645
  112MOL0     C14692   5.860  12.782   1.967 -0.9485  0.7971 -0.0566
  112MOL0     C14693   5.711  12.802   2.000  0.0683 -0.1658 -0.0585
  112MOL0     C14694   5.649  12.895   1.893 -0.1080  0.9254 -0.7060
  112MOL0     C14695   5.503  12.885   1.895 -0.6149  0.3242  0.5314
  112MOL0    Cl14696   5.436  12.737   1.834 -0.1231 -0.2881  0.1910
  112MOL0     C14697   5.703  12.075   2.208 -0.1503  0.0795 -0.6656
  112MOL0     C14698   5.659  11.952   2.253 -0.2696 -0.3026  0.5495
  112MOL0     O14699   5.575  11.670   2.191 -0.1484 -0.0041  0.4042
  112MOL0     C14700   5.719  11.478   2.457  0.0080 -0.5463  0.3328
  112MOL0     C14701   5.684  11.365   2.542  0.5779 -0.4468  0.2352
  112MOL0     N14702   5.708  10.659   2.376 -0.2911  0.9209  0.2586
  112MOL0     N14703   5.642  10.549   2.349 -0.1091 -0.7216  0.3621
  112MOL0     C14704   4.763   9.890   2.138  0.6488  0.1719  0.1392
  112MOL0     C14705   4.733   9.838   2.017 -0.6896  1.4734  0.2456
  112MOL0     C14706   4.500   9.607   1.720  0.2147  0.4802 -0.3806
  112MOL0     C14707   4.375   9.556   1.702  0.3852 -0.7047 -0.0539
  112MOL0     C14708   4.342   9.522   1.567 -0.7992  0.4631  0.2482
  112MOL0     C14709   4.427   9.524   1.460  0.3493 -0.2593  0.0812
  112MOL0     O14710   4.401   9.509   1.324 -0.1684  0.1883 -0.8391
  112MOL0     C14711   4.286   9.586   1.282  0.2976 -0.3022  0.5876
  112MOL0     C14712   4.240   9.554   1.142 -0.3419 -0.2167  0.4280
  112MOL0     C14713   4.229   9.406   1.111 -0.2734  0.2193  0.0543
  112MOL0     C14714   4.152   9.379   0.978 -0.4560 -0.7748 -0.2406
  112MOL0     C14715   4.222   9.400   0.853  0.2352  0.0129 -1.0580
  112MOL0     C14716   4.278   9.422   0.749  0.2322 -0.6113  0.0286
  112MOL0     C14717   4.562   9.559   1.491  0.7339  0.8564 -0.2561
  112MOL0     C14718   4.594   9.601   1.611  0.1073  0.6451 -0.7784
  112MOL0     H14719   4.714   9.507   2.089 -1.5731 -0.1758  2.6067
  112MOL0     H14720   4.768   9.603   2.323  4.3750  0.6584 -0.4668
  112MOL0     H14721   4.767   9.995   2.465 -1.2440 -5.4374  1.9233
  112MOL0     H14722   4.891  10.022   2.329  0.4557 -0.2805 -1.4938
  112MOL0     H14723   5.050   9.888   2.456  0.8452  2.2536 -0.9394
  112MOL0     H14724   4.935   9.886   2.591  0.2445 -3.1047 -2.1401
  112MOL0     H14725   5.105  10.048   2.638 -0.2552 -2.4083 -1.0286
  112MOL0     H14726   4.965  10.149   2.614  2.3456  0.9328  0.5363
  112MOL0     H14727   5.134  10.077   2.383 -3.7802 -0.0793 -1.0685
  112MOL0     H14728   5.044  10.212   2.379  3.2522  5.3574  1.9733
  112MOL0     H14729   5.317  10.178   2.512  0.8386  0.9780  0.3420
  112MOL0     H14730   5.194  10.261   2.611  0.8616 -1.4679  0.6546
  112MOL0     H14731   5.152  10.405   2.417  0.1358  0.6587 -1.1918
  112MOL0     H14732   5.273  10.322   2.323  3.0092  0.6068  0.7262
  112MOL0     H14733   5.341  10.529   2.399 -4.4295  0.3017  0.3914
  112MOL0     H14734   5.334  10.485   2.568 -0.8801  1.6987 -0.8013
  112MOL0     H14735   5.510  10.343   2.365  1.2683  3.7116 -1.8459
  112MOL0     H14736   5.498  10.323   2.550 -2.8004 -0.5951  0.1748
  112MOL0     H14737   5.589  10.583   2.669  3.9738  0.8944  1.3982
  112MOL0     H14738   5.842  10.835   2.522 -3.1082  0.5837 -3.1472
  112MOL0     H14739   5.814  10.738   2.668  3.2833  2.0988 -1.2316
  112MOL0     H14740   5.620  10.842   2.715  1.2189 -4.0656  0.1602
  112MOL0     H14741   5.575  10.913   2.566 -0.0225  1.8148  3.5284
  112MOL0     H14742   5.763  11.001   2.781  2.3750  0.2616 -0.5834
  112MOL0     H14743   5.793  11.062   2.617  0.7200 -0.6363 -0.4941
  112MOL0     H14744   5.664  11.209   2.764 -1.6404 -2.3678  2.7468
  112MOL0     H14745   5.528  11.108   2.776 -3.1461  0.6997 -2.8924
  112MOL0     H14746   5.395  11.265   2.409 -0.5831 -0.5063  2.9862
  112MOL0     H14747   5.428  11.470   2.268  0.9706 -0.8488 -0.0357
  112MOL0     H14748   5.963  11.836   2.351 -2.4717 -1.0617  0.5585
  112MOL0     H14749   6.031  12.070   2.292 -0.4359  0.5194  1.2993
  112MOL0     H14750   6.026  12.299   2.065 -0.1322  1.5157 -0.3268
  112MOL0     H14751   6.048  12.272   2.234  1.0873 -0.6596 -1.3670
  112MOL0     H14752   6.076  12.510   2.199  2.3946 -4.1600 -0.9291
  112MOL0     H14753   5.912  12.489   2.264  0.5751  1.6689 -0.5085
  112MOL0     H14754   5.815  12.533   2.043 -1.0054  1.2652  1.7895
  112MOL0     H14755   5.972  12.505   1.957  1.5155 -1.7952 -0.2311
  112MOL0     H14756   5.892  12.718   2.169 -0.8750  1.2766 -0.0679
  112MOL0     H14757   6.039  12.713   2.059  0.0092  0.2017 -0.1398
  112MOL0     H14758   5.880  12.734   1.871  5.1006 -1.5737  1.9541
  112MOL0     H14759   5.893  12.886   1.969  0.4412  0.3683  2.2488
  112MOL0     H14760   5.696  12.844   2.100 -1.2694  0.9394 -0.6809
  112MOL0     H14761   5.660  12.706   1.992  0.6504 -0.7853  2.7292
  112MOL0     H14762   5.682  12.996   1.922 -3.8393  1.1183  4.3946
  112MOL0     H14763   5.675  12.857   1.794 -0.2663  1.9211 -1.1450
  112MOL0     H14764   5.465  12.970   1.838 -0.0248  0.0939 -0.2036
  112MOL0     H14765   5.464  12.890   1.997 -2.4039 -0.7987 -0.0532
  112MOL0     H14766   5.632  12.155   2.185  1.0075  1.7787  1.2778
  112MOL0     H14767   5.556  11.921   2.242 -0.4256 -0.4015  2.0947
  112MOL0     H14768   5.814  11.529   2.463 -0.9521  1.6657 -1.6692
  112MOL0     H14769   5.763  11.337   2.610  0.3720  2.3779  1.8012
  112MOL0     H14770   4.783   9.997   2.132  3.2548 -0.2468  0.1220
  112MOL0     H14771   4.705   9.903   1.934  0.0094  2.7856  0.9999
  112MOL0     H14772   4.299   9.560   1.779 -0.9479  1.5727 -1.3559
  112MOL0     H14773   4.241   9.486   1.550 -0.8724 -0.0169  1.5859
  112MOL0     H14774   4.302   9.694   1.286 -2.4360  0.2453 -0.7900
  112MOL0     H14775   4.205   9.571   1.354  0.4691 -0.6335  0.7135
  112MOL0     H14776   4.142   9.600   1.125  0.6962  1.0240 -2.9884
  112MOL0     H14777   4.313   9.583   1.066  0.8046 -1.5021  0.9915
  112MOL0     H14778   4.161   9.350   1.176 -2.3611  0.0266 -2.1449
  112MOL0     H14779   4.330   9.363   1.109  0.9731  2.8024 -3.5311
  112MOL0     H14780   4.123   9.274   0.970 -2.3782 -0.3469  0.6040
  112MOL0     H14781   4.063   9.442   0.970  0.0605  0.0223  0.1743
  112MOL0     H14782   4.331   9.444   0.659  1.1310 -0.2310  0.6281
  112MOL0     H14783   4.640   9.559   1.415  0.5245 -0.7439 -0.5012
  112MOL0     H14784   4.697   9.633   1.618 -0.5148  2.6634 -0.1676
  113MOL0     O14785   1.544   0.109   2.951 -0.2123  0.1979  0.0791
  113MOL0     C14786   1.561   0.049   3.053 -0.8479  0.4234  0.4464
  113MOL0     O14787   1.561  -0.094   3.060  0.3801 -0.4078  1.3662
  113MOL0     C14788   1.509  -0.178   2.967  0.5011 -0.1054  0.3031
  113MOL0     C14789   1.443  -0.151   2.840  0.8480  0.5460 -0.8302
  113MOL0     C14790   1.394  -0.256   2.764 -0.0514 -0.2124  0.4693
  113MOL0     C14791   1.406  -0.386   2.802  0.1545  0.0806  0.6319
  113MOL0     O14792   1.352  -0.484   2.722  0.4920 -0.2682  0.2009
  113MOL0     C14793   1.334  -0.610   2.771  0.0491 -0.1236 -0.1677
  113MOL0     C14794   1.251  -0.697   2.673 -0.1643 -0.3926 -0.2952
  113MOL0     C14795   1.329  -0.717   2.541 -0.2232  0.3347  0.3999
  113MOL0     C14796   1.279  -0.825   2.449  0.2492 -0.0983  0.5003
  113MOL0     C14797   1.344  -0.806   2.319 -0.2965  0.4184  0.2009
  113MOL0     C14798   1.283  -0.891   2.209 -1.0565 -0.0676 -0.2157
  113MOL0     C14799   1.342  -1.039   2.203  0.3356 -0.0241  0.0067
  113MOL0     C14800   1.484  -1.049   2.145 -0.1000 -0.2293 -0.4239
  113MOL0     N14801   1.504  -1.077   1.991 -0.5740  0.5045  0.0295
  113MOL0     C14802   1.567  -1.184   1.938  0.8839  0.1524 -0.5015
  113MOL0     C14803   1.572  -1.154   1.805 -0.5730  0.8475 -0.1996
  113MOL0     C14804   1.631  -1.247   1.700  0.3221 -0.6988  0.5974
  113MOL0     C14805   1.515  -1.308   1.611 -0.6881  0.7518 -0.2002
  113MOL0     C14806   1.577  -1.412   1.518  0.4644  0.2095 -0.6240
  113MOL0     C14807   1.470  -1.441   1.404  0.1661 -1.1097 -0.6221
  113MOL0     O14808   1.529  -1.494   1.285 -0.5070  0.8151  0.7369
  113MOL0     C14809   1.464  -1.484   1.165  0.1132  0.9213 -0.5797
  113MOL0     C14810   1.552  -1.494   1.049  0.3629  0.0903  0.9475
  113MOL0     C14811   1.496  -1.498   0.920  0.2159  0.0101  0.3312
  113MOL0     C14812   1.358  -1.501   0.906  1.0447 -0.1766 -0.5687
  113MOL0     C14813   1.302  -1.510   0.766 -0.9264 -0.4757 -0.1747
  113MOL0     O14814   1.376  -1.585   0.678 -0.2140  0.1518 -0.5579
  113MOL0     C14815   1.346  -1.578   0.543 -0.8701 -0.6992 -0.1872
  113MOL0     C14816   1.357  -1.703   0.480 -0.4557 -0.0155 -0.3940
  113MOL0     C14817   1.333  -1.712   0.342  0.3112 -0.2712  0.2391
  113MOL0     C14818   1.293  -1.599   0.260  0.3803  0.0889 -0.1062
  113MOL0     O14819   1.256  -1.615   0.135 -0.2958 -0.4835  0.3090
  113MOL0     C14820   1.236  -1.496   0.053  0.8588  0.3280  0.4594
  113MOL0     C14821   1.185  -1.526  -0.086 -0.7027 -0.4612 -0.2765
  113MOL0     C14822   1.073  -1.637  -0.093 -0.0750  0.6603 -0.3672
  113MOL0     C14823   1.038  -1.662  -0.236  0.0884 -0.1174  0.8769
  113MOL0     C14824   0.956  -1.793  -0.262 -0.3713 -0.4484  0.1997
  113MOL0     C14825   0.812  -1.782  -0.218  0.4127  1.3935  0.3627
  113MOL0     C14826   0.721  -1.875  -0.300  0.0779  0.0942 -0.3546
  113MOL0     C14827   0.705  -2.023  -0.262  0.3613  0.6677  0.4825
  113MOL0    Cl14828   0.559  -2.099  -0.316 -0.3716 -0.1012  0.5034
  113MOL0     C14829   1.289  -1.476   0.328  1.0119 -1.3757  0.5359
  113MOL0     C14830   1.311  -1.465   0.467 -0.1485  0.1048  0.1315
  113MOL0     O14831   1.193  -1.459   0.746  0.4767  0.9453  1.1052
  113MOL0     C14832   1.270  -1.489   1.019 -0.4243 -0.0575 -0.1907
  113MOL0     C14833   1.326  -1.477   1.156  0.0930 -0.0576  0.7340
  113MOL0     N14834   1.506  -1.035   1.781 -0.1092  0.1781 -0.2090
  113MOL0     N14835   1.468  -0.989   1.895  0.1955  0.2917  0.4878
  113MOL0     C14836   1.478  -0.409   2.917  0.6190 -0.1039 -0.2860
  113MOL0     C14837   1.517  -0.308   3.001 -0.1642  0.4196 -0.5267
  113MOL0     C14838   1.605   0.117   3.173  1.0985 -0.1445  0.7360
  113MOL0     C14839   1.565   0.248   3.203  0.1068 -0.0030 -0.1090
  113MOL0     C14840   1.615   0.327   3.304 -0.1868  0.9260 -0.0715
  113MOL0     C14841   1.718   0.267   3.384 -0.0779 -0.1238  0.6275
  113MOL0     O14842   1.773   0.330   3.497 -0.0216  0.4186  0.4473
  113MOL0     C14843   1.775   0.468   3.508 -0.0516  0.4162 -0.5419
  113MOL0     C14844   1.665   0.505   3.608 -0.2889  1.0018 -0.3594
  113MOL0     C14845   1.675   0.645   3.684 -0.7391 -0.5843  0.4312
  113MOL0     C14846   1.812   0.675   3.751 -0.1153 -0.3920 -0.5117
  113MOL0     C14847   1.917   0.729   3.660 -0.2636 -0.4694 -0.4829
  113MOL0     C14848   1.996   0.768   3.581 -0.8145  0.7497 -0.0782
  113MOL0     C14849   1.751   0.135   3.372  0.1769  0.4897 -0.6367
  113MOL0     C14850   1.702   0.059   3.263 -0.5129 -0.6363 -0.0647
  113MOL0     H14851   1.426  -0.053   2.798 -2.2816  0.5024  0.0714
  113MOL0     H14852   1.346  -0.223   2.672  1.8129 -0.6755 -0.7119
  113MOL0     H14853   1.288  -0.604   2.870 -1.3791  2.6440 -0.9190
  113MOL0     H14854   1.435  -0.653   2.776  0.7315  1.4355  0.1921
  113MOL0     H14855   1.148  -0.665   2.659 -1.1903 -2.9974  0.7285
  113MOL0     H14856   1.239  -0.785   2.736 -2.1846  3.2911  5.2122
  113MOL0     H14857   1.430  -0.755   2.564 -1.5774 -3.5097  0.8252
  113MOL0     H14858   1.335  -0.624   2.485  1.4084 -0.4060 -0.7714
  113MOL0     H14859   1.309  -0.923   2.489  1.1278 -0.6995 -1.4740
  113MOL0     H14860   1.172  -0.819   2.429  0.5542 -0.4797 -1.5526
  113MOL0     H14861   1.453  -0.803   2.324 -0.2880  4.9171  2.4086
  113MOL0     H14862   1.321  -0.704   2.285 -2.3175  0.2237  0.8765
  113MOL0     H14863   1.308  -0.855   2.109  1.7826  4.2026  1.7566
  113MOL0     H14864   1.175  -0.887   2.227 -0.7965 -0.4635  1.6263
  113MOL0     H14865   1.360  -1.077   2.304  1.4095 -4.4487 -1.6311
  113MOL0     H14866   1.257  -1.086   2.151 -1.5943  0.6016  2.4130
  113MOL0     H14867   1.537  -1.131   2.193 -0.6163 -1.7561 -2.3531
  113MOL0     H14868   1.544  -0.959   2.161  2.1883 -1.6253 -0.7809
  113MOL0     H14869   1.589  -1.274   1.995 -0.9020 -1.5323 -2.3388
  113MOL0     H14870   1.681  -1.328   1.754  0.2771 -2.3017 -1.6530
  113MOL0     H14871   1.704  -1.198   1.635  1.5181 -2.4548  0.5422
  113MOL0     H14872   1.469  -1.224   1.557 -2.2496 -0.8003 -1.4177
  113MOL0     H14873   1.442  -1.361   1.673  2.6378 -2.9337  0.9412
  113MOL0     H14874   1.664  -1.370   1.467  0.6085 -2.6836 -3.0743
  113MOL0     H14875   1.600  -1.501   1.577 -2.9466  0.3550  1.1763
  113MOL0     H14876   1.421  -1.346   1.383  1.0961 -0.5059 -0.1119
  113MOL0     H14877   1.392  -1.511   1.437  1.3612 -1.4109  1.7547
  113MOL0     H14878   1.660  -1.506   1.045  0.5120  0.8836 -4.6409
  113MOL0     H14879   1.546  -1.503   0.824 -1.4891  0.5238 -0.6276
  113MOL0     H14880   1.386  -1.790   0.537  1.5018  1.1277  0.4383
  113MOL0     H14881   1.348  -1.807   0.292 -1.9801 -0.6516  0.1782
  113MOL0     H14882   1.331  -1.445   0.042  0.3600  1.3719  0.8624
  113MOL0     H14883   1.161  -1.430   0.098  3.4342  1.9846  2.6362
  113MOL0     H14884   1.275  -1.572  -0.129 -0.4124  2.3555 -3.0493
  113MOL0     H14885   1.148  -1.440  -0.142 -0.6814  0.6195  1.3079
  113MOL0     H14886   0.982  -1.620  -0.034  0.4458 -0.8701  0.9771
  113MOL0     H14887   1.111  -1.721  -0.033  2.1316  2.8204  1.4678
  113MOL0     H14888   1.002  -1.573  -0.288  0.7636  0.7078  1.7767
  113MOL0     H14889   1.135  -1.679  -0.284  0.5543 -0.8337  2.0080
  113MOL0     H14890   1.021  -1.871  -0.219  1.1180  1.0130  0.6886
  113MOL0     H14891   0.958  -1.811  -0.370  1.5163 -1.0806  0.3076
  113MOL0     H14892   0.774  -1.683  -0.244 -0.9977  0.4167 -1.6341
  113MOL0     H14893   0.800  -1.792  -0.110 -1.8798 -2.0481 -0.0480
  113MOL0     H14894   0.619  -1.835  -0.298 -0.8834 -2.2240  0.1145
  113MOL0     H14895   0.760  -1.865  -0.402 -1.4000  1.6333 -0.8233
  113MOL0     H14896   0.700  -2.021  -0.152  0.1069 -0.4640  0.5030
  113MOL0     H14897   0.795  -2.073  -0.298  0.1187  0.4392  0.1956
  113MOL0     H14898   1.254  -1.385   0.280  0.7439 -2.2254 -0.9385
  113MOL0     H14899   1.287  -1.371   0.517 -0.5727  0.0015  0.1271
  113MOL0     H14900   1.162  -1.490   1.011 -0.3391  1.3393 -2.7488
  113MOL0     H14901   1.255  -1.470   1.238  0.3158  2.4466  0.7796
  113MOL0     H14902   1.509  -0.502   2.963  1.0825  0.8288  1.3551
  113MOL0     H14903   1.565  -0.344   3.091  2.9063 -2.1744 -2.9611
  113MOL0     H14904   1.489   0.289   3.137  2.3928  0.1892 -2.8463
  113MOL0     H14905   1.582   0.428   3.325  2.6152  1.3149  3.4685
  113MOL0     H14906   1.772   0.517   3.410 -0.1889  0.7022 -0.3966
  113MOL0     H14907   1.879   0.489   3.538 -0.0594 -1.4763  0.9848
  113MOL0     H14908   1.566   0.499   3.562 -1.3224  0.2494  1.8158
  113MOL0     H14909   1.670   0.432   3.689  1.7330  2.2236  0.7179
  113MOL0     H14910   1.596   0.653   3.760 -0.4866  2.0115  0.5119
  113MOL0     H14911   1.651   0.729   3.617 -0.6575 -2.6901 -2.4167
  113MOL0     H14912   1.793   0.757   3.821  4.2271 -0.1617  0.6612
  113MOL0     H14913   1.836   0.585   3.809 -3.7550 -2.2440 -1.5836
  113MOL0     H14914   2.071   0.800   3.511  1.1294 -0.3978  1.3608
  113MOL0     H14915   1.818   0.088   3.443 -2.5039  0.6763  2.2324
  113MOL0     H14916   1.725  -0.047   3.251 -0.9090 -1.0279  2.2085
  114MOL0     O14917  10.461   5.293   2.657 -0.5354 -0.5396 -0.1434
  114MOL0     C14918  10.508   5.361   2.741  0.0053  0.4855 -0.8709
  114MOL0     O14919  10.464   5.483   2.789 -0.0622 -0.4294  0.3408
  114MOL0     C14920  10.391   5.555   2.710  0.4278 -1.5142 -0.5819
  114MOL0     C14921  10.278   5.614   2.761 -1.0191 -0.7039 -0.6613
  114MOL0     C14922  10.210   5.721   2.695 -0.3351 -0.5255 -0.2258
  114MOL0     C14923  10.261   5.753   2.570 -0.5594  0.4392  0.4013
  114MOL0     O14924  10.194   5.861   2.516  0.0232 -1.1068 -1.0086
  114MOL0     C14925  10.202   5.874   2.367  0.9220 -0.8197 -0.0401
  114MOL0     C14926  10.084   5.968   2.335  0.5619 -1.0462  0.3450
  114MOL0     C14927  10.106   6.044   2.201 -0.1129 -0.5899 -0.1648
  114MOL0     C14928   9.999   6.152   2.184 -0.4091 -0.2916 -0.1229
  114MOL0     C14929   9.872   6.109   2.109  0.6476 -0.7774 -0.0340
  114MOL0     C14930   9.899   6.136   1.967 -0.2207  0.0643  0.7632
  114MOL0     C14931   9.782   6.082   1.883  1.2947  1.0888 -0.3575
  114MOL0     C14932   9.801   6.105   1.729  0.2605 -0.4178 -0.4010
  114MOL0     N14933   9.923   6.045   1.672  0.0482 -0.1693 -0.0989
  114MOL0     C14934   9.976   5.921   1.683 -1.1325  0.4144 -0.0346
  114MOL0     C14935  10.101   5.934   1.610 -0.8707  0.5901 -0.1360
  114MOL0     C14936  10.194   5.815   1.595 -0.4063 -0.0478  0.0438
  114MOL0     C14937  10.180   5.776   1.447  0.3526 -0.4615 -0.5692
  114MOL0     C14938  10.233   5.633   1.413  0.8221 -0.5287 -0.6565
  114MOL0     C14939  10.218   5.612   1.263  0.6035 -0.9600 -0.1417
  114MOL0     O14940  10.091   5.528   1.252 -0.0624  0.6229 -0.2524
  114MOL0     C14941  10.104   5.403   1.276  0.6683 -0.0267 -0.3690
  114MOL0     C14942  10.001   5.329   1.222  0.5162  0.0184 -0.2518
  114MOL0     C14943  10.008   5.194   1.212  0.7673  1.0570  0.3502
  114MOL0     C14944  10.107   5.111   1.268 -0.4765  0.1755  0.3470
  114MOL0     C14945  10.101   4.961   1.257  1.0203 -0.1468 -1.0682
  114MOL0     O14946  10.216   4.903   1.295 -0.9505  0.7159 -0.2407
  114MOL0     C14947  10.243   4.770   1.269  0.7924  0.6659  0.1771
  114MOL0     C14948  10.307   4.689   1.363  0.1607 -0.1451  0.6143
  114MOL0     C14949  10.350   4.567   1.324 -0.6307  0.1315 -0.3487
  114MOL0     C14950  10.318   4.508   1.200  0.1814 -0.1969  0.7131
  114MOL0     O14951  10.361   4.388   1.162  0.1467  0.8522 -0.5695
  114MOL0     C14952  10.294   4.274   1.230 -0.6750 -0.5567  0.1409
  114MOL0     C14953  10.148   4.248   1.186  0.2321  0.6868 -0.0587
  114MOL0     C14954  10.126   4.198   1.036 -0.3099  0.1306  0.1192
  114MOL0     C14955   9.987   4.151   1.007  0.7700 -0.6515  0.0257
  114MOL0     C14956   9.988   4.089   0.859  0.7225 -0.3716  0.2791
  114MOL0     C14957   9.846   4.077   0.801 -0.3554 -0.9613  0.3430
  114MOL0     C14958   9.750   3.982   0.877 -0.1095 -0.3424 -0.3037
  114MOL0     C14959   9.619   3.971   0.812  0.0722  0.3442 -0.3474
  114MOL0    Cl14960   9.635   3.862   0.669  0.0080  0.1724 -0.2837
  114MOL0     C14961  10.241   4.579   1.108  0.7274 -0.8471  0.3905
  114MOL0     C14962  10.210   4.713   1.141  0.4372  0.1139 -0.5158
  114MOL0     O14963  10.005   4.904   1.205 -0.2319 -0.1869 -0.6208
  114MOL0     C14964  10.225   5.184   1.329 -0.4228 -0.3530 -0.4623
  114MOL0     C14965  10.225   5.326   1.316 -0.2592 -0.0899 -0.0210
  114MOL0     N14966  10.112   6.059   1.560 -0.2453 -0.1607 -0.8686
  114MOL0     N14967  10.006   6.124   1.598 -0.1069  0.5839 -0.0288
  114MOL0     C14968  10.360   5.676   2.507  0.5283 -0.0842 -0.5587
  114MOL0     C14969  10.431   5.586   2.585 -0.6776  0.3759  0.6422
  114MOL0     C14970  10.625   5.306   2.813  0.4498 -0.5850 -0.5500
  114MOL0     C14971  10.710   5.211   2.758 -0.2756  0.1698  0.2345
  114MOL0     C14972  10.835   5.185   2.824 -0.0028  0.4354 -0.1739
  114MOL0     C14973  10.872   5.243   2.942 -0.6815  0.3339  0.0666
  114MOL0     O14974  10.997   5.206   2.990  0.0561 -0.6296 -0.1893
  114MOL0     C14975  11.044   5.251   3.116 -0.3225 -0.3710  0.0896
  114MOL0     C14976  11.146   5.148   3.173  0.3661  0.0074  0.5032
  114MOL0     C14977  11.082   5.020   3.202 -0.4700  0.5382 -0.5350
  114MOL0     C14978  11.129   4.908   3.106  0.4033 -0.1750 -0.5719
  114MOL0     C14979  11.270   4.864   3.124  0.2346 -0.1756 -0.3061
  114MOL0     C14980  11.389   4.824   3.129  0.7061  0.5415  0.4600
  114MOL0     C14981  10.784   5.328   3.011  0.7089  1.1374  0.3161
  114MOL0     C14982  10.660   5.358   2.941 -0.8933  0.7902 -0.9331
  114MOL0     H14983  10.259   5.604   2.867  0.9450 -3.8990 -0.4743
  114MOL0     H14984  10.143   5.785   2.750 -0.6439 -1.3170  0.3328
  114MOL0     H14985  10.207   5.781   2.311  2.0081 -0.7662 -0.0505
  114MOL0     H14986  10.294   5.926   2.339  0.8800  0.0585  1.3352
  114MOL0     H14987  10.080   6.047   2.410 -3.5937 -0.4131 -0.3289
  114MOL0     H14988   9.989   5.914   2.333  1.0526 -1.9140 -0.1851
  114MOL0     H14989  10.112   5.974   2.117  1.9152  0.5005 -0.9746
  114MOL0     H14990  10.203   6.092   2.214  1.1530 -2.8793 -0.5550
  114MOL0     H14991   9.960   6.179   2.283  0.0594  2.0376 -0.5210
  114MOL0     H14992  10.036   6.243   2.135 -1.8683 -0.3404 -1.3761
  114MOL0     H14993   9.794   6.172   2.150  0.1871 -1.0711 -0.4544
  114MOL0     H14994   9.837   6.006   2.122 -1.8118 -0.2757 -1.9751
  114MOL0     H14995   9.990   6.082   1.938 -2.7159 -2.7800 -2.5988
  114MOL0     H14996   9.911   6.243   1.945 -3.6551  0.3801 -0.1142
  114MOL0     H14997   9.760   5.977   1.904  2.2022  0.4217 -2.4503
  114MOL0     H14998   9.688   6.127   1.916  1.6226  0.3887  1.6979
  114MOL0     H14999   9.813   6.213   1.716  2.6206  0.0972  4.0516
  114MOL0     H15000   9.717   6.069   1.671  0.4384  0.0335 -0.9496
  114MOL0     H15001   9.942   5.844   1.752  0.7227 -0.5082 -0.0709
  114MOL0     H15002  10.156   5.742   1.667  0.3054  1.1782  1.7278
  114MOL0     H15003  10.299   5.841   1.611 -0.3598  1.0508 -1.7337
  114MOL0     H15004  10.233   5.848   1.385  1.0030 -0.1193  0.3545
  114MOL0     H15005  10.073   5.776   1.421  0.2855 -2.1596 -0.3837
  114MOL0     H15006  10.339   5.622   1.438  0.6408 -0.4214  0.1994
  114MOL0     H15007  10.183   5.556   1.472 -0.9730  2.3959  1.9477
  114MOL0     H15008  10.314   5.576   1.225  3.0538  1.7594  2.7974
  114MOL0     H15009  10.204   5.705   1.207  1.2389 -1.7395 -1.6570
  114MOL0     H15010   9.910   5.382   1.198 -0.3412 -0.2629  2.1234
  114MOL0     H15011   9.925   5.147   1.160  1.4941 -1.2944  1.2328
  114MOL0     H15012  10.325   4.718   1.466  2.0234 -1.4132  0.6902
  114MOL0     H15013  10.405   4.523   1.407  0.8075  1.0677 -0.7725
  114MOL0     H15014  10.304   4.283   1.338 -0.5515 -4.4734  0.5640
  114MOL0     H15015  10.354   4.189   1.198  2.3812  1.4372  0.1832
  114MOL0     H15016  10.074   4.325   1.210 -2.3322 -1.4492 -0.5938
  114MOL0     H15017  10.121   4.162   1.248 -0.2818  0.1846 -0.9598
  114MOL0     H15018  10.198   4.119   1.016  2.3875  2.7913 -1.5973
  114MOL0     H15019  10.162   4.275   0.967 -0.4671 -0.3883 -0.5495
  114MOL0     H15020   9.957   4.078   1.083 -2.0062 -1.0319 -1.3083
  114MOL0     H15021   9.909   4.226   1.022  1.2191 -0.0967 -0.3758
  114MOL0     H15022  10.042   3.996   0.844  0.2144 -0.5108 -0.8497
  114MOL0     H15023  10.042   4.169   0.808  2.1556 -1.3807  0.1650
  114MOL0     H15024   9.849   4.049   0.696  3.0600  1.8171 -0.4725
  114MOL0     H15025   9.799   4.176   0.806 -0.3618 -0.8423 -1.4657
  114MOL0     H15026   9.788   3.883   0.903  0.6314 -0.2761 -1.0805
  114MOL0     H15027   9.741   4.039   0.970 -4.7716 -0.0225 -0.7383
  114MOL0     H15028   9.578   4.069   0.785  4.4456  2.5910  0.2946
  114MOL0     H15029   9.546   3.924   0.879  0.8127  1.6428  1.4767
  114MOL0     H15030  10.223   4.540   1.009  0.7197  2.6985 -1.1375
  114MOL0     H15031  10.165   4.776   1.065 -0.4551  0.4993  0.3199
  114MOL0     H15032  10.308   5.132   1.376 -0.7263  1.3104  2.0951
  114MOL0     H15033  10.308   5.384   1.356 -1.1040  0.3742  1.1361
  114MOL0     H15034  10.385   5.705   2.405 -2.6654 -1.3723 -1.8324
  114MOL0     H15035  10.513   5.524   2.550 -2.3466 -2.3139  1.1944
  114MOL0     H15036  10.698   5.156   2.666  0.8017  1.1088 -0.5051
  114MOL0     H15037  10.906   5.118   2.778  1.1836  1.9988 -0.7386
  114MOL0     H15038  10.955   5.258   3.179 -1.5397 -0.4964 -1.5597
  114MOL0     H15039  11.072   5.356   3.110 -2.5713  0.2693 -0.1270
  114MOL0     H15040  11.223   5.133   3.097  3.1204  1.2012  2.8683
  114MOL0     H15041  11.193   5.194   3.260 -0.5037  0.9793  0.4719
  114MOL0     H15042  10.973   5.029   3.203 -0.3155  3.4660 -1.3811
  114MOL0     H15043  11.107   4.986   3.303  0.7223 -0.0926 -1.0254
  114MOL0     H15044  11.062   4.822   3.112 -0.6768  0.5549 -1.6203
  114MOL0     H15045  11.111   4.953   3.008 -2.7480  2.5811  1.0870
  114MOL0     H15046  11.486   4.781   3.114 -0.8767 -3.3180  0.2694
  114MOL0     H15047  10.808   5.370   3.108 -0.3218  1.1083  0.5988
  114MOL0     H15048  10.601   5.433   2.992  1.1438  1.5283  0.4347
  115MOL0     O15049   7.488   4.582   7.825 -0.2587 -0.1137  0.2801
  115MOL0     C15050   7.417   4.496   7.768 -0.5492  0.1971  0.1739
  115MOL0     O15051   7.414   4.470   7.639 -0.1325  0.3524 -0.0063
  115MOL0     C15052   7.461   4.571   7.571  0.0012 -0.8478 -0.3825
  115MOL0     C15053   7.600   4.586   7.557  0.7783 -0.4890  0.0438
  115MOL0     C15054   7.639   4.700   7.482 -0.3004  0.1944  0.9376
  115MOL0     C15055   7.546   4.785   7.413 -0.0788 -0.4114  0.1458
  115MOL0     O15056   7.581   4.897   7.342  0.6092 -0.3312 -0.2619
  115MOL0     C15057   7.708   4.944   7.332  0.0069  0.2647  0.3880
  115MOL0     C15058   7.713   5.046   7.217 -0.3879 -0.2461  0.4234
  115MOL0     C15059   7.756   4.989   7.087 -0.6215  0.0147  0.6707
  115MOL0     C15060   7.762   5.097   6.978  0.2522  0.1795  0.8815
  115MOL0     C15061   7.834   5.061   6.850 -0.5030 -0.5002 -0.5187
  115MOL0     C15062   7.737   4.976   6.756 -0.6042  0.1844  0.3019
  115MOL0     C15063   7.774   4.821   6.770 -0.2539 -0.1784  1.0326
  115MOL0     C15064   7.908   4.777   6.718  0.4068 -0.6862  0.3144
  115MOL0     N15065   7.909   4.625   6.731 -0.2703  0.8078 -0.4704
  115MOL0     C15066   7.997   4.556   6.803  0.5366  0.4027 -0.7378
  115MOL0     C15067   7.978   4.425   6.767  0.8456  0.2444 -0.1390
  115MOL0     C15068   8.020   4.313   6.853 -0.0001 -0.1322  0.3495
  115MOL0     C15069   8.176   4.301   6.836 -0.4196 -0.1347 -0.0692
  115MOL0     C15070   8.246   4.188   6.901  0.2865  0.5099 -0.2003
  115MOL0     C15071   8.392   4.183   6.858 -1.2975 -0.3736 -0.0754
  115MOL0     O15072   8.422   4.050   6.809 -0.7355  0.6716  0.1230
  115MOL0     C15073   8.533   3.986   6.844 -0.6733 -0.0393  0.0381
  115MOL0     C15074   8.625   4.009   6.945  0.8319 -0.2780 -0.4674
  115MOL0     C15075   8.738   3.929   6.968  0.5864  0.2430 -0.0774
  115MOL0     C15076   8.760   3.820   6.891  0.1360 -0.1967 -0.7074
  115MOL0     C15077   8.888   3.733   6.901  0.0573  0.3605  0.1368
  115MOL0     O15078   8.928   3.665   6.791 -0.4949  0.5830  0.6005
  115MOL0     C15079   9.030   3.574   6.805 -0.1206 -0.7925 -0.0484
  115MOL0     C15080   9.085   3.519   6.924  0.2792  0.3334 -0.0435
  115MOL0     C15081   9.187   3.425   6.914 -0.8098  0.5399  0.4275
  115MOL0     C15082   9.234   3.378   6.786 -0.0840 -0.7115 -0.3078
  115MOL0     O15083   9.333   3.279   6.782 -0.0591 -0.0164 -0.0640
  115MOL0     C15084   9.386   3.228   6.659 -0.3650  0.3280 -0.5745
  115MOL0     C15085   9.487   3.129   6.690  0.6615  0.4723  0.5086
  115MOL0     C15086   9.603   3.173   6.780 -0.4116 -0.6802  0.4704
  115MOL0     C15087   9.698   3.052   6.800 -0.9296  0.6661  0.0547
  115MOL0     C15088   9.765   2.999   6.667 -0.4985 -0.2165  0.0089
  115MOL0     C15089   9.901   2.936   6.690 -0.7707 -0.0791  1.3264
  115MOL0     C15090   9.973   2.906   6.556 -0.1591  0.2277 -0.7607
  115MOL0     C15091  10.126   2.871   6.580  0.1213 -0.2487 -0.6528
  115MOL0    Cl15092  10.136   2.733   6.685 -0.3622 -0.2675  0.6999
  115MOL0     C15093   9.180   3.435   6.668  0.3816  0.3402  0.1252
  115MOL0     C15094   9.091   3.532   6.679  1.5183 -1.1326 -1.1705
  115MOL0     O15095   8.951   3.741   7.010  0.1742 -0.2098  0.1113
  115MOL0     C15096   8.671   3.790   6.784  0.4379  0.5839 -0.0052
  115MOL0     C15097   8.564   3.880   6.755  0.4183 -0.7119 -0.6385
  115MOL0     N15098   7.877   4.425   6.669  0.8459 -0.3876  0.1646
  115MOL0     N15099   7.842   4.549   6.644 -0.5136 -0.0600 -0.3784
  115MOL0     C15100   7.407   4.768   7.438 -0.4737  0.4264  0.4490
  115MOL0     C15101   7.364   4.663   7.519  0.4642  0.4188 -0.9243
  115MOL0     C15102   7.331   4.416   7.856 -0.3916  0.2424 -0.3463
  115MOL0     C15103   7.357   4.385   7.990  1.0648  0.2217 -0.5305
  115MOL0     C15104   7.262   4.321   8.074  0.0755 -0.9241 -0.2845
  115MOL0     C15105   7.133   4.288   8.024  0.6621  0.6749 -0.2561
  115MOL0     O15106   7.031   4.242   8.100  0.0609  0.4238  0.2205
  115MOL0     C15107   7.062   4.188   8.230 -0.2131  0.9506 -0.1987
  115MOL0     C15108   6.952   4.083   8.239 -0.0344 -0.0946 -0.8443
  115MOL0     C15109   6.941   3.993   8.359  0.3111 -0.6694  0.4734
  115MOL0     C15110   6.838   3.877   8.332 -0.6780 -0.7335 -0.0413
  115MOL0     C15111   6.838   3.797   8.454  0.1412  0.4488  0.2078
  115MOL0     C15112   6.829   3.719   8.551 -0.4336  0.0137  1.0512
  115MOL0     C15113   7.109   4.296   7.883  0.6896  0.3023  0.1316
  115MOL0     C15114   7.210   4.358   7.806  1.1912 -0.4224  1.2389
  115MOL0     H15115   7.670   4.511   7.594  2.0489  1.3887  1.6376
  115MOL0     H15116   7.744   4.723   7.496 -0.5010  0.8147  1.4596
  115MOL0     H15117   7.772   4.858   7.310 -1.5231 -1.6717  2.9504
  115MOL0     H15118   7.738   4.983   7.430 -3.9232  1.1842  1.4031
  115MOL0     H15119   7.784   5.128   7.226  0.1694 -0.4284 -1.7784
  115MOL0     H15120   7.615   5.094   7.206 -0.0462  0.0033 -2.0927
  115MOL0     H15121   7.699   4.901   7.052 -0.4369 -0.6897  2.0897
  115MOL0     H15122   7.858   4.951   7.096 -0.4820 -0.6232 -2.3838
  115MOL0     H15123   7.663   5.132   6.946 -0.3484  1.0874  3.4066
  115MOL0     H15124   7.811   5.187   7.016 -1.0859  2.5334 -2.5266
  115MOL0     H15125   7.929   5.012   6.873 -0.8772 -0.8587  0.3130
  115MOL0     H15126   7.859   5.157   6.805 -2.7883 -0.2187 -1.3176
  115MOL0     H15127   7.750   4.999   6.650  0.5821  3.0484  0.9741
  115MOL0     H15128   7.634   4.991   6.789  0.1143  1.2446  2.2770
  115MOL0     H15129   7.764   4.784   6.873  3.3915 -0.4143  1.4471
  115MOL0     H15130   7.704   4.765   6.707 -0.7570  0.0343  1.3969
  115MOL0     H15131   7.990   4.814   6.780  0.6926 -2.0879  0.7984
  115MOL0     H15132   7.914   4.819   6.618  0.2525  0.3487  0.7291
  115MOL0     H15133   8.066   4.598   6.875  1.6548 -0.0704 -1.5011
  115MOL0     H15134   7.956   4.231   6.819 -0.9577  0.8322 -0.2532
  115MOL0     H15135   8.006   4.341   6.958  1.0429  1.5014  0.0856
  115MOL0     H15136   8.228   4.393   6.867  0.0328  0.2057 -1.6931
  115MOL0     H15137   8.193   4.293   6.728 -1.0713 -1.7134 -0.0809
  115MOL0     H15138   8.244   4.196   7.010  0.7978 -1.7440  0.0367
  115MOL0     H15139   8.196   4.093   6.880  0.7769 -0.1613  1.4829
  115MOL0     H15140   8.456   4.222   6.938  3.5031 -0.5470 -3.3898
  115MOL0     H15141   8.423   4.251   6.778  2.0723 -0.9098  0.5974
  115MOL0     H15142   8.623   4.099   7.006 -1.1788 -0.9635  0.5340
  115MOL0     H15143   8.800   3.946   7.056 -0.7852 -1.5219  1.2834
  115MOL0     H15144   9.053   3.538   7.026  1.3217  1.7561  0.0508
  115MOL0     H15145   9.247   3.388   6.996  1.5849  2.3996 -0.3682
  115MOL0     H15146   9.430   3.310   6.600 -0.4305  0.5375 -0.3358
  115MOL0     H15147   9.305   3.190   6.596  1.3545 -5.0031 -0.0032
  115MOL0     H15148   9.519   3.096   6.590 -2.0183 -0.8549 -0.0061
  115MOL0     H15149   9.438   3.036   6.720 -3.1525  1.2564 -2.4703
  115MOL0     H15150   9.568   3.210   6.877  1.2060 -1.3776  1.3546
  115MOL0     H15151   9.670   3.246   6.731 -0.2398 -1.8902 -1.1911
  115MOL0     H15152   9.779   3.090   6.863  2.5838 -3.6139 -1.3592
  115MOL0     H15153   9.640   2.974   6.850 -2.5347  1.8361  0.1147
  115MOL0     H15154   9.773   3.089   6.604  2.2113 -0.4822 -0.1298
  115MOL0     H15155   9.709   2.921   6.615 -0.9719  0.3022 -0.2769
  115MOL0     H15156   9.887   2.839   6.738  1.7048  0.1616  2.6609
  115MOL0     H15157   9.967   2.997   6.752 -2.8662  2.9075  0.8571
  115MOL0     H15158   9.925   2.823   6.504 -1.2658  0.6667 -0.4592
  115MOL0     H15159   9.961   2.996   6.495  2.1230  2.6789  2.0593
  115MOL0     H15160  10.168   2.961   6.626 -1.8284  0.6041 -0.4754
  115MOL0     H15161  10.193   2.853   6.495  0.6063 -1.5652 -0.0229
  115MOL0     H15162   9.218   3.419   6.567 -1.1365  1.6275 -0.6856
  115MOL0     H15163   9.067   3.585   6.587 -0.2792  0.9686  0.4303
  115MOL0     H15164   8.705   3.712   6.717  0.4881 -0.2579  0.9727
  115MOL0     H15165   8.498   3.867   6.670  0.1920 -0.7127 -0.4649
  115MOL0     H15166   7.331   4.834   7.397 -1.4445 -0.3844  0.8826
  115MOL0     H15167   7.260   4.644   7.544  0.4660  0.8102 -0.5866
  115MOL0     H15168   7.451   4.415   8.034  0.0940 -0.5664  2.2904
  115MOL0     H15169   7.293   4.303   8.176 -1.2726 -0.8626  0.1454
  115MOL0     H15170   7.039   4.260   8.309  2.7109  2.2403 -0.3999
  115MOL0     H15171   7.161   4.145   8.248 -1.8115 -3.8960 -1.4304
  115MOL0     H15172   6.856   4.133   8.247 -0.0118 -0.1408 -0.2546
  115MOL0     H15173   6.951   4.020   8.149  0.2929  0.4155 -1.2104
  115MOL0     H15174   6.921   4.051   8.450 -2.4705 -0.1657 -0.3698
  115MOL0     H15175   7.041   3.955   8.381  1.7606  1.4125 -1.8828
  115MOL0     H15176   6.745   3.935   8.337  1.0362  2.1128  1.7466
  115MOL0     H15177   6.848   3.815   8.243 -3.8363 -0.7869 -0.5030
  115MOL0     H15178   6.800   3.645   8.623 -2.4065 -3.1267 -2.6024
  115MOL0     H15179   7.015   4.251   7.854  1.1586 -0.8064  0.2700
  115MOL0     H15180   7.186   4.363   7.701  4.1809 -1.6988  0.3779
  116MOL0     O15181   6.203   5.841   8.310 -0.1693 -0.1125 -0.9516
  116MOL0     C15182   6.148   5.947   8.329 -0.1505  0.0518  0.7501
  116MOL0     O15183   6.184   6.029   8.424 -0.1707 -0.1961 -0.0013
  116MOL0     C15184   6.273   6.003   8.523  0.5880 -0.2094  0.3364
  116MOL0     C15185   6.403   6.057   8.515 -0.0049 -0.2109  0.0110
  116MOL0     C15186   6.494   6.009   8.609  0.0875 -0.1309 -0.0344
  116MOL0     C15187   6.467   5.915   8.708  0.9542  0.0258 -1.3154
  116MOL0     O15188   6.569   5.881   8.796 -0.1302  0.2801  0.0823
  116MOL0     C15189   6.543   5.848   8.933  0.3517 -0.7253  0.5745
  116MOL0     C15190   6.652   5.924   9.017 -0.6411  0.6085 -0.4275
  116MOL0     C15191   6.627   5.898   9.171 -0.0949  0.5069 -0.1238
  116MOL0     C15192   6.735   5.963   9.257  0.5708  0.0736  0.1591
  116MOL0     C15193   6.734   6.118   9.254 -0.3371  0.3276  0.5838
  116MOL0     C15194   6.863   6.177   9.321 -0.3822  0.3300  0.2402
  116MOL0     C15195   6.890   6.331   9.305 -0.5108  0.5550  0.3577
  116MOL0     C15196   6.818   6.402   9.411  0.1871  0.2209  0.7592
  116MOL0     N15197   6.875   6.385   9.543 -0.0998 -0.0358 -0.3525
  116MOL0     C15198   7.005   6.407   9.584  0.4290  0.4132  1.0678
  116MOL0     C15199   7.013   6.364   9.708 -0.0451  0.5762  0.0378
  116MOL0     C15200   7.137   6.354   9.787 -0.6964  1.3463 -1.2273
  116MOL0     C15201   7.124   6.427   9.925  0.2814  0.6034  0.0718
  116MOL0     C15202   7.073   6.571   9.938  0.2348 -1.4225  0.0458
  116MOL0     C15203   7.097   6.639  10.068  0.0675  0.4549  0.4939
  116MOL0     O15204   7.236   6.687  10.085 -0.2991 -0.0262 -0.4837
  116MOL0     C15205   7.291   6.701  10.211 -1.1994  0.4079 -0.3498
  116MOL0     C15206   7.217   6.695  10.328  0.6694  0.8698  0.5693
  116MOL0     C15207   7.281   6.684  10.459  0.6959  0.9205 -0.0444
  116MOL0     C15208   7.420   6.686  10.465 -0.0967 -0.3429  0.2745
  116MOL0     C15209   7.492   6.709  10.592  0.5237  0.3037  0.0471
  116MOL0     O15210   7.622   6.751  10.587  0.2680  0.2220 -0.9375
  116MOL0     C15211   7.708   6.730  10.694  1.0655  0.3149  0.3043
  116MOL0     C15212   7.709   6.625  10.782  0.5002 -0.8077 -1.2625
  116MOL0     C15213   7.822   6.586  10.860  0.3179  0.3672 -0.3490
  116MOL0     C15214   7.932   6.674  10.855 -0.5762  0.8113 -0.4618
  116MOL0     O15215   8.058   6.653  10.904  0.1340  0.4733  1.2108
  116MOL0     C15216   8.071   6.657  11.041 -0.2374 -0.0879 -0.3212
  116MOL0     C15217   8.183   6.562  11.067  0.1020  0.3564 -0.0757
  116MOL0     C15218   8.322   6.620  11.024  0.1598  0.8872  0.0445
  116MOL0     C15219   8.433   6.523  11.055 -0.4097 -0.0275 -0.6827
  116MOL0     C15220   8.566   6.600  11.043 -1.0176 -0.4720  0.0960
  116MOL0     C15221   8.578   6.679  10.915  0.6615  0.3921 -1.2086
  116MOL0     C15222   8.726   6.739  10.912  0.8706 -0.0539 -0.1174
  116MOL0     C15223   8.759   6.804  10.780 -0.2400  0.2639 -0.2987
  116MOL0    Cl15224   8.929   6.814  10.756 -0.0449  0.3497  0.2243
  116MOL0     C15225   7.929   6.786  10.777 -0.1121  0.1134  0.0885
  116MOL0     C15226   7.816   6.810  10.695  0.3825 -1.0089  0.7771
  116MOL0     O15227   7.424   6.707  10.698 -0.0668 -0.1563  0.2434
  116MOL0     C15228   7.492   6.698  10.347 -0.2034 -0.3730 -0.5887
  116MOL0     C15229   7.429   6.695  10.223  0.1621 -0.5719 -0.0337
  116MOL0     N15230   6.888   6.319   9.740 -0.3584 -0.0882  0.7253
  116MOL0     N15231   6.811   6.330   9.647 -0.0231  0.5583  0.6144
  116MOL0     C15232   6.328   5.881   8.723  0.5491  0.2444 -0.3113
  116MOL0     C15233   6.231   5.928   8.632  0.3403  0.1200  0.2933
  116MOL0     C15234   6.047   5.984   8.222  1.3101 -0.1499 -0.1678
  116MOL0     C15235   5.952   6.096   8.238 -0.1100  0.0914  0.7983
  116MOL0     C15236   5.896   6.158   8.126 -0.4676  0.7203  0.2766
  116MOL0     C15237   5.894   6.090   8.002  0.0799 -0.4012  0.2000
  116MOL0     O15238   5.828   6.129   7.887  0.0196  0.2882  0.7514
  116MOL0     C15239   5.736   6.241   7.905 -0.2422 -0.1232 -0.6614
  116MOL0     C15240   5.652   6.263   7.781 -0.4571  0.1462  0.1192
  116MOL0     C15241   5.721   6.232   7.648  0.8010  0.0783 -1.0109
  116MOL0     C15242   5.658   6.304   7.526 -0.0342 -0.1067 -0.1251
  116MOL0     C15243   5.526   6.252   7.523  0.5170 -0.5048 -0.4192
  116MOL0     C15244   5.415   6.205   7.528  0.1711  0.3503  1.1497
  116MOL0     C15245   5.970   5.980   7.990  0.4172  0.0792  1.0021
  116MOL0     C15246   6.050   5.936   8.091  0.2445  0.7170 -0.2376
  116MOL0     H15247   6.435   6.135   8.447  0.0776  0.3573  0.6898
  116MOL0     H15248   6.591   6.057   8.620  0.0303  0.5298 -2.0225
  116MOL0     H15249   6.559   5.741   8.949 -0.6180 -1.0290 -0.3608
  116MOL0     H15250   6.440   5.879   8.956  0.1699 -0.4145 -0.6134
  116MOL0     H15251   6.654   6.029   8.987 -0.7837  0.7030 -0.1072
  116MOL0     H15252   6.745   5.876   8.985 -0.7877 -0.5071  0.7671
  116MOL0     H15253   6.634   5.790   9.188  0.1348  0.6577  0.7896
  116MOL0     H15254   6.531   5.937   9.207 -0.0689  0.6518 -0.2104
  116MOL0     H15255   6.723   5.937   9.363 -3.2575 -2.4013 -0.6676
  116MOL0     H15256   6.827   5.930   9.209  0.4474  0.8511 -0.6356
  116MOL0     H15257   6.645   6.150   9.308 -2.1166 -0.7075 -1.5828
  116MOL0     H15258   6.732   6.162   9.153  0.4193  0.9871  0.8493
  116MOL0     H15259   6.949   6.124   9.279  2.9538  4.5321  1.1339
  116MOL0     H15260   6.860   6.156   9.428 -0.3898  4.5300  1.2205
  116MOL0     H15261   6.995   6.356   9.323 -0.8606  2.1053  0.3705
  116MOL0     H15262   6.858   6.371   9.209  0.0800 -0.8904 -0.4678
  116MOL0     H15263   6.718   6.359   9.416  0.3320  0.0135  2.1247
  116MOL0     H15264   6.835   6.506   9.381 -0.4474 -0.5323 -2.6556
  116MOL0     H15265   7.091   6.432   9.522 -2.0006  0.0303 -2.7791
  116MOL0     H15266   7.221   6.392   9.728  2.5112 -3.1120 -0.0685
  116MOL0     H15267   7.155   6.249   9.813 -3.0403  1.0102 -0.6944
  116MOL0     H15268   7.225   6.414   9.966  1.9163 -0.5188 -3.8043
  116MOL0     H15269   7.065   6.369   9.996  1.7130  0.1254  0.9134
  116MOL0     H15270   7.119   6.630   9.858 -1.1573 -0.8508 -0.3542
  116MOL0     H15271   6.965   6.584   9.928  0.5824  3.5486  0.2162
  116MOL0     H15272   7.067   6.565  10.144  2.1890 -1.2075 -0.1598
  116MOL0     H15273   7.034   6.727  10.080  1.5849  1.9601 -1.9060
  116MOL0     H15274   7.109   6.685  10.330  0.5405 -0.1358 -3.2958
  116MOL0     H15275   7.221   6.681  10.549  1.5125 -0.2757  0.4987
  116MOL0     H15276   7.624   6.558  10.775  0.5237 -0.9691 -0.1396
  116MOL0     H15277   7.828   6.494  10.917 -2.7843 -0.0382 -0.5071
  116MOL0     H15278   7.985   6.616  11.094  0.0578  1.0623  1.0848
  116MOL0     H15279   8.086   6.760  11.074  0.8320  0.0192 -1.0814
  116MOL0     H15280   8.167   6.469  11.012  1.2111 -0.6110  1.1839
  116MOL0     H15281   8.180   6.533  11.173 -1.1368 -1.2853 -0.5044
  116MOL0     H15282   8.339   6.710  11.084 -0.9622 -0.9265  3.3023
  116MOL0     H15283   8.315   6.647  10.918 -2.2534 -1.9816 -0.6714
  116MOL0     H15284   8.409   6.481  11.153  0.1751 -3.1561 -1.7631
  116MOL0     H15285   8.427   6.429  11.000 -0.3190  0.5036 -1.6137
  116MOL0     H15286   8.653   6.536  11.059  1.1084  2.0661 -0.6099
  116MOL0     H15287   8.568   6.683  11.114  0.5896 -0.4301  0.0262
  116MOL0     H15288   8.512   6.767  10.915  1.7333  1.2230 -2.1381
  116MOL0     H15289   8.555   6.611  10.832 -2.2726 -1.8666  1.2542
  116MOL0     H15290   8.759   6.797  10.998  2.2001  0.6650 -1.0819
  116MOL0     H15291   8.799   6.659  10.926  1.0939  0.2769  0.6637
  116MOL0     H15292   8.713   6.902  10.762 -1.9231 -0.7666 -1.8793
  116MOL0     H15293   8.720   6.751  10.693 -2.3102  1.8195 -0.3969
  116MOL0     H15294   8.011   6.857  10.780  1.0565 -1.0847 -1.6345
  116MOL0     H15295   7.799   6.904  10.644 -1.7357 -0.2268  2.7077
  116MOL0     H15296   7.600   6.690  10.347 -0.0624  1.2446 -1.4644
  116MOL0     H15297   7.482   6.688  10.128  1.2853 -1.1796  0.6236
  116MOL0     H15298   6.298   5.815   8.804  2.1871 -2.7998 -2.0336
  116MOL0     H15299   6.128   5.893   8.636  0.7336 -0.9287  2.3907
  116MOL0     H15300   5.929   6.137   8.336 -0.6919  1.2737  0.1978
  116MOL0     H15301   5.842   6.252   8.134  1.8771  2.1555  0.0507
  116MOL0     H15302   5.798   6.327   7.934 -1.3035  0.0301  1.3485
  116MOL0     H15303   5.672   6.223   7.992  1.0906  0.2998  0.4415
  116MOL0     H15304   5.561   6.202   7.791  0.9149 -2.3496 -1.5335
  116MOL0     H15305   5.629   6.370   7.780  0.8189  0.5068  2.2722
  116MOL0     H15306   5.730   6.124   7.629 -0.7575 -0.0558 -1.1200
  116MOL0     H15307   5.823   6.273   7.649  0.6632  0.4716 -1.9237
  116MOL0     H15308   5.662   6.412   7.540  0.9841 -0.1468 -0.0079
  116MOL0     H15309   5.705   6.277   7.431  1.6805  0.0421  0.6325
  116MOL0     H15310   5.328   6.144   7.540  1.9390 -3.1863 -1.9469
  116MOL0     H15311   5.961   5.929   7.895 -3.1892  0.4847  0.9650
  116MOL0     H15312   6.125   5.862   8.066  0.7251  0.7515  1.0192
  117MOL0     O15313  10.786   0.302   5.895  0.7276  0.3384 -0.2381
  117MOL0     C15314  10.862   0.216   5.943 -0.3314  0.3618 -0.5957
  117MOL0     O15315  10.978   0.167   5.889  0.3132  0.4421  0.4455
  117MOL0     C15316  11.005   0.225   5.766  0.3490 -0.2952  0.3314
  117MOL0     C15317  11.096   0.331   5.764  0.7225 -0.3701  0.6407
  117MOL0     C15318  11.148   0.375   5.648  0.0393  0.7234 -0.0257
  117MOL0     C15319  11.106   0.331   5.517  0.3436  0.8076 -0.7458
  117MOL0     O15320  11.153   0.375   5.395 -0.0371 -0.8844  0.5003
  117MOL0     C15321  11.178   0.518   5.380 -0.3230  0.5481  0.4814
  117MOL0     C15322  11.329   0.558   5.364  0.1771 -1.0480 -0.0415
  117MOL0     C15323  11.397   0.504   5.235  0.0630  0.3790  0.1760
  117MOL0     C15324  11.538   0.565   5.212 -1.1130  0.1879  0.7163
  117MOL0     C15325  11.605   0.483   5.100  0.4606  0.6831  0.4074
  117MOL0     C15326  11.735   0.541   5.055 -0.2162 -0.3096 -0.1402
  117MOL0     C15327  11.773   0.489   4.916  0.0231  0.4048 -0.4561
  117MOL0     C15328  11.916   0.510   4.889  0.2283 -0.5731  1.2649
  117MOL0     N15329  11.958   0.473   4.751  0.1980  0.2653 -0.1818
  117MOL0     C15330  12.001   0.342   4.715  0.2961  0.4254  0.1230
  117MOL0     C15331  12.049   0.357   4.588  0.2989  1.3545 -0.7665
  117MOL0     C15332  12.120   0.257   4.502  0.6962 -0.0314  0.0223
  117MOL0     C15333  12.091   0.283   4.348 -0.2667 -0.4322  0.3431
  117MOL0     C15334  11.959   0.222   4.303 -0.2432 -0.2014 -0.0048
  117MOL0     C15335  11.834   0.290   4.348 -0.3930  0.1787  0.8862
  117MOL0     O15336  11.720   0.228   4.277 -0.1904 -0.5968 -0.4189
  117MOL0     C15337  11.604   0.265   4.335  1.3177 -0.8525  0.0498
  117MOL0     C15338  11.584   0.382   4.408 -0.8656  0.2794 -0.5574
  117MOL0     C15339  11.451   0.415   4.445 -0.2940 -0.5719 -0.7177
  117MOL0     C15340  11.339   0.346   4.397  0.9482 -0.9107 -0.3090
  117MOL0     C15341  11.196   0.388   4.411  0.1029  0.2094  0.0397
  117MOL0     O15342  11.175   0.483   4.500 -1.0395  0.8356  1.1664
  117MOL0     C15343  11.064   0.542   4.536  0.1192  1.0449 -0.5352
  117MOL0     C15344  11.058   0.592   4.665 -0.5247  0.0698 -0.0990
  117MOL0     C15345  10.941   0.662   4.712 -1.0268 -0.3737  0.8053
  117MOL0     C15346  10.833   0.668   4.623 -0.2246  0.0221  0.0960
  117MOL0     O15347  10.712   0.717   4.647  0.0842 -0.1710 -0.7144
  117MOL0     C15348  10.683   0.756   4.787  0.0413 -0.3572  0.4209
  117MOL0     C15349  10.540   0.806   4.790 -1.0562 -0.1706 -0.1959
  117MOL0     C15350  10.496   0.824   4.935 -0.4314 -0.5691  0.0472
  117MOL0     C15351  10.428   0.697   4.991  0.1967 -0.0252 -0.1849
  117MOL0     C15352  10.366   0.735   5.124 -0.5479 -0.9415 -0.4221
  117MOL0     C15353  10.284   0.616   5.167 -0.6864  0.9257  0.6264
  117MOL0     C15354  10.208   0.654   5.289  0.3152  0.6192 -0.1063
  117MOL0     C15355  10.103   0.546   5.318 -0.3042  0.1866 -0.7245
  117MOL0    Cl15356  10.034   0.595   5.479  0.0753 -0.0659  0.0891
  117MOL0     C15357  10.841   0.616   4.490  0.2475 -0.4497 -0.3240
  117MOL0     C15358  10.953   0.551   4.452  0.1372 -0.0136  0.0633
  117MOL0     O15359  11.110   0.329   4.350 -0.3976 -0.6220  0.1967
  117MOL0     C15360  11.371   0.228   4.325  0.0995 -0.3973  0.0610
  117MOL0     C15361  11.500   0.188   4.297  0.2586  0.8119 -0.2523
  117MOL0     N15362  12.013   0.484   4.549 -0.2408  0.5814  0.1876
  117MOL0     N15363  11.971   0.552   4.644 -0.1949  0.0857 -0.3462
  117MOL0     C15364  10.996   0.231   5.516 -1.0627  0.6836 -0.0623
  117MOL0     C15365  10.949   0.184   5.647  0.0496  0.7384 -0.1602
  117MOL0     C15366  10.838   0.180   6.088  0.3188  0.3837 -0.1920
  117MOL0     C15367  10.948   0.175   6.178  0.1615 -0.3240 -0.2024
  117MOL0     C15368  10.920   0.137   6.312 -1.1923 -0.1219  0.8857
  117MOL0     C15369  10.794   0.115   6.365 -0.3181  1.1757  0.2393
  117MOL0     O15370  10.788   0.071   6.492  0.5005 -0.2502 -0.1061
  117MOL0     C15371  10.674   0.025   6.555  0.1194 -0.0591  0.7800
  117MOL0     C15372  10.698  -0.064   6.682  0.1412  0.1939 -0.1294
  117MOL0     C15373  10.758   0.015   6.805  0.4781  0.3483  0.2192
  117MOL0     C15374  10.768  -0.074   6.934 -0.0730 -0.1964  0.4627
  117MOL0     C15375  10.860  -0.181   6.912  0.1896  0.8515 -0.0526
  117MOL0     C15376  10.946  -0.268   6.909  0.3007 -1.4033 -0.7594
  117MOL0     C15377  10.686   0.134   6.275  0.6470 -0.4165  0.2261
  117MOL0     C15378  10.712   0.160   6.133 -0.1826 -0.0593 -0.2507
  117MOL0     H15379  11.134   0.373   5.857  1.0414  0.2434  0.2434
  117MOL0     H15380  11.206   0.466   5.659 -3.0959  2.7343  1.6265
  117MOL0     H15381  11.134   0.571   5.465 -0.1675 -1.2528  1.7211
  117MOL0     H15382  11.132   0.541   5.284  4.1550 -2.0665 -2.6683
  117MOL0     H15383  11.388   0.525   5.450  0.2179  2.2768  1.3176
  117MOL0     H15384  11.327   0.667   5.370 -2.0130 -1.0943  0.9892
  117MOL0     H15385  11.331   0.528   5.151  1.8294 -0.2226 -1.4370
  117MOL0     H15386  11.402   0.395   5.239 -1.0090  0.3539  2.4102
  117MOL0     H15387  11.521   0.667   5.177 -0.9358 -0.5918 -1.9142
  117MOL0     H15388  11.605   0.561   5.298 -0.6723  0.4780  0.3883
  117MOL0     H15389  11.538   0.483   5.013  1.6884  2.2585 -0.6079
  117MOL0     H15390  11.627   0.379   5.126 -3.1899  0.1381  1.9142
  117MOL0     H15391  11.806   0.510   5.132 -0.2210 -4.0282 -1.4542
  117MOL0     H15392  11.724   0.650   5.053  0.0810 -0.2758  0.0686
  117MOL0     H15393  11.738   0.387   4.897 -0.8606  0.7671 -0.8040
  117MOL0     H15394  11.728   0.550   4.838  1.3547 -0.8417 -2.3025
  117MOL0     H15395  11.974   0.453   4.963  0.3820 -2.9963 -0.6000
  117MOL0     H15396  11.949   0.613   4.904  1.2800 -0.7582  0.3367
  117MOL0     H15397  12.017   0.251   4.771 -1.1315 -0.9429 -1.5912
  117MOL0     H15398  12.077   0.160   4.526 -1.2753 -0.0792 -3.1427
  117MOL0     H15399  12.227   0.270   4.523  0.6486  3.5734 -1.2498
  117MOL0     H15400  12.179   0.244   4.296 -1.0225  0.4003 -1.6401
  117MOL0     H15401  12.103   0.385   4.311  3.1315 -1.0776 -0.6286
  117MOL0     H15402  11.941   0.217   4.195 -0.2548 -1.6946  0.0467
  117MOL0     H15403  11.959   0.120   4.343  2.3598  0.2909  1.4159
  117MOL0     H15404  11.840   0.397   4.327 -3.2081 -0.1054 -2.0570
  117MOL0     H15405  11.813   0.283   4.455 -3.6612  1.2963  0.4143
  117MOL0     H15406  11.663   0.455   4.425 -2.8932  2.0394  2.1399
  117MOL0     H15407  11.440   0.506   4.503 -1.5513 -1.2015  0.0686
  117MOL0     H15408  11.144   0.577   4.729  0.9399  1.0817 -1.7328
  117MOL0     H15409  10.952   0.726   4.798  0.9425  2.2060 -1.1831
  117MOL0     H15410  10.744   0.843   4.810  0.3799  0.6515 -3.4721
  117MOL0     H15411  10.697   0.684   4.868  0.0133  0.8895  1.5753
  117MOL0     H15412  10.472   0.741   4.734 -1.1700  1.6880 -2.3781
  117MOL0     H15413  10.536   0.910   4.756  4.1908  0.1059 -0.6776
  117MOL0     H15414  10.428   0.908   4.927 -0.7205 -0.3066  3.8782
  117MOL0     H15415  10.587   0.846   4.992  0.5769 -0.3360 -1.5647
  117MOL0     H15416  10.357   0.651   4.923 -0.9023 -0.0822  0.9645
  117MOL0     H15417  10.514   0.630   5.006 -0.3184 -0.7642 -0.5114
  117MOL0     H15418  10.307   0.826   5.112  0.0528 -0.4509  0.3142
  117MOL0     H15419  10.443   0.757   5.198 -1.0171  1.6750 -0.6406
  117MOL0     H15420  10.343   0.524   5.173 -0.8055  0.7079 -1.0122
  117MOL0     H15421  10.212   0.600   5.086  0.2691 -1.4029  0.1523
  117MOL0     H15422  10.280   0.654   5.371  0.0106 -0.1357  0.1758
  117MOL0     H15423  10.149   0.745   5.292 -3.2651 -1.5333  2.8433
  117MOL0     H15424  10.158   0.453   5.328 -1.8184 -0.5289  1.6203
  117MOL0     H15425  10.040   0.537   5.229  1.8414 -3.3848 -2.0735
  117MOL0     H15426  10.756   0.640   4.426 -0.4870  0.5199  0.9815
  117MOL0     H15427  10.964   0.510   4.353  0.1748 -0.2602  0.1701
  117MOL0     H15428  11.294   0.161   4.286 -0.0331 -0.8423  1.0430
  117MOL0     H15429  11.505   0.090   4.250 -1.4738  0.6634 -0.1764
  117MOL0     H15430  10.958   0.207   5.417  0.5160  2.9958 -1.3474
  117MOL0     H15431  10.858   0.124   5.642 -1.3550  2.8095 -0.9443
  117MOL0     H15432  11.052   0.181   6.146  1.4026  1.2733  3.6512
  117MOL0     H15433  10.996   0.102   6.382 -0.7368 -2.5755 -0.6903
  117MOL0     H15434  10.610  -0.025   6.482 -0.1013  1.3350 -0.0076
  117MOL0     H15435  10.622   0.114   6.592 -1.1863 -0.1993 -0.6231
  117MOL0     H15436  10.599  -0.106   6.702 -0.8226  2.4400  0.1862
  117MOL0     H15437  10.773  -0.139   6.656  1.0525  0.5676  1.3072
  117MOL0     H15438  10.691   0.098   6.830  0.0968  0.5266 -1.2608
  117MOL0     H15439  10.855   0.065   6.795 -0.4085  2.3034  0.8143
  117MOL0     H15440  10.818  -0.011   7.008  1.4236 -1.8470  0.9335
  117MOL0     H15441  10.668  -0.107   6.965 -0.2587 -0.4941 -0.4347
  117MOL0     H15442  11.023  -0.341   6.926 -0.0592 -1.0670  3.3612
  117MOL0     H15443  10.580   0.127   6.299  0.3223  0.6959 -0.7546
  117MOL0     H15444  10.626   0.181   6.070 -1.7289  0.7010  1.9536
  118MOL0     O15445   9.647   6.160   6.869  0.1718  0.1949  0.0411
  118MOL0     C15446   9.665   6.037   6.878 -0.4314 -1.1699  0.2784
  118MOL0     O15447   9.724   5.962   6.776 -0.5180 -0.4758  0.6978
  118MOL0     C15448   9.752   6.022   6.655  0.0574  0.0723  0.5913
  118MOL0     C15449   9.891   6.027   6.618  0.7562  0.3056 -0.3484
  118MOL0     C15450   9.921   6.085   6.498  0.1630  0.0266  0.5155
  118MOL0     C15451   9.833   6.130   6.406  0.1456  0.3827  0.0375
  118MOL0     O15452   9.855   6.150   6.273  0.1205  0.9731  0.3625
  118MOL0     C15453   9.981   6.107   6.199 -0.5454 -0.6229 -0.8592
  118MOL0     C15454   9.996   5.965   6.144  0.0775 -0.2296  0.1828
  118MOL0     C15455  10.139   5.945   6.103 -0.1017  0.0982  0.4377
  118MOL0     C15456  10.135   5.789   6.056  0.6305 -1.0043  0.2413
  118MOL0     C15457  10.273   5.726   6.050 -0.0347  0.4249  0.2254
  118MOL0     C15458  10.368   5.823   5.963 -0.5787  0.1621 -0.9103
  118MOL0     C15459  10.501   5.777   5.921 -0.5578  1.3278 -1.1495
  118MOL0     C15460  10.579   5.712   6.040 -0.2161 -0.9201 -1.2223
  118MOL0     N15461  10.625   5.798   6.149 -0.1878  0.5358 -0.3782
  118MOL0     C15462  10.749   5.853   6.164 -0.2690  0.8777 -0.0860
  118MOL0     C15463  10.741   5.942   6.260 -0.8143  0.9137 -0.8137
  118MOL0     C15464  10.858   6.026   6.308 -0.4185 -0.4234 -0.2400
  118MOL0     C15465  10.943   5.951   6.407 -0.0681 -0.6073 -0.2802
  118MOL0     C15466  11.077   6.028   6.426 -0.0298 -0.1498 -1.0909
  118MOL0     C15467  11.146   5.947   6.540  0.6803 -0.5357 -0.0215
  118MOL0     O15468  11.092   5.952   6.675 -0.3289  0.5068  0.3376
  118MOL0     C15469  11.049   6.078   6.712  0.7804 -0.6693 -0.3953
  118MOL0     C15470  11.116   6.201   6.681 -0.5031 -0.1643  0.8678
  118MOL0     C15471  11.059   6.328   6.701  0.0579  0.9081 -0.0960
  118MOL0     C15472  10.933   6.343   6.768 -0.4743 -0.6722  0.3208
  118MOL0     C15473  10.882   6.472   6.790  0.0513 -0.4277  0.3523
  118MOL0     O15474  10.746   6.494   6.813 -1.1789  0.3123 -1.1224
  118MOL0     C15475  10.693   6.621   6.797 -0.1685 -0.5791 -0.0959
  118MOL0     C15476  10.728   6.732   6.881 -0.3286  0.0553  0.1062
  118MOL0     C15477  10.661   6.855   6.857 -0.3787  0.2688  0.0912
  118MOL0     C15478  10.568   6.870   6.752 -0.4383 -0.0925  1.0711
  118MOL0     O15479  10.507   6.997   6.745 -0.2719 -0.8605  0.7710
  118MOL0     C15480  10.472   7.047   6.877  0.5357  1.0155  0.5060
  118MOL0     C15481  10.331   7.119   6.883 -0.1937  0.4077 -0.2716
  118MOL0     C15482  10.335   7.254   6.815  0.1490  0.0573  0.4055
  118MOL0     C15483  10.196   7.334   6.842 -0.0551 -0.0132  0.9066
  118MOL0     C15484  10.211   7.478   6.788 -0.5556 -0.0904  0.3587
  118MOL0     C15485  10.078   7.570   6.800 -0.7970  0.3115 -0.3779
  118MOL0     C15486  10.102   7.721   6.788  0.4046 -0.5916  0.2627
  118MOL0     C15487  10.127   7.744   6.637  0.2915  0.0837 -1.2449
  118MOL0    Cl15488   9.970   7.732   6.548 -0.3266  0.5540 -0.1885
  118MOL0     C15489  10.547   6.772   6.658 -0.1366 -0.0855  0.2383
  118MOL0     C15490  10.610   6.650   6.685  0.2959 -0.5191 -0.0854
  118MOL0     O15491  10.973   6.555   6.799  0.2176 -0.1798 -0.2314
  118MOL0     C15492  10.864   6.223   6.800  0.2843  1.0196 -0.3427
  118MOL0     C15493  10.927   6.096   6.772 -0.3457  0.2965  0.0397
  118MOL0     N15494  10.616   5.938   6.323  0.2584 -0.2030  0.4366
  118MOL0     N15495  10.549   5.843   6.254 -0.6648  0.5657 -0.2410
  118MOL0     C15496   9.701   6.141   6.454 -0.2321  0.0270 -0.2482
  118MOL0     C15497   9.659   6.091   6.580 -0.3677 -0.0977  0.0187
  118MOL0     C15498   9.616   5.965   7.001 -0.3932 -0.0568  0.4858
  118MOL0     C15499   9.502   5.993   7.072 -0.1637 -0.2737 -0.3176
  118MOL0     C15500   9.454   5.914   7.180 -0.3278 -1.0556 -0.5625
  118MOL0     C15501   9.525   5.797   7.210  0.4047  0.2224 -0.2203
  118MOL0     O15502   9.479   5.724   7.319 -0.1480  0.4528 -0.3596
  118MOL0     C15503   9.540   5.617   7.389 -0.4052 -0.3943  0.1498
  118MOL0     C15504   9.537   5.654   7.542 -0.3393 -0.5376  0.0715
  118MOL0     C15505   9.390   5.673   7.587  0.6982  0.2966 -0.7227
  118MOL0     C15506   9.310   5.547   7.573  0.4082  0.2496  0.6989
  118MOL0     C15507   9.365   5.431   7.650 -0.5320 -0.3414  0.0817
  118MOL0     C15508   9.428   5.352   7.716  0.6346 -0.4019 -0.4628
  118MOL0     C15509   9.640   5.770   7.137 -0.6560  0.2700 -1.1773
  118MOL0     C15510   9.689   5.846   7.030 -0.0408  0.4211 -0.2509
  118MOL0     H15511   9.968   5.992   6.686  0.5875  1.3156  0.3996
  118MOL0     H15512  10.027   6.076   6.478  0.2072 -4.2258  1.5471
  118MOL0     H15513  10.066   6.125   6.265 -2.0239 -2.9003  1.8954
  118MOL0     H15514   9.984   6.176   6.114 -0.0447  2.7743  1.6871
  118MOL0     H15515   9.920   5.953   6.066 -0.1054 -0.5398  0.4098
  118MOL0     H15516   9.958   5.893   6.216 -1.1678 -1.2826 -1.4360
  118MOL0     H15517  10.204   5.946   6.191  2.8723 -1.2420 -1.5769
  118MOL0     H15518  10.179   6.014   6.029 -1.5911  0.2055 -0.3245
  118MOL0     H15519  10.075   5.724   6.120 -2.8365  3.0202  1.5976
  118MOL0     H15520  10.069   5.784   5.969  1.3161  3.2016 -0.7325
  118MOL0     H15521  10.269   5.627   6.002  1.9880  0.6671 -0.5446
  118MOL0     H15522  10.310   5.702   6.150  2.6968  0.2654 -0.7526
  118MOL0     H15523  10.388   5.913   6.022 -1.7042 -1.9524  3.0677
  118MOL0     H15524  10.330   5.845   5.863  1.2307 -1.4416 -2.0248
  118MOL0     H15525  10.484   5.701   5.845  0.5088 -1.5154  1.2624
  118MOL0     H15526  10.565   5.850   5.869  1.2362  0.8855  0.3278
  118MOL0     H15527  10.662   5.656   5.996  0.9958 -0.6586  0.6283
  118MOL0     H15528  10.533   5.638   6.105  1.2199 -0.2855  0.6018
  118MOL0     H15529  10.832   5.831   6.098 -0.8401  2.9721 -1.5599
  118MOL0     H15530  10.815   6.110   6.364  0.3787  1.2435 -1.9685
  118MOL0     H15531  10.918   6.070   6.228 -0.0655 -1.3006 -0.4681
  118MOL0     H15532  10.964   5.846   6.384 -2.2132 -1.3515  0.8489
  118MOL0     H15533  10.887   5.959   6.501 -2.3986  1.5022 -1.7226
  118MOL0     H15534  11.138   6.020   6.336 -0.1041 -3.0254 -0.9667
  118MOL0     H15535  11.064   6.136   6.435  1.3945  0.1096 -1.9135
  118MOL0     H15536  11.248   5.985   6.557  0.9539 -2.1749  2.4737
  118MOL0     H15537  11.146   5.845   6.500 -2.5408 -0.0149 -1.6490
  118MOL0     H15538  11.207   6.193   6.622 -0.9532  2.8821 -0.4276
  118MOL0     H15539  11.128   6.404   6.667  0.6839 -0.1251 -1.2532
  118MOL0     H15540  10.795   6.723   6.965  0.3497  1.5537 -0.2406
  118MOL0     H15541  10.706   6.930   6.921 -1.6604  0.8327  0.3717
  118MOL0     H15542  10.545   7.123   6.903  2.3635  0.9011 -3.5122
  118MOL0     H15543  10.480   6.974   6.959  1.8791  0.3259 -0.2119
  118MOL0     H15544  10.309   7.145   6.987 -1.8146  3.6828 -1.2817
  118MOL0     H15545  10.243   7.063   6.851  1.1808 -1.8868 -0.3186
  118MOL0     H15546  10.357   7.231   6.711  1.1702 -2.3502  1.0873
  118MOL0     H15547  10.421   7.307   6.857 -0.3935  0.6952  0.7334
  118MOL0     H15548  10.110   7.284   6.795  1.6036 -0.0725 -2.3643
  118MOL0     H15549  10.187   7.336   6.951  1.9128 -0.3742  1.0947
  118MOL0     H15550  10.233   7.470   6.682  2.0348 -0.3509  0.8655
  118MOL0     H15551  10.303   7.513   6.835 -0.1934 -0.8431  0.2176
  118MOL0     H15552  10.051   7.547   6.904  2.7881 -0.4588  0.5265
  118MOL0     H15553   9.998   7.538   6.733 -0.9511  1.7332 -0.8890
  118MOL0     H15554  10.021   7.785   6.826  1.1811 -0.6013  2.0512
  118MOL0     H15555  10.189   7.753   6.846  0.5715  1.6536 -1.0924
  118MOL0     H15556  10.208   7.685   6.594 -1.6399 -1.9093 -2.3746
  118MOL0     H15557  10.150   7.850   6.622 -1.4735  0.6650 -0.2325
  118MOL0     H15558  10.485   6.789   6.570  1.2950  1.9161 -0.4502
  118MOL0     H15559  10.599   6.569   6.614 -3.0073 -0.0275 -0.2940
  118MOL0     H15560  10.766   6.215   6.845 -1.3963  2.4386 -3.4813
  118MOL0     H15561  10.859   6.012   6.785 -0.8552  0.6616 -0.2089
  118MOL0     H15562   9.635   6.192   6.384  0.3948  0.6849 -0.3683
  118MOL0     H15563   9.555   6.116   6.601 -0.8278 -1.2812 -0.7337
  118MOL0     H15564   9.444   6.080   7.044  1.5929  1.2880  0.6844
  118MOL0     H15565   9.359   5.931   7.229  0.1761 -1.1763  0.4897
  118MOL0     H15566   9.642   5.602   7.352 -0.6098  0.0774 -0.6275
  118MOL0     H15567   9.499   5.523   7.353 -3.1658  1.4154 -1.8403
  118MOL0     H15568   9.591   5.581   7.604  2.5554  1.0006 -0.4724
  118MOL0     H15569   9.589   5.750   7.551 -1.0326 -0.2700  1.5012
  118MOL0     H15570   9.347   5.749   7.520  0.5518  0.2603 -0.6706
  118MOL0     H15571   9.378   5.694   7.694 -0.2772 -0.1490 -0.7273
  118MOL0     H15572   9.213   5.580   7.612  0.8529  4.9306 -1.4956
  118MOL0     H15573   9.309   5.526   7.466  0.3807  2.6384  0.1748
  118MOL0     H15574   9.493   5.294   7.779  0.1677  0.6328  1.0341
  118MOL0     H15575   9.697   5.679   7.154 -1.1644 -0.1226 -1.5638
  118MOL0     H15576   9.770   5.808   6.969  1.7628 -0.8120  2.7016
  119MOL0     O15577   4.274   4.112   2.291  0.4791 -0.0136  0.1952
  119MOL0     C15578   4.390   4.103   2.318 -0.3261 -0.1230  0.1830
  119MOL0     O15579   4.480   4.207   2.360 -1.1785 -0.0932  0.1461
  119MOL0     C15580   4.426   4.308   2.432 -0.8216 -0.2333 -0.9894
  119MOL0     C15581   4.346   4.403   2.359 -0.6859  0.0175  0.5324
  119MOL0     C15582   4.297   4.514   2.417 -0.5503  1.0187  0.4150
  119MOL0     C15583   4.330   4.544   2.549  0.4142 -0.5641 -0.1573
  119MOL0     O15584   4.277   4.656   2.615  0.6529  0.4111  0.1522
  119MOL0     C15585   4.139   4.685   2.584  0.2424  0.7170 -0.2305
  119MOL0     C15586   4.096   4.813   2.652  0.1383  0.7593 -0.6230
  119MOL0     C15587   4.160   4.934   2.581  0.1108 -0.2065  0.4499
  119MOL0     C15588   4.107   5.070   2.631 -0.0608  0.5668  0.5236
  119MOL0     C15589   4.190   5.187   2.599 -0.4513 -0.1631  0.7311
  119MOL0     C15590   4.189   5.214   2.450 -1.4208 -0.5132  0.4302
  119MOL0     C15591   4.241   5.347   2.398  0.0977  0.8774  0.1430
  119MOL0     C15592   4.385   5.379   2.446  0.0446 -0.2402  0.1668
  119MOL0     N15593   4.444   5.501   2.381 -0.7873  0.6008 -0.5825
  119MOL0     C15594   4.377   5.615   2.352 -0.5728  0.4238  0.3830
  119MOL0     C15595   4.473   5.680   2.277  0.3753  0.0240  0.3714
  119MOL0     C15596   4.437   5.796   2.186  0.0528 -0.6054  0.4044
  119MOL0     C15597   4.517   5.921   2.212  0.6511  0.5290  0.1928
  119MOL0     C15598   4.567   5.949   2.360  0.0305 -0.5561 -0.7118
  119MOL0     C15599   4.663   6.075   2.352 -0.1197  0.4849  0.1448
  119MOL0     O15600   4.593   6.175   2.283  0.5954 -0.3320 -0.5052
  119MOL0     C15601   4.504   6.245   2.358  0.4818 -0.3992  1.3404
  119MOL0     C15602   4.431   6.328   2.275 -1.2368  0.3224  0.4335
  119MOL0     C15603   4.325   6.402   2.322  0.2424 -0.4526  0.2136
  119MOL0     C15604   4.281   6.404   2.458 -0.6359  0.8469 -0.3889
  119MOL0     C15605   4.153   6.467   2.490 -0.0806  0.2113  0.2786
  119MOL0     O15606   4.094   6.420   2.607 -0.7071  0.0890 -0.2464
  119MOL0     C15607   3.991   6.483   2.667  1.2730 -0.9273  0.2513
  119MOL0     C15608   4.009   6.592   2.754 -0.6697 -0.0598 -0.2685
  119MOL0     C15609   3.917   6.645   2.835  1.2300  0.2506  0.4666
  119MOL0     C15610   3.783   6.601   2.819 -0.0541  0.4310  0.3454
  119MOL0     O15611   3.691   6.667   2.885  0.5333  0.1274 -0.6249
  119MOL0     C15612   3.588   6.591   2.953 -0.5064 -0.3061  0.5155
  119MOL0     C15613   3.441   6.634   2.917  0.2732  0.4212 -0.3259
  119MOL0     C15614   3.334   6.540   2.973 -0.0149  0.1318  0.2488
  119MOL0     C15615   3.339   6.517   3.124  0.6127  0.0883 -0.1680
  119MOL0     C15616   3.237   6.413   3.176 -0.4923  0.8211  0.0073
  119MOL0     C15617   3.203   6.433   3.327 -0.6770  0.2554 -1.0233
  119MOL0     C15618   3.330   6.447   3.407  0.2122  0.1546  0.2119
  119MOL0     C15619   3.284   6.461   3.550 -0.0471 -0.0191 -0.5902
  119MOL0    Cl15620   3.429   6.474   3.666 -0.3604 -0.2810  0.0381
  119MOL0     C15621   3.749   6.502   2.728  0.1948  0.1176  0.4836
  119MOL0     C15622   3.856   6.441   2.656 -0.3009 -0.0180  0.0540
  119MOL0     O15623   4.114   6.568   2.428 -0.9215  0.9046  0.2751
  119MOL0     C15624   4.351   6.310   2.539  0.3698  0.8543 -0.5792
  119MOL0     C15625   4.460   6.232   2.489  0.4404  0.6432 -0.7720
  119MOL0     N15626   4.585   5.602   2.265 -0.0167 -0.1210  0.2354
  119MOL0     N15627   4.565   5.489   2.320  0.2317 -0.5549 -0.5031
  119MOL0     C15628   4.397   4.453   2.626 -0.2463  0.0237  0.6474
  119MOL0     C15629   4.448   4.327   2.572  0.4281  0.0711 -0.0705
  119MOL0     C15630   4.464   3.977   2.266  0.0403  1.5811 -0.4693
  119MOL0     C15631   4.397   3.868   2.222  0.2959 -0.1401  0.6332
  119MOL0     C15632   4.467   3.767   2.165 -0.2821  0.6582 -0.9512
  119MOL0     C15633   4.609   3.764   2.152 -0.0009 -0.7683  0.3393
  119MOL0     O15634   4.660   3.663   2.084 -0.7572  0.5382 -0.6624
  119MOL0     C15635   4.798   3.635   2.105  0.0977  0.2064  0.5304
  119MOL0     C15636   4.840   3.495   2.050  0.0187 -0.3306 -0.3272
  119MOL0     C15637   4.966   3.430   2.113  0.1598 -0.1521  0.2852
  119MOL0     C15638   4.930   3.287   2.141 -0.1865  1.0460  0.2643
  119MOL0     C15639   5.058   3.219   2.186  0.3583 -0.1192 -0.4176
  119MOL0     C15640   5.151   3.153   2.233  0.0037 -0.7305  0.1580
  119MOL0     C15641   4.678   3.878   2.196 -0.8700  0.3005 -0.2641
  119MOL0     C15642   4.604   3.985   2.251  0.7784 -0.1507  0.0568
  119MOL0     H15643   4.333   4.368   2.257  0.1570 -4.3230  1.7152
  119MOL0     H15644   4.241   4.584   2.357 -1.3530  1.1261  1.2690
  119MOL0     H15645   4.080   4.606   2.631 -0.8869  1.8965  0.3697
  119MOL0     H15646   4.114   4.684   2.477 -0.5374  2.3031 -0.0843
  119MOL0     H15647   4.149   4.813   2.748  1.3965  2.6271 -1.2613
  119MOL0     H15648   3.988   4.806   2.663  0.2653  0.1211  0.3955
  119MOL0     H15649   4.138   4.924   2.474  1.9190  0.4768 -0.0196
  119MOL0     H15650   4.267   4.939   2.602  0.5702 -0.9116 -1.4720
  119MOL0     H15651   4.007   5.073   2.588  1.0026 -4.5077 -3.2074
  119MOL0     H15652   4.085   5.060   2.738  0.5832 -0.8072  0.5542
  119MOL0     H15653   4.296   5.175   2.622  0.5773  2.2911 -2.1336
  119MOL0     H15654   4.142   5.276   2.641  1.1160  1.7234 -1.2211
  119MOL0     H15655   4.085   5.215   2.415 -1.5894  0.7055  0.9196
  119MOL0     H15656   4.234   5.134   2.391 -1.2326  0.8537 -1.3753
  119MOL0     H15657   4.239   5.341   2.289  2.5269 -2.2575  0.1197
  119MOL0     H15658   4.169   5.424   2.428  0.4517  0.4712  2.1655
  119MOL0     H15659   4.454   5.295   2.435 -0.2257 -0.4768  0.2875
  119MOL0     H15660   4.376   5.401   2.553  0.3512 -2.3118  0.6659
  119MOL0     H15661   4.276   5.647   2.377 -1.4029  0.1532 -2.3085
  119MOL0     H15662   4.332   5.820   2.206 -1.0587 -3.3351 -1.6415
  119MOL0     H15663   4.422   5.766   2.082 -1.6560 -1.8842  0.9733
  119MOL0     H15664   4.457   6.008   2.183  2.9803  3.0758  2.4317
  119MOL0     H15665   4.606   5.918   2.149 -1.1054 -0.2617 -2.4114
  119MOL0     H15666   4.482   5.952   2.430  0.0487 -1.7993 -0.6279
  119MOL0     H15667   4.623   5.862   2.393 -3.4210 -3.1707 -1.1686
  119MOL0     H15668   4.755   6.059   2.294  0.6292  0.4717  1.3106
  119MOL0     H15669   4.698   6.118   2.446  4.6764  0.1647 -1.2022
  119MOL0     H15670   4.471   6.350   2.176  3.0792 -0.4755  1.8010
  119MOL0     H15671   4.279   6.475   2.256  0.1224 -1.4504 -0.8170
  119MOL0     H15672   4.112   6.627   2.758  0.0620 -2.1903  1.8340
  119MOL0     H15673   3.921   6.738   2.892  3.4731  3.5437 -4.3402
  119MOL0     H15674   3.603   6.605   3.060  0.1301  1.3742  0.2306
  119MOL0     H15675   3.595   6.483   2.935 -1.8138  0.3480 -7.2596
  119MOL0     H15676   3.431   6.632   2.808  0.8421 -0.2442 -0.3730
  119MOL0     H15677   3.420   6.725   2.974 -1.0914  0.4446 -0.8141
  119MOL0     H15678   3.345   6.440   2.931  0.8155  0.8661 -1.3541
  119MOL0     H15679   3.231   6.567   2.946 -0.0641 -0.2910  0.0025
  119MOL0     H15680   3.437   6.471   3.141  0.3148 -0.6910 -0.4780
  119MOL0     H15681   3.333   6.606   3.187  3.8710 -1.4310  2.6059
  119MOL0     H15682   3.270   6.310   3.157 -0.7448  0.4117  1.6531
  119MOL0     H15683   3.150   6.426   3.111 -1.9860 -0.2930  1.6742
  119MOL0     H15684   3.151   6.343   3.361 -0.5137  0.9566  1.2536
  119MOL0     H15685   3.142   6.521   3.346 -3.3190 -1.7857  0.6003
  119MOL0     H15686   3.387   6.356   3.388 -2.7786 -2.8652  4.0917
  119MOL0     H15687   3.381   6.541   3.386  2.3264 -1.3693 -2.0741
  119MOL0     H15688   3.239   6.363   3.570  1.7710 -0.8073 -0.0993
  119MOL0     H15689   3.217   6.547   3.557 -1.5765 -1.0742 -1.6015
  119MOL0     H15690   3.650   6.468   2.700 -0.6773  0.4433  2.8998
  119MOL0     H15691   3.834   6.362   2.584  2.6631 -1.8411  0.9658
  119MOL0     H15692   4.330   6.296   2.645 -0.8975  1.5403 -0.7151
  119MOL0     H15693   4.509   6.164   2.558 -0.7111 -0.1980 -0.7599
  119MOL0     H15694   4.402   4.489   2.728 -0.1693  1.1221  0.2662
  119MOL0     H15695   4.480   4.247   2.639 -3.0628 -0.6182  0.9830
  119MOL0     H15696   4.289   3.870   2.209 -0.0311 -0.5790  2.8537
  119MOL0     H15697   4.410   3.680   2.133 -1.6113  0.7315  1.0447
  119MOL0     H15698   4.804   3.630   2.214 -0.5385 -0.8508  0.5290
  119MOL0     H15699   4.865   3.714   2.071  0.6153 -0.6863 -0.5951
  119MOL0     H15700   4.757   3.429   2.075 -0.2244 -0.7008 -1.9454
  119MOL0     H15701   4.852   3.506   1.941  1.0412 -5.3210 -0.9900
  119MOL0     H15702   4.988   3.480   2.208 -0.1374 -0.2097  0.3855
  119MOL0     H15703   5.044   3.453   2.040 -1.1921  0.3379 -1.0834
  119MOL0     H15704   4.857   3.278   2.221  3.4291  2.9000  4.1581
  119MOL0     H15705   4.900   3.232   2.051  0.4480 -4.1885  2.8651
  119MOL0     H15706   5.223   3.080   2.266  0.1243 -0.1864  1.1295
  119MOL0     H15707   4.785   3.888   2.180 -1.0708  0.5630 -1.5879
  119MOL0     H15708   4.668   4.068   2.279 -0.6477  1.2484 -0.7065
  120MOL0     O15709   5.143   5.773  10.393  0.4529  0.7548 -0.6205
  120MOL0     C15710   5.249   5.832  10.418  0.0558  0.7488  0.5994
  120MOL0     O15711   5.304   5.860  10.541  0.4759 -0.0136 -0.1861
  120MOL0     C15712   5.256   5.819  10.666 -0.5442  0.1347  0.6471
  120MOL0     C15713   5.129   5.767  10.702 -0.1636  0.2090  0.2183
  120MOL0     C15714   5.093   5.728  10.829 -0.6725  0.5097 -0.9738
  120MOL0     C15715   5.181   5.742  10.932 -0.5126 -0.6066 -0.6208
  120MOL0     O15716   5.137   5.719  11.061  0.3218  1.1658 -0.3614
  120MOL0     C15717   5.114   5.580  11.102  0.2177  0.8816  0.1491
  120MOL0     C15718   5.065   5.575  11.245  0.4634  0.4221 -0.3877
  120MOL0     C15719   4.925   5.630  11.260 -0.2614  0.3984  0.9979
  120MOL0     C15720   4.891   5.644  11.410  0.0485  0.6136 -0.2009
  120MOL0     C15721   4.748   5.691  11.424  0.2840  0.1967  0.5608
  120MOL0     C15722   4.736   5.837  11.384  0.5220  0.0719  0.8730
  120MOL0     C15723   4.591   5.881  11.415  0.8747  0.8369  0.2916
  120MOL0     C15724   4.566   6.024  11.372 -0.0321 -0.0587 -0.5153
  120MOL0     N15725   4.455   6.084  11.436  0.7124  0.0263  0.6196
  120MOL0     C15726   4.452   6.164  11.546  0.0161  1.5161 -1.4015
  120MOL0     C15727   4.327   6.220  11.551 -0.4713  0.8978  0.2476
  120MOL0     C15728   4.284   6.330  11.650  0.5087 -0.2718  0.5967
  120MOL0     C15729   4.134   6.335  11.649 -0.0209  0.5336  0.3574
  120MOL0     C15730   4.069   6.451  11.727  0.5797 -0.3699 -0.7699
  120MOL0     C15731   3.924   6.421  11.760  0.3051  0.6320  0.0381
  120MOL0     O15732   3.855   6.444  11.635  0.3070 -0.4194 -0.2744
  120MOL0     C15733   3.782   6.562  11.612  0.6058 -0.1029 -0.9551
  120MOL0     C15734   3.824   6.683  11.669  0.7566  0.9487  0.7735
  120MOL0     C15735   3.744   6.797  11.662 -0.8735  0.6955  0.3510
  120MOL0     C15736   3.621   6.785  11.611 -0.7713  0.3994  0.2555
  120MOL0     C15737   3.531   6.907  11.606  0.7508  0.2989 -0.0010
  120MOL0     O15738   3.424   6.900  11.523 -0.2764 -0.4417 -0.5721
  120MOL0     C15739   3.330   7.001  11.524 -0.0138 -0.4654  0.6401
  120MOL0     C15740   3.284   7.051  11.398 -0.3837 -0.5311  0.6021
  120MOL0     C15741   3.214   7.164  11.382  0.1332  0.8505  0.2531
  120MOL0     C15742   3.176   7.230  11.498  0.3083  0.0163 -0.5046
  120MOL0     O15743   3.108   7.344  11.490  0.1111 -0.4124 -0.2649
  120MOL0     C15744   2.990   7.345  11.403  0.4061  0.4189  0.5303
  120MOL0     C15745   2.950   7.483  11.380  0.4946 -0.4678 -0.1637
  120MOL0     C15746   2.801   7.483  11.348  0.1905 -0.7274  0.0790
  120MOL0     C15747   2.753   7.635  11.355  0.0932  0.6792  0.3611
  120MOL0     C15748   2.635   7.674  11.260  0.2484  0.7511 -0.5564
  120MOL0     C15749   2.499   7.616  11.306  1.1946 -0.3619  0.3999
  120MOL0     C15750   2.390   7.676  11.209 -0.2049 -0.3305  0.1276
  120MOL0     C15751   2.256   7.627  11.257 -0.6517  0.1617 -0.4927
  120MOL0    Cl15752   2.125   7.619  11.139  0.2781  0.4239  0.5953
  120MOL0     C15753   3.216   7.197  11.629 -0.5999 -1.0035 -0.1143
  120MOL0     C15754   3.290   7.081  11.634  0.3670  0.1865 -0.2307
  120MOL0     O15755   3.567   7.007  11.665  0.3149 -0.0882 -0.6531
  120MOL0     C15756   3.569   6.662  11.560  0.0144 -0.0668  0.4540
  120MOL0     C15757   3.649   6.548  11.571  0.7849  0.0198  0.3002
  120MOL0     N15758   4.261   6.166  11.441  0.1937 -0.1404  0.3727
  120MOL0     N15759   4.331   6.085  11.376 -0.4821 -0.3680 -0.4348
  120MOL0     C15760   5.313   5.778  10.898 -0.1572  0.4612  0.0106
  120MOL0     C15761   5.352   5.823  10.766  0.4855 -0.0751  0.7665
  120MOL0     C15762   5.347   5.841  10.304  0.0248  1.1205  0.7822
  120MOL0     C15763   5.306   5.823  10.164 -0.1103  0.2858 -0.3386
  120MOL0     C15764   5.404   5.820  10.065 -0.2731  0.1794  0.2666
  120MOL0     C15765   5.542   5.845  10.095  0.8793 -0.0287 -0.0820
  120MOL0     O15766   5.632   5.842   9.988  0.3267 -0.5249 -0.2803
  120MOL0     C15767   5.593   5.827   9.852  0.6691  0.0379 -0.2456
  120MOL0     C15768   5.709   5.877   9.755 -0.4890  0.2914 -0.2096
  120MOL0     C15769   5.746   6.018   9.788  0.2893 -0.1868  0.6814
  120MOL0     C15770   5.891   6.042   9.785  0.5160  0.8165 -0.1913
  120MOL0     C15771   5.941   6.049   9.650 -0.2322 -0.6415  0.5183
  120MOL0     C15772   5.983   6.070   9.534 -0.1994  0.0273  0.4232
  120MOL0     C15773   5.578   5.856  10.227 -1.2629  0.1419  0.2460
  120MOL0     C15774   5.483   5.852  10.327 -1.2113 -0.3337 -0.2825
  120MOL0     H15775   5.051   5.755  10.628 -1.1801 -1.5480  1.4776
  120MOL0     H15776   4.988   5.711  10.850 -0.7613  1.8360 -0.2595
  120MOL0     H15777   5.208   5.524  11.097  0.1027  0.6912  0.1122
  120MOL0     H15778   5.033   5.540  11.041 -0.5579  2.8454 -0.2014
  120MOL0     H15779   5.135   5.618  11.318  1.1556 -0.1327 -0.7111
  120MOL0     H15780   5.063   5.468  11.270 -2.4085  0.8271  1.5195
  120MOL0     H15781   4.867   5.557  11.203  0.3116  0.9297 -0.2935
  120MOL0     H15782   4.928   5.726  11.207  2.4670  0.3447  0.9026
  120MOL0     H15783   4.908   5.546  11.456  2.7817  0.3037 -1.6400
  120MOL0     H15784   4.959   5.703  11.473  1.3907 -2.6545  1.6369
  120MOL0     H15785   4.708   5.676  11.525 -1.0612  2.8417  0.5193
  120MOL0     H15786   4.670   5.640  11.366  0.9255  2.3893 -2.4573
  120MOL0     H15787   4.759   5.860  11.280  1.2240  1.9110  1.3991
  120MOL0     H15788   4.805   5.895  11.446 -0.4710  1.7298  0.4682
  120MOL0     H15789   4.504   5.832  11.371  0.7917  0.9326  0.3478
  120MOL0     H15790   4.582   5.875  11.524 -0.4573  1.1002  0.2049
  120MOL0     H15791   4.553   6.034  11.264 -4.5562  2.6210 -0.0011
  120MOL0     H15792   4.654   6.086  11.393 -0.0524 -0.4262  0.7218
  120MOL0     H15793   4.532   6.181  11.617 -1.5696 -0.9791  1.1660
  120MOL0     H15794   4.320   6.426  11.612 -2.5734 -0.0189 -2.0772
  120MOL0     H15795   4.327   6.293  11.744 -0.8596 -1.9415  0.6248
  120MOL0     H15796   4.097   6.237  11.679  2.2851 -0.0200  1.6189
  120MOL0     H15797   4.113   6.349  11.542  1.4953  1.1448  0.1152
  120MOL0     H15798   4.129   6.472  11.816 -1.8100 -2.4443  1.5161
  120MOL0     H15799   4.073   6.543  11.669  1.2300 -1.2040 -2.1033
  120MOL0     H15800   3.895   6.486  11.843  1.5371 -0.5683  1.4604
  120MOL0     H15801   3.921   6.318  11.798  2.0651  1.0800  1.5241
  120MOL0     H15802   3.923   6.688  11.715  1.6827  0.5861 -1.0919
  120MOL0     H15803   3.781   6.891  11.701 -0.6340  0.1888  1.3836
  120MOL0     H15804   3.328   7.011  11.307 -3.6163  0.0737 -1.4082
  120MOL0     H15805   3.193   7.188  11.279 -1.6843 -3.9012 -0.7723
  120MOL0     H15806   2.911   7.292  11.458 -0.3120  1.2968  0.3762
  120MOL0     H15807   2.994   7.289  11.309  3.8451 -0.4663  1.0691
  120MOL0     H15808   3.005   7.522  11.293  1.0850  1.4833  1.0188
  120MOL0     H15809   2.972   7.550  11.463  1.3728  0.7195 -1.3004
  120MOL0     H15810   2.756   7.429  11.431 -0.2043  1.4604  1.3642
  120MOL0     H15811   2.782   7.430  11.254  0.0050 -0.4380 -0.0510
  120MOL0     H15812   2.731   7.662  11.459 -0.0129 -1.0378  0.8165
  120MOL0     H15813   2.838   7.696  11.324  1.4424 -2.0205 -1.6794
  120MOL0     H15814   2.650   7.626  11.163 -1.6722 -0.1019 -0.4688
  120MOL0     H15815   2.624   7.782  11.242 -4.9110  0.7620  1.0457
  120MOL0     H15816   2.479   7.642  11.410 -1.3066  0.6175 -0.2447
  120MOL0     H15817   2.500   7.507  11.315  1.7263 -0.1565  5.6474
  120MOL0     H15818   2.386   7.785  11.201 -1.9890 -0.4680 -6.0728
  120MOL0     H15819   2.422   7.626  11.116  0.6758 -0.8369  0.6901
  120MOL0     H15820   2.218   7.686  11.340  1.7744  2.9726 -1.2159
  120MOL0     H15821   2.267   7.521  11.282  1.9780  0.1444 -1.4201
  120MOL0     H15822   3.199   7.242  11.726 -0.2228 -2.4063  0.6294
  120MOL0     H15823   3.320   7.052  11.734 -0.6618 -0.5792 -0.1353
  120MOL0     H15824   3.467   6.645  11.526  0.6559  0.4674 -1.8926
  120MOL0     H15825   3.616   6.447  11.548  0.9900 -0.0107  0.1330
  120MOL0     H15826   5.386   5.781  10.979 -0.3969  1.6356  0.1920
  120MOL0     H15827   5.451   5.862  10.744  0.8027 -1.3720 -0.1753
  120MOL0     H15828   5.199   5.813  10.146 -0.1143 -1.6523  0.4810
  120MOL0     H15829   5.359   5.794   9.970  0.7647  2.2865 -0.8688
  120MOL0     H15830   5.511   5.892   9.820  0.4047 -1.0783 -1.9463
  120MOL0     H15831   5.575   5.721   9.832 -1.4616  0.4423 -0.6853
  120MOL0     H15832   5.798   5.814   9.764 -0.2366  0.4746 -1.2412
  120MOL0     H15833   5.679   5.853   9.653  0.7649 -2.5212 -0.0067
  120MOL0     H15834   5.724   6.032   9.895  1.5565 -1.2972  1.1150
  120MOL0     H15835   5.691   6.087   9.724  1.2861  0.2349  0.2619
  120MOL0     H15836   5.919   6.131   9.842  1.7842 -0.2016  0.8156
  120MOL0     H15837   5.942   5.957   9.830 -1.7030 -1.3107 -1.4542
  120MOL0     H15838   6.000   6.118   9.440 -0.7739 -1.1977 -0.3335
  120MOL0     H15839   5.679   5.883  10.257 -1.2027  0.1515  0.0411
  120MOL0     H15840   5.504   5.885  10.428 -2.3824 -0.5951  0.0586
  121MOL0     O15841   7.244   0.601  11.146 -0.1858  0.2486 -0.7957
  121MOL0     C15842   7.364   0.631  11.168  0.4152 -0.5317 -0.1381
  121MOL0     O15843   7.421   0.664  11.297  0.1730 -0.7072  0.0637
  121MOL0     C15844   7.365   0.630  11.424 -0.0969 -0.3155  0.3713
  121MOL0     C15845   7.253   0.556  11.437  0.2755 -0.0286 -0.1342
  121MOL0     C15846   7.205   0.525  11.564  0.2234  0.4402  0.1219
  121MOL0     C15847   7.282   0.556  11.686 -0.0074  0.7593  0.0311
  121MOL0     O15848   7.230   0.547  11.812 -1.1155 -0.5161  0.4644
  121MOL0     C15849   7.103   0.488  11.838  0.1220  0.0240 -1.0897
  121MOL0     C15850   7.065   0.468  11.987 -0.6407  0.1253  0.3146
  121MOL0     C15851   7.052   0.594  12.079  0.7449 -0.0547 -0.0309
  121MOL0     C15852   7.190   0.646  12.122  0.1445 -0.5430 -0.0535
  121MOL0     C15853   7.181   0.773  12.208  0.0222  0.2473  0.1125
  121MOL0     C15854   7.120   0.740  12.340 -0.1902  0.7086 -0.5974
  121MOL0     C15855   7.099   0.875  12.409  0.0514  0.2191 -0.4780
  121MOL0     C15856   7.021   0.866  12.535 -0.2745 -0.7014  0.1346
  121MOL0     N15857   6.984   1.002  12.577  0.6305 -0.7168  0.1597
  121MOL0     C15858   7.059   1.121  12.591  0.2236 -0.5758 -0.4404
  121MOL0     C15859   6.972   1.222  12.566  0.4722  0.7191 -0.5657
  121MOL0     C15860   7.003   1.368  12.559 -0.0926 -0.1606  0.6670
  121MOL0     C15861   6.924   1.442  12.661 -0.2002  0.0031 -0.5999
  121MOL0     C15862   6.811   1.531  12.602 -0.1846  0.2191 -0.6935
  121MOL0     C15863   6.729   1.573  12.724 -0.2886  0.1480 -0.1012
  121MOL0     O15864   6.807   1.642  12.820  0.7019 -0.7466 -0.0818
  121MOL0     C15865   6.737   1.675  12.936  0.0316 -0.7168 -1.1796
  121MOL0     C15866   6.607   1.644  12.978  0.4105 -0.1909 -0.4364
  121MOL0     C15867   6.561   1.682  13.103  0.3491  0.3014 -0.6627
  121MOL0     C15868   6.646   1.758  13.185 -0.1097  0.1547  0.6116
  121MOL0     C15869   6.598   1.814  13.319  0.8507 -0.4609 -0.6262
  121MOL0     O15870   6.661   1.915  13.382 -0.3994 -0.0495  0.5637
  121MOL0     C15871   6.617   1.972  13.503 -0.0856 -0.3806 -0.4371
  121MOL0     C15872   6.619   2.112  13.516  0.0924 -0.0017 -0.2438
  121MOL0     C15873   6.591   2.176  13.646 -0.6232 -1.0060  0.3655
  121MOL0     C15874   6.567   2.088  13.757  0.3635 -0.0563  0.5684
  121MOL0     O15875   6.525   2.137  13.883  0.6268 -0.3317  0.0017
  121MOL0     C15876   6.427   2.239  13.886 -0.5413  1.4128 -0.0619
  121MOL0     C15877   6.349   2.216  14.017 -1.0567  0.2168  0.0372
  121MOL0     C15878   6.257   2.332  14.049  0.5646 -1.0626 -0.7115
  121MOL0     C15879   6.170   2.270  14.172  0.0123  0.2973  0.9538
  121MOL0     C15880   6.025   2.328  14.192 -0.8228 -0.5692  0.5832
  121MOL0     C15881   6.000   2.306  14.344 -0.0308  0.5443  0.0815
  121MOL0     C15882   5.845   2.331  14.374 -0.2843  0.6153 -0.2328
  121MOL0     C15883   5.827   2.449  14.470  0.6750 -0.1743  0.6209
  121MOL0    Cl15884   5.899   2.407  14.633  0.0508  0.1140 -0.0547
  121MOL0     C15885   6.560   1.951  13.740 -0.4275 -0.3593  0.1750
  121MOL0     C15886   6.596   1.896  13.616  0.4569  0.1266  0.0061
  121MOL0     O15887   6.495   1.765  13.363 -0.0988  0.7582 -0.0368
  121MOL0     C15888   6.777   1.781  13.147 -0.4673 -0.6025 -0.8262
  121MOL0     C15889   6.814   1.738  13.026 -0.2617  0.1023  0.1601
  121MOL0     N15890   6.854   1.175  12.541  0.0930  0.6110  0.1111
  121MOL0     N15891   6.858   1.047  12.545 -0.3831 -0.5260  0.1851
  121MOL0     C15892   7.401   0.633  11.670  0.4956  1.3482 -0.3747
  121MOL0     C15893   7.437   0.667  11.533 -1.2787  1.1469  0.8396
  121MOL0     C15894   7.455   0.670  11.050  0.6559  0.3548  0.1715
  121MOL0     C15895   7.392   0.675  10.923 -0.4823 -0.3210  0.9432
  121MOL0     C15896   7.467   0.709  10.818 -0.8479  0.0344  0.1268
  121MOL0     C15897   7.599   0.752  10.828  0.3493 -0.2851  0.5114
  121MOL0     O15898   7.655   0.769  10.707 -0.0476 -0.1377  0.2897
  121MOL0     C15899   7.798   0.743  10.706 -0.6875  0.0752  0.4524
  121MOL0     C15900   7.811   0.703  10.555  0.3119 -0.4054  0.3341
  121MOL0     C15901   7.942   0.645  10.511  0.0895 -0.2957 -0.1427
  121MOL0     C15902   8.050   0.746  10.467 -0.5388  0.0631  0.7052
  121MOL0     C15903   8.126   0.793  10.584  0.0810 -0.4281  0.9756
  121MOL0     C15904   8.178   0.846  10.682  0.4767 -0.0528 -0.7073
  121MOL0     C15905   7.659   0.747  10.956 -0.2969  0.6118 -0.2495
  121MOL0     C15906   7.587   0.695  11.061  0.2135 -0.3910  0.5549
  121MOL0     H15907   7.190   0.523  11.355 -2.7815  0.7422  1.7540
  121MOL0     H15908   7.106   0.481  11.572  1.9955 -4.1270  0.0172
  121MOL0     H15909   7.090   0.392  11.787 -0.9867  0.5589 -1.8686
  121MOL0     H15910   7.032   0.561  11.799  0.0220  1.3104  1.3398
  121MOL0     H15911   7.138   0.401  12.035  2.3559  2.9797  0.1361
  121MOL0     H15912   6.965   0.426  11.995  0.5802 -2.6917  3.5981
  121MOL0     H15913   7.005   0.564  12.173 -0.5223 -0.1802 -0.6826
  121MOL0     H15914   6.981   0.667  12.039 -0.2654 -1.0057 -0.0178
  121MOL0     H15915   7.246   0.569  12.176 -1.4984 -3.3201 -2.0176
  121MOL0     H15916   7.249   0.665  12.031  1.1655 -3.1355 -0.0100
  121MOL0     H15917   7.129   0.856  12.161  1.6007  1.2816  0.1137
  121MOL0     H15918   7.284   0.808  12.224  1.6643 -3.9155 -0.0882
  121MOL0     H15919   7.188   0.672  12.392 -2.1086 -0.1612  0.8943
  121MOL0     H15920   7.019   0.697  12.344 -1.5326  3.7217  1.0249
  121MOL0     H15921   7.197   0.920  12.430 -0.2554 -0.4493  2.8040
  121MOL0     H15922   7.055   0.946  12.338 -0.9072 -0.2997 -0.4100
  121MOL0     H15923   7.085   0.813  12.606 -2.1417 -2.3688  0.6802
  121MOL0     H15924   6.928   0.808  12.529  0.0315 -1.5781  2.7035
  121MOL0     H15925   7.166   1.119  12.607 -0.1133 -0.2545  2.2083
  121MOL0     H15926   6.996   1.411  12.459 -0.9520 -0.7610  0.4568
  121MOL0     H15927   7.111   1.381  12.575  0.1503 -0.7933 -0.3638
  121MOL0     H15928   6.999   1.511  12.701 -0.6322  0.5850 -0.7628
  121MOL0     H15929   6.894   1.379  12.745  1.5070  0.1182  0.1254
  121MOL0     H15930   6.843   1.613  12.538  0.7191  0.1502 -0.3514
  121MOL0     H15931   6.754   1.465  12.536  1.8561 -2.1050 -0.3002
  121MOL0     H15932   6.690   1.485  12.776  2.0292  0.2348  1.9397
  121MOL0     H15933   6.645   1.634  12.688 -0.2205  1.9856  2.6148
  121MOL0     H15934   6.550   1.584  12.907  1.2026  1.1713 -2.3338
  121MOL0     H15935   6.460   1.658  13.133  0.6279 -1.9800 -1.4025
  121MOL0     H15936   6.642   2.165  13.424  1.4179 -0.9961 -0.5134
  121MOL0     H15937   6.587   2.284  13.658 -0.5887 -0.9003 -0.5087
  121MOL0     H15938   6.360   2.232  13.800 -3.2535  3.9882  1.6629
  121MOL0     H15939   6.477   2.336  13.888  3.0666 -0.2260 -1.5623
  121MOL0     H15940   6.433   2.211  14.087  1.2641  2.3362 -2.3613
  121MOL0     H15941   6.304   2.120  13.993  0.8796 -0.2623 -1.9876
  121MOL0     H15942   6.183   2.361  13.974  0.2686 -1.0024 -0.3988
  121MOL0     H15943   6.310   2.420  14.084 -0.6173 -0.7845  0.4520
  121MOL0     H15944   6.136   2.168  14.154 -2.8797  1.3056 -0.0331
  121MOL0     H15945   6.222   2.265  14.267 -2.8243  0.5219  2.6281
  121MOL0     H15946   5.958   2.267  14.131  1.3089 -5.0141  2.2512
  121MOL0     H15947   6.014   2.434  14.168 -2.7954 -1.0264 -0.8155
  121MOL0     H15948   6.061   2.367  14.412 -0.7720  0.4121  0.8887
  121MOL0     H15949   6.025   2.201  14.362 -2.3894  0.2983  2.5016
  121MOL0     H15950   5.782   2.347  14.287 -0.1039  0.3218 -0.4178
  121MOL0     H15951   5.808   2.246  14.431 -2.7328  1.2689 -0.7400
  121MOL0     H15952   5.722   2.480  14.465  1.0701  1.1198 -2.8029
  121MOL0     H15953   5.896   2.523  14.427  0.7190 -0.2056  0.6382
  121MOL0     H15954   6.526   1.887  13.820 -0.0178 -1.6384 -0.6368
  121MOL0     H15955   6.596   1.787  13.612 -0.4519  0.1428 -0.9406
  121MOL0     H15956   6.837   1.841  13.214 -2.3233 -1.3856  1.7040
  121MOL0     H15957   6.919   1.755  13.002 -0.2025  1.0977  1.0219
  121MOL0     H15958   7.460   0.655  11.758  2.6121 -0.7178 -1.1674
  121MOL0     H15959   7.537   0.708  11.521 -0.0371 -2.0064 -0.7111
  121MOL0     H15960   7.286   0.654  10.911 -0.6008 -1.3345  3.3207
  121MOL0     H15961   7.428   0.704  10.716  1.5681 -0.0472 -0.8661
  121MOL0     H15962   7.830   0.662  10.773  0.1166  0.6397  0.7608
  121MOL0     H15963   7.860   0.830  10.726  0.2826 -0.7217  0.9832
  121MOL0     H15964   7.734   0.629  10.534  2.8566 -2.3746 -3.1145
  121MOL0     H15965   7.799   0.793  10.494  0.3506 -0.5747  0.0741
  121MOL0     H15966   7.923   0.587  10.420  1.5390 -1.7242  0.4133
  121MOL0     H15967   7.982   0.574  10.583  0.8249  1.2306  0.9964
  121MOL0     H15968   8.127   0.696  10.407  0.3175  1.9918  0.1342
  121MOL0     H15969   8.015   0.832  10.410  0.4416 -0.9692 -1.5867
  121MOL0     H15970   8.225   0.884  10.771  0.2829  0.4194 -0.7997
  121MOL0     H15971   7.765   0.763  10.971  0.2457 -0.7674 -2.1823
  121MOL0     H15972   7.631   0.676  11.159  0.3147 -0.3640  0.5147
  122MOL0     O15973  10.803   2.227   0.674  0.5676  0.6274  0.1216
  122MOL0     C15974  10.824   2.229   0.553 -0.0559  0.3991  0.7310
  122MOL0     O15975  10.762   2.301   0.466  0.5441  0.8181  0.6850
  122MOL0     C15976  10.700   2.416   0.509 -0.5803  0.1950 -0.1284
  122MOL0     C15977  10.595   2.409   0.600 -0.6513  1.0160 -0.1919
  122MOL0     C15978  10.525   2.520   0.642  0.6411  0.1808  0.3893
  122MOL0     C15979  10.564   2.646   0.591 -0.4139 -0.0496  0.5604
  122MOL0     O15980  10.512   2.752   0.640  0.5046 -0.1234 -0.1775
  122MOL0     C15981  10.446   2.835   0.540 -0.1835  0.4551 -0.4739
  122MOL0     C15982  10.340   2.920   0.607  0.1293 -0.1844 -0.5390
  122MOL0     C15983  10.229   2.844   0.681 -0.0786  0.5953  0.8239
  122MOL0     C15984  10.166   2.732   0.610 -1.1530  0.4208 -0.5096
  122MOL0     C15985  10.065   2.762   0.502 -0.1315  1.1071  0.7085
  122MOL0     C15986   9.945   2.853   0.553  0.3703 -0.9585  0.4156
  122MOL0     C15987   9.853   2.768   0.653 -0.5875 -0.6442 -0.7545
  122MOL0     C15988   9.705   2.826   0.647  0.4727  0.2959 -0.3789
  122MOL0     N15989   9.634   2.742   0.741  0.1359  0.0630 -0.0374
  122MOL0     C15990   9.627   2.779   0.874 -0.0707 -0.4980  1.3912
  122MOL0     C15991   9.559   2.688   0.936 -0.7542 -0.3032 -1.0642
  122MOL0     C15992   9.520   2.685   1.089  0.9136 -0.8083  0.1131
  122MOL0     C15993   9.595   2.584   1.172  0.1817  0.1499  0.3021
  122MOL0     C15994   9.555   2.600   1.317  0.4112 -0.5975 -0.3857
  122MOL0     C15995   9.610   2.485   1.402  0.3533 -0.0419  0.6354
  122MOL0     O15996   9.750   2.515   1.406  0.4851 -0.0936 -0.7324
  122MOL0     C15997   9.819   2.439   1.499 -0.7369  0.0809 -0.8221
  122MOL0     C15998   9.770   2.334   1.584 -0.2441 -0.1188 -0.4947
  122MOL0     C15999   9.863   2.260   1.680  0.0032  0.1563  0.5799
  122MOL0     C16000   9.988   2.309   1.707 -0.3769 -0.5403  0.9745
  122MOL0     C16001  10.064   2.225   1.803 -0.5193  0.1014  0.5461
  122MOL0     O16002  10.011   2.107   1.859  1.3380  0.0953 -0.2922
  122MOL0     C16003  10.090   2.034   1.947  0.4980  1.0862  0.5367
  122MOL0     C16004  10.178   1.934   1.906 -0.0735 -0.0708  0.3714
  122MOL0     C16005  10.255   1.869   1.998  0.2668 -0.7664 -0.2340
  122MOL0     C16006  10.254   1.909   2.133 -0.4437  0.5378  0.3575
  122MOL0     O16007  10.328   1.826   2.217  0.9783  0.0771  0.2918
  122MOL0     C16008  10.362   1.867   2.350 -0.2185 -0.5109 -0.3256
  122MOL0     C16009  10.296   1.775   2.456 -0.2971 -0.5561  0.3153
  122MOL0     C16010  10.369   1.781   2.596 -0.6112 -0.0902  0.2567
  122MOL0     C16011  10.289   1.766   2.728 -0.6840 -1.1564 -0.0452
  122MOL0     C16012  10.401   1.774   2.838 -0.7540  0.7224 -0.2511
  122MOL0     C16013  10.348   1.705   2.976  0.3174 -0.1252  0.2959
  122MOL0     C16014  10.322   1.556   2.974 -0.1707  0.0378 -0.7889
  122MOL0     C16015  10.321   1.489   3.115  0.2315 -0.7188 -0.3638
  122MOL0    Cl16016  10.476   1.507   3.199 -0.0173 -0.2593 -0.0789
  122MOL0     C16017  10.174   2.015   2.168  1.1714  0.0270  0.0526
  122MOL0     C16018  10.086   2.077   2.076  0.8514  0.6783 -0.1689
  122MOL0     O16019  10.178   2.257   1.827 -0.2308 -0.9206 -0.4488
  122MOL0     C16020  10.037   2.415   1.626 -0.4983  0.7740  0.5312
  122MOL0     C16021   9.952   2.474   1.524  0.1284  0.7963 -0.0590
  122MOL0     N16022   9.530   2.589   0.841 -0.4943 -0.5995 -0.7774
  122MOL0     N16023   9.569   2.626   0.719  0.0114  0.1491 -0.5652
  122MOL0     C16024  10.671   2.658   0.490 -0.1207  0.4754 -0.5076
  122MOL0     C16025  10.738   2.536   0.446  0.3142  0.3400 -0.6208
  122MOL0     C16026  10.912   2.118   0.505  0.1516 -0.5938 -0.4912
  122MOL0     C16027  10.940   2.001   0.580 -0.1970  0.4031  0.2505
  122MOL0     C16028  11.042   1.910   0.546 -0.0648 -0.6266 -0.2016
  122MOL0     C16029  11.116   1.934   0.423  0.8348  0.0418 -0.0811
  122MOL0     O16030  11.217   1.857   0.370  0.0646 -0.2649  0.5759
  122MOL0     C16031  11.286   1.769   0.463  0.2271  0.8997 -0.4216
  122MOL0     C16032  11.237   1.620   0.462  0.0956  0.4463  0.0841
  122MOL0     C16033  11.321   1.526   0.556  0.2064 -0.2450  1.0068
  122MOL0     C16034  11.381   1.573   0.691  0.6489  0.2834  0.0778
  122MOL0     C16035  11.506   1.643   0.669  0.3378  0.7726 -1.0132
  122MOL0     C16036  11.612   1.711   0.649 -0.5740  0.6611  0.3623
  122MOL0     C16037  11.076   2.046   0.337 -0.0529 -0.4974 -0.1697
  122MOL0     C16038  10.973   2.140   0.382 -0.6535 -0.2600 -0.5433
  122MOL0     H16039  10.568   2.307   0.626  1.4117 -0.0097 -1.7884
  122MOL0     H16040  10.444   2.513   0.713 -0.0667 -0.8378 -0.4943
  122MOL0     H16041  10.408   2.783   0.452 -0.7728  1.1172 -0.6094
  122MOL0     H16042  10.519   2.908   0.504 -0.8203  1.7155  0.7079
  122MOL0     H16043  10.303   2.989   0.531  1.6336  2.0514  0.6461
  122MOL0     H16044  10.394   2.981   0.680 -0.4571  1.4619 -1.4235
  122MOL0     H16045  10.147   2.917   0.686 -1.5462 -0.3318 -4.0573
  122MOL0     H16046  10.252   2.809   0.782  0.0360 -2.7316 -0.2653
  122MOL0     H16047  10.247   2.676   0.561  0.7973  0.8635  1.9727
  122MOL0     H16048  10.136   2.649   0.674  2.6251 -0.9973 -0.2919
  122MOL0     H16049  10.026   2.667   0.462  1.1083  1.3458 -1.1939
  122MOL0     H16050  10.104   2.814   0.414  1.6442 -1.2411 -0.0068
  122MOL0     H16051   9.891   2.895   0.468  1.6544 -1.0177 -0.4732
  122MOL0     H16052   9.977   2.946   0.599 -0.3776  1.0043 -2.7379
  122MOL0     H16053   9.848   2.665   0.616 -0.5381 -0.7292 -0.5247
  122MOL0     H16054   9.903   2.778   0.750  0.0426  2.0340 -1.2586
  122MOL0     H16055   9.661   2.825   0.547 -0.0461  1.7576 -0.1961
  122MOL0     H16056   9.704   2.930   0.679  1.0375 -0.3697  2.0424
  122MOL0     H16057   9.663   2.874   0.913 -1.6417  0.4531  0.6674
  122MOL0     H16058   9.412   2.675   1.100  0.8702  1.5673  3.2486
  122MOL0     H16059   9.530   2.785   1.134  1.8437 -0.8351 -0.0152
  122MOL0     H16060   9.703   2.585   1.151  0.3259 -1.8717  0.7520
  122MOL0     H16061   9.565   2.483   1.142 -0.4192  0.1750  0.8163
  122MOL0     H16062   9.608   2.687   1.357  1.3751 -1.7468  0.9557
  122MOL0     H16063   9.446   2.596   1.309  0.3327 -0.2899  0.4466
  122MOL0     H16064   9.601   2.386   1.356 -1.1323 -1.7235  4.2327
  122MOL0     H16065   9.568   2.477   1.502 -1.0423  1.9983  0.2707
  122MOL0     H16066   9.667   2.301   1.577 -0.0431 -0.8537 -0.1190
  122MOL0     H16067   9.818   2.185   1.744  0.9176 -0.2055  0.8215
  122MOL0     H16068  10.183   1.890   1.806  0.4514 -1.4783  0.9919
  122MOL0     H16069  10.313   1.784   1.964  1.9192  0.8010 -1.5795
  122MOL0     H16070  10.340   1.973   2.366  1.6965  0.1449 -1.6779
  122MOL0     H16071  10.470   1.850   2.355 -0.3720 -1.6162 -0.3945
  122MOL0     H16072  10.297   1.672   2.422  0.2794 -0.2902 -0.5013
  122MOL0     H16073  10.189   1.797   2.457 -0.6750 -2.2365 -0.0377
  122MOL0     H16074  10.432   1.870   2.599  0.8174 -1.0787  0.3323
  122MOL0     H16075  10.423   1.687   2.580 -1.5719 -0.3527 -1.8001
  122MOL0     H16076  10.225   1.853   2.737  0.4768 -0.3890  1.1850
  122MOL0     H16077  10.240   1.668   2.725 -0.1815 -1.4129 -3.3077
  122MOL0     H16078  10.423   1.880   2.857 -2.7256  1.1169  0.0433
  122MOL0     H16079  10.492   1.722   2.809 -1.9570 -2.5123  1.3571
  122MOL0     H16080  10.249   1.747   2.996 -0.7009 -2.1914 -0.1144
  122MOL0     H16081  10.418   1.733   3.055  2.7015  1.5169 -2.2400
  122MOL0     H16082  10.227   1.535   2.924 -1.2510 -2.4146  2.0113
  122MOL0     H16083  10.407   1.531   2.909  0.1439  0.3629 -0.5067
  122MOL0     H16084  10.313   1.380   3.106  0.3163 -0.6066 -2.1777
  122MOL0     H16085  10.237   1.528   3.173  0.5004 -0.0545 -0.4229
  122MOL0     H16086  10.172   2.057   2.268  0.9367  1.5412 -0.5535
  122MOL0     H16087  10.010   2.147   2.110  0.0848 -0.7948  1.3214
  122MOL0     H16088  10.139   2.447   1.646 -0.1030 -0.0696 -0.0851
  122MOL0     H16089   9.991   2.555   1.462 -0.4160  0.0969 -1.3353
  122MOL0     H16090  10.687   2.753   0.440 -0.1808 -0.0282 -1.5211
  122MOL0     H16091  10.819   2.533   0.374 -0.9730  2.0938 -2.2464
  122MOL0     H16092  10.885   1.985   0.672  0.3333 -1.0457  0.3392
  122MOL0     H16093  11.061   1.822   0.607  0.3235 -2.2181 -2.4965
  122MOL0     H16094  11.306   1.803   0.565  0.3050 -1.5665  0.4437
  122MOL0     H16095  11.385   1.764   0.417  0.5666  0.6631  0.3177
  122MOL0     H16096  11.136   1.615   0.505  0.5646 -2.9273  1.1329
  122MOL0     H16097  11.219   1.583   0.361 -1.7041 -0.3371  0.6464
  122MOL0     H16098  11.396   1.470   0.499 -0.8169 -0.6550  0.0049
  122MOL0     H16099  11.247   1.449   0.581 -0.8496  0.7500  1.0549
  122MOL0     H16100  11.323   1.650   0.743 -0.1075 -0.2327  0.0007
  122MOL0     H16101  11.393   1.485   0.754 -1.8376 -0.3131 -0.1784
  122MOL0     H16102  11.697   1.763   0.612 -1.2389 -0.3345 -2.8384
  122MOL0     H16103  11.119   2.072   0.241 -1.7608  2.1734 -0.3138
  122MOL0     H16104  10.962   2.226   0.316  0.7076  0.8049  0.5469
  123MOL0     O16105   5.775   6.092   8.994 -0.2021 -0.1060  0.6967
  123MOL0     C16106   5.773   6.038   9.105 -0.1325 -0.5798 -0.0839
  123MOL0     O16107   5.773   6.105   9.225  0.3770  0.1903  0.5632
  123MOL0     C16108   5.819   6.231   9.238  0.9382  0.2359 -0.5096
  123MOL0     C16109   5.932   6.283   9.171  0.2744  0.4514 -0.8248
  123MOL0     C16110   6.003   6.391   9.208  0.1037  0.1477  0.4488
  123MOL0     C16111   5.959   6.466   9.310  0.2902  0.1641 -0.8506
  123MOL0     O16112   6.035   6.569   9.352 -0.4355  0.3774 -0.1807
  123MOL0     C16113   6.013   6.620   9.480 -0.9305 -0.9504 -0.6379
  123MOL0     C16114   6.119   6.728   9.502  0.1404 -0.6307 -0.4293
  123MOL0     C16115   6.165   6.721   9.642  0.0088 -0.4445  0.3643
  123MOL0     C16116   6.266   6.831   9.674  0.2576  0.5390 -0.1834
  123MOL0     C16117   6.277   6.820   9.823 -0.2287 -0.2190 -0.1060
  123MOL0     C16118   6.365   6.933   9.891 -0.4789 -0.1269 -0.5160
  123MOL0     C16119   6.520   6.900   9.879 -1.1542  0.0593  0.3562
  123MOL0     C16120   6.609   7.019   9.938 -0.0420  0.7499 -0.4106
  123MOL0     N16121   6.751   6.985   9.920  1.1140 -0.1988  0.5022
  123MOL0     C16122   6.850   7.075   9.871 -0.6803  0.5856  0.0375
  123MOL0     C16123   6.961   7.001   9.888 -0.6528 -0.4362 -0.3407
  123MOL0     C16124   7.099   7.042   9.847  0.3971 -0.0627  0.5835
  123MOL0     C16125   7.138   7.159   9.934 -0.4795 -1.5416  0.7893
  123MOL0     C16126   7.160   7.119  10.076  0.2447 -0.4275  0.3088
  123MOL0     C16127   7.281   7.190  10.142 -0.1162 -0.1764  0.5679
  123MOL0     O16128   7.324   7.117  10.260  0.4615  0.3251 -0.3289
  123MOL0     C16129   7.405   7.186  10.343  0.3274  0.4010 -0.7798
  123MOL0     C16130   7.438   7.118  10.466  0.0335 -0.4544  0.5239
  123MOL0     C16131   7.554   7.155  10.540  0.0469  0.3192  0.0056
  123MOL0     C16132   7.627   7.267  10.513 -0.3535 -0.3264  0.1657
  123MOL0     C16133   7.736   7.315  10.599 -0.1328  0.0838  0.3293
  123MOL0     O16134   7.750   7.248  10.713  0.5401  1.1846 -0.3364
  123MOL0     C16135   7.809   7.291  10.829 -0.2462 -0.5381  0.0901
  123MOL0     C16136   7.847   7.430  10.846 -1.1159  1.5417  0.4226
  123MOL0     C16137   7.923   7.463  10.966  1.0683 -0.0055 -0.3531
  123MOL0     C16138   7.940   7.365  11.075 -1.0059  0.5442 -0.0907
  123MOL0     O16139   8.004   7.414  11.189  0.4672 -0.1163  0.3046
  123MOL0     C16140   8.021   7.338  11.307  0.2519 -0.7031 -0.1460
  123MOL0     C16141   7.902   7.329  11.395 -0.3829  0.8429 -0.4680
  123MOL0     C16142   7.933   7.216  11.504  0.0554  0.3545 -0.0355
  123MOL0     C16143   8.003   7.281  11.622 -0.8018 -0.6394  0.5482
  123MOL0     C16144   8.024   7.193  11.746  0.5890  0.2335  0.0562
  123MOL0     C16145   8.096   7.252  11.853 -0.3616 -0.7630  0.3363
  123MOL0     C16146   8.140   7.164  11.969 -0.6563 -0.7770  0.0732
  123MOL0     C16147   8.216   7.244  12.076  1.3223  0.1273  0.2819
  123MOL0    Cl16148   8.314   7.129  12.175  0.0254  0.3932 -0.2312
  123MOL0     C16149   7.902   7.231  11.046  0.0970  0.2023  0.1828
  123MOL0     C16150   7.834   7.199  10.928 -1.3529  0.3218  0.1048
  123MOL0     O16151   7.805   7.408  10.551  0.8703 -0.2446  0.6538
  123MOL0     C16152   7.594   7.334  10.389  0.2483  0.1496 -0.3863
  123MOL0     C16153   7.492   7.303  10.304  0.5908  0.7216 -0.2354
  123MOL0     N16154   6.936   6.895   9.960  0.3368  0.3476 -0.0185
  123MOL0     N16155   6.815   6.890   9.984 -0.3451  0.7310  0.2328
  123MOL0     C16156   5.839   6.429   9.371 -0.2003  0.2684 -0.5452
  123MOL0     C16157   5.765   6.307   9.339  1.3368  0.3095  0.3330
  123MOL0     C16158   5.741   5.888   9.117  1.1412 -0.6160  0.2384
  123MOL0     C16159   5.734   5.812   9.241 -0.5433 -1.4757  0.5193
  123MOL0     C16160   5.710   5.680   9.231  0.4552 -0.4708 -0.7655
  123MOL0     C16161   5.704   5.617   9.104 -0.3125  0.2540  0.1057
  123MOL0     O16162   5.687   5.478   9.087  0.1080  0.0092 -0.6904
  123MOL0     C16163   5.612   5.404   9.201  0.5367 -0.6479 -0.2162
  123MOL0     C16164   5.584   5.257   9.158 -0.4690  0.2976  0.2931
  123MOL0     C16165   5.453   5.227   9.235  0.7586  0.5170 -0.2618
  123MOL0     C16166   5.450   5.081   9.259  0.8119 -0.7269  0.4603
  123MOL0     C16167   5.329   5.044   9.334  0.0788 -0.1017  0.4960
  123MOL0     C16168   5.237   4.996   9.395 -0.4510 -0.5927  1.0957
  123MOL0     C16169   5.704   5.688   8.985 -0.2422  0.0400  0.5177
  123MOL0     C16170   5.726   5.818   8.992 -0.7826  0.2041 -0.0368
  123MOL0     H16171   5.963   6.235   9.079  4.1760  0.9738  0.0640
  123MOL0     H16172   6.092   6.422   9.155  3.0646 -3.4878  2.8452
  123MOL0     H16173   6.027   6.540   9.553  0.5834  2.0360  2.6910
  123MOL0     H16174   5.914   6.664   9.497 -0.8856 -0.7948 -0.7727
  123MOL0     H16175   6.075   6.826   9.480 -0.7859 -0.9720 -0.1454
  123MOL0     H16176   6.196   6.718   9.425 -0.7382 -0.7360 -1.3190
  123MOL0     H16177   6.216   6.625   9.658  0.4725 -0.9956 -3.4549
  123MOL0     H16178   6.081   6.729   9.711 -0.5037 -0.5210 -0.2435
  123MOL0     H16179   6.365   6.814   9.632  0.0778 -4.5301  0.8947
  123MOL0     H16180   6.225   6.928   9.643  0.5613 -0.0879 -2.8097
  123MOL0     H16181   6.317   6.720   9.841  2.8836  1.3265  2.7840
  123MOL0     H16182   6.189   6.805   9.886  0.7170 -0.1890  1.2715
  123MOL0     H16183   6.337   6.948   9.996 -2.0099  2.6029 -1.2242
  123MOL0     H16184   6.348   7.028   9.841  1.7830 -0.2538 -1.6312
  123MOL0     H16185   6.542   6.803   9.924  2.0126  0.0117 -1.0321
  123MOL0     H16186   6.558   6.892   9.776  0.6525 -1.6689  1.0991
  123MOL0     H16187   6.591   7.034  10.045 -1.9994  2.9473 -0.9577
  123MOL0     H16188   6.577   7.109   9.885 -0.1219  0.0384 -1.5954
  123MOL0     H16189   6.839   7.167   9.814 -1.0153  1.7620  1.9080
  123MOL0     H16190   7.096   7.073   9.742  1.3096  0.0776  0.5918
  123MOL0     H16191   7.165   6.955   9.852  0.0049 -0.5333 -1.4161
  123MOL0     H16192   7.072   7.245   9.918  2.7617  0.4771 -4.3169
  123MOL0     H16193   7.237   7.182   9.894 -0.9219  0.1743  0.6144
  123MOL0     H16194   7.073   7.137  10.140 -0.3074  3.4895 -1.2600
  123MOL0     H16195   7.188   7.014  10.087  2.0244 -0.0295 -0.0156
  123MOL0     H16196   7.240   7.287  10.170 -4.5430 -2.0167  1.3170
  123MOL0     H16197   7.357   7.195  10.063 -1.5515  0.4881 -0.8201
  123MOL0     H16198   7.385   7.036  10.512 -1.3911  1.8147  3.2749
  123MOL0     H16199   7.561   7.109  10.638 -1.1336  1.3503  0.5950
  123MOL0     H16200   7.841   7.494  10.760 -0.7402  1.2022  0.1374
  123MOL0     H16201   7.964   7.564  10.972 -0.6310  0.6377  2.0678
  123MOL0     H16202   8.100   7.389  11.363  0.2842  1.6341 -2.1272
  123MOL0     H16203   8.052   7.237  11.280 -0.5745 -1.3541  1.2843
  123MOL0     H16204   7.815   7.298  11.336  0.1733 -0.3913 -0.6762
  123MOL0     H16205   7.877   7.425  11.442  0.7079  0.6025  0.6570
  123MOL0     H16206   7.994   7.139  11.458 -0.1944 -0.2782  0.6879
  123MOL0     H16207   7.841   7.167  11.538  0.5285 -2.3459 -2.2813
  123MOL0     H16208   8.104   7.318  11.600 -2.0531  2.3346 -0.8648
  123MOL0     H16209   7.942   7.367  11.651 -2.1950 -1.6490  0.6945
  123MOL0     H16210   8.077   7.104  11.711  0.9193  1.0179 -1.5294
  123MOL0     H16211   7.926   7.162  11.785 -0.4029 -0.0395 -2.4522
  123MOL0     H16212   8.035   7.326  11.905  0.7771  0.1420  0.4485
  123MOL0     H16213   8.183   7.303  11.810  0.1795 -1.6101  0.4013
  123MOL0     H16214   8.051   7.118  12.013 -1.0374  1.3435  1.6796
  123MOL0     H16215   8.212   7.092  11.930  1.3880  0.9958  0.3392
  123MOL0     H16216   8.143   7.302  12.133  0.6153 -1.6681  1.3014
  123MOL0     H16217   8.287   7.315  12.033 -1.6833  2.1270 -1.7144
  123MOL0     H16218   7.922   7.152  11.119 -2.0479 -0.0249  0.5673
  123MOL0     H16219   7.794   7.100  10.910 -0.7898  0.1029  0.0250
  123MOL0     H16220   7.638   7.431  10.366  0.4024  0.4775  1.2076
  123MOL0     H16221   7.492   7.350  10.206  0.8027  1.9715  0.3399
  123MOL0     H16222   5.799   6.493   9.448 -1.0857  0.1562 -0.8990
  123MOL0     H16223   5.679   6.269   9.392  0.5373  1.7832  0.1587
  123MOL0     H16224   5.746   5.854   9.340 -2.7110 -1.0976  0.6778
  123MOL0     H16225   5.698   5.628   9.326 -1.2575  0.0139 -0.6750
  123MOL0     H16226   5.514   5.452   9.212  0.5698 -0.6331  0.0178
  123MOL0     H16227   5.666   5.396   9.296 -1.9697  3.2486  1.8067
  123MOL0     H16228   5.563   5.250   9.051  1.1533 -2.4163  0.0673
  123MOL0     H16229   5.666   5.192   9.190 -0.3055 -0.1174 -0.9447
  123MOL0     H16230   5.366   5.253   9.175 -1.7044  0.2266  2.8904
  123MOL0     H16231   5.450   5.285   9.328  0.8544 -0.1295  0.1540
  123MOL0     H16232   5.455   5.036   9.159 -1.1948 -2.4588  1.0554
  123MOL0     H16233   5.534   5.033   9.309  0.5009 -1.9898 -0.1706
  123MOL0     H16234   5.144   4.977   9.446  0.7555 -0.4369  3.4917
  123MOL0     H16235   5.690   5.638   8.890  0.9478 -2.3885  1.5220
  123MOL0     H16236   5.728   5.870   8.896 -1.9974  0.4483  0.0526
  124MOL0     O16237  10.174   4.112   5.000 -0.0295 -0.3360 -0.3063
  124MOL0     C16238  10.134   4.034   4.921 -0.7759  0.1908  0.3601
  124MOL0     O16239  10.213   3.946   4.851  0.5451 -0.3698 -0.2192
  124MOL0     C16240  10.350   3.963   4.827  0.0845  0.1984 -0.1915
  124MOL0     C16241  10.406   4.095   4.823  0.0974 -0.2785  0.2219
  124MOL0     C16242  10.541   4.105   4.794  0.4512  0.1843  0.2772
  124MOL0     C16243  10.618   3.992   4.758 -0.2850 -0.4877  0.4882
  124MOL0     O16244  10.745   4.005   4.716  0.9981 -0.0965  0.4194
  124MOL0     C16245  10.847   3.913   4.757 -1.3681 -1.0009  0.4490
  124MOL0     C16246  10.988   3.961   4.735 -0.4963  0.0819  0.2445
  124MOL0     C16247  11.012   4.023   4.589  0.1365 -0.0080 -0.7920
  124MOL0     C16248  11.157   4.035   4.548 -0.1118  0.7153 -0.2111
  124MOL0     C16249  11.180   4.073   4.399 -0.1989 -0.0953 -1.1354
  124MOL0     C16250  11.142   3.959   4.311  0.2873 -0.2901 -0.7168
  124MOL0     C16251  11.138   4.007   4.159 -0.6130 -0.1479 -0.0410
  124MOL0     C16252  11.122   3.888   4.056  0.3418  0.3655 -0.4038
  124MOL0     N16253  11.246   3.802   4.037  0.2521 -0.7598 -0.1758
  124MOL0     C16254  11.377   3.844   4.059 -0.0822 -0.3768 -0.2210
  124MOL0     C16255  11.455   3.756   3.992  0.0325 -0.0844  0.2501
  124MOL0     C16256  11.612   3.752   3.973 -0.7820  0.4401 -0.2069
  124MOL0     C16257  11.672   3.852   4.074 -0.0817 -0.4075 -0.3560
  124MOL0     C16258  11.822   3.829   4.096  0.7950 -0.0046  1.0227
  124MOL0     C16259  11.899   3.852   3.963  0.2645  0.1211  0.8427
  124MOL0     O16260  12.041   3.832   3.974  0.9041  0.0676 -0.1100
  124MOL0     C16261  12.111   3.899   3.883 -0.0509  1.3498  0.7984
  124MOL0     C16262  12.244   3.904   3.917 -0.2222 -0.4397  0.5178
  124MOL0     C16263  12.328   3.973   3.830 -0.9264 -0.0367 -0.0209
  124MOL0     C16264  12.291   4.020   3.705 -0.5746 -1.1904 -0.4489
  124MOL0     C16265  12.388   4.086   3.600 -0.0696  0.4433  0.5122
  124MOL0     O16266  12.520   4.074   3.637 -0.0272  0.3138 -0.4287
  124MOL0     C16267  12.611   4.133   3.552 -0.3332 -0.9288 -0.8072
  124MOL0     C16268  12.637   4.275   3.545 -0.2516  0.1593  0.3240
  124MOL0     C16269  12.720   4.323   3.441 -0.3989 -0.1451  0.1899
  124MOL0     C16270  12.798   4.237   3.359  0.1778 -1.4585 -0.1326
  124MOL0     O16271  12.894   4.277   3.273 -0.0085 -0.7039 -0.1107
  124MOL0     C16272  12.918   4.423   3.253 -0.2750 -0.1738  1.0972
  124MOL0     C16273  13.040   4.431   3.174 -0.6056  0.4933  1.1576
  124MOL0     C16274  13.116   4.557   3.150 -0.8436  0.1672  0.3876
  124MOL0     C16275  13.216   4.526   3.047 -0.4077 -0.7432  1.0905
  124MOL0     C16276  13.309   4.648   3.021 -0.3934 -0.3674 -0.0621
  124MOL0     C16277  13.397   4.611   2.906  0.1518  0.5188 -0.0695
  124MOL0     C16278  13.500   4.710   2.862 -0.5469  0.0119  0.6398
  124MOL0     C16279  13.527   4.731   2.707 -0.0295 -0.5985  0.0017
  124MOL0    Cl16280  13.401   4.837   2.651 -0.1380  0.0383  0.4752
  124MOL0     C16281  12.772   4.104   3.366  0.4951  1.2640 -0.3887
  124MOL0     C16282  12.688   4.047   3.467  0.1195 -0.1001 -0.4697
  124MOL0     O16283  12.343   4.157   3.508 -0.6232  0.2412 -0.6361
  124MOL0     C16284  12.158   4.012   3.668  0.6576 -1.2922  0.7280
  124MOL0     C16285  12.067   3.952   3.760 -0.2506  0.3039  0.5427
  124MOL0     N16286  11.375   3.661   3.945  0.6385 -0.3364 -1.0445
  124MOL0     N16287  11.251   3.678   3.964 -0.1572 -0.6320 -1.0919
  124MOL0     C16288  10.563   3.863   4.759  0.0104  0.4827 -0.0995
  124MOL0     C16289  10.426   3.849   4.789 -0.1015  0.5985 -1.1406
  124MOL0     C16290   9.984   4.030   4.896  0.1631  0.4342 -0.4174
  124MOL0     C16291   9.929   3.936   4.809  1.1564 -0.1047  0.3814
  124MOL0     C16292   9.785   3.929   4.801 -0.0757 -0.1294  0.1885
  124MOL0     C16293   9.710   4.013   4.877  1.4301 -0.0820  0.4493
  124MOL0     O16294   9.571   3.995   4.880  0.2607 -0.4256 -0.3339
  124MOL0     C16295   9.500   3.926   4.773 -0.5652  0.0581  0.7178
  124MOL0     C16296   9.358   3.956   4.800  0.0988  0.1389 -0.2822
  124MOL0     C16297   9.310   4.083   4.725  0.0237  0.1122  0.0380
  124MOL0     C16298   9.189   4.161   4.788 -0.3520 -0.1486  0.5835
  124MOL0     C16299   9.144   4.267   4.694  0.6128  0.1691  0.2764
  124MOL0     C16300   9.091   4.340   4.608  0.2962 -0.3965  0.6152
  124MOL0     C16301   9.765   4.109   4.961 -0.9152 -0.3237  0.2322
  124MOL0     C16302   9.903   4.115   4.970 -0.0033 -0.0554  0.1988
  124MOL0     H16303  10.343   4.182   4.839  2.4315  1.2936  1.5041
  124MOL0     H16304  10.571   4.208   4.782 -1.2181  0.6738 -0.0449
  124MOL0     H16305  10.841   3.821   4.697  2.1650 -1.0609 -0.0133
  124MOL0     H16306  10.847   3.879   4.861 -0.0201 -1.9661  0.1707
  124MOL0     H16307  11.050   3.874   4.756 -0.9552 -0.1940  0.4971
  124MOL0     H16308  11.011   4.041   4.806 -1.9957 -1.8647  3.1520
  124MOL0     H16309  10.981   4.128   4.594 -1.0269 -0.4011  2.0129
  124MOL0     H16310  10.956   3.977   4.507  2.3417 -0.9450 -1.8476
  124MOL0     H16311  11.207   4.116   4.602 -1.2044  0.3877  1.3474
  124MOL0     H16312  11.215   3.943   4.563 -0.7134 -0.2417 -3.1492
  124MOL0     H16313  11.284   4.101   4.378  0.2048 -2.3915 -2.5155
  124MOL0     H16314  11.122   4.165   4.388 -3.5400 -2.1779 -2.2527
  124MOL0     H16315  11.041   3.921   4.330  0.2699 -0.5170 -1.2476
  124MOL0     H16316  11.215   3.879   4.324  1.2280  0.9556  2.8209
  124MOL0     H16317  11.058   4.080   4.146 -0.5099 -0.4284 -3.1010
  124MOL0     H16318  11.234   4.050   4.129  0.1401 -2.0741 -0.5755
  124MOL0     H16319  11.095   3.919   3.955 -2.3994 -2.8651 -0.8651
  124MOL0     H16320  11.038   3.826   4.089 -1.2090  0.9708 -2.9353
  124MOL0     H16321  11.413   3.938   4.099 -0.9061 -0.2495  0.2465
  124MOL0     H16322  11.627   3.792   3.873 -1.7207  0.2518 -0.4302
  124MOL0     H16323  11.661   3.654   3.985 -2.1152 -0.2744 -0.4154
  124MOL0     H16324  11.623   3.852   4.172  2.3895 -0.4199  0.9653
  124MOL0     H16325  11.645   3.951   4.038 -1.2776 -0.4644  0.3294
  124MOL0     H16326  11.859   3.892   4.177 -1.2564  0.3906  1.7089
  124MOL0     H16327  11.835   3.729   4.139 -0.6103  0.5063  2.7387
  124MOL0     H16328  11.871   3.942   3.907 -0.0096  0.0078  0.7988
  124MOL0     H16329  11.869   3.770   3.897  3.3226 -0.4246 -0.0319
  124MOL0     H16330  12.292   3.853   4.000  2.7268 -0.9807 -1.3738
  124MOL0     H16331  12.431   3.980   3.864 -1.3918  1.6823  1.1870
  124MOL0     H16332  12.579   4.343   3.607 -0.1728  1.4550 -0.9898
  124MOL0     H16333  12.733   4.429   3.420  2.5884 -0.6506 -1.0719
  124MOL0     H16334  12.937   4.470   3.351  1.2436 -0.4385  0.9445
  124MOL0     H16335  12.834   4.476   3.207  0.2637 -0.7148 -0.5669
  124MOL0     H16336  13.020   4.382   3.078  0.4723  0.0753  1.1341
  124MOL0     H16337  13.118   4.374   3.225 -0.8130 -0.6963  0.1806
  124MOL0     H16338  13.167   4.587   3.242  0.0853 -0.9823  0.2597
  124MOL0     H16339  13.049   4.643   3.141 -0.0508  1.0140  2.0928
  124MOL0     H16340  13.279   4.441   3.075 -1.9165 -0.8907  4.4880
  124MOL0     H16341  13.150   4.512   2.961  1.5096  1.4357 -0.8818
  124MOL0     H16342  13.363   4.665   3.114 -3.1304 -0.8745  1.7579
  124MOL0     H16343  13.246   4.733   2.991  1.2553  1.8304  2.3295
  124MOL0     H16344  13.350   4.586   2.810 -0.5700  0.4481  0.2990
  124MOL0     H16345  13.456   4.527   2.943  3.3461  2.7507  0.3403
  124MOL0     H16346  13.496   4.808   2.912  2.0489  1.2288 -1.2839
  124MOL0     H16347  13.602   4.676   2.884 -0.3840  1.3633  2.2522
  124MOL0     H16348  13.500   4.645   2.645 -1.3383 -0.6035  0.5413
  124MOL0     H16349  13.624   4.769   2.676 -0.8481  1.2726 -0.3960
  124MOL0     H16350  12.815   4.039   3.291  0.7426  2.6098 -1.4368
  124MOL0     H16351  12.688   3.940   3.483  1.8758  0.1770  1.9753
  124MOL0     H16352  12.125   4.051   3.573 -0.8855 -0.7633  1.4499
  124MOL0     H16353  11.969   3.932   3.718 -0.5440  1.6891  0.5093
  124MOL0     H16354  10.618   3.781   4.715 -3.7707 -0.3796 -3.8011
  124MOL0     H16355  10.370   3.756   4.793  1.3555 -0.2595  0.5920
  124MOL0     H16356   9.985   3.873   4.741 -0.5713 -0.6267 -0.6097
  124MOL0     H16357   9.739   3.860   4.731 -1.7312 -1.1282  2.1553
  124MOL0     H16358   9.513   3.818   4.768 -2.3867 -0.1300 -2.6360
  124MOL0     H16359   9.520   3.970   4.675 -1.8047  0.5667  0.6723
  124MOL0     H16360   9.298   3.872   4.762 -0.8903  0.4589  0.5350
  124MOL0     H16361   9.331   3.960   4.906 -1.0104 -3.3245 -0.3001
  124MOL0     H16362   9.282   4.063   4.621 -1.4762 -1.4048  0.6874
  124MOL0     H16363   9.389   4.152   4.695  0.3740 -0.6871 -0.9426
  124MOL0     H16364   9.103   4.099   4.816 -0.3992  0.1798  1.1760
  124MOL0     H16365   9.230   4.202   4.881 -0.4457  0.7863  0.2199
  124MOL0     H16366   9.044   4.384   4.523  0.8093 -0.6372  0.2040
  124MOL0     H16367   9.705   4.173   5.025 -1.6216  0.3905 -1.1046
  124MOL0     H16368   9.941   4.195   5.034 -3.3058 -0.1831  2.5765
  125MOL0     O16369   4.004   4.511   0.920 -0.6366  0.1252  0.5730
  125MOL0     C16370   4.095   4.591   0.909 -0.4893  0.6617 -0.5126
  125MOL0     O16371   4.097   4.689   0.815 -0.2913 -0.4380  1.1016
  125MOL0     C16372   3.996   4.698   0.719 -0.1386  0.0466 -0.0711
  125MOL0     C16373   4.030   4.669   0.595 -0.3889 -0.7641  0.3067
  125MOL0     C16374   3.947   4.708   0.487 -0.1449  0.1062  0.1239
  125MOL0     C16375   3.827   4.762   0.519 -0.0225 -0.3522  0.3547
  125MOL0     O16376   3.754   4.816   0.413 -0.4656  1.2967 -0.4870
  125MOL0     C16377   3.617   4.786   0.395  0.9163  1.1722  0.4719
  125MOL0     C16378   3.590   4.685   0.286 -0.9695  0.3449  0.0043
  125MOL0     C16379   3.645   4.732   0.149  0.3259  0.5889  0.6202
  125MOL0     C16380   3.611   4.630   0.035  0.1199 -0.1478 -0.5039
  125MOL0     C16381   3.676   4.671  -0.092 -1.3708 -0.8744 -0.6548
  125MOL0     C16382   3.666   4.564  -0.211  0.4949 -0.6472 -1.3862
  125MOL0     C16383   3.692   4.631  -0.344  0.6326 -0.5760  0.6157
  125MOL0     C16384   3.623   4.552  -0.454  0.2652  0.4282  0.2401
  125MOL0     N16385   3.660   4.618  -0.586 -0.3894 -0.1787  0.3435
  125MOL0     C16386   3.789   4.644  -0.633  0.9596  0.3685 -0.3837
  125MOL0     C16387   3.765   4.683  -0.758  0.1796 -0.2180 -0.3389
  125MOL0     C16388   3.885   4.696  -0.842 -0.8534 -1.0202  0.0364
  125MOL0     C16389   3.863   4.802  -0.955  0.2857 -0.2748 -0.6013
  125MOL0     C16390   3.803   4.736  -1.082 -0.1473  0.2428 -0.0399
  125MOL0     C16391   3.815   4.833  -1.205  0.1057 -0.0981 -0.6360
  125MOL0     O16392   3.946   4.799  -1.261  0.1006 -0.3031  0.9654
  125MOL0     C16393   3.973   4.858  -1.383 -0.8260  0.7749  0.6004
  125MOL0     C16394   3.868   4.902  -1.474 -0.2516  1.1975  0.3397
  125MOL0     C16395   3.906   4.972  -1.591 -0.1220  0.1731  0.1333
  125MOL0     C16396   4.044   5.014  -1.608 -0.5867 -1.0574  1.0891
  125MOL0     C16397   4.081   5.114  -1.723  0.6284  1.1184  0.9136
  125MOL0     O16398   3.995   5.146  -1.820  0.5362  0.3190 -0.0161
  125MOL0     C16399   4.051   5.211  -1.926 -0.8574 -0.2550 -0.0529
  125MOL0     C16400   4.110   5.340  -1.930 -0.0522 -0.2456  0.7357
  125MOL0     C16401   4.150   5.390  -2.059 -0.1231  0.3571  0.5791
  125MOL0     C16402   4.143   5.316  -2.178  0.3919 -0.4779  0.6182
  125MOL0     O16403   4.175   5.390  -2.296  0.2551 -0.5030  0.7952
  125MOL0     C16404   4.126   5.362  -2.428  0.6822 -0.2029 -0.0826
  125MOL0     C16405   4.165   5.472  -2.529 -0.3916 -0.6536  0.3144
  125MOL0     C16406   4.051   5.477  -2.641 -0.1800  0.0084  0.1158
  125MOL0     C16407   4.098   5.579  -2.749 -1.4644  0.0645  0.1604
  125MOL0     C16408   4.136   5.722  -2.708 -0.5281 -1.5330  0.2163
  125MOL0     C16409   4.187   5.804  -2.826 -0.0755  0.3520 -0.1799
  125MOL0     C16410   4.234   5.950  -2.793 -0.3371 -0.4004  0.5450
  125MOL0     C16411   4.265   6.045  -2.907  0.2774 -0.1381  0.3346
  125MOL0    Cl16412   4.386   5.981  -3.031 -0.0845 -0.1864  0.2676
  125MOL0     C16413   4.084   5.185  -2.175 -0.1478  0.2570 -0.6426
  125MOL0     C16414   4.049   5.130  -2.046 -0.0703 -0.2963  0.0986
  125MOL0     O16415   4.198   5.147  -1.713 -0.0524  0.9224 -0.0301
  125MOL0     C16416   4.140   4.954  -1.528 -0.9328  0.3602  0.8517
  125MOL0     C16417   4.112   4.894  -1.413  0.4670  0.5952  0.2453
  125MOL0     N16418   3.635   4.716  -0.780  0.9134  0.4079 -0.3326
  125MOL0     N16419   3.578   4.668  -0.681 -0.1970 -0.4710 -0.5611
  125MOL0     C16420   3.788   4.786   0.651 -0.6360  1.4628  0.3063
  125MOL0     C16421   3.875   4.752   0.749  0.3475 -0.3662  0.1314
  125MOL0     C16422   4.198   4.586   1.022  0.2285 -0.1467  0.0455
  125MOL0     C16423   4.177   4.514   1.137  0.3721  0.6226  0.0048
  125MOL0     C16424   4.275   4.494   1.227  0.1279  0.7718  1.0783
  125MOL0     C16425   4.401   4.554   1.208 -0.9961 -0.9621  0.1366
  125MOL0     O16426   4.502   4.539   1.297 -0.8730 -0.1391  0.1916
  125MOL0     C16427   4.523   4.410   1.363  0.7213 -0.3501 -1.6310
  125MOL0     C16428   4.501   4.414   1.506  0.4669 -0.3137 -0.6872
  125MOL0     C16429   4.568   4.295   1.587  0.3153  0.0541 -0.5987
  125MOL0     C16430   4.596   4.339   1.730  0.2455  0.0051  0.4655
  125MOL0     C16431   4.632   4.219   1.814  0.9634 -0.7589  0.0518
  125MOL0     C16432   4.641   4.114   1.869 -0.6424 -0.1909  0.7074
  125MOL0     C16433   4.429   4.634   1.097 -0.1527 -0.3074 -0.5869
  125MOL0     C16434   4.320   4.656   1.005  1.0549  0.5955 -0.0023
  125MOL0     H16435   4.129   4.628   0.577  1.2688  3.2330 -0.7776
  125MOL0     H16436   3.978   4.682   0.386 -0.6558  1.1107 -0.3106
  125MOL0     H16437   3.551   4.866   0.361  0.5248  0.4318 -0.5525
  125MOL0     H16438   3.577   4.749   0.490  0.4853  2.7482  0.9434
  125MOL0     H16439   3.481   4.680   0.276 -0.7309 -2.5485 -2.5589
  125MOL0     H16440   3.624   4.590   0.327 -0.9668  0.5452  0.4725
  125MOL0     H16441   3.752   4.758   0.142  0.4167  0.7544  2.2532
  125MOL0     H16442   3.600   4.830   0.128 -1.6915 -0.5023 -0.4191
  125MOL0     H16443   3.639   4.526   0.056 -1.8415 -0.1213  3.1717
  125MOL0     H16444   3.504   4.639   0.015 -0.6363  1.1668  3.2170
  125MOL0     H16445   3.780   4.686  -0.061 -1.4678  0.3347 -0.8690
  125MOL0     H16446   3.632   4.768  -0.120 -0.1008  0.0926  0.5709
  125MOL0     H16447   3.565   4.523  -0.216 -0.8380  2.2650 -0.7088
  125MOL0     H16448   3.731   4.482  -0.180 -0.9571 -0.8754  1.3740
  125MOL0     H16449   3.646   4.730  -0.343 -0.0332 -0.8291 -1.2610
  125MOL0     H16450   3.800   4.637  -0.360  0.1649  0.3174 -2.9445
  125MOL0     H16451   3.515   4.566  -0.439 -0.0861  0.2596 -1.7988
  125MOL0     H16452   3.660   4.450  -0.460 -0.1780  0.2505  0.4878
  125MOL0     H16453   3.878   4.618  -0.577  0.2838 -1.1595  0.0209
  125MOL0     H16454   3.912   4.592  -0.864 -2.6240 -1.6849  0.7852
  125MOL0     H16455   3.959   4.738  -0.773 -1.0157  2.6798 -1.8117
  125MOL0     H16456   3.959   4.848  -0.978 -0.4101  1.6402  0.0740
  125MOL0     H16457   3.792   4.882  -0.933  0.1733 -0.3436 -0.7113
  125MOL0     H16458   3.850   4.638  -1.100  1.8223  0.9940  0.6699
  125MOL0     H16459   3.699   4.720  -1.056 -0.8068 -2.1033 -3.3942
  125MOL0     H16460   3.788   4.933  -1.170  0.6659  0.5721 -2.0339
  125MOL0     H16461   3.734   4.805  -1.273 -0.8991 -2.7698  1.4934
  125MOL0     H16462   3.766   4.866  -1.464  0.2240 -0.6655 -0.9489
  125MOL0     H16463   3.831   5.001  -1.664  0.8922 -3.5906 -2.7566
  125MOL0     H16464   4.121   5.408  -1.845 -1.3250 -1.9266  2.3234
  125MOL0     H16465   4.192   5.490  -2.061  1.2122 -0.0757  2.7275
  125MOL0     H16466   4.018   5.368  -2.415  0.9389 -0.4643  2.6385
  125MOL0     H16467   4.159   5.260  -2.452 -1.2417 -1.1857  1.1741
  125MOL0     H16468   4.262   5.451  -2.576 -0.7029  0.6462 -0.9974
  125MOL0     H16469   4.164   5.568  -2.477 -0.8807 -0.4920  0.0151
  125MOL0     H16470   3.969   5.531  -2.594  1.0241  1.6224  0.4594
  125MOL0     H16471   4.033   5.375  -2.674 -1.7703  0.8587 -1.8280
  125MOL0     H16472   4.181   5.538  -2.807 -2.1738  0.3511 -1.0993
  125MOL0     H16473   4.012   5.584  -2.817 -1.8301 -4.1701  0.0384
  125MOL0     H16474   4.207   5.719  -2.625 -1.7535 -1.3997  1.2936
  125MOL0     H16475   4.047   5.774  -2.673 -1.7347 -4.4783  1.8384
  125MOL0     H16476   4.109   5.805  -2.902  0.4729  0.0729 -0.7597
  125MOL0     H16477   4.268   5.743  -2.869 -1.2125 -2.5550  1.5054
  125MOL0     H16478   4.160   6.007  -2.737  0.2038  1.2380 -0.3573
  125MOL0     H16479   4.325   5.945  -2.733  0.4486  1.6955 -0.4028
  125MOL0     H16480   4.285   6.140  -2.857 -1.5721  0.8355 -0.6921
  125MOL0     H16481   4.179   6.061  -2.971  2.0493 -0.3206 -2.2360
  125MOL0     H16482   4.076   5.138  -2.273 -1.5431  2.5028 -1.7061
  125MOL0     H16483   4.007   5.030  -2.052 -1.3259  0.2203 -0.1160
  125MOL0     H16484   4.243   4.987  -1.537 -1.8603  4.5093  2.8247
  125MOL0     H16485   4.196   4.860  -1.354  2.3571  2.3056 -1.3443
  125MOL0     H16486   3.693   4.829   0.681 -2.4157 -1.7922 -0.2645
  125MOL0     H16487   3.838   4.763   0.851 -1.5877 -1.7477 -0.3521
  125MOL0     H16488   4.081   4.462   1.141  1.5345 -1.5839  1.3939
  125MOL0     H16489   4.262   4.425   1.310  0.8074 -0.4558  0.2095
  125MOL0     H16490   4.624   4.380   1.336  0.7888 -1.5034 -0.2134
  125MOL0     H16491   4.467   4.333   1.309  2.2514 -0.2285 -3.4901
  125MOL0     H16492   4.539   4.509   1.545 -0.1405 -0.0683 -0.6916
  125MOL0     H16493   4.392   4.411   1.511  0.3026  0.5571 -2.9102
  125MOL0     H16494   4.657   4.254   1.538  1.1894  1.3379 -0.1265
  125MOL0     H16495   4.490   4.218   1.592 -1.8434  2.1844  3.0024
  125MOL0     H16496   4.676   4.414   1.733 -1.0401  1.4115  0.5096
  125MOL0     H16497   4.507   4.374   1.783  0.0315 -2.5826  1.9920
  125MOL0     H16498   4.640   4.015   1.910 -0.3343 -0.3818  0.2502
  125MOL0     H16499   4.522   4.689   1.080  0.1561 -0.8635 -0.7297
  125MOL0     H16500   4.320   4.737   0.933  0.7063  1.8017  1.2929
  126MOL0     O16501   5.687   5.883  10.650 -0.2305 -0.0659  0.0362
  126MOL0     C16502   5.764   5.965  10.692 -1.0584 -0.1967 -0.4178
  126MOL0     O16503   5.896   5.935  10.734  0.1116 -0.2606 -0.1722
  126MOL0     C16504   5.938   5.803  10.734 -0.9569  0.1476 -0.1944
  126MOL0     C16505   5.975   5.730  10.851  0.5043  0.2452  0.4463
  126MOL0     C16506   6.019   5.594  10.856 -0.7139 -0.4424  0.4193
  126MOL0     C16507   6.019   5.533  10.731 -0.3250  0.7932 -0.5095
  126MOL0     O16508   6.056   5.395  10.711  0.0886 -0.3995  0.1702
  126MOL0     C16509   6.180   5.345  10.769  0.6095 -0.2176  0.3385
  126MOL0     C16510   6.138   5.228  10.861 -0.8490 -0.4808  0.9519
  126MOL0     C16511   6.102   5.110  10.784 -0.3722 -0.0639  0.3566
  126MOL0     C16512   6.017   4.999  10.849  0.1233  0.1673  0.4428
  126MOL0     C16513   5.859   5.033  10.866  0.0690 -0.1339  1.0879
  126MOL0     C16514   5.791   4.963  10.985 -1.1204  0.1185  0.0247
  126MOL0     C16515   5.759   4.814  10.955 -0.2444 -0.3489  0.5937
  126MOL0     C16516   5.663   4.760  11.055 -0.5159 -1.0040 -0.0588
  126MOL0     N16517   5.530   4.823  11.044 -0.1710  0.0936  0.2785
  126MOL0     C16518   5.483   4.905  11.141  0.0513 -0.7746 -0.6031
  126MOL0     C16519   5.359   4.947  11.097  0.1116 -0.6614 -0.3840
  126MOL0     C16520   5.278   5.052  11.172  0.1863  0.6542  0.9523
  126MOL0     C16521   5.247   5.006  11.318 -0.3375  0.8625  0.8396
  126MOL0     C16522   5.304   5.112  11.415  0.1142 -0.4963 -0.3375
  126MOL0     C16523   5.297   5.078  11.554 -1.0359 -0.1481 -1.3811
  126MOL0     O16524   5.362   5.179  11.635  0.0804 -0.2517 -0.0771
  126MOL0     C16525   5.301   5.298  11.658  0.3346  0.0866  0.2459
  126MOL0     C16526   5.383   5.383  11.733  0.1717 -0.8875  0.1250
  126MOL0     C16527   5.351   5.516  11.756 -0.0280 -0.3416  0.8777
  126MOL0     C16528   5.228   5.571  11.714  0.4006  0.1373  1.4834
  126MOL0     C16529   5.177   5.701  11.762  0.3105  0.2337 -1.2941
  126MOL0     O16530   5.037   5.723  11.766 -0.5743 -0.3150 -0.2223
  126MOL0     C16531   4.995   5.849  11.808  0.0000  1.6307  1.9464
  126MOL0     C16532   4.927   5.933  11.716  0.0487  0.0629  0.0591
  126MOL0     C16533   4.895   6.064  11.751 -0.4042 -0.1437 -0.7269
  126MOL0     C16534   4.908   6.101  11.884  0.0275  0.3239  0.4486
  126MOL0     O16535   4.874   6.226  11.937  1.1936 -0.3594  0.1272
  126MOL0     C16536   4.787   6.317  11.870  0.3317 -0.0372  0.0795
  126MOL0     C16537   4.759   6.447  11.956 -0.2067 -0.3792 -0.7736
  126MOL0     C16538   4.637   6.452  12.055  0.1003 -0.6258  1.3277
  126MOL0     C16539   4.501   6.447  11.982  0.4921  0.1224 -0.2776
  126MOL0     C16540   4.479   6.561  11.881  1.0999  0.1770  0.4161
  126MOL0     C16541   4.501   6.692  11.932 -0.0144 -0.2446 -0.2530
  126MOL0     C16542   4.427   6.806  11.868 -0.3677 -0.2814  0.1515
  126MOL0     C16543   4.281   6.809  11.868  0.7735 -0.3802 -0.1793
  126MOL0    Cl16544   4.203   6.956  11.802 -0.0735  0.2283 -0.5319
  126MOL0     C16545   4.977   6.014  11.969 -0.4391 -0.8473 -0.3824
  126MOL0     C16546   5.012   5.884  11.935 -0.1060 -0.5035 -0.8973
  126MOL0     O16547   5.265   5.783  11.793  0.3037  0.3809 -0.1747
  126MOL0     C16548   5.138   5.477  11.654  0.3979 -0.1316 -0.1497
  126MOL0     C16549   5.176   5.345  11.624 -0.3506 -0.3957  0.4493
  126MOL0     N16550   5.334   4.880  10.980  1.2931  0.1435  0.5457
  126MOL0     N16551   5.437   4.797  10.949  0.4230 -0.3404 -0.3442
  126MOL0     C16552   5.969   5.595  10.617 -0.4241  1.2019 -0.1176
  126MOL0     C16553   5.937   5.733  10.609 -0.1409 -0.7825  0.0813
  126MOL0     C16554   5.708   6.101  10.703  0.4009 -0.4098  0.1362
  126MOL0     C16555   5.582   6.140  10.664 -0.3496 -0.2848  0.4927
  126MOL0     C16556   5.544   6.276  10.664  0.2285 -0.2870  0.8831
  126MOL0     C16557   5.631   6.374  10.716 -0.3343 -0.5029  0.3173
  126MOL0     O16558   5.585   6.503  10.722 -0.4950  0.1776  0.6492
  126MOL0     C16559   5.670   6.617  10.706  0.0125 -0.6754 -0.1004
  126MOL0     C16560   5.683   6.655  10.556 -0.3840  0.1685  0.3719
  126MOL0     C16561   5.753   6.787  10.542 -0.6460 -0.5435 -0.1005
  126MOL0     C16562   5.902   6.770  10.560  0.1746 -0.2798 -0.7690
  126MOL0     C16563   5.956   6.790  10.697 -0.0826  0.0467 -0.5494
  126MOL0     C16564   6.004   6.814  10.810  0.7252 -1.2396  0.4209
  126MOL0     C16565   5.750   6.334  10.772 -0.3489 -0.0129 -0.2334
  126MOL0     C16566   5.789   6.198  10.764  0.6181  0.0369 -0.0566
  126MOL0     H16567   5.962   5.771  10.951  1.3623  1.2902  0.1509
  126MOL0     H16568   6.052   5.543  10.946 -1.9171 -1.3918  0.3457
  126MOL0     H16569   6.225   5.422  10.832 -1.1494  0.1853  1.1852
  126MOL0     H16570   6.243   5.294  10.695 -0.6010 -5.9129  2.6661
  126MOL0     H16571   6.052   5.261  10.920  1.8831  2.4043  3.8055
  126MOL0     H16572   6.225   5.207  10.925  2.0047  1.0405 -2.0735
  126MOL0     H16573   6.193   5.055  10.759 -0.9001 -1.0358  0.5231
  126MOL0     H16574   6.045   5.138  10.695 -0.8111 -2.5570 -0.2350
  126MOL0     H16575   6.028   4.916  10.780  0.6051  0.3074  0.3494
  126MOL0     H16576   6.061   4.983  10.948 -0.6105 -0.2472  0.7126
  126MOL0     H16577   5.813   5.012  10.769 -0.3083  3.0186  0.4730
  126MOL0     H16578   5.836   5.139  10.877  2.5882  0.7282 -0.8465
  126MOL0     H16579   5.712   5.021  11.034 -0.4101  2.0207 -0.9818
  126MOL0     H16580   5.859   4.961  11.071 -2.6121 -1.2181  1.2303
  126MOL0     H16581   5.708   4.815  10.858  2.9272 -1.0619 -1.2669
  126MOL0     H16582   5.850   4.753  10.946 -0.9506 -1.1266 -2.7385
  126MOL0     H16583   5.711   4.773  11.152  2.6672  0.1491 -1.6477
  126MOL0     H16584   5.657   4.651  11.047  2.9704 -1.3843  0.9691
  126MOL0     H16585   5.534   4.939  11.230 -1.7140 -3.4894  1.5964
  126MOL0     H16586   5.191   5.073  11.109 -1.9145 -3.7347  1.9784
  126MOL0     H16587   5.326   5.150  11.176  0.2554  0.6673  0.0740
  126MOL0     H16588   5.314   4.923  11.342  0.4158  2.0354  3.0960
  126MOL0     H16589   5.140   4.985  11.327 -0.2138 -2.6681 -2.7401
  126MOL0     H16590   5.411   5.126  11.394  0.1006  1.3015  0.5321
  126MOL0     H16591   5.260   5.209  11.393 -0.3259 -0.0590  2.1268
  126MOL0     H16592   5.337   4.978  11.571 -1.5258 -0.0327  0.7734
  126MOL0     H16593   5.195   5.063  11.591  0.4314  0.2629  3.5866
  126MOL0     H16594   5.483   5.360  11.769  0.8004 -0.9335 -1.5744
  126MOL0     H16595   5.429   5.580  11.796  0.1248 -0.6164  1.0194
  126MOL0     H16596   4.913   5.911  11.611 -0.0536  1.0589 -0.1420
  126MOL0     H16597   4.863   6.134  11.674  0.1104  0.2862 -0.5569
  126MOL0     H16598   4.692   6.275  11.834 -0.9284  1.9835  0.8904
  126MOL0     H16599   4.842   6.352  11.782 -0.9028  1.3826 -0.1802
  126MOL0     H16600   4.761   6.526  11.880  1.7360 -0.9282 -1.3579
  126MOL0     H16601   4.852   6.469  12.009  0.5955 -0.5783 -2.0469
  126MOL0     H16602   4.636   6.546  12.111 -2.6547 -0.9739  2.0100
  126MOL0     H16603   4.655   6.366  12.120  0.3417 -1.7810 -0.2219
  126MOL0     H16604   4.502   6.353  11.926  0.1623  0.2285 -0.4607
  126MOL0     H16605   4.422   6.459  12.056  1.5372 -2.5814  1.4229
  126MOL0     H16606   4.384   6.550  11.828  1.7374 -2.6576 -0.2734
  126MOL0     H16607   4.554   6.544  11.803 -0.5394 -0.2179 -1.1279
  126MOL0     H16608   4.608   6.713  11.928 -0.2375  1.1236  0.5183
  126MOL0     H16609   4.476   6.699  12.038  0.6508  1.5965 -0.1865
  126MOL0     H16610   4.455   6.894  11.927 -2.7536  2.0565 -1.9476
  126MOL0     H16611   4.452   6.834  11.765 -5.3043 -2.0335 -1.7940
  126MOL0     H16612   4.262   6.774  11.970  1.3526  0.1435  0.1177
  126MOL0     H16613   4.233   6.725  11.817  0.6807 -0.6390  0.3342
  126MOL0     H16614   5.000   6.045  12.071  0.8032  0.9355 -1.1514
  126MOL0     H16615   5.066   5.822  12.006 -0.0685  2.2011  1.6048
  126MOL0     H16616   5.040   5.518  11.629 -0.1074 -1.4997 -0.4692
  126MOL0     H16617   5.103   5.283  11.573 -0.6293  2.4423 -2.9834
  126MOL0     H16618   5.948   5.540  10.526 -0.7343 -0.0902  0.6966
  126MOL0     H16619   5.920   5.786  10.516  0.7868 -0.3673  0.1374
  126MOL0     H16620   5.509   6.068  10.628 -1.5250  1.5110 -0.8894
  126MOL0     H16621   5.445   6.298  10.626 -0.5377 -0.8111  2.4692
  126MOL0     H16622   5.775   6.606  10.735  0.2998  0.7785 -0.5072
  126MOL0     H16623   5.627   6.704  10.757  2.6270  0.8135 -0.2980
  126MOL0     H16624   5.736   6.577  10.501  0.8306  1.2027  0.0274
  126MOL0     H16625   5.582   6.662  10.515 -1.0449 -5.4832  0.2019
  126MOL0     H16626   5.715   6.863  10.611  2.5754  1.4335 -0.3011
  126MOL0     H16627   5.728   6.848  10.455 -1.9161  4.4444  3.3085
  126MOL0     H16628   5.942   6.673  10.527  2.0782 -0.1614  0.9486
  126MOL0     H16629   5.948   6.843  10.493  1.6820 -1.9082 -1.6112
  126MOL0     H16630   6.037   6.830  10.911  2.7186 -1.2458 -0.1804
  126MOL0     H16631   5.823   6.407  10.807  0.9973 -1.9347  1.1281
  126MOL0     H16632   5.885   6.169  10.804  0.4780 -1.9305 -1.0597
  127MOL0     O16633   4.427   8.575   1.169 -0.2430  0.3184 -0.0580
  127MOL0     C16634   4.373   8.630   1.254  0.4330 -0.2862  0.2374
  127MOL0     O16635   4.233   8.646   1.260  0.6065  0.6538  0.3118
  127MOL0     C16636   4.157   8.615   1.140 -0.4350  0.4757 -0.8075
  127MOL0     C16637   4.193   8.660   1.011  0.7967 -0.2181  1.1945
  127MOL0     C16638   4.091   8.635   0.908  0.7035  1.0138  0.5867
  127MOL0     C16639   3.973   8.560   0.937 -0.2929  0.1969  0.1981
  127MOL0     O16640   3.876   8.513   0.854  0.3078 -1.1202  0.9555
  127MOL0     C16641   3.889   8.548   0.714 -0.3411  0.1314 -1.2657
  127MOL0     C16642   3.761   8.508   0.643  1.1538 -0.2954  0.7025
  127MOL0     C16643   3.631   8.580   0.672  0.1752 -0.7404  0.0002
  127MOL0     C16644   3.521   8.553   0.570  0.0101 -0.5091 -0.3749
  127MOL0     C16645   3.439   8.682   0.533 -0.4884 -0.0199  0.5281
  127MOL0     C16646   3.357   8.736   0.653 -0.1407 -0.3232  0.2495
  127MOL0     C16647   3.262   8.847   0.606 -0.2953 -0.2882  0.0485
  127MOL0     C16648   3.156   8.851   0.718 -0.7947 -0.5668 -0.4791
  127MOL0     N16649   3.068   8.971   0.710  0.6935 -0.3963  0.0459
  127MOL0     C16650   2.993   9.011   0.598  0.0719  0.0218  0.7268
  127MOL0     C16651   2.935   9.129   0.629  0.6038 -0.4803  1.0220
  127MOL0     C16652   2.883   9.228   0.528  0.0563  0.3145  0.6804
  127MOL0     C16653   2.731   9.257   0.535  0.7913 -0.9314  0.1581
  127MOL0     C16654   2.660   9.135   0.464 -0.1530 -0.3992  0.5755
  127MOL0     C16655   2.515   9.152   0.461  0.2126  0.4301 -0.1799
  127MOL0     O16656   2.477   9.047   0.373 -0.7007 -0.0758  0.2825
  127MOL0     C16657   2.401   9.095   0.274 -0.7520  0.1089 -0.3240
  127MOL0     C16658   2.446   9.173   0.163 -0.4686 -0.2801 -0.3825
  127MOL0     C16659   2.351   9.229   0.075 -0.3124 -0.5614 -0.5537
  127MOL0     C16660   2.221   9.200   0.086  0.2285  0.5602  0.3102
  127MOL0     C16661   2.122   9.254  -0.009 -0.5112  0.4326  0.0304
  127MOL0     O16662   2.184   9.287  -0.128  0.1624  0.3006 -0.0637
  127MOL0     C16663   2.119   9.331  -0.237 -0.0342 -0.4465  1.1566
  127MOL0     C16664   2.166   9.293  -0.360  0.0544 -0.0605 -0.5662
  127MOL0     C16665   2.102   9.327  -0.476 -0.3759 -0.2050  1.1019
  127MOL0     C16666   1.979   9.402  -0.474 -1.0308 -0.0252 -0.6997
  127MOL0     O16667   1.914   9.441  -0.585  0.1484 -0.3101 -0.3088
  127MOL0     C16668   1.927   9.582  -0.611  0.2490 -0.0897 -0.3465
  127MOL0     C16669   1.924   9.619  -0.756 -0.4527 -0.8725  0.5555
  127MOL0     C16670   2.061   9.638  -0.832 -0.5317  0.1185  0.7374
  127MOL0     C16671   2.147   9.507  -0.836  0.0614  0.2733  0.4601
  127MOL0     C16672   2.229   9.489  -0.960  0.6021  0.8579  0.9656
  127MOL0     C16673   2.344   9.590  -0.971  0.6300  0.0708 -0.5263
  127MOL0     C16674   2.332   9.686  -1.099 -0.4876  0.2970 -0.3791
  127MOL0     C16675   2.277   9.822  -1.056 -0.3526  0.0835  0.4869
  127MOL0    Cl16676   2.402   9.920  -0.979  0.2363 -0.2243 -0.4035
  127MOL0     C16677   1.936   9.440  -0.347  0.1350  0.3164  0.0108
  127MOL0     C16678   2.002   9.410  -0.233 -0.4132 -1.1745  0.9972
  127MOL0     O16679   2.002   9.264   0.016  0.6978 -0.0752 -0.3876
  127MOL0     C16680   2.177   9.117   0.187 -1.0882  0.4712 -0.7581
  127MOL0     C16681   2.262   9.072   0.289 -0.5885  0.8756  0.1216
  127MOL0     N16682   2.971   9.155   0.758  0.0359 -0.6567  0.2005
  127MOL0     N16683   3.054   9.069   0.802  0.3510 -0.7576 -0.5181
  127MOL0     C16684   3.943   8.523   1.066  0.0165  0.3475  0.0921
  127MOL0     C16685   4.035   8.551   1.166  0.1731  0.5851 -0.1656
  127MOL0     C16686   4.461   8.679   1.368 -0.0003  0.5527  1.0538
  127MOL0     C16687   4.417   8.756   1.476  0.9697 -0.5740  0.3174
  127MOL0     C16688   4.499   8.787   1.593 -0.0505 -0.4366 -0.1150
  127MOL0     C16689   4.639   8.761   1.587 -0.2820 -0.3723 -0.8995
  127MOL0     O16690   4.737   8.792   1.683 -0.2029 -0.8287  0.3713
  127MOL0     C16691   4.720   8.913   1.756 -0.4812  0.2650 -0.4715
  127MOL0     C16692   4.815   8.915   1.880 -0.7736  0.7888  0.7818
  127MOL0     C16693   4.813   9.054   1.947 -0.8450 -0.4952  1.1045
  127MOL0     C16694   4.922   9.063   2.056  0.0241  0.3248  0.9551
  127MOL0     C16695   4.892   9.174   2.147 -0.8579 -0.3347  0.5228
  127MOL0     C16696   4.873   9.271   2.212  0.9928  0.7970 -1.0258
  127MOL0     C16697   4.683   8.691   1.478  1.1987  0.6268 -0.1198
  127MOL0     C16698   4.603   8.647   1.374  1.0299  0.0047 -0.7606
  127MOL0     H16699   4.279   8.726   1.008  0.4040  0.2802 -0.5301
  127MOL0     H16700   4.119   8.659   0.807  2.0579 -1.3615  0.3087
  127MOL0     H16701   3.981   8.508   0.672  1.0869  1.4037  0.5028
  127MOL0     H16702   3.906   8.655   0.698  0.2645  0.8539  3.1042
  127MOL0     H16703   3.743   8.407   0.682  0.9313 -0.4876  0.1207
  127MOL0     H16704   3.792   8.495   0.539  1.0511 -0.5024  0.6962
  127MOL0     H16705   3.658   8.686   0.681  2.5484 -1.2043 -0.9315
  127MOL0     H16706   3.588   8.555   0.770  1.8461 -1.1275  0.6858
  127MOL0     H16707   3.573   8.519   0.480  0.2349 -2.7976  0.5719
  127MOL0     H16708   3.455   8.470   0.597 -1.8183  1.1258  0.4747
  127MOL0     H16709   3.377   8.672   0.444 -1.3791  0.3437  1.0916
  127MOL0     H16710   3.514   8.760   0.513  0.6549 -1.4683 -1.1706
  127MOL0     H16711   3.419   8.764   0.739 -1.0356  1.8024  0.2671
  127MOL0     H16712   3.297   8.652   0.688  2.9539 -2.9379 -0.3041
  127MOL0     H16713   3.319   8.941   0.602 -0.9253  0.0784 -0.4830
  127MOL0     H16714   3.210   8.826   0.513  0.1773 -2.2179  0.1962
  127MOL0     H16715   3.213   8.874   0.808  0.7247  1.1918 -1.8103
  127MOL0     H16716   3.089   8.764   0.717 -1.9454  0.3051 -0.9859
  127MOL0     H16717   2.996   8.969   0.499 -1.0463  0.7000  0.3877
  127MOL0     H16718   2.922   9.193   0.432  2.0913 -0.2154  1.6430
  127MOL0     H16719   2.940   9.321   0.539 -0.0702  0.6243 -0.9742
  127MOL0     H16720   2.698   9.354   0.496  1.3095 -0.8397 -0.0562
  127MOL0     H16721   2.696   9.252   0.639  2.1933  0.5677  0.7399
  127MOL0     H16722   2.694   9.131   0.360  1.3457 -5.9388  0.9522
  127MOL0     H16723   2.690   9.041   0.510 -1.0200 -1.6545 -1.2757
  127MOL0     H16724   2.483   9.248   0.419 -0.5561 -0.0795 -0.8036
  127MOL0     H16725   2.476   9.143   0.563  0.0867 -2.2001 -0.3933
  127MOL0     H16726   2.553   9.189   0.152 -0.5751  0.6225 -0.1384
  127MOL0     H16727   2.403   9.278  -0.006  2.1720 -1.6452  0.2975
  127MOL0     H16728   2.249   9.223  -0.352  0.2026  0.3183  2.5382
  127MOL0     H16729   2.141   9.283  -0.567  1.1595 -0.1907  1.7258
  127MOL0     H16730   2.015   9.623  -0.560 -1.7636  2.3700  1.3955
  127MOL0     H16731   1.839   9.628  -0.566 -0.1112 -0.0944 -1.0310
  127MOL0     H16732   1.873   9.716  -0.762  3.1034  1.1158 -0.2835
  127MOL0     H16733   1.871   9.540  -0.809  0.6670 -1.3238  0.0862
  127MOL0     H16734   2.113   9.727  -0.795  1.7409 -0.8447  0.0741
  127MOL0     H16735   2.026   9.660  -0.933 -1.0612 -1.0633  0.6406
  127MOL0     H16736   2.215   9.511  -0.750 -0.2838  0.2353  0.7352
  127MOL0     H16737   2.093   9.413  -0.822  2.7474 -1.7099 -1.4384
  127MOL0     H16738   2.166   9.509  -1.047  0.9373  0.0072  0.5141
  127MOL0     H16739   2.260   9.384  -0.968 -0.0962  0.6963  0.2998
  127MOL0     H16740   2.442   9.542  -0.982 -0.4847 -3.8271  3.6809
  127MOL0     H16741   2.357   9.647  -0.878 -1.6271  0.5623 -0.4750
  127MOL0     H16742   2.431   9.694  -1.143 -1.6193 -4.3672 -4.6372
  127MOL0     H16743   2.269   9.647  -1.179 -0.6880  0.8724 -0.5001
  127MOL0     H16744   2.190   9.824  -0.991  0.5767  0.3176  1.7690
  127MOL0     H16745   2.259   9.880  -1.147 -2.7133 -0.7041  0.3755
  127MOL0     H16746   1.847   9.498  -0.326  0.1913  0.4678 -0.1664
  127MOL0     H16747   1.960   9.452  -0.142 -0.3419 -0.9367  0.9211
  127MOL0     H16748   2.073   9.092   0.203 -1.2698  1.1616 -0.8106
  127MOL0     H16749   2.218   9.008   0.365  2.3927 -4.6996 -2.2381
  127MOL0     H16750   3.852   8.465   1.082 -0.2007  0.0886 -1.8316
  127MOL0     H16751   4.010   8.520   1.267  1.4989  4.5974  1.6301
  127MOL0     H16752   4.323   8.810   1.476  0.2700 -1.7366  1.3008
  127MOL0     H16753   4.455   8.835   1.679  0.3060  0.2965 -0.3306
  127MOL0     H16754   4.621   8.927   1.800 -0.6185  2.8652 -1.4832
  127MOL0     H16755   4.745   8.999   1.694 -1.0825  0.0190 -1.0751
  127MOL0     H16756   4.765   8.846   1.949 -0.4074 -0.8857 -0.5724
  127MOL0     H16757   4.915   8.879   1.854 -1.6051 -1.0592 -0.0597
  127MOL0     H16758   4.715   9.062   1.997 -0.8423 -2.0099  1.4118
  127MOL0     H16759   4.826   9.131   1.871  0.8000 -0.7822  1.0567
  127MOL0     H16760   4.945   8.974   2.115  3.8275  2.4899  3.2083
  127MOL0     H16761   5.018   9.085   2.008 -0.8746  1.4350 -0.3811
  127MOL0     H16762   4.867   9.363   2.265 -0.9274  0.2352 -0.1728
  127MOL0     H16763   4.788   8.666   1.487  0.7134 -1.5974 -0.1409
  127MOL0     H16764   4.648   8.589   1.294  1.4075 -0.3671 -0.2875
  128MOL0     O16765   8.098  10.511   3.262  0.0285  0.0273  0.1136
  128MOL0     C16766   8.139  10.613   3.193 -0.0654  0.2502  0.0156
  128MOL0     O16767   8.177  10.618   3.060 -0.1619 -0.0353 -0.3453
  128MOL0     C16768   8.113  10.542   2.971 -0.2013  0.6213  0.4219
  128MOL0     C16769   8.175  10.526   2.850  0.7975  0.1158  0.5012
  128MOL0     C16770   8.113  10.449   2.755  0.0630  0.4935  0.4040
  128MOL0     C16771   7.994  10.381   2.777  1.4364  0.1835 -1.3023
  128MOL0     O16772   7.942  10.308   2.674 -0.5696  0.4863 -0.2740
  128MOL0     C16773   7.825  10.222   2.694 -0.3914 -0.1156  0.8572
  128MOL0     C16774   7.791  10.162   2.561  0.6514  1.0507  0.4459
  128MOL0     C16775   7.650  10.103   2.573  0.4145 -0.2813  0.1738
  128MOL0     C16776   7.627   9.986   2.469 -0.1407  0.6019 -0.0733
  128MOL0     C16777   7.502   9.905   2.518  0.3009 -0.0942  0.0232
  128MOL0     C16778   7.475   9.764   2.459 -0.0797  0.3669 -1.7455
  128MOL0     C16779   7.345   9.702   2.490  0.1201 -0.3030 -0.2578
  128MOL0     C16780   7.332   9.566   2.410 -0.8738 -0.3606 -0.5033
  128MOL0     N16781   7.194   9.512   2.424 -1.0213 -0.4437  0.8663
  128MOL0     C16782   7.134   9.420   2.345  0.7997  0.4662 -1.6250
  128MOL0     C16783   7.003   9.433   2.380  0.3780  0.8406  0.8888
  128MOL0     C16784   6.884   9.370   2.314  0.0718 -0.2576 -0.0965
  128MOL0     C16785   6.832   9.252   2.391 -1.2574 -0.4715 -0.3054
  128MOL0     C16786   6.773   9.154   2.292  0.2709  0.5610 -0.0832
  128MOL0     C16787   6.693   9.041   2.370  0.3054  0.6312  0.7406
  128MOL0     O16788   6.689   8.913   2.292  0.0366  0.1989  0.2150
  128MOL0     C16789   6.609   8.804   2.325  0.7181  0.5869 -0.3980
  128MOL0     C16790   6.566   8.713   2.226 -0.4460 -0.6353 -0.9318
  128MOL0     C16791   6.483   8.604   2.258  0.0014  0.3008 -0.4211
  128MOL0     C16792   6.456   8.566   2.389 -0.1798  0.1540 -0.4881
  128MOL0     C16793   6.376   8.445   2.422 -0.1377  0.3082 -0.3130
  128MOL0     O16794   6.308   8.389   2.317  0.0039 -0.4729 -0.4503
  128MOL0     C16795   6.215   8.293   2.350  0.0206  0.5049 -0.4979
  128MOL0     C16796   6.085   8.328   2.382  0.1023  1.0522 -0.1057
  128MOL0     C16797   5.985   8.229   2.387 -0.4259 -0.0133  0.7032
  128MOL0     C16798   6.017   8.089   2.386  1.1084  0.2761  1.0953
  128MOL0     O16799   5.917   7.996   2.363  0.1903 -0.3541  0.7248
  128MOL0     C16800   5.801   7.990   2.454 -0.1787  0.0125 -0.7942
  128MOL0     C16801   5.800   7.844   2.505 -0.5954 -0.2372  0.8194
  128MOL0     C16802   5.697   7.839   2.613 -0.2968  0.1583 -0.0455
  128MOL0     C16803   5.693   7.704   2.675  0.5416  0.5640 -0.2621
  128MOL0     C16804   5.601   7.708   2.800  0.1211 -0.3398  0.2597
  128MOL0     C16805   5.464   7.780   2.800 -0.5055 -0.5448 -0.1281
  128MOL0     C16806   5.355   7.741   2.689  0.0153 -0.6373  0.9312
  128MOL0     C16807   5.345   7.603   2.648  0.0412 -0.9210 -0.4332
  128MOL0    Cl16808   5.185   7.587   2.557  0.2784  0.1156 -0.2296
  128MOL0     C16809   6.152   8.050   2.368 -0.3275 -0.3542 -0.3502
  128MOL0     C16810   6.251   8.158   2.345 -0.0112 -0.0816 -0.2061
  128MOL0     O16811   6.350   8.425   2.541  0.6725  0.2788 -0.5439
  128MOL0     C16812   6.497   8.656   2.488 -0.5588 -0.0114 -0.2118
  128MOL0     C16813   6.569   8.774   2.459  0.2606  0.2116  0.3373
  128MOL0     N16814   6.984   9.529   2.484 -0.3485 -0.1888  0.5233
  128MOL0     N16815   7.094   9.577   2.500  0.1467  0.0374  0.5891
  128MOL0     C16816   7.933  10.396   2.902 -0.5704 -0.4370  0.4290
  128MOL0     C16817   7.983  10.489   2.994 -0.6408 -0.2067  0.5542
  128MOL0     C16818   8.175  10.726   3.279 -0.9354 -0.3151  0.6660
  128MOL0     C16819   8.121  10.749   3.407 -0.3426  0.4144  0.3681
  128MOL0     C16820   8.176  10.848   3.492 -0.2315 -0.1296 -0.1900
  128MOL0     C16821   8.276  10.940   3.450 -0.6709  0.3698  0.1281
  128MOL0     O16822   8.304  11.048   3.531 -0.3138  0.1801 -0.3453
  128MOL0     C16823   8.414  11.130   3.504 -0.9410  0.0918 -0.0882
  128MOL0     C16824   8.393  11.222   3.400 -1.1611  0.2392  0.6201
  128MOL0     C16825   8.313  11.345   3.448 -0.6344 -0.7145  0.5919
  128MOL0     C16826   8.170  11.309   3.479  0.0507 -0.4233  0.1604
  128MOL0     C16827   8.112  11.436   3.520 -0.0166  0.0742 -0.0515
  128MOL0     C16828   8.061  11.547   3.536 -0.4867 -0.0544  0.2808
  128MOL0     C16829   8.337  10.917   3.323 -0.8431 -0.8316  0.4580
  128MOL0     C16830   8.280  10.816   3.245 -0.8961  0.3617  0.7724
  128MOL0     H16831   8.268  10.578   2.829 -2.3090  5.5932 -1.9114
  128MOL0     H16832   8.172  10.442   2.665  1.6424  2.2617  1.2403
  128MOL0     H16833   7.735  10.272   2.732 -1.2114  0.4264 -1.6085
  128MOL0     H16834   7.843  10.137   2.760  0.2944 -2.8236 -2.4969
  128MOL0     H16835   7.867  10.088   2.532 -3.6136 -2.0732 -4.6891
  128MOL0     H16836   7.780  10.244   2.491  1.2925  0.4277 -0.4096
  128MOL0     H16837   7.576  10.181   2.553 -0.1441 -0.8241  0.1047
  128MOL0     H16838   7.638  10.058   2.672 -3.5785  0.6265  0.2480
  128MOL0     H16839   7.603  10.028   2.371 -0.8748 -2.1905 -1.1943
  128MOL0     H16840   7.716   9.923   2.458 -0.4933  0.2196 -0.7770
  128MOL0     H16841   7.416   9.972   2.505 -1.6833 -2.7761 -1.6482
  128MOL0     H16842   7.518   9.891   2.625  1.5296 -0.8198 -0.2338
  128MOL0     H16843   7.552   9.694   2.492 -1.5757 -1.2731 -1.6094
  128MOL0     H16844   7.475   9.792   2.353  1.5629  0.5438 -1.7233
  128MOL0     H16845   7.346   9.677   2.596  0.5234 -1.2486 -0.4730
  128MOL0     H16846   7.274   9.780   2.461  3.1365  2.4715 -0.7307
  128MOL0     H16847   7.407   9.501   2.456  1.2900  3.1154  1.3897
  128MOL0     H16848   7.343   9.588   2.303 -2.8880 -2.6686 -1.2514
  128MOL0     H16849   7.182   9.357   2.272 -0.5325 -1.0435 -1.2455
  128MOL0     H16850   6.916   9.333   2.217  4.2014  5.1288 -1.2991
  128MOL0     H16851   6.798   9.439   2.311  1.2645  1.2515 -2.4243
  128MOL0     H16852   6.771   9.289   2.473 -1.7634 -0.4896 -0.6688
  128MOL0     H16853   6.919   9.198   2.431  0.8286  2.9213  0.1590
  128MOL0     H16854   6.696   9.199   2.228 -1.5935 -0.8443  1.0588
  128MOL0     H16855   6.848   9.120   2.221 -1.1227  3.3356 -3.2080
  128MOL0     H16856   6.590   9.073   2.388 -0.6292 -0.9378 -1.4124
  128MOL0     H16857   6.743   9.011   2.463 -1.0871  0.3618  1.4345
  128MOL0     H16858   6.606   8.733   2.127  1.0273 -0.6758 -0.3670
  128MOL0     H16859   6.448   8.549   2.171  1.1860 -1.8879  0.4171
  128MOL0     H16860   6.057   8.432   2.395  0.3044  1.1899 -0.7498
  128MOL0     H16861   5.879   8.253   2.394 -0.2993  2.7051 -3.6194
  128MOL0     H16862   5.705   8.014   2.406 -0.9844 -1.9794 -0.2926
  128MOL0     H16863   5.808   8.063   2.536 -1.5153 -0.0158 -0.6285
  128MOL0     H16864   5.899   7.813   2.541  0.2675  1.3281 -0.1364
  128MOL0     H16865   5.782   7.781   2.417  0.3262  0.4781  0.1002
  128MOL0     H16866   5.598   7.861   2.573 -2.0925 -2.4738  2.5148
  128MOL0     H16867   5.725   7.914   2.688  2.4271  2.0125 -2.6657
  128MOL0     H16868   5.645   7.633   2.606  1.5805 -0.9205  0.4733
  128MOL0     H16869   5.794   7.663   2.691  0.2760 -0.7192 -1.6028
  128MOL0     H16870   5.656   7.762   2.878  0.3321 -0.7582  0.4032
  128MOL0     H16871   5.571   7.605   2.818 -1.2513 -0.2079 -1.0892
  128MOL0     H16872   5.476   7.887   2.783  1.1389 -1.0247 -2.5717
  128MOL0     H16873   5.412   7.750   2.892 -2.9940 -0.9565 -1.5664
  128MOL0     H16874   5.249   7.759   2.708 -0.5175 -1.3900 -1.0541
  128MOL0     H16875   5.372   7.793   2.594  1.6991 -2.9481 -0.1282
  128MOL0     H16876   5.351   7.540   2.737  0.7706 -1.8398 -1.1176
  128MOL0     H16877   5.425   7.579   2.577  0.9822  0.9918 -0.0713
  128MOL0     H16878   6.169   7.943   2.367 -0.3478 -0.3878  1.1682
  128MOL0     H16879   6.357   8.137   2.348 -0.0781 -0.5619 -0.9965
  128MOL0     H16880   6.471   8.644   2.592  0.2627  3.5162  0.5376
  128MOL0     H16881   6.597   8.843   2.538  1.9410 -0.2246  0.1537
  128MOL0     H16882   7.833  10.353   2.905 -1.3652  0.7445 -3.1229
  128MOL0     H16883   7.917  10.500   3.080  0.1309 -2.3387  1.4930
  128MOL0     H16884   8.059  10.666   3.439 -1.4324  0.7197 -0.8499
  128MOL0     H16885   8.133  10.867   3.590  2.7464 -1.8990  1.6191
  128MOL0     H16886   8.503  11.070   3.480 -0.2271  2.0103 -2.6627
  128MOL0     H16887   8.459  11.168   3.596  2.7825 -3.8440  0.0568
  128MOL0     H16888   8.486  11.260   3.358 -1.3853  1.6267  1.3528
  128MOL0     H16889   8.329  11.167   3.329 -0.8128  0.0621  0.4410
  128MOL0     H16890   8.318  11.407   3.358  3.4120 -3.9063 -1.7895
  128MOL0     H16891   8.365  11.376   3.539  0.4874 -1.1892  0.1419
  128MOL0     H16892   8.111  11.262   3.400  1.1760 -2.8266  0.6410
  128MOL0     H16893   8.168  11.234   3.559  0.2953 -0.5040  0.0926
  128MOL0     H16894   8.040  11.652   3.546  3.2528  1.4238 -3.9824
  128MOL0     H16895   8.415  10.979   3.281 -2.3229  1.4620  0.9244
  128MOL0     H16896   8.320  10.804   3.145 -0.0276  1.5569  0.9555
  129MOL0     O16897   5.268   8.094   5.835  0.2040 -0.0334  0.0939
  129MOL0     C16898   5.150   8.098   5.802  0.6555 -0.5648 -0.2105
  129MOL0     O16899   5.037   8.132   5.877  0.8823 -0.1071  0.2906
  129MOL0     C16900   5.063   8.203   5.996  0.2760  0.1549 -1.1836
  129MOL0     C16901   5.144   8.317   5.994 -0.4406 -1.2930  0.9817
  129MOL0     C16902   5.154   8.390   6.118  0.8763  0.6680  0.0840
  129MOL0     C16903   5.074   8.353   6.226  0.2463  0.0249 -0.1290
  129MOL0     O16904   5.078   8.432   6.339 -0.3838 -0.0751 -0.4679
  129MOL0     C16905   5.185   8.518   6.376  0.5070  1.2260  0.1224
  129MOL0     C16906   5.142   8.595   6.500 -0.0625 -0.4992  0.1562
  129MOL0     C16907   5.256   8.680   6.558 -0.1004 -0.4140 -0.6507
  129MOL0     C16908   5.337   8.757   6.455 -0.1866  0.1508 -0.9007
  129MOL0     C16909   5.428   8.868   6.504  0.1686 -0.7052 -0.3074
  129MOL0     C16910   5.548   8.800   6.580  0.2708  0.3580 -0.2329
  129MOL0     C16911   5.632   8.918   6.630 -0.3830  0.5729 -0.0307
  129MOL0     C16912   5.764   8.868   6.692  0.1055 -0.1398 -0.7595
  129MOL0     N16913   5.830   8.977   6.760  0.1071 -0.6786 -0.8838
  129MOL0     C16914   5.762   9.049   6.857  0.0272  0.6062 -1.1035
  129MOL0     C16915   5.855   9.130   6.906  0.3032 -0.4528 -0.0973
  129MOL0     C16916   5.835   9.220   7.027 -0.3082  0.5034  0.0627
  129MOL0     C16917   5.802   9.362   6.990  0.4742  0.4014  0.4264
  129MOL0     C16918   5.726   9.440   7.096  0.1007  0.0390  0.4546
  129MOL0     C16919   5.778   9.434   7.238  0.2422  0.7811  1.1616
  129MOL0     O16920   5.904   9.498   7.240 -0.1323  0.6185  0.3440
  129MOL0     C16921   5.974   9.550   7.347  1.2098  0.3502  0.1309
  129MOL0     C16922   5.917   9.541   7.477 -0.4164 -0.6877 -0.3751
  129MOL0     C16923   5.990   9.585   7.586 -0.0052 -0.6852 -0.0652
  129MOL0     C16924   6.124   9.630   7.565  0.1547 -0.7953  0.1173
  129MOL0     C16925   6.197   9.677   7.687  0.0194  0.9926 -0.1229
  129MOL0     O16926   6.129   9.688   7.811 -0.1561 -0.2882 -0.5556
  129MOL0     C16927   6.192   9.766   7.899  1.2204 -0.5921 -0.4781
  129MOL0     C16928   6.209   9.896   7.853 -0.1425  0.1930 -0.3990
  129MOL0     C16929   6.272   9.988   7.933 -0.2509  0.4293 -0.0872
  129MOL0     C16930   6.324   9.949   8.065  0.2303 -0.7099  0.9784
  129MOL0     O16931   6.375  10.038   8.158  0.2925  0.0142  0.8227
  129MOL0     C16932   6.462  10.137   8.131 -0.3480 -0.3775 -0.2517
  129MOL0     C16933   6.511  10.209   8.261  0.2872 -0.2510  0.2002
  129MOL0     C16934   6.591  10.327   8.223  0.1655  0.1693  0.1785
  129MOL0     C16935   6.649  10.395   8.341 -1.2451 -0.6183  0.0402
  129MOL0     C16936   6.790  10.331   8.367 -0.0185 -0.7296  0.3856
  129MOL0     C16937   6.848  10.416   8.484 -0.1410 -0.9725 -0.4974
  129MOL0     C16938   7.009  10.414   8.493  0.0133  0.3718 -0.4001
  129MOL0     C16939   7.082  10.521   8.585  0.0509  0.7541 -0.1644
  129MOL0    Cl16940   7.261  10.508   8.573 -0.0159 -0.0795  0.3567
  129MOL0     C16941   6.306   9.818   8.103 -0.0409 -0.2683 -0.9225
  129MOL0     C16942   6.251   9.720   8.027  0.6841  0.1314 -0.2236
  129MOL0     O16943   6.314   9.712   7.661 -0.3503  0.4343 -0.4864
  129MOL0     C16944   6.182   9.634   7.435  0.5702 -0.2870 -0.3858
  129MOL0     C16945   6.103   9.596   7.328 -0.3339 -0.5746  0.0388
  129MOL0     N16946   5.967   9.117   6.830  0.0450  0.8131 -0.1722
  129MOL0     N16947   5.954   9.016   6.754  0.1105  0.3495 -0.2532
  129MOL0     C16948   4.994   8.245   6.224  0.3831 -0.2451  0.5112
  129MOL0     C16949   4.987   8.170   6.106  0.8180 -0.6642 -0.2400
  129MOL0     C16950   5.132   8.059   5.659 -0.3130  0.2207  0.7612
  129MOL0     C16951   5.010   8.081   5.590 -0.4670 -0.2365 -1.2739
  129MOL0     C16952   4.998   8.030   5.465 -0.7592 -0.1028  0.1921
  129MOL0     C16953   5.103   7.949   5.402 -0.4337 -0.4961  0.7556
  129MOL0     O16954   5.061   7.900   5.277  0.4261 -0.3260 -0.6120
  129MOL0     C16955   5.163   7.825   5.205  0.1609  0.3262  0.0091
  129MOL0     C16956   5.254   7.918   5.134 -0.2999  0.4996 -0.1068
  129MOL0     C16957   5.382   7.849   5.077 -0.0845  0.2662 -0.5657
  129MOL0     C16958   5.507   7.833   5.168 -0.2717  0.1581  0.2369
  129MOL0     C16959   5.611   7.770   5.091 -1.2733  0.3328 -0.3483
  129MOL0     C16960   5.694   7.717   5.017  0.1510  0.6415 -0.1547
  129MOL0     C16961   5.217   7.927   5.468 -0.1157 -0.6487 -0.8802
  129MOL0     C16962   5.231   7.982   5.595 -1.1404 -0.7410  0.1366
  129MOL0     H16963   5.214   8.340   5.915  0.2577 -1.4432  1.5501
  129MOL0     H16964   5.219   8.476   6.126 -0.7134  1.7497  4.5890
  129MOL0     H16965   5.194   8.590   6.294 -3.4294  3.4239  1.3585
  129MOL0     H16966   5.274   8.456   6.392 -1.5836 -1.6253  1.6289
  129MOL0     H16967   5.115   8.524   6.579  1.5853  0.3947  1.5682
  129MOL0     H16968   5.057   8.656   6.468  0.1162 -1.3671 -2.1581
  129MOL0     H16969   5.310   8.616   6.629 -0.5412 -0.7202 -0.5869
  129MOL0     H16970   5.209   8.745   6.632  3.5475  0.8863  0.7680
  129MOL0     H16971   5.403   8.675   6.426  0.4977  0.5577 -0.5056
  129MOL0     H16972   5.276   8.790   6.371 -2.6131  1.3090  1.1567
  129MOL0     H16973   5.374   8.929   6.577 -1.5653  0.6354 -2.5490
  129MOL0     H16974   5.464   8.937   6.427  1.1897 -0.5200  0.3226
  129MOL0     H16975   5.599   8.726   6.519 -0.8059 -0.8452  0.2822
  129MOL0     H16976   5.509   8.737   6.661 -1.0858 -0.5958 -1.5705
  129MOL0     H16977   5.650   8.988   6.548  0.6413  0.4013  0.0446
  129MOL0     H16978   5.563   8.962   6.702 -3.2299 -0.2184 -2.0686
  129MOL0     H16979   5.826   8.816   6.619  1.1834 -2.4153  1.6347
  129MOL0     H16980   5.742   8.792   6.767 -0.6464  1.7141  1.0118
  129MOL0     H16981   5.666   9.025   6.901  0.2058 -0.0891 -1.0841
  129MOL0     H16982   5.928   9.223   7.085 -1.1317  0.4255  1.4270
  129MOL0     H16983   5.754   9.177   7.087 -2.1562  3.3129 -0.2289
  129MOL0     H16984   5.736   9.357   6.903  2.3675 -0.8259 -1.0282
  129MOL0     H16985   5.887   9.421   6.955  0.6796 -1.0948 -1.8147
  129MOL0     H16986   5.715   9.545   7.066 -0.7107 -0.0304  0.4910
  129MOL0     H16987   5.622   9.406   7.105  0.2876 -0.8415 -0.5064
  129MOL0     H16988   5.777   9.331   7.276 -4.0504 -1.1123 -3.0816
  129MOL0     H16989   5.703   9.494   7.290  1.5922  1.2864  2.6106
  129MOL0     H16990   5.821   9.494   7.496  0.4425 -2.6774 -0.7351
  129MOL0     H16991   5.951   9.582   7.687  3.9611 -1.1857  1.6264
  129MOL0     H16992   6.150   9.927   7.767 -1.1860  4.1811  1.5210
  129MOL0     H16993   6.269  10.092   7.902 -2.5187 -0.2504 -2.4975
  129MOL0     H16994   6.429  10.211   8.058  0.5680 -0.5667 -0.8739
  129MOL0     H16995   6.552  10.086   8.094 -0.6356 -1.1201  0.0607
  129MOL0     H16996   6.570  10.140   8.323  2.7141  1.0141 -0.5506
  129MOL0     H16997   6.418  10.243   8.307 -0.6222  1.1397 -2.4709
  129MOL0     H16998   6.523  10.395   8.171  0.2289 -1.4875 -2.1711
  129MOL0     H16999   6.675  10.305   8.157  1.2971 -0.9360  1.8811
  129MOL0     H17000   6.663  10.499   8.308 -1.1459 -0.7878 -0.4631
  129MOL0     H17001   6.593  10.379   8.433  0.6677 -1.1723  1.1638
  129MOL0     H17002   6.857  10.343   8.281  1.3294  2.8712  1.7356
  129MOL0     H17003   6.779  10.227   8.396 -2.0863 -1.1813 -1.7890
  129MOL0     H17004   6.812  10.382   8.581  1.9015  0.2768  0.7760
  129MOL0     H17005   6.823  10.522   8.473  2.6236 -0.3252 -1.3626
  129MOL0     H17006   7.025  10.321   8.548 -5.2403 -1.0201 -0.7210
  129MOL0     H17007   7.058  10.415   8.395  1.1397 -2.6318  0.0492
  129MOL0     H17008   7.049  10.497   8.686  0.3792 -0.8207 -0.4088
  129MOL0     H17009   7.054  10.624   8.561  2.3746  1.3519 -0.6338
  129MOL0     H17010   6.339   9.792   8.203 -1.7615 -3.1624 -1.0176
  129MOL0     H17011   6.247   9.622   8.073  5.9127 -0.6768 -0.7659
  129MOL0     H17012   6.282   9.670   7.415 -0.1413  1.2451 -1.3339
  129MOL0     H17013   6.145   9.597   7.228 -0.7813  2.1437 -0.1783
  129MOL0     H17014   4.941   8.202   6.309 -0.1303  0.9130  0.7993
  129MOL0     H17015   4.924   8.081   6.111  0.0562 -0.1577 -0.6260
  129MOL0     H17016   4.923   8.130   5.634 -0.3794 -1.9840  1.0828
  129MOL0     H17017   4.923   8.058   5.392  0.7866  0.1474 -1.3635
  129MOL0     H17018   5.124   7.766   5.122  3.2195 -0.9860 -0.6321
  129MOL0     H17019   5.212   7.761   5.280  0.7491 -2.2052 -2.3876
  129MOL0     H17020   5.197   7.971   5.058  0.7495  1.0018 -0.5675
  129MOL0     H17021   5.298   7.988   5.205  0.1379  3.1495 -2.7721
  129MOL0     H17022   5.403   7.918   4.995  0.3831 -0.7786 -1.3518
  129MOL0     H17023   5.360   7.747   5.044  2.2193 -0.5221  0.1028
  129MOL0     H17024   5.529   7.930   5.215 -1.3827  1.0646 -1.0363
  129MOL0     H17025   5.475   7.767   5.249 -1.9640  2.9967  2.0363
  129MOL0     H17026   5.775   7.690   4.952 -0.4475  0.0667 -0.6811
  129MOL0     H17027   5.299   7.873   5.422 -2.1060  0.2441 -6.1517
  129MOL0     H17028   5.324   7.957   5.644 -1.6318 -0.4461  1.2402
  130MOL0     O17029   9.664   8.653   6.290 -0.8849 -0.7767  0.1364
  130MOL0     C17030   9.562   8.668   6.360 -0.2671  0.2080  0.7311
  130MOL0     O17031   9.459   8.591   6.361  0.2324 -0.4062  0.2076
  130MOL0     C17032   9.463   8.490   6.264  0.3281  0.1727 -1.0445
  130MOL0     C17033   9.553   8.385   6.258 -0.7704 -0.4513  0.0699
  130MOL0     C17034   9.552   8.298   6.151  0.1680  0.8990 -0.5373
  130MOL0     C17035   9.462   8.311   6.047  1.0773 -0.2544  0.6199
  130MOL0     O17036   9.466   8.230   5.938  0.4448  0.0195 -0.6091
  130MOL0     C17037   9.379   8.112   5.945  0.9049 -0.1867 -0.9494
  130MOL0     C17038   9.432   8.009   6.033 -0.0743  0.8129  1.0973
  130MOL0     C17039   9.334   7.890   6.023 -0.3405  0.5405  0.1932
  130MOL0     C17040   9.391   7.767   6.096 -0.0197 -0.5768 -0.4030
  130MOL0     C17041   9.410   7.812   6.237 -0.1116  0.1168  0.2396
  130MOL0     C17042   9.426   7.687   6.329 -0.5589 -0.5003  0.6696
  130MOL0     C17043   9.435   7.731   6.478 -0.3032  0.7048 -0.2050
  130MOL0     C17044   9.438   7.618   6.586 -0.0353 -1.3795  0.0953
  130MOL0     N17045   9.421   7.675   6.716  0.9788  0.2644 -0.2958
  130MOL0     C17046   9.532   7.731   6.762  0.8543  0.0812 -0.0163
  130MOL0     C17047   9.509   7.722   6.899 -1.2301 -0.4113  0.1008
  130MOL0     C17048   9.589   7.785   7.014  0.3331 -0.7340  0.0063
  130MOL0     C17049   9.729   7.731   7.011  0.9014 -0.8534  0.9612
  130MOL0     C17050   9.815   7.799   7.117 -0.4829  0.3479  0.4672
  130MOL0     C17051   9.787   7.739   7.258 -0.3654 -0.7625 -0.2275
  130MOL0     O17052   9.837   7.607   7.266  0.0699  1.0247  0.3313
  130MOL0     C17053   9.954   7.590   7.336  0.4965  0.9072  1.1905
  130MOL0     C17054  10.060   7.553   7.268 -0.5618  0.4647 -0.0310
  130MOL0     C17055  10.181   7.519   7.339 -0.1548 -0.4096  0.6716
  130MOL0     C17056  10.185   7.496   7.476  0.5937 -0.4564 -0.8034
  130MOL0     C17057  10.304   7.446   7.556  0.4151  0.0729 -0.7527
  130MOL0     O17058  10.408   7.415   7.476  0.1164  0.0639  0.2015
  130MOL0     C17059  10.529   7.386   7.527 -0.1886  0.8130  0.5111
  130MOL0     C17060  10.631   7.477   7.526 -0.4876 -0.2430 -0.1118
  130MOL0     C17061  10.753   7.428   7.568 -0.0825  0.2772 -0.0755
  130MOL0     C17062  10.773   7.295   7.604  0.1191 -0.4122  0.3801
  130MOL0     O17063  10.900   7.248   7.648  0.6127  0.4257  0.8583
  130MOL0     C17064  11.012   7.329   7.642 -0.7708 -0.4091 -1.0899
  130MOL0     C17065  11.046   7.428   7.760 -0.0464  0.0977  0.8388
  130MOL0     C17066  11.002   7.363   7.895 -0.6496 -0.0361 -0.1769
  130MOL0     C17067  11.085   7.445   7.995 -0.0474 -0.3108 -0.3641
  130MOL0     C17068  11.037   7.404   8.139  0.0324 -0.2434 -0.1893
  130MOL0     C17069  11.124   7.460   8.256 -0.3241  0.9192 -0.0619
  130MOL0     C17070  11.075   7.416   8.387 -0.6218 -0.8490 -0.0438
  130MOL0     C17071  11.143   7.487   8.509  1.0292  0.3042  0.2988
  130MOL0    Cl17072  11.023   7.510   8.639 -0.1455 -0.0818  0.0911
  130MOL0     C17073  10.661   7.211   7.611 -0.0994 -0.2034  0.5360
  130MOL0     C17074  10.543   7.254   7.581  0.1488 -0.3001 -0.0708
  130MOL0     O17075  10.309   7.443   7.676 -0.4305  0.0342  0.0790
  130MOL0     C17076  10.067   7.536   7.534  0.7567 -0.6453  0.3534
  130MOL0     C17077   9.959   7.587   7.471  0.1696 -1.0751  0.1517
  130MOL0     N17078   9.386   7.673   6.921 -0.5066  0.7987 -0.7048
  130MOL0     N17079   9.338   7.630   6.810  0.2043  0.4955  0.2121
  130MOL0     C17080   9.368   8.422   6.050  0.1530  0.1973 -0.5756
  130MOL0     C17081   9.374   8.507   6.158 -0.0323  0.2801 -0.1959
  130MOL0     C17082   9.557   8.780   6.467  0.3280  1.0197 -0.9419
  130MOL0     C17083   9.633   8.897   6.451 -0.8356 -0.5953  0.0215
  130MOL0     C17084   9.627   8.995   6.553  0.2312  0.3483  0.4078
  130MOL0     C17085   9.547   8.985   6.667  1.0212  0.3362  0.0915
  130MOL0     O17086   9.556   9.093   6.757  0.4970  0.1143  0.0720
  130MOL0     C17087   9.430   9.141   6.817 -0.7723 -0.8373 -0.6321
  130MOL0     C17088   9.465   9.230   6.940  0.1111 -0.4948  0.1296
  130MOL0     C17089   9.372   9.357   6.943 -0.7031 -1.0875 -0.3979
  130MOL0     C17090   9.227   9.327   6.960  0.6747  0.1169 -0.8146
  130MOL0     C17091   9.143   9.449   6.988  0.5102 -0.1050 -0.4574
  130MOL0     C17092   9.072   9.548   7.003  0.2882 -0.1136 -0.2365
  130MOL0     C17093   9.464   8.870   6.670  0.2915 -0.9510 -0.1828
  130MOL0     C17094   9.463   8.775   6.567 -0.2665 -0.1560  0.4247
  130MOL0     H17095   9.623   8.371   6.340  0.6349 -0.9677 -1.1764
  130MOL0     H17096   9.605   8.204   6.157 -1.2336 -0.0941 -2.3729
  130MOL0     H17097   9.376   8.078   5.841  0.8650  0.9785 -1.3448
  130MOL0     H17098   9.283   8.153   5.977 -0.1726 -4.1412  1.5993
  130MOL0     H17099   9.440   8.050   6.134  0.5988 -3.3486  2.9731
  130MOL0     H17100   9.531   7.972   6.003 -1.2656 -0.0901 -2.1468
  130MOL0     H17101   9.316   7.858   5.920 -0.5877 -0.4403  0.5319
  130MOL0     H17102   9.237   7.903   6.072 -0.1218 -0.7364  1.0022
  130MOL0     H17103   9.316   7.688   6.088 -0.7897  0.0250  0.7177
  130MOL0     H17104   9.484   7.741   6.044 -0.1741  1.7981 -2.0624
  130MOL0     H17105   9.324   7.875   6.259 -1.2242 -0.7938 -1.3190
  130MOL0     H17106   9.508   7.861   6.245  0.4265 -0.5376 -1.8525
  130MOL0     H17107   9.512   7.625   6.302 -0.4449 -0.5792  1.1921
  130MOL0     H17108   9.345   7.617   6.309  1.1801 -2.4640  0.1829
  130MOL0     H17109   9.526   7.792   6.486  1.9533 -2.2928 -1.0313
  130MOL0     H17110   9.354   7.803   6.494  0.8651  2.1888 -0.7344
  130MOL0     H17111   9.532   7.563   6.586  2.1778  1.8389  4.1794
  130MOL0     H17112   9.356   7.550   6.561  0.2695 -1.8498  0.3543
  130MOL0     H17113   9.619   7.756   6.701 -0.9067  1.3178 -2.1408
  130MOL0     H17114   9.541   7.758   7.109 -0.2248 -1.6846 -0.5295
  130MOL0     H17115   9.585   7.892   6.993  0.3273 -0.3882  1.6599
  130MOL0     H17116   9.758   7.754   6.908 -2.0163 -1.7738 -0.1616
  130MOL0     H17117   9.729   7.624   7.035  2.0847 -0.3137  3.7323
  130MOL0     H17118   9.922   7.787   7.096 -0.8923 -2.3306 -0.5993
  130MOL0     H17119   9.792   7.903   7.094  2.2131  0.2834 -3.8266
  130MOL0     H17120   9.680   7.729   7.279  0.1607 -2.1793  2.1078
  130MOL0     H17121   9.835   7.797   7.337 -4.3025 -2.0931  3.5407
  130MOL0     H17122  10.059   7.558   7.159 -2.2543  3.7362 -0.0046
  130MOL0     H17123  10.278   7.504   7.292  0.1119  1.2076  0.6557
  130MOL0     H17124  10.613   7.579   7.493 -0.6919  0.7795  2.8396
  130MOL0     H17125  10.839   7.494   7.564 -0.4099  0.6957 -0.2170
  130MOL0     H17126  11.013   7.374   7.542 -0.8546 -1.6599 -1.6825
  130MOL0     H17127  11.095   7.258   7.638 -0.9289 -0.5737 -1.6715
  130MOL0     H17128  10.990   7.519   7.737  1.0230  0.6400  0.2803
  130MOL0     H17129  11.154   7.448   7.753  0.4748 -2.9209 -1.3905
  130MOL0     H17130  11.019   7.255   7.890 -2.3858 -0.3420  0.1766
  130MOL0     H17131  10.896   7.372   7.919 -0.2542  4.0040  0.8137
  130MOL0     H17132  11.192   7.428   7.980  0.5330  3.4375 -1.4184
  130MOL0     H17133  11.069   7.553   7.989 -1.9791 -0.5564 -0.2092
  130MOL0     H17134  11.027   7.295   8.137 -0.4573 -0.1900 -1.3549
  130MOL0     H17135  10.938   7.449   8.149  0.2527 -0.1169  2.0521
  130MOL0     H17136  11.125   7.569   8.254  2.9096  1.0478 -3.8458
  130MOL0     H17137  11.228   7.439   8.228 -0.1529  0.3808  0.9429
  130MOL0     H17138  10.971   7.450   8.389 -0.9723 -1.8666  2.3503
  130MOL0     H17139  11.077   7.308   8.402  1.3363 -1.0596 -1.4048
  130MOL0     H17140  11.189   7.580   8.475  1.5965 -0.6317 -1.6843
  130MOL0     H17141  11.226   7.422   8.539  2.0667  1.0124 -0.9451
  130MOL0     H17142  10.675   7.104   7.628 -2.2323 -0.6800 -0.3419
  130MOL0     H17143  10.463   7.183   7.566 -0.9725  0.9296 -0.0716
  130MOL0     H17144  10.065   7.522   7.642  2.4346  1.5548  0.7591
  130MOL0     H17145   9.867   7.611   7.523 -0.4358 -1.6505 -0.6294
  130MOL0     H17146   9.289   8.457   5.984  0.6459  1.4798 -0.4983
  130MOL0     H17147   9.307   8.593   6.158 -0.2460  0.1428  1.1061
  130MOL0     H17148   9.696   8.892   6.363  2.1795  1.5223  1.8572
  130MOL0     H17149   9.692   9.079   6.529  1.8096 -0.8908  0.1651
  130MOL0     H17150   9.359   9.064   6.849  1.6102 -3.0941 -0.4149
  130MOL0     H17151   9.384   9.184   6.728 -2.0537 -2.6093 -0.8930
  130MOL0     H17152   9.447   9.169   7.029 -1.8515 -1.0070 -0.5701
  130MOL0     H17153   9.567   9.267   6.939 -0.9158  2.6096  0.8711
  130MOL0     H17154   9.368   9.416   6.851  2.1819  0.9743  0.6639
  130MOL0     H17155   9.390   9.416   7.033 -2.4777  1.7616 -1.7623
  130MOL0     H17156   9.200   9.274   6.868  4.1478 -1.2354 -1.2066
  130MOL0     H17157   9.224   9.261   7.048  0.1035  0.4589 -0.5686
  130MOL0     H17158   9.007   9.633   7.010 -1.9888 -1.7395 -0.6062
  130MOL0     H17159   9.402   8.865   6.760 -1.8567  2.3443 -1.2783
  130MOL0     H17160   9.397   8.691   6.586 -0.9859  0.8450  2.6293
  131MOL0     O17161   9.371   3.918   2.002  0.7173  0.0631  0.6390
  131MOL0     C17162   9.258   3.935   2.052 -0.1805  0.2314  0.3175
  131MOL0     O17163   9.136   3.868   2.010  0.1998  0.0212  0.5899
  131MOL0     C17164   9.152   3.794   1.900 -0.2072 -0.7816 -0.1326
  131MOL0     C17165   9.192   3.664   1.902 -0.0850 -0.3905  0.1406
  131MOL0     C17166   9.220   3.590   1.787 -0.9437 -0.2441  0.0116
  131MOL0     C17167   9.203   3.655   1.664  0.2451  0.6266  0.0737
  131MOL0     O17168   9.211   3.569   1.552  1.2802 -0.5451 -0.3998
  131MOL0     C17169   9.189   3.622   1.419  0.6720  1.0486 -0.2241
  131MOL0     C17170   9.186   3.502   1.336 -0.6209 -0.6102  0.6158
  131MOL0     C17171   9.136   3.545   1.195 -0.2181  0.1601 -0.0826
  131MOL0     C17172   9.167   3.443   1.097 -0.3961  0.0741 -0.2586
  131MOL0     C17173   9.100   3.475   0.970  0.2419  0.4957 -0.8037
  131MOL0     C17174   9.060   3.350   0.909 -1.4535  0.1278 -0.0549
  131MOL0     C17175   8.992   3.376   0.778 -0.3588 -0.4514 -0.1771
  131MOL0     C17176   8.905   3.252   0.743 -0.4898 -1.2904 -0.3904
  131MOL0     N17177   8.917   3.188   0.608  0.0152 -0.4956 -0.1971
  131MOL0     C17178   8.878   3.239   0.486  0.0593  0.2730  0.0078
  131MOL0     C17179   8.942   3.153   0.397 -0.7998  0.0749 -0.8369
  131MOL0     C17180   8.920   3.134   0.253 -0.4577 -0.5045 -0.0957
  131MOL0     C17181   8.881   2.988   0.222 -0.7681  0.1022  0.0375
  131MOL0     C17182   8.888   2.948   0.073  0.0185  0.0772 -0.9896
  131MOL0     C17183   8.890   2.793   0.062 -0.7920  0.3230 -0.2012
  131MOL0     O17184   8.755   2.750   0.104  0.8031 -0.1733 -0.4809
  131MOL0     C17185   8.729   2.616   0.106 -0.2580  0.3924  0.6447
  131MOL0     C17186   8.802   2.518   0.029 -0.3216  0.6266 -1.1337
  131MOL0     C17187   8.749   2.384   0.024 -0.1068 -0.6905 -0.7148
  131MOL0     C17188   8.635   2.346   0.093  0.4553  0.0975  0.4166
  131MOL0     C17189   8.586   2.203   0.077 -0.5136 -0.5094 -0.4105
  131MOL0     O17190   8.672   2.119   0.008 -0.8825 -0.2136 -0.2066
  131MOL0     C17191   8.627   1.989  -0.004 -0.3560 -0.3046  0.2801
  131MOL0     C17192   8.699   1.879   0.057  0.1150 -0.0363  0.3599
  131MOL0     C17193   8.657   1.750   0.041 -0.2156 -0.3039 -0.0695
  131MOL0     C17194   8.534   1.729  -0.024 -0.3212  0.4227  1.1695
  131MOL0     O17195   8.480   1.608  -0.049  0.3781  0.2637  0.1636
  131MOL0     C17196   8.570   1.523  -0.121  0.1299 -0.5771 -0.3358
  131MOL0     C17197   8.491   1.392  -0.107 -0.6461 -0.5724 -0.5384
  131MOL0     C17198   8.537   1.271  -0.193 -0.0277 -0.3760  0.2949
  131MOL0     C17199   8.674   1.242  -0.165 -0.4448 -0.1086  1.0738
  131MOL0     C17200   8.720   1.119  -0.255 -0.2269 -0.0867 -0.0759
  131MOL0     C17201   8.719   1.142  -0.411  0.2419 -0.0531  0.2840
  131MOL0     C17202   8.781   1.038  -0.502 -0.9735  1.4912 -0.2139
  131MOL0     C17203   8.850   1.095  -0.622 -0.8416 -0.2869  0.0391
  131MOL0    Cl17204   8.758   1.222  -0.688  0.0540  0.1047 -0.3824
  131MOL0     C17205   8.461   1.839  -0.078 -0.6106  0.5031 -0.8046
  131MOL0     C17206   8.512   1.974  -0.082 -0.4204  0.6986  0.1766
  131MOL0     O17207   8.481   2.175   0.130 -0.2622  0.5258 -0.5755
  131MOL0     C17208   8.562   2.447   0.147 -0.4058  0.4228 -0.1563
  131MOL0     C17209   8.611   2.574   0.160  0.4843 -0.6605  0.2707
  131MOL0     N17210   9.007   3.060   0.474  0.2315  0.1779  0.0525
  131MOL0     N17211   8.988   3.074   0.598 -0.0690 -0.7240 -0.2848
  131MOL0     C17212   9.154   3.785   1.665 -0.8355 -0.8456 -0.5333
  131MOL0     C17213   9.129   3.858   1.778 -0.7723  0.1021 -0.1973
  131MOL0     C17214   9.246   4.012   2.180 -0.1127  0.1982  0.3354
  131MOL0     C17215   9.124   4.036   2.254 -0.0390 -0.6585  0.6032
  131MOL0     C17216   9.123   4.113   2.361  0.6444  0.0848  0.1992
  131MOL0     C17217   9.238   4.170   2.408  0.8642 -0.0738  0.7321
  131MOL0     O17218   9.241   4.275   2.495  0.3443  0.0499  0.2357
  131MOL0     C17219   9.123   4.361   2.508 -0.4651  1.0427  0.6601
  131MOL0     C17220   9.161   4.501   2.538 -0.9284  0.2329 -0.1031
  131MOL0     C17221   9.033   4.582   2.556 -0.8152  0.1388 -0.1227
  131MOL0     C17222   9.045   4.697   2.662  0.3777  0.2379  0.2067
  131MOL0     C17223   9.170   4.772   2.637  0.9189 -0.3949  0.5663
  131MOL0     C17224   9.272   4.816   2.605 -0.3283  0.8757 -0.0018
  131MOL0     C17225   9.358   4.141   2.345  0.1470 -0.4592 -0.1228
  131MOL0     C17226   9.367   4.069   2.233  0.0476 -0.8114 -0.1397
  131MOL0     H17227   9.223   3.612   1.992  2.8987  2.8273  1.1938
  131MOL0     H17228   9.273   3.496   1.793 -2.0636 -0.7956  1.7026
  131MOL0     H17229   9.268   3.697   1.405 -1.0753  2.9055 -0.7072
  131MOL0     H17230   9.091   3.670   1.428 -0.8286 -1.9748  0.7753
  131MOL0     H17231   9.119   3.426   1.378 -1.3826 -0.3174 -0.0373
  131MOL0     H17232   9.287   3.462   1.334 -0.5449 -0.4588  1.2626
  131MOL0     H17233   9.161   3.646   1.161 -3.4461  1.2213  0.3997
  131MOL0     H17234   9.027   3.545   1.199 -0.1963  0.9166  2.5149
  131MOL0     H17235   9.276   3.442   1.085 -0.3314 -1.6387  0.2004
  131MOL0     H17236   9.151   3.341   1.133 -0.1650  0.5639  1.3345
  131MOL0     H17237   9.164   3.534   0.904 -0.3826  1.4982 -0.5398
  131MOL0     H17238   9.013   3.538   0.991  0.4563  0.6620 -0.4044
  131MOL0     H17239   8.994   3.296   0.978 -0.6757  0.1884  0.7468
  131MOL0     H17240   9.145   3.284   0.889 -1.7050 -0.2657  0.1708
  131MOL0     H17241   8.928   3.460   0.808 -1.6754 -2.0223  1.7037
  131MOL0     H17242   9.057   3.399   0.694  0.2313 -0.8327  0.1681
  131MOL0     H17243   8.803   3.274   0.775  0.1541  2.3458 -0.3828
  131MOL0     H17244   8.928   3.180   0.822  1.3389  0.8497  1.1418
  131MOL0     H17245   8.809   3.320   0.462  2.0431  2.7140  1.9346
  131MOL0     H17246   9.019   3.158   0.214 -0.9490  2.2898  0.1721
  131MOL0     H17247   8.858   3.203   0.196 -0.0859 -0.7739 -0.8386
  131MOL0     H17248   8.781   2.966   0.261 -0.7697 -0.5538 -0.3413
  131MOL0     H17249   8.938   2.917   0.283 -2.4793  0.6127  2.3736
  131MOL0     H17250   8.807   2.992   0.014  2.1393  3.1328 -1.8885
  131MOL0     H17251   8.981   2.981   0.026 -0.4938 -1.9331 -3.6625
  131MOL0     H17252   8.970   2.754   0.127 -1.7422 -0.7613  0.3474
  131MOL0     H17253   8.890   2.763  -0.043  0.3272 -0.2967 -0.0508
  131MOL0     H17254   8.885   2.537  -0.038  0.7948  0.0374  0.0289
  131MOL0     H17255   8.813   2.317  -0.032  2.9552 -0.0220  1.7125
  131MOL0     H17256   8.794   1.898   0.106  1.0702  0.5922 -1.6252
  131MOL0     H17257   8.711   1.663   0.076  0.0732 -0.4558 -0.8609
  131MOL0     H17258   8.667   1.509  -0.072  0.5381 -1.8940 -1.4530
  131MOL0     H17259   8.579   1.564  -0.222  3.9745  0.7004  0.3415
  131MOL0     H17260   8.389   1.412  -0.142 -0.6154 -0.8904 -0.8159
  131MOL0     H17261   8.486   1.355  -0.004  2.7792  1.8410  0.6628
  131MOL0     H17262   8.529   1.303  -0.298  0.2329 -1.6786 -0.1296
  131MOL0     H17263   8.473   1.184  -0.179  1.7302 -2.4249 -3.0219
  131MOL0     H17264   8.739   1.327  -0.192 -0.1604 -0.9405 -1.1070
  131MOL0     H17265   8.695   1.216  -0.061  3.7825  1.2990  0.7785
  131MOL0     H17266   8.660   1.033  -0.226 -0.8862  0.1727 -0.6344
  131MOL0     H17267   8.824   1.098  -0.227 -0.1611  0.0795 -0.1898
  131MOL0     H17268   8.764   1.242  -0.420 -1.2776  0.5441 -1.3277
  131MOL0     H17269   8.617   1.159  -0.446  0.2886  2.7219  1.2193
  131MOL0     H17270   8.852   0.977  -0.445 -3.2213  0.5241  1.7243
  131MOL0     H17271   8.696   0.975  -0.529  0.9972 -0.8476 -1.3925
  131MOL0     H17272   8.860   1.022  -0.703  3.4669  2.9909 -2.7951
  131MOL0     H17273   8.952   1.130  -0.603 -0.3107 -0.6158 -1.9972
  131MOL0     H17274   8.359   1.833  -0.117 -0.8070  0.6540 -0.3242
  131MOL0     H17275   8.462   2.052  -0.139  1.5131  1.7189 -0.2284
  131MOL0     H17276   8.465   2.419   0.185 -0.8125  1.4521 -0.4209
  131MOL0     H17277   8.563   2.652   0.217 -2.4524 -1.8399 -0.4345
  131MOL0     H17278   9.147   3.840   1.572  3.3120 -0.9546 -1.0807
  131MOL0     H17279   9.104   3.963   1.769  1.2029  0.4921 -1.5744
  131MOL0     H17280   9.035   3.977   2.233 -0.6203 -1.0362  3.5606
  131MOL0     H17281   9.027   4.122   2.411 -0.0269 -1.8006 -0.6680
  131MOL0     H17282   9.067   4.312   2.588 -0.9231 -1.7359 -1.1866
  131MOL0     H17283   9.050   4.359   2.426 -0.6378 -0.0916  0.8180
  131MOL0     H17284   9.226   4.495   2.626  0.1023 -1.4007 -0.9154
  131MOL0     H17285   9.217   4.547   2.457 -3.4656  1.2483 -1.4070
  131MOL0     H17286   8.956   4.511   2.587  0.3094 -1.3962 -0.7050
  131MOL0     H17287   9.003   4.626   2.461 -0.3702 -2.4443 -1.5451
  131MOL0     H17288   8.960   4.766   2.663  1.0991  1.1664 -0.2329
  131MOL0     H17289   9.054   4.651   2.761  0.9391 -0.4164 -0.1446
  131MOL0     H17290   9.359   4.870   2.574  0.7568  0.0278  1.4162
  131MOL0     H17291   9.440   4.196   2.390 -2.3111  0.6757  3.3701
  131MOL0     H17292   9.463   4.049   2.187  0.5091 -0.8167  0.8028
  132MOL0     O17293   9.586  11.294   0.880  0.0482  0.4495  0.6647
  132MOL0     C17294   9.702  11.325   0.902 -0.6447  0.2658  0.3453
  132MOL0     O17295   9.752  11.417   0.997 -0.0446  0.3290 -0.4798
  132MOL0     C17296   9.680  11.530   1.034 -0.9921 -0.2629  0.2045
  132MOL0     C17297   9.588  11.600   0.948 -0.0658  0.8889  0.5132
  132MOL0     C17298   9.541  11.727   0.992  0.0504 -0.1464 -0.2763
  132MOL0     C17299   9.587  11.786   1.111  0.6278  0.2842 -0.1359
  132MOL0     O17300   9.523  11.907   1.136  0.3464  0.0181 -0.6260
  132MOL0     C17301   9.556  11.978   1.262  0.1074 -0.5511  0.8861
  132MOL0     C17302   9.472  12.111   1.268  0.5954 -0.4140  0.2827
  132MOL0     C17303   9.530  12.210   1.358  0.0965  0.0844  0.2506
  132MOL0     C17304   9.432  12.319   1.399  1.1224 -0.0750 -1.0658
  132MOL0     C17305   9.409  12.444   1.300  0.0035  0.0449  0.6958
  132MOL0     C17306   9.309  12.548   1.356  0.1201 -0.4475 -0.4055
  132MOL0     C17307   9.280  12.652   1.245  0.4702  0.1433 -0.8220
  132MOL0     C17308   9.183  12.768   1.277  0.8895  0.0144  0.4837
  132MOL0     N17309   9.049  12.740   1.340  0.3697 -0.1788  0.5130
  132MOL0     C17310   9.018  12.745   1.474 -0.6516  0.4351  0.9841
  132MOL0     C17311   8.890  12.714   1.469  0.5168  0.0065 -0.6379
  132MOL0     C17312   8.808  12.698   1.604 -0.5914 -0.0386  0.3174
  132MOL0     C17313   8.843  12.559   1.668  0.7985  0.3757  0.7027
  132MOL0     C17314   8.813  12.425   1.590 -0.4143  0.0801 -0.2271
  132MOL0     C17315   8.872  12.301   1.662 -0.2883 -0.0963  0.3766
  132MOL0     O17316   9.005  12.319   1.701 -0.4193  0.7441  0.5236
  132MOL0     C17317   9.086  12.202   1.705 -1.0413  0.9589 -0.1193
  132MOL0     C17318   9.051  12.066   1.714  0.6913 -0.4658 -0.4463
  132MOL0     C17319   9.140  11.968   1.714  0.8544 -0.4332  0.5910
  132MOL0     C17320   9.278  11.985   1.708 -0.3622 -0.0658  1.1687
  132MOL0     C17321   9.379  11.872   1.703 -0.3960 -0.9639  0.3195
  132MOL0     O17322   9.513  11.914   1.697  0.3252  0.1838  1.0402
  132MOL0     C17323   9.618  11.835   1.654  1.0176  0.0381 -0.3030
  132MOL0     C17324   9.748  11.868   1.695  0.1722 -0.3018  0.8132
  132MOL0     C17325   9.863  11.795   1.647  0.3142 -0.7758 -0.2480
  132MOL0     C17326   9.843  11.695   1.552 -0.2471  0.0511 -0.4264
  132MOL0     O17327   9.936  11.610   1.502  0.2573  0.4931 -0.2706
  132MOL0     C17328  10.050  11.676   1.438  0.0890 -0.2783 -1.3345
  132MOL0     C17329  10.014  11.688   1.287  0.7672  0.2175  0.2972
  132MOL0     C17330  10.127  11.721   1.192 -0.3536 -0.1029 -0.9974
  132MOL0     C17331  10.099  11.755   1.044  0.3593  0.6915  0.2203
  132MOL0     C17332  10.028  11.637   0.963 -0.7794 -0.8346 -1.1135
  132MOL0     C17333  10.021  11.688   0.821 -1.3002  0.7943  0.8191
  132MOL0     C17334  10.150  11.663   0.755 -0.7250 -0.6075 -0.2047
  132MOL0     C17335  10.128  11.670   0.610  1.5964  0.5737  0.2626
  132MOL0    Cl17336  10.094  11.829   0.551  0.3061 -0.0960  0.0606
  132MOL0     C17337   9.716  11.656   1.520  0.2825 -0.5336 -0.5650
  132MOL0     C17338   9.604  11.720   1.572 -0.9125  0.2093  0.0814
  132MOL0     O17339   9.343  11.757   1.685  0.3454  0.2394 -0.7003
  132MOL0     C17340   9.312  12.115   1.709  0.0484 -0.1446  0.6103
  132MOL0     C17341   9.228  12.217   1.709  0.7601 -0.4250 -0.0310
  132MOL0     N17342   8.844  12.677   1.334  0.2197 -0.2717 -0.5444
  132MOL0     N17343   8.945  12.703   1.260 -0.3548 -0.1975  0.3001
  132MOL0     C17344   9.669  11.722   1.194 -0.3466  0.0404  0.6953
  132MOL0     C17345   9.709  11.591   1.159 -1.3810 -0.0358  0.2905
  132MOL0     C17346   9.801  11.252   0.814  0.1138  0.2734  1.0519
  132MOL0     C17347   9.772  11.182   0.691 -0.3046 -0.7089  0.9973
  132MOL0     C17348   9.868  11.135   0.606 -0.0053  0.7223  0.6921
  132MOL0     C17349  10.000  11.166   0.640  0.2851  0.7077  0.2074
  132MOL0     O17350  10.074  11.123   0.526 -0.0574  0.4389 -0.7529
  132MOL0     C17351  10.214  11.142   0.509  0.2705 -0.2441 -0.1644
  132MOL0     C17352  10.312  11.074   0.612 -0.4425 -0.1658 -1.2048
  132MOL0     C17353  10.283  10.927   0.629  0.0525  0.0670 -0.3314
  132MOL0     C17354  10.409  10.842   0.632 -0.0239  0.1417  0.5526
  132MOL0     C17355  10.471  10.842   0.501  0.2959  0.5218 -0.4752
  132MOL0     C17356  10.517  10.844   0.388  0.7139 -0.3716  0.0002
  132MOL0     C17357  10.042  11.239   0.752  0.2538  0.1161 -0.5146
  132MOL0     C17358   9.940  11.275   0.846 -0.3472 -0.6917 -0.0666
  132MOL0     H17359   9.556  11.556   0.854  0.3888  3.8674 -1.1624
  132MOL0     H17360   9.469  11.778   0.930 -1.1171  0.8071  1.7453
  132MOL0     H17361   9.663  12.002   1.272 -0.1880  0.7046  1.2249
  132MOL0     H17362   9.524  11.924   1.351  0.5819 -2.3591 -0.0040
  132MOL0     H17363   9.371  12.082   1.297  1.2324 -1.9166  1.0993
  132MOL0     H17364   9.462  12.152   1.167  1.8188  0.3153  0.4298
  132MOL0     H17365   9.611  12.265   1.309  1.1947 -0.0856  1.7761
  132MOL0     H17366   9.582  12.158   1.439 -0.9544 -0.9800  0.2622
  132MOL0     H17367   9.341  12.264   1.424  0.9993  0.9181  0.9092
  132MOL0     H17368   9.462  12.366   1.494 -0.9458  2.2178 -1.4332
  132MOL0     H17369   9.370  12.412   1.203 -2.0140  2.0663  0.7326
  132MOL0     H17370   9.508  12.490   1.296  0.1635  0.3268  4.6230
  132MOL0     H17371   9.344  12.594   1.450 -1.7000 -1.5497  0.8568
  132MOL0     H17372   9.218  12.507   1.400  1.2026  0.6851  3.3467
  132MOL0     H17373   9.366  12.707   1.206  0.7447 -1.2538 -2.3298
  132MOL0     H17374   9.233  12.596   1.163 -0.5981  1.1120 -0.9065
  132MOL0     H17375   9.158  12.815   1.181 -1.2577 -0.8964  0.5316
  132MOL0     H17376   9.220  12.852   1.335 -1.8477  0.7228  1.3508
  132MOL0     H17377   9.082  12.779   1.555 -0.2202  1.9571  0.0510
  132MOL0     H17378   8.703  12.715   1.578  0.4946  2.0971 -3.5068
  132MOL0     H17379   8.832  12.781   1.671  0.5622 -1.7587  2.1699
  132MOL0     H17380   8.795  12.548   1.765  1.7460  1.6624  1.3541
  132MOL0     H17381   8.950  12.563   1.687  1.4440 -1.0745 -2.1215
  132MOL0     H17382   8.705  12.413   1.585 -1.4531  6.5106 -0.8512
  132MOL0     H17383   8.854  12.440   1.489 -1.8428  2.3719 -0.5352
  132MOL0     H17384   8.861  12.226   1.584 -4.3805 -0.2156  0.8365
  132MOL0     H17385   8.803  12.294   1.747 -1.3771  1.6143 -0.3167
  132MOL0     H17386   8.946  12.039   1.716 -0.2039  2.6559 -0.1905
  132MOL0     H17387   9.101  11.866   1.714  0.3694 -0.2576  1.6762
  132MOL0     H17388   9.754  11.950   1.766 -1.5408 -0.4002  1.1265
  132MOL0     H17389   9.964  11.822   1.673 -0.2947  3.6910 -1.7235
  132MOL0     H17390  10.134  11.607   1.442 -0.9544 -1.5358  1.4567
  132MOL0     H17391  10.088  11.770   1.481  0.7782 -1.7800  1.6377
  132MOL0     H17392   9.933  11.762   1.277  1.0110  0.4941  0.3661
  132MOL0     H17393   9.983  11.591   1.248  0.0197  0.9302 -0.9507
  132MOL0     H17394  10.203  11.642   1.191  0.1727  0.3532  0.3425
  132MOL0     H17395  10.184  11.799   1.242 -3.2633 -0.1272  2.8449
  132MOL0     H17396  10.036  11.844   1.046  0.8700  1.0522  0.5131
  132MOL0     H17397  10.188  11.803   1.002  0.7219  1.8191  2.1382
  132MOL0     H17398   9.929  11.608   1.001 -0.8159  0.9467  0.3226
  132MOL0     H17399  10.097  11.553   0.972  0.5839  0.4783  2.3127
  132MOL0     H17400  10.002  11.795   0.817 -1.0395  0.9322  2.5376
  132MOL0     H17401   9.936  11.634   0.778 -1.2799  0.9817  0.5437
  132MOL0     H17402  10.234  11.721   0.794 -0.0414 -1.8765  0.2503
  132MOL0     H17403  10.169  11.556   0.768 -2.7793 -1.3026 -2.1236
  132MOL0     H17404  10.041  11.611   0.578  0.5029  2.3853 -0.3124
  132MOL0     H17405  10.212  11.630   0.553  0.2622  2.1081 -3.0421
  132MOL0     H17406   9.695  11.571   1.456  0.5515 -3.0527  2.4141
  132MOL0     H17407   9.503  11.686   1.550 -0.4695 -0.8518 -0.3499
  132MOL0     H17408   9.419  12.127   1.722  0.6385 -2.4752 -1.3461
  132MOL0     H17409   9.269  12.316   1.727 -2.6704  1.4280 -1.3938
  132MOL0     H17410   9.691  11.755   1.295  0.4411 -1.2259  0.9568
  132MOL0     H17411   9.778  11.550   1.233 -1.0932  0.4698  0.3080
  132MOL0     H17412   9.666  11.184   0.668 -0.6652 -0.2621  2.5652
  132MOL0     H17413   9.835  11.080   0.518 -5.1820  0.2715  2.5677
  132MOL0     H17414  10.241  11.248   0.511  1.0937 -0.4560  0.4325
  132MOL0     H17415  10.240  11.106   0.409  3.9371 -1.1915  0.9655
  132MOL0     H17416  10.412  11.087   0.567  0.2381 -1.4099 -0.1118
  132MOL0     H17417  10.320  11.120   0.711  3.3612  1.6008 -2.1140
  132MOL0     H17418  10.227  10.896   0.540  0.4367  0.1109 -0.5950
  132MOL0     H17419  10.227  10.911   0.721 -3.5119  5.2574 -1.1154
  132MOL0     H17420  10.478  10.862   0.714 -2.5639 -0.3925  2.9815
  132MOL0     H17421  10.385  10.739   0.659  0.1802 -1.0012 -3.1401
  132MOL0     H17422  10.549  10.837   0.286  0.3075 -3.7950 -0.0067
  132MOL0     H17423  10.144  11.273   0.764  0.1539 -0.4735  2.7858
  132MOL0     H17424   9.969  11.336   0.931 -0.3373 -1.1122  0.2337
  133MOL0     O17425   6.158   0.324   4.628 -0.2669  0.3033 -0.1218
  133MOL0     C17426   6.210   0.391   4.715  0.6988  0.1721  0.2691
  133MOL0     O17427   6.153   0.484   4.802  0.6968  0.4790  0.6949
  133MOL0     C17428   6.014   0.501   4.782 -0.5466  0.1210  0.1519
  133MOL0     C17429   5.959   0.622   4.744 -0.0180  0.8768  0.4153
  133MOL0     C17430   5.822   0.632   4.726  1.2995  0.7046  0.4996
  133MOL0     C17431   5.730   0.533   4.765 -0.0272  0.4705  0.7473
  133MOL0     O17432   5.593   0.558   4.739 -0.6719  0.0793 -0.5925
  133MOL0     C17433   5.564   0.541   4.598  0.5325 -0.3141 -0.1997
  133MOL0     C17434   5.411   0.511   4.576 -1.2463 -0.3751 -0.0620
  133MOL0     C17435   5.318   0.611   4.629  0.4234  0.4561 -0.2097
  133MOL0     C17436   5.169   0.556   4.644  0.2982 -0.0767  0.1327
  133MOL0     C17437   5.074   0.636   4.728  0.0547  0.3505 -0.0613
  133MOL0     C17438   5.054   0.779   4.675  0.1621 -0.2359  0.1976
  133MOL0     C17439   4.936   0.844   4.741  0.9269 -0.4892  0.1196
  133MOL0     C17440   4.885   0.974   4.671 -0.6856 -0.6646 -0.2461
  133MOL0     N17441   4.771   0.956   4.589 -0.2600 -0.6098  0.2775
  133MOL0     C17442   4.753   0.841   4.526  0.9391  0.1311  0.4929
  133MOL0     C17443   4.656   0.863   4.432 -0.6732  0.1366  0.2863
  133MOL0     C17444   4.595   0.758   4.348 -0.0936  0.4529  0.1696
  133MOL0     C17445   4.488   0.819   4.254 -0.3535 -0.0043  0.3775
  133MOL0     C17446   4.406   0.706   4.184 -0.3918  0.5774 -0.3609
  133MOL0     C17447   4.251   0.715   4.219  0.5162  0.6225  0.0496
  133MOL0     O17448   4.235   0.608   4.311 -0.5757  0.1039 -0.0578
  133MOL0     C17449   4.130   0.618   4.398 -0.3576 -0.0729 -0.1878
  133MOL0     C17450   4.017   0.704   4.396  0.2735  0.6620  0.1908
  133MOL0     C17451   3.906   0.681   4.489  0.4402 -0.2864 -0.6757
  133MOL0     C17452   3.926   0.600   4.605  0.4114  0.2706 -0.2231
  133MOL0     C17453   3.825   0.589   4.711  0.3796 -0.5027 -0.7628
  133MOL0     O17454   3.733   0.685   4.726 -0.2591 -0.8410  0.2704
  133MOL0     C17455   3.651   0.685   4.834  1.0209  1.2497 -0.0808
  133MOL0     C17456   3.565   0.577   4.847  0.7470 -0.5452  0.0629
  133MOL0     C17457   3.463   0.584   4.947  0.6488  0.8364 -0.0624
  133MOL0     C17458   3.444   0.695   5.030  0.0691 -0.1529 -0.2673
  133MOL0     O17459   3.324   0.697   5.104  0.1089  0.2830  0.1946
  133MOL0     C17460   3.304   0.793   5.202  0.0817 -0.2363 -0.7960
  133MOL0     C17461   3.174   0.773   5.289  0.9009  0.3642 -0.6810
  133MOL0     C17462   3.051   0.776   5.206  1.2026  0.9166 -0.6437
  133MOL0     C17463   2.927   0.739   5.289 -0.3389 -0.1000  1.2286
  133MOL0     C17464   2.803   0.707   5.200 -1.0027 -0.1869 -0.2983
  133MOL0     C17465   2.785   0.552   5.182 -0.1066 -0.6386  0.6122
  133MOL0     C17466   2.733   0.492   5.308 -0.0305  0.4299 -0.9296
  133MOL0     C17467   2.828   0.404   5.378  0.3924  0.1865  0.1970
  133MOL0    Cl17468   2.838   0.245   5.289  0.1861 -0.2128  0.1472
  133MOL0     C17469   3.544   0.793   5.024 -0.1016 -1.2845  0.8479
  133MOL0     C17470   3.653   0.783   4.936  0.3662  0.1060 -0.6873
  133MOL0     O17471   3.834   0.488   4.778  0.1364 -0.0278 -0.0015
  133MOL0     C17472   4.037   0.515   4.601  0.2536  0.4669 -0.5983
  133MOL0     C17473   4.128   0.517   4.499 -1.3719 -0.0069  0.3849
  133MOL0     N17474   4.631   1.000   4.436  0.6428 -0.4270 -0.0370
  133MOL0     N17475   4.686   1.053   4.544  0.7496 -0.0436  0.4827
  133MOL0     C17476   5.781   0.426   4.828  1.1959  0.9632  0.1062
  133MOL0     C17477   5.925   0.409   4.837  0.4021  0.3102 -0.7919
  133MOL0     C17478   6.351   0.361   4.731 -0.0074 -0.0638  0.6360
  133MOL0     C17479   6.433   0.458   4.798  0.5573 -0.2602  0.2418
  133MOL0     C17480   6.569   0.421   4.816 -0.8532  0.8067  0.1777
  133MOL0     C17481   6.624   0.292   4.773  0.4392 -0.6999 -1.0689
  133MOL0     O17482   6.739   0.248   4.820 -0.3161 -0.0833  0.2922
  133MOL0     C17483   6.845   0.344   4.834 -0.0167  0.1664  0.8152
  133MOL0     C17484   6.983   0.290   4.840 -0.6131  0.8890 -1.1022
  133MOL0     C17485   7.009   0.216   4.971 -0.3324 -0.3861  0.0586
  133MOL0     C17486   7.135   0.117   4.974  0.1590  0.4757  0.1060
  133MOL0     C17487   7.123   0.036   5.091  0.0699  0.0673  0.6553
  133MOL0     C17488   7.120  -0.026   5.191 -0.2039  0.7440  0.5022
  133MOL0     C17489   6.532   0.202   4.708  0.3818 -0.0641  0.1578
  133MOL0     C17490   6.404   0.245   4.682  0.3955  1.3991  0.1720
  133MOL0     H17491   6.033   0.698   4.720 -0.4513  1.0215 -0.4802
  133MOL0     H17492   5.773   0.723   4.693 -0.0936 -0.7008 -1.5427
  133MOL0     H17493   5.625   0.463   4.553  1.5019  0.9826 -1.2284
  133MOL0     H17494   5.598   0.629   4.542  1.7543 -0.8198 -0.2697
  133MOL0     H17495   5.395   0.406   4.602 -3.8032 -0.2454 -0.8689
  133MOL0     H17496   5.395   0.502   4.468 -0.1989  4.5360 -0.8465
  133MOL0     H17497   5.317   0.703   4.569  1.5333 -1.3593 -3.2586
  133MOL0     H17498   5.345   0.640   4.731 -1.0252  1.3192 -0.0413
  133MOL0     H17499   5.122   0.552   4.545  0.9710  0.4130 -0.2103
  133MOL0     H17500   5.175   0.456   4.688  1.9688 -0.1715 -0.2417
  133MOL0     H17501   5.116   0.640   4.829 -3.5710 -0.1914  1.6218
  133MOL0     H17502   4.978   0.586   4.742 -1.1739  1.8765 -2.3438
  133MOL0     H17503   5.027   0.770   4.570 -0.1318 -0.8360  0.3217
  133MOL0     H17504   5.145   0.839   4.684 -0.8730  1.5621 -0.6530
  133MOL0     H17505   4.857   0.769   4.746 -3.2658  3.4625 -0.7563
  133MOL0     H17506   4.965   0.878   4.840 -1.5260  2.3975 -0.0246
  133MOL0     H17507   4.969   1.024   4.621 -0.2861  0.2694  1.2864
  133MOL0     H17508   4.857   1.044   4.750  0.9155  0.6933 -0.8291
  133MOL0     H17509   4.810   0.749   4.524  3.0787  1.3622  1.3837
  133MOL0     H17510   4.538   0.697   4.419  0.6260  0.6720  0.9467
  133MOL0     H17511   4.665   0.692   4.295 -2.2343 -1.7385 -0.1393
  133MOL0     H17512   4.526   0.897   4.187 -2.6582  1.3673  0.5595
  133MOL0     H17513   4.415   0.866   4.320 -0.4175  0.9193 -0.3364
  133MOL0     H17514   4.410   0.708   4.075  4.1143 -0.7372 -0.4318
  133MOL0     H17515   4.445   0.609   4.218 -1.3510  0.1052 -0.5859
  133MOL0     H17516   4.195   0.702   4.126 -1.1967 -1.3421  1.2789
  133MOL0     H17517   4.233   0.813   4.265  2.2921  0.0509  2.0981
  133MOL0     H17518   3.999   0.766   4.308 -1.4465 -0.6963 -0.4837
  133MOL0     H17519   3.820   0.745   4.472 -0.7205 -1.2859  1.1699
  133MOL0     H17520   3.546   0.490   4.784 -1.9575 -0.8140  1.1124
  133MOL0     H17521   3.387   0.508   4.932 -0.4883  2.5539 -5.1312
  133MOL0     H17522   3.303   0.892   5.155  3.1580 -1.0856 -2.8997
  133MOL0     H17523   3.389   0.800   5.270 -1.8976  0.0046  1.7952
  133MOL0     H17524   3.166   0.848   5.369  2.8723 -0.7016  0.5864
  133MOL0     H17525   3.196   0.681   5.343  1.8415  1.1470  0.3363
  133MOL0     H17526   3.067   0.703   5.127  2.5691  0.4905 -0.0099
  133MOL0     H17527   3.035   0.872   5.157  4.1479  1.4608 -0.7027
  133MOL0     H17528   2.953   0.670   5.370  5.1093  0.1757  0.1015
  133MOL0     H17529   2.900   0.831   5.343  1.4216  2.4881 -1.9835
  133MOL0     H17530   2.816   0.752   5.101  0.1343  1.5278  0.5913
  133MOL0     H17531   2.725   0.759   5.255  0.3177  0.8820  0.6209
  133MOL0     H17532   2.879   0.503   5.156  1.3062  1.2130  2.0250
  133MOL0     H17533   2.709   0.539   5.104  1.5270 -2.8749 -0.7141
  133MOL0     H17534   2.714   0.574   5.378 -1.2281  0.2476 -1.0181
  133MOL0     H17535   2.634   0.445   5.303  0.7485 -1.4492  0.1514
  133MOL0     H17536   2.798   0.387   5.482  2.8565 -2.8248  0.5883
  133MOL0     H17537   2.927   0.451   5.374  1.2887 -1.0195  3.7813
  133MOL0     H17538   3.542   0.884   5.083 -2.2518 -1.2359  0.7558
  133MOL0     H17539   3.734   0.854   4.928  0.5283 -0.1974 -1.9629
  133MOL0     H17540   4.058   0.443   4.680  0.6651  2.3167  1.0546
  133MOL0     H17541   4.214   0.450   4.497 -0.8713  0.6360 -0.5319
  133MOL0     H17542   5.708   0.348   4.850  1.0075 -0.0723 -3.5337
  133MOL0     H17543   5.958   0.321   4.892 -0.9890  0.7536  0.8115
  133MOL0     H17544   6.397   0.552   4.838  1.7467  0.1599  0.3787
  133MOL0     H17545   6.625   0.496   4.872 -2.0691  1.0112  1.1508
  133MOL0     H17546   6.821   0.405   4.921 -0.7757  1.4214 -0.2485
  133MOL0     H17547   6.843   0.406   4.744 -3.5207 -1.9314 -0.7943
  133MOL0     H17548   6.995   0.214   4.761 -3.1869 -1.6709  0.7596
  133MOL0     H17549   7.063   0.363   4.831  2.2698 -2.0721 -1.1182
  133MOL0     H17550   6.912   0.172   4.995  0.8684 -2.1210  1.9230
  133MOL0     H17551   7.019   0.290   5.051 -0.1729  1.3701 -1.4883
  133MOL0     H17552   7.125   0.052   4.887 -2.1379 -0.9063  1.3064
  133MOL0     H17553   7.222   0.183   4.979 -0.4460  1.3229 -0.2925
  133MOL0     H17554   7.125  -0.078   5.285 -5.1829 -0.9543  0.1240
  133MOL0     H17555   6.561   0.108   4.663 -1.7174  0.6004 -2.9223
  133MOL0     H17556   6.346   0.180   4.618  2.7232  2.5589 -3.3898
  134MOL0     O17557   5.491   5.557   5.115 -0.3319  0.5182 -0.2475
  134MOL0     C17558   5.594   5.526   5.173 -0.5738 -0.2112  1.0879
  134MOL0     O17559   5.647   5.587   5.280 -0.3176 -0.1704  0.0346
  134MOL0     C17560   5.596   5.700   5.335  0.4621  0.1224  0.4068
  134MOL0     C17561   5.637   5.832   5.301 -0.2625 -0.0040 -0.2702
  134MOL0     C17562   5.571   5.946   5.352  0.0191  0.2305  0.7218
  134MOL0     C17563   5.448   5.937   5.422  0.2785 -0.4769  1.3788
  134MOL0     O17564   5.386   6.057   5.445  0.7841 -0.0516 -0.4513
  134MOL0     C17565   5.246   6.062   5.505 -1.2881 -0.6269 -0.1784
  134MOL0     C17566   5.123   6.063   5.409 -0.7984 -0.4873 -1.2583
  134MOL0     C17567   4.996   6.047   5.495 -0.0334  0.1959  0.8928
  134MOL0     C17568   4.871   6.059   5.407  0.0615  0.5225 -0.3007
  134MOL0     C17569   4.750   6.093   5.498 -0.4955  0.3461  0.2573
  134MOL0     C17570   4.609   6.085   5.423  0.3926 -0.5944 -0.6318
  134MOL0     C17571   4.557   5.954   5.363 -0.0235  0.1864  0.2264
  134MOL0     C17572   4.430   5.953   5.283 -0.3880  0.3216  0.1467
  134MOL0     N17573   4.394   5.830   5.198  0.0426  0.0582 -0.7214
  134MOL0     C17574   4.395   5.701   5.255 -0.0426 -0.8295  0.6706
  134MOL0     C17575   4.402   5.628   5.151 -0.5442  0.6714  0.0316
  134MOL0     C17576   4.431   5.478   5.156 -0.4646  0.1214 -0.2074
  134MOL0     C17577   4.320   5.385   5.100 -0.3559 -0.2100 -0.9060
  134MOL0     C17578   4.363   5.241   5.088  0.2825  0.3150 -0.9617
  134MOL0     C17579   4.474   5.214   4.989  0.5954 -1.1164 -0.5185
  134MOL0     O17580   4.541   5.087   5.003  0.1580  0.0860 -0.5647
  134MOL0     C17581   4.556   5.028   5.131 -0.7828 -0.2752 -0.0540
  134MOL0     C17582   4.588   5.100   5.249 -0.0642  0.4691  0.0173
  134MOL0     C17583   4.613   5.024   5.361 -0.2665  0.0302 -0.6519
  134MOL0     C17584   4.590   4.882   5.363 -0.3702  0.0644 -0.3529
  134MOL0     C17585   4.632   4.814   5.492  0.1331 -0.3989 -0.4570
  134MOL0     O17586   4.652   4.885   5.610  0.5919  0.0464 -0.0507
  134MOL0     C17587   4.715   4.821   5.719 -0.4048 -0.4442  0.4782
  134MOL0     C17588   4.856   4.840   5.729  0.2498  0.6755  0.4454
  134MOL0     C17589   4.918   4.785   5.841  0.5511  0.4595 -0.8282
  134MOL0     C17590   4.848   4.711   5.938  0.0430 -1.2119  0.5922
  134MOL0     O17591   4.910   4.652   6.043  0.2238  0.0354  0.1486
  134MOL0     C17592   5.052   4.647   6.053 -0.8646  0.2166  0.5215
  134MOL0     C17593   5.095   4.593   6.190 -0.0450 -0.0206 -0.6223
  134MOL0     C17594   5.041   4.448   6.212 -0.0871 -0.9911  0.8562
  134MOL0     C17595   5.135   4.349   6.135 -0.3213 -0.0876 -0.3490
  134MOL0     C17596   5.107   4.203   6.175  0.1641 -0.4584  0.9291
  134MOL0     C17597   5.182   4.097   6.085 -0.4343  0.1940  0.1907
  134MOL0     C17598   5.215   3.962   6.157 -0.2439 -0.6959 -0.1518
  134MOL0     C17599   5.327   3.988   6.261 -0.5101  0.5520 -0.9901
  134MOL0    Cl17600   5.296   3.883   6.402 -0.3150 -0.0067 -0.0306
  134MOL0     C17601   4.707   4.700   5.930 -0.2833  0.3511 -0.5297
  134MOL0     C17602   4.645   4.754   5.817  0.2056 -0.3812 -0.2955
  134MOL0     O17603   4.624   4.696   5.484 -0.4911  0.0760 -0.3699
  134MOL0     C17604   4.549   4.818   5.249 -0.3790  0.1358  0.2790
  134MOL0     C17605   4.536   4.894   5.131  0.9572  0.2812  0.6595
  134MOL0     N17606   4.402   5.689   5.030 -0.6851 -1.2212  0.6615
  134MOL0     N17607   4.391   5.819   5.061 -0.7392  0.1855  0.0029
  134MOL0     C17608   5.406   5.803   5.452 -1.2032 -0.1266  0.1765
  134MOL0     C17609   5.483   5.691   5.415  0.0142 -0.1385 -0.2580
  134MOL0     C17610   5.655   5.402   5.117  0.6385  0.6813 -0.8437
  134MOL0     C17611   5.583   5.316   5.030 -0.6614  0.0732  0.4143
  134MOL0     C17612   5.630   5.187   4.999 -0.5502 -0.0576  0.0955
  134MOL0     C17613   5.745   5.135   5.055 -0.1396 -0.1199  0.3449
  134MOL0     O17614   5.781   5.007   5.017  0.8771  1.0470 -0.5294
  134MOL0     C17615   5.917   4.976   5.012  0.6594  0.1043 -0.1416
  134MOL0     C17616   5.976   5.063   4.904 -0.3418  0.3754 -0.1236
  134MOL0     C17617   6.125   5.025   4.863 -0.5751  0.6096 -0.2120
  134MOL0     C17618   6.147   4.925   4.742 -0.4599  0.4577  0.5857
  134MOL0     C17619   6.071   4.956   4.622 -0.1311  0.0165  0.0179
  134MOL0     C17620   5.989   4.981   4.537 -0.7828  0.5649  0.5718
  134MOL0     C17621   5.814   5.223   5.135  0.2542 -0.0116 -0.5461
  134MOL0     C17622   5.778   5.358   5.160 -0.2238 -0.9307  0.1570
  134MOL0     H17623   5.711   5.836   5.221 -0.1434  0.6885 -0.1370
  134MOL0     H17624   5.592   6.042   5.307 -0.9237 -0.6411 -1.7738
  134MOL0     H17625   5.254   6.150   5.570  2.3093 -0.1874 -1.0059
  134MOL0     H17626   5.246   5.984   5.581 -1.3031 -0.5713 -0.1197
  134MOL0     H17627   5.127   5.982   5.336 -1.2748 -1.6353 -0.0360
  134MOL0     H17628   5.129   6.159   5.356  4.2392  0.6629  0.7995
  134MOL0     H17629   4.997   6.120   5.576  0.3421  1.9233 -0.5853
  134MOL0     H17630   4.990   5.947   5.540  0.1834 -0.5650 -0.6829
  134MOL0     H17631   4.874   6.133   5.326  2.2241 -0.1647 -0.9279
  134MOL0     H17632   4.849   5.965   5.356 -4.0630  0.0673  1.8302
  134MOL0     H17633   4.767   6.194   5.535  0.0326 -0.6369  2.9209
  134MOL0     H17634   4.754   6.034   5.591 -3.2197  0.6725  0.6547
  134MOL0     H17635   4.624   6.162   5.347 -2.0857  0.9317  0.3078
  134MOL0     H17636   4.539   6.114   5.502  1.2892 -2.3422  0.8805
  134MOL0     H17637   4.639   5.913   5.303  0.1800  1.7646 -0.6189
  134MOL0     H17638   4.553   5.882   5.445 -1.2212  0.4448  0.4097
  134MOL0     H17639   4.432   6.034   5.210  0.9745  1.2031  1.1122
  134MOL0     H17640   4.338   5.967   5.340 -0.7361  0.6973 -0.4901
  134MOL0     H17641   4.411   5.670   5.358  1.6612  0.4704  0.8412
  134MOL0     H17642   4.452   5.456   5.261 -1.9380 -0.4490 -0.0071
  134MOL0     H17643   4.519   5.472   5.091 -0.9579 -1.2158 -0.7791
  134MOL0     H17644   4.291   5.419   5.001 -0.7670 -0.0777 -0.7429
  134MOL0     H17645   4.231   5.401   5.162  1.4902 -2.5065  2.6949
  134MOL0     H17646   4.386   5.222   5.193  0.0904  1.4020 -0.7151
  134MOL0     H17647   4.270   5.190   5.061  1.2600 -0.5253 -2.9474
  134MOL0     H17648   4.557   5.284   5.003  1.1209 -1.9131  0.5239
  134MOL0     H17649   4.431   5.234   4.890 -2.2368 -0.7593  0.7128
  134MOL0     H17650   4.611   5.205   5.236  1.0991  0.2220 -0.0566
  134MOL0     H17651   4.649   5.073   5.451  3.1795 -1.6848 -0.9795
  134MOL0     H17652   4.910   4.902   5.659  1.5167  1.9492  2.4712
  134MOL0     H17653   5.026   4.794   5.844  0.8003 -1.5085 -2.0342
  134MOL0     H17654   5.114   4.733   6.029  0.2432 -0.4935  0.7495
  134MOL0     H17655   5.075   4.576   5.973 -0.3783  1.0353 -0.0736
  134MOL0     H17656   5.060   4.656   6.273  2.9988  2.7759 -1.2244
  134MOL0     H17657   5.203   4.606   6.206 -0.1037  0.3326 -0.5036
  134MOL0     H17658   4.943   4.437   6.164 -1.9175 -1.6822  4.3850
  134MOL0     H17659   5.029   4.419   6.317  2.4460 -1.4108  1.0966
  134MOL0     H17660   5.122   4.370   6.028 -0.6594  1.6639 -0.0030
  134MOL0     H17661   5.241   4.367   6.154 -0.3750 -1.0927  1.0390
  134MOL0     H17662   4.999   4.188   6.189  0.3352 -0.2251  2.7036
  134MOL0     H17663   5.143   4.189   6.277  1.9867 -4.0650 -0.0468
  134MOL0     H17664   5.281   4.135   6.058 -1.3377  2.9035  0.4059
  134MOL0     H17665   5.116   4.087   5.999 -1.7504  1.2485  1.0361
  134MOL0     H17666   5.133   3.931   6.223 -0.4477 -3.7310 -1.6541
  134MOL0     H17667   5.240   3.888   6.080  0.4806  0.3586 -0.9567
  134MOL0     H17668   5.343   4.093   6.288 -2.0861  1.7681 -4.2289
  134MOL0     H17669   5.423   3.960   6.219 -0.0910  0.6452 -0.1116
  134MOL0     H17670   4.661   4.636   6.004 -3.1721  3.0435  0.2360
  134MOL0     H17671   4.537   4.740   5.811 -0.2638  2.6110 -0.2252
  134MOL0     H17672   4.561   4.710   5.244  0.9198  0.2216  1.0911
  134MOL0     H17673   4.519   4.846   5.034 -2.7956  1.3776  0.6162
  134MOL0     H17674   5.310   5.776   5.494 -0.7468  0.1557  1.4297
  134MOL0     H17675   5.455   5.588   5.435  2.0039 -0.9305 -1.2652
  134MOL0     H17676   5.494   5.352   4.980 -0.7865  2.9263  2.4355
  134MOL0     H17677   5.580   5.129   4.922  4.0220 -1.8819 -1.8253
  134MOL0     H17678   5.944   4.874   4.985  5.4267  1.6840 -2.4814
  134MOL0     H17679   5.968   4.995   5.107  0.7161  3.1278 -0.6793
  134MOL0     H17680   5.921   5.066   4.810  1.4020 -1.1972 -1.2875
  134MOL0     H17681   5.974   5.163   4.946 -3.4655  0.8154 -1.0834
  134MOL0     H17682   6.175   4.979   4.948  4.7074  1.1935 -2.6235
  134MOL0     H17683   6.178   5.119   4.852 -1.2447  1.5242  3.3295
  134MOL0     H17684   6.254   4.933   4.720 -0.3722 -0.5045  0.6167
  134MOL0     H17685   6.112   4.826   4.774 -1.7547  0.7455  0.1390
  134MOL0     H17686   5.916   5.016   4.467 -0.1042  2.5542  0.8136
  134MOL0     H17687   5.915   5.201   5.167  0.6404  0.0478 -1.6912
  134MOL0     H17688   5.832   5.421   5.230 -1.8091 -2.1942  2.6543
  135MOL0     O17689  10.015   4.961  10.098  0.1137  0.2983  0.6340
  135MOL0     C17690   9.914   5.021  10.053  0.1811  1.4851 -0.2769
  135MOL0     O17691   9.828   4.970   9.952  0.4816  0.3338  0.3521
  135MOL0     C17692   9.866   4.849   9.883 -0.0973  0.3110  0.7447
  135MOL0     C17693   9.809   4.727   9.932  0.0883 -0.1418 -1.3576
  135MOL0     C17694   9.845   4.602   9.870 -0.0513 -0.4165 -0.6551
  135MOL0     C17695   9.949   4.603   9.769  0.2527 -0.0446  0.9134
  135MOL0     O17696   9.986   4.497   9.693  0.1231 -0.1404  0.6830
  135MOL0     C17697   9.886   4.417   9.633  0.5154 -0.1405 -0.3700
  135MOL0     C17698   9.825   4.468   9.494  0.1004 -0.0628 -1.3951
  135MOL0     C17699   9.947   4.519   9.412  0.2051 -0.1039 -0.5099
  135MOL0     C17700  10.060   4.428   9.385 -0.3641  0.2855 -0.8756
  135MOL0     C17701  10.179   4.509   9.320 -0.1715 -0.0058  0.3357
  135MOL0     C17702  10.281   4.590   9.410  0.3838 -0.5189 -0.8234
  135MOL0     C17703  10.331   4.528   9.533 -0.2924  0.2198 -0.6023
  135MOL0     C17704  10.413   4.397   9.507 -0.1238 -0.1786  0.4863
  135MOL0     N17705  10.506   4.364   9.614 -0.4944 -0.3971 -0.0960
  135MOL0     C17706  10.627   4.419   9.648 -0.4085  0.3952 -1.4648
  135MOL0     C17707  10.660   4.370   9.773  0.3573 -0.3257 -0.1757
  135MOL0     C17708  10.782   4.393   9.842 -0.1026 -0.7198 -0.0677
  135MOL0     C17709  10.903   4.308   9.812  2.0221  0.2802 -0.9548
  135MOL0     C17710  10.864   4.160   9.827  1.2601  0.4109 -0.1834
  135MOL0     C17711  10.999   4.080   9.810  0.5138 -0.3502 -0.5890
  135MOL0     O17712  10.992   3.957   9.876  0.3472 -0.6378  0.0925
  135MOL0     C17713  11.095   3.875   9.852 -0.1617 -0.8336  0.2325
  135MOL0     C17714  11.222   3.902   9.817 -1.2370 -0.8290  0.9398
  135MOL0     C17715  11.324   3.810   9.798 -0.3338  0.5502 -0.0843
  135MOL0     C17716  11.304   3.674   9.840  0.2009  0.4403  0.3724
  135MOL0     C17717  11.411   3.581   9.848 -0.5078  0.6541 -0.0884
  135MOL0     O17718  11.393   3.457   9.898 -0.3822 -0.6998  0.5614
  135MOL0     C17719  11.490   3.359   9.898 -0.2279  0.4157 -1.0770
  135MOL0     C17720  11.470   3.256   9.989  0.4796  0.6368  0.1520
  135MOL0     C17721  11.567   3.151   9.999 -0.3177 -0.2680  0.3831
  135MOL0     C17722  11.683   3.153   9.930 -0.1230  0.1091 -0.1567
  135MOL0     O17723  11.774   3.061   9.973  0.4078  0.6229 -0.5958
  135MOL0     C17724  11.899   3.041   9.913  1.1762  0.0844  0.4798
  135MOL0     C17725  11.974   2.943  10.002  0.4095 -0.0667 -0.4710
  135MOL0     C17726  12.035   2.997  10.135  0.5409  1.0458  0.4645
  135MOL0     C17727  12.142   3.096  10.103  0.0689 -0.6901 -0.1131
  135MOL0     C17728  12.240   3.126  10.221  0.2804 -0.3318  0.3469
  135MOL0     C17729  12.335   3.249  10.191  1.1508 -1.0550 -0.2885
  135MOL0     C17730  12.447   3.211  10.098 -0.0378 -0.4811 -0.6536
  135MOL0     C17731  12.548   3.328  10.075 -0.6017  0.5218  0.2343
  135MOL0    Cl17732  12.637   3.281   9.926  0.5036  0.0996  0.4435
  135MOL0     C17733  11.699   3.251   9.826  0.6400 -0.2840  0.5700
  135MOL0     C17734  11.598   3.349   9.812 -0.7267  0.1234  0.2353
  135MOL0     O17735  11.525   3.624   9.807 -0.1733  0.4659  0.3352
  135MOL0     C17736  11.173   3.645   9.884  0.7985 -0.5094  0.3834
  135MOL0     C17737  11.069   3.737   9.893  0.8558  0.6061 -1.0664
  135MOL0     N17738  10.553   4.296   9.819  0.2969 -0.3708 -1.5499
  135MOL0     N17739  10.465   4.298   9.725  0.0696  0.0210  0.1687
  135MOL0     C17740  10.003   4.728   9.741 -0.3204 -0.6694 -0.7856
  135MOL0     C17741   9.962   4.848   9.788 -0.9724  0.0265  0.0907
  135MOL0     C17742   9.891   5.155  10.116 -0.6039 -0.1097  0.6501
  135MOL0     C17743   9.991   5.232  10.180 -0.5101  0.2613 -0.2953
  135MOL0     C17744   9.969   5.361  10.224  0.4552  0.3739 -0.9121
  135MOL0     C17745   9.842   5.413  10.214 -0.2062  0.0858  0.4224
  135MOL0     O17746   9.788   5.534  10.256  0.7277  0.4443  0.2743
  135MOL0     C17747   9.873   5.637  10.317  0.3495  1.4919 -0.4131
  135MOL0     C17748   9.809   5.744  10.403 -0.0142 -0.3878 -0.2472
  135MOL0     C17749   9.897   5.869  10.431  0.9923  0.1089 -0.9364
  135MOL0     C17750   9.983   5.851  10.563 -0.7601 -0.0119  0.4226
  135MOL0     C17751  10.098   5.771  10.553  0.1827 -0.3117  0.6234
  135MOL0     C17752  10.211   5.720  10.532  0.1000 -0.0316 -0.1548
  135MOL0     C17753   9.747   5.345  10.153 -0.3074  0.0404  0.0507
  135MOL0     C17754   9.761   5.208  10.105 -0.3893  0.0516 -1.2282
  135MOL0     H17755   9.748   4.724  10.022  2.4039  0.7302  0.3387
  135MOL0     H17756   9.810   4.504   9.902 -2.1495 -0.0927 -1.8049
  135MOL0     H17757   9.804   4.402   9.703 -0.3263 -0.0369 -1.3122
  135MOL0     H17758   9.924   4.317   9.610  1.4162 -0.3319  1.7288
  135MOL0     H17759   9.761   4.556   9.507  0.7981  0.1679  0.8336
  135MOL0     H17760   9.778   4.386   9.438 -0.6940 -0.6589  0.1102
  135MOL0     H17761   9.986   4.606   9.464  0.8138 -1.4556  1.4083
  135MOL0     H17762   9.907   4.554   9.316 -0.2461 -0.0001 -0.2812
  135MOL0     H17763  10.095   4.376   9.474  1.3842  1.5246 -0.7937
  135MOL0     H17764  10.021   4.350   9.318 -3.4245  1.5152 -0.6774
  135MOL0     H17765  10.141   4.578   9.244 -0.4337  0.2975  0.7402
  135MOL0     H17766  10.235   4.430   9.269  0.1329  0.9926 -0.9371
  135MOL0     H17767  10.218   4.674   9.441  1.2729 -0.6906  1.6813
  135MOL0     H17768  10.368   4.618   9.351  0.9552  3.0255  1.4076
  135MOL0     H17769  10.399   4.598   9.581  1.9424 -1.4818 -1.1194
  135MOL0     H17770  10.246   4.504   9.597 -0.2326  1.5402  0.0081
  135MOL0     H17771  10.475   4.409   9.417  1.3243  0.2183  1.4989
  135MOL0     H17772  10.347   4.311   9.494 -0.8924  0.1169  2.1562
  135MOL0     H17773  10.695   4.487   9.597  1.7007 -0.3240  0.2472
  135MOL0     H17774  10.759   4.379   9.948 -0.4439 -0.0656 -0.0495
  135MOL0     H17775  10.804   4.500   9.838 -1.2405 -0.4890 -0.5749
  135MOL0     H17776  10.990   4.331   9.873  1.6520  0.7566 -0.5954
  135MOL0     H17777  10.942   4.325   9.711  3.6283  1.5376 -0.1594
  135MOL0     H17778  10.817   4.132   9.922  2.0522 -2.7380 -0.5986
  135MOL0     H17779  10.804   4.140   9.738  1.2823 -1.3204  0.1498
  135MOL0     H17780  11.080   4.137   9.856  0.5643 -0.2727 -0.7723
  135MOL0     H17781  11.014   4.076   9.702  3.4895 -1.8760 -0.2024
  135MOL0     H17782  11.250   4.002   9.785 -1.6218 -1.2280 -0.7225
  135MOL0     H17783  11.417   3.853   9.762 -0.4719 -0.2253 -1.4073
  135MOL0     H17784  11.382   3.242  10.050 -1.9917 -0.2115 -3.3073
  135MOL0     H17785  11.557   3.086  10.085  0.7679  1.0053  1.5277
  135MOL0     H17786  11.959   3.133   9.901  0.2012  0.8547  1.3448
  135MOL0     H17787  11.884   3.006   9.811 -4.1686  1.9623  0.3235
  135MOL0     H17788  12.044   2.892   9.935 -1.3717 -0.9597 -1.7352
  135MOL0     H17789  11.898   2.870  10.029 -0.5090  1.1390  0.3222
  135MOL0     H17790  12.078   2.915  10.194  2.5139  0.9534 -0.9821
  135MOL0     H17791  11.958   3.047  10.194  0.1960 -2.0105  2.8584
  135MOL0     H17792  12.209   3.064  10.023  1.4898 -0.8233  1.0902
  135MOL0     H17793  12.091   3.188  10.070  1.9747  0.1944 -0.7408
  135MOL0     H17794  12.286   3.028  10.239 -4.0649 -3.1396 -2.0163
  135MOL0     H17795  12.190   3.146  10.316 -0.3124 -2.2770  0.4918
  135MOL0     H17796  12.375   3.284  10.287  0.2822 -0.7156 -0.0469
  135MOL0     H17797  12.271   3.328  10.150  0.8010 -2.2414 -2.1570
  135MOL0     H17798  12.499   3.120  10.129 -0.3629 -1.2755 -2.3417
  135MOL0     H17799  12.400   3.189  10.001  0.2121 -1.8275 -0.4868
  135MOL0     H17800  12.617   3.335  10.160  3.5997 -2.3475 -2.6029
  135MOL0     H17801  12.494   3.420  10.053 -0.5834  0.6280  0.6171
  135MOL0     H17802  11.778   3.246   9.752 -0.5625  1.9388 -0.9483
  135MOL0     H17803  11.605   3.422   9.732  0.5218 -0.4880 -0.2517
  135MOL0     H17804  11.152   3.547   9.926  1.4924 -0.6675  0.3755
  135MOL0     H17805  10.968   3.709   9.918  0.8479 -0.3692 -2.0993
  135MOL0     H17806  10.071   4.717   9.657 -0.9975 -3.3000 -1.0961
  135MOL0     H17807   9.993   4.949   9.763  1.1812 -1.2304 -2.9372
  135MOL0     H17808  10.094   5.207  10.158 -0.4455 -0.5787  0.8368
  135MOL0     H17809  10.045   5.423  10.271  1.2818  1.2435 -3.2452
  135MOL0     H17810   9.924   5.692  10.238 -0.9469  1.9745 -0.9357
  135MOL0     H17811   9.948   5.585  10.378 -2.2201 -0.0927  1.6141
  135MOL0     H17812   9.721   5.786  10.353 -0.5025 -0.0325  0.8893
  135MOL0     H17813   9.788   5.689  10.495  2.4556 -1.7166 -0.3898
  135MOL0     H17814   9.826   5.949  10.451  0.5881  0.4754 -3.5032
  135MOL0     H17815   9.956   5.894  10.343  0.3066 -0.6695 -1.6342
  135MOL0     H17816  10.016   5.952  10.587 -3.2738  0.7421  1.0318
  135MOL0     H17817   9.915   5.819  10.642  0.4296 -1.1989  1.0019
  135MOL0     H17818  10.308   5.675  10.523 -0.9524 -2.1840 -1.6832
  135MOL0     H17819   9.652   5.392  10.128 -0.1479  0.4531  0.2104
  135MOL0     H17820   9.683   5.147  10.061 -0.8570 -0.7272  0.5980
  136MOL0     O17821  10.783   1.425   2.122 -0.5078 -0.0809  0.3396
  136MOL0     C17822  10.735   1.497   2.211 -0.2874 -0.1834 -0.4325
  136MOL0     O17823  10.716   1.643   2.206 -0.8883  1.4789  0.2721
  136MOL0     C17824  10.708   1.695   2.083  0.0227 -1.0237  0.3671
  136MOL0     C17825  10.583   1.715   2.019 -0.5183  0.4835  0.7421
  136MOL0     C17826  10.589   1.768   1.888 -0.0679  0.5270 -0.0629
  136MOL0     C17827  10.703   1.809   1.820  0.7084  0.5376  1.7190
  136MOL0     O17828  10.685   1.870   1.695 -0.7096 -0.0386 -0.1323
  136MOL0     C17829  10.789   1.939   1.626  0.0203  0.4684  0.4630
  136MOL0     C17830  10.883   1.844   1.553 -0.2855 -0.6628 -1.2237
  136MOL0     C17831  10.823   1.716   1.501 -0.1485  0.2839  0.0463
  136MOL0     C17832  10.933   1.623   1.438  0.1437  0.2901  0.5267
  136MOL0     C17833  10.876   1.499   1.373  0.5547 -0.1163 -0.2231
  136MOL0     C17834  10.991   1.432   1.287  0.3141 -0.1241  0.3173
  136MOL0     C17835  11.119   1.407   1.358  0.3452  0.5198 -0.4110
  136MOL0     C17836  11.212   1.335   1.274 -0.7985  0.1060  0.4284
  136MOL0     N17837  11.339   1.285   1.340  0.0979  1.0430 -0.0558
  136MOL0     C17838  11.469   1.317   1.310 -0.1979  0.3520 -1.4175
  136MOL0     C17839  11.548   1.209   1.338  0.8440 -1.0017 -0.0891
  136MOL0     C17840  11.690   1.214   1.287  0.1018 -0.2271  0.5329
  136MOL0     C17841  11.758   1.072   1.298 -0.1706  0.2089 -0.0945
  136MOL0     C17842  11.897   1.073   1.251 -0.5479  0.0185 -0.4198
  136MOL0     C17843  11.966   0.946   1.290 -2.4195  0.5490  1.2092
  136MOL0     O17844  11.893   0.828   1.239  0.4368 -0.3782 -0.0957
  136MOL0     C17845  11.963   0.710   1.255  0.6132  0.0020 -0.2993
  136MOL0     C17846  11.954   0.613   1.160  0.1809  0.5162  0.4629
  136MOL0     C17847  12.020   0.495   1.165  0.0357  1.3063 -0.0422
  136MOL0     C17848  12.104   0.457   1.278  0.2145 -0.2082  0.3506
  136MOL0     C17849  12.185   0.331   1.285 -0.6103  0.6302  0.3657
  136MOL0     O17850  12.220   0.279   1.402 -0.3352  0.9763 -0.8309
  136MOL0     C17851  12.313   0.168   1.408 -0.1205  0.3405  0.6048
  136MOL0     C17852  12.416   0.138   1.321 -0.6260 -0.0157  0.4421
  136MOL0     C17853  12.477   0.015   1.331  0.8082  0.2429 -0.5724
  136MOL0     C17854  12.434  -0.080   1.430  0.5704 -0.5105 -0.3856
  136MOL0     O17855  12.502  -0.201   1.436 -0.0664 -0.0859  0.3748
  136MOL0     C17856  12.452  -0.304   1.352 -0.3091  0.0501  0.1766
  136MOL0     C17857  12.538  -0.430   1.364 -0.4353  1.3100 -1.0313
  136MOL0     C17858  12.519  -0.531   1.253 -0.4103 -0.4656  0.1613
  136MOL0     C17859  12.584  -0.662   1.298  0.7086 -0.1270  0.8752
  136MOL0     C17860  12.591  -0.779   1.201  0.2032 -0.1534  0.0419
  136MOL0     C17861  12.649  -0.744   1.065  0.5685  0.1206 -0.1593
  136MOL0     C17862  12.698  -0.874   0.997 -0.7865 -0.3180 -0.3718
  136MOL0     C17863  12.748  -0.839   0.861 -0.9112  0.0168  0.4970
  136MOL0    Cl17864  12.882  -0.721   0.846  0.3480  0.1994  0.2702
  136MOL0     C17865  12.341  -0.047   1.522 -1.0988 -0.2166  0.6954
  136MOL0     C17866  12.272   0.078   1.507 -0.2206 -0.6790 -0.3288
  136MOL0     O17867  12.207   0.280   1.175  0.6550  0.3709  0.7567
  136MOL0     C17868  12.096   0.548   1.389  0.3209  0.2292 -0.3565
  136MOL0     C17869  12.016   0.665   1.375  0.1601 -0.0986  0.8349
  136MOL0     N17870  11.468   1.122   1.409 -0.0626 -0.2632 -0.0450
  136MOL0     N17871  11.344   1.168   1.411  0.6405 -0.8520 -0.0858
  136MOL0     C17872  10.825   1.796   1.888  0.2737 -0.0487  0.4888
  136MOL0     C17873  10.825   1.755   2.023  0.0188  0.9317  0.2065
  136MOL0     C17874  10.716   1.435   2.346 -0.8767  1.1483  0.7138
  136MOL0     C17875  10.753   1.305   2.377  0.1202 -0.0964 -0.0432
  136MOL0     C17876  10.728   1.256   2.505 -0.0789  0.0788 -0.1646
  136MOL0     C17877  10.679   1.337   2.613  0.9351 -0.1129 -0.5818
  136MOL0     O17878  10.638   1.309   2.742  0.0437  0.0605 -0.3410
  136MOL0     C17879  10.707   1.202   2.785  0.3390  0.2201 -0.5042
  136MOL0     C17880  10.644   1.138   2.916 -0.6481  0.4633  0.1289
  136MOL0     C17881  10.538   1.034   2.876  0.2506 -0.3869 -0.9566
  136MOL0     C17882  10.430   1.035   2.978  0.0617 -0.5837  0.4769
  136MOL0     C17883  10.459   0.968   3.110  0.7793 -0.0295 -0.6572
  136MOL0     C17884  10.487   0.909   3.211 -0.5964  0.8507 -0.1060
  136MOL0     C17885  10.639   1.462   2.571  0.1813 -1.0816  0.9625
  136MOL0     C17886  10.656   1.509   2.446  0.1036  0.4355 -0.2172
  136MOL0     H17887  10.498   1.679   2.076  0.9420 -0.9200  2.1226
  136MOL0     H17888  10.503   1.807   1.836  0.7362 -0.7167 -2.5028
  136MOL0     H17889  10.838   2.004   1.699 -0.6402  0.2417  1.1213
  136MOL0     H17890  10.749   2.003   1.547  1.6010  0.9299  0.0020
  136MOL0     H17891  10.969   1.813   1.615 -0.3742 -2.2216 -1.8418
  136MOL0     H17892  10.928   1.901   1.471 -3.2189  3.0682 -0.5118
  136MOL0     H17893  10.750   1.739   1.424 -0.4826  1.6304  0.7416
  136MOL0     H17894  10.767   1.662   1.578  1.0755  1.1525  1.6030
  136MOL0     H17895  10.982   1.671   1.353 -1.6821 -1.5706 -1.7009
  136MOL0     H17896  11.011   1.607   1.513  0.4688  1.0063  0.3563
  136MOL0     H17897  10.783   1.516   1.319  0.5615 -0.8466 -0.4724
  136MOL0     H17898  10.850   1.431   1.455  2.6739 -0.4716  0.2069
  136MOL0     H17899  11.002   1.489   1.195  2.2404 -4.6685 -2.6289
  136MOL0     H17900  10.963   1.334   1.248  0.5817  0.7823 -2.3636
  136MOL0     H17901  11.165   1.501   1.391 -0.8924  1.5538 -1.5233
  136MOL0     H17902  11.093   1.349   1.446  0.7196 -0.8751 -1.1876
  136MOL0     H17903  11.240   1.398   1.188  0.6255 -1.1415 -0.0767
  136MOL0     H17904  11.156   1.247   1.240 -0.1207 -0.3320  0.4191
  136MOL0     H17905  11.505   1.408   1.264 -1.1765  0.0611 -2.8422
  136MOL0     H17906  11.737   1.282   1.359  0.2423 -1.3999  1.5875
  136MOL0     H17907  11.704   1.250   1.185  2.4249 -2.1033  0.0998
  136MOL0     H17908  11.703   1.002   1.234  0.7270  1.1188 -1.9365
  136MOL0     H17909  11.759   1.047   1.404  2.8961  1.8215  0.3702
  136MOL0     H17910  11.898   1.084   1.142  0.4502  1.4467 -0.2984
  136MOL0     H17911  11.937   1.167   1.290 -1.0277  0.6693 -1.4589
  136MOL0     H17912  11.973   0.938   1.399  1.2723  0.5917  1.1006
  136MOL0     H17913  12.071   0.956   1.259 -2.1377 -0.3605  1.8491
  136MOL0     H17914  11.915   0.647   1.064  0.5586 -1.1652 -0.3272
  136MOL0     H17915  12.023   0.437   1.073  3.0756 -0.3745  0.9899
  136MOL0     H17916  12.445   0.209   1.244  1.2062 -1.3744 -0.1880
  136MOL0     H17917  12.566  -0.010   1.274  0.7153 -0.6895 -0.3186
  136MOL0     H17918  12.454  -0.283   1.245 -0.0800 -4.3441 -0.8845
  136MOL0     H17919  12.352  -0.331   1.386  1.4390 -3.1351  3.4835
  136MOL0     H17920  12.510  -0.482   1.456  1.7299 -1.2448 -1.6949
  136MOL0     H17921  12.643  -0.401   1.363 -0.0374  0.0332  0.5723
  136MOL0     H17922  12.563  -0.478   1.168  0.2510  1.8836  1.8903
  136MOL0     H17923  12.410  -0.541   1.253 -0.6365  1.6543  0.5612
  136MOL0     H17924  12.690  -0.644   1.316  2.6326 -1.0977 -6.3276
  136MOL0     H17925  12.527  -0.700   1.383 -1.9459 -3.9559 -2.2488
  136MOL0     H17926  12.490  -0.820   1.188  0.3799 -1.2416  1.7115
  136MOL0     H17927  12.646  -0.863   1.245 -1.1469  0.4317  3.0693
  136MOL0     H17928  12.738  -0.684   1.082  1.8913 -1.8538  0.2141
  136MOL0     H17929  12.581  -0.698   0.993 -1.3294  2.0165  2.6575
  136MOL0     H17930  12.773  -0.930   1.052 -2.1471 -2.1834 -0.3146
  136MOL0     H17931  12.610  -0.938   1.011  0.3924 -1.5226  2.0622
  136MOL0     H17932  12.666  -0.801   0.801  1.8236  0.9120 -3.0402
  136MOL0     H17933  12.781  -0.934   0.816  1.8083  1.9280 -1.9306
  136MOL0     H17934  12.308  -0.117   1.597 -2.0251  0.6744  1.1391
  136MOL0     H17935  12.196   0.106   1.579  0.7447  0.4873  0.2750
  136MOL0     H17936  12.164   0.518   1.468  0.2093  0.8220 -0.0310
  136MOL0     H17937  12.035   0.730   1.460 -0.7944 -0.9005  1.6900
  136MOL0     H17938  10.923   1.816   1.844  1.4082  0.1540  2.9726
  136MOL0     H17939  10.918   1.750   2.080 -0.6165  2.4149  1.4493
  136MOL0     H17940  10.788   1.226   2.311  2.4902 -0.4937  1.5833
  136MOL0     H17941  10.765   1.154   2.507 -1.0833 -0.3714 -2.0648
  136MOL0     H17942  10.805   1.245   2.806  0.0399  0.9794 -0.5879
  136MOL0     H17943  10.726   1.131   2.705 -0.2004 -0.6039  0.0807
  136MOL0     H17944  10.721   1.085   2.974 -1.4937  0.7125  1.5395
  136MOL0     H17945  10.598   1.217   2.975 -0.1713  0.3514  0.6607
  136MOL0     H17946  10.593   0.940   2.877 -1.0126 -1.1704  0.5189
  136MOL0     H17947  10.484   1.051   2.783  0.8835 -0.1807 -1.2894
  136MOL0     H17948  10.393   1.132   3.011 -1.5348 -1.3224  0.9762
  136MOL0     H17949  10.344   0.975   2.945  0.3640 -0.7307 -0.0640
  136MOL0     H17950  10.497   0.840   3.292 -1.2900 -1.4286 -1.8383
  136MOL0     H17951  10.596   1.531   2.643  0.8011  0.2911  0.0594
  136MOL0     H17952  10.627   1.612   2.429  0.0312  0.8550  2.1530
  137MOL0     O17953   0.540   3.452   5.368  0.2637 -0.4666 -0.0074
  137MOL0     C17954   0.565   3.482   5.482  0.3583 -0.2755 -0.8770
  137MOL0     O17955   0.660   3.575   5.526  0.2973 -0.2227  0.0922
  137MOL0     C17956   0.739   3.662   5.444  0.5640 -0.1562 -0.3896
  137MOL0     C17957   0.828   3.730   5.526 -0.1104  0.4777  1.0704
  137MOL0     C17958   0.919   3.821   5.467 -0.2422  0.2698 -1.3457
  137MOL0     C17959   0.916   3.839   5.328  0.9709  0.2604  0.2081
  137MOL0     O17960   0.987   3.942   5.280  0.3300 -0.5626 -0.6269
  137MOL0     C17961   1.127   3.910   5.258  0.4880  0.0484  0.6850
  137MOL0     C17962   1.197   4.012   5.180 -0.5317 -0.3391 -0.8398
  137MOL0     C17963   1.216   4.144   5.241  0.3651 -1.2450  0.3223
  137MOL0     C17964   1.265   4.253   5.142 -0.0603  0.6146  0.9390
  137MOL0     C17965   1.398   4.242   5.067  0.4503 -0.0780 -0.6101
  137MOL0     C17966   1.514   4.232   5.161 -0.5476  0.6395  0.2314
  137MOL0     C17967   1.537   4.363   5.242  0.1740 -0.4313 -0.5830
  137MOL0     C17968   1.617   4.464   5.149  0.1022 -0.4585 -0.5114
  137MOL0     N17969   1.764   4.421   5.115  0.8168 -0.0330  0.2465
  137MOL0     C17970   1.862   4.399   5.204 -0.5662 -0.7802 -0.1888
  137MOL0     C17971   1.961   4.365   5.124 -0.0365  0.1353 -0.1107
  137MOL0     C17972   2.103   4.346   5.155 -0.0516  0.2287 -0.0486
  137MOL0     C17973   2.130   4.207   5.215  0.4265  0.2152 -0.5540
  137MOL0     C17974   2.274   4.178   5.237 -0.0187  0.3192  1.0879
  137MOL0     C17975   2.325   4.205   5.378  1.1390 -0.3012 -0.5560
  137MOL0     O17976   2.315   4.348   5.398  0.6954  0.3754 -0.2481
  137MOL0     C17977   2.429   4.427   5.408  0.3125  0.5263 -0.1475
  137MOL0     C17978   2.546   4.397   5.339  0.5922  0.2681 -0.0070
  137MOL0     C17979   2.665   4.463   5.369 -0.4260  0.0968  0.7881
  137MOL0     C17980   2.656   4.572   5.461 -1.5592  0.4014 -1.0808
  137MOL0     C17981   2.789   4.637   5.482  0.3064  0.0218  0.4699
  137MOL0     O17982   2.787   4.734   5.575 -0.3667  0.4910  0.3716
  137MOL0     C17983   2.887   4.827   5.587  0.3987 -0.1123  0.0298
  137MOL0     C17984   2.965   4.885   5.487 -0.9904  0.1444 -0.4987
  137MOL0     C17985   3.070   4.970   5.509  0.0387  0.3791 -0.9510
  137MOL0     C17986   3.112   4.995   5.640 -0.2644  0.1148 -0.1892
  137MOL0     O17987   3.215   5.085   5.670  0.4383  0.9076  0.3831
  137MOL0     C17988   3.298   5.050   5.776  0.5330  0.2654  0.6455
  137MOL0     C17989   3.382   5.174   5.795  0.0813  0.4069 -1.2848
  137MOL0     C17990   3.305   5.294   5.849 -0.0641 -0.1604 -1.2824
  137MOL0     C17991   3.403   5.416   5.864  0.4497  0.0900  0.8217
  137MOL0     C17992   3.343   5.555   5.873 -1.0830  0.2126  0.9306
  137MOL0     C17993   3.454   5.672   5.859  0.4016 -0.8942  1.4922
  137MOL0     C17994   3.490   5.697   5.706  0.7802 -0.3907  0.4592
  137MOL0     C17995   3.615   5.782   5.683  0.9989  0.4000 -0.2926
  137MOL0    Cl17996   3.758   5.677   5.719 -0.3115  0.2332 -0.1964
  137MOL0     C17997   3.041   4.940   5.748  0.0757 -1.3940  0.7405
  137MOL0     C17998   2.931   4.856   5.723  0.0654  0.4021 -0.3230
  137MOL0     O17999   2.885   4.603   5.418  0.0890  0.1916 -0.3780
  137MOL0     C18000   2.538   4.601   5.522  0.8138 -0.1630 -0.3014
  137MOL0     C18001   2.421   4.539   5.480  0.8244 -0.6620 -0.0602
  137MOL0     N18002   1.929   4.354   4.989  0.4035  0.0112  0.0234
  137MOL0     N18003   1.803   4.392   4.991  0.4341 -0.3019  0.1332
  137MOL0     C18004   0.835   3.760   5.246  0.4366  0.7386 -0.4619
  137MOL0     C18005   0.749   3.658   5.302  0.0513  0.1947  1.1526
  137MOL0     C18006   0.468   3.433   5.581 -0.0223 -0.7871  0.4871
  137MOL0     C18007   0.373   3.330   5.540 -0.0367  0.0511  0.6376
  137MOL0     C18008   0.297   3.268   5.636 -0.0289 -0.3310 -0.2557
  137MOL0     C18009   0.307   3.304   5.773  0.9209 -0.1117  0.5319
  137MOL0     O18010   0.245   3.242   5.872  0.5133 -0.2608  0.7227
  137MOL0     C18011   0.108   3.234   5.874  0.3492 -0.2689  0.1020
  137MOL0     C18012   0.032   3.315   5.973 -0.7144 -0.3508  0.3944
  137MOL0     C18013  -0.118   3.332   5.955  0.0160 -0.3067  0.0540
  137MOL0     C18014  -0.183   3.414   6.068 -0.2239 -1.3167 -0.1457
  137MOL0     C18015  -0.174   3.358   6.197 -0.9478 -0.9699 -0.2882
  137MOL0     C18016  -0.158   3.314   6.304 -0.6568  0.3320 -0.5382
  137MOL0     C18017   0.402   3.403   5.805 -0.4010  0.4127 -0.5916
  137MOL0     C18018   0.486   3.459   5.714 -0.6180  0.2226 -0.2285
  137MOL0     H18019   0.818   3.717   5.633  1.1017 -1.1686  1.0225
  137MOL0     H18020   0.980   3.889   5.525 -0.5503  0.2287 -0.9740
  137MOL0     H18021   1.121   3.821   5.194 -1.1772 -0.9683  2.1560
  137MOL0     H18022   1.175   3.880   5.351 -0.0839  1.8684  1.6049
  137MOL0     H18023   1.134   4.028   5.092 -1.8864  1.2955  0.3682
  137MOL0     H18024   1.298   3.992   5.143  0.8665  3.1108  0.7187
  137MOL0     H18025   1.272   4.150   5.334  1.4502  0.8059 -0.4215
  137MOL0     H18026   1.118   4.182   5.272  0.0589 -0.1079 -1.8130
  137MOL0     H18027   1.193   4.257   5.059  0.7928  2.7753  0.2245
  137MOL0     H18028   1.264   4.346   5.199  2.0262  1.9929 -1.1093
  137MOL0     H18029   1.393   4.331   5.004 -0.5560 -0.0586 -0.5096
  137MOL0     H18030   1.398   4.149   5.009 -0.1193 -1.5278  1.5916
  137MOL0     H18031   1.608   4.226   5.105  0.8948  0.9900  2.4828
  137MOL0     H18032   1.507   4.136   5.214 -0.7447 -0.8900 -2.3888
  137MOL0     H18033   1.441   4.400   5.280 -1.2322 -4.9999  1.0572
  137MOL0     H18034   1.600   4.346   5.330 -2.2259  3.7453  2.3166
  137MOL0     H18035   1.622   4.558   5.205 -0.8960 -1.4043  1.2165
  137MOL0     H18036   1.562   4.488   5.058  0.1772 -0.6899 -0.6205
  137MOL0     H18037   1.866   4.419   5.311  0.8591 -2.0837  0.0429
  137MOL0     H18038   2.142   4.423   5.223  2.2118  0.8574 -1.9383
  137MOL0     H18039   2.152   4.362   5.059  0.1862 -0.5470 -0.0594
  137MOL0     H18040   2.087   4.135   5.145 -0.7195  1.4267 -1.1535
  137MOL0     H18041   2.072   4.187   5.305 -2.5616  0.8039 -2.1953
  137MOL0     H18042   2.298   4.072   5.228  3.4138  1.0901 -0.2901
  137MOL0     H18043   2.341   4.229   5.167  0.3561 -2.9002 -1.1067
  137MOL0     H18044   2.428   4.168   5.377  0.6253 -1.8050 -1.9029
  137MOL0     H18045   2.270   4.155   5.459  1.3420  1.9377  1.0500
  137MOL0     H18046   2.543   4.311   5.273 -0.6153  1.6722 -1.9099
  137MOL0     H18047   2.760   4.442   5.322 -0.1794  1.4841  0.6440
  137MOL0     H18048   2.928   4.873   5.386 -2.1377  2.8928 -0.4977
  137MOL0     H18049   3.138   5.012   5.436  0.8223  1.6974  0.4882
  137MOL0     H18050   3.359   4.962   5.752  0.7277  0.2482  1.1694
  137MOL0     H18051   3.242   5.047   5.870 -2.8177  1.1788 -1.1648
  137MOL0     H18052   3.419   5.207   5.697 -1.0088  0.2988 -1.7444
  137MOL0     H18053   3.455   5.152   5.873 -3.0465 -3.3482  0.9454
  137MOL0     H18054   3.250   5.280   5.942 -0.9016  2.6802 -1.2793
  137MOL0     H18055   3.221   5.324   5.785 -2.0618  3.1787  2.4681
  137MOL0     H18056   3.463   5.398   5.954  1.1604 -3.9130 -0.2374
  137MOL0     H18057   3.474   5.421   5.780  0.2186  2.1161  0.7129
  137MOL0     H18058   3.297   5.562   5.972 -2.3325 -2.7129  0.6729
  137MOL0     H18059   3.264   5.563   5.798  0.1531 -1.7153 -0.6892
  137MOL0     H18060   3.548   5.643   5.908  0.5966  1.2826  2.5133
  137MOL0     H18061   3.417   5.762   5.908 -1.2340  1.2718 -3.1098
  137MOL0     H18062   3.515   5.594   5.679  2.1700 -0.5513  2.1168
  137MOL0     H18063   3.400   5.722   5.649  0.4161 -1.6455  0.4612
  137MOL0     H18064   3.599   5.860   5.758  0.1331 -0.0221 -0.0363
  137MOL0     H18065   3.621   5.817   5.580 -3.1893 -1.8839 -1.5172
  137MOL0     H18066   3.068   4.969   5.849  2.4691  1.3814 -0.5345
  137MOL0     H18067   2.892   4.801   5.807  0.2918  1.4827  0.5231
  137MOL0     H18068   2.529   4.687   5.589 -0.6426 -0.4251 -0.1311
  137MOL0     H18069   2.331   4.575   5.529  0.3739 -1.0181 -0.6162
  137MOL0     H18070   0.830   3.784   5.140 -4.7549  1.0206 -0.4492
  137MOL0     H18071   0.685   3.597   5.240 -1.8062  4.0157 -1.0470
  137MOL0     H18072   0.352   3.302   5.437  0.5756  0.0048  0.5198
  137MOL0     H18073   0.226   3.196   5.595  1.4371 -3.1653  1.7887
  137MOL0     H18074   0.087   3.132   5.908 -2.1917 -0.0062 -0.4953
  137MOL0     H18075   0.058   3.251   5.779 -3.4393 -0.1687  1.9201
  137MOL0     H18076   0.043   3.262   6.068 -0.2337  0.7698  0.9754
  137MOL0     H18077   0.080   3.413   5.981  0.9975 -1.2922  4.1357
  137MOL0     H18078  -0.166   3.234   5.969 -0.9411  0.2045  0.4565
  137MOL0     H18079  -0.142   3.363   5.853  0.4085 -0.1394  0.0138
  137MOL0     H18080  -0.142   3.515   6.060 -3.3861  0.1601  0.7009
  137MOL0     H18081  -0.291   3.425   6.050 -0.5565 -2.7228  0.8048
  137MOL0     H18082  -0.150   3.243   6.384  1.2188 -0.4247 -1.3398
  137MOL0     H18083   0.420   3.436   5.907  1.6820  0.5935 -0.9718
  137MOL0     H18084   0.561   3.527   5.751  0.4035 -2.0664  2.2895
  138MOL0     O18085   3.582   9.568  11.088 -0.7846 -1.3948  0.6250
  138MOL0     C18086   3.665   9.630  11.159  0.2399  0.5009 -0.4019
  138MOL0     O18087   3.802   9.617  11.154 -0.2662  0.7656 -0.8120
  138MOL0     C18088   3.868   9.505  11.106 -0.5431 -0.2355 -0.6178
  138MOL0     C18089   4.003   9.516  11.083  0.3090 -0.5804 -1.0373
  138MOL0     C18090   4.082   9.399  11.083 -0.9903 -0.6020  0.2770
  138MOL0     C18091   4.027   9.267  11.075  0.2520 -0.2594 -0.4226
  138MOL0     O18092   4.109   9.154  11.078 -0.4715 -0.1595 -0.2042
  138MOL0     C18093   4.060   9.038  11.126  0.9334  0.6148  0.4327
  138MOL0     C18094   4.169   8.936  11.096 -0.2254 -0.3308 -0.4781
  138MOL0     C18095   4.298   8.952  11.189 -0.7433 -1.3225 -0.3016
  138MOL0     C18096   4.408   8.871  11.129 -0.8511  1.2953  0.1424
  138MOL0     C18097   4.549   8.899  11.181  0.6695  0.0600 -0.3665
  138MOL0     C18098   4.563   8.841  11.322  0.2403  0.3389 -0.2905
  138MOL0     C18099   4.686   8.884  11.399 -0.0545  0.4908  0.3695
  138MOL0     C18100   4.814   8.807  11.384 -0.6641  0.1030  0.0753
  138MOL0     N18101   4.927   8.875  11.452  0.6804  0.8754  0.2934
  138MOL0     C18102   5.009   8.965  11.392  0.7039 -0.4566 -0.1029
  138MOL0     C18103   5.106   8.996  11.478 -0.0781  0.3326 -0.9737
  138MOL0     C18104   5.219   9.101  11.455  0.6915  0.3625  0.0423
  138MOL0     C18105   5.342   9.020  11.398 -0.0612 -1.2278 -0.2909
  138MOL0     C18106   5.441   9.098  11.311  0.2004 -0.5001  0.1412
  138MOL0     C18107   5.505   9.218  11.378 -0.3462  0.0832  0.4373
  138MOL0     O18108   5.579   9.193  11.499  0.1866 -0.5768  0.1528
  138MOL0     C18109   5.695   9.116  11.503 -0.0990  0.3039 -0.0595
  138MOL0     C18110   5.758   9.114  11.629 -0.0990  0.1748  0.0373
  138MOL0     C18111   5.893   9.072  11.646  1.4256 -0.0299  0.3567
  138MOL0     C18112   5.959   9.005  11.536  0.7585 -0.2909 -0.1875
  138MOL0     C18113   6.098   8.982  11.528  0.1012  0.4088  0.1876
  138MOL0     O18114   6.160   8.974  11.406 -0.7460 -0.3860  0.0965
  138MOL0     C18115   6.291   8.950  11.398 -0.8676  0.7039  0.1602
  138MOL0     C18116   6.336   8.856  11.316  0.3197  0.3991  0.5419
  138MOL0     C18117   6.471   8.814  11.302  0.5732  0.3038  0.3956
  138MOL0     C18118   6.568   8.870  11.382 -0.3734  0.3841  0.1676
  138MOL0     O18119   6.701   8.852  11.364  0.3671 -0.2921 -0.5414
  138MOL0     C18120   6.763   8.726  11.376  0.5108  0.6048 -0.4136
  138MOL0     C18121   6.921   8.744  11.386  0.0710 -0.6260  0.4627
  138MOL0     C18122   7.003   8.607  11.355  0.2844  0.1854 -0.7762
  138MOL0     C18123   7.141   8.627  11.324  1.1096 -0.6990  0.6079
  138MOL0     C18124   7.213   8.495  11.307 -1.0406  0.4610  0.2335
  138MOL0     C18125   7.354   8.512  11.257 -0.1359  0.6402  0.3353
  138MOL0     C18126   7.412   8.372  11.250 -0.0179  0.2277 -0.7602
  138MOL0     C18127   7.555   8.368  11.207 -0.2769  0.1676 -0.0056
  138MOL0    Cl18128   7.587   8.464  11.058 -0.5775  0.0860  0.2608
  138MOL0     C18129   6.530   8.972  11.470  0.5347 -0.5467  0.5617
  138MOL0     C18130   6.394   9.016  11.478  0.3701  0.2951  0.1883
  138MOL0     O18131   6.155   8.983  11.638  0.5146 -0.4668 -0.3252
  138MOL0     C18132   5.879   8.982  11.413  0.5730 -0.3227 -1.1101
  138MOL0     C18133   5.757   9.044  11.400 -0.5241  0.2312  0.3890
  138MOL0     N18134   5.094   8.907  11.582  0.0313 -0.2795 -0.1715
  138MOL0     N18135   4.975   8.856  11.571  0.4917  0.2008 -0.5574
  138MOL0     C18136   3.885   9.263  11.077  0.2482 -1.4424  0.0322
  138MOL0     C18137   3.807   9.379  11.090 -0.8492 -0.8112 -0.0002
  138MOL0     C18138   3.605   9.736  11.247 -1.8309  0.5171 -0.2473
  138MOL0     C18139   3.677   9.856  11.247 -0.8806  1.0171  0.1672
  138MOL0     C18140   3.623   9.969  11.308 -0.4515 -0.6865 -0.7962
  138MOL0     C18141   3.498   9.977  11.377 -0.5636  0.4091 -0.0425
  138MOL0     O18142   3.468  10.097  11.430 -0.6254  0.6205  0.4592
  138MOL0     C18143   3.322  10.120  11.425  0.2775 -0.4632  0.4480
  138MOL0     C18144   3.310  10.265  11.472 -0.2534 -0.2172  0.0644
  138MOL0     C18145   3.163  10.307  11.470  0.1028 -0.8165  0.9495
  138MOL0     C18146   3.155  10.455  11.502  0.6273 -0.9968 -0.0749
  138MOL0     C18147   3.019  10.503  11.518 -0.8002  0.0197 -0.4154
  138MOL0     C18148   2.907  10.555  11.540  0.0753 -0.2451 -0.2233
  138MOL0     C18149   3.424   9.854  11.372 -0.5688 -0.6207 -0.4712
  138MOL0     C18150   3.475   9.744  11.307 -0.9062  0.0635 -0.4975
  138MOL0     H18151   4.047   9.615  11.085 -1.5512  0.3407  2.6548
  138MOL0     H18152   4.190   9.406  11.083 -0.9921 -0.2275 -1.0404
  138MOL0     H18153   3.961   9.013  11.085 -0.4793  1.3750  3.0873
  138MOL0     H18154   4.054   9.054  11.234 -0.3474 -1.6005  0.7700
  138MOL0     H18155   4.190   8.935  10.988  0.6579 -0.3433 -0.3128
  138MOL0     H18156   4.124   8.836  11.103  1.8435 -1.3852 -1.1375
  138MOL0     H18157   4.269   8.931  11.293  1.1654 -2.6046  0.0289
  138MOL0     H18158   4.333   9.055  11.178 -1.1818 -1.0535  0.6801
  138MOL0     H18159   4.379   8.766  11.139 -1.5011  1.6580  3.0808
  138MOL0     H18160   4.411   8.885  11.021  0.8317  3.7725  0.4261
  138MOL0     H18161   4.576   9.005  11.170 -0.1484  0.4749  1.3326
  138MOL0     H18162   4.618   8.840  11.120 -1.7113 -2.9187 -0.4149
  138MOL0     H18163   4.570   8.731  11.320 -2.4535  0.1180 -0.7653
  138MOL0     H18164   4.466   8.868  11.365 -0.8351  0.1782 -2.4462
  138MOL0     H18165   4.708   8.989  11.375  4.3702 -0.2478  0.2659
  138MOL0     H18166   4.669   8.877  11.507  2.5839  1.0086  0.8899
  138MOL0     H18167   4.844   8.803  11.279  1.0269 -1.4026  0.5624
  138MOL0     H18168   4.801   8.707  11.425 -0.2188 -0.9015 -2.0784
  138MOL0     H18169   4.984   9.021  11.302 -1.5630 -0.0406  0.7259
  138MOL0     H18170   5.244   9.149  11.550 -3.2377  0.2172  1.3201
  138MOL0     H18171   5.193   9.173  11.377  2.5909 -0.9732 -1.9674
  138MOL0     H18172   5.309   8.929  11.348  0.9790 -0.4900 -2.4152
  138MOL0     H18173   5.408   8.983  11.478 -0.8272 -0.2067  0.8607
  138MOL0     H18174   5.516   9.026  11.277  0.9438  0.5462 -0.4715
  138MOL0     H18175   5.378   9.128  11.227  0.7054 -1.8115 -0.7404
  138MOL0     H18176   5.421   9.284  11.405 -1.3363 -0.2819 -1.5720
  138MOL0     H18177   5.561   9.276  11.304 -0.6126 -0.4332 -0.1736
  138MOL0     H18178   5.714   9.156  11.719  0.2531 -2.2077  1.4142
  138MOL0     H18179   5.928   9.087  11.748 -0.1591 -0.2096  0.9611
  138MOL0     H18180   6.269   8.810  11.243 -0.0661  1.1293  0.4259
  138MOL0     H18181   6.491   8.732  11.234  0.5096  1.4522 -1.0580
  138MOL0     H18182   6.736   8.656  11.296  1.1770  3.6174 -3.5446
  138MOL0     H18183   6.727   8.695  11.474  2.2993  0.8792  0.3725
  138MOL0     H18184   6.941   8.791  11.483 -3.1936 -1.2975  1.5755
  138MOL0     H18185   6.963   8.823  11.322  2.1531 -0.0603  2.3763
  138MOL0     H18186   6.959   8.556  11.269  0.5034 -1.0893 -0.1403
  138MOL0     H18187   6.992   8.537  11.438  0.6926  0.0759 -0.8149
  138MOL0     H18188   7.151   8.674  11.226  0.8698 -2.4952 -0.3191
  138MOL0     H18189   7.181   8.694  11.402  1.9322 -2.7896  2.0573
  138MOL0     H18190   7.172   8.443  11.220 -0.6278  2.0400 -0.9690
  138MOL0     H18191   7.208   8.428  11.393  3.8515 -0.3816  0.1733
  138MOL0     H18192   7.419   8.576  11.318 -1.5153 -0.2280  2.8853
  138MOL0     H18193   7.350   8.563  11.161 -3.1850 -0.2221 -0.1158
  138MOL0     H18194   7.382   8.315  11.338 -0.0735  1.7973  0.2881
  138MOL0     H18195   7.364   8.312  11.173  1.0078 -2.7212  0.7424
  138MOL0     H18196   7.588   8.271  11.169 -1.9403  0.8172 -3.6036
  138MOL0     H18197   7.627   8.399  11.283 -0.2534  0.0119  0.0366
  138MOL0     H18198   6.600   9.043  11.512 -0.8016  1.4555 -0.4122
  138MOL0     H18199   6.369   9.102  11.539  2.1933 -0.1875  1.7102
  138MOL0     H18200   5.933   8.937  11.330  2.9530  2.7202 -1.4058
  138MOL0     H18201   5.728   9.028  11.297  1.2517  0.0260 -0.1160
  138MOL0     H18202   3.828   9.172  11.089 -2.2306 -0.0581 -0.5026
  138MOL0     H18203   3.700   9.371  11.099 -1.7741  1.3528 -5.1590
  138MOL0     H18204   3.778   9.864  11.210 -0.3386  1.6322  1.6957
  138MOL0     H18205   3.692  10.053  11.317 -2.4537  0.9305  0.4278
  138MOL0     H18206   3.252  10.060  11.484  0.2084  0.7060  1.6126
  138MOL0     H18207   3.289  10.116  11.321  2.9725  0.5444 -0.5422
  138MOL0     H18208   3.350  10.265  11.574  2.9521 -1.1359 -1.0637
  138MOL0     H18209   3.368  10.341  11.420 -2.5226  1.8564  0.3957
  138MOL0     H18210   3.105  10.242  11.536 -0.3376 -1.0821  0.3067
  138MOL0     H18211   3.126  10.300  11.368 -2.8905  5.7970  1.0341
  138MOL0     H18212   3.206  10.475  11.597 -0.5273 -4.5768  1.4790
  138MOL0     H18213   3.205  10.514  11.426  2.9680  0.2543  2.2804
  138MOL0     H18214   2.804  10.579  11.555  0.2909  2.4760 -2.4609
  138MOL0     H18215   3.336   9.840  11.433  1.1067 -0.2009  2.1858
  138MOL0     H18216   3.412   9.655  11.302  1.9530 -2.2233  1.1022
  139MOL0     O18217   5.680   9.195   4.455 -0.3406 -0.4261  0.0946
  139MOL0     C18218   5.701   9.308   4.491 -0.5327 -1.7833 -0.2811
  139MOL0     O18219   5.789   9.358   4.585 -0.2655 -0.1847  0.5624
  139MOL0     C18220   5.870   9.271   4.651  0.9781 -0.0134  0.3288
  139MOL0     C18221   5.813   9.173   4.735  0.6115 -0.7007 -0.5003
  139MOL0     C18222   5.899   9.098   4.816  0.5426  0.1948  0.2329
  139MOL0     C18223   6.037   9.095   4.789 -0.4974 -0.0591 -0.3424
  139MOL0     O18224   6.130   9.011   4.839 -0.0092 -1.6318  0.6348
  139MOL0     C18225   6.135   8.992   4.976  0.7167 -0.1451  0.9625
  139MOL0     C18226   6.259   8.924   5.038  1.1701  0.1363  0.2546
  139MOL0     C18227   6.274   8.946   5.185  1.0051  0.5153 -0.6288
  139MOL0     C18228   6.183   8.860   5.267  0.2104 -0.2349 -0.0085
  139MOL0     C18229   6.190   8.875   5.418  0.2719 -1.2118 -0.0366
  139MOL0     C18230   6.322   8.862   5.483 -0.1948  0.0137  0.4583
  139MOL0     C18231   6.313   8.863   5.642  0.1015  0.6314  0.2926
  139MOL0     C18232   6.448   8.873   5.712 -0.9390 -0.5515  0.0138
  139MOL0     N18233   6.532   8.747   5.712 -0.1099 -0.1382 -0.5809
  139MOL0     C18234   6.560   8.667   5.826 -0.0827  0.0898 -0.0945
  139MOL0     C18235   6.617   8.554   5.777  0.7793  0.4285  0.2850
  139MOL0     C18236   6.639   8.428   5.848  0.9997  0.2880  0.4036
  139MOL0     C18237   6.785   8.416   5.905  0.0112  0.6404 -0.2638
  139MOL0     C18238   6.885   8.422   5.790 -0.4409  0.5086  0.0746
  139MOL0     C18239   7.020   8.390   5.839  0.1282 -0.8014 -0.4512
  139MOL0     O18240   7.117   8.450   5.755  0.5334  0.2671  0.4443
  139MOL0     C18241   7.251   8.425   5.788 -0.3639  0.5009 -0.5342
  139MOL0     C18242   7.298   8.334   5.888 -0.9531 -0.2513 -0.2697
  139MOL0     C18243   7.435   8.328   5.934 -0.1429 -0.8494 -0.9879
  139MOL0     C18244   7.533   8.410   5.873 -0.0127 -0.2342  0.0493
  139MOL0     C18245   7.663   8.414   5.923 -0.1696 -1.1839  0.3280
  139MOL0     O18246   7.679   8.353   6.038  0.5825  0.0990 -0.6229
  139MOL0     C18247   7.798   8.375   6.095 -0.1921  0.5370 -0.6222
  139MOL0     C18248   7.896   8.278   6.100  1.0485 -0.2740 -0.1532
  139MOL0     C18249   8.005   8.288   6.180 -0.7982 -1.1699  0.3430
  139MOL0     C18250   8.046   8.395   6.246 -0.4494  0.8855 -0.1481
  139MOL0     O18251   8.160   8.398   6.322 -0.0659 -0.4984 -0.6138
  139MOL0     C18252   8.185   8.499   6.416 -0.2412 -0.0701  0.9566
  139MOL0     C18253   8.308   8.441   6.488  0.0729  0.3074 -0.8476
  139MOL0     C18254   8.431   8.425   6.403  0.2559  0.0909  0.8477
  139MOL0     C18255   8.491   8.563   6.355  0.5922 -0.1703 -0.3584
  139MOL0     C18256   8.599   8.528   6.247 -0.0471 -0.5850 -0.9772
  139MOL0     C18257   8.660   8.655   6.193  0.4385 -0.3777 -0.0142
  139MOL0     C18258   8.777   8.606   6.100 -0.6891  0.1711  0.4090
  139MOL0     C18259   8.889   8.699   6.076 -0.6140  0.5787 -0.1931
  139MOL0    Cl18260   8.990   8.620   5.961  0.0533  0.0008  0.0103
  139MOL0     C18261   7.957   8.499   6.236 -0.1959 -0.2829 -0.7665
  139MOL0     C18262   7.834   8.491   6.172  0.4358  0.1502 -0.5283
  139MOL0     O18263   7.750   8.448   5.840 -1.1693 -0.2469 -0.1640
  139MOL0     C18264   7.492   8.501   5.772 -0.8462  0.2426 -0.0490
  139MOL0     C18265   7.357   8.507   5.731  0.7762 -0.3964 -0.5253
  139MOL0     N18266   6.640   8.580   5.646  0.8360  0.6942  0.0355
  139MOL0     N18267   6.581   8.688   5.603 -0.1336  0.1084 -0.7343
  139MOL0     C18268   6.088   9.194   4.705 -1.7836 -0.0816 -0.8771
  139MOL0     C18269   6.006   9.283   4.635 -0.6270  0.3802  0.8944
  139MOL0     C18270   5.623   9.413   4.413 -0.0078 -0.5722  0.5099
  139MOL0     C18271   5.654   9.547   4.433  0.8473 -0.5365  0.5322
  139MOL0     C18272   5.599   9.642   4.342  1.1789 -0.1358 -0.3989
  139MOL0     C18273   5.510   9.610   4.241 -0.5100 -0.0728  0.1416
  139MOL0     O18274   5.442   9.715   4.181 -0.2666 -0.1771 -0.5965
  139MOL0     C18275   5.305   9.712   4.138 -0.4326 -0.5360  0.5375
  139MOL0     C18276   5.241   9.848   4.147 -0.5404  0.1103 -0.2879
  139MOL0     C18277   5.282   9.927   4.020 -0.0931 -0.2198 -0.7852
  139MOL0     C18278   5.208  10.058   3.985  0.5728 -0.0457 -0.3581
  139MOL0     C18279   5.267  10.113   3.855 -0.0969 -0.6070  0.2111
  139MOL0     C18280   5.328  10.138   3.749 -0.4479 -0.5023 -0.0674
  139MOL0     C18281   5.477   9.479   4.223 -0.7468 -0.0028 -0.1353
  139MOL0     C18282   5.533   9.379   4.308  0.1063  0.7667  0.0062
  139MOL0     H18283   5.706   9.156   4.732  0.5129 -0.0082 -1.0782
  139MOL0     H18284   5.867   9.013   4.876 -0.8261  0.2733 -0.3354
  139MOL0     H18285   6.044   8.939   5.007  0.6989 -1.0379 -0.5452
  139MOL0     H18286   6.143   9.096   5.010 -0.3854  0.3773 -0.2609
  139MOL0     H18287   6.352   8.961   4.994  1.0086  0.3715  0.1088
  139MOL0     H18288   6.265   8.816   5.021  0.8405  0.0019  0.9483
  139MOL0     H18289   6.260   9.053   5.206  1.9070  0.5471 -0.1275
  139MOL0     H18290   6.377   8.927   5.216  0.9988  1.1144 -0.2218
  139MOL0     H18291   6.082   8.897   5.246  0.8210  3.7994  2.9751
  139MOL0     H18292   6.199   8.755   5.240 -1.2363  0.0915 -2.4087
  139MOL0     H18293   6.130   8.802   5.472  0.4831 -1.3087  0.0659
  139MOL0     H18294   6.150   8.974   5.443 -0.2611 -1.0808 -1.2846
  139MOL0     H18295   6.398   8.925   5.435 -1.1119 -1.3358 -3.0220
  139MOL0     H18296   6.346   8.757   5.463 -0.8721 -0.0413 -0.1061
  139MOL0     H18297   6.250   8.948   5.671 -1.4296 -0.8216  1.4081
  139MOL0     H18298   6.267   8.772   5.681  0.2349 -0.4296 -1.8967
  139MOL0     H18299   6.429   8.903   5.815  3.0099  0.5313  0.6206
  139MOL0     H18300   6.516   8.949   5.672 -0.4218  0.4160  2.5375
  139MOL0     H18301   6.535   8.697   5.927 -1.5329 -0.5287 -0.2382
  139MOL0     H18302   6.617   8.351   5.774  0.6933  0.2803  0.5010
  139MOL0     H18303   6.569   8.419   5.931 -1.2485  0.6206 -1.3691
  139MOL0     H18304   6.791   8.324   5.964  0.7443  1.2099  0.5862
  139MOL0     H18305   6.801   8.500   5.974 -3.0239  1.2380 -0.1525
  139MOL0     H18306   6.853   8.355   5.710 -0.6472 -1.1520  1.4861
  139MOL0     H18307   6.884   8.522   5.746 -3.8564 -0.0800 -1.5070
  139MOL0     H18308   7.030   8.282   5.833 -4.4722 -1.4963  0.6833
  139MOL0     H18309   7.027   8.430   5.941 -1.6504 -0.4078 -0.4625
  139MOL0     H18310   7.238   8.253   5.927  1.1901 -2.1636 -0.7141
  139MOL0     H18311   7.462   8.260   6.014  2.0916 -0.9730 -1.7639
  139MOL0     H18312   7.883   8.206   6.020  0.5658  1.8085 -2.0504
  139MOL0     H18313   8.072   8.203   6.175  0.5703 -0.0740 -0.8405
  139MOL0     H18314   8.102   8.502   6.488 -2.1033  0.1944 -1.0748
  139MOL0     H18315   8.196   8.602   6.381 -0.3614 -0.8163 -1.4498
  139MOL0     H18316   8.275   8.356   6.547  0.8561  1.3813  1.2475
  139MOL0     H18317   8.333   8.505   6.573  2.2392  1.4925 -2.2734
  139MOL0     H18318   8.425   8.345   6.328  2.6123  1.5736 -1.0771
  139MOL0     H18319   8.508   8.378   6.464  2.3657  0.4604 -1.3450
  139MOL0     H18320   8.407   8.618   6.312 -1.1917 -0.8154  2.0790
  139MOL0     H18321   8.524   8.616   6.444 -0.8538 -0.3936  0.3348
  139MOL0     H18322   8.547   8.471   6.170 -3.6680 -0.2497  0.9923
  139MOL0     H18323   8.677   8.464   6.290  0.7228  1.4487  0.8575
  139MOL0     H18324   8.690   8.737   6.259  4.3881  0.2131 -2.2294
  139MOL0     H18325   8.581   8.705   6.136 -1.1706 -0.4681  2.0251
  139MOL0     H18326   8.821   8.525   6.158 -4.3969 -2.4940 -0.1319
  139MOL0     H18327   8.720   8.567   6.015 -2.5511 -0.6379  1.9427
  139MOL0     H18328   8.949   8.728   6.162  0.0617  0.8461 -0.7427
  139MOL0     H18329   8.859   8.794   6.031  2.4732  0.8831 -1.9439
  139MOL0     H18330   7.976   8.593   6.287 -1.3123  0.3023 -1.3793
  139MOL0     H18331   7.759   8.570   6.174 -0.1114 -0.3765  1.5141
  139MOL0     H18332   7.562   8.573   5.730 -0.1256 -0.9640 -0.9806
  139MOL0     H18333   7.324   8.585   5.663 -0.8221 -1.7637 -1.3965
  139MOL0     H18334   6.194   9.190   4.683 -1.0029  2.5234  1.7975
  139MOL0     H18335   6.061   9.344   4.564  1.0667 -3.1223 -1.1143
  139MOL0     H18336   5.728   9.585   4.503  1.7128  2.3074 -1.7477
  139MOL0     H18337   5.603   9.749   4.354 -0.4857  0.1006 -1.7056
  139MOL0     H18338   5.243   9.649   4.202 -1.4761 -1.0939 -0.9635
  139MOL0     H18339   5.304   9.660   4.042  4.5464  1.1216 -0.7618
  139MOL0     H18340   5.132   9.845   4.149 -0.5781  0.9017  2.2805
  139MOL0     H18341   5.282   9.904   4.231 -1.6442 -3.0629  2.6231
  139MOL0     H18342   5.255   9.869   3.931  0.3514 -0.0783 -1.0169
  139MOL0     H18343   5.389   9.947   4.008 -0.4597  2.5759  0.0078
  139MOL0     H18344   5.101  10.041   3.967  0.3502 -2.4778  2.5225
  139MOL0     H18345   5.211  10.132   4.065  2.2948 -0.0595 -0.3697
  139MOL0     H18346   5.394  10.147   3.665  0.6481  1.6520  0.9566
  139MOL0     H18347   5.418   9.454   4.135  0.8649  3.2837 -2.3761
  139MOL0     H18348   5.523   9.273   4.286  0.6573  0.7164 -0.0214
  140MOL0     O18349   4.596  11.179   8.836 -0.4366 -0.1291 -0.8969
  140MOL0     C18350   4.701  11.122   8.842  0.7874 -0.3258 -0.6527
  140MOL0     O18351   4.739  11.048   8.955  0.2970 -0.2058  0.5660
  140MOL0     C18352   4.676  11.062   9.070  0.1408  0.3674  0.2565
  140MOL0     C18353   4.584  10.968   9.113 -0.0846  0.5545 -0.2814
  140MOL0     C18354   4.531  10.970   9.246 -0.0971 -0.2048 -0.6726
  140MOL0     C18355   4.543  11.082   9.322  0.5342  0.2857 -1.1313
  140MOL0     O18356   4.467  11.084   9.441 -0.8753  0.1874  0.6774
  140MOL0     C18357   4.500  11.196   9.524  0.0866  0.2248  0.8221
  140MOL0     C18358   4.401  11.203   9.631  0.5477 -0.1004 -0.1069
  140MOL0     C18359   4.378  11.078   9.716 -0.7809  0.3131 -0.6122
  140MOL0     C18360   4.241  11.059   9.786  0.1490  0.3805 -0.9612
  140MOL0     C18361   4.153  10.984   9.679  0.3676  0.1496  0.5602
  140MOL0     C18362   4.024  10.935   9.739 -0.9858 -1.0458  0.9419
  140MOL0     C18363   3.947  10.875   9.629 -0.3367  0.5640  1.3480
  140MOL0     C18364   3.807  10.837   9.672 -0.9221 -0.5725  0.4857
  140MOL0     N18365   3.717  10.796   9.571 -0.0226  0.7013  0.1798
  140MOL0     C18366   3.612  10.874   9.544 -0.5449 -0.4351  0.6989
  140MOL0     C18367   3.555  10.830   9.433  0.0469  0.2440 -0.3878
  140MOL0     C18368   3.436  10.877   9.378  0.8884  0.4442 -0.6238
  140MOL0     C18369   3.344  10.756   9.381  1.1540  0.2771 -0.0862
  140MOL0     C18370   3.207  10.815   9.323  0.5302  0.6398  0.0182
  140MOL0     C18371   3.103  10.881   9.411 -0.9205  0.0665 -0.0212
  140MOL0     O18372   3.083  10.786   9.515 -1.0158 -0.3615  0.3042
  140MOL0     C18373   2.994  10.832   9.613 -0.9991  0.4612  0.3987
  140MOL0     C18374   2.943  10.962   9.639  0.3569  0.4599  0.2191
  140MOL0     C18375   2.873  10.991   9.753 -0.4428 -0.5486  0.0891
  140MOL0     C18376   2.839  10.893   9.842 -0.9154 -0.1864  0.1482
  140MOL0     C18377   2.755  10.924   9.961 -0.7214 -0.6430 -0.2471
  140MOL0     O18378   2.733  11.063   9.995 -0.6738 -1.0446 -0.0815
  140MOL0     C18379   2.623  11.101  10.077 -1.1286 -0.0367 -0.0969
  140MOL0     C18380   2.505  11.032  10.097 -0.1179  1.2698 -0.3408
  140MOL0     C18381   2.397  11.089  10.166 -0.4643 -0.7952  0.4789
  140MOL0     C18382   2.405  11.214  10.234 -0.1395 -0.1319 -0.0036
  140MOL0     O18383   2.313  11.279  10.311 -0.8658  0.7618 -0.3329
  140MOL0     C18384   2.186  11.220  10.315 -0.2024 -0.3168  0.6766
  140MOL0     C18385   2.109  11.273  10.445  1.3708 -0.0366 -0.0192
  140MOL0     C18386   1.984  11.185  10.462 -0.3315 -0.6161  0.3703
  140MOL0     C18387   1.870  11.229  10.372 -0.8316  0.6756  0.3024
  140MOL0     C18388   1.741  11.148  10.412 -1.1066 -0.5364 -0.2288
  140MOL0     C18389   1.612  11.221  10.377 -0.4717 -0.2416 -0.6325
  140MOL0     C18390   1.501  11.177  10.476  0.2873  0.5717 -0.9861
  140MOL0     C18391   1.363  11.231  10.453 -0.1337  0.5127 -0.4940
  140MOL0    Cl18392   1.254  11.162  10.575 -0.3033  0.0924  0.1094
  140MOL0     C18393   2.529  11.277  10.222  0.5415 -0.1100 -0.2160
  140MOL0     C18394   2.631  11.225  10.150 -0.6361  0.2353 -0.0793
  140MOL0     O18395   2.711  10.824  10.021 -0.1129 -0.1061  0.0889
  140MOL0     C18396   2.893  10.759   9.823 -0.6324 -0.3531 -0.3012
  140MOL0     C18397   2.961  10.734   9.704  0.0769  0.3735  0.4669
  140MOL0     N18398   3.632  10.721   9.393 -0.0586 -0.5968  0.5748
  140MOL0     N18399   3.732  10.703   9.473 -0.1932  0.6792 -0.3568
  140MOL0     C18400   4.617  11.195   9.266 -0.4769  1.0566 -0.2901
  140MOL0     C18401   4.684  11.179   9.140 -0.0485 -0.3337 -0.0037
  140MOL0     C18402   4.783  11.127   8.733 -0.3020  0.2957  0.9123
  140MOL0     C18403   4.890  11.044   8.730 -0.4416 -0.1544  0.1901
  140MOL0     C18404   4.984  11.033   8.633  0.6118 -0.1124  0.2991
  140MOL0     C18405   4.981  11.126   8.526  0.9245  0.0319  0.2380
  140MOL0     O18406   5.068  11.123   8.419 -0.0454 -0.2006  0.4260
  140MOL0     C18407   5.146  11.010   8.401 -0.2247  0.8387  0.4717
  140MOL0     C18408   5.218  11.021   8.268 -0.1298  0.6118 -0.8111
  140MOL0     C18409   5.335  11.119   8.279  0.6679  0.3547 -0.8457
  140MOL0     C18410   5.400  11.145   8.145 -0.0603  0.3291 -0.5328
  140MOL0     C18411   5.491  11.264   8.156 -0.5091  0.7919  0.5498
  140MOL0     C18412   5.560  11.360   8.166 -0.3365  0.0672  0.3290
  140MOL0     C18413   4.876  11.212   8.524 -0.3652 -0.1262  0.3950
  140MOL0     C18414   4.785  11.222   8.625  0.8605 -0.2868 -0.0291
  140MOL0     H18415   4.557  10.882   9.053 -2.1933 -1.3342  3.0381
  140MOL0     H18416   4.461  10.894   9.281  0.0059 -0.3594 -0.8001
  140MOL0     H18417   4.485  11.292   9.474 -3.1291  0.7393  2.5223
  140MOL0     H18418   4.602  11.192   9.563  0.5839 -1.2416 -0.5213
  140MOL0     H18419   4.313  11.212   9.568 -0.2817  3.7355  1.3005
  140MOL0     H18420   4.412  11.296   9.688  2.2052 -1.0971  1.3253
  140MOL0     H18421   4.460  11.094   9.787  0.4301 -2.5909 -1.2184
  140MOL0     H18422   4.412  10.990   9.661  3.9694  0.4107  1.6524
  140MOL0     H18423   4.268  10.991   9.867  2.0348 -0.5169 -2.2565
  140MOL0     H18424   4.209  11.159   9.815  1.9589  0.2278  1.9914
  140MOL0     H18425   4.210  10.903   9.632 -2.6173 -1.2845 -0.8099
  140MOL0     H18426   4.130  11.061   9.605  1.0752  0.4400  0.6331
  140MOL0     H18427   3.964  11.006   9.797 -0.0470  1.6896 -1.2252
  140MOL0     H18428   4.059  10.856   9.806  1.6142  1.2570  2.5018
  140MOL0     H18429   3.944  10.945   9.545  0.3968  0.5215  1.2782
  140MOL0     H18430   4.009  10.788   9.605  1.7246  1.6229  2.5344
  140MOL0     H18431   3.765  10.924   9.724 -1.2555 -2.0369  2.8328
  140MOL0     H18432   3.808  10.762   9.752 -1.7983 -0.8931  0.2049
  140MOL0     H18433   3.575  10.969   9.581 -3.5932 -0.8023 -1.0615
  140MOL0     H18434   3.451  10.905   9.274  0.3989 -0.6337 -0.9978
  140MOL0     H18435   3.386  10.950   9.443  0.3535 -0.8577  0.4680
  140MOL0     H18436   3.339  10.696   9.472 -0.7066  2.2823  1.2398
  140MOL0     H18437   3.379  10.674   9.318  1.6290 -0.1511  0.7111
  140MOL0     H18438   3.228  10.890   9.246 -0.4732  0.4438 -0.4686
  140MOL0     H18439   3.152  10.728   9.285  2.5127 -0.8534  0.3914
  140MOL0     H18440   3.010  10.884   9.355 -1.6219 -3.2113  0.7749
  140MOL0     H18441   3.154  10.971   9.447  1.7945 -0.6402 -1.7796
  140MOL0     H18442   2.969  11.052   9.584 -0.7089  0.6551  0.0262
  140MOL0     H18443   2.842  11.093   9.772  1.1103  0.5681 -2.8271
  140MOL0     H18444   2.489  10.935  10.051  1.6617  2.3434 -3.5734
  140MOL0     H18445   2.310  11.024  10.171 -0.6757 -0.4775  1.0528
  140MOL0     H18446   2.187  11.111  10.319  0.5485 -0.3249  0.3504
  140MOL0     H18447   2.137  11.253  10.223  1.3736  2.2980  0.6741
  140MOL0     H18448   2.088  11.378  10.422 -0.0625 -0.5135 -1.0198
  140MOL0     H18449   2.173  11.270  10.534  0.7386 -0.7798  0.4212
  140MOL0     H18450   1.945  11.205  10.562 -3.7209  0.1212 -0.9500
  140MOL0     H18451   2.008  11.079  10.454  5.1747  0.4791 -1.9307
  140MOL0     H18452   1.850  11.335  10.389  0.4437  1.1008 -0.6511
  140MOL0     H18453   1.882  11.227  10.263 -1.0150 -0.2657  0.2848
  140MOL0     H18454   1.751  11.115  10.516  4.3793  0.8525 -0.0255
  140MOL0     H18455   1.746  11.059  10.349  0.7215  0.4708 -1.6019
  140MOL0     H18456   1.594  11.187  10.274  1.3279  1.0324 -1.4336
  140MOL0     H18457   1.624  11.330  10.378 -2.9400  0.1094  1.4099
  140MOL0     H18458   1.488  11.068  10.476 -0.6574  0.6214  1.7914
  140MOL0     H18459   1.533  11.197  10.579 -3.3329 -1.7915  0.7908
  140MOL0     H18460   1.335  11.203  10.351  3.8688  0.0070 -1.6049
  140MOL0     H18461   1.357  11.340  10.461 -1.6224  0.6543 -2.6085
  140MOL0     H18462   2.545  11.373  10.271  5.0469 -1.2206  0.9697
  140MOL0     H18463   2.718  11.289  10.144 -0.9384  0.8306  1.3695
  140MOL0     H18464   2.877  10.685   9.900 -4.3703  0.2564 -0.3158
  140MOL0     H18465   3.007  10.642   9.673 -0.3207  0.4976 -0.5371
  140MOL0     H18466   4.621  11.284   9.327  2.0738 -0.6844  2.3159
  140MOL0     H18467   4.737  11.258   9.087  1.7610 -1.9820 -0.7735
  140MOL0     H18468   4.911  10.968   8.805  1.8549  0.5571  0.3467
  140MOL0     H18469   5.045  10.944   8.644 -0.8571 -1.7887 -3.4910
  140MOL0     H18470   5.083  10.920   8.401 -0.4040  0.8969 -2.2123
  140MOL0     H18471   5.222  11.000   8.479 -0.7758 -0.3248  0.8881
  140MOL0     H18472   5.250  10.920   8.240  2.2642  1.0712  0.0683
  140MOL0     H18473   5.144  11.053   8.194 -2.2436  0.2568  1.0117
  140MOL0     H18474   5.407  11.072   8.347 -2.6215  1.1538  3.6510
  140MOL0     H18475   5.312  11.217   8.321  1.2895  1.4466 -2.9093
  140MOL0     H18476   5.454  11.056   8.112  1.6780  0.4455  1.7500
  140MOL0     H18477   5.320  11.167   8.073 -1.4851 -2.0333  0.2306
  140MOL0     H18478   5.620  11.448   8.177 -0.8143  0.1524  2.6756
  140MOL0     H18479   4.868  11.267   8.431  1.8702 -1.3426 -0.5875
  140MOL0     H18480   4.707  11.298   8.624  0.6067 -0.5337  0.5703
  141MOL0     O18481   3.024   3.720  11.374  0.1164 -0.3569  0.4027
  141MOL0     C18482   2.900   3.726  11.388 -0.3230 -0.4229 -0.3620
  141MOL0     O18483   2.826   3.834  11.400  0.0283 -1.0144  0.3914
  141MOL0     C18484   2.889   3.954  11.368  0.1322  0.5453  0.8918
  141MOL0     C18485   2.946   4.030  11.465 -0.7482 -0.6911  0.1488
  141MOL0     C18486   3.021   4.142  11.443  0.5666  0.2348  0.3155
  141MOL0     C18487   3.053   4.171  11.308 -0.4086  0.3105 -0.3108
  141MOL0     O18488   3.132   4.275  11.274 -0.0053  0.5012 -0.3367
  141MOL0     C18489   3.136   4.388  11.359 -0.1590 -0.2211  0.1061
  141MOL0     C18490   3.225   4.498  11.292  0.4935 -0.3150 -0.0745
  141MOL0     C18491   3.148   4.573  11.188 -0.2843 -0.1651 -0.2417
  141MOL0     C18492   3.227   4.693  11.127 -0.2358  0.5113 -0.8115
  141MOL0     C18493   3.178   4.745  11.000 -0.3792 -0.0885  0.8806
  141MOL0     C18494   3.268   4.861  10.948 -0.2070  0.1259  0.1812
  141MOL0     C18495   3.250   4.929  10.805  0.8597 -0.1819  0.3560
  141MOL0     C18496   3.210   4.821  10.707  0.2658  0.8794  0.5598
  141MOL0     N18497   3.217   4.867  10.569 -0.7322 -1.0498 -0.2294
  141MOL0     C18498   3.329   4.862  10.492  0.1015  0.1593 -0.4372
  141MOL0     C18499   3.293   4.930  10.381 -0.6599  0.0607  0.1200
  141MOL0     C18500   3.389   4.961  10.254 -0.3939 -0.9116  0.3310
  141MOL0     C18501   3.340   5.094  10.180  0.9319 -0.2807  0.1614
  141MOL0     C18502   3.430   5.155  10.064 -0.5715  0.9879 -1.4708
  141MOL0     C18503   3.507   5.046   9.997 -0.1761 -1.0379 -0.2194
  141MOL0     O18504   3.605   5.101   9.901 -0.5637 -0.2805 -0.0658
  141MOL0     C18505   3.567   5.125   9.771  0.0639 -0.7447 -0.1461
  141MOL0     C18506   3.452   5.086   9.704 -0.0482 -0.5255 -0.2107
  141MOL0     C18507   3.439   5.115   9.566  0.8463  0.9311  0.2284
  141MOL0     C18508   3.535   5.179   9.495  0.1084 -1.1156  0.5352
  141MOL0     C18509   3.506   5.218   9.357 -0.6542 -0.5566  0.2290
  141MOL0     O18510   3.615   5.254   9.273 -0.2336  0.3194  0.5668
  141MOL0     C18511   3.606   5.297   9.145 -0.4707  0.8344  0.5554
  141MOL0     C18512   3.669   5.214   9.050  0.0839 -0.6242 -0.1152
  141MOL0     C18513   3.675   5.250   8.908  0.2821 -0.9805 -0.5384
  141MOL0     C18514   3.605   5.368   8.870 -0.2527 -0.0791  0.7021
  141MOL0     O18515   3.610   5.405   8.735 -0.2149  0.2602 -0.2323
  141MOL0     C18516   3.507   5.493   8.675  0.7817 -0.0663 -0.6608
  141MOL0     C18517   3.533   5.545   8.547  0.4205 -0.8493 -0.4276
  141MOL0     C18518   3.676   5.606   8.519  1.9442  0.8277 -0.2859
  141MOL0     C18519   3.688   5.664   8.380  0.3200  0.7470 -0.1647
  141MOL0     C18520   3.839   5.710   8.347  1.0171  0.1442 -0.8141
  141MOL0     C18521   3.920   5.586   8.293 -0.4135 -1.0491  0.2964
  141MOL0     C18522   4.061   5.624   8.244  0.5936 -0.5233 -0.7274
  141MOL0     C18523   4.176   5.534   8.291  0.1410 -0.0916  0.2665
  141MOL0    Cl18524   4.194   5.412   8.164 -0.2864 -0.5288 -0.5577
  141MOL0     C18525   3.548   5.445   8.966 -0.1928 -0.3216  0.0112
  141MOL0     C18526   3.543   5.411   9.101 -0.5962  0.2422 -0.3472
  141MOL0     O18527   3.390   5.226   9.322  0.4109 -0.3007 -0.4857
  141MOL0     C18528   3.658   5.224   9.553  0.6940  0.6843 -0.0660
  141MOL0     C18529   3.658   5.199   9.694  0.2506 -0.8069  0.1966
  141MOL0     N18530   3.166   4.990  10.398 -0.8969 -0.8814  0.4182
  141MOL0     N18531   3.126   4.950  10.511 -0.1684  0.4682 -0.1011
  141MOL0     C18532   3.013   4.087  11.208 -0.0398 -0.1019 -0.4102
  141MOL0     C18533   2.929   3.984  11.235  0.2749  0.6256 -0.5018
  141MOL0     C18534   2.824   3.599  11.372  0.7591 -0.3335  0.3556
  141MOL0     C18535   2.896   3.478  11.342 -0.8703  0.6585  0.7341
  141MOL0     C18536   2.833   3.357  11.341 -0.0665 -0.6813  0.0355
  141MOL0     C18537   2.702   3.339  11.371  0.2666 -0.4262 -0.1154
  141MOL0     O18538   2.650   3.215  11.360  0.2907 -1.0881  0.4797
  141MOL0     C18539   2.669   3.120  11.461  1.0731  0.7659 -0.8252
  141MOL0     C18540   2.592   2.998  11.419  0.2906  1.1003  0.7041
  141MOL0     C18541   2.450   3.026  11.361 -0.3008 -0.2379  0.2334
  141MOL0     C18542   2.361   3.115  11.460 -0.4226 -0.0052  0.4617
  141MOL0     C18543   2.359   3.054  11.596  0.2810  0.3077 -0.1396
  141MOL0     C18544   2.363   2.996  11.702 -0.7410 -0.5266  0.0690
  141MOL0     C18545   2.632   3.453  11.393  0.2809 -0.0913 -0.4293
  141MOL0     C18546   2.687   3.585  11.400  0.8257  0.1183  0.4766
  141MOL0     H18547   2.931   4.008  11.571  0.6836  2.4211  1.1172
  141MOL0     H18548   3.059   4.192  11.531  2.2063  1.8948 -1.2368
  141MOL0     H18549   3.183   4.367  11.456 -0.7441 -0.5305  0.3306
  141MOL0     H18550   3.039   4.438  11.371  1.4225  2.7348  1.7713
  141MOL0     H18551   3.317   4.452  11.256  0.2708 -2.1021  1.4568
  141MOL0     H18552   3.256   4.568  11.370 -0.4001  1.1454 -0.9853
  141MOL0     H18553   3.058   4.625  11.221  1.0706  1.0463  1.7628
  141MOL0     H18554   3.114   4.504  11.111 -2.7098  0.9576 -0.2699
  141MOL0     H18555   3.229   4.768  11.207  2.4382  0.1144 -0.4364
  141MOL0     H18556   3.329   4.659  11.110 -1.3252 -4.9890  1.4466
  141MOL0     H18557   3.077   4.787  11.012 -0.4490 -0.4838  1.7693
  141MOL0     H18558   3.175   4.661  10.930  3.2876  0.6783 -0.3819
  141MOL0     H18559   3.372   4.828  10.956 -0.0513  0.8672  1.5983
  141MOL0     H18560   3.252   4.948  11.014  2.5331  1.7617 -1.1216
  141MOL0     H18561   3.167   5.000  10.814  1.8527  0.8832  1.3700
  141MOL0     H18562   3.337   4.984  10.767 -1.0322  1.9607 -1.1747
  141MOL0     H18563   3.110   4.784  10.732 -0.4585 -0.9515 -3.9094
  141MOL0     H18564   3.276   4.734  10.706 -2.9239 -1.7759 -0.5195
  141MOL0     H18565   3.428   4.825  10.517  1.4832  2.8643 -1.5344
  141MOL0     H18566   3.390   4.877  10.184  0.4612  0.4024 -1.3132
  141MOL0     H18567   3.493   4.978  10.285  0.8589 -0.6471 -3.4955
  141MOL0     H18568   3.314   5.169  10.255 -5.1060  1.3465 -2.8719
  141MOL0     H18569   3.239   5.073  10.141  1.2138 -1.7121  0.1389
  141MOL0     H18570   3.377   5.206   9.983 -1.0833 -1.6423 -2.9171
  141MOL0     H18571   3.506   5.222  10.104  1.9449 -0.9448 -2.7300
  141MOL0     H18572   3.437   4.977   9.949 -3.5079  1.6290  0.4215
  141MOL0     H18573   3.570   4.983  10.061  0.3172 -0.4626 -0.1306
  141MOL0     H18574   3.378   5.029   9.759 -2.4868  0.7894 -1.9552
  141MOL0     H18575   3.351   5.071   9.520  0.5636 -0.1060  1.7027
  141MOL0     H18576   3.708   5.122   9.094  0.2807 -1.4115 -1.8637
  141MOL0     H18577   3.716   5.177   8.839  1.1679 -0.8219 -0.1914
  141MOL0     H18578   3.498   5.582   8.738 -1.2741 -1.0784  0.5636
  141MOL0     H18579   3.405   5.454   8.670  0.5271  0.3181  0.9636
  141MOL0     H18580   3.465   5.630   8.537  0.0877 -1.1692 -0.9756
  141MOL0     H18581   3.506   5.460   8.484 -2.1944 -1.1702  0.9805
  141MOL0     H18582   3.747   5.523   8.524 -1.1178 -1.9415  1.9067
  141MOL0     H18583   3.713   5.680   8.590  2.0525  0.8629 -0.3782
  141MOL0     H18584   3.646   5.594   8.308 -4.6499  5.1400 -2.2246
  141MOL0     H18585   3.636   5.758   8.360  0.6847  0.1686 -4.9045
  141MOL0     H18586   3.894   5.755   8.430  0.4132 -0.4916 -0.0582
  141MOL0     H18587   3.833   5.789   8.272  1.8327  0.0957 -0.9417
  141MOL0     H18588   3.872   5.544   8.204  0.9676  0.1530 -1.0685
  141MOL0     H18589   3.945   5.507   8.364  1.0471  0.1503  1.1718
  141MOL0     H18590   4.058   5.645   8.137  1.8143 -2.8972 -1.2927
  141MOL0     H18591   4.087   5.723   8.283  2.2413 -0.1544 -2.6135
  141MOL0     H18592   4.140   5.484   8.381 -1.5035 -0.4678 -0.5664
  141MOL0     H18593   4.265   5.595   8.308 -1.2016  1.4583  2.4076
  141MOL0     H18594   3.506   5.541   8.942  3.4015  1.7546  1.1334
  141MOL0     H18595   3.469   5.473   9.151 -0.5278  1.9578 -2.2091
  141MOL0     H18596   3.732   5.283   9.499 -0.7869 -0.6078 -3.8005
  141MOL0     H18597   3.752   5.238   9.731  0.1710 -0.1026 -0.3264
  141MOL0     H18598   3.028   4.107  11.102 -0.3203  0.1033 -0.4142
  141MOL0     H18599   2.881   3.927  11.156  3.2075  0.1616 -2.0958
  141MOL0     H18600   3.000   3.476  11.311 -1.6436  0.2198 -2.1125
  141MOL0     H18601   2.894   3.268  11.324  1.6587  0.7446 -1.5964
  141MOL0     H18602   2.628   3.158  11.555  1.6458 -0.4348 -0.0725
  141MOL0     H18603   2.775   3.114  11.486  0.6121 -0.8170  0.9520
  141MOL0     H18604   2.649   2.940  11.346 -0.0999 -1.4347  2.2671
  141MOL0     H18605   2.594   2.936  11.510  2.4727  3.4266  2.3742
  141MOL0     H18606   2.399   2.934  11.329  0.5794  0.6366 -4.4056
  141MOL0     H18607   2.473   3.081  11.269  2.0137  1.0397  1.4757
  141MOL0     H18608   2.416   3.209  11.466  0.7020 -0.6062 -0.1510
  141MOL0     H18609   2.260   3.128  11.419  0.5446  2.2962 -1.3843
  141MOL0     H18610   2.361   2.940  11.793  0.4904  0.4142  0.7048
  141MOL0     H18611   2.525   3.439  11.405  0.2844  0.6821  0.7486
  141MOL0     H18612   2.622   3.670  11.419  0.4537 -0.6967  3.3736
  142MOL0     O18613   5.709   5.189   7.856  0.6415 -0.8589  0.5380
  142MOL0     C18614   5.818   5.136   7.881 -0.2636 -0.0882  0.3631
  142MOL0     O18615   5.933   5.169   7.822  0.2243 -0.1169 -0.3967
  142MOL0     C18616   5.933   5.178   7.682 -0.2760  0.5654 -0.1916
  142MOL0     C18617   6.019   5.265   7.630  0.2021 -0.7412  0.0382
  142MOL0     C18618   6.035   5.272   7.494  0.5867  0.4987  0.3428
  142MOL0     C18619   5.965   5.181   7.409  0.3861 -0.5995 -0.4994
  142MOL0     O18620   5.964   5.188   7.276 -0.1405  0.0640 -0.4470
  142MOL0     C18621   6.075   5.241   7.204  0.9614 -0.1555  0.8565
  142MOL0     C18622   6.090   5.167   7.064 -0.0018 -0.1499  0.3018
  142MOL0     C18623   6.204   5.230   6.985  1.0547 -1.0548 -0.1683
  142MOL0     C18624   6.211   5.148   6.852 -1.4097 -0.2029 -0.4204
  142MOL0     C18625   6.319   5.220   6.768  0.1162 -0.7510  0.6369
  142MOL0     C18626   6.340   5.137   6.635 -0.2973 -0.9607  0.1222
  142MOL0     C18627   6.437   5.198   6.536  0.2586 -0.4356  0.1463
  142MOL0     C18628   6.432   5.129   6.396  0.6941  0.2136  0.7707
  142MOL0     N18629   6.465   4.980   6.405  0.4489 -0.9759 -0.1625
  142MOL0     C18630   6.586   4.944   6.453 -0.9319 -0.5826 -0.3660
  142MOL0     C18631   6.602   4.815   6.430  0.6266 -0.1500  0.5369
  142MOL0     C18632   6.716   4.720   6.432 -0.0668 -0.6316  0.4091
  142MOL0     C18633   6.687   4.622   6.536  0.0623  0.1733 -0.4441
  142MOL0     C18634   6.810   4.543   6.574 -0.5586  0.5187  0.2901
  142MOL0     C18635   6.786   4.403   6.638 -0.9574 -1.1702 -0.4106
  142MOL0     O18636   6.896   4.348   6.704 -0.6835  0.2230  0.8051
  142MOL0     C18637   6.981   4.266   6.634  0.0448  0.4845 -0.0473
  142MOL0     C18638   7.051   4.185   6.718 -0.1333 -0.1924  0.7605
  142MOL0     C18639   7.142   4.092   6.660 -0.1273  0.5771 -0.1469
  142MOL0     C18640   7.165   4.083   6.520  0.0687  1.0714 -1.1761
  142MOL0     C18641   7.264   3.983   6.464  0.4135  0.0085  0.3487
  142MOL0     O18642   7.285   3.985   6.335  0.0530  0.4580 -0.2289
  142MOL0     C18643   7.390   3.913   6.286 -0.6062  0.2659 -0.5936
  142MOL0     C18644   7.356   3.830   6.177 -1.2838 -0.2837 -0.3937
  142MOL0     C18645   7.447   3.751   6.105  0.6891 -0.0771 -0.1227
  142MOL0     C18646   7.581   3.760   6.136 -0.2379  0.6440 -0.2347
  142MOL0     O18647   7.672   3.670   6.076 -0.1845  0.4417  1.0616
  142MOL0     C18648   7.813   3.707   6.084  0.2194 -0.2425  0.4027
  142MOL0     C18649   7.892   3.599   6.008  0.7528 -0.3803  0.5165
  142MOL0     C18650   8.011   3.554   6.094  0.0332  0.1088  0.4412
  142MOL0     C18651   8.130   3.507   6.016  0.5532 -0.3266 -0.1711
  142MOL0     C18652   8.241   3.463   6.101 -0.6550 -0.4001 -0.6504
  142MOL0     C18653   8.362   3.469   6.020 -1.0424  0.2799  0.0471
  142MOL0     C18654   8.494   3.422   6.088  0.6867  0.3312  0.3037
  142MOL0     C18655   8.490   3.277   6.133 -0.7742  0.8481 -0.1085
  142MOL0    Cl18656   8.653   3.197   6.164 -0.2156 -0.3026  0.0045
  142MOL0     C18657   7.616   3.847   6.253 -0.1217 -0.4677 -0.5088
  142MOL0     C18658   7.523   3.915   6.323  0.3189 -0.4631 -0.3739
  142MOL0     O18659   7.319   3.903   6.544 -0.5792  0.0632  0.8000
  142MOL0     C18660   7.084   4.160   6.441  0.4211  0.3087 -0.6144
  142MOL0     C18661   6.990   4.256   6.496  0.6911 -0.6146  1.8095
  142MOL0     N18662   6.479   4.772   6.374 -0.5849 -0.0708 -0.1314
  142MOL0     N18663   6.400   4.872   6.358 -0.0821 -0.1756  0.4774
  142MOL0     C18664   5.870   5.094   7.460  0.0903 -0.6661 -0.1019
  142MOL0     C18665   5.859   5.092   7.600  0.3346  0.4468 -0.5092
  142MOL0     C18666   5.828   5.050   8.002  0.0271  0.8512 -0.2968
  142MOL0     C18667   5.955   5.021   8.054  1.1647 -0.1083  0.0655
  142MOL0     C18668   5.959   4.945   8.174  0.8970  0.0134 -0.3106
  142MOL0     C18669   5.845   4.901   8.241 -0.1234  0.4801 -0.7438
  142MOL0     O18670   5.856   4.838   8.360 -0.1471  0.0438 -0.4329
  142MOL0     C18671   5.749   4.867   8.450 -0.3273 -1.0952 -0.1935
  142MOL0     C18672   5.757   4.805   8.581  0.1250  0.2010 -0.6217
  142MOL0     C18673   5.881   4.840   8.667 -0.3100 -0.7027  0.3404
  142MOL0     C18674   5.895   4.778   8.807  0.2670  0.1903 -0.0713
  142MOL0     C18675   5.797   4.839   8.900 -0.0833 -0.3884  0.8750
  142MOL0     C18676   5.719   4.890   8.973  0.0330 -0.1666 -0.2962
  142MOL0     C18677   5.725   4.935   8.184  0.0429  1.3474 -0.1382
  142MOL0     C18678   5.714   5.004   8.071 -0.0584 -0.2553  0.5047
  142MOL0     H18679   6.074   5.336   7.692 -0.7851 -0.1058  0.2103
  142MOL0     H18680   6.104   5.344   7.451 -0.6610  0.0142 -2.7395
  142MOL0     H18681   6.168   5.216   7.256  0.4371 -1.8360  1.0461
  142MOL0     H18682   6.068   5.349   7.189  2.3593 -0.3511 -1.7416
  142MOL0     H18683   5.999   5.180   7.005  1.1367 -1.5818 -1.9271
  142MOL0     H18684   6.109   5.061   7.085 -3.9961 -1.7305 -2.6128
  142MOL0     H18685   6.293   5.223   7.049 -0.7840 -1.2787  2.5393
  142MOL0     H18686   6.188   5.333   6.952  3.2575 -0.7516 -0.4531
  142MOL0     H18687   6.228   5.041   6.871  0.1001  0.3101  1.3762
  142MOL0     H18688   6.118   5.148   6.795 -0.3946  0.1051 -2.1488
  142MOL0     H18689   6.413   5.237   6.822 -0.6744 -0.3375  1.9227
  142MOL0     H18690   6.298   5.325   6.745  0.9678 -0.3730  1.4714
  142MOL0     H18691   6.237   5.128   6.598 -0.5608  1.2888  0.1359
  142MOL0     H18692   6.384   5.040   6.656  0.4946 -0.6865 -0.2418
  142MOL0     H18693   6.403   5.301   6.522 -1.1975 -0.8968  0.0653
  142MOL0     H18694   6.537   5.194   6.579  0.5327  1.9578 -0.1323
  142MOL0     H18695   6.515   5.183   6.349 -0.1951 -0.2102 -1.4206
  142MOL0     H18696   6.342   5.150   6.336 -0.3132 -1.8397  1.4568
  142MOL0     H18697   6.661   5.019   6.476  1.3820 -2.1530 -2.2252
  142MOL0     H18698   6.806   4.772   6.465 -0.2612 -0.8167  1.2622
  142MOL0     H18699   6.734   4.672   6.336  1.7276  3.4986 -1.5912
  142MOL0     H18700   6.603   4.565   6.496  0.5331 -0.1483 -0.9865
  142MOL0     H18701   6.647   4.674   6.624 -0.3117  1.5865 -1.4145
  142MOL0     H18702   6.885   4.535   6.495  0.7073  1.2986  1.3649
  142MOL0     H18703   6.847   4.607   6.655 -0.5091 -0.6842  1.2353
  142MOL0     H18704   6.748   4.336   6.560 -1.0325  2.1255 -3.4706
  142MOL0     H18705   6.718   4.414   6.723 -0.0376 -3.0646  0.6501
  142MOL0     H18706   7.032   4.193   6.825  2.5172  1.8388  1.1640
  142MOL0     H18707   7.197   4.020   6.721  0.1865  2.2049  1.6106
  142MOL0     H18708   7.256   3.821   6.137 -0.6310  0.8134 -2.4711
  142MOL0     H18709   7.410   3.682   6.030  1.1852  1.8428 -2.2304
  142MOL0     H18710   7.834   3.710   6.191 -1.7157 -1.2745  0.8390
  142MOL0     H18711   7.838   3.806   6.043  2.1959 -1.2471 -0.9568
  142MOL0     H18712   7.936   3.642   5.916 -1.8689 -1.3987 -1.3264
  142MOL0     H18713   7.830   3.512   5.988 -1.0197  0.6751  1.2064
  142MOL0     H18714   7.967   3.482   6.164  1.4489  1.1208  2.4851
  142MOL0     H18715   8.051   3.642   6.146 -0.9890  1.8627 -1.6075
  142MOL0     H18716   8.102   3.430   5.943  2.8708  0.1705 -1.6908
  142MOL0     H18717   8.157   3.593   5.954 -2.1194  0.2043 -0.7223
  142MOL0     H18718   8.227   3.357   6.126 -0.1031 -0.5998 -1.1776
  142MOL0     H18719   8.241   3.519   6.195 -1.8258  0.6808 -1.2574
  142MOL0     H18720   8.389   3.573   5.999 -0.0351  0.0541  0.1849
  142MOL0     H18721   8.358   3.426   5.920  0.1108  2.6688 -1.1166
  142MOL0     H18722   8.563   3.434   6.004  0.9633 -1.1168  0.2832
  142MOL0     H18723   8.505   3.477   6.181  2.4024 -1.9977  1.5980
  142MOL0     H18724   8.449   3.218   6.050  2.8035 -1.4924 -0.4513
  142MOL0     H18725   8.417   3.271   6.214 -1.4867  0.6989 -0.7444
  142MOL0     H18726   7.720   3.862   6.279 -0.6789  0.2788  1.4304
  142MOL0     H18727   7.550   3.976   6.409 -1.7161  0.9807 -0.6899
  142MOL0     H18728   7.101   4.152   6.334 -0.7392 -3.3102 -0.6807
  142MOL0     H18729   6.934   4.322   6.430  0.6128  1.0116  3.4105
  142MOL0     H18730   5.813   5.018   7.407  0.3862 -1.4258  0.6423
  142MOL0     H18731   5.796   5.017   7.645  1.8853 -0.6097 -0.0182
  142MOL0     H18732   6.043   5.054   8.000  1.0935 -0.1360 -0.0676
  142MOL0     H18733   6.052   4.919   8.222 -0.7462  0.0686  3.2335
  142MOL0     H18734   5.653   4.839   8.406 -0.7913  1.7071 -1.1426
  142MOL0     H18735   5.736   4.975   8.463 -0.8796 -1.3406  1.5940
  142MOL0     H18736   5.663   4.830   8.633 -0.4993 -3.3060  0.2037
  142MOL0     H18737   5.743   4.697   8.570 -0.3652  0.0069  1.4381
  142MOL0     H18738   5.891   4.948   8.679  2.7654 -0.7655 -0.5810
  142MOL0     H18739   5.973   4.808   8.616  0.1875  1.9794 -0.6087
  142MOL0     H18740   5.867   4.672   8.801 -0.2594  0.1196  2.5840
  142MOL0     H18741   5.996   4.799   8.843 -0.0004  3.9897 -1.0979
  142MOL0     H18742   5.655   4.932   9.048  2.4267  1.5877  0.8802
  142MOL0     H18743   5.636   4.890   8.226  0.7627  2.3223  2.6291
  142MOL0     H18744   5.614   5.024   8.034 -2.2005 -3.1690  4.0461
  143MOL0     O18745   8.061   2.560   8.538  0.1085 -0.1668 -0.6212
  143MOL0     C18746   8.018   2.452   8.564  0.4333  0.0476  0.4108
  143MOL0     O18747   7.883   2.423   8.566  0.1905  0.2612  0.4341
  143MOL0     C18748   7.788   2.523   8.539  0.4268 -0.6370  0.0806
  143MOL0     C18749   7.754   2.553   8.406  0.7508  0.4735 -0.0587
  143MOL0     C18750   7.642   2.630   8.385  0.3155 -1.8340  0.4442
  143MOL0     C18751   7.568   2.689   8.495  0.2049 -0.1215  0.3844
  143MOL0     O18752   7.459   2.770   8.463 -0.2403  0.0000  0.4645
  143MOL0     C18753   7.445   2.897   8.535  0.7798 -1.0921  0.4209
  143MOL0     C18754   7.316   2.967   8.483 -0.0966  0.2263  0.1548
  143MOL0     C18755   7.335   3.006   8.334 -0.2488 -0.4678 -1.0249
  143MOL0     C18756   7.454   3.109   8.312 -0.6709  0.0904  0.3243
  143MOL0     C18757   7.437   3.198   8.189  1.0631  0.1432 -0.3625
  143MOL0     C18758   7.551   3.296   8.189 -0.3963  0.7847  0.6359
  143MOL0     C18759   7.520   3.384   8.070 -0.1028 -0.0333 -0.4336
  143MOL0     C18760   7.594   3.509   8.096  0.8336  0.9989 -0.8288
  143MOL0     N18761   7.742   3.496   8.079  0.6417  0.1812 -0.0239
  143MOL0     C18762   7.801   3.492   7.957 -0.1988 -1.1977 -0.1598
  143MOL0     C18763   7.926   3.447   7.984  0.8162 -0.7333  0.8561
  143MOL0     C18764   8.026   3.429   7.878 -0.4437 -0.3868  0.6258
  143MOL0     C18765   8.082   3.289   7.868 -0.0006 -0.2014  0.4686
  143MOL0     C18766   8.125   3.218   7.997 -0.3960  1.0069 -0.1330
  143MOL0     C18767   8.240   3.296   8.064 -0.5239  0.0849  0.0850
  143MOL0     O18768   8.357   3.303   7.972  0.4164 -0.4679 -0.2299
  143MOL0     C18769   8.455   3.202   7.977  0.2143  0.7290  1.2149
  143MOL0     C18770   8.573   3.220   7.902 -0.2969  0.1279  0.3753
  143MOL0     C18771   8.685   3.135   7.914  0.2382  0.4065 -0.2389
  143MOL0     C18772   8.682   3.022   8.002 -0.1424  0.5250 -0.4865
  143MOL0     C18773   8.799   2.924   8.002  0.3292  0.0985  0.2228
  143MOL0     O18774   8.795   2.821   8.086  0.3135  0.1660  0.4352
  143MOL0     C18775   8.897   2.731   8.068  1.0568 -1.0228 -0.3193
  143MOL0     C18776   8.884   2.633   7.974 -0.2105  0.8593  0.0667
  143MOL0     C18777   8.999   2.542   7.967 -0.8583  0.3835 -0.3873
  143MOL0     C18778   9.126   2.558   8.036  0.6884 -0.2964 -0.3735
  143MOL0     O18779   9.224   2.458   8.011 -0.1540  0.2165  0.1163
  143MOL0     C18780   9.356   2.501   8.043 -0.2974  0.1432  0.9712
  143MOL0     C18781   9.468   2.417   7.998  0.0738  0.3746 -0.2177
  143MOL0     C18782   9.440   2.273   8.047 -0.7734 -0.4223 -0.6043
  143MOL0     C18783   9.570   2.202   8.068  0.2236 -0.1036  0.2692
  143MOL0     C18784   9.544   2.066   8.140  1.1726  0.6631 -0.2582
  143MOL0     C18785   9.629   1.957   8.081 -1.7783  0.1264  0.0691
  143MOL0     C18786   9.785   1.990   8.062 -0.2230 -0.1667  0.1538
  143MOL0     C18787   9.845   1.856   8.010  1.1030 -1.2190 -0.3954
  143MOL0    Cl18788  10.017   1.890   7.963  0.2227 -0.8263 -0.0136
  143MOL0     C18789   9.128   2.664   8.130  0.2380  0.4990  0.9730
  143MOL0     C18790   9.015   2.749   8.140 -0.2401  0.1214  1.0036
  143MOL0     O18791   8.886   2.949   7.919 -0.3171  0.1716  0.6725
  143MOL0     C18792   8.569   3.010   8.078 -0.3981  0.6738 -0.2588
  143MOL0     C18793   8.459   3.096   8.071 -1.5018 -0.3031 -0.4143
  143MOL0     N18794   7.938   3.437   8.124 -0.1735 -1.0913  0.2377
  143MOL0     N18795   7.823   3.452   8.173 -0.7807 -0.1300 -0.0156
  143MOL0     C18796   7.601   2.648   8.618 -0.7342 -0.5228 -0.4880
  143MOL0     C18797   7.712   2.569   8.641 -0.1758 -0.0411  0.0936
  143MOL0     C18798   8.107   2.346   8.605 -0.1854  0.3301  0.0241
  143MOL0     C18799   8.229   2.377   8.659 -0.4710 -0.8413  0.5379
  143MOL0     C18800   8.317   2.273   8.681 -0.2099 -0.7220  0.3641
  143MOL0     C18801   8.292   2.136   8.654 -0.5078 -0.0297  0.3180
  143MOL0     O18802   8.377   2.023   8.666 -0.1419 -0.3509  0.3876
  143MOL0     C18803   8.494   2.042   8.749  1.0285  0.1405 -0.2259
  143MOL0     C18804   8.520   1.908   8.818  0.0910 -0.1092 -0.1999
  143MOL0     C18805   8.422   1.869   8.930  1.0202  0.2819 -0.5664
  143MOL0     C18806   8.281   1.822   8.870 -0.6210 -0.1330  0.3810
  143MOL0     C18807   8.210   1.737   8.972  0.8865  1.4763  0.7130
  143MOL0     C18808   8.138   1.666   9.047 -0.5780  0.2644 -0.6994
  143MOL0     C18809   8.163   2.105   8.609 -0.0135  0.0483 -0.1256
  143MOL0     C18810   8.076   2.207   8.585 -0.4466 -0.4398  0.0370
  143MOL0     H18811   7.821   2.506   8.334  1.5092 -2.2573  2.2740
  143MOL0     H18812   7.617   2.654   8.283  2.3706 -0.1980  0.2642
  143MOL0     H18813   7.535   2.955   8.513  0.6616 -0.6854  0.9816
  143MOL0     H18814   7.442   2.900   8.645  1.3538  0.0405  0.4231
  143MOL0     H18815   7.287   3.054   8.543  1.3900  1.3441 -0.6841
  143MOL0     H18816   7.234   2.895   8.490  1.9248 -2.1190  2.8325
  143MOL0     H18817   7.240   3.052   8.304  0.0719  0.0564 -1.2375
  143MOL0     H18818   7.347   2.914   8.275  0.3302 -1.0849  0.0283
  143MOL0     H18819   7.465   3.175   8.398  2.8659 -1.8009  1.5217
  143MOL0     H18820   7.545   3.051   8.292 -2.1291 -1.4317 -2.4084
  143MOL0     H18821   7.345   3.253   8.209  0.5839 -1.4117  2.1696
  143MOL0     H18822   7.447   3.143   8.094  1.2545  1.8021 -1.3350
  143MOL0     H18823   7.649   3.250   8.173 -0.2481  1.4856 -0.5774
  143MOL0     H18824   7.553   3.355   8.282 -1.4073 -0.6952  1.6468
  143MOL0     H18825   7.540   3.348   7.969  2.5213  1.5898 -0.5781
  143MOL0     H18826   7.416   3.417   8.076 -0.8937 -2.4491  0.1210
  143MOL0     H18827   7.579   3.552   8.196  1.1776 -2.2349  0.7463
  143MOL0     H18828   7.564   3.593   8.033  2.7821  3.1657  0.9285
  143MOL0     H18829   7.761   3.519   7.860  0.3872 -1.1578 -0.3992
  143MOL0     H18830   8.112   3.495   7.895  0.6494 -1.1588 -1.5054
  143MOL0     H18831   7.977   3.458   7.784 -1.3526 -1.1895  0.8389
  143MOL0     H18832   8.166   3.290   7.798  0.5507  0.5051  1.1211
  143MOL0     H18833   7.996   3.238   7.823 -0.5024  2.7727 -2.3090
  143MOL0     H18834   8.038   3.200   8.061 -4.0973 -0.4016 -4.9783
  143MOL0     H18835   8.154   3.120   7.959  0.5465  1.6131 -1.0621
  143MOL0     H18836   8.262   3.247   8.160 -0.2482  2.2044  1.1729
  143MOL0     H18837   8.213   3.398   8.090  1.8104  0.8086 -0.1294
  143MOL0     H18838   8.588   3.303   7.834  0.0416 -1.3376 -1.4317
  143MOL0     H18839   8.776   3.154   7.858  1.9236 -2.2627  1.3314
  143MOL0     H18840   8.792   2.620   7.917 -2.8744  1.0376  3.9306
  143MOL0     H18841   9.017   2.463   7.894  3.3294  0.1230  0.6972
  143MOL0     H18842   9.367   2.529   8.148  1.1342  0.3227  0.7975
  143MOL0     H18843   9.369   2.590   7.980  0.6313 -0.7330 -0.1081
  143MOL0     H18844   9.561   2.458   8.037 -0.1948  1.4059 -0.6231
  143MOL0     H18845   9.481   2.426   7.890  0.7242 -1.4783 -0.3244
  143MOL0     H18846   9.391   2.217   7.967 -0.9013 -1.0283 -0.1079
  143MOL0     H18847   9.390   2.269   8.144 -1.2079 -0.7026 -0.8345
  143MOL0     H18848   9.619   2.182   7.973 -0.6926 -1.0730 -0.0199
  143MOL0     H18849   9.642   2.259   8.127  0.9520 -1.7153  0.9888
  143MOL0     H18850   9.438   2.043   8.127  0.4229  1.3650  3.4960
  143MOL0     H18851   9.557   2.083   8.247  1.8940 -1.1686 -0.0143
  143MOL0     H18852   9.593   1.923   7.984  2.4918 -0.8603 -1.3544
  143MOL0     H18853   9.623   1.865   8.140 -0.2553 -1.8303 -2.6036
  143MOL0     H18854   9.807   2.068   7.989 -0.4921  0.4300  0.6958
  143MOL0     H18855   9.841   2.021   8.152 -0.6401 -1.1282  0.7541
  143MOL0     H18856   9.782   1.830   7.924 -3.6119  2.5979  1.3683
  143MOL0     H18857   9.827   1.780   8.086  1.8140  1.2942  2.5167
  143MOL0     H18858   9.211   2.697   8.190 -0.6175  0.9141  1.9565
  143MOL0     H18859   9.026   2.826   8.216  0.9510  0.7659  0.2180
  143MOL0     H18860   8.570   2.936   8.156 -0.4985  0.5519 -0.3725
  143MOL0     H18861   8.385   3.067   8.146  0.6424 -0.0532  1.9591
  143MOL0     H18862   7.552   2.673   8.711  0.1642 -1.2772  0.2069
  143MOL0     H18863   7.729   2.544   8.746 -0.4847 -1.1381 -0.1037
  143MOL0     H18864   8.253   2.481   8.677 -1.3817 -0.1086 -1.9747
  143MOL0     H18865   8.407   2.303   8.734 -0.2396  1.2995 -0.6340
  143MOL0     H18866   8.480   2.121   8.824 -1.3180 -1.1744  0.8234
  143MOL0     H18867   8.574   2.052   8.675  2.0431 -1.2016  0.6447
  143MOL0     H18868   8.502   1.839   8.735 -0.3072  2.2230 -2.1846
  143MOL0     H18869   8.623   1.908   8.854 -0.3998  0.5950  1.2856
  143MOL0     H18870   8.406   1.949   9.003 -2.3018 -0.4066 -0.3816
  143MOL0     H18871   8.462   1.782   8.983 -0.4899  0.0753  0.3034
  143MOL0     H18872   8.230   1.915   8.842  2.3999  1.1647 -1.2185
  143MOL0     H18873   8.295   1.764   8.779 -2.3029 -1.3877  0.8717
  143MOL0     H18874   8.090   1.596   9.112 -1.7959  1.8790  0.2115
  143MOL0     H18875   8.137   2.000   8.603  2.2765 -0.6911  1.2916
  143MOL0     H18876   7.973   2.189   8.554  0.1912 -1.2987 -1.7009
  144MOL0     O18877   6.740  10.796   4.124  0.4662  0.2352  0.5141
  144MOL0     C18878   6.744  10.920   4.136  0.8958  0.0079 -0.0324
  144MOL0     O18879   6.855  10.985   4.179  0.0999  0.5710  0.1991
  144MOL0     C18880   6.980  10.926   4.170  0.5530 -0.1868  0.1284
  144MOL0     C18881   7.079  10.992   4.237 -0.7893 -0.1797 -0.3829
  144MOL0     C18882   7.207  10.947   4.234  0.7351 -0.1075  0.4941
  144MOL0     C18883   7.234  10.827   4.166  0.2719 -0.8713 -0.6618
  144MOL0     O18884   7.367  10.782   4.148  0.2909  0.4365 -0.2431
  144MOL0     C18885   7.469  10.888   4.139 -0.1954  0.4446  0.6856
  144MOL0     C18886   7.484  10.955   4.000  0.9485 -0.1228 -0.0376
  144MOL0     C18887   7.436  10.872   3.877 -0.5957  0.6036  0.6525
  144MOL0     C18888   7.487  10.917   3.739  0.2673  0.4411 -0.0778
  144MOL0     C18889   7.435  10.821   3.635 -0.2474  0.8251 -0.1945
  144MOL0     C18890   7.296  10.759   3.645 -0.9763 -0.6906 -0.1181
  144MOL0     C18891   7.262  10.682   3.515 -0.3555  0.2942  0.0216
  144MOL0     C18892   7.331  10.549   3.521 -0.0817  0.2510  0.1675
  144MOL0     N18893   7.305  10.464   3.406 -0.4872 -0.3163  0.5231
  144MOL0     C18894   7.379  10.348   3.373 -1.2820  0.1177  0.2750
  144MOL0     C18895   7.355  10.331   3.240 -0.1368 -0.6344  0.1662
  144MOL0     C18896   7.389  10.202   3.170 -0.1300  0.7660  0.4222
  144MOL0     C18897   7.535  10.154   3.198 -0.6609 -0.2357  0.3462
  144MOL0     C18898   7.645  10.257   3.154 -1.2855 -0.1562 -1.6333
  144MOL0     C18899   7.777  10.214   3.215  0.5659  0.3353  0.8550
  144MOL0     O18900   7.836  10.118   3.116 -0.3792 -0.5517 -0.1135
  144MOL0     C18901   7.844   9.990   3.161  0.0635 -0.4497  0.5760
  144MOL0     C18902   7.762   9.893   3.107  1.0489  0.3350 -0.4264
  144MOL0     C18903   7.754   9.761   3.152  1.0813 -0.1269  0.5152
  144MOL0     C18904   7.840   9.715   3.249  0.2694 -0.0587  0.1352
  144MOL0     C18905   7.834   9.568   3.276  0.2895  0.6810  0.2860
  144MOL0     O18906   7.741   9.488   3.216  0.2502  0.0849  0.5339
  144MOL0     C18907   7.714   9.356   3.253 -0.1763 -0.3079 -0.1040
  144MOL0     C18908   7.794   9.264   3.328 -0.4842 -0.4359 -0.9348
  144MOL0     C18909   7.750   9.131   3.345 -0.2031 -0.7068 -0.4951
  144MOL0     C18910   7.618   9.093   3.305 -0.4628  0.4784  0.5534
  144MOL0     O18911   7.594   8.958   3.318  0.0131  0.3279 -0.5684
  144MOL0     C18912   7.455   8.915   3.330  0.1965 -0.3694 -0.4051
  144MOL0     C18913   7.369   8.980   3.442 -0.7062  0.5844  1.0202
  144MOL0     C18914   7.224   8.942   3.409  0.0859  0.2649 -0.0733
  144MOL0     C18915   7.122   9.059   3.433 -0.2839 -0.5098 -0.0074
  144MOL0     C18916   6.978   9.048   3.381 -0.5723  0.2310  0.2791
  144MOL0     C18917   6.887   8.944   3.451  0.0749  0.3178  0.3434
  144MOL0     C18918   6.733   8.968   3.447 -1.0069 -0.8241  0.2441
  144MOL0     C18919   6.675   9.007   3.317 -0.1975  0.1562  0.3051
  144MOL0    Cl18920   6.694   8.871   3.213 -0.5175  0.1519  0.3595
  144MOL0     C18921   7.531   9.189   3.242  0.0408  0.2371 -0.4315
  144MOL0     C18922   7.587   9.316   3.214  0.1503 -0.5426 -0.7118
  144MOL0     O18923   7.912   9.530   3.360 -0.3834  0.5639 -0.2246
  144MOL0     C18924   7.933   9.809   3.306  0.0672 -0.4273 -0.1345
  144MOL0     C18925   7.930   9.943   3.263  0.1954  0.2601 -0.4093
  144MOL0     N18926   7.265  10.425   3.194  0.2423 -0.7405  0.0246
  144MOL0     N18927   7.229  10.502   3.292 -1.0354  0.1239  0.8058
  144MOL0     C18928   7.135  10.764   4.091 -0.0534 -0.2026 -0.8039
  144MOL0     C18929   7.011  10.814   4.087 -0.0944  0.0426 -0.1603
  144MOL0     C18930   6.614  10.997   4.114  0.2859 -0.4023 -0.2064
  144MOL0     C18931   6.618  11.129   4.078 -0.3342 -0.8622 -0.0713
  144MOL0     C18932   6.497  11.203   4.051  0.4242 -0.2127  0.1886
  144MOL0     C18933   6.375  11.146   4.076  0.0781  0.6984  0.2375
  144MOL0     O18934   6.261  11.214   4.035  0.0998  0.1507 -0.2018
  144MOL0     C18935   6.142  11.186   4.122  0.2779 -0.6781 -0.5290
  144MOL0     C18936   6.031  11.292   4.097 -0.7112  0.5602 -0.3595
  144MOL0     C18937   5.975  11.276   3.959 -0.1434 -0.0051 -0.3344
  144MOL0     C18938   5.861  11.371   3.943  0.2202 -0.4180  0.3418
  144MOL0     C18939   5.753  11.336   4.035  0.6433 -0.2470 -0.4618
  144MOL0     C18940   5.671  11.315   4.127 -1.1013  0.5124 -0.5476
  144MOL0     C18941   6.373  11.012   4.123 -0.0036 -0.1322 -0.5131
  144MOL0     C18942   6.488  10.942   4.132  0.4738  0.1889 -0.9622
  144MOL0     H18943   7.052  11.080   4.295 -1.6572  0.2275 -1.3699
  144MOL0     H18944   7.281  11.011   4.282  1.1304 -0.7384  0.7363
  144MOL0     H18945   7.568  10.844   4.148  1.2900  3.5363  0.6548
  144MOL0     H18946   7.457  10.962   4.219  1.9520  1.4046  0.1881
  144MOL0     H18947   7.588  10.985   3.986  0.7345  3.0261  3.5893
  144MOL0     H18948   7.422  11.045   4.004 -0.8228 -1.2842  0.0181
  144MOL0     H18949   7.327  10.871   3.873 -0.8031 -4.8449 -0.3728
  144MOL0     H18950   7.469  10.768   3.884  1.0787  0.9989 -0.5572
  144MOL0     H18951   7.447  11.019   3.736  0.3857  0.4666 -1.1686
  144MOL0     H18952   7.596  10.912   3.728  0.3773  1.7134  0.2621
  144MOL0     H18953   7.503  10.737   3.623 -1.8139 -0.3571 -1.2728
  144MOL0     H18954   7.443  10.886   3.548 -2.8988  3.5150  1.3320
  144MOL0     H18955   7.240  10.851   3.666 -1.1417  0.0880 -3.5248
  144MOL0     H18956   7.303  10.705   3.740  1.6713  0.5877  0.4954
  144MOL0     H18957   7.153  10.678   3.504 -0.3930 -0.8493  0.6139
  144MOL0     H18958   7.296  10.746   3.434 -1.3581  1.6169  0.5958
  144MOL0     H18959   7.289  10.497   3.608 -2.6162  1.2192 -0.3975
  144MOL0     H18960   7.440  10.559   3.530 -0.0345  1.2459 -1.1624
  144MOL0     H18961   7.446  10.291   3.436 -0.3764  0.6294 -0.2113
  144MOL0     H18962   7.374  10.194   3.062  2.0112  0.7086  0.0852
  144MOL0     H18963   7.320  10.128   3.211 -0.9060  0.2509 -1.6757
  144MOL0     H18964   7.542  10.061   3.140  2.4299 -1.0301  1.7737
  144MOL0     H18965   7.546  10.135   3.305 -0.7048  1.3254  0.6488
  144MOL0     H18966   7.652  10.245   3.045  0.2727 -0.4019 -1.5202
  144MOL0     H18967   7.630  10.362   3.178 -1.7576 -0.0571 -2.3276
  144MOL0     H18968   7.768  10.170   3.315  2.5944 -0.8378  0.5849
  144MOL0     H18969   7.850  10.295   3.221  2.1499 -0.7905 -1.4119
  144MOL0     H18970   7.720   9.921   3.011 -1.0106  0.9109  0.5892
  144MOL0     H18971   7.686   9.694   3.102 -0.1324 -0.6966  2.7982
  144MOL0     H18972   7.897   9.275   3.359 -1.3866 -1.9540  3.4158
  144MOL0     H18973   7.815   9.053   3.382  0.2621  0.0885  0.3913
  144MOL0     H18974   7.447   8.807   3.345 -0.0086 -0.7811 -2.9972
  144MOL0     H18975   7.414   8.928   3.229 -2.5350 -3.5257  0.1163
  144MOL0     H18976   7.392   9.087   3.443  0.2625  0.3785  1.9290
  144MOL0     H18977   7.400   8.942   3.540  0.9895 -3.1283 -0.7351
  144MOL0     H18978   7.185   8.851   3.455 -0.4756  0.0178 -1.0029
  144MOL0     H18979   7.219   8.937   3.300  0.8947 -2.4601 -0.0531
  144MOL0     H18980   7.108   9.088   3.538  1.5994 -2.3485  0.8077
  144MOL0     H18981   7.176   9.143   3.388 -0.4338 -0.5743 -0.3038
  144MOL0     H18982   6.970   9.054   3.272 -1.3828 -0.8893  0.2620
  144MOL0     H18983   6.939   9.144   3.417  0.9567  1.2531 -0.6848
  144MOL0     H18984   6.918   8.948   3.556 -2.8243  1.2355  1.2572
  144MOL0     H18985   6.900   8.846   3.403  0.6642  1.4845 -2.0017
  144MOL0     H18986   6.701   8.868   3.480 -1.9045  0.3749  3.3887
  144MOL0     H18987   6.700   9.038   3.524 -2.5171  0.0841 -1.1626
  144MOL0     H18988   6.738   9.086   3.275  1.5373  0.0511  2.5187
  144MOL0     H18989   6.573   9.046   3.325  1.0747  5.2355 -3.0820
  144MOL0     H18990   7.433   9.163   3.203  0.1017 -1.4119  0.4075
  144MOL0     H18991   7.534   9.384   3.148  1.5368 -1.7913 -3.2950
  144MOL0     H18992   8.007   9.794   3.384  0.2019 -1.3071 -0.4294
  144MOL0     H18993   7.992  10.016   3.313 -0.8355  0.6540  0.3257
  144MOL0     H18994   7.160  10.676   4.032  0.4322  0.5859 -1.7924
  144MOL0     H18995   6.937  10.768   4.023  0.8704 -0.3476 -1.0267
  144MOL0     H18996   6.715  11.172   4.059 -1.4954  1.9027 -0.1587
  144MOL0     H18997   6.490  11.306   4.016 -1.7736 -1.4335 -3.6658
  144MOL0     H18998   6.173  11.198   4.226 -2.3183  2.1672  0.0839
  144MOL0     H18999   6.097  11.088   4.104  0.4226 -0.1773 -4.2566
  144MOL0     H19000   5.965  11.284   4.184  0.5924 -1.1267  0.5376
  144MOL0     H19001   6.080  11.389   4.110 -1.8721  1.1169  0.0592
  144MOL0     H19002   5.935  11.176   3.942 -1.9475  0.0319  2.9388
  144MOL0     H19003   6.046  11.302   3.880  1.3398  0.4422  1.1067
  144MOL0     H19004   5.878  11.471   3.984 -1.6916 -0.2439  0.8380
  144MOL0     H19005   5.830  11.372   3.838 -0.6871 -0.2945  0.5999
  144MOL0     H19006   5.612  11.292   4.214  0.1897 -2.4438 -0.3177
  144MOL0     H19007   6.280  10.957   4.135 -0.4203  1.0302  2.1516
  144MOL0     H19008   6.486  10.840   4.170 -0.0961  1.0847  1.6290
  145MOL0     O19009   8.117   7.574   0.322  0.2049  0.3383  0.2652
  145MOL0     C19010   8.210   7.662   0.317  0.2642  0.1459  0.2664
  145MOL0     O19011   8.287   7.696   0.419  1.6667 -0.2088  0.4302
  145MOL0     C19012   8.273   7.640   0.544 -1.4366 -0.2282 -0.3901
  145MOL0     C19013   8.147   7.643   0.610  0.7084 -0.2783  1.0066
  145MOL0     C19014   8.144   7.613   0.742 -0.1484  0.1749 -1.1015
  145MOL0     C19015   8.263   7.580   0.813  0.3018  0.8234  0.0939
  145MOL0     O19016   8.256   7.512   0.936  0.2717 -0.6390  0.0834
  145MOL0     C19017   8.353   7.424   0.991  0.4740 -0.4993  0.3682
  145MOL0     C19018   8.272   7.327   1.081 -0.5127 -0.3850  0.3536
  145MOL0     C19019   8.376   7.252   1.153  0.1956 -0.5406  0.0267
  145MOL0     C19020   8.450   7.338   1.257 -0.3486 -0.2546 -0.3362
  145MOL0     C19021   8.505   7.249   1.373  0.2620 -1.0483  0.4861
  145MOL0     C19022   8.606   7.150   1.317 -1.0413  0.8973  0.4511
  145MOL0     C19023   8.675   7.074   1.431 -0.0592 -0.5527 -0.4541
  145MOL0     C19024   8.797   7.139   1.481 -0.4206 -0.3282 -0.5629
  145MOL0     N19025   8.909   7.133   1.383  0.0555  0.2550  0.8460
  145MOL0     C19026   8.972   7.030   1.319 -0.3411 -0.2632 -0.3022
  145MOL0     C19027   9.067   7.093   1.242 -0.5356  0.4344  0.8456
  145MOL0     C19028   9.152   7.012   1.146  0.1880 -0.7680  0.0359
  145MOL0     C19029   9.264   6.927   1.210  0.0314 -0.1185  0.2214
  145MOL0     C19030   9.392   6.995   1.249  0.1574 -0.4276  0.2639
  145MOL0     C19031   9.507   6.907   1.286  0.3652 -0.5860 -0.1510
  145MOL0     O19032   9.563   6.847   1.166 -0.1440 -0.4392 -0.2289
  145MOL0     C19033   9.671   6.918   1.116  0.0178 -0.8198 -0.9627
  145MOL0     C19034   9.653   7.010   1.010  0.4502 -0.4078  0.1566
  145MOL0     C19035   9.767   7.078   0.966 -0.1207  0.2234 -0.4100
  145MOL0     C19036   9.891   7.067   1.015 -0.0895  1.0471  0.0115
  145MOL0     C19037  10.003   7.148   0.968  0.6557  0.3905 -0.4427
  145MOL0     O19038   9.990   7.202   0.845 -0.4014 -0.4600 -0.7402
  145MOL0     C19039  10.104   7.238   0.787 -1.3372 -0.8884  0.5871
  145MOL0     C19040  10.146   7.182   0.664  0.1768 -0.5886 -1.5411
  145MOL0     C19041  10.245   7.244   0.589  0.0925 -0.0083 -0.5876
  145MOL0     C19042  10.312   7.353   0.626 -0.5748  0.1305 -1.0538
  145MOL0     O19043  10.413   7.402   0.553  0.6289 -0.5762 -0.8725
  145MOL0     C19044  10.423   7.538   0.525 -0.1899 -0.6856 -0.0707
  145MOL0     C19045  10.536   7.607   0.612  0.1477 -0.1739 -0.5606
  145MOL0     C19046  10.572   7.739   0.551  0.6101 -0.1655  0.3931
  145MOL0     C19047  10.648   7.821   0.643 -0.0292  0.3203 -0.6814
  145MOL0     C19048  10.723   7.943   0.585  0.8883  0.6592 -0.3818
  145MOL0     C19049  10.620   8.059   0.556 -0.2695 -0.1269  0.5633
  145MOL0     C19050  10.707   8.188   0.537  0.2904  0.0439  0.5407
  145MOL0     C19051  10.628   8.285   0.445 -0.0144  0.1543  0.5415
  145MOL0    Cl19052  10.718   8.435   0.420  0.3926 -0.2567  0.3903
  145MOL0     C19053  10.278   7.415   0.749 -0.5365  0.7082 -0.1332
  145MOL0     C19054  10.167   7.358   0.819 -0.2086 -0.8378  0.2453
  145MOL0     O19055  10.097   7.168   1.046 -0.0565 -0.0254  0.0785
  145MOL0     C19056   9.904   6.991   1.137 -0.4942  0.9156 -0.3582
  145MOL0     C19057   9.794   6.915   1.184  0.2352 -0.4893  0.3612
  145MOL0     N19058   9.058   7.230   1.261  0.3091 -0.2569  0.6232
  145MOL0     N19059   8.960   7.255   1.344 -0.4028 -1.3180 -0.2216
  145MOL0     C19060   8.384   7.587   0.755  0.0900  0.3227  0.3495
  145MOL0     C19061   8.394   7.620   0.622  0.4058  0.7763  0.0795
  145MOL0     C19062   8.203   7.755   0.193  0.5271  0.0735  0.1501
  145MOL0     C19063   8.101   7.747   0.111  0.7675 -0.5052 -0.0145
  145MOL0     C19064   8.090   7.836   0.004 -0.2273  0.0410 -0.5930
  145MOL0     C19065   8.194   7.930  -0.024 -0.0308 -0.1223  0.3237
  145MOL0     O19066   8.179   8.022  -0.123  0.3780 -0.2968 -0.7475
  145MOL0     C19067   8.299   8.100  -0.154 -0.8731  0.6506  0.4828
  145MOL0     C19068   8.269   8.167  -0.283 -0.5852 -0.2162  0.2580
  145MOL0     C19069   8.210   8.072  -0.394  0.2039 -0.7762 -0.3560
  145MOL0     C19070   8.294   7.949  -0.423 -0.6675 -0.0258 -0.3904
  145MOL0     C19071   8.296   7.917  -0.567 -0.1818 -0.2352  0.4884
  145MOL0     C19072   8.299   7.915  -0.692  0.5184  0.1241 -0.1919
  145MOL0     C19073   8.312   7.915   0.055  0.6879  0.3274 -0.3688
  145MOL0     C19074   8.315   7.828   0.158  0.0223 -0.8314  0.0876
  145MOL0     H19075   8.060   7.684   0.560  1.3236  1.5787  1.3809
  145MOL0     H19076   8.060   7.638   0.805  1.1580  1.6624  0.1337
  145MOL0     H19077   8.426   7.483   1.047  0.7311  2.6037 -2.8860
  145MOL0     H19078   8.393   7.361   0.911  0.4335  0.3584 -0.3342
  145MOL0     H19079   8.218   7.257   1.016 -1.8978  1.1137 -0.1797
  145MOL0     H19080   8.206   7.377   1.152  0.3218  3.8408 -1.5317
  145MOL0     H19081   8.442   7.211   1.076  0.7228  3.8288 -2.1301
  145MOL0     H19082   8.322   7.175   1.209 -2.3427  1.6251  0.7499
  145MOL0     H19083   8.531   7.403   1.224 -1.2305 -0.8285 -3.9956
  145MOL0     H19084   8.378   7.397   1.315  0.8084 -0.8922  1.8953
  145MOL0     H19085   8.429   7.193   1.428  0.3158 -2.7449 -1.0884
  145MOL0     H19086   8.554   7.312   1.448  1.7772 -0.6388 -0.7904
  145MOL0     H19087   8.681   7.210   1.264  1.6596  0.1898  3.2265
  145MOL0     H19088   8.549   7.084   1.251  1.7940  0.5752 -1.8578
  145MOL0     H19089   8.598   7.056   1.507 -1.0362 -1.4200 -1.6043
  145MOL0     H19090   8.698   6.974   1.393 -2.7565 -1.7046  0.6698
  145MOL0     H19091   8.829   7.091   1.575 -1.5642  1.0331  0.5689
  145MOL0     H19092   8.769   7.240   1.512  0.8232 -0.2321  0.3478
  145MOL0     H19093   8.962   6.923   1.335 -0.7173 -0.4277 -1.5514
  145MOL0     H19094   9.207   7.080   1.081  0.1840 -0.2703  0.5497
  145MOL0     H19095   9.083   6.955   1.083  0.6239  0.2121 -1.3568
  145MOL0     H19096   9.275   6.846   1.138  0.3989  1.4511 -1.5869
  145MOL0     H19097   9.217   6.891   1.302 -1.9108  1.9368  0.1192
  145MOL0     H19098   9.428   7.057   1.166 -1.8215 -1.0690 -1.1441
  145MOL0     H19099   9.351   7.069   1.318 -4.9743 -1.8228 -0.8440
  145MOL0     H19100   9.460   6.831   1.349 -1.0632  0.3294 -0.0717
  145MOL0     H19101   9.584   6.963   1.340 -1.7706  1.5639  0.8522
  145MOL0     H19102   9.554   7.024   0.968 -0.3604  0.4982  2.2411
  145MOL0     H19103   9.755   7.163   0.899 -1.1368  1.0274  0.7617
  145MOL0     H19104  10.099   7.087   0.639  0.8959 -1.7206  1.0010
  145MOL0     H19105  10.275   7.195   0.497  1.5120 -1.3208  0.5078
  145MOL0     H19106  10.324   7.585   0.529  1.2470  2.5942 -0.5864
  145MOL0     H19107  10.456   7.554   0.422 -0.6214 -2.1488 -0.4668
  145MOL0     H19108  10.628   7.550   0.626 -0.4364 -0.8978  0.4236
  145MOL0     H19109  10.506   7.635   0.714 -0.1858 -2.9290  0.1542
  145MOL0     H19110  10.488   7.801   0.518  1.9693  1.7610  0.3539
  145MOL0     H19111  10.646   7.719   0.472 -1.2504 -0.1522 -1.4491
  145MOL0     H19112  10.584   7.869   0.718  2.8401  2.5243  0.5724
  145MOL0     H19113  10.721   7.761   0.698  2.0683  0.8896 -2.6451
  145MOL0     H19114  10.784   7.920   0.497  0.0698  2.5969 -1.5165
  145MOL0     H19115  10.796   7.989   0.651  0.2420 -1.4255  1.9314
  145MOL0     H19116  10.533   8.072   0.621 -1.8571  0.0306 -1.4535
  145MOL0     H19117  10.569   8.049   0.459  1.1039 -2.2253  0.0065
  145MOL0     H19118  10.728   8.229   0.636  0.4504 -2.2969  1.5592
  145MOL0     H19119  10.779   8.147   0.466 -0.9803 -3.0775  0.8783
  145MOL0     H19120  10.527   8.302   0.485 -0.6723  0.3706 -1.1314
  145MOL0     H19121  10.621   8.242   0.345  0.8226  3.4232 -1.0398
  145MOL0     H19122  10.334   7.503   0.779  4.1768 -1.8103 -0.5657
  145MOL0     H19123  10.139   7.406   0.912 -0.6348 -0.5330 -0.0389
  145MOL0     H19124   9.992   7.001   1.199  1.0402  3.6816 -2.7101
  145MOL0     H19125   9.808   6.852   1.272 -0.7007 -0.0446  0.8341
  145MOL0     H19126   8.472   7.567   0.815 -1.4105 -1.4632  2.0980
  145MOL0     H19127   8.483   7.628   0.561 -0.1113  1.5661 -0.6028
  145MOL0     H19128   8.020   7.678   0.129  0.0511  0.5230  0.8763
  145MOL0     H19129   7.994   7.832  -0.047 -0.6028 -1.7318  0.1970
  145MOL0     H19130   8.384   8.033  -0.162 -1.7775 -0.4946  0.2657
  145MOL0     H19131   8.317   8.170  -0.072  1.2173 -0.2918  0.8792
  145MOL0     H19132   8.193   8.246  -0.279 -2.1649 -1.6712 -0.1281
  145MOL0     H19133   8.370   8.201  -0.310 -0.2585 -1.4674 -0.1695
  145MOL0     H19134   8.220   8.129  -0.487  1.4939 -0.4016 -0.0099
  145MOL0     H19135   8.102   8.056  -0.381  0.1223 -1.2710 -1.4907
  145MOL0     H19136   8.400   7.967  -0.404 -0.2866 -1.9176 -0.5132
  145MOL0     H19137   8.264   7.860  -0.367  1.1150 -0.5748 -0.2200
  145MOL0     H19138   8.325   7.895  -0.794  0.8425 -0.6573  0.0374
  145MOL0     H19139   8.394   7.984   0.045  0.8559 -0.0632 -1.8196
  145MOL0     H19140   8.403   7.823   0.222  0.2880 -1.8232 -0.3355
  146MOL0     O19141   1.119   9.752   6.953 -0.3936  0.6056  0.1481
  146MOL0     C19142   1.157   9.644   6.907  0.5668  1.0811 -0.3375
  146MOL0     O19143   1.107   9.580   6.791  0.8475  0.1453  0.0350
  146MOL0     C19144   1.031   9.665   6.711 -0.7140 -1.3163  0.5504
  146MOL0     C19145   0.893   9.652   6.707  0.5457  0.1591  0.2478
  146MOL0     C19146   0.813   9.728   6.619  0.3153  0.4677  0.9808
  146MOL0     C19147   0.873   9.809   6.525  0.3556 -0.2843 -0.1626
  146MOL0     O19148   0.799   9.855   6.418  0.0492 -0.3151 -0.3941
  146MOL0     C19149   0.664   9.807   6.405 -0.9397 -0.6038  0.3450
  146MOL0     C19150   0.601   9.876   6.286 -1.0906  0.5063 -0.8863
  146MOL0     C19151   0.523  10.003   6.344 -0.2928  0.6630  0.1369
  146MOL0     C19152   0.432  10.092   6.256 -0.0843  0.5059  0.5121
  146MOL0     C19153   0.318  10.024   6.176  0.2572 -0.3599  0.1782
  146MOL0     C19154   0.221   9.952   6.268 -0.0564 -0.1455 -0.5042
  146MOL0     C19155   0.136  10.050   6.353 -0.0428 -1.0346 -0.9382
  146MOL0     C19156   0.050  10.146   6.270  0.1306 -0.0342 -0.2738
  146MOL0     N19157  -0.066  10.200   6.339 -0.5077  0.2427  0.1936
  146MOL0     C19158  -0.189  10.137   6.354 -0.1137 -1.4152  0.1426
  146MOL0     C19159  -0.277  10.242   6.365 -0.2652 -0.2389 -0.3418
  146MOL0     C19160  -0.430  10.227   6.387 -0.6497  0.4588 -0.3345
  146MOL0     C19161  -0.508  10.145   6.276  0.5636 -0.4558 -0.1753
  146MOL0     C19162  -0.659  10.133   6.315  0.2829  0.0127  0.0668
  146MOL0     C19163  -0.670   9.994   6.380 -0.1507  1.0520  0.3024
  146MOL0     O19164  -0.795   9.987   6.450  0.1402  1.6133  0.2454
  146MOL0     C19165  -0.830   9.865   6.499 -0.4341  1.0850 -0.0247
  146MOL0     C19166  -0.754   9.747   6.489 -0.0681 -0.0895  0.1012
  146MOL0     C19167  -0.803   9.628   6.540 -0.0066  0.5743 -1.2030
  146MOL0     C19168  -0.927   9.630   6.614 -0.6039 -0.2319 -0.5408
  146MOL0     C19169  -0.973   9.500   6.671  0.6614 -0.1304 -0.4946
  146MOL0     O19170  -0.877   9.420   6.701  0.7583 -0.1159  0.5051
  146MOL0     C19171  -0.912   9.287   6.736  0.1589 -0.3950 -0.3872
  146MOL0     C19172  -0.970   9.188   6.653  0.4449  0.3520  0.6722
  146MOL0     C19173  -0.981   9.062   6.704 -1.0179  0.1819 -0.9787
  146MOL0     C19174  -0.946   9.031   6.834 -0.1660  0.0807  0.6260
  146MOL0     O19175  -0.951   8.897   6.868 -0.1497 -0.1873  0.1453
  146MOL0     C19176  -1.067   8.824   6.885 -1.2553  0.5820  0.6493
  146MOL0     C19177  -1.051   8.728   7.000  0.2391  0.4338 -0.7309
  146MOL0     C19178  -1.066   8.805   7.126  0.1281  0.6649 -0.0191
  146MOL0     C19179  -1.025   8.720   7.244  0.4042  0.6718 -0.2778
  146MOL0     C19180  -1.088   8.776   7.376 -0.0969 -0.1466 -0.8524
  146MOL0     C19181  -1.017   8.696   7.495  0.2150 -1.5142 -0.5576
  146MOL0     C19182  -1.050   8.776   7.624 -0.3485 -0.2564 -0.0585
  146MOL0     C19183  -1.199   8.764   7.666 -0.7405  0.5087  0.4588
  146MOL0    Cl19184  -1.234   8.854   7.815  0.2377 -0.6990  0.0557
  146MOL0     C19185  -0.902   9.130   6.921 -0.7422  0.1221 -0.1071
  146MOL0     C19186  -0.876   9.255   6.864  0.3193 -0.2387 -0.0986
  146MOL0     O19187  -1.095   9.478   6.694 -0.5265 -0.4258  0.0277
  146MOL0     C19188  -1.001   9.748   6.636 -0.2771  0.4346  1.3096
  146MOL0     C19189  -0.959   9.860   6.570 -0.7863  0.4649  0.3766
  146MOL0     N19190  -0.205  10.366   6.368 -0.4956 -0.0785  0.8714
  146MOL0     N19191  -0.079  10.336   6.351 -0.0916 -0.1346  0.5395
  146MOL0     C19192   1.014   9.830   6.530 -0.9946  0.4812 -0.9327
  146MOL0     C19193   1.094   9.759   6.620 -0.7701  0.2734  0.2821
  146MOL0     C19194   1.240   9.549   6.976 -0.0642 -0.0809 -0.7708
  146MOL0     C19195   1.322   9.587   7.087  0.5041 -0.5779  1.4648
  146MOL0     C19196   1.396   9.498   7.151  0.3552  0.4191 -0.4737
  146MOL0     C19197   1.432   9.375   7.100  0.2962  0.7739  0.4011
  146MOL0     O19198   1.535   9.313   7.172  0.9567  0.5021 -0.5204
  146MOL0     C19199   1.583   9.192   7.110  0.0285 -0.0524  0.4777
  146MOL0     C19200   1.735   9.183   7.151  0.8906 -0.2877 -0.2793
  146MOL0     C19201   1.794   9.047   7.105 -0.0054 -0.1279  0.6045
  146MOL0     C19202   1.794   8.932   7.202 -1.1950 -0.0531 -0.5657
  146MOL0     C19203   1.870   8.818   7.158 -0.4687 -0.9515 -0.0467
  146MOL0     C19204   1.937   8.725   7.119  0.4625  0.0822 -0.0082
  146MOL0     C19205   1.355   9.334   6.991 -0.5712  0.4205 -0.2139
  146MOL0     C19206   1.262   9.417   6.930 -0.2452 -0.2071  0.2593
  146MOL0     H19207   0.840   9.579   6.767  0.0775  1.3252  1.3090
  146MOL0     H19208   0.706   9.712   6.615  0.4455 -0.5038  0.9399
  146MOL0     H19209   0.598   9.823   6.490 -1.8857 -0.8615 -0.3334
  146MOL0     H19210   0.677   9.698   6.403  1.7357 -0.3829  1.2886
  146MOL0     H19211   0.523   9.817   6.239 -1.9900  1.0561 -0.1271
  146MOL0     H19212   0.683   9.896   6.215  1.0724  1.1048  1.6015
  146MOL0     H19213   0.597  10.065   6.396  2.6308 -1.3628 -1.2784
  146MOL0     H19214   0.447   9.964   6.413 -2.2925 -1.4057 -2.9818
  146MOL0     H19215   0.409  10.171   6.328  0.1972  0.4975  0.6091
  146MOL0     H19216   0.501  10.141   6.188 -0.7329  1.8292  0.7825
  146MOL0     H19217   0.358   9.955   6.101 -3.0302 -3.3283  0.9444
  146MOL0     H19218   0.255  10.098   6.126 -3.3292 -1.5822  2.5368
  146MOL0     H19219   0.269   9.884   6.339 -0.2704 -0.0163 -0.2321
  146MOL0     H19220   0.151   9.893   6.209  0.4392 -3.3984  1.8761
  146MOL0     H19221   0.058   9.991   6.403 -2.4931  0.8698 -2.2716
  146MOL0     H19222   0.211  10.093   6.420  0.4528 -2.2426 -0.6832
  146MOL0     H19223   0.009  10.100   6.179 -0.6810  1.4536 -0.6999
  146MOL0     H19224   0.119  10.222   6.231  2.6848 -0.9963  2.0648
  146MOL0     H19225  -0.218  10.032   6.351 -1.3838 -1.2995  3.5648
  146MOL0     H19226  -0.469  10.328   6.398 -2.0499 -0.1881  1.0017
  146MOL0     H19227  -0.426  10.173   6.482 -2.2914 -2.7589 -1.9208
  146MOL0     H19228  -0.457  10.053   6.249  2.0267  0.3819 -0.3622
  146MOL0     H19229  -0.494  10.207   6.187 -0.6787 -0.3127 -0.2849
  146MOL0     H19230  -0.691  10.209   6.386 -0.6127  0.4416 -0.7656
  146MOL0     H19231  -0.714  10.135   6.220  3.0253  0.2710 -1.6264
  146MOL0     H19232  -0.586   9.984   6.449 -1.0823  3.9184  2.0306
  146MOL0     H19233  -0.671   9.916   6.303 -1.7929  1.6917 -0.3865
  146MOL0     H19234  -0.661   9.742   6.434 -1.0210 -1.8343 -1.4604
  146MOL0     H19235  -0.768   9.529   6.512  0.7947 -0.2333  2.1673
  146MOL0     H19236  -1.005   9.197   6.551 -1.5157  0.1852  1.2881
  146MOL0     H19237  -1.013   8.972   6.653  0.6709 -2.0382  1.5595
  146MOL0     H19238  -1.094   8.773   6.792  0.8706  1.7677 -0.6774
  146MOL0     H19239  -1.139   8.903   6.909 -0.8998  1.3853 -0.8418
  146MOL0     H19240  -0.947   8.692   7.003 -0.3704 -1.8563 -3.0972
  146MOL0     H19241  -1.114   8.640   6.985  0.6468  0.1829 -1.0262
  146MOL0     H19242  -1.167   8.845   7.135  0.4847  2.3879 -2.5048
  146MOL0     H19243  -1.008   8.899   7.129  1.4968 -0.1733  1.5384
  146MOL0     H19244  -1.061   8.618   7.231  1.7237  0.4357 -2.4570
  146MOL0     H19245  -0.918   8.710   7.262  0.5621  1.7876 -0.5231
  146MOL0     H19246  -1.195   8.755   7.382 -0.6571  2.4279 -0.7611
  146MOL0     H19247  -1.068   8.883   7.387 -2.4118  0.2056  0.5782
  146MOL0     H19248  -0.911   8.692   7.469  0.6629 -0.8690  1.0544
  146MOL0     H19249  -1.060   8.597   7.511  1.2610 -1.7115  1.2540
  146MOL0     H19250  -0.996   8.731   7.708  0.0993 -1.2930 -0.8863
  146MOL0     H19251  -1.031   8.882   7.608 -1.6000  0.0118  0.0756
  146MOL0     H19252  -1.217   8.658   7.688 -1.1012 -0.2665 -2.9803
  146MOL0     H19253  -1.271   8.785   7.587  1.1838  0.1739 -1.4761
  146MOL0     H19254  -0.875   9.115   7.025  1.4191 -2.5081 -0.9298
  146MOL0     H19255  -0.843   9.333   6.931 -3.9600  1.2245  0.6327
  146MOL0     H19256  -1.093   9.752   6.694  0.5846 -1.2911  2.8591
  146MOL0     H19257  -1.031   9.940   6.564 -0.7799  0.3734 -2.1134
  146MOL0     H19258   1.055   9.901   6.459 -0.8094  1.7018  0.3567
  146MOL0     H19259   1.201   9.756   6.602 -1.4313 -0.6943 -4.7934
  146MOL0     H19260   1.308   9.688   7.126 -2.5998  0.6379 -2.2469
  146MOL0     H19261   1.447   9.535   7.239  1.8749  1.0409 -1.5567
  146MOL0     H19262   1.569   9.194   7.001  1.6261 -0.3898  0.2415
  146MOL0     H19263   1.527   9.108   7.152  0.2355 -0.1444  0.5732
  146MOL0     H19264   1.780   9.271   7.105 -0.2893 -0.3123 -1.5431
  146MOL0     H19265   1.751   9.193   7.259  2.5920  1.1539 -0.6030
  146MOL0     H19266   1.899   9.067   7.079  0.8179 -1.1551  2.8689
  146MOL0     H19267   1.733   9.020   7.019 -0.3848 -2.0767  1.4274
  146MOL0     H19268   1.840   8.965   7.296  0.1561  1.6614 -1.7654
  146MOL0     H19269   1.693   8.899   7.231 -1.6238  0.6134 -1.2531
  146MOL0     H19270   1.991   8.644   7.075  1.4216 -0.2149  1.6292
  146MOL0     H19271   1.358   9.231   6.956 -1.3167 -0.5257  2.3290
  146MOL0     H19272   1.200   9.374   6.852  0.4602  1.6388 -1.3966
  147MOL0     O19273   7.965   8.474   2.099  0.3128  0.3812  0.8759
  147MOL0     C19274   8.016   8.580   2.105  0.0580 -0.0525 -0.4584
  147MOL0     O19275   8.142   8.620   2.140  0.6293 -0.3988 -0.0348
  147MOL0     C19276   8.222   8.530   2.199 -0.5561 -0.4737  0.6051
  147MOL0     C19277   8.277   8.422   2.130  0.8214  0.8461 -0.6905
  147MOL0     C19278   8.356   8.327   2.190 -0.5901 -0.5032 -0.1922
  147MOL0     C19279   8.403   8.352   2.313 -0.1102 -1.0448  0.8348
  147MOL0     O19280   8.486   8.267   2.371  0.2274 -0.2449 -0.1577
  147MOL0     C19281   8.536   8.148   2.304  0.6527 -0.2804 -0.0238
  147MOL0     C19282   8.643   8.076   2.385 -0.4663  0.8793 -0.6164
  147MOL0     C19283   8.789   8.134   2.371 -0.1036  1.2070 -1.0128
  147MOL0     C19284   8.895   8.058   2.455  0.0251 -0.6086  0.2495
  147MOL0     C19285   9.038   8.103   2.426  0.2884  1.1055  0.2247
  147MOL0     C19286   9.114   7.993   2.359  0.2243  0.4435 -0.0984
  147MOL0     C19287   9.258   8.041   2.334 -0.9307 -0.4893 -0.0253
  147MOL0     C19288   9.348   7.929   2.284 -0.3142 -0.1106  0.1347
  147MOL0     N19289   9.491   7.955   2.294  0.0634  0.2632 -0.0158
  147MOL0     C19290   9.573   7.896   2.391 -0.9425  0.1360 -0.3811
  147MOL0     C19291   9.690   7.967   2.375  1.3459  0.1234  0.2600
  147MOL0     C19292   9.805   7.954   2.459 -0.0981  0.4378  0.3291
  147MOL0     C19293   9.896   8.077   2.467 -0.0731 -0.0902  0.5193
  147MOL0     C19294   9.823   8.215   2.481  0.5502  0.2348 -0.3561
  147MOL0     C19295   9.716   8.224   2.590 -0.0067  0.0095  0.6592
  147MOL0     O19296   9.677   8.363   2.605  0.8107  0.0831  0.5093
  147MOL0     C19297   9.535   8.389   2.602 -0.4150 -0.9614 -0.0640
  147MOL0     C19298   9.450   8.334   2.702 -0.8286 -0.7283 -0.3595
  147MOL0     C19299   9.307   8.347   2.691  0.3452 -0.1677  0.2492
  147MOL0     C19300   9.253   8.410   2.579  0.2251 -0.3170 -0.4357
  147MOL0     C19301   9.108   8.435   2.562 -0.4051 -0.0603  0.1932
  147MOL0     O19302   9.077   8.521   2.456 -0.3958  0.4763 -0.0013
  147MOL0     C19303   8.950   8.573   2.428 -1.2642  0.5220  0.2348
  147MOL0     C19304   8.898   8.603   2.306  0.3215  0.0218  0.1605
  147MOL0     C19305   8.776   8.667   2.301  0.0105 -0.1555 -0.0454
  147MOL0     C19306   8.704   8.716   2.408 -0.0771  0.4239 -0.3127
  147MOL0     O19307   8.580   8.769   2.384 -0.6835  0.3887  0.7768
  147MOL0     C19308   8.539   8.872   2.468 -1.1038  0.7771 -0.2929
  147MOL0     C19309   8.408   8.916   2.412  0.0493  0.3784  0.2314
  147MOL0     C19310   8.376   9.058   2.464 -1.1962 -0.2640 -0.1632
  147MOL0     C19311   8.241   9.117   2.408  0.1329  1.1311 -0.1186
  147MOL0     C19312   8.219   9.274   2.423  0.5506  0.3416 -0.3409
  147MOL0     C19313   8.072   9.307   2.378 -0.9626  0.2512 -0.3788
  147MOL0     C19314   8.039   9.453   2.403  0.0072 -0.1895  0.3830
  147MOL0     C19315   7.893   9.493   2.395  0.1483  0.1291 -0.1138
  147MOL0    Cl19316   7.879   9.673   2.370  0.0859 -0.2284  0.4213
  147MOL0     C19317   8.750   8.679   2.530  0.5415  1.2987 -0.3235
  147MOL0     C19318   8.878   8.617   2.545 -0.1714  0.5194  0.3014
  147MOL0     O19319   9.020   8.379   2.632 -0.0060 -0.0785  0.0993
  147MOL0     C19320   9.346   8.453   2.476 -0.4685  0.3651  0.0264
  147MOL0     C19321   9.480   8.435   2.483 -0.0692 -0.4488 -0.1175
  147MOL0     N19322   9.677   8.051   2.265 -0.0716  0.2262 -0.6290
  147MOL0     N19323   9.560   8.053   2.226  0.4910 -0.7320  0.4893
  147MOL0     C19324   8.357   8.467   2.384 -0.3693 -1.1450  0.8452
  147MOL0     C19325   8.270   8.559   2.329 -0.6956 -1.2618  0.3049
  147MOL0     C19326   7.924   8.692   2.066  1.1854  0.5685 -0.5486
  147MOL0     C19327   7.977   8.817   2.031  0.0640  0.5085  0.9499
  147MOL0     C19328   7.894   8.925   2.011  0.5568  0.2903 -0.6272
  147MOL0     C19329   7.756   8.919   2.031 -1.3156 -0.2119 -0.2510
  147MOL0     O19330   7.667   9.026   2.026 -0.2788 -1.1165 -0.4349
  147MOL0     C19331   7.711   9.165   2.002 -0.4953 -0.0312  0.6364
  147MOL0     C19332   7.628   9.270   2.076  0.2105  0.1650  0.6908
  147MOL0     C19333   7.652   9.412   2.024 -0.1729 -0.5772  0.0539
  147MOL0     C19334   7.596   9.526   2.113  0.0320 -0.1619 -0.4079
  147MOL0     C19335   7.458   9.547   2.061  0.6559  0.3498 -0.7704
  147MOL0     C19336   7.341   9.557   2.020 -0.3112  0.1413 -0.1641
  147MOL0     C19337   7.696   8.786   2.052 -1.1505  0.0704 -0.6682
  147MOL0     C19338   7.783   8.674   2.079  1.5066  0.1785  0.6880
  147MOL0     H19339   8.247   8.398   2.028  0.7942  1.0866 -0.7401
  147MOL0     H19340   8.390   8.252   2.120 -1.2923 -1.5567  0.5734
  147MOL0     H19341   8.576   8.177   2.207  0.1673  0.5928  0.0263
  147MOL0     H19342   8.457   8.076   2.280  1.8917 -0.5211 -4.2037
  147MOL0     H19343   8.651   7.973   2.351  0.4799  1.0541 -0.9353
  147MOL0     H19344   8.597   8.072   2.485 -1.8267 -0.5383 -1.2620
  147MOL0     H19345   8.812   8.239   2.391  2.7823  0.8213 -1.8854
  147MOL0     H19346   8.821   8.114   2.268  0.5157 -1.8374 -0.3217
  147MOL0     H19347   8.873   8.083   2.559 -1.0610 -0.6578  0.0429
  147MOL0     H19348   8.879   7.950   2.445 -1.5961 -0.3519 -0.2347
  147MOL0     H19349   9.088   8.123   2.521  0.0021  0.6919  0.4677
  147MOL0     H19350   9.027   8.197   2.372  1.2780  2.1599  1.7709
  147MOL0     H19351   9.072   7.973   2.260 -0.8449  2.0426 -0.0209
  147MOL0     H19352   9.102   7.913   2.432 -1.7832  1.4754  0.7780
  147MOL0     H19353   9.262   8.120   2.258  0.1485 -2.0605 -1.6829
  147MOL0     H19354   9.297   8.081   2.428  0.3867  0.3035 -0.8577
  147MOL0     H19355   9.319   7.911   2.180 -1.3504 -2.6109  0.7879
  147MOL0     H19356   9.329   7.835   2.336 -2.9494 -0.8274 -1.9311
  147MOL0     H19357   9.551   7.827   2.472  0.3475  1.3030  1.0384
  147MOL0     H19358   9.859   7.870   2.414  0.6020  1.8944 -1.7016
  147MOL0     H19359   9.769   7.932   2.560 -1.4242  4.4251  0.9235
  147MOL0     H19360   9.951   8.086   2.373  0.9733  1.5668  1.2453
  147MOL0     H19361   9.977   8.058   2.539  1.6720  0.9202 -1.0818
  147MOL0     H19362   9.901   8.291   2.487  1.8306 -1.1183  1.3375
  147MOL0     H19363   9.784   8.237   2.381  2.6761 -1.8528 -1.7852
  147MOL0     H19364   9.752   8.187   2.687  0.3746  0.0218  0.5234
  147MOL0     H19365   9.630   8.162   2.564  0.0766 -0.9938  2.5756
  147MOL0     H19366   9.494   8.277   2.783 -0.6341 -0.3917 -0.2269
  147MOL0     H19367   9.233   8.300   2.755 -1.8300 -0.0401 -2.0137
  147MOL0     H19368   8.947   8.580   2.212 -3.4169  0.1250 -2.0064
  147MOL0     H19369   8.740   8.712   2.209 -0.0386  4.1851  1.8340
  147MOL0     H19370   8.618   8.947   2.469 -0.1163 -0.2284  0.2928
  147MOL0     H19371   8.516   8.834   2.568 -1.6195 -0.4732 -0.8547
  147MOL0     H19372   8.319   8.862   2.443 -0.1317  1.0366  0.8905
  147MOL0     H19373   8.414   8.937   2.304  0.1093  1.4224  0.4220
  147MOL0     H19374   8.466   9.118   2.451 -1.0758  0.2137  2.3453
  147MOL0     H19375   8.368   9.045   2.573 -1.6327  0.4102 -0.1118
  147MOL0     H19376   8.245   9.105   2.299  5.0485  3.0651 -0.4289
  147MOL0     H19377   8.149   9.066   2.437  0.0567  0.5946 -1.2276
  147MOL0     H19378   8.296   9.320   2.360 -0.4281  1.2899 -0.8896
  147MOL0     H19379   8.243   9.317   2.520 -2.3062  0.9214  0.1975
  147MOL0     H19380   8.009   9.242   2.439  0.6348 -2.5680 -1.5073
  147MOL0     H19381   8.067   9.282   2.271 -0.4366 -1.8457  0.0531
  147MOL0     H19382   8.085   9.492   2.495  1.8223  0.6634 -0.8182
  147MOL0     H19383   8.086   9.515   2.327 -1.3428  0.1948 -0.1425
  147MOL0     H19384   7.839   9.462   2.484  1.0442  0.0311  0.4093
  147MOL0     H19385   7.835   9.457   2.309  0.2045  3.2481 -1.6029
  147MOL0     H19386   8.708   8.719   2.623  2.8188 -2.2318  2.4985
  147MOL0     H19387   8.925   8.604   2.641  2.3006 -3.1092 -1.1853
  147MOL0     H19388   9.309   8.509   2.391 -0.0109 -0.4276 -0.6997
  147MOL0     H19389   9.549   8.458   2.402  1.1256  2.3939  1.5368
  147MOL0     H19390   8.399   8.490   2.481 -0.7828 -0.8348  0.9524
  147MOL0     H19391   8.229   8.642   2.385  0.5344 -1.2331  1.1824
  147MOL0     H19392   8.082   8.841   2.017 -0.0171  2.4139  2.9807
  147MOL0     H19393   7.942   9.022   2.003 -1.4095  1.2556 -1.3106
  147MOL0     H19394   7.686   9.182   1.897  1.7800  1.1750  0.2356
  147MOL0     H19395   7.820   9.176   2.007  0.1889 -2.8160 -3.1468
  147MOL0     H19396   7.520   9.256   2.069  0.1744  1.1462 -3.5827
  147MOL0     H19397   7.662   9.254   2.179  0.0749  0.5459  0.7957
  147MOL0     H19398   7.607   9.415   1.924  1.9480 -1.9754 -1.0073
  147MOL0     H19399   7.759   9.431   2.010 -0.8237  1.1759 -4.2951
  147MOL0     H19400   7.606   9.510   2.221  2.3168  3.8237  0.1754
  147MOL0     H19401   7.633   9.628   2.097 -5.1799  1.9113 -1.1432
  147MOL0     H19402   7.238   9.558   1.991 -0.4156 -1.2403  0.1097
  147MOL0     H19403   7.590   8.770   2.064 -1.7553  1.5506 -3.2778
  147MOL0     H19404   7.735   8.578   2.099  2.5038 -0.4517  0.1380
  148MOL0     O19405   1.734   9.141   1.528 -0.0745 -0.0817  0.3679
  148MOL0     C19406   1.634   9.068   1.543 -0.3142  0.4860 -0.1007
  148MOL0     O19407   1.622   8.963   1.626 -0.6464  0.5207 -0.0314
  148MOL0     C19408   1.735   8.940   1.704  0.2175 -0.8744 -0.5372
  148MOL0     C19409   1.744   8.978   1.841 -0.0431  0.3297  1.3647
  148MOL0     C19410   1.856   8.971   1.915 -1.1396  0.8878 -0.7601
  148MOL0     C19411   1.970   8.902   1.866  0.6463 -0.0858 -0.0867
  148MOL0     O19412   2.083   8.893   1.933 -0.0815 -0.1413 -0.5478
  148MOL0     C19413   2.188   8.809   1.879  1.2350 -0.5269  0.2894
  148MOL0     C19414   2.316   8.844   1.948  0.2800  0.4795  1.3411
  148MOL0     C19415   2.317   8.818   2.096 -0.1102  0.7298  0.7909
  148MOL0     C19416   2.355   8.930   2.185  1.1596 -0.6143 -0.3308
  148MOL0     C19417   2.500   8.989   2.176 -0.0684 -0.6862 -0.0724
  148MOL0     C19418   2.522   9.112   2.270  0.6310  0.5638  0.7428
  148MOL0     C19419   2.670   9.138   2.292  0.1574  0.7125 -0.3971
  148MOL0     C19420   2.699   9.204   2.428  0.6303  0.5600 -0.1662
  148MOL0     N19421   2.817   9.287   2.435  1.1778 -0.4642  0.2309
  148MOL0     C19422   2.864   9.334   2.552  0.2835  0.2332 -0.6150
  148MOL0     C19423   2.966   9.416   2.519  0.6205  0.1169 -0.7498
  148MOL0     C19424   3.072   9.488   2.602 -0.2920 -0.6319 -0.3337
  148MOL0     C19425   3.061   9.454   2.759  0.0328 -0.1145 -0.2561
  148MOL0     C19426   3.123   9.321   2.795  0.5346  0.3234 -0.2345
  148MOL0     C19427   3.133   9.305   2.944 -0.8425  0.5921  0.3845
  148MOL0     O19428   3.252   9.365   2.991 -0.4590  0.2960 -0.1966
  148MOL0     C19429   3.297   9.316   3.111 -0.5582 -0.5643  0.0292
  148MOL0     C19430   3.420   9.366   3.156  0.1034  0.7268 -0.0740
  148MOL0     C19431   3.468   9.332   3.285 -0.5039 -0.0067  0.8868
  148MOL0     C19432   3.414   9.223   3.359  0.0972  0.1991 -0.0496
  148MOL0     C19433   3.483   9.164   3.482  1.2562 -0.4519 -0.4940
  148MOL0     O19434   3.619   9.191   3.494  0.1649 -0.4080 -0.5118
  148MOL0     C19435   3.698   9.097   3.561 -0.6597  0.7442 -0.0791
  148MOL0     C19436   3.812   9.149   3.622  0.1127  0.1799  0.0590
  148MOL0     C19437   3.899   9.070   3.697  0.4446 -0.2626 -0.9534
  148MOL0     C19438   3.875   8.929   3.713  0.6557  0.2759 -1.1461
  148MOL0     O19439   3.947   8.841   3.787  0.2476  0.1304 -0.4203
  148MOL0     C19440   4.069   8.890   3.833 -0.6075 -0.0485 -0.2734
  148MOL0     C19441   4.161   8.762   3.848 -0.5160 -0.9406 -0.1141
  148MOL0     C19442   4.291   8.802   3.926 -0.2959 -0.9039  0.1944
  148MOL0     C19443   4.399   8.697   3.901 -0.5638  0.2462  0.2679
  148MOL0     C19444   4.524   8.739   3.982 -0.6239 -0.2920 -0.1574
  148MOL0     C19445   4.492   8.720   4.127  0.5192 -1.1192 -0.2094
  148MOL0     C19446   4.618   8.723   4.205 -0.4984 -0.3870  0.4939
  148MOL0     C19447   4.614   8.786   4.347 -0.3032 -0.4429  0.2495
  148MOL0    Cl19448   4.554   8.955   4.334  0.0497 -0.6691 -0.7898
  148MOL0     C19449   3.763   8.878   3.647  0.3697 -0.1851 -0.4173
  148MOL0     C19450   3.677   8.963   3.578  0.4874  0.4736  0.4164
  148MOL0     O19451   3.416   9.089   3.553 -0.2870 -0.5210  0.9281
  148MOL0     C19452   3.291   9.176   3.303  1.6960 -0.6015 -0.0912
  148MOL0     C19453   3.230   9.221   3.183 -0.8055 -0.6479 -0.4761
  148MOL0     N19454   2.956   9.442   2.382 -0.8043  0.1832 -0.3686
  148MOL0     N19455   2.869   9.367   2.335  0.0980  0.6627 -0.1088
  148MOL0     C19456   1.961   8.865   1.734  0.5917  0.4576  0.2556
  148MOL0     C19457   1.852   8.890   1.647 -0.5218  0.2704  0.0647
  148MOL0     C19458   1.521   9.115   1.462 -0.6982 -0.1918  0.2843
  148MOL0     C19459   1.516   9.249   1.403  0.3092  0.2860 -0.7865
  148MOL0     C19460   1.420   9.286   1.307  0.3568 -0.1504  0.0271
  148MOL0     C19461   1.325   9.199   1.266 -0.4063 -1.3125  0.7323
  148MOL0     O19462   1.230   9.250   1.176 -0.1321 -0.6193  0.9211
  148MOL0     C19463   1.139   9.157   1.108 -0.0456  0.3227 -0.6299
  148MOL0     C19464   0.993   9.208   1.120  0.0232 -0.0858 -0.1554
  148MOL0     C19465   0.909   9.160   1.011  0.2979  0.8564 -1.0157
  148MOL0     C19466   0.756   9.160   1.049  0.2281 -0.0098  0.6893
  148MOL0     C19467   0.716   9.293   1.103  0.6658  0.2541  0.7711
  148MOL0     C19468   0.654   9.400   1.131 -0.1247  0.0967  0.3949
  148MOL0     C19469   1.315   9.078   1.329  0.5870 -0.0222 -0.3119
  148MOL0     C19470   1.412   9.031   1.431  0.1127  0.1934  0.4451
  148MOL0     H19471   1.656   9.029   1.881  0.8648  0.2855  3.5767
  148MOL0     H19472   1.863   9.017   2.013 -1.4080  1.8955 -1.2041
  148MOL0     H19473   2.207   8.828   1.773 -0.8526 -0.9134 -0.2052
  148MOL0     H19474   2.174   8.703   1.902  2.1884 -0.2903  2.1614
  148MOL0     H19475   2.347   8.945   1.921 -0.8223  0.1094 -1.7081
  148MOL0     H19476   2.395   8.783   1.901 -1.0424 -0.7864  0.6801
  148MOL0     H19477   2.391   8.739   2.110  2.2728  2.7963  0.6904
  148MOL0     H19478   2.217   8.782   2.123 -2.0974  4.2098 -1.1538
  148MOL0     H19479   2.288   9.015   2.166  0.9214 -0.7307  0.0001
  148MOL0     H19480   2.333   8.904   2.288 -3.7714  0.3538 -0.8861
  148MOL0     H19481   2.533   9.004   2.073 -0.9376 -1.7058 -0.5244
  148MOL0     H19482   2.560   8.908   2.218  0.1425  0.4881  2.0281
  148MOL0     H19483   2.472   9.080   2.362 -1.1314 -5.3207 -1.8204
  148MOL0     H19484   2.465   9.196   2.230 -2.7218  0.1003  4.0426
  148MOL0     H19485   2.733   9.051   2.271 -2.1662 -0.2788 -4.4131
  148MOL0     H19486   2.700   9.217   2.223  3.0569 -0.7979 -1.0158
  148MOL0     H19487   2.713   9.121   2.499 -1.1871 -0.5491 -1.0274
  148MOL0     H19488   2.614   9.268   2.454  1.4106  1.3853  0.4180
  148MOL0     H19489   2.827   9.298   2.647 -0.4855  1.8232 -0.2826
  148MOL0     H19490   3.080   9.597   2.589  0.8155 -0.7382 -0.6110
  148MOL0     H19491   3.167   9.448   2.565  0.8396 -1.1823  2.8518
  148MOL0     H19492   2.958   9.459   2.794 -0.3230  0.3963 -1.3394
  148MOL0     H19493   3.104   9.546   2.800 -2.1338  3.2507 -4.6431
  148MOL0     H19494   3.055   9.250   2.748  1.5318  0.1108 -1.4241
  148MOL0     H19495   3.224   9.311   2.754  1.1181  0.0138  1.2164
  148MOL0     H19496   3.136   9.196   2.955 -1.9622  0.6773  1.7254
  148MOL0     H19497   3.046   9.342   2.998 -2.5147 -0.2293 -1.6252
  148MOL0     H19498   3.468   9.441   3.094  1.4259  0.6005  0.7474
  148MOL0     H19499   3.552   9.385   3.328 -0.0630 -0.0864  0.1437
  148MOL0     H19500   3.838   9.254   3.617  0.7102  0.1134  1.2242
  148MOL0     H19501   3.978   9.123   3.750 -1.7966 -1.1584  3.8804
  148MOL0     H19502   4.054   8.946   3.926 -1.7626 -0.9850  0.1156
  148MOL0     H19503   4.126   8.955   3.767 -0.4211 -1.4890 -1.5742
  148MOL0     H19504   4.200   8.726   3.753  1.5845 -3.2346  1.4813
  148MOL0     H19505   4.107   8.678   3.894 -0.5791 -0.3935  0.8539
  148MOL0     H19506   4.260   8.814   4.031  2.5109  1.3834  0.9071
  148MOL0     H19507   4.328   8.900   3.893 -1.2969 -0.1958  1.0705
  148MOL0     H19508   4.378   8.593   3.926 -0.1943 -0.1889 -1.1133
  148MOL0     H19509   4.423   8.703   3.794 -2.4278 -2.3521 -0.3588
  148MOL0     H19510   4.552   8.839   3.947 -3.5858 -0.0431 -2.2032
  148MOL0     H19511   4.602   8.667   3.959 -0.1410  0.8750 -2.4440
  148MOL0     H19512   4.433   8.630   4.149  0.4952 -1.4453 -1.5130
  148MOL0     H19513   4.429   8.806   4.151  0.4674 -1.2361  0.0744
  148MOL0     H19514   4.658   8.621   4.205  0.5823  0.0038 -0.8757
  148MOL0     H19515   4.698   8.779   4.156 -0.9901 -0.2946 -0.2105
  148MOL0     H19516   4.717   8.791   4.383 -0.4835  3.1033  0.6111
  148MOL0     H19517   4.560   8.726   4.420 -0.5443 -1.6487 -0.8763
  148MOL0     H19518   3.735   8.776   3.670 -1.5217 -0.2507 -2.6898
  148MOL0     H19519   3.578   8.925   3.555 -0.0556  1.9859  0.1206
  148MOL0     H19520   3.233   9.098   3.351 -0.6477 -1.3425 -3.6930
  148MOL0     H19521   3.135   9.172   3.167 -3.2422  1.3422  5.1473
  148MOL0     H19522   2.040   8.822   1.675 -0.5684  0.0346 -1.0440
  148MOL0     H19523   1.855   8.869   1.541  1.7562  1.6150 -0.1981
  148MOL0     H19524   1.587   9.326   1.432 -1.7359  2.0766 -0.2077
  148MOL0     H19525   1.440   9.385   1.267  1.8503  0.1151  1.3046
  148MOL0     H19526   1.144   9.052   1.142  4.7174  0.6739  0.4839
  148MOL0     H19527   1.165   9.155   1.002  0.7155 -0.7218 -0.4469
  148MOL0     H19528   0.951   9.164   1.211  1.6212 -3.2523 -0.7918
  148MOL0     H19529   0.985   9.317   1.124  0.2474 -0.0983  1.3231
  148MOL0     H19530   0.910   9.057   0.975 -0.6784  0.9947 -1.4814
  148MOL0     H19531   0.926   9.232   0.931 -0.4766  0.3500 -1.6495
  148MOL0     H19532   0.699   9.134   0.960 -0.5912 -0.8806  1.4395
  148MOL0     H19533   0.731   9.079   1.118  4.4769 -0.2692  2.1792
  148MOL0     H19534   0.607   9.491   1.162 -3.1109 -1.5749  1.1467
  148MOL0     H19535   1.228   9.017   1.307  1.2980 -1.3190  0.3913
  148MOL0     H19536   1.390   8.932   1.467  1.2555  0.1206  0.9952
  149MOL0     O19537   8.401   6.652   9.905  0.6398  0.0117  0.0474
  149MOL0     C19538   8.354   6.543   9.861  0.3135  0.7140 -0.6625
  149MOL0     O19539   8.420   6.453   9.781  0.3297 -0.6143  0.0650
  149MOL0     C19540   8.550   6.472   9.751 -0.0099 -0.5822 -0.0100
  149MOL0     C19541   8.649   6.538   9.837 -0.6141  0.0664 -0.0629
  149MOL0     C19542   8.777   6.536   9.797  0.1150  0.3249  0.1501
  149MOL0     C19543   8.819   6.498   9.665 -0.0457  0.2594  0.0641
  149MOL0     O19544   8.946   6.536   9.628 -0.0291 -0.3199  0.0897
  149MOL0     C19545   8.974   6.532   9.486  0.0605 -0.7838  0.6616
  149MOL0     C19546   9.074   6.638   9.452  0.2505 -0.4264 -0.9616
  149MOL0     C19547   9.213   6.610   9.515 -0.6100  0.4414  0.0052
  149MOL0     C19548   9.323   6.721   9.496 -0.4139  0.5236  0.5519
  149MOL0     C19549   9.451   6.692   9.576  0.0599 -0.0991 -0.2428
  149MOL0     C19550   9.553   6.799   9.548 -0.4291 -1.1400 -0.0413
  149MOL0     C19551   9.662   6.811   9.655  0.4751 -0.0927  0.4000
  149MOL0     C19552   9.688   6.681   9.731  0.0283 -0.5078 -0.2517
  149MOL0     N19553   9.800   6.699   9.830 -0.4631  0.7542 -0.5464
  149MOL0     C19554   9.928   6.741   9.797 -0.4230  0.8590  0.7559
  149MOL0     C19555   9.983   6.790   9.910 -0.7429 -0.1047  0.7818
  149MOL0     C19556  10.130   6.839   9.927  0.6397  0.6878  0.2499
  149MOL0     C19557  10.231   6.729   9.879 -0.5420  0.5720 -0.4439
  149MOL0     C19558  10.373   6.758   9.914 -0.0089 -0.1763  0.0455
  149MOL0     C19559  10.454   6.632   9.896 -0.1036 -0.7417  0.2267
  149MOL0     O19560  10.581   6.638   9.961  0.5193 -0.3673 -0.1416
  149MOL0     C19561  10.656   6.526   9.972 -0.2179 -0.2963 -0.2450
  149MOL0     C19562  10.621   6.390   9.946  0.3561  0.6698 -1.2128
  149MOL0     C19563  10.715   6.281   9.972  0.0800  0.4629  1.0560
  149MOL0     C19564  10.842   6.317  10.012 -0.5234  0.7170  0.4095
  149MOL0     C19565  10.950   6.203  10.028  0.7516 -0.1716 -0.4093
  149MOL0     O19566  11.072   6.237  10.085  0.5758 -0.5960  0.7223
  149MOL0     C19567  11.161   6.130  10.111 -0.5023  0.5593  0.7768
  149MOL0     C19568  11.220   6.121  10.229  0.0491  0.2903  0.3829
  149MOL0     C19569  11.304   6.022  10.268  0.1235  0.1560  0.0384
  149MOL0     C19570  11.351   5.930  10.178  0.0337  0.1448 -0.5516
  149MOL0     O19571  11.448   5.847  10.222  0.3838 -0.6568  0.0090
  149MOL0     C19572  11.482   5.738  10.135  0.8129 -0.0066  0.4632
  149MOL0     C19573  11.585   5.651  10.195  1.0793  0.6325  0.3302
  149MOL0     C19574  11.647   5.542  10.096 -0.6935 -0.3460  0.0162
  149MOL0     C19575  11.720   5.432  10.161 -0.0757 -0.5747 -0.2307
  149MOL0     C19576  11.801   5.359  10.053 -0.1631  0.5926 -0.1466
  149MOL0     C19577  11.931   5.332  10.108  0.0354 -0.0438  0.4480
  149MOL0     C19578  12.020   5.254  10.012 -0.8132  0.5360 -0.0967
  149MOL0     C19579  12.159   5.267  10.057  0.3523 -0.3974 -0.0599
  149MOL0    Cl19580  12.175   5.206  10.218 -0.1706  0.1204  0.3996
  149MOL0     C19581  11.306   5.942  10.043 -0.2457 -0.8634 -0.2491
  149MOL0     C19582  11.215   6.043  10.012  0.5376 -0.7245  0.6627
  149MOL0     O19583  10.925   6.096   9.982 -0.5752  0.5417 -0.6474
  149MOL0     C19584  10.875   6.452  10.028 -0.3321 -0.1819  0.0120
  149MOL0     C19585  10.785   6.560  10.020 -0.3187  0.3247 -0.4744
  149MOL0     N19586   9.887   6.784  10.013  0.1248 -0.3070  0.5581
  149MOL0     N19587   9.782   6.730   9.963  0.5960  0.7152  0.8393
  149MOL0     C19588   8.731   6.428   9.581  0.0892  0.2106  0.5334
  149MOL0     C19589   8.596   6.416   9.630 -0.8228 -0.7989  0.9797
  149MOL0     C19590   8.199   6.522   9.872 -0.0278 -0.7501 -0.2446
  149MOL0     C19591   8.130   6.416   9.816  0.5787 -1.5528  0.3591
  149MOL0     C19592   7.995   6.393   9.827  0.5637  0.4234  0.0444
  149MOL0     C19593   7.906   6.490   9.879  0.1345 -0.1470  0.4592
  149MOL0     O19594   7.772   6.460   9.879  0.8052 -0.6130 -0.1509
  149MOL0     C19595   7.672   6.567   9.899  0.1065  0.2717  1.1643
  149MOL0     C19596   7.530   6.506   9.881  1.3080 -0.4223 -0.7240
  149MOL0     C19597   7.503   6.490   9.733  1.0431 -0.4071 -0.4867
  149MOL0     C19598   7.418   6.603   9.684  0.0482  0.5138 -0.5066
  149MOL0     C19599   7.396   6.567   9.546 -0.5642  1.2141 -0.4220
  149MOL0     C19600   7.367   6.530   9.431 -0.1636  0.8688  0.8906
  149MOL0     C19601   7.973   6.609   9.933 -0.4769 -0.2601  0.2624
  149MOL0     C19602   8.116   6.625   9.929  0.3714  0.1885  0.0652
  149MOL0     H19603   8.645   6.587   9.934  1.8358  3.0761 -1.3249
  149MOL0     H19604   8.844   6.590   9.863  0.0976  0.5663 -0.0293
  149MOL0     H19605   8.889   6.555   9.422  0.0796  0.8861  1.1766
  149MOL0     H19606   9.018   6.434   9.468  1.4182 -0.0537 -0.1976
  149MOL0     H19607   9.036   6.737   9.482  2.1133 -0.7269  2.8966
  149MOL0     H19608   9.090   6.640   9.344 -0.4537  1.8018 -1.0796
  149MOL0     H19609   9.257   6.513   9.490  0.5564  0.7926  0.6048
  149MOL0     H19610   9.193   6.599   9.622 -0.0586 -1.3051 -0.0368
  149MOL0     H19611   9.353   6.717   9.391  3.6104 -0.7962  1.5436
  149MOL0     H19612   9.288   6.821   9.522 -0.7701  1.9140 -4.2815
  149MOL0     H19613   9.502   6.595   9.567  0.7415 -0.2603  3.5412
  149MOL0     H19614   9.411   6.705   9.677 -0.9634  0.5154 -0.7127
  149MOL0     H19615   9.502   6.894   9.536  0.9629  0.5153  4.8317
  149MOL0     H19616   9.593   6.762   9.453  3.2071 -0.7631  1.1538
  149MOL0     H19617   9.748   6.865   9.614 -0.2234  1.0211  0.3549
  149MOL0     H19618   9.625   6.889   9.722  2.5967  0.7971  0.6075
  149MOL0     H19619   9.709   6.605   9.656  1.2376 -2.2859  1.7523
  149MOL0     H19620   9.597   6.649   9.783 -0.9414  0.2012 -1.4785
  149MOL0     H19621   9.978   6.738   9.701  0.4259  0.5879  1.1983
  149MOL0     H19622  10.161   6.872  10.026  1.1258 -0.8400  0.6304
  149MOL0     H19623  10.156   6.927   9.868  1.3332 -0.5390 -1.3693
  149MOL0     H19624  10.220   6.719   9.771  0.4186 -0.8463 -0.4391
  149MOL0     H19625  10.201   6.640   9.936 -1.4338  2.3721  2.0528
  149MOL0     H19626  10.414   6.832   9.844  1.8425 -0.4267  0.7893
  149MOL0     H19627  10.380   6.792  10.017  0.8496 -1.5061  0.4570
  149MOL0     H19628  10.459   6.582   9.798  1.8789 -2.9213  1.3241
  149MOL0     H19629  10.402   6.549   9.945 -1.7547  0.1470  0.0265
  149MOL0     H19630  10.519   6.366   9.918 -0.3640  1.9636  0.1772
  149MOL0     H19631  10.674   6.182   9.954 -0.7866  1.0707 -0.5546
  149MOL0     H19632  11.190   6.189  10.308 -2.5789  0.2042 -0.4373
  149MOL0     H19633  11.320   6.016  10.375 -0.4658 -1.5989  0.0530
  149MOL0     H19634  11.515   5.760  10.033  0.3667 -4.7979 -0.9975
  149MOL0     H19635  11.398   5.672  10.111  1.9022 -1.3008  0.0483
  149MOL0     H19636  11.532   5.595  10.273  3.2836  0.3524  1.7197
  149MOL0     H19637  11.667   5.713  10.232 -0.0020  2.3756 -0.0902
  149MOL0     H19638  11.712   5.601  10.031 -1.9615  0.1905 -0.8202
  149MOL0     H19639  11.578   5.491  10.027 -2.8497 -1.9220  3.0950
  149MOL0     H19640  11.783   5.463  10.245  0.0895 -3.3244  0.7746
  149MOL0     H19641  11.646   5.374  10.217  2.0248 -0.3828  2.9766
  149MOL0     H19642  11.804   5.412   9.958  0.1163 -2.1148 -1.7351
  149MOL0     H19643  11.755   5.261  10.038 -4.9010  1.7373  4.0210
  149MOL0     H19644  11.933   5.274  10.200  1.0440 -0.2431  0.3074
  149MOL0     H19645  11.970   5.430  10.137 -0.2910 -0.2041  1.4563
  149MOL0     H19646  11.989   5.149  10.026  2.2094 -0.3538  0.5540
  149MOL0     H19647  12.010   5.274   9.905  0.2001 -2.1872 -0.8057
  149MOL0     H19648  12.191   5.371  10.042  0.5499 -0.4002  0.3209
  149MOL0     H19649  12.222   5.200   9.998  0.2357 -1.5493  1.0767
  149MOL0     H19650  11.344   5.879   9.963  0.1838 -1.0920  0.1304
  149MOL0     H19651  11.186   6.051   9.908 -1.5865 -1.1218  1.1627
  149MOL0     H19652  10.970   6.479  10.074 -2.0741  3.2756  2.0293
  149MOL0     H19653  10.821   6.660  10.042  1.8233 -0.2520 -1.1142
  149MOL0     H19654   8.764   6.381   9.489  0.7274 -0.8463  1.2809
  149MOL0     H19655   8.543   6.358   9.556  1.4691  1.6492 -2.9098
  149MOL0     H19656   8.198   6.342   9.773  2.6932  2.3421 -3.7867
  149MOL0     H19657   7.940   6.313   9.779 -0.8137 -0.4252  2.8685
  149MOL0     H19658   7.682   6.646   9.823  0.4601 -1.8624 -1.1172
  149MOL0     H19659   7.673   6.614   9.997 -2.9348  0.8923  1.0135
  149MOL0     H19660   7.541   6.404   9.920 -0.0818 -0.0873  0.6491
  149MOL0     H19661   7.452   6.561   9.934  2.6874  1.2421 -0.3564
  149MOL0     H19662   7.447   6.397   9.727  0.2782 -0.2353  2.4037
  149MOL0     H19663   7.595   6.475   9.676  0.7128 -3.0845 -0.4101
  149MOL0     H19664   7.329   6.596   9.748  1.6130 -1.8249  1.6530
  149MOL0     H19665   7.476   6.695   9.684 -0.4392  0.8333 -1.5378
  149MOL0     H19666   7.328   6.510   9.334  1.2682  0.4213  0.3756
  149MOL0     H19667   7.907   6.692   9.957 -0.5639  0.1098 -1.1590
  149MOL0     H19668   8.153   6.723   9.957 -3.2678  1.7566 -0.0787
  150MOL0     O19669   7.925  10.100   8.102  0.3060 -0.5226  0.2773
  150MOL0     C19670   8.028  10.085   8.174  0.2758  0.5712  0.7850
  150MOL0     O19671   8.102  10.180   8.238  0.9164 -0.5846  0.7064
  150MOL0     C19672   8.057  10.306   8.249 -0.6295  0.3066  0.4521
  150MOL0     C19673   8.135  10.406   8.193  0.2867  0.0958 -0.0389
  150MOL0     C19674   8.109  10.546   8.208  1.0987 -0.3598 -0.0756
  150MOL0     C19675   7.997  10.574   8.276  0.1609  0.4613 -0.3086
  150MOL0     O19676   7.953  10.710   8.314 -0.2273  1.1442 -0.4760
  150MOL0     C19677   8.023  10.824   8.257  0.3014  0.6417  0.8112
  150MOL0     C19678   7.934  10.948   8.264 -0.7036  0.6331  0.4830
  150MOL0     C19679   7.780  10.917   8.258  0.1702  0.7666  0.1619
  150MOL0     C19680   7.731  10.877   8.119  0.8136  0.7432 -0.3913
  150MOL0     C19681   7.583  10.830   8.146 -0.0133 -0.6306 -0.3142
  150MOL0     C19682   7.549  10.755   8.013 -0.3737 -0.3853 -0.0077
  150MOL0     C19683   7.410  10.695   8.014  0.2129  0.2380  0.3717
  150MOL0     C19684   7.395  10.577   8.106  1.5335 -0.2815 -1.0009
  150MOL0     N19685   7.264  10.520   8.099  0.1143 -0.4352  0.3308
  150MOL0     C19686   7.147  10.590   8.085  0.0339 -0.7536 -0.0781
  150MOL0     C19687   7.056  10.499   8.080  0.1532  1.1006 -0.6878
  150MOL0     C19688   6.918  10.541   8.023 -0.2566  0.3034  0.1981
  150MOL0     C19689   6.900  10.483   7.875 -0.1740 -0.5923 -0.0469
  150MOL0     C19690   6.763  10.529   7.821  0.3280  0.2990 -0.1817
  150MOL0     C19691   6.726  10.463   7.687  0.9559  0.0737  0.6378
  150MOL0     O19692   6.741  10.318   7.696 -0.9576  0.1238 -0.4921
  150MOL0     C19693   6.665  10.260   7.595 -0.1150  0.3340 -0.2795
  150MOL0     C19694   6.628  10.315   7.468 -0.2398  0.1655  0.5989
  150MOL0     C19695   6.558  10.234   7.376 -0.0776  0.0524 -0.1576
  150MOL0     C19696   6.519  10.107   7.397  0.2025 -1.0784 -0.9326
  150MOL0     C19697   6.450  10.034   7.290 -0.8358  0.4780 -0.3735
  150MOL0     O19698   6.436  10.083   7.161  0.6456 -0.0919  0.0457
  150MOL0     C19699   6.383   9.996   7.069  0.6175  0.2034 -0.0196
  150MOL0     C19700   6.385   9.848   7.072 -0.2797  0.0204  0.5639
  150MOL0     C19701   6.319   9.764   6.979 -0.0624  0.3042  0.4933
  150MOL0     C19702   6.240   9.834   6.883 -0.3720  0.1965 -0.1789
  150MOL0     O19703   6.181   9.770   6.777  0.2935 -0.4999  1.0191
  150MOL0     C19704   6.128   9.633   6.794  0.1371 -0.2215  0.2722
  150MOL0     C19705   6.066   9.597   6.655 -0.8095 -0.4948 -0.6605
  150MOL0     C19706   5.910   9.617   6.657  0.4321  0.2268  0.4045
  150MOL0     C19707   5.844   9.586   6.529  0.7762  0.1964  0.1767
  150MOL0     C19708   5.694   9.638   6.560 -0.7281 -0.8119  0.0412
  150MOL0     C19709   5.589   9.574   6.458 -0.4395 -0.0267 -0.1060
  150MOL0     C19710   5.550   9.432   6.509 -0.3894 -0.2431  0.6235
  150MOL0     C19711   5.498   9.355   6.398 -0.3455 -0.2983  0.3389
  150MOL0    Cl19712   5.460   9.192   6.455 -0.3927 -0.1314  0.2660
  150MOL0     C19713   6.249   9.975   6.868 -0.2480  0.2926  0.3823
  150MOL0     C19714   6.320  10.055   6.960  0.0665  0.1260  0.1016
  150MOL0     O19715   6.404   9.926   7.338 -0.4450 -0.5331 -0.2354
  150MOL0     C19716   6.558  10.046   7.519 -0.0512  0.3620 -0.1435
  150MOL0     C19717   6.629  10.122   7.616  0.5627 -0.0885 -0.6885
  150MOL0     N19718   7.116  10.381   8.109  0.4497  0.0687 -0.5830
  150MOL0     N19719   7.242  10.392   8.134 -0.5580 -0.1891 -0.4650
  150MOL0     C19720   7.914  10.470   8.320  0.4051 -0.1555  0.3366
  150MOL0     C19721   7.939  10.341   8.308  0.0502  0.5457  0.5352
  150MOL0     C19722   8.082   9.949   8.180 -0.9760  0.5178  0.3878
  150MOL0     C19723   8.005   9.836   8.146  0.7009  0.4950  0.2674
  150MOL0     C19724   8.050   9.702   8.165  0.7004 -0.3151  0.5378
  150MOL0     C19725   8.175   9.676   8.220 -1.3965 -0.2756 -0.3050
  150MOL0     O19726   8.238   9.554   8.226 -0.1368  0.0156 -0.9123
  150MOL0     C19727   8.178   9.479   8.342  0.3757 -0.4567  0.2476
  150MOL0     C19728   8.272   9.353   8.341  0.0773  0.2785 -0.6277
  150MOL0     C19729   8.393   9.379   8.431 -0.0985 -0.5751 -0.1490
  150MOL0     C19730   8.492   9.265   8.443  0.4200  0.3889 -0.3363
  150MOL0     C19731   8.520   9.191   8.318 -0.1979 -0.5306  0.5495
  150MOL0     C19732   8.532   9.130   8.206 -0.5940 -0.7280 -0.6340
  150MOL0     C19733   8.247   9.784   8.253  0.5616 -0.2514 -0.3770
  150MOL0     C19734   8.207   9.913   8.238 -0.3404 -0.5190 -0.9924
  150MOL0     H19735   8.220  10.373   8.134  1.5198  0.9044  1.1983
  150MOL0     H19736   8.168  10.627   8.168 -2.8321  1.8746 -1.9315
  150MOL0     H19737   8.028  10.816   8.148  2.2013  2.5873  0.6892
  150MOL0     H19738   8.126  10.837   8.290  0.2695  2.7532  0.1841
  150MOL0     H19739   7.960  11.017   8.183  2.9240 -1.0280  0.0269
  150MOL0     H19740   7.955  11.005   8.355  2.0726  0.8958 -0.2176
  150MOL0     H19741   7.727  11.012   8.269 -0.9836  0.1761 -0.1042
  150MOL0     H19742   7.753  10.844   8.335 -0.3293  0.1373 -0.5969
  150MOL0     H19743   7.740  10.952   8.039 -0.1745 -0.3864 -1.6231
  150MOL0     H19744   7.779  10.786   8.080 -0.3333  0.0207 -0.1807
  150MOL0     H19745   7.519  10.918   8.160  0.3440 -0.4266  0.0654
  150MOL0     H19746   7.584  10.752   8.222 -3.1706  0.4689  0.9956
  150MOL0     H19747   7.621  10.673   8.009  0.4930  0.2223  1.9931
  150MOL0     H19748   7.558  10.819   7.925 -1.3770  0.5725  0.5578
  150MOL0     H19749   7.339  10.770   8.052 -0.2641 -0.4197  0.8090
  150MOL0     H19750   7.394  10.679   7.907 -0.2893  0.1393  0.4559
  150MOL0     H19751   7.420  10.603   8.209 -0.2842 -4.3596  0.7110
  150MOL0     H19752   7.454  10.488   8.082 -0.6973 -2.0947 -0.1195
  150MOL0     H19753   7.129  10.696   8.073  1.4135 -0.2603  1.7781
  150MOL0     H19754   6.906  10.650   8.018 -0.1546  0.3425  0.7046
  150MOL0     H19755   6.854  10.491   8.097  2.8674 -1.1330  2.1715
  150MOL0     H19756   6.907  10.374   7.873  0.0480 -0.6700  2.1416
  150MOL0     H19757   6.986  10.516   7.816  0.3782  0.5933  1.3644
  150MOL0     H19758   6.684  10.513   7.895  1.6196  2.5081  1.8158
  150MOL0     H19759   6.774  10.637   7.811 -0.9632  0.3001 -2.3455
  150MOL0     H19760   6.794  10.499   7.609  0.5541  0.8668  0.6532
  150MOL0     H19761   6.627  10.494   7.655  1.4964  3.8793  2.1744
  150MOL0     H19762   6.656  10.416   7.437  1.6875 -0.7349 -0.7838
  150MOL0     H19763   6.525  10.292   7.290  2.6778  2.3330  0.1880
  150MOL0     H19764   6.441   9.793   7.146  0.0765 -0.2002  0.1339
  150MOL0     H19765   6.340   9.657   6.979 -0.4008  0.2290 -0.2227
  150MOL0     H19766   6.052   9.628   6.872  1.1224 -5.3370  1.2375
  150MOL0     H19767   6.209   9.568   6.829  1.4397  1.2884  0.2050
  150MOL0     H19768   6.085   9.490   6.639  1.3081 -0.1434 -0.7137
  150MOL0     H19769   6.124   9.648   6.577 -1.8531  1.2304 -0.3671
  150MOL0     H19770   5.902   9.723   6.682  1.5517  1.0007 -2.1332
  150MOL0     H19771   5.871   9.553   6.737 -4.6025 -0.5264 -2.2368
  150MOL0     H19772   5.883   9.642   6.444  0.5153  0.3901  0.1862
  150MOL0     H19773   5.847   9.476   6.524 -0.1770  0.1457  0.4464
  150MOL0     H19774   5.693   9.746   6.543  3.1208 -0.7272 -0.5401
  150MOL0     H19775   5.656   9.608   6.658 -0.0701 -2.0688 -0.0682
  150MOL0     H19776   5.639   9.579   6.361  3.7005 -0.5955  1.7629
  150MOL0     H19777   5.500   9.638   6.463 -1.4950 -1.5287  1.5201
  150MOL0     H19778   5.632   9.383   6.563 -1.1350 -2.1106  0.1438
  150MOL0     H19779   5.471   9.443   6.584  0.8125 -1.6273  2.1675
  150MOL0     H19780   5.568   9.339   6.316 -2.3371 -3.4392 -0.9391
  150MOL0     H19781   5.411   9.405   6.356 -0.9224 -2.4621 -1.2205
  150MOL0     H19782   6.212  10.008   6.771 -1.6829 -2.9486 -0.3124
  150MOL0     H19783   6.313  10.161   6.938  0.8431  0.4789  1.4204
  150MOL0     H19784   6.529   9.943   7.538 -3.0019  0.8459 -1.4229
  150MOL0     H19785   6.669  10.075   7.705 -0.3674  1.6592  0.7180
  150MOL0     H19786   7.828  10.509   8.373  0.0553  0.6901 -0.8189
  150MOL0     H19787   7.872  10.259   8.330 -1.3485  0.8269 -2.3032
  150MOL0     H19788   7.903   9.854   8.115  1.1115  3.2069  0.2113
  150MOL0     H19789   7.976   9.625   8.143 -0.4957  1.3962 -1.9029
  150MOL0     H19790   8.074   9.451   8.319  0.3616 -1.9241  1.8799
  150MOL0     H19791   8.179   9.524   8.441  0.2732  1.9602 -0.7908
  150MOL0     H19792   8.230   9.269   8.396  3.6078 -0.3316  1.4573
  150MOL0     H19793   8.302   9.324   8.240 -0.0113 -2.5522  0.0648
  150MOL0     H19794   8.344   9.398   8.527  0.9939  2.3030 -0.0659
  150MOL0     H19795   8.449   9.468   8.401 -1.6086  1.1836  1.9205
  150MOL0     H19796   8.583   9.313   8.479  0.2104  0.5384 -0.0062
  150MOL0     H19797   8.454   9.183   8.505 -0.3222 -2.0301 -3.6873
  150MOL0     H19798   8.553   9.081   8.113 -1.5091  1.4188 -2.0425
  150MOL0     H19799   8.344   9.771   8.299  0.4649  3.4018  1.2720
  150MOL0     H19800   8.277   9.979   8.288  0.2703 -2.5227  0.9624
  151MOL0     O19801   6.786   5.196   2.346  0.2422  0.3314  0.2169
  151MOL0     C19802   6.673   5.242   2.338 -0.0754 -0.9376 -0.1132
  151MOL0     O19803   6.561   5.174   2.358  0.6079 -0.4054 -0.8205
  151MOL0     C19804   6.560   5.047   2.412  0.3139  0.2124  0.4589
  151MOL0     C19805   6.430   5.003   2.432 -0.2665 -0.4036  0.1187
  151MOL0     C19806   6.387   4.900   2.514  0.6285 -0.2572  0.2971
  151MOL0     C19807   6.482   4.827   2.578 -0.1177  0.6651  0.7645
  151MOL0     O19808   6.444   4.721   2.661 -0.2077 -0.4899 -0.3031
  151MOL0     C19809   6.497   4.592   2.637  0.7307 -0.4105  0.9144
  151MOL0     C19810   6.428   4.460   2.698 -0.2315  0.5527  0.3126
  151MOL0     C19811   6.296   4.490   2.759  0.5004  1.0349  0.2663
  151MOL0     C19812   6.246   4.357   2.820 -0.3636 -0.6480  0.6159
  151MOL0     C19813   6.132   4.365   2.917  0.1883 -0.6861 -1.2829
  151MOL0     C19814   6.014   4.435   2.848  1.7273 -0.3280  0.7013
  151MOL0     C19815   5.886   4.462   2.915 -0.6428  0.5205 -0.3040
  151MOL0     C19816   5.909   4.536   3.046 -0.1478  0.3759 -0.6346
  151MOL0     N19817   5.789   4.594   3.101 -0.4765 -0.6434  0.3753
  151MOL0     C19818   5.674   4.533   3.133  0.1405  0.4137  1.0430
  151MOL0     C19819   5.588   4.629   3.149  0.4719 -0.4056  0.3340
  151MOL0     C19820   5.438   4.605   3.169  0.1522 -0.5114 -0.3646
  151MOL0     C19821   5.417   4.498   3.277 -0.7680  0.7963  0.6569
  151MOL0     C19822   5.274   4.526   3.345 -0.4976  0.5875 -0.3308
  151MOL0     C19823   5.157   4.540   3.245 -1.1574 -0.3607 -0.3050
  151MOL0     O19824   5.046   4.508   3.330 -0.2159 -0.9008  0.2873
  151MOL0     C19825   4.920   4.561   3.315 -0.6828  0.4825  0.0461
  151MOL0     C19826   4.854   4.610   3.430 -0.3791  0.1523  0.4603
  151MOL0     C19827   4.725   4.654   3.422  0.0813 -0.5309 -0.1597
  151MOL0     C19828   4.660   4.657   3.292  0.2040 -0.0015 -0.5253
  151MOL0     C19829   4.534   4.727   3.281 -0.5450 -0.0850 -0.0765
  151MOL0     O19830   4.510   4.830   3.371  1.0073 -0.3005 -0.1484
  151MOL0     C19831   4.383   4.893   3.372 -0.7578  0.2422 -0.1592
  151MOL0     C19832   4.367   5.028   3.416  0.7664  0.0195 -0.4791
  151MOL0     C19833   4.242   5.089   3.407 -0.8074 -0.8127  1.2357
  151MOL0     C19834   4.129   5.027   3.356  0.4021  0.0321  0.3177
  151MOL0     O19835   4.017   5.098   3.327 -0.3154 -0.0844 -0.3062
  151MOL0     C19836   3.935   5.087   3.226  0.0541  0.0118  0.3570
  151MOL0     C19837   3.808   5.152   3.275  0.1088  0.5033 -0.1967
  151MOL0     C19838   3.735   5.058   3.367  0.0775 -1.0168 -0.1677
  151MOL0     C19839   3.598   5.123   3.412 -0.2075  0.4682 -0.6016
  151MOL0     C19840   3.534   5.073   3.542 -0.9036 -0.6753  0.0703
  151MOL0     C19841   3.507   4.928   3.544 -0.1261 -0.9493  0.9366
  151MOL0     C19842   3.406   4.875   3.638  0.9898 -0.1890  0.4778
  151MOL0     C19843   3.444   4.722   3.658 -0.0226  0.0646  0.0183
  151MOL0    Cl19844   3.438   4.627   3.510  0.2596 -0.1150  0.1657
  151MOL0     C19845   4.141   4.889   3.329 -0.0594 -0.0185 -0.2917
  151MOL0     C19846   4.261   4.819   3.339 -0.5544  0.3789 -0.5875
  151MOL0     O19847   4.470   4.697   3.176  0.8017 -0.9728  0.0361
  151MOL0     C19848   4.720   4.602   3.184 -0.2239 -0.7807  0.1340
  151MOL0     C19849   4.854   4.554   3.190 -0.4627 -0.7644 -0.2718
  151MOL0     N19850   5.644   4.748   3.140  0.2180 -0.7973 -0.2114
  151MOL0     N19851   5.766   4.734   3.108 -0.6893  0.6829 -1.0090
  151MOL0     C19852   6.619   4.856   2.558 -0.4810  0.0213 -0.2797
  151MOL0     C19853   6.658   4.965   2.469  0.2102 -0.7663 -0.5903
  151MOL0     C19854   6.670   5.382   2.289 -0.5132  0.3815 -0.8518
  151MOL0     C19855   6.769   5.464   2.317 -0.7929  0.2300 -0.2086
  151MOL0     C19856   6.776   5.590   2.250  0.3616  0.4067  0.4012
  151MOL0     C19857   6.676   5.631   2.158 -0.1287 -0.1097 -0.4934
  151MOL0     O19858   6.686   5.742   2.078  0.0012 -0.3209  0.2764
  151MOL0     C19859   6.791   5.829   2.086  0.0994  0.0124  0.0917
  151MOL0     C19860   6.766   5.928   1.976  0.3053  0.3460  0.4430
  151MOL0     C19861   6.763   5.866   1.837  0.1362 -0.2055 -0.4103
  151MOL0     C19862   6.729   5.963   1.727  0.6042  0.1474 -0.5890
  151MOL0     C19863   6.850   6.005   1.659 -0.3206 -1.0470 -0.3862
  151MOL0     C19864   6.946   6.061   1.605  0.1761  0.5845  0.7991
  151MOL0     C19865   6.568   5.546   2.140  0.4565 -0.2943 -0.5312
  151MOL0     C19866   6.568   5.421   2.208  0.4022 -0.1412 -0.5257
  151MOL0     H19867   6.345   5.057   2.391 -3.1089 -1.8359  3.6137
  151MOL0     H19868   6.281   4.880   2.524  0.6777  0.5660  3.3391
  151MOL0     H19869   6.595   4.592   2.687  0.8038 -0.0945  0.7731
  151MOL0     H19870   6.490   4.572   2.530 -0.2971 -2.3781  1.2944
  151MOL0     H19871   6.497   4.423   2.775  1.0559 -3.0016 -2.2972
  151MOL0     H19872   6.422   4.381   2.624  1.3705 -0.0785  0.8045
  151MOL0     H19873   6.230   4.539   2.687  0.3611 -0.2518 -0.5270
  151MOL0     H19874   6.320   4.557   2.842  2.1256  1.0228 -0.1722
  151MOL0     H19875   6.227   4.296   2.731  1.3149  0.0083 -0.2329
  151MOL0     H19876   6.325   4.303   2.874  0.5068 -1.3646 -1.2925
  151MOL0     H19877   6.157   4.410   3.013 -4.4132 -0.9822  0.2893
  151MOL0     H19878   6.106   4.268   2.959 -0.3385  0.6722  1.7770
  151MOL0     H19879   5.993   4.375   2.759  3.2680 -2.1714  1.5116
  151MOL0     H19880   6.044   4.535   2.813  0.6476 -0.1179  0.3450
  151MOL0     H19881   5.820   4.516   2.847  1.5655  2.7479 -0.8228
  151MOL0     H19882   5.848   4.361   2.933  3.4925 -1.3757 -1.1076
  151MOL0     H19883   5.994   4.604   3.032  0.6886 -0.7613 -1.2195
  151MOL0     H19884   5.940   4.463   3.122  1.1416  0.3193 -1.1830
  151MOL0     H19885   5.656   4.426   3.125 -2.9819  0.9529 -3.4681
  151MOL0     H19886   5.393   4.565   3.078  1.5703 -3.2401  0.0139
  151MOL0     H19887   5.389   4.700   3.190 -0.0523 -0.7946  0.4578
  151MOL0     H19888   5.492   4.511   3.356 -1.5048 -0.7405  1.6617
  151MOL0     H19889   5.425   4.404   3.224  3.1876  2.0278 -1.2676
  151MOL0     H19890   5.242   4.446   3.412 -2.1195  0.5448 -1.1052
  151MOL0     H19891   5.288   4.619   3.402  0.5945  0.7820 -0.8780
  151MOL0     H19892   5.165   4.476   3.156  0.0809  0.1365 -0.5705
  151MOL0     H19893   5.145   4.640   3.204 -0.1475 -0.3955 -0.7323
  151MOL0     H19894   4.918   4.620   3.518  2.1694 -0.9355 -1.1601
  151MOL0     H19895   4.665   4.694   3.503 -0.7289  0.0344 -1.0206
  151MOL0     H19896   4.449   5.081   3.464 -0.5151  0.9553  0.7212
  151MOL0     H19897   4.224   5.193   3.432  2.0730  0.1445 -0.1917
  151MOL0     H19898   3.915   4.985   3.191  0.6543  1.3270 -4.5639
  151MOL0     H19899   3.974   5.149   3.144  1.2519 -1.5076 -0.2754
  151MOL0     H19900   3.749   5.150   3.183  1.2090  2.8847 -1.0535
  151MOL0     H19901   3.826   5.255   3.306 -1.8418  0.2326  2.1350
  151MOL0     H19902   3.788   5.040   3.461 -0.2805  3.0250  1.0038
  151MOL0     H19903   3.707   4.970   3.309 -3.4887  0.3030 -0.6954
  151MOL0     H19904   3.624   5.229   3.425 -0.0862  0.2321  1.3925
  151MOL0     H19905   3.529   5.115   3.328  0.7595  1.5972 -1.5449
  151MOL0     H19906   3.445   5.134   3.558 -0.5938 -0.2320  0.1292
  151MOL0     H19907   3.604   5.099   3.622  2.2988  0.8009 -2.9471
  151MOL0     H19908   3.601   4.876   3.566  1.4009 -0.5346 -3.4768
  151MOL0     H19909   3.478   4.901   3.442  2.8015  0.6893 -0.4658
  151MOL0     H19910   3.408   4.925   3.735  0.1967  2.0459 -0.5798
  151MOL0     H19911   3.302   4.883   3.603  0.4305  0.1170  2.1263
  151MOL0     H19912   3.368   4.674   3.720 -1.2983 -3.8889 -4.0352
  151MOL0     H19913   3.543   4.706   3.700  0.1457 -0.4447 -0.5546
  151MOL0     H19914   4.051   4.841   3.292 -1.7983  3.6840 -1.3771
  151MOL0     H19915   4.267   4.722   3.290 -0.3556  0.4152 -0.6354
  151MOL0     H19916   4.665   4.596   3.091  1.9197 -0.3659 -1.2323
  151MOL0     H19917   4.901   4.511   3.102  0.0257  0.9407 -0.8929
  151MOL0     H19918   6.697   4.804   2.612  0.0103 -0.3077 -1.2933
  151MOL0     H19919   6.761   4.999   2.462 -0.2354  1.7536  2.5985
  151MOL0     H19920   6.850   5.441   2.385  1.5167  0.8843 -2.5922
  151MOL0     H19921   6.864   5.653   2.255 -0.2063  1.1679  1.1769
  151MOL0     H19922   6.891   5.783   2.085  0.6191  1.1120 -0.4075
  151MOL0     H19923   6.791   5.882   2.182  1.2520  2.6722 -1.2573
  151MOL0     H19924   6.677   5.984   2.006 -2.1934 -2.3040 -1.5240
  151MOL0     H19925   6.850   5.999   1.974 -1.8387  3.0508  0.9155
  151MOL0     H19926   6.700   5.776   1.844  1.8613 -1.3212  2.4399
  151MOL0     H19927   6.858   5.813   1.828  0.4137  0.1491  0.3780
  151MOL0     H19928   6.660   5.910   1.661 -0.9810  1.6488 -0.2070
  151MOL0     H19929   6.685   6.055   1.767  0.0887 -0.5725  0.5608
  151MOL0     H19930   7.025   6.117   1.558 -1.8042  2.8472 -0.0001
  151MOL0     H19931   6.497   5.569   2.061 -0.6912 -1.6032  0.0718
  151MOL0     H19932   6.486   5.354   2.185  1.6927 -2.3141  0.8599
  152MOL0     O19933   6.966   1.351   7.358 -0.4172  0.0125 -0.2018
  152MOL0     C19934   7.049   1.265   7.386 -0.0426 -0.7689 -0.1331
  152MOL0     O19935   7.095   1.160   7.307 -0.0841  0.3114 -0.4199
  152MOL0     C19936   7.068   1.164   7.172 -0.4906 -0.1574  0.6758
  152MOL0     C19937   7.039   1.039   7.106 -1.0256 -0.1805  0.4622
  152MOL0     C19938   7.008   1.042   6.972 -0.5293 -0.3744 -0.1563
  152MOL0     C19939   7.000   1.155   6.893 -0.6993  0.7635  0.5204
  152MOL0     O19940   6.957   1.151   6.763  0.0695 -0.1645  0.1592
  152MOL0     C19941   7.024   1.075   6.667  1.1460  0.1312 -0.6505
  152MOL0     C19942   6.956   1.107   6.534  0.8446 -0.3512 -0.6775
  152MOL0     C19943   6.817   1.046   6.523 -0.7722 -0.3469  0.1249
  152MOL0     C19944   6.800   0.894   6.530 -0.4326  0.3387  0.7473
  152MOL0     C19945   6.653   0.855   6.484  0.1200 -0.7345 -0.6711
  152MOL0     C19946   6.544   0.921   6.568  0.6277  0.3909  0.7108
  152MOL0     C19947   6.549   0.878   6.708  0.2965  0.1954 -0.1934
  152MOL0     C19948   6.429   0.908   6.787  0.3311 -1.0029 -0.8675
  152MOL0     N19949   6.412   0.860   6.924 -0.2683 -0.4179  0.8690
  152MOL0     C19950   6.444   0.927   7.041 -1.0783 -0.0512 -0.2185
  152MOL0     C19951   6.377   0.858   7.136  0.3907 -0.0111 -0.9474
  152MOL0     C19952   6.363   0.880   7.290 -0.8220 -0.0606  0.6368
  152MOL0     C19953   6.215   0.913   7.321 -0.1532 -0.1032  0.8315
  152MOL0     C19954   6.208   0.922   7.478  0.5833  0.2453  0.5712
  152MOL0     C19955   6.319   1.001   7.544  1.0435  0.0796  0.2839
  152MOL0     O19956   6.275   1.047   7.673 -0.3009  0.2037  0.4061
  152MOL0     C19957   6.275   0.954   7.777 -0.4525  0.1605 -0.4051
  152MOL0     C19958   6.335   0.835   7.789  0.1945 -0.2684  0.3273
  152MOL0     C19959   6.324   0.745   7.897  0.7812  0.1871  0.4525
  152MOL0     C19960   6.244   0.788   8.002  0.1206 -0.3557  0.1657
  152MOL0     C19961   6.222   0.713   8.127 -0.5772 -0.1581  0.3990
  152MOL0     O19962   6.322   0.632   8.163 -0.5470  0.0453 -0.3723
  152MOL0     C19963   6.326   0.586   8.290  0.1171  0.8280 -0.6078
  152MOL0     C19964   6.345   0.446   8.304  1.2310  0.3845 -0.1279
  152MOL0     C19965   6.350   0.394   8.432 -0.5518  0.2176  0.6475
  152MOL0     C19966   6.353   0.477   8.546 -0.2128 -0.0169  0.8845
  152MOL0     O19967   6.373   0.405   8.665 -0.5832 -0.5440  0.5033
  152MOL0     C19968   6.295   0.431   8.777  0.0154  0.8536  0.2086
  152MOL0     C19969   6.388   0.482   8.898  0.8288  0.1981 -0.4791
  152MOL0     C19970   6.499   0.381   8.924 -0.1551 -0.1125 -0.1610
  152MOL0     C19971   6.587   0.402   9.050  0.3238 -0.1542 -0.0177
  152MOL0     C19972   6.690   0.283   9.053  0.2510 -0.2572  0.6162
  152MOL0     C19973   6.776   0.292   9.182 -0.9867 -0.7572  0.2529
  152MOL0     C19974   6.876   0.178   9.188 -0.9502 -0.0751  0.2284
  152MOL0     C19975   6.939   0.147   9.331 -0.3318 -0.0573 -0.4084
  152MOL0    Cl19976   6.989   0.305   9.403  0.1090  0.4500 -0.0268
  152MOL0     C19977   6.335   0.612   8.532  0.5266 -0.5955 -0.1459
  152MOL0     C19978   6.328   0.669   8.410  0.4243 -0.0652  0.8017
  152MOL0     O19979   6.116   0.730   8.178  0.0054 -0.4500 -0.5665
  152MOL0     C19980   6.184   0.917   8.000 -0.0955 -0.0308  0.1391
  152MOL0     C19981   6.208   0.998   7.896  0.0943  0.4010  0.3588
  152MOL0     N19982   6.338   0.740   7.080  0.2439  0.4980 -0.5256
  152MOL0     N19983   6.368   0.738   6.951  0.4027 -0.7344 -0.0217
  152MOL0     C19984   7.013   1.281   6.953 -0.9178 -0.0510 -0.3610
  152MOL0     C19985   7.050   1.284   7.092 -0.0429 -0.3736  0.5261
  152MOL0     C19986   7.064   1.250   7.537 -0.4625  0.3103  0.6683
  152MOL0     C19987   6.989   1.324   7.623  0.7898 -0.1657 -0.2960
  152MOL0     C19988   7.010   1.306   7.753 -0.5115  0.4823 -0.6333
  152MOL0     C19989   7.098   1.214   7.806 -0.0423  1.3667 -1.2334
  152MOL0     O19990   7.125   1.199   7.938 -0.1235 -0.0382 -0.8116
  152MOL0     C19991   7.035   1.260   8.035  0.4614  0.2013  0.6570
  152MOL0     C19992   7.071   1.260   8.185 -0.3411  0.4258  0.0154
  152MOL0     C19993   7.133   1.128   8.234  0.3392  0.3818 -0.5069
  152MOL0     C19994   7.051   0.998   8.216 -0.8771 -0.5775  0.6999
  152MOL0     C19995   7.130   0.885   8.264  0.4624  0.0355  1.1864
  152MOL0     C19996   7.181   0.777   8.298  0.1887  0.7401 -0.6419
  152MOL0     C19997   7.170   1.134   7.722 -0.7305  1.0744  0.3368
  152MOL0     C19998   7.151   1.156   7.585 -0.3589  0.4142 -0.5170
  152MOL0     H19999   7.053   0.942   7.154 -0.5263 -0.3825 -0.0805
  152MOL0     H20000   6.998   0.944   6.928  1.7634 -0.9067  0.3550
  152MOL0     H20001   7.020   0.972   6.702 -2.0488  0.1238 -0.7200
  152MOL0     H20002   7.130   1.098   6.655  2.0735 -2.5720  1.2931
  152MOL0     H20003   7.023   1.064   6.459  1.0998 -3.8597  1.3502
  152MOL0     H20004   6.952   1.216   6.525  0.2366 -0.4764 -2.1070
  152MOL0     H20005   6.775   1.082   6.429  1.4270 -1.1152 -1.2375
  152MOL0     H20006   6.758   1.089   6.605  1.1924  0.1285  1.3606
  152MOL0     H20007   6.876   0.850   6.466  1.0542  1.4502  1.6771
  152MOL0     H20008   6.808   0.861   6.634 -0.8315  1.2689  1.0898
  152MOL0     H20009   6.648   0.746   6.496  4.1475 -0.8392  2.0943
  152MOL0     H20010   6.633   0.863   6.377  0.1967  0.5714 -0.6093
  152MOL0     H20011   6.447   0.886   6.534  0.4798 -2.0421  3.3698
  152MOL0     H20012   6.536   1.028   6.546 -2.3135  0.1520  0.2262
  152MOL0     H20013   6.563   0.770   6.718 -2.2761 -0.2155 -0.4860
  152MOL0     H20014   6.639   0.915   6.759  0.8004 -3.4093  1.8644
  152MOL0     H20015   6.344   0.873   6.728 -0.4023  3.6745 -3.0751
  152MOL0     H20016   6.423   1.014   6.812 -0.9306 -0.7417 -2.1102
  152MOL0     H20017   6.500   1.015   7.071 -1.7930 -0.4057  2.3892
  152MOL0     H20018   6.433   0.961   7.314 -1.2206  0.2595  0.7297
  152MOL0     H20019   6.402   0.789   7.335  1.8664  1.5566  1.8234
  152MOL0     H20020   6.158   0.829   7.280 -0.1579  0.1892  0.2181
  152MOL0     H20021   6.188   1.009   7.276 -0.2204  0.2731  1.6559
  152MOL0     H20022   6.117   0.971   7.513 -0.8773  0.5638 -3.2051
  152MOL0     H20023   6.205   0.819   7.515  1.3496 -0.6057 -1.5200
  152MOL0     H20024   6.347   1.092   7.490 -0.4747 -0.8830 -2.3113
  152MOL0     H20025   6.419   0.957   7.558  2.1022  2.2648  0.0319
  152MOL0     H20026   6.380   0.792   7.700 -1.4187 -0.8720 -0.2428
  152MOL0     H20027   6.368   0.646   7.901  3.1689  1.0516 -1.8055
  152MOL0     H20028   6.337   0.372   8.226 -0.6115  2.7017 -2.3391
  152MOL0     H20029   6.356   0.286   8.441 -0.4700  0.2735  1.3170
  152MOL0     H20030   6.239   0.341   8.805 -2.8029  2.9208  1.6921
  152MOL0     H20031   6.218   0.506   8.756 -2.0839 -1.4035 -0.5719
  152MOL0     H20032   6.321   0.497   8.983 -3.3975 -2.7540 -2.8606
  152MOL0     H20033   6.441   0.575   8.877 -0.6110  1.9169  2.7936
  152MOL0     H20034   6.563   0.362   8.838 -0.8075 -2.2883 -0.2268
  152MOL0     H20035   6.442   0.289   8.937 -4.4982  1.9982 -2.1297
  152MOL0     H20036   6.647   0.494   9.052  0.8439 -0.4462  2.9286
  152MOL0     H20037   6.521   0.388   9.136 -1.3636 -2.9847 -1.6230
  152MOL0     H20038   6.752   0.307   8.965 -1.5104  1.8634 -0.1365
  152MOL0     H20039   6.653   0.181   9.062  0.9032 -0.3070  3.8301
  152MOL0     H20040   6.707   0.296   9.267 -2.7515 -2.5891 -0.9992
  152MOL0     H20041   6.834   0.385   9.182  0.9959 -1.8951 -1.4855
  152MOL0     H20042   6.836   0.082   9.154  0.3152 -0.2843 -0.7249
  152MOL0     H20043   6.960   0.209   9.126 -2.0467 -0.5965 -1.5871
  152MOL0     H20044   7.024   0.078   9.325 -0.5253 -0.8410  3.3686
  152MOL0     H20045   6.863   0.086   9.379  0.1631 -0.8960 -0.6612
  152MOL0     H20046   6.353   0.678   8.616 -0.1626 -0.5320 -0.0413
  152MOL0     H20047   6.325   0.776   8.389 -0.5453 -0.5972 -2.3077
  152MOL0     H20048   6.129   0.959   8.084 -0.5984  0.1429 -0.2713
  152MOL0     H20049   6.168   1.099   7.893  1.3058  0.8813 -0.1500
  152MOL0     H20050   7.017   1.373   6.894  0.0526 -1.0830 -1.9729
  152MOL0     H20051   7.068   1.382   7.136  0.1598 -0.9247  1.7108
  152MOL0     H20052   6.910   1.383   7.578 -0.0892 -0.7378  0.4606
  152MOL0     H20053   6.951   1.365   7.823 -2.8326 -1.8198 -0.4971
  152MOL0     H20054   6.944   1.201   8.029 -1.1881  2.5808  0.6885
  152MOL0     H20055   6.987   1.357   8.017 -1.5230 -0.7685  0.5458
  152MOL0     H20056   7.145   1.337   8.207  0.9807 -0.3738 -1.4336
  152MOL0     H20057   6.978   1.277   8.240 -0.2193  2.7369 -0.4060
  152MOL0     H20058   7.154   1.132   8.342 -2.1037 -1.1127  0.1082
  152MOL0     H20059   7.228   1.118   8.181  2.4409  0.6868  2.8777
  152MOL0     H20060   6.951   1.011   8.259 -2.4198  0.9434 -2.9752
  152MOL0     H20061   7.025   1.000   8.110 -1.4474 -0.2122  0.8343
  152MOL0     H20062   7.232   0.691   8.336 -1.7264  0.3734  1.3533
  152MOL0     H20063   7.243   1.065   7.762  0.6370  0.6712 -2.5905
  152MOL0     H20064   7.216   1.098   7.520  1.4897  0.5836  1.0968
  153MOL0     O20065   2.734   1.316   2.666 -0.4283  0.0280  0.4376
  153MOL0     C20066   2.817   1.277   2.581 -0.2438  0.5625  0.5210
  153MOL0     O20067   2.887   1.359   2.502 -0.6609 -0.1113 -0.2721
  153MOL0     C20068   2.879   1.493   2.489  0.5243  0.5964  0.0884
  153MOL0     C20069   2.757   1.565   2.513  0.1897 -0.4490  0.5060
  153MOL0     C20070   2.753   1.700   2.489  0.0526  0.7240  0.2948
  153MOL0     C20071   2.866   1.776   2.455  1.3243  0.7544  0.5659
  153MOL0     O20072   2.849   1.911   2.433 -1.0715  0.3042  0.0513
  153MOL0     C20073   2.952   1.987   2.375  0.2074  0.6154 -1.1330
  153MOL0     C20074   2.917   2.130   2.360 -0.5440  0.0344  0.7088
  153MOL0     C20075   3.004   2.211   2.268 -0.3737  0.5734  0.4324
  153MOL0     C20076   2.988   2.361   2.268 -0.2010 -0.4825 -0.4862
  153MOL0     C20077   3.033   2.430   2.134 -1.1986  0.1812  0.1455
  153MOL0     C20078   3.032   2.577   2.139  0.8048  0.2093  0.1354
  153MOL0     C20079   3.062   2.636   1.997 -0.4116 -0.1725 -0.4630
  153MOL0     C20080   3.065   2.784   2.010 -0.1048  0.3251 -1.0736
  153MOL0     N20081   3.069   2.854   1.883  0.9810  0.4532 -0.0555
  153MOL0     C20082   2.961   2.866   1.798 -0.4502  0.0354  0.7048
  153MOL0     C20083   3.012   2.908   1.683 -0.1006 -1.2267  0.4048
  153MOL0     C20084   2.935   2.930   1.557  0.2511  0.1205 -1.0041
  153MOL0     C20085   2.850   3.055   1.565  0.0277  0.0042 -0.3594
  153MOL0     C20086   2.922   3.174   1.626  0.2747  0.1026  0.6788
  153MOL0     C20087   2.823   3.297   1.623 -0.3969  0.4525 -0.0058
  153MOL0     O20088   2.715   3.273   1.720  0.8908  0.2407  0.5270
  153MOL0     C20089   2.629   3.377   1.761 -0.6910 -0.3880  0.0615
  153MOL0     C20090   2.602   3.388   1.897  0.8165 -0.2245  0.5182
  153MOL0     C20091   2.532   3.495   1.946 -0.3783 -0.5827 -1.0857
  153MOL0     C20092   2.497   3.599   1.864  0.1308 -0.0139 -0.4842
  153MOL0     C20093   2.402   3.709   1.905  0.1249 -0.3389  0.0074
  153MOL0     O20094   2.374   3.814   1.816  0.3021  0.2931  0.4787
  153MOL0     C20095   2.319   3.927   1.868 -0.6735 -0.6742  0.5405
  153MOL0     C20096   2.364   3.979   2.000 -0.6578 -0.6328  0.9873
  153MOL0     C20097   2.310   4.102   2.042 -0.4039 -0.4584  0.8163
  153MOL0     C20098   2.211   4.166   1.973  0.0289 -1.1627 -0.8373
  153MOL0     O20099   2.147   4.288   2.006  0.2707 -0.5709 -0.3738
  153MOL0     C20100   2.213   4.379   2.095 -0.3205  0.2812  0.8747
  153MOL0     C20101   2.117   4.492   2.116 -0.4481 -0.4350 -0.3090
  153MOL0     C20102   2.185   4.626   2.146 -0.4234 -0.1937 -0.8018
  153MOL0     C20103   2.101   4.730   2.224  0.4363 -0.0466  0.7911
  153MOL0     C20104   2.149   4.874   2.183  0.1785 -0.4772  0.1643
  153MOL0     C20105   2.298   4.888   2.209  0.3752  0.1227 -0.9403
  153MOL0     C20106   2.331   4.884   2.360  0.3887  0.3945 -0.3310
  153MOL0     C20107   2.483   4.869   2.380  0.1938  0.8020  0.7176
  153MOL0    Cl20108   2.531   4.699   2.348  0.3723  0.1320 -0.5026
  153MOL0     C20109   2.159   4.109   1.858 -1.3118  0.5143  0.4267
  153MOL0     C20110   2.219   3.993   1.797 -0.1280 -0.1671  0.4386
  153MOL0     O20111   2.343   3.699   2.011  0.1926 -0.2093  0.3279
  153MOL0     C20112   2.536   3.595   1.726  0.5284  0.5870  0.7158
  153MOL0     C20113   2.597   3.485   1.675 -0.4221  0.1271 -0.3568
  153MOL0     N20114   3.144   2.918   1.697 -0.3637  0.2315 -0.5427
  153MOL0     N20115   3.179   2.899   1.823  0.1199  0.6658 -0.1215
  153MOL0     C20116   2.992   1.706   2.445  0.6876  0.1512 -0.0315
  153MOL0     C20117   3.000   1.563   2.462  0.0686 -0.2590  0.1624
  153MOL0     C20118   2.846   1.134   2.571  0.4495  0.6419  0.1805
  153MOL0     C20119   2.808   1.046   2.676  0.2583 -0.1026  0.0256
  153MOL0     C20120   2.857   0.914   2.672  0.4534  0.3001 -0.3349
  153MOL0     C20121   2.914   0.851   2.560 -0.0971 -0.3702 -1.3399
  153MOL0     O20122   2.944   0.721   2.540 -0.6795 -0.5882  0.6347
  153MOL0     C20123   2.910   0.629   2.645  0.2404  0.1660  0.5552
  153MOL0     C20124   2.995   0.628   2.772  1.3532 -0.8128 -0.3626
  153MOL0     C20125   3.135   0.558   2.756  0.2617 -0.7061 -0.4758
  153MOL0     C20126   3.230   0.639   2.665  0.2779 -0.4466 -0.1234
  153MOL0     C20127   3.363   0.578   2.679 -0.3279 -0.6003  0.2472
  153MOL0     C20128   3.479   0.543   2.695  0.3644  0.6565  0.9513
  153MOL0     C20129   2.933   0.936   2.449  0.3237  0.3983 -0.7429
  153MOL0     C20130   2.909   1.076   2.458 -0.5264 -0.1738  0.4239
  153MOL0     H20131   2.670   1.517   2.557  0.4789 -0.0357  1.5809
  153MOL0     H20132   2.661   1.755   2.508  0.7675  1.4990  1.6462
  153MOL0     H20133   2.972   1.933   2.282  0.6588 -1.2801  0.0119
  153MOL0     H20134   3.042   1.976   2.436 -1.4368 -0.6054  1.2568
  153MOL0     H20135   2.908   2.169   2.461 -1.6433  1.1523  0.2095
  153MOL0     H20136   2.821   2.136   2.308 -0.4820 -2.2353  0.2306
  153MOL0     H20137   2.979   2.179   2.167  0.0559 -1.8298  1.0231
  153MOL0     H20138   3.107   2.178   2.291 -0.4609 -0.1236 -0.1396
  153MOL0     H20139   2.886   2.396   2.285  0.3914  0.8020  0.6250
  153MOL0     H20140   3.041   2.396   2.357  0.2369 -2.7661  0.2125
  153MOL0     H20141   2.976   2.394   2.048 -2.7358  0.1826  1.1320
  153MOL0     H20142   3.138   2.399   2.126 -0.4855  1.9876  1.7985
  153MOL0     H20143   3.099   2.627   2.209  0.3323  0.1559  0.6393
  153MOL0     H20144   2.929   2.610   2.160 -0.9305 -3.2366 -1.9667
  153MOL0     H20145   3.164   2.609   1.967  0.2417  1.8983 -0.2282
  153MOL0     H20146   2.986   2.610   1.922 -0.7556 -2.3606  0.5798
  153MOL0     H20147   3.143   2.819   2.079 -2.0025 -2.0917  2.6403
  153MOL0     H20148   2.970   2.817   2.053 -0.1700  0.5434 -1.3862
  153MOL0     H20149   2.855   2.848   1.813 -0.2914 -0.0525  1.7361
  153MOL0     H20150   2.875   2.838   1.547  2.6892 -2.0558  2.1410
  153MOL0     H20151   3.006   2.931   1.474  1.3092 -0.9015 -0.1429
  153MOL0     H20152   2.762   3.033   1.624  0.3631  0.2083  0.2208
  153MOL0     H20153   2.812   3.081   1.465 -0.2877 -0.2542 -0.3067
  153MOL0     H20154   2.939   3.162   1.734 -2.3434 -0.6660  1.0826
  153MOL0     H20155   3.007   3.178   1.558 -0.7772 -0.1339 -0.6832
  153MOL0     H20156   2.789   3.298   1.519  1.9309  1.0392 -0.8280
  153MOL0     H20157   2.871   3.392   1.646 -0.9578  0.7631 -0.1131
  153MOL0     H20158   2.638   3.309   1.962  1.9324 -1.2260 -1.2369
  153MOL0     H20159   2.488   3.496   2.045  0.2186  1.3978 -0.7928
  153MOL0     H20160   2.424   3.925   2.072 -0.5722 -0.5173  1.0031
  153MOL0     H20161   2.365   4.137   2.129  3.1792 -5.3286  0.8957
  153MOL0     H20162   2.306   4.415   2.051 -1.2911  4.0672  1.5269
  153MOL0     H20163   2.235   4.325   2.187  1.1727 -1.6828 -0.5659
  153MOL0     H20164   2.053   4.461   2.199 -2.8004 -3.3665 -2.9229
  153MOL0     H20165   2.056   4.504   2.025 -0.4295  3.5044  0.0131
  153MOL0     H20166   2.211   4.659   2.045 -4.6713 -1.8447 -2.6685
  153MOL0     H20167   2.274   4.608   2.208 -0.1135  0.4350 -1.0554
  153MOL0     H20168   1.995   4.711   2.205  0.1555  2.2274 -0.2458
  153MOL0     H20169   2.120   4.716   2.331  0.7622 -2.0252  0.5178
  153MOL0     H20170   2.095   4.951   2.239 -1.7534 -1.9327  0.4042
  153MOL0     H20171   2.126   4.899   2.079  0.0116 -1.3896 -0.0247
  153MOL0     H20172   2.331   4.986   2.173  0.5287  0.4017 -0.0681
  153MOL0     H20173   2.366   4.819   2.158 -0.8261 -0.0251 -2.3961
  153MOL0     H20174   2.293   4.978   2.403 -1.2764 -0.5731  0.3915
  153MOL0     H20175   2.286   4.797   2.407  1.1100 -0.6242 -1.4871
  153MOL0     H20176   2.502   4.902   2.483 -3.3705 -1.0429  2.1701
  153MOL0     H20177   2.516   4.940   2.305 -1.9755 -0.2051 -1.3059
  153MOL0     H20178   2.076   4.155   1.805  0.5860  1.0102 -2.3105
  153MOL0     H20179   2.184   3.947   1.705 -1.1055 -0.0387  0.7373
  153MOL0     H20180   2.514   3.665   1.646 -2.5223  0.5529  1.4191
  153MOL0     H20181   2.606   3.496   1.567 -4.5085  0.6131 -0.8042
  153MOL0     H20182   3.084   1.760   2.426  0.7248 -1.2135 -5.2518
  153MOL0     H20183   3.098   1.517   2.460 -0.3974 -1.3437  1.1983
  153MOL0     H20184   2.768   1.092   2.766  0.6723  1.0594 -0.3663
  153MOL0     H20185   2.849   0.855   2.763 -0.8760  3.9295  2.1144
  153MOL0     H20186   2.892   0.532   2.597 -1.1766 -0.1437  1.6370
  153MOL0     H20187   2.810   0.641   2.688  0.4460 -0.6551  1.3043
  153MOL0     H20188   3.014   0.724   2.821  1.2941 -0.1134 -1.6619
  153MOL0     H20189   2.945   0.558   2.840 -0.8825 -1.7598 -2.7991
  153MOL0     H20190   3.119   0.461   2.709  0.3068 -0.4704 -0.9973
  153MOL0     H20191   3.174   0.540   2.856 -3.7016  0.1338  1.3954
  153MOL0     H20192   3.177   0.643   2.570 -2.1051 -3.0079  0.9389
  153MOL0     H20193   3.242   0.745   2.689 -1.4455  0.1939 -1.8628
  153MOL0     H20194   3.582   0.519   2.705  1.4812  2.0304 -4.1895
  153MOL0     H20195   2.978   0.888   2.363  1.7243  3.4913 -1.8810
  153MOL0     H20196   2.926   1.128   2.364 -1.0949  2.3323  1.6144
  154MOL0     O20197   4.042   4.705  11.372  0.3097  0.2977 -0.9367
  154MOL0     C20198   4.143   4.658  11.414 -0.2103 -0.8354 -0.2046
  154MOL0     O20199   4.268   4.720  11.393 -0.5742 -0.4584  0.4043
  154MOL0     C20200   4.281   4.776  11.275 -0.5341 -0.6503 -0.0985
  154MOL0     C20201   4.292   4.918  11.258 -0.1373  0.1106  0.4304
  154MOL0     C20202   4.306   4.967  11.135  0.5194 -0.1776  0.6215
  154MOL0     C20203   4.303   4.886  11.018  0.0289  0.4539 -0.4397
  154MOL0     O20204   4.304   4.947  10.896  0.3161 -0.4916 -0.6845
  154MOL0     C20205   4.343   4.865  10.776 -0.6855  0.1794  0.9119
  154MOL0     C20206   4.324   4.924  10.644  0.8368 -0.3777  0.7367
  154MOL0     C20207   4.185   4.995  10.608 -1.0009 -0.4212 -0.6399
  154MOL0     C20208   4.189   5.148  10.619 -0.8970  0.3536  0.3717
  154MOL0     C20209   4.198   5.201  10.767 -1.1679  0.1975 -0.4357
  154MOL0     C20210   4.186   5.358  10.770 -0.6885 -0.5901 -0.6153
  154MOL0     C20211   4.065   5.422  10.705  0.7998  0.3472  0.9118
  154MOL0     C20212   4.037   5.550  10.783 -0.8745 -0.5305 -0.5255
  154MOL0     N20213   3.912   5.611  10.729 -0.1316 -0.0810  0.0657
  154MOL0     C20214   3.892   5.671  10.610 -0.3604  0.2035 -0.3494
  154MOL0     C20215   3.768   5.724  10.600 -0.8736 -0.2300 -1.0528
  154MOL0     C20216   3.712   5.796  10.488  0.1382 -0.0295  0.2256
  154MOL0     C20217   3.670   5.933  10.527  0.2050  0.9541 -0.2855
  154MOL0     C20218   3.633   6.011  10.396 -0.1902  0.5390  0.5217
  154MOL0     C20219   3.619   6.163  10.433 -0.0311 -0.0202 -1.1226
  154MOL0     O20220   3.480   6.208  10.424 -0.7887 -0.0376 -0.8098
  154MOL0     C20221   3.421   6.202  10.300 -0.1333 -0.7995  0.5396
  154MOL0     C20222   3.487   6.181  10.185 -0.5745 -0.1266  0.5961
  154MOL0     C20223   3.420   6.200  10.064 -0.0586  0.2855  0.3436
  154MOL0     C20224   3.295   6.252  10.064 -0.3558 -0.2830  0.8406
  154MOL0     C20225   3.225   6.278   9.932  0.9805 -0.5102 -0.2839
  154MOL0     O20226   3.093   6.313   9.931  0.8871  0.5657  0.0824
  154MOL0     C20227   3.022   6.326   9.813  0.4857  0.7766 -0.0491
  154MOL0     C20228   2.915   6.413   9.831 -0.3440 -0.5979  0.4661
  154MOL0     C20229   2.821   6.427   9.732  0.3768 -0.1376  0.9850
  154MOL0     C20230   2.833   6.369   9.604 -0.2120 -0.8344 -1.1850
  154MOL0     O20231   2.756   6.388   9.496  0.5147  0.8387  0.1763
  154MOL0     C20232   2.688   6.510   9.478 -0.4204 -0.3581 -0.1272
  154MOL0     C20233   2.615   6.495   9.349  0.3905 -0.3256 -0.3459
  154MOL0     C20234   2.715   6.491   9.237 -0.1499  0.4485  1.3200
  154MOL0     C20235   2.642   6.503   9.106 -1.0461 -0.5093  0.3539
  154MOL0     C20236   2.722   6.448   8.988  0.1649 -0.4273 -0.7739
  154MOL0     C20237   2.653   6.469   8.857  0.3609  0.2268  0.6297
  154MOL0     C20238   2.726   6.409   8.741  0.9052  0.9490 -0.8268
  154MOL0     C20239   2.667   6.463   8.613 -0.4159 -0.4896  0.2400
  154MOL0    Cl20240   2.506   6.383   8.590 -0.2115 -0.0891 -0.3397
  154MOL0     C20241   2.942   6.284   9.583 -1.1936 -0.0244 -0.9445
  154MOL0     C20242   3.041   6.265   9.686  0.6480  0.1705 -0.5042
  154MOL0     O20243   3.296   6.272   9.831 -0.0992 -0.2329 -0.1928
  154MOL0     C20244   3.216   6.268  10.185 -0.0509 -0.5554  0.1851
  154MOL0     C20245   3.291   6.251  10.298 -1.0795  0.2298  0.7673
  154MOL0     N20246   3.714   5.696  10.729 -0.4102  0.8742 -1.3516
  154MOL0     N20247   3.800   5.636  10.806 -1.0329  0.4520  1.4308
  154MOL0     C20248   4.305   4.750  11.037  0.6360 -0.0755  0.6080
  154MOL0     C20249   4.287   4.690  11.163 -0.1397 -0.7344 -0.9044
  154MOL0     C20250   4.132   4.555  11.519 -0.0897  0.8184  0.3565
  154MOL0     C20251   4.009   4.501  11.552 -0.2341  0.4262  0.2133
  154MOL0     C20252   4.007   4.404  11.659 -0.4663 -0.3559 -0.0741
  154MOL0     C20253   4.118   4.365  11.725 -0.5966 -0.6065 -0.6814
  154MOL0     O20254   4.128   4.289  11.838 -0.7484  0.6580 -0.3098
  154MOL0     C20255   4.010   4.270  11.919  0.5896  0.1216  0.6872
  154MOL0     C20256   4.022   4.150  12.017  0.4328 -0.9654 -0.0667
  154MOL0     C20257   4.134   4.136  12.110 -0.1681 -1.1000  0.3999
  154MOL0     C20258   4.230   4.258  12.134  0.2387  0.3905  0.1218
  154MOL0     C20259   4.279   4.249  12.277 -0.0828  0.0306 -1.3277
  154MOL0     C20260   4.307   4.255  12.396 -1.2639 -0.7426 -0.2805
  154MOL0     C20261   4.242   4.427  11.691  0.2887 -0.2160  0.5190
  154MOL0     C20262   4.253   4.520  11.590  0.5031  0.0267 -0.0145
  154MOL0     H20263   4.293   4.986  11.342 -0.1731  2.4560 -1.3837
  154MOL0     H20264   4.311   5.075  11.136  0.1968 -0.1231  3.4027
  154MOL0     H20265   4.273   4.782  10.778 -0.2235 -0.2138  1.0767
  154MOL0     H20266   4.446   4.832  10.791 -1.2090 -1.1262  1.7625
  154MOL0     H20267   4.337   4.844  10.572  0.9342  1.9106 -1.9511
  154MOL0     H20268   4.396   5.005  10.632 -2.4674  2.4142 -3.4057
  154MOL0     H20269   4.093   4.969  10.661 -1.0330  0.5687 -0.1945
  154MOL0     H20270   4.179   4.965  10.503 -2.1546 -2.0626 -0.1486
  154MOL0     H20271   4.266   5.197  10.559 -0.6343  0.6772  0.9656
  154MOL0     H20272   4.093   5.180  10.578 -0.6907 -0.3928 -0.7451
  154MOL0     H20273   4.302   5.178  10.792  0.0166  0.2094 -4.6460
  154MOL0     H20274   4.127   5.147  10.831  0.3723 -2.4476 -0.7979
  154MOL0     H20275   4.269   5.401  10.713  0.8813 -2.4782  0.1075
  154MOL0     H20276   4.185   5.393  10.873 -1.9041 -1.6836 -0.2304
  154MOL0     H20277   4.082   5.444  10.599 -0.4169 -1.6705  0.2349
  154MOL0     H20278   3.981   5.351  10.703  2.0172 -1.1966 -1.8088
  154MOL0     H20279   4.119   5.620  10.764 -1.0007  0.5811  2.5516
  154MOL0     H20280   4.019   5.517  10.886  1.3076  0.3198  0.1781
  154MOL0     H20281   3.967   5.676  10.531  0.4989  0.6516  0.4738
  154MOL0     H20282   3.638   5.748  10.425  0.8969 -0.3936 -0.4010
  154MOL0     H20283   3.798   5.812  10.422  0.0447 -1.9771 -0.4217
  154MOL0     H20284   3.759   5.981  10.568  1.4088  1.0956 -2.8502
  154MOL0     H20285   3.587   5.928  10.597  0.8431  1.1472  0.4978
  154MOL0     H20286   3.715   6.004  10.323 -0.8384  3.8554 -0.7235
  154MOL0     H20287   3.539   5.981  10.349 -0.1416 -1.3162  1.5392
  154MOL0     H20288   3.677   6.229  10.367  0.1634 -0.5696 -1.5025
  154MOL0     H20289   3.669   6.176  10.529 -0.2192 -1.5292 -0.7954
  154MOL0     H20290   3.588   6.144  10.172 -1.7182 -2.6696 -2.5649
  154MOL0     H20291   3.480   6.202   9.973 -0.3979 -0.5025  0.0942
  154MOL0     H20292   2.903   6.470   9.922  1.5795  3.7258 -1.6670
  154MOL0     H20293   2.732   6.488   9.747 -0.2182 -0.7696  0.1222
  154MOL0     H20294   2.758   6.595   9.477  2.1551 -2.2351  2.3404
  154MOL0     H20295   2.615   6.538   9.555  1.5855  2.5331  0.9174
  154MOL0     H20296   2.555   6.586   9.341  2.2580  1.0064  0.0021
  154MOL0     H20297   2.559   6.401   9.346  1.3655 -0.9833  1.0234
  154MOL0     H20298   2.770   6.397   9.227 -0.4700  0.2925  1.0071
  154MOL0     H20299   2.796   6.564   9.236  2.2921 -1.9889 -2.4406
  154MOL0     H20300   2.545   6.453   9.110 -0.7102 -1.1568  0.4996
  154MOL0     H20301   2.629   6.611   9.092  1.6787 -0.1605 -0.0231
  154MOL0     H20302   2.737   6.342   9.011 -1.3139 -0.1463  1.9099
  154MOL0     H20303   2.822   6.492   8.979 -0.1558 -0.1624 -4.9536
  154MOL0     H20304   2.642   6.576   8.837  2.0679  0.0652 -1.6223
  154MOL0     H20305   2.560   6.417   8.882 -0.3358  0.9703 -0.3493
  154MOL0     H20306   2.830   6.444   8.744  0.6887  1.5573  0.0645
  154MOL0     H20307   2.715   6.301   8.754 -2.1610  1.4527  2.0531
  154MOL0     H20308   2.720   6.443   8.519 -1.9186  2.6438 -1.4313
  154MOL0     H20309   2.667   6.572   8.614  1.2518 -0.4552 -0.4723
  154MOL0     H20310   2.959   6.230   9.489  0.9788 -0.7974 -0.1670
  154MOL0     H20311   3.131   6.210   9.658  2.6916  3.3774 -0.8026
  154MOL0     H20312   3.114   6.302  10.177  0.4385  1.3671  1.5147
  154MOL0     H20313   3.257   6.290  10.393  3.7070  2.5790  1.8696
  154MOL0     H20314   4.295   4.691  10.947 -5.5699  0.3358  0.5564
  154MOL0     H20315   4.288   4.583  11.177 -0.5845 -0.7400 -0.9054
  154MOL0     H20316   3.921   4.514  11.491  1.2467  1.0795 -1.9073
  154MOL0     H20317   3.907   4.369  11.683 -0.2912  0.5549  2.2074
  154MOL0     H20318   3.926   4.250  11.852  1.4465 -2.0671  0.1707
  154MOL0     H20319   3.991   4.360  11.977 -1.4249  1.7700 -2.2924
  154MOL0     H20320   3.931   4.154  12.078  0.5279 -2.5458  0.2199
  154MOL0     H20321   4.009   4.057  11.960  1.7513 -0.5874 -0.9977
  154MOL0     H20322   4.196   4.051  12.077  5.2296  2.4133  0.2590
  154MOL0     H20323   4.092   4.112  12.208 -0.8544  0.3427  0.4687
  154MOL0     H20324   4.314   4.242  12.067 -0.3872 -5.3904  0.2068
  154MOL0     H20325   4.190   4.355  12.103  1.4203  0.9684  0.3592
  154MOL0     H20326   4.330   4.279  12.498 -2.6073  0.1129 -0.1603
  154MOL0     H20327   4.331   4.401  11.748  2.2657  2.7353 -0.9725
  154MOL0     H20328   4.348   4.572  11.584 -0.4540  1.6557 -3.1535
  155MOL0     O20329   9.802   1.211   9.004  0.2072  0.5727  0.0297
  155MOL0     C20330   9.864   1.203   9.111 -0.5077  0.6848  0.6066
  155MOL0     O20331   9.961   1.296   9.153  0.5337  0.0006 -0.4246
  155MOL0     C20332   9.984   1.402   9.072  0.9139 -0.7166 -0.1665
  155MOL0     C20333  10.105   1.459   9.058  0.0706 -0.1390  0.6428
  155MOL0     C20334  10.120   1.579   8.998  0.4358 -0.3489  0.1890
  155MOL0     C20335  10.014   1.649   8.931  0.5295  0.7923 -0.4350
  155MOL0     O20336  10.056   1.762   8.871  0.1197  0.3681  0.3124
  155MOL0     C20337   9.964   1.865   8.853 -0.6324 -0.2474  0.9742
  155MOL0     C20338  10.030   1.991   8.790  0.3545 -0.1014  0.5021
  155MOL0     C20339  10.160   2.033   8.857 -0.8660  0.2504  0.2128
  155MOL0     C20340  10.247   2.134   8.775  0.1313 -0.1791 -0.7153
  155MOL0     C20341  10.307   2.255   8.865 -0.1792  0.1853 -0.2083
  155MOL0     C20342  10.373   2.366   8.781  0.3175  1.1317 -0.1761
  155MOL0     C20343  10.401   2.486   8.862 -0.2044  0.0216 -0.5258
  155MOL0     C20344  10.416   2.605   8.769 -0.3154  0.2659  0.4635
  155MOL0     N20345  10.523   2.583   8.663  0.3136  0.4137  0.0149
  155MOL0     C20346  10.656   2.596   8.681  0.9502  0.3321  0.9511
  155MOL0     C20347  10.708   2.586   8.558  0.3901 -0.0663  0.1709
  155MOL0     C20348  10.848   2.627   8.503 -0.5390 -0.2602 -0.6579
  155MOL0     C20349  10.961   2.534   8.556  0.8879  0.2926 -0.3620
  155MOL0     C20350  10.986   2.553   8.704 -0.8187  0.2364 -0.3711
  155MOL0     C20351  11.120   2.482   8.744  0.2902  0.1947  0.3739
  155MOL0     O20352  11.101   2.339   8.750 -0.5383 -0.4425  0.6732
  155MOL0     C20353  11.203   2.256   8.802 -0.3076  0.7058  0.7462
  155MOL0     C20354  11.175   2.112   8.810 -0.0250 -1.4633  0.3077
  155MOL0     C20355  11.265   2.021   8.852 -0.4115 -0.2563  0.2495
  155MOL0     C20356  11.395   2.070   8.879  0.3181  1.1390 -0.3230
  155MOL0     C20357  11.491   1.954   8.913 -0.4475 -1.1199 -1.5123
  155MOL0     O20358  11.633   1.981   8.897  0.1001  0.1761 -0.1294
  155MOL0     C20359  11.722   1.879   8.899  0.5353 -0.1937 -0.5441
  155MOL0     C20360  11.863   1.906   8.917 -0.4032  0.4802  0.8256
  155MOL0     C20361  11.955   1.808   8.900  0.0899 -0.1792  0.2337
  155MOL0     C20362  11.912   1.675   8.879  0.6283 -0.4350 -0.2650
  155MOL0     O20363  12.001   1.574   8.868 -0.4936 -0.7555  0.4988
  155MOL0     C20364  12.136   1.592   8.880 -0.9812 -1.1615  0.5489
  155MOL0     C20365  12.172   1.558   9.026  1.2458  0.2424 -0.1795
  155MOL0     C20366  12.163   1.413   9.051  0.4691 -0.2957  0.9231
  155MOL0     C20367  12.130   1.389   9.203 -0.0312  0.8635  0.8700
  155MOL0     C20368  12.115   1.237   9.228  0.7005 -0.2835 -0.2648
  155MOL0     C20369  12.105   1.205   9.377 -0.3532 -0.5139 -0.2612
  155MOL0     C20370  11.995   1.277   9.451 -0.4378  0.1153  0.3597
  155MOL0     C20371  11.949   1.194   9.569  0.1536  0.6007  0.3991
  155MOL0    Cl20372  11.844   1.293   9.674  0.1358  0.1975  0.0324
  155MOL0     C20373  11.776   1.644   8.865 -0.6099  0.2073  0.3932
  155MOL0     C20374  11.677   1.746   8.878 -0.8941  1.1130 -0.0110
  155MOL0     O20375  11.436   1.853   8.972 -0.3193 -0.8370 -0.1031
  155MOL0     C20376  11.434   2.201   8.857 -0.4377  0.0724  0.6101
  155MOL0     C20377  11.344   2.293   8.819  0.2712  0.0953  0.6394
  155MOL0     N20378  10.602   2.572   8.462  0.4638  0.1178 -0.2169
  155MOL0     N20379  10.496   2.564   8.531 -0.1280 -0.1121  0.4712
  155MOL0     C20380   9.886   1.605   8.953 -0.8914 -0.3769  0.5761
  155MOL0     C20381   9.876   1.478   9.017 -0.1267  0.6431 -0.4102
  155MOL0     C20382   9.856   1.076   9.174  0.8229 -0.3895  0.1353
  155MOL0     C20383   9.967   1.021   9.233  0.8926 -0.8289  0.2259
  155MOL0     C20384   9.968   0.904   9.305 -0.4739 -0.3010 -0.9928
  155MOL0     C20385   9.856   0.827   9.313 -0.2228  0.2399  0.3063
  155MOL0     O20386   9.873   0.707   9.382  0.3890  0.6019 -0.2018
  155MOL0     C20387   9.772   0.606   9.364  0.5220  0.7958  0.5892
  155MOL0     C20388   9.809   0.468   9.424  0.1982  0.8779  0.7175
  155MOL0     C20389   9.825   0.482   9.576 -1.5601 -0.5696 -0.3768
  155MOL0     C20390   9.722   0.576   9.640  0.4041 -0.7958 -0.2182
  155MOL0     C20391   9.708   0.549   9.787 -0.7906  0.0991 -0.0001
  155MOL0     C20392   9.707   0.515   9.901 -0.1252 -0.1964 -0.1112
  155MOL0     C20393   9.735   0.880   9.248 -0.5241 -0.3965 -0.5676
  155MOL0     C20394   9.737   1.004   9.177 -0.6773 -0.1060 -1.1309
  155MOL0     H20395  10.188   1.415   9.111 -0.8405  1.2470  3.4157
  155MOL0     H20396  10.219   1.624   9.001 -0.2404  1.1338  1.0891
  155MOL0     H20397   9.921   1.893   8.950 -1.7875 -0.5063  0.5625
  155MOL0     H20398   9.876   1.835   8.795 -0.6993  2.0270 -0.1971
  155MOL0     H20399   9.957   2.072   8.802  0.4867  0.5210 -2.2013
  155MOL0     H20400  10.047   1.973   8.683  3.7081 -0.1080  0.9390
  155MOL0     H20401  10.215   1.940   8.872 -1.6014 -0.8446 -3.0708
  155MOL0     H20402  10.148   2.079   8.956  1.2012  2.9439 -0.6780
  155MOL0     H20403  10.337   2.096   8.727  0.7528  0.0920  0.2196
  155MOL0     H20404  10.184   2.192   8.707  1.0021  1.8915  0.1600
  155MOL0     H20405  10.373   2.217   8.943  0.1348 -0.0042 -0.5658
  155MOL0     H20406  10.215   2.295   8.911 -1.5113 -2.8635 -0.0105
  155MOL0     H20407  10.312   2.391   8.694  2.6970 -1.9143 -2.9773
  155MOL0     H20408  10.463   2.337   8.727 -0.1181  1.0935 -0.8959
  155MOL0     H20409  10.326   2.485   8.941 -2.2454 -1.6942 -2.3730
  155MOL0     H20410  10.498   2.484   8.913 -0.3041  1.3893 -0.2524
  155MOL0     H20411  10.456   2.693   8.819 -1.1656  0.9438 -0.0203
  155MOL0     H20412  10.328   2.636   8.713 -0.3523 -0.7034 -0.0489
  155MOL0     H20413  10.700   2.629   8.775  3.8154  1.6831 -0.7165
  155MOL0     H20414  10.886   2.719   8.548  0.9481 -0.3327 -1.7201
  155MOL0     H20415  10.847   2.634   8.394  0.6013  0.6621 -0.6325
  155MOL0     H20416  11.050   2.563   8.500  1.1923  1.5579  0.7253
  155MOL0     H20417  10.932   2.431   8.533 -1.0393  1.0278 -1.4949
  155MOL0     H20418  10.974   2.656   8.739 -0.1278 -0.4652  2.1038
  155MOL0     H20419  10.915   2.490   8.758  0.7650  0.9484  2.7896
  155MOL0     H20420  11.137   2.509   8.848 -1.7741  0.1932  0.7458
  155MOL0     H20421  11.210   2.512   8.689 -0.0913 -1.1680 -1.0916
  155MOL0     H20422  11.075   2.078   8.786 -0.8737  1.1883 -0.2387
  155MOL0     H20423  11.247   1.914   8.857 -1.3300 -0.0503  2.3607
  155MOL0     H20424  11.900   2.008   8.928  2.0000  0.1360 -2.6110
  155MOL0     H20425  12.062   1.811   8.917 -0.0835 -0.8103  1.6090
  155MOL0     H20426  12.180   1.684   8.840  2.4166 -2.2065  1.5686
  155MOL0     H20427  12.182   1.516   8.817 -3.3665 -2.9064  0.7930
  155MOL0     H20428  12.098   1.602   9.093  0.0045 -1.4402 -0.3894
  155MOL0     H20429  12.273   1.594   9.046  1.0306 -0.7243  3.1533
  155MOL0     H20430  12.251   1.359   9.016  3.7619  3.8540  1.9865
  155MOL0     H20431  12.083   1.382   8.983  2.5963  1.0465 -2.4005
  155MOL0     H20432  12.214   1.428   9.262  3.1439  0.3279 -2.9197
  155MOL0     H20433  12.040   1.440   9.239  0.0943  2.1662 -0.5708
  155MOL0     H20434  12.192   1.178   9.178 -2.3132 -3.4244 -1.5646
  155MOL0     H20435  12.019   1.214   9.181  0.3281 -0.4984  0.5933
  155MOL0     H20436  12.203   1.220   9.422 -2.0686  0.9586  3.3355
  155MOL0     H20437  12.084   1.097   9.378 -0.2688 -0.5563 -1.4048
  155MOL0     H20438  12.028   1.376   9.484 -0.6852  0.2079  0.3330
  155MOL0     H20439  11.898   1.284   9.400  0.0702 -3.4263 -1.4321
  155MOL0     H20440  12.040   1.159   9.618 -0.0432  0.5402  0.7260
  155MOL0     H20441  11.903   1.102   9.532  0.3381  0.6305  0.0868
  155MOL0     H20442  11.753   1.544   8.830  0.5124  0.6928 -1.9750
  155MOL0     H20443  11.573   1.721   8.859 -0.3842 -2.2391  0.9341
  155MOL0     H20444  11.536   2.238   8.857 -0.6373  0.6899 -1.0584
  155MOL0     H20445  11.356   2.399   8.800  2.4639  0.0191  1.3162
  155MOL0     H20446   9.793   1.654   8.928  0.1231  1.5077  0.3083
  155MOL0     H20447   9.776   1.437   9.020  0.4467 -0.7313  1.2275
  155MOL0     H20448  10.056   1.074   9.202 -0.1857  0.6563 -0.4360
  155MOL0     H20449  10.061   0.862   9.341 -0.8351 -0.4291 -0.1707
  155MOL0     H20450   9.768   0.597   9.255 -2.2879 -2.3729  0.7996
  155MOL0     H20451   9.677   0.642   9.403  0.0799 -1.1615  1.4148
  155MOL0     H20452   9.738   0.389   9.398  1.4350  0.3075 -1.1882
  155MOL0     H20453   9.900   0.432   9.375 -2.0684 -0.6299 -2.8640
  155MOL0     H20454   9.925   0.524   9.586 -1.0970 -1.9790  1.4025
  155MOL0     H20455   9.825   0.381   9.618  1.2459  0.3203  2.1038
  155MOL0     H20456   9.744   0.682   9.622 -2.4892 -0.3576 -1.7783
  155MOL0     H20457   9.622   0.559   9.597  0.0232  2.4057 -0.8853
  155MOL0     H20458   9.694   0.486  10.004 -3.9382  2.0690  0.2635
  155MOL0     H20459   9.639   0.834   9.267 -0.6726  1.2733  4.1409
  155MOL0     H20460   9.645   1.048   9.140 -0.6944  0.6406 -0.2208
  156MOL0     O20461   2.149   1.393   7.369  0.5543 -0.7124 -0.5953
  156MOL0     C20462   2.275   1.391   7.368  0.2088 -0.7565 -0.2143
  156MOL0     O20463   2.354   1.286   7.412 -0.0402  0.2927  0.8059
  156MOL0     C20464   2.285   1.180   7.456  0.5610 -0.7143 -0.8637
  156MOL0     C20465   2.222   1.105   7.366  0.1652  0.8405 -0.4802
  156MOL0     C20466   2.139   1.000   7.409 -0.7350  0.9524 -0.3026
  156MOL0     C20467   2.115   0.969   7.544  0.8771 -0.4050  0.4022
  156MOL0     O20468   2.017   0.871   7.560 -0.2822 -0.8647 -0.1359
  156MOL0     C20469   1.976   0.830   7.697  0.5404 -0.6042 -0.2056
  156MOL0     C20470   1.857   0.734   7.700  0.4016  0.4265  1.3793
  156MOL0     C20471   1.825   0.702   7.841  0.3382  0.2339 -0.1480
  156MOL0     C20472   1.743   0.566   7.866 -0.0291 -0.1337  0.4036
  156MOL0     C20473   1.627   0.584   7.956 -1.1122  0.8418  0.5060
  156MOL0     C20474   1.667   0.564   8.109  1.2101 -0.9086 -0.3552
  156MOL0     C20475   1.568   0.596   8.221 -0.1692  0.3541 -0.5091
  156MOL0     C20476   1.430   0.539   8.184  0.0353  0.5059 -0.2573
  156MOL0     N20477   1.335   0.549   8.302  0.0370  0.8156  0.1925
  156MOL0     C20478   1.319   0.454   8.392 -0.1760 -1.3120 -0.3252
  156MOL0     C20479   1.229   0.510   8.479  0.2242  0.5342  0.4143
  156MOL0     C20480   1.167   0.443   8.599  0.1725  0.7932 -0.0915
  156MOL0     C20481   1.240   0.478   8.730  0.1072 -0.1552  0.5142
  156MOL0     C20482   1.220   0.380   8.849 -0.8926  0.4065 -0.0510
  156MOL0     C20483   1.262   0.238   8.819 -0.7109 -0.8927 -0.0499
  156MOL0     O20484   1.397   0.237   8.765 -0.0618 -0.3521  0.1431
  156MOL0     C20485   1.486   0.135   8.783  0.4623  0.1476  0.4821
  156MOL0     C20486   1.620   0.171   8.772 -0.3027  0.1496  0.0412
  156MOL0     C20487   1.718   0.075   8.781 -0.4723  0.0366 -0.0335
  156MOL0     C20488   1.682  -0.062   8.820 -0.0116 -0.7868  0.0500
  156MOL0     C20489   1.782  -0.177   8.828 -0.7415 -0.8878  0.0833
  156MOL0     O20490   1.902  -0.127   8.805  0.5440  0.5927 -0.2288
  156MOL0     C20491   2.014  -0.206   8.795  0.2049 -0.4362 -0.1319
  156MOL0     C20492   2.126  -0.127   8.751  0.0270 -0.1188  0.5230
  156MOL0     C20493   2.257  -0.182   8.744  0.1537 -0.1762  0.0239
  156MOL0     C20494   2.278  -0.323   8.768 -0.1830  0.1634  0.5021
  156MOL0     O20495   2.407  -0.375   8.760  0.0391  0.8733  0.7488
  156MOL0     C20496   2.455  -0.424   8.888 -0.3502 -0.7502  0.4434
  156MOL0     C20497   2.599  -0.460   8.853 -0.5706 -0.6437 -0.1615
  156MOL0     C20498   2.667  -0.528   8.970 -0.4626 -0.2642 -0.2633
  156MOL0     C20499   2.803  -0.566   8.922  0.8703 -0.1264 -0.2931
  156MOL0     C20500   2.879  -0.657   9.024  0.0238  0.4756 -0.8454
  156MOL0     C20501   2.809  -0.795   9.042  0.6334  0.3496  0.4043
  156MOL0     C20502   2.874  -0.882   9.156  0.3135  1.3299  0.4109
  156MOL0     C20503   2.856  -0.831   9.296  0.0079 -0.6683 -0.6123
  156MOL0    Cl20504   2.700  -0.773   9.336 -0.1154 -0.3042 -0.4233
  156MOL0     C20505   2.168  -0.406   8.806 -0.7084  0.1923  0.2735
  156MOL0     C20506   2.039  -0.347   8.810 -0.4461  0.0077  0.0887
  156MOL0     O20507   1.754  -0.286   8.873 -0.3775  0.1949  0.1483
  156MOL0     C20508   1.543  -0.092   8.849 -0.3672 -0.2300 -0.1871
  156MOL0     C20509   1.440   0.007   8.826 -0.5449 -0.1001  0.1647
  156MOL0     N20510   1.203   0.648   8.440 -0.3957  0.5323 -0.8515
  156MOL0     N20511   1.277   0.667   8.330  0.5056  0.2551 -0.3303
  156MOL0     C20512   2.180   1.050   7.639  0.2605 -0.1049 -0.1917
  156MOL0     C20513   2.258   1.148   7.596  0.0395  0.2608  0.1833
  156MOL0     C20514   2.348   1.515   7.338 -0.6680 -0.6761 -0.4005
  156MOL0     C20515   2.276   1.628   7.290  0.4623  1.0495 -0.3053
  156MOL0     C20516   2.341   1.746   7.253 -0.0945  0.9428  0.6920
  156MOL0     C20517   2.480   1.759   7.268 -0.4443 -0.2018 -1.2702
  156MOL0     O20518   2.533   1.884   7.241  0.3767  0.3764  0.1247
  156MOL0     C20519   2.670   1.909   7.276  0.4595  0.5621 -0.2226
  156MOL0     C20520   2.701   2.054   7.249  0.4606  0.5410 -0.2154
  156MOL0     C20521   2.830   2.117   7.317  0.0622 -0.2560 -0.5307
  156MOL0     C20522   2.958   2.043   7.263 -0.0092 -0.0769 -0.6310
  156MOL0     C20523   3.079   2.124   7.312 -0.2559  0.8002  1.1054
  156MOL0     C20524   3.175   2.180   7.355 -1.2528  0.6302 -0.5150
  156MOL0     C20525   2.557   1.653   7.314  0.1224 -0.6308 -0.8760
  156MOL0     C20526   2.488   1.528   7.347 -0.2496 -0.0255  0.3600
  156MOL0     H20527   2.236   1.124   7.260  0.6048  1.3443 -0.3294
  156MOL0     H20528   2.085   0.934   7.343  1.2061 -2.9769  1.6750
  156MOL0     H20529   1.956   0.930   7.738  0.8628 -0.0747 -1.3170
  156MOL0     H20530   2.067   0.790   7.744  0.3796 -1.3914 -0.5540
  156MOL0     H20531   1.886   0.640   7.652 -0.8997  1.0217 -0.6958
  156MOL0     H20532   1.766   0.778   7.658 -1.0234 -1.2974  2.4866
  156MOL0     H20533   1.770   0.774   7.901  0.2617 -0.4812  0.6710
  156MOL0     H20534   1.922   0.686   7.890 -0.6768 -2.3511  1.1920
  156MOL0     H20535   1.709   0.539   7.765 -0.8742  1.3173  0.2658
  156MOL0     H20536   1.800   0.482   7.905  0.5174 -0.3110 -0.7387
  156MOL0     H20537   1.553   0.504   7.946  1.0708 -1.1714 -0.4815
  156MOL0     H20538   1.581   0.683   7.941 -2.4454  0.0580 -0.8779
  156MOL0     H20539   1.753   0.627   8.134 -0.4329  1.2255  0.2499
  156MOL0     H20540   1.703   0.462   8.126 -0.6041 -1.4207  0.7374
  156MOL0     H20541   1.597   0.567   8.323 -0.4700  3.3287  0.5250
  156MOL0     H20542   1.560   0.703   8.239  1.9883  0.6320 -0.9888
  156MOL0     H20543   1.421   0.438   8.144 -1.2907  1.3202 -2.1833
  156MOL0     H20544   1.397   0.614   8.111 -0.0255  0.2860 -0.4550
  156MOL0     H20545   1.356   0.352   8.398 -1.2825 -1.6609  1.5807
  156MOL0     H20546   1.166   0.334   8.592 -3.5174  0.7462 -0.4968
  156MOL0     H20547   1.063   0.473   8.610 -0.5464 -1.7268  0.7306
  156MOL0     H20548   1.196   0.573   8.762 -1.7435 -1.6277  2.5467
  156MOL0     H20549   1.350   0.475   8.723  0.5063 -2.6437  4.6901
  156MOL0     H20550   1.272   0.419   8.937  0.5675 -0.0967 -0.6552
  156MOL0     H20551   1.114   0.387   8.873 -0.9719 -1.9560  0.5643
  156MOL0     H20552   1.186   0.198   8.750 -0.1811 -0.5545 -0.8454
  156MOL0     H20553   1.270   0.182   8.912  0.4659  0.1969  0.5289
  156MOL0     H20554   1.649   0.274   8.760 -0.1614  0.1708  0.5778
  156MOL0     H20555   1.818   0.112   8.762 -0.3903  1.0905  2.1350
  156MOL0     H20556   2.114  -0.022   8.725  1.2914 -0.2586 -0.6830
  156MOL0     H20557   2.347  -0.131   8.711 -0.0754  0.4491  0.3495
  156MOL0     H20558   2.406  -0.514   8.926  0.5590 -1.7121 -0.5991
  156MOL0     H20559   2.447  -0.349   8.967  0.1414 -2.4696  2.1856
  156MOL0     H20560   2.659  -0.376   8.817 -0.9654 -0.1541  0.3034
  156MOL0     H20561   2.594  -0.525   8.766 -0.0788 -0.9624  0.0459
  156MOL0     H20562   2.594  -0.608   8.988 -1.6802 -0.1943 -3.9483
  156MOL0     H20563   2.679  -0.472   9.063 -1.3599 -2.1781  1.0666
  156MOL0     H20564   2.795  -0.616   8.825  0.1330 -3.0842  1.1674
  156MOL0     H20565   2.858  -0.472   8.916  0.8299 -0.0758  0.1172
  156MOL0     H20566   2.896  -0.610   9.122  2.7086  0.1739 -1.0879
  156MOL0     H20567   2.975  -0.681   8.977 -0.6815 -1.3454 -1.4394
  156MOL0     H20568   2.808  -0.855   8.951  2.8085  0.0997  0.4822
  156MOL0     H20569   2.702  -0.782   9.063  0.8237  0.6813  1.2485
  156MOL0     H20570   2.833  -0.983   9.154 -1.6545  2.0724  0.0237
  156MOL0     H20571   2.981  -0.888   9.135  0.3632 -0.8784  1.0215
  156MOL0     H20572   2.933  -0.763   9.334 -2.9445  0.1965  4.9660
  156MOL0     H20573   2.859  -0.922   9.358 -2.2563  0.0239  0.6246
  156MOL0     H20574   2.173  -0.514   8.811  2.1245  0.0261 -2.6892
  156MOL0     H20575   1.959  -0.416   8.835  0.1767 -0.9846 -0.5787
  156MOL0     H20576   1.506  -0.191   8.870  0.9123 -0.3358  1.7474
  156MOL0     H20577   1.333  -0.012   8.838 -0.8049  0.7982 -0.6181
  156MOL0     H20578   2.150   1.039   7.743 -0.4339 -2.1337 -0.5653
  156MOL0     H20579   2.297   1.204   7.680 -1.0330 -1.1315  1.6566
  156MOL0     H20580   2.168   1.619   7.283  0.5077 -1.0991  0.8722
  156MOL0     H20581   2.281   1.824   7.208 -1.9082 -0.7309  0.0627
  156MOL0     H20582   2.736   1.842   7.220  1.1426 -2.6789  3.9825
  156MOL0     H20583   2.676   1.886   7.382  1.4146 -1.9680 -0.7627
  156MOL0     H20584   2.711   2.080   7.143 -0.5721  0.8588 -0.2417
  156MOL0     H20585   2.610   2.104   7.284  1.4791  1.8323  0.7390
  156MOL0     H20586   2.833   2.097   7.425 -0.7712 -1.5054 -0.7151
  156MOL0     H20587   2.831   2.224   7.294  2.0059  0.0976  0.8981
  156MOL0     H20588   2.962   1.940   7.299  2.6094 -0.0886 -0.7454
  156MOL0     H20589   2.955   2.034   7.154 -0.2357 -0.8759 -0.5670
  156MOL0     H20590   3.262   2.226   7.397 -0.1669 -0.0978 -1.8769
  156MOL0     H20591   2.663   1.667   7.331 -0.0404 -2.5459  2.6581
  156MOL0     H20592   2.539   1.437   7.378 -2.1746 -1.8996 -1.6022
  157MOL0     O20593  10.658   1.996   9.847 -1.0941 -0.5161 -0.3865
  157MOL0     C20594  10.702   1.985   9.732 -0.0946  0.7651 -0.8221
  157MOL0     O20595  10.791   2.062   9.656 -0.2410 -0.4562  0.1716
  157MOL0     C20596  10.838   2.177   9.720 -0.6044  0.0129 -0.6583
  157MOL0     C20597  10.766   2.248   9.819 -0.2371  0.3292 -0.2431
  157MOL0     C20598  10.833   2.363   9.875  0.0702  0.3200  0.4329
  157MOL0     C20599  10.968   2.404   9.835  0.9176 -0.2820 -0.0514
  157MOL0     O20600  11.041   2.515   9.891 -0.4690  0.5053  0.4967
  157MOL0     C20601  11.011   2.554  10.023  0.1530  0.1618 -0.2541
  157MOL0     C20602  10.925   2.674  10.024  0.3067  0.2357 -0.5883
  157MOL0     C20603  10.902   2.704  10.172  0.5422 -0.4433  0.2181
  157MOL0     C20604  10.790   2.806  10.171  0.3130  0.8811  0.2217
  157MOL0     C20605  10.746   2.831  10.312 -0.2888 -0.0883 -0.3320
  157MOL0     C20606  10.863   2.892  10.403  0.1128  1.0828  0.2683
  157MOL0     C20607  10.834   2.900  10.556 -0.4145 -0.0035  0.3691
  157MOL0     C20608  10.700   2.977  10.600  0.9853 -0.2466  0.2430
  157MOL0     N20609  10.587   2.888  10.605  0.4108  0.1365  0.1675
  157MOL0     C20610  10.462   2.915  10.545 -0.0965  0.2279 -0.1587
  157MOL0     C20611  10.395   2.803  10.553 -0.0095 -0.9874  1.5058
  157MOL0     C20612  10.264   2.791  10.469 -0.0691  0.5060 -0.2388
  157MOL0     C20613  10.239   2.641  10.431 -0.4752 -0.7651 -0.7722
  157MOL0     C20614  10.096   2.628  10.363  0.0459  0.5931 -0.5405
  157MOL0     C20615   9.974   2.645  10.452 -0.3407 -0.2571  0.2014
  157MOL0     O20616   9.874   2.552  10.425 -0.4311  0.1465  0.4021
  157MOL0     C20617   9.752   2.604  10.452  0.3507 -0.0561  0.1388
  157MOL0     C20618   9.707   2.657  10.574 -0.0033 -0.2601 -0.7139
  157MOL0     C20619   9.577   2.717  10.592 -0.1714  0.0189 -0.1037
  157MOL0     C20620   9.490   2.721  10.480 -0.7544 -0.1211 -0.0686
  157MOL0     C20621   9.354   2.787  10.501  0.2709  0.3594  0.4057
  157MOL0     O20622   9.283   2.787  10.392 -0.8043  0.1948  0.2600
  157MOL0     C20623   9.151   2.822  10.396  0.7978  0.4318 -0.6954
  157MOL0     C20624   9.094   2.893  10.291  0.2616  0.7434 -0.1664
  157MOL0     C20625   8.960   2.916  10.290  0.6009  0.7070  1.1202
  157MOL0     C20626   8.872   2.884  10.395 -0.5707  0.0058 -0.5035
  157MOL0     O20627   8.736   2.900  10.385  0.5933  0.7322 -0.8181
  157MOL0     C20628   8.653   2.946  10.497 -0.5852 -1.0945  0.0946
  157MOL0     C20629   8.713   3.061  10.581  0.1152  0.8498 -0.4096
  157MOL0     C20630   8.597   3.136  10.649 -0.1157  0.1812  0.4252
  157MOL0     C20631   8.642   3.229  10.757  0.7641  0.1452 -0.5861
  157MOL0     C20632   8.526   3.328  10.795  0.1436  0.1575 -0.2705
  157MOL0     C20633   8.573   3.438  10.897 -0.1886  0.1425 -0.0734
  157MOL0     C20634   8.581   3.380  11.040  0.2390 -0.3336  1.1778
  157MOL0     C20635   8.663   3.466  11.137 -0.5086  0.3008 -0.1412
  157MOL0    Cl20636   8.719   3.365  11.281  0.2682 -0.4563 -0.3791
  157MOL0     C20637   8.928   2.809  10.507 -0.2728  0.1663  0.9348
  157MOL0     C20638   9.067   2.765  10.496 -0.7229  0.0649  0.5677
  157MOL0     O20639   9.321   2.829  10.612  0.0726 -0.8721  0.0426
  157MOL0     C20640   9.539   2.678  10.363  0.0387  0.0963  0.1810
  157MOL0     C20641   9.662   2.623  10.340  0.3530  0.9349  0.5179
  157MOL0     N20642  10.476   2.713  10.617 -0.0933  1.0096  0.3809
  157MOL0     N20643  10.591   2.759  10.646  0.6059 -0.0936  0.1535
  157MOL0     C20644  11.020   2.340   9.730  0.2255  0.3486 -0.4642
  157MOL0     C20645  10.964   2.228   9.678 -0.0183 -0.7823  0.6087
  157MOL0     C20646  10.637   1.868   9.653  0.0758 -0.1887 -1.0748
  157MOL0     C20647  10.572   1.757   9.715  0.1608 -0.6723 -0.2819
  157MOL0     C20648  10.508   1.656   9.642  0.7430 -0.5207 -0.8871
  157MOL0     C20649  10.485   1.673   9.511  0.5783 -0.2327 -0.3439
  157MOL0     O20650  10.427   1.585   9.428 -0.6638  0.3521 -0.1930
  157MOL0     C20651  10.533   1.507   9.369 -1.0776  0.3964 -0.8739
  157MOL0     C20652  10.517   1.501   9.225 -1.4306  0.4452  0.7350
  157MOL0     C20653  10.622   1.418   9.153  0.6668 -0.7046  0.4515
  157MOL0     C20654  10.569   1.374   9.015 -0.0939 -0.8861 -0.0934
  157MOL0     C20655  10.685   1.336   8.921 -0.3826  0.0274 -0.0335
  157MOL0     C20656  10.777   1.287   8.859  0.8315  0.7462 -0.4197
  157MOL0     C20657  10.540   1.786   9.439 -0.1104  0.6577 -0.5620
  157MOL0     C20658  10.619   1.879   9.514  0.7455  0.4700  0.0671
  157MOL0     H20659  10.670   2.214   9.856  0.1528 -0.2226  0.2939
  157MOL0     H20660  10.787   2.424   9.952  0.9739  0.7585  0.6527
  157MOL0     H20661  11.107   2.582  10.067  0.5045 -2.0086  0.4822
  157MOL0     H20662  10.977   2.469  10.083 -1.9641  1.1125 -0.0055
  157MOL0     H20663  10.836   2.651   9.965 -1.2357  0.1994  1.6092
  157MOL0     H20664  10.983   2.759   9.987 -1.0159  2.2533  1.6690
  157MOL0     H20665  10.996   2.722  10.225  0.6609 -1.0193  0.2055
  157MOL0     H20666  10.857   2.613  10.212  1.2377 -1.5979 -1.4959
  157MOL0     H20667  10.837   2.899  10.137  0.6927  1.6173  2.5945
  157MOL0     H20668  10.709   2.784  10.101 -0.6616 -0.4828  1.7125
  157MOL0     H20669  10.704   2.738  10.352 -1.1857  0.1522 -0.6735
  157MOL0     H20670  10.672   2.909  10.293  1.1487  1.6301  0.8245
  157MOL0     H20671  10.881   2.995  10.370 -2.2660  1.9353  1.4076
  157MOL0     H20672  10.959   2.840  10.398 -0.6877 -0.3888 -0.1032
  157MOL0     H20673  10.838   2.794  10.583 -0.2615  0.6365  3.1471
  157MOL0     H20674  10.915   2.945  10.614 -1.0807  0.5786  0.8726
  157MOL0     H20675  10.672   3.058  10.532 -0.0031 -0.0106  0.9098
  157MOL0     H20676  10.709   3.038  10.691  0.0300  3.9790 -2.2007
  157MOL0     H20677  10.432   3.008  10.498  2.7905  2.5323  2.1634
  157MOL0     H20678  10.270   2.857  10.382  1.3635  1.5352  0.5907
  157MOL0     H20679  10.181   2.827  10.530 -1.3633  0.0381 -1.6533
  157MOL0     H20680  10.252   2.580  10.520 -1.4992 -2.5590 -1.7783
  157MOL0     H20681  10.306   2.602  10.354  2.3595  2.6200 -0.2249
  157MOL0     H20682  10.088   2.692  10.275 -1.0270  0.6281 -0.4239
  157MOL0     H20683  10.103   2.530  10.315  2.7880 -0.4265  1.6347
  157MOL0     H20684   9.937   2.747  10.468  1.6535  0.7625 -1.1952
  157MOL0     H20685  10.006   2.603  10.548  1.0917 -2.4235 -1.1443
  157MOL0     H20686   9.776   2.671  10.657 -0.8482  3.2746 -0.4153
  157MOL0     H20687   9.548   2.783  10.674 -2.4577  4.5296 -4.0433
  157MOL0     H20688   9.162   2.926  10.213  0.2753  0.3744 -0.3121
  157MOL0     H20689   8.924   2.964  10.200  0.5783 -3.5886 -1.4079
  157MOL0     H20690   8.635   2.866  10.570  0.8480 -0.4685  1.2055
  157MOL0     H20691   8.562   2.979  10.448  0.5330  0.3338 -1.1073
  157MOL0     H20692   8.753   3.143  10.522 -4.4026  0.8912 -3.9910
  157MOL0     H20693   8.786   3.024  10.653  1.6417  1.2567 -1.6965
  157MOL0     H20694   8.531   3.067  10.703 -0.9726  0.0524 -0.7441
  157MOL0     H20695   8.544   3.193  10.572 -1.6293 -1.5114  0.1536
  157MOL0     H20696   8.684   3.180  10.846  4.0034  2.3509 -0.7217
  157MOL0     H20697   8.722   3.293  10.718 -1.6012  1.6561 -3.2739
  157MOL0     H20698   8.446   3.266  10.837  0.8796 -0.0808  0.7990
  157MOL0     H20699   8.492   3.379  10.704 -2.5655  0.4991  0.8402
  157MOL0     H20700   8.497   3.517  10.900  0.6762  0.9566  1.8344
  157MOL0     H20701   8.664   3.489  10.867 -1.7208  2.7048 -0.7000
  157MOL0     H20702   8.483   3.376  11.087  0.8623 -2.3850  2.4602
  157MOL0     H20703   8.620   3.277  11.041 -1.3169 -0.9465  0.7939
  157MOL0     H20704   8.610   3.559  11.161  0.5222  0.8413  0.1129
  157MOL0     H20705   8.753   3.494  11.080 -1.1054  1.0464 -0.7580
  157MOL0     H20706   8.865   2.789  10.593 -0.0345 -1.7252  0.7122
  157MOL0     H20707   9.116   2.703  10.571  1.3284 -2.0186 -2.2683
  157MOL0     H20708   9.474   2.691  10.278 -0.9138 -1.8236  0.5575
  157MOL0     H20709   9.683   2.588  10.239  2.3604  1.6831  0.6310
  157MOL0     H20710  11.117   2.373   9.695  0.3638 -1.5480 -2.0859
  157MOL0     H20711  11.004   2.200   9.581 -1.3453  0.4500 -0.3325
  157MOL0     H20712  10.587   1.734   9.820  0.4532 -0.7827 -0.3455
  157MOL0     H20713  10.451   1.578   9.694 -0.3386  1.4120  1.0030
  157MOL0     H20714  10.533   1.407   9.413  3.8218  0.3816 -0.3119
  157MOL0     H20715  10.633   1.531   9.406 -1.1138 -3.7964  2.7444
  157MOL0     H20716  10.421   1.454   9.202 -2.4995  1.5971  2.6237
  157MOL0     H20717  10.512   1.595   9.169  0.7383  0.2779  0.1679
  157MOL0     H20718  10.640   1.332   9.218  1.0657 -0.1834  1.0393
  157MOL0     H20719  10.719   1.470   9.152  0.2541  0.1634  2.4111
  157MOL0     H20720  10.496   1.292   9.020 -1.9603  0.4575 -2.7229
  157MOL0     H20721  10.517   1.453   8.960  2.6707 -1.0850 -3.2447
  157MOL0     H20722  10.865   1.240   8.820  1.6273  1.8088  0.0215
  157MOL0     H20723  10.513   1.814   9.338  2.3167 -0.6347 -1.6502
  157MOL0     H20724  10.651   1.971   9.467 -0.0222  0.7688  0.1127
  158MOL0     O20725  10.356   0.760   6.876 -0.3309  0.3513  0.0906
  158MOL0     C20726  10.291   0.785   6.778  0.5697 -0.2358  0.5251
  158MOL0     O20727  10.158   0.763   6.775  0.8378 -0.0921  0.1866
  158MOL0     C20728  10.104   0.703   6.890 -0.4324 -0.2421 -0.0468
  158MOL0     C20729  10.045   0.784   6.997 -0.1601 -0.3642 -1.4848
  158MOL0     C20730  10.006   0.729   7.114 -0.2277 -0.2981  0.7503
  158MOL0     C20731  10.005   0.581   7.121 -0.7210  0.3869 -0.6820
  158MOL0     O20732   9.964   0.507   7.230  0.2285 -0.5661  0.0048
  158MOL0     C20733   9.937   0.579   7.351 -0.4192 -0.7107  0.1826
  158MOL0     C20734   9.877   0.503   7.466  0.2563  0.1560 -0.9120
  158MOL0     C20735   9.725   0.488   7.433 -0.9121 -0.1073 -0.3740
  158MOL0     C20736   9.648   0.454   7.568 -0.2765 -0.2908  0.0355
  158MOL0     C20737   9.506   0.436   7.547 -0.1929 -0.3081  0.4732
  158MOL0     C20738   9.424   0.434   7.683  0.6118 -0.3578  0.7290
  158MOL0     C20739   9.447   0.301   7.741  0.6104  0.2996  0.0082
  158MOL0     C20740   9.377   0.274   7.881  0.2423  0.2214  0.1258
  158MOL0     N20741   9.288   0.154   7.890 -0.8753 -0.3730 -0.4676
  158MOL0     C20742   9.182   0.119   7.813 -0.2139  0.3023 -0.2812
  158MOL0     C20743   9.142  -0.001   7.866  0.2058 -0.7122  2.0284
  158MOL0     C20744   9.023  -0.061   7.810  0.1781 -0.2567 -0.0392
  158MOL0     C20745   9.053  -0.183   7.719  0.2118  0.6572 -0.6690
  158MOL0     C20746   8.942  -0.195   7.615 -0.0771 -0.6006 -0.4282
  158MOL0     C20747   8.951  -0.329   7.548  0.2146 -0.7094 -0.4395
  158MOL0     O20748   9.067  -0.347   7.466  0.2802  0.2850 -1.4019
  158MOL0     C20749   9.074  -0.429   7.351  0.0252 -0.9869 -0.3610
  158MOL0     C20750   9.002  -0.543   7.368  1.4511  0.4267  0.3442
  158MOL0     C20751   9.002  -0.633   7.263 -0.0685  0.0573 -0.7050
  158MOL0     C20752   9.070  -0.606   7.149  0.3771  0.0190  0.4107
  158MOL0     C20753   9.072  -0.708   7.038 -1.1859  0.3683 -0.6115
  158MOL0     O20754   9.043  -0.838   7.068 -0.0162  0.1561 -0.8830
  158MOL0     C20755   9.052  -0.941   6.974  0.4803  0.0252 -0.4019
  158MOL0     C20756   9.152  -1.041   6.989  0.4797 -0.7274  0.1252
  158MOL0     C20757   9.171  -1.131   6.889 -0.7822 -0.3737  0.5407
  158MOL0     C20758   9.095  -1.138   6.773  0.4150 -0.6479 -0.1234
  158MOL0     O20759   9.131  -1.226   6.675 -0.0166 -0.3756 -0.4706
  158MOL0     C20760   9.112  -1.200   6.529 -0.4136  0.3740 -0.3058
  158MOL0     C20761   9.220  -1.212   6.434 -0.5272  2.0485  0.4301
  158MOL0     C20762   9.255  -1.361   6.411 -0.0840 -0.3581  0.1321
  158MOL0     C20763   9.342  -1.395   6.288  0.0285  0.8534  0.1880
  158MOL0     C20764   9.333  -1.544   6.249 -0.8695 -0.1830  0.1861
  158MOL0     C20765   9.399  -1.592   6.118  0.5544 -0.2236  0.1118
  158MOL0     C20766   9.456  -1.736   6.131 -0.1728  0.2112 -0.0466
  158MOL0     C20767   9.334  -1.837   6.144  0.6627 -0.6177  0.5041
  158MOL0    Cl20768   9.237  -1.839   6.001 -0.5047 -0.2923  0.9863
  158MOL0     C20769   8.982  -1.051   6.771  0.2808 -0.1234 -0.9042
  158MOL0     C20770   8.959  -0.953   6.867 -0.6943 -0.1373 -0.0344
  158MOL0     O20771   9.102  -0.667   6.927 -0.6593  0.0684  0.2511
  158MOL0     C20772   9.142  -0.488   7.138 -0.3936  0.1531  0.6646
  158MOL0     C20773   9.142  -0.393   7.239  0.3247 -0.5035  0.6217
  158MOL0     N20774   9.226  -0.040   7.961 -0.3113  0.2680  1.0279
  158MOL0     N20775   9.308   0.054   7.976 -0.3716  0.1089 -0.2754
  158MOL0     C20776  10.049   0.507   7.016  0.4652  0.0643 -0.4083
  158MOL0     C20777  10.106   0.572   6.911 -0.8196 -0.8099 -0.3580
  158MOL0     C20778  10.344   0.838   6.648  0.2179 -0.7198 -0.6015
  158MOL0     C20779  10.276   0.854   6.524 -0.1413 -0.1945 -0.6455
  158MOL0     C20780  10.330   0.916   6.413 -0.7625 -0.7563  0.9184
  158MOL0     C20781  10.464   0.969   6.418  0.4556 -0.8641 -0.4312
  158MOL0     O20782  10.517   1.025   6.307  0.1687  0.0356  0.5381
  158MOL0     C20783  10.650   1.082   6.294  0.2771  0.8322  0.0971
  158MOL0     C20784  10.663   1.132   6.151  0.0691  0.8030 -0.1303
  158MOL0     C20785  10.795   1.185   6.121 -0.7389  0.8884  0.3756
  158MOL0     C20786  10.796   1.291   6.010 -0.6522  0.0037 -0.6035
  158MOL0     C20787  10.920   1.368   6.007 -0.0157  0.0706 -0.5533
  158MOL0     C20788  11.028   1.423   6.011 -0.0618  0.3267 -0.5267
  158MOL0     C20789  10.534   0.957   6.540 -0.3629 -0.2153  0.2377
  158MOL0     C20790  10.471   0.892   6.655 -0.8400  1.4034 -0.0267
  158MOL0     H20791  10.051   0.891   6.980 -0.4828 -0.0716  0.0775
  158MOL0     H20792   9.983   0.783   7.205  1.1454 -5.3270  4.5988
  158MOL0     H20793   9.882   0.671   7.329  0.5909 -0.7597 -3.2545
  158MOL0     H20794  10.034   0.621   7.379  0.0966  0.8295 -3.3251
  158MOL0     H20795   9.892   0.559   7.559  2.8287 -0.9959 -0.5510
  158MOL0     H20796   9.928   0.406   7.468  0.1154  0.0925 -0.1504
  158MOL0     H20797   9.705   0.404   7.365 -4.7363 -0.4003  0.8550
  158MOL0     H20798   9.694   0.585   7.393  0.5003 -0.3077 -2.1075
  158MOL0     H20799   9.692   0.362   7.607 -0.6097 -0.2999  0.3838
  158MOL0     H20800   9.660   0.534   7.642  2.0659 -1.5276  1.1159
  158MOL0     H20801   9.489   0.355   7.475 -0.8539  0.8075 -0.6718
  158MOL0     H20802   9.463   0.521   7.493 -1.7206  0.1636  2.3521
  158MOL0     H20803   9.318   0.441   7.656  0.6284 -1.7663  0.1756
  158MOL0     H20804   9.461   0.509   7.753  2.5645 -0.4731 -0.0997
  158MOL0     H20805   9.430   0.225   7.663  0.5729  1.4980 -1.1781
  158MOL0     H20806   9.556   0.304   7.749  0.5089  3.9565  2.0660
  158MOL0     H20807   9.315   0.359   7.913 -0.5085 -0.3792  0.3006
  158MOL0     H20808   9.461   0.268   7.950  3.2290  2.6709 -2.9199
  158MOL0     H20809   9.143   0.185   7.736 -0.3453  2.9217  1.8614
  158MOL0     H20810   8.969   0.013   7.750 -1.0947 -2.2251 -1.4248
  158MOL0     H20811   8.967  -0.097   7.896  0.4945  0.7766  0.6153
  158MOL0     H20812   9.060  -0.274   7.780 -0.4813  2.0337  1.5843
  158MOL0     H20813   9.149  -0.169   7.668  0.9161 -0.0451  0.4152
  158MOL0     H20814   8.846  -0.197   7.667  0.8708 -0.8864  1.3702
  158MOL0     H20815   8.945  -0.124   7.531  0.5768 -3.2951 -2.8480
  158MOL0     H20816   8.858  -0.349   7.494 -0.5030  1.0321  0.0948
  158MOL0     H20817   8.953  -0.398   7.633  1.7003  0.8736  0.8898
  158MOL0     H20818   8.958  -0.559   7.466 -1.3907 -2.8396 -1.2595
  158MOL0     H20819   8.958  -0.732   7.261  1.3902 -0.6052 -2.8429
  158MOL0     H20820   9.213  -1.045   7.079  0.6268 -1.5233 -0.0031
  158MOL0     H20821   9.260  -1.194   6.889 -1.6115 -1.5791  0.5690
  158MOL0     H20822   9.068  -1.101   6.513 -1.3497 -0.4352 -3.1696
  158MOL0     H20823   9.038  -1.272   6.495  0.4582 -0.5603 -0.2641
  158MOL0     H20824   9.309  -1.159   6.468  0.0381  2.3129 -1.3258
  158MOL0     H20825   9.183  -1.186   6.334  0.8913  0.2987 -0.6127
  158MOL0     H20826   9.166  -1.424   6.411  0.2474 -0.8360 -0.3443
  158MOL0     H20827   9.318  -1.395   6.494 -1.7324 -0.0267  1.5679
  158MOL0     H20828   9.294  -1.346   6.202 -0.4168 -1.2890 -0.8555
  158MOL0     H20829   9.445  -1.358   6.292  2.2461 -4.1343 -1.9405
  158MOL0     H20830   9.225  -1.557   6.238 -1.1221  0.6693  1.4748
  158MOL0     H20831   9.373  -1.610   6.327  0.0197  0.2008  0.0552
  158MOL0     H20832   9.486  -1.528   6.099 -0.1497  0.6345 -0.2906
  158MOL0     H20833   9.347  -1.573   6.024  0.6574 -0.0835  0.0815
  158MOL0     H20834   9.517  -1.765   6.045 -4.2817 -0.9625 -2.9018
  158MOL0     H20835   9.522  -1.745   6.217  0.9596  0.5833 -0.8496
  158MOL0     H20836   9.269  -1.815   6.229  0.0514 -0.2504 -0.0475
  158MOL0     H20837   9.368  -1.937   6.171  1.2046 -0.3203  0.9520
  158MOL0     H20838   8.911  -1.051   6.689  0.4169 -0.7621 -1.0205
  158MOL0     H20839   8.874  -0.886   6.865  1.2361  2.7586  3.0572
  158MOL0     H20840   9.200  -0.469   7.048 -1.7508 -3.2747 -1.1222
  158MOL0     H20841   9.204  -0.304   7.242  0.2005 -0.4070  0.3650
  158MOL0     H20842  10.062   0.402   7.039 -0.0804  0.0465 -0.1484
  158MOL0     H20843  10.149   0.505   6.837  0.3272 -1.2481  0.6726
  158MOL0     H20844  10.176   0.816   6.503  0.3318 -0.4294 -2.7597
  158MOL0     H20845  10.268   0.920   6.324  1.2071 -0.7100 -0.5197
  158MOL0     H20846  10.722   1.002   6.281  0.2166  0.4691  1.7758
  158MOL0     H20847  10.678   1.168   6.357 -0.4363  1.1406  0.0097
  158MOL0     H20848  10.657   1.047   6.082  0.9801 -0.2089  0.9905
  158MOL0     H20849  10.582   1.204   6.135  0.1831  0.7593 -0.9639
  158MOL0     H20850  10.857   1.098   6.098 -0.3395  1.3270 -0.2202
  158MOL0     H20851  10.832   1.232   6.213 -2.3616  0.5150  1.2456
  158MOL0     H20852  10.774   1.250   5.911  1.2165 -0.4720 -0.8517
  158MOL0     H20853  10.712   1.357   6.036 -0.3432 -0.2858  1.2733
  158MOL0     H20854  11.117   1.480   5.999 -0.5400  0.9699 -1.1294
  158MOL0     H20855  10.633   1.000   6.553  0.1557 -0.6003 -1.9968
  158MOL0     H20856  10.528   0.884   6.747  2.3037 -2.2600 -1.9852
  159MOL0     O20857   1.487   0.670   3.232  0.2867 -0.1291 -0.3297
  159MOL0     C20858   1.436   0.766   3.173  0.0181 -0.3821  0.3308
  159MOL0     O20859   1.321   0.757   3.103  0.0054 -0.2895  0.3278
  159MOL0     C20860   1.277   0.626   3.072 -0.0245 -0.6220 -0.4335
  159MOL0     C20861   1.157   0.589   3.128  0.7399  0.4314  0.0385
  159MOL0     C20862   1.101   0.462   3.114 -0.8576  0.3992  0.9058
  159MOL0     C20863   1.174   0.366   3.043 -0.2452 -0.0173 -0.0022
  159MOL0     O20864   1.103   0.251   3.023 -0.5287 -0.3005 -0.0393
  159MOL0     C20865   1.160   0.135   2.961  0.0009  1.0401  0.8778
  159MOL0     C20866   1.052   0.029   2.942  0.1067 -0.3039  0.0307
  159MOL0     C20867   1.101  -0.106   2.906  0.4117 -0.4040 -0.2494
  159MOL0     C20868   0.973  -0.194   2.882 -0.5293  0.4455  0.5276
  159MOL0     C20869   1.002  -0.335   2.812 -0.2334 -0.2274  0.3995
  159MOL0     C20870   1.022  -0.341   2.662 -0.0322 -0.4798  0.1235
  159MOL0     C20871   0.882  -0.319   2.594 -0.2689 -0.3998 -0.3880
  159MOL0     C20872   0.877  -0.366   2.448  1.1681 -0.0324  0.5839
  159MOL0     N20873   0.917  -0.250   2.367  0.3491 -0.7960 -0.5065
  159MOL0     C20874   0.827  -0.165   2.306 -0.5543  0.2651 -0.3286
  159MOL0     C20875   0.903  -0.098   2.215  0.4110 -1.1214 -0.2422
  159MOL0     C20876   0.873   0.017   2.122 -0.3539 -0.1992 -0.6132
  159MOL0     C20877   0.768  -0.031   2.018 -0.0085 -0.1548 -0.3231
  159MOL0     C20878   0.737   0.076   1.918  0.3054 -0.3688 -0.5718
  159MOL0     C20879   0.639   0.180   1.980  0.7802 -0.1153  0.3957
  159MOL0     O20880   0.618   0.276   1.882 -0.3492  0.2432 -0.1169
  159MOL0     C20881   0.557   0.394   1.899  0.1849  0.3899 -0.0871
  159MOL0     C20882   0.553   0.479   1.781 -0.6440 -0.0517  1.0304
  159MOL0     C20883   0.499   0.615   1.790 -0.4665  0.4870  0.7272
  159MOL0     C20884   0.462   0.654   1.919 -0.0660 -0.8430  0.7421
  159MOL0     C20885   0.411   0.791   1.924  0.1810 -0.0072 -0.3584
  159MOL0     O20886   0.379   0.824   2.057  0.0502  0.2672  0.3414
  159MOL0     C20887   0.333   0.953   2.075  0.0410 -0.1068  0.3319
  159MOL0     C20888   0.213   0.995   2.019 -0.5316 -0.9748  0.1769
  159MOL0     C20889   0.166   1.121   2.049  0.0539 -0.9757  0.4166
  159MOL0     C20890   0.238   1.215   2.130 -0.0040 -0.2490 -1.5625
  159MOL0     O20891   0.192   1.345   2.153  0.1691  0.4402 -0.6622
  159MOL0     C20892   0.267   1.441   2.232  0.6961  1.0065  0.7013
  159MOL0     C20893   0.205   1.574   2.233 -0.5092  0.5063  0.4459
  159MOL0     C20894   0.055   1.605   2.227  0.4834 -0.2189 -0.0730
  159MOL0     C20895  -0.004   1.712   2.318  0.0436  0.0584 -0.0003
  159MOL0     C20896  -0.157   1.717   2.293  1.1589  0.1233 -0.2303
  159MOL0     C20897  -0.235   1.800   2.397  0.3518 -0.0647  0.1547
  159MOL0     C20898  -0.391   1.778   2.389  0.3338 -0.1237  1.2760
  159MOL0     C20899  -0.463   1.891   2.313  0.0888 -0.1031 -0.0413
  159MOL0    Cl20900  -0.391   1.975   2.177 -0.1663 -0.4036 -0.0414
  159MOL0     C20901   0.360   1.170   2.188 -0.8580 -0.6558 -0.4635
  159MOL0     C20902   0.403   1.041   2.162  0.0148 -0.0094  0.6737
  159MOL0     O20903   0.414   0.870   1.830 -0.2500  0.2411 -0.2830
  159MOL0     C20904   0.474   0.571   2.034 -0.5248  0.6379 -0.2791
  159MOL0     C20905   0.515   0.442   2.025 -0.3653  0.1757 -0.3110
  159MOL0     N20906   1.033  -0.145   2.224  0.0629  0.0242 -0.6452
  159MOL0     N20907   1.043  -0.231   2.316  0.8702 -0.0615  0.0583
  159MOL0     C20908   1.300   0.400   2.983  0.9860  0.4782  0.2963
  159MOL0     C20909   1.343   0.531   2.995 -0.5335  0.2641 -0.3908
  159MOL0     C20910   1.504   0.901   3.194  0.0062 -0.2874 -0.2045
  159MOL0     C20911   1.627   0.902   3.259 -0.1403  0.1010 -0.7259
  159MOL0     C20912   1.688   1.025   3.282  0.0873 -0.4476  0.6353
  159MOL0     C20913   1.637   1.140   3.216  0.1021  0.0809 -0.6172
  159MOL0     O20914   1.691   1.260   3.224 -0.3531 -0.0519  0.4114
  159MOL0     C20915   1.820   1.282   3.287  0.0889 -0.4522 -0.6308
  159MOL0     C20916   1.799   1.320   3.427 -0.8986  0.3627 -1.0643
  159MOL0     C20917   1.764   1.459   3.451 -0.1724 -0.9526 -0.8239
  159MOL0     C20918   1.823   1.569   3.358 -0.2656  0.8596 -0.7938
  159MOL0     C20919   1.814   1.709   3.405 -1.1917 -0.0577  0.0508
  159MOL0     C20920   1.821   1.827   3.440  0.2880  0.2820  0.7439
  159MOL0     C20921   1.515   1.134   3.152  0.1535 -0.2142  0.2313
  159MOL0     C20922   1.441   1.016   3.146  0.0375 -0.9396 -0.3190
  159MOL0     H20923   1.100   0.660   3.187 -0.8237  0.2138 -1.1501
  159MOL0     H20924   1.002   0.450   3.156 -1.6356 -0.3279 -0.9823
  159MOL0     H20925   1.239   0.094   3.025  2.3275  1.5755 -1.4727
  159MOL0     H20926   1.200   0.148   2.860  0.0086 -2.5139  0.2962
  159MOL0     H20927   0.998   0.061   2.852 -0.3585 -1.3378 -0.0792
  159MOL0     H20928   0.981   0.023   3.025 -0.7065  0.7758 -0.5572
  159MOL0     H20929   1.168  -0.140   2.985  1.7570  4.2880  0.9419
  159MOL0     H20930   1.166  -0.107   2.818  1.3967  0.5824  0.4402
  159MOL0     H20931   0.926  -0.215   2.978 -0.1669 -1.3373  0.3594
  159MOL0     H20932   0.893  -0.138   2.834  0.8711  2.1056  0.0500
  159MOL0     H20933   0.917  -0.398   2.841 -1.7360  0.9978 -1.0735
  159MOL0     H20934   1.088  -0.375   2.866 -0.5915 -0.4827  0.7885
  159MOL0     H20935   1.073  -0.437   2.649 -0.8226 -0.6721 -2.0007
  159MOL0     H20936   1.096  -0.267   2.630 -0.3725  0.0913  0.6257
  159MOL0     H20937   0.803  -0.371   2.649  0.4550  0.4215  1.5061
  159MOL0     H20938   0.860  -0.212   2.588 -0.9363 -0.4970  0.1532
  159MOL0     H20939   0.774  -0.393   2.424  0.8423 -0.4935  2.3397
  159MOL0     H20940   0.937  -0.456   2.435 -0.8487 -1.1732 -1.6481
  159MOL0     H20941   0.719  -0.156   2.312 -0.5861 -0.7343  1.2927
  159MOL0     H20942   0.971   0.041   2.080  0.9517 -1.4626  1.4748
  159MOL0     H20943   0.839   0.100   2.185  0.4601 -0.9213  0.8511
  159MOL0     H20944   0.679  -0.066   2.070  1.0349 -3.8338 -0.7414
  159MOL0     H20945   0.800  -0.125   1.973 -0.6345 -1.0429  1.0440
  159MOL0     H20946   0.830   0.117   1.878  1.4024 -3.1210 -1.0444
  159MOL0     H20947   0.688   0.026   1.834 -2.7434  0.5625  0.4993
  159MOL0     H20948   0.679   0.219   2.074  1.5151 -2.5151  1.1452
  159MOL0     H20949   0.546   0.124   1.991  1.5593 -1.1151  2.4274
  159MOL0     H20950   0.593   0.454   1.683  0.5154  2.1835  0.8642
  159MOL0     H20951   0.496   0.679   1.702  1.1273  1.4496  1.3288
  159MOL0     H20952   0.167   0.923   1.953 -1.7691  0.9083 -1.1448
  159MOL0     H20953   0.064   1.139   2.018 -1.0457  0.1629  4.1603
  159MOL0     H20954   0.372   1.451   2.201  0.5190 -0.1457 -0.3571
  159MOL0     H20955   0.266   1.410   2.337  0.3064  0.2673  0.4863
  159MOL0     H20956   0.251   1.623   2.147 -2.3456  0.5722 -0.5526
  159MOL0     H20957   0.242   1.619   2.325  0.7357 -1.1382  0.8037
  159MOL0     H20958   0.006   1.509   2.247  0.0096 -0.1084 -0.6861
  159MOL0     H20959   0.026   1.632   2.125 -0.8389 -0.4157  0.2378
  159MOL0     H20960   0.004   1.672   2.419 -0.4861  0.5873  0.2588
  159MOL0     H20961   0.035   1.814   2.313 -0.3219  0.1511 -2.0588
  159MOL0     H20962  -0.193   1.615   2.306 -1.5085  0.7878 -1.7831
  159MOL0     H20963  -0.171   1.751   2.190  3.0229  0.0817 -0.5483
  159MOL0     H20964  -0.201   1.904   2.389 -0.2770  0.0243 -1.8354
  159MOL0     H20965  -0.193   1.765   2.492  3.6127  1.9675 -0.3705
  159MOL0     H20966  -0.403   1.681   2.340 -0.6035  1.6474 -2.3984
  159MOL0     H20967  -0.437   1.767   2.487 -1.2335  0.4615  0.6362
  159MOL0     H20968  -0.476   1.965   2.392  1.0321  0.3676 -0.3022
  159MOL0     H20969  -0.557   1.848   2.277 -0.1708  0.4209  0.0042
  159MOL0     H20970   0.434   1.221   2.249 -0.0300 -3.5666  1.1024
  159MOL0     H20971   0.491   0.999   2.209 -0.4551 -1.2296  0.5005
  159MOL0     H20972   0.449   0.619   2.128  0.1436  1.4201 -0.4844
  159MOL0     H20973   0.511   0.388   2.119 -2.2535 -2.6675 -1.8800
  159MOL0     H20974   1.346   0.326   2.918 -0.7517 -0.4119  0.0164
  159MOL0     H20975   1.431   0.552   2.934 -0.6609 -2.2246 -1.5901
  159MOL0     H20976   1.676   0.815   3.301 -1.7255  0.3176  1.7924
  159MOL0     H20977   1.783   1.022   3.334 -0.2436  0.5204  1.3355
  159MOL0     H20978   1.868   1.360   3.229  3.6667 -1.6354  0.4696
  159MOL0     H20979   1.887   1.195   3.285  0.4133 -0.2931  1.4107
  159MOL0     H20980   1.721   1.254   3.466  0.5386 -0.0728  1.2634
  159MOL0     H20981   1.890   1.282   3.474 -2.6204 -4.0846 -0.8346
  159MOL0     H20982   1.798   1.486   3.551  0.0794 -0.4101 -1.0552
  159MOL0     H20983   1.655   1.459   3.452 -0.2483 -2.4415  2.4357
  159MOL0     H20984   1.930   1.547   3.351  0.3479  2.7717  1.5570
  159MOL0     H20985   1.783   1.564   3.256 -1.5793  2.2133 -0.3841
  159MOL0     H20986   1.837   1.930   3.462 -0.2588  0.4500  0.3731
  159MOL0     H20987   1.467   1.223   3.114 -0.1962  0.2723  1.7388
  159MOL0     H20988   1.344   1.019   3.098 -0.5556  1.0540  0.8663
  160MOL0     O20989   8.443   6.872   7.392 -0.6309 -0.1325  0.4045
  160MOL0     C20990   8.336   6.867   7.451  0.0566  0.3966  0.2699
  160MOL0     O20991   8.315   6.809   7.579 -0.4679  0.5227 -0.5379
  160MOL0     C20992   8.430   6.768   7.642 -0.2124  0.3533  0.2938
  160MOL0     C20993   8.476   6.636   7.654 -0.4676 -0.5342 -0.1728
  160MOL0     C20994   8.595   6.609   7.718 -1.0468 -0.4053  0.7803
  160MOL0     C20995   8.676   6.721   7.773 -0.5038 -0.3715 -0.3237
  160MOL0     O20996   8.794   6.703   7.842 -0.6436 -0.6384  0.2056
  160MOL0     C20997   8.864   6.579   7.834 -0.4973 -0.0486 -0.1284
  160MOL0     C20998   8.980   6.572   7.939 -0.4238 -0.4775 -0.5784
  160MOL0     C20999   8.999   6.428   7.989 -0.2260 -0.2699  0.1149
  160MOL0     C21000   8.878   6.379   8.067  0.1933  0.8309  0.7103
  160MOL0     C21001   8.921   6.243   8.128 -0.0423 -0.3732 -0.1953
  160MOL0     C21002   8.798   6.176   8.188  0.4176 -1.0280 -0.1652
  160MOL0     C21003   8.803   6.032   8.243  0.3173  0.1929  0.4937
  160MOL0     C21004   8.701   5.960   8.171 -0.2332  0.5293  0.0410
  160MOL0     N21005   8.566   5.993   8.218  0.5554 -0.7470 -0.9232
  160MOL0     C21006   8.521   6.038   8.332 -0.5317 -0.5527 -0.4167
  160MOL0     C21007   8.396   6.094   8.322 -0.0161  0.8297  0.2343
  160MOL0     C21008   8.292   6.146   8.415  0.2237  0.2051  1.0324
  160MOL0     C21009   8.203   6.035   8.477  0.2769  0.3452 -0.1932
  160MOL0     C21010   8.124   6.088   8.598 -0.8089 -0.4202 -0.4351
  160MOL0     C21011   8.033   5.993   8.671  0.9755 -0.5275 -0.1140
  160MOL0     O21012   7.944   6.053   8.769  0.2572 -0.3623 -0.2452
  160MOL0     C21013   7.845   5.971   8.831  0.2588  0.5072  1.0776
  160MOL0     C21014   7.744   6.035   8.898 -0.2721  0.3976 -0.0276
  160MOL0     C21015   7.652   5.962   8.960 -0.3116 -0.1838 -0.0579
  160MOL0     C21016   7.649   5.819   8.948 -0.2936 -0.7101 -0.6701
  160MOL0     C21017   7.530   5.740   8.993 -0.0228  0.4245 -0.1571
  160MOL0     O21018   7.414   5.827   9.009 -0.2888 -0.3365 -0.2945
  160MOL0     C21019   7.292   5.767   9.041 -0.4093 -0.0143  0.5321
  160MOL0     C21020   7.215   5.832   9.133  0.1865  0.0928 -0.6722
  160MOL0     C21021   7.098   5.775   9.182  0.4099 -0.1978 -0.0156
  160MOL0     C21022   7.053   5.650   9.130  0.1576 -0.5702 -0.0892
  160MOL0     O21023   6.934   5.605   9.187 -0.5240  0.9989  0.1542
  160MOL0     C21024   6.888   5.472   9.145 -0.6168 -0.4651  0.2886
  160MOL0     C21025   6.765   5.445   9.218 -0.8096  0.5656  0.2589
  160MOL0     C21026   6.705   5.314   9.173  0.0895  1.4978  0.1532
  160MOL0     C21027   6.603   5.281   9.273  0.9252  0.0985 -0.3704
  160MOL0     C21028   6.519   5.163   9.221  0.4490 -0.2624  0.9115
  160MOL0     C21029   6.397   5.127   9.315  0.1080 -0.5878 -0.6321
  160MOL0     C21030   6.282   5.225   9.287 -0.5731  0.7058 -0.1608
  160MOL0     C21031   6.166   5.178   9.373 -0.5020 -0.6466  0.7291
  160MOL0    Cl21032   6.009   5.211   9.301  0.1079  0.0667  0.0771
  160MOL0     C21033   7.128   5.593   9.022  0.6870  0.2530  0.1550
  160MOL0     C21034   7.245   5.650   8.985  0.0891 -0.7405 -0.1339
  160MOL0     O21035   7.541   5.619   9.022 -0.7101 -0.6095 -0.5889
  160MOL0     C21036   7.759   5.760   8.881 -0.0854 -1.0738  0.5379
  160MOL0     C21037   7.847   5.836   8.812 -0.1060 -0.5889  0.1457
  160MOL0     N21038   8.367   6.088   8.181  0.6562  0.1787 -0.7771
  160MOL0     N21039   8.466   6.021   8.129  0.1591 -0.2498 -0.2247
  160MOL0     C21040   8.618   6.851   7.768 -0.0394  0.4560 -0.3328
  160MOL0     C21041   8.499   6.873   7.697  0.5239 -0.2555 -0.1576
  160MOL0     C21042   8.225   6.952   7.402  0.6425 -0.0035  0.7023
  160MOL0     C21043   8.238   6.998   7.269 -0.2084 -0.3323 -0.5685
  160MOL0     C21044   8.140   7.067   7.204 -0.1760  0.8956  0.0284
  160MOL0     C21045   8.019   7.100   7.267  0.0459 -0.4058  0.8606
  160MOL0     O21046   7.928   7.182   7.197  0.2260 -1.1158  0.1833
  160MOL0     C21047   7.816   7.239   7.271 -0.6911  0.0646  0.1582
  160MOL0     C21048   7.710   7.282   7.174 -0.0123 -0.3113  0.8298
  160MOL0     C21049   7.738   7.422   7.118 -0.0607  0.8974 -0.9184
  160MOL0     C21050   7.629   7.484   7.031 -0.1213  0.6189 -0.2530
  160MOL0     C21051   7.576   7.608   7.093 -0.0514 -0.8373 -0.2470
  160MOL0     C21052   7.536   7.720   7.136  0.0737  0.4147 -0.0319
  160MOL0     C21053   7.999   7.055   7.401 -0.8295 -0.0435 -0.5839
  160MOL0     C21054   8.108   6.991   7.476 -0.4431  0.3899  0.4519
  160MOL0     H21055   8.419   6.556   7.609 -0.2024 -1.6037  1.2968
  160MOL0     H21056   8.614   6.503   7.736 -2.7748 -0.6203  1.5416
  160MOL0     H21057   8.912   6.570   7.736  0.6144 -0.7200  0.4670
  160MOL0     H21058   8.791   6.499   7.846 -0.2222 -0.1569  0.8861
  160MOL0     H21059   8.947   6.639   8.019 -2.3366 -1.2624 -0.6579
  160MOL0     H21060   9.072   6.602   7.888 -0.4677  3.5116  1.3411
  160MOL0     H21061   9.092   6.434   8.046 -0.5132  1.2137  0.4626
  160MOL0     H21062   9.009   6.365   7.901  1.3002 -0.3157  0.3002
  160MOL0     H21063   8.829   6.450   8.134 -1.2600 -0.6421  1.2768
  160MOL0     H21064   8.811   6.334   7.993  0.2374 -1.5388  1.9946
  160MOL0     H21065   8.980   6.267   8.218 -1.8384 -0.4778  1.0635
  160MOL0     H21066   8.977   6.183   8.056 -0.4874 -0.9844 -0.0288
  160MOL0     H21067   8.723   6.189   8.110  1.2445 -0.2216 -0.8578
  160MOL0     H21068   8.768   6.240   8.272  1.9987  0.5245 -0.7277
  160MOL0     H21069   8.899   5.984   8.224  1.1716  3.0482 -3.7010
  160MOL0     H21070   8.795   6.031   8.353  1.0753 -1.7790  0.5652
  160MOL0     H21071   8.718   5.852   8.184  0.4574  0.6476  0.1527
  160MOL0     H21072   8.706   5.983   8.064 -1.0578 -2.4195 -0.7445
  160MOL0     H21073   8.568   6.041   8.429 -2.8747 -0.2247  0.7796
  160MOL0     H21074   8.237   6.232   8.376  0.6582 -0.7912 -2.0127
  160MOL0     H21075   8.351   6.188   8.497  0.7821  1.8774 -0.1721
  160MOL0     H21076   8.258   5.947   8.511 -0.0740  0.2253  0.0721
  160MOL0     H21077   8.128   5.994   8.408 -1.3759 -0.0886  1.7759
  160MOL0     H21078   8.195   6.124   8.673 -4.2084  1.5194  2.1163
  160MOL0     H21079   8.066   6.174   8.565  2.6283  2.8089  1.2478
  160MOL0     H21080   8.092   5.910   8.714  0.1247 -0.0153  2.2230
  160MOL0     H21081   7.967   5.953   8.593  1.8969 -1.0318 -0.6565
  160MOL0     H21082   7.730   6.143   8.905  1.0043  0.4768  2.3676
  160MOL0     H21083   7.569   6.006   9.014 -2.1420 -2.9968 -0.4301
  160MOL0     H21084   7.250   5.930   9.163  1.1992 -0.3695 -0.2685
  160MOL0     H21085   7.036   5.824   9.257 -0.2136  0.1973 -0.7801
  160MOL0     H21086   6.963   5.398   9.173  1.6774  0.4927 -2.7938
  160MOL0     H21087   6.875   5.472   9.037 -1.7376 -0.5450  0.4133
  160MOL0     H21088   6.688   5.518   9.194 -0.6413  0.0523 -2.1105
  160MOL0     H21089   6.785   5.438   9.325  1.0005  4.7322  0.3695
  160MOL0     H21090   6.771   5.227   9.170 -0.9495  0.7027 -2.0199
  160MOL0     H21091   6.665   5.324   9.072 -1.3421 -1.3236  0.3571
  160MOL0     H21092   6.640   5.254   9.372 -2.7526 -1.7571  0.6720
  160MOL0     H21093   6.554   5.379   9.284  0.0413 -0.1818 -1.5792
  160MOL0     H21094   6.591   5.081   9.217 -0.9338 -1.5262  0.4831
  160MOL0     H21095   6.471   5.182   9.124  0.5794 -1.7264  0.5408
  160MOL0     H21096   6.427   5.135   9.420 -0.3457  2.3244 -0.6441
  160MOL0     H21097   6.353   5.029   9.292  0.3287 -1.1762  1.2198
  160MOL0     H21098   6.308   5.330   9.302  1.2983  0.7200 -2.8521
  160MOL0     H21099   6.254   5.216   9.181 -3.0180  1.4145  0.3622
  160MOL0     H21100   6.168   5.232   9.468 -4.0171 -1.2979  1.3116
  160MOL0     H21101   6.173   5.074   9.407 -0.9845 -0.4150  1.5713
  160MOL0     H21102   7.094   5.498   8.982  0.9753 -0.1499  0.8453
  160MOL0     H21103   7.295   5.605   8.900  0.7578 -1.3328  0.5560
  160MOL0     H21104   7.752   5.656   8.852 -1.0291 -0.6930 -0.7038
  160MOL0     H21105   7.924   5.785   8.756  0.8265  0.5003  0.3927
  160MOL0     H21106   8.679   6.928   7.813 -0.1839  0.6951 -0.5390
  160MOL0     H21107   8.458   6.972   7.682  0.3912 -0.2729  0.0811
  160MOL0     H21108   8.328   6.972   7.215  1.9045  0.4465  2.3306
  160MOL0     H21109   8.154   7.108   7.105 -0.6001  0.6111 -0.1523
  160MOL0     H21110   7.830   7.308   7.354 -3.3286 -0.6743  1.3100
  160MOL0     H21111   7.775   7.145   7.309  0.8798 -0.5316  0.4340
  160MOL0     H21112   7.712   7.200   7.102 -1.8144 -2.0916  2.6866
  160MOL0     H21113   7.616   7.287   7.228  1.6522 -0.3211  3.9597
  160MOL0     H21114   7.823   7.425   7.049  0.0821  4.1266 -0.7362
  160MOL0     H21115   7.768   7.489   7.198 -0.6958  2.5755 -2.0448
  160MOL0     H21116   7.663   7.502   6.928 -0.2021  1.3187 -0.1599
  160MOL0     H21117   7.542   7.419   7.032 -1.9565  2.9296  1.7389
  160MOL0     H21118   7.508   7.812   7.183 -3.9327  0.7776 -2.5880
  160MOL0     H21119   7.916   7.080   7.466 -0.5586 -0.3646 -0.1107
  160MOL0     H21120   8.100   6.962   7.580  0.4807 -0.2891  0.3456
  161MOL0     O21121   7.977   0.158   7.209  0.0138  0.4887  0.0269
  161MOL0     C21122   7.940   0.216   7.308 -0.7177  0.5648 -0.7519
  161MOL0     O21123   7.991   0.335   7.348  0.3058 -0.3416  0.0007
  161MOL0     C21124   8.081   0.411   7.268  0.8174  0.5815 -0.4283
  161MOL0     C21125   8.157   0.502   7.341  0.4925  0.0610  0.5053
  161MOL0     C21126   8.253   0.589   7.288  0.7423  0.2159 -0.0650
  161MOL0     C21127   8.288   0.579   7.155 -0.1468 -0.1771 -0.5142
  161MOL0     O21128   8.373   0.662   7.090  0.1044 -0.0259  0.1214
  161MOL0     C21129   8.462   0.751   7.155 -0.6362 -0.5096 -0.5492
  161MOL0     C21130   8.520   0.843   7.056 -0.2898 -0.1138 -0.1139
  161MOL0     C21131   8.612   0.957   7.117 -0.3536  0.0425 -0.1315
  161MOL0     C21132   8.546   1.050   7.226  0.2425 -0.1805  0.6499
  161MOL0     C21133   8.653   1.145   7.297 -0.9601 -0.1033  0.3737
  161MOL0     C21134   8.633   1.170   7.448  1.0627  0.8284  0.2541
  161MOL0     C21135   8.676   1.059   7.542 -0.4907  0.5205 -0.7924
  161MOL0     C21136   8.639   1.090   7.691 -0.1972 -0.9623 -0.7238
  161MOL0     N21137   8.735   1.034   7.784  0.0754  0.3407  0.9979
  161MOL0     C21138   8.752   0.899   7.796 -0.3140 -0.8819  0.3255
  161MOL0     C21139   8.842   0.893   7.899  1.4628 -0.7454  0.2916
  161MOL0     C21140   8.898   0.770   7.962 -0.9799 -0.2198  0.9083
  161MOL0     C21141   9.058   0.780   7.981 -0.1450  0.0902 -0.4445
  161MOL0     C21142   9.143   0.820   7.862 -0.6609 -0.9521 -0.5889
  161MOL0     C21143   9.276   0.881   7.915 -0.7077  0.3777 -0.9521
  161MOL0     O21144   9.356   0.764   7.968 -0.4375 -0.0872  0.8516
  161MOL0     C21145   9.492   0.767   7.944 -0.1673 -0.8244  0.5955
  161MOL0     C21146   9.558   0.647   7.959  0.4097  0.1239 -0.3490
  161MOL0     C21147   9.689   0.633   7.907  0.2274 -0.0845 -0.0597
  161MOL0     C21148   9.762   0.747   7.853 -0.1217 -0.5559  0.5973
  161MOL0     C21149   9.901   0.741   7.818  0.1926  0.4002 -0.2856
  161MOL0     O21150   9.957   0.621   7.837 -0.7116 -0.0551 -0.7276
  161MOL0     C21151  10.094   0.624   7.828  0.5191 -0.7942  0.1230
  161MOL0     C21152  10.156   0.623   7.699 -0.4470  0.2403  0.6132
  161MOL0     C21153  10.300   0.636   7.690  0.1765  0.3301  0.7624
  161MOL0     C21154  10.366   0.663   7.802 -0.5548 -0.6643  0.2019
  161MOL0     O21155  10.499   0.690   7.778  0.3780 -0.1680 -0.4311
  161MOL0     C21156  10.567   0.773   7.881  0.9123 -0.1723  0.5465
  161MOL0     C21157  10.670   0.866   7.813  0.5162 -0.4267  1.4142
  161MOL0     C21158  10.602   0.984   7.750 -0.7565 -0.2321 -0.5067
  161MOL0     C21159  10.683   1.118   7.764 -1.1031 -0.0530  0.5361
  161MOL0     C21160  10.670   1.215   7.648 -0.1114 -0.7123 -0.5185
  161MOL0     C21161  10.717   1.359   7.698  0.7036  0.7741 -0.4320
  161MOL0     C21162  10.693   1.464   7.588 -0.7519 -0.2584  0.4995
  161MOL0     C21163  10.800   1.577   7.603 -0.6026  0.8752  0.6376
  161MOL0    Cl21164  10.955   1.532   7.538  0.0812  0.5011 -0.0651
  161MOL0     C21165  10.310   0.661   7.933  0.8808 -0.8097 -0.3625
  161MOL0     C21166  10.163   0.644   7.943  0.0306 -0.1343 -0.9669
  161MOL0     O21167   9.948   0.834   7.757  0.6385 -0.5770 -0.1089
  161MOL0     C21168   9.688   0.862   7.842 -1.3561 -0.5930 -0.0443
  161MOL0     C21169   9.566   0.874   7.896 -0.5564  1.4155 -0.0722
  161MOL0     N21170   8.874   1.026   7.942  1.1734  0.4368  0.0384
  161MOL0     N21171   8.804   1.110   7.873  0.0370 -0.6419  0.0168
  161MOL0     C21172   8.221   0.486   7.075 -0.4536 -0.5788 -0.2800
  161MOL0     C21173   8.113   0.417   7.129  0.4837 -0.6017  0.0753
  161MOL0     C21174   7.838   0.140   7.384  0.1342  0.1730 -0.3291
  161MOL0     C21175   7.807   0.001   7.353  0.3710 -0.3969  0.6913
  161MOL0     C21176   7.693  -0.054   7.406  0.6667 -0.1568 -0.9603
  161MOL0     C21177   7.611   0.022   7.492 -0.4840  0.4761  0.4733
  161MOL0     O21178   7.494  -0.047   7.523  0.2517 -0.1498 -0.5034
  161MOL0     C21179   7.388   0.013   7.608 -0.6727  0.6994  1.1908
  161MOL0     C21180   7.307   0.121   7.536 -0.3239 -0.8262 -0.3954
  161MOL0     C21181   7.202   0.157   7.634 -0.8046  0.9823  0.8463
  161MOL0     C21182   7.234   0.269   7.727  0.0972  0.7902 -0.0527
  161MOL0     C21183   7.119   0.311   7.805  0.3303 -0.3480  0.1194
  161MOL0     C21184   7.008   0.340   7.857  0.7333  0.3085 -0.0557
  161MOL0     C21185   7.648   0.143   7.540  0.0785 -0.0148  0.1674
  161MOL0     C21186   7.752   0.203   7.480 -0.0893  0.7597 -0.0334
  161MOL0     H21187   8.143   0.502   7.448  2.1672  1.9476  0.7857
  161MOL0     H21188   8.295   0.665   7.354 -0.0676  0.0624  0.6301
  161MOL0     H21189   8.546   0.692   7.195 -0.3022 -1.7293 -2.8681
  161MOL0     H21190   8.398   0.806   7.224 -1.1746 -1.3350 -0.3768
  161MOL0     H21191   8.433   0.879   7.000  1.8566 -0.6530 -4.2355
  161MOL0     H21192   8.566   0.790   6.971  0.5981 -2.3180  1.6313
  161MOL0     H21193   8.629   1.022   7.030 -1.9446 -2.2292 -2.3137
  161MOL0     H21194   8.711   0.921   7.146  0.3116  1.3320 -0.7071
  161MOL0     H21195   8.466   1.107   7.178 -0.7589 -1.7114  0.4540
  161MOL0     H21196   8.496   0.984   7.297 -2.3674  2.3044  1.3155
  161MOL0     H21197   8.639   1.240   7.246  3.3048  1.7435  2.2110
  161MOL0     H21198   8.749   1.099   7.271 -1.9900 -2.3796  0.3491
  161MOL0     H21199   8.528   1.196   7.463  0.3287  0.6087 -3.5049
  161MOL0     H21200   8.688   1.263   7.468 -0.1660  1.9782 -1.3848
  161MOL0     H21201   8.649   0.959   7.506  0.1331 -0.0150  0.1875
  161MOL0     H21202   8.785   1.062   7.544 -0.4012 -1.3729  2.0164
  161MOL0     H21203   8.538   1.051   7.708 -0.0145 -1.3677 -0.5643
  161MOL0     H21204   8.629   1.198   7.707 -4.0469 -0.1194 -6.0957
  161MOL0     H21205   8.700   0.813   7.753 -2.9803  0.9382 -0.3432
  161MOL0     H21206   8.874   0.691   7.891 -0.3001  3.4171 -3.9473
  161MOL0     H21207   8.855   0.729   8.054  0.0578 -0.7040  1.1948
  161MOL0     H21208   9.102   0.683   8.003  0.8847 -0.2240 -3.4286
  161MOL0     H21209   9.072   0.841   8.071 -2.2451  2.3294 -1.5053
  161MOL0     H21210   9.156   0.735   7.795 -1.4875 -3.4773  2.2179
  161MOL0     H21211   9.102   0.906   7.808  0.6095 -1.8050 -3.0486
  161MOL0     H21212   9.256   0.953   7.995 -2.8140 -0.4305 -0.6980
  161MOL0     H21213   9.324   0.936   7.834 -0.1610 -0.9401 -1.5587
  161MOL0     H21214   9.509   0.561   8.002  2.3105 -0.5175  0.6604
  161MOL0     H21215   9.737   0.537   7.921 -1.4800 -0.5515  4.3741
  161MOL0     H21216  10.098   0.624   7.607 -0.0384 -0.5932  0.3355
  161MOL0     H21217  10.346   0.631   7.592  2.6492  0.5532  1.8483
  161MOL0     H21218  10.610   0.692   7.941 -1.9793 -2.3223 -0.0434
  161MOL0     H21219  10.505   0.826   7.954  1.0938 -2.2180  2.2840
  161MOL0     H21220  10.718   0.805   7.736 -2.7000 -0.0898 -1.0630
  161MOL0     H21221  10.732   0.901   7.896  2.2660  0.8236 -0.3240
  161MOL0     H21222  10.503   0.999   7.793 -1.9737  2.6406 -3.8324
  161MOL0     H21223  10.595   0.969   7.642  1.1315  0.0399 -0.6998
  161MOL0     H21224  10.663   1.166   7.860 -1.4251 -1.6718  1.3115
  161MOL0     H21225  10.789   1.090   7.767 -0.4388  2.3714  1.7192
  161MOL0     H21226  10.569   1.228   7.610  0.3994  1.3252 -1.3411
  161MOL0     H21227  10.739   1.191   7.567  0.3277 -0.2758 -0.2817
  161MOL0     H21228  10.823   1.344   7.723  0.2051 -0.4059  1.0709
  161MOL0     H21229  10.670   1.398   7.789  1.4869  1.3863 -0.2764
  161MOL0     H21230  10.692   1.404   7.497 -3.4639  1.7626 -0.9204
  161MOL0     H21231  10.597   1.514   7.596 -0.5589  0.9982 -3.1414
  161MOL0     H21232  10.810   1.609   7.707  0.0236 -2.0871  1.5996
  161MOL0     H21233  10.770   1.654   7.532 -3.1718 -2.0120 -1.7069
  161MOL0     H21234  10.357   0.672   8.030 -1.4415  1.2741  0.6216
  161MOL0     H21235  10.118   0.635   8.042  2.4887  0.7145  0.3160
  161MOL0     H21236   9.736   0.953   7.809  1.8164 -1.8221  0.7804
  161MOL0     H21237   9.523   0.974   7.897  0.3065  1.8905 -2.4702
  161MOL0     H21238   8.251   0.477   6.971  0.2087 -0.1685 -0.1355
  161MOL0     H21239   8.057   0.345   7.069 -4.0958 -0.0356  3.1575
  161MOL0     H21240   7.853  -0.046   7.267 -3.5039  0.0550 -1.8665
  161MOL0     H21241   7.657  -0.151   7.372 -0.4041 -0.4016  0.7638
  161MOL0     H21242   7.438   0.054   7.696  1.6976 -1.2790  0.8630
  161MOL0     H21243   7.318  -0.065   7.640 -1.6253  0.3590 -1.4501
  161MOL0     H21244   7.369   0.209   7.516 -2.5750  0.7057 -1.1268
  161MOL0     H21245   7.257   0.073   7.452 -3.8163  0.3631  0.7838
  161MOL0     H21246   7.172   0.069   7.692  3.2371 -0.8443  0.5217
  161MOL0     H21247   7.118   0.190   7.572 -0.5178 -0.5181 -0.4209
  161MOL0     H21248   7.291   0.222   7.807 -0.2237 -0.0961 -0.3395
  161MOL0     H21249   7.278   0.362   7.689  0.1268  0.8994  0.2390
  161MOL0     H21250   6.904   0.357   7.874  0.4717 -2.0369  1.0245
  161MOL0     H21251   7.591   0.192   7.620  0.6512  1.4640 -0.2877
  161MOL0     H21252   7.761   0.309   7.505 -0.3817  1.4649 -2.5870
  162MOL0     O21253   1.773   4.858   5.221 -0.8931 -0.1557  0.0361
  162MOL0     C21254   1.770   4.795   5.328 -0.0071  0.8113 -0.0206
  162MOL0     O21255   1.881   4.733   5.384  0.2343 -0.7622  0.1788
  162MOL0     C21256   1.988   4.719   5.299 -0.3765  0.4469 -0.1370
  162MOL0     C21257   2.107   4.755   5.360  0.3391 -0.3772  0.8553
  162MOL0     C21258   2.224   4.746   5.285  0.1085 -0.3896 -0.4022
  162MOL0     C21259   2.223   4.708   5.151  0.3800  0.5906  0.0595
  162MOL0     O21260   2.332   4.685   5.065  0.9397 -0.1926 -0.2924
  162MOL0     C21261   2.461   4.724   5.111  1.1257  0.4734 -0.2527
  162MOL0     C21262   2.553   4.682   5.005 -0.5622  0.7464  0.3156
  162MOL0     C21263   2.701   4.674   5.044 -0.1326  0.2647  0.1059
  162MOL0     C21264   2.765   4.812   5.066 -0.1528  0.1603 -0.3443
  162MOL0     C21265   2.915   4.793   5.075 -0.6654  0.5899 -1.0055
  162MOL0     C21266   2.991   4.927   5.075  0.3193  0.3000 -0.1088
  162MOL0     C21267   3.131   4.917   5.043 -0.3292  1.1658 -0.6253
  162MOL0     C21268   3.147   4.879   4.894  0.5850 -0.2638 -0.3183
  162MOL0     N21269   3.278   4.914   4.850 -0.5055  0.2808  0.1648
  162MOL0     C21270   3.314   5.044   4.821  0.2154 -0.0706 -0.5582
  162MOL0     C21271   3.446   5.024   4.784  0.1707 -1.0454 -0.0642
  162MOL0     C21272   3.537   5.139   4.741  0.1410 -0.6160  0.2208
  162MOL0     C21273   3.561   5.134   4.588 -0.0493  0.5697 -0.1420
  162MOL0     C21274   3.613   5.261   4.515 -0.1559  0.2222 -0.1938
  162MOL0     C21275   3.741   5.322   4.571  0.2979 -0.1458 -0.1220
  162MOL0     O21276   3.731   5.364   4.707 -0.8901  0.0074 -0.3802
  162MOL0     C21277   3.671   5.473   4.755  0.3093  0.3315 -0.7829
  162MOL0     C21278   3.629   5.460   4.889  0.2088 -1.0042 -0.1585
  162MOL0     C21279   3.565   5.575   4.939  0.8773  0.8223 -0.8172
  162MOL0     C21280   3.527   5.689   4.872  1.1701  0.0232 -0.0865
  162MOL0     C21281   3.456   5.794   4.933 -0.4254 -0.5527  0.2428
  162MOL0     O21282   3.481   5.810   5.063 -0.8431  0.5139  0.6705
  162MOL0     C21283   3.387   5.873   5.146 -0.1421 -0.5824  0.1852
  162MOL0     C21284   3.320   5.991   5.114 -0.1079  1.1764  0.8863
  162MOL0     C21285   3.216   6.035   5.199  0.8713 -0.0335 -0.2151
  162MOL0     C21286   3.180   5.974   5.319 -1.1221  0.1095 -0.8822
  162MOL0     O21287   3.082   6.023   5.405 -0.2412 -0.2396  1.0655
  162MOL0     C21288   3.011   6.137   5.369  0.6068  0.1813 -0.2534
  162MOL0     C21289   2.907   6.094   5.266  0.1099  0.3899  0.7963
  162MOL0     C21290   2.786   6.015   5.337 -0.3108  0.0595 -0.1218
  162MOL0     C21291   2.817   5.865   5.346 -0.7160  0.3556  0.2525
  162MOL0     C21292   2.723   5.785   5.426  1.0292  0.4014 -0.1758
  162MOL0     C21293   2.589   5.748   5.349 -0.7082 -0.0255  0.2073
  162MOL0     C21294   2.483   5.688   5.444 -0.2436 -0.6630 -0.1895
  162MOL0     C21295   2.382   5.620   5.360  1.0557 -0.0496  0.7030
  162MOL0    Cl21296   2.228   5.604   5.460 -0.5202  0.0504  0.1810
  162MOL0     C21297   3.255   5.851   5.357  0.0870  0.2263  0.7476
  162MOL0     C21298   3.355   5.812   5.269  0.6492  0.1715  0.7116
  162MOL0     O21299   3.370   5.856   4.872 -0.1078 -0.4950  0.1256
  162MOL0     C21300   3.551   5.692   4.737 -0.3625  0.6587  1.3889
  162MOL0     C21301   3.635   5.593   4.682 -0.0016  0.2016  0.2893
  162MOL0     N21302   3.479   4.893   4.799 -0.2034 -0.3267  0.3548
  162MOL0     N21303   3.384   4.825   4.851 -0.1901 -0.8514 -0.6471
  162MOL0     C21304   2.104   4.683   5.088  0.5240  0.3891  0.4664
  162MOL0     C21305   1.990   4.688   5.164  0.4647  0.4203 -0.4243
  162MOL0     C21306   1.640   4.787   5.397 -0.6220 -0.1700 -0.4317
  162MOL0     C21307   1.538   4.884   5.366  0.1171  0.0497  0.7700
  162MOL0     C21308   1.419   4.888   5.435 -0.1338  0.1411  0.1870
  162MOL0     C21309   1.381   4.782   5.522 -1.0231 -0.1526  0.8093
  162MOL0     O21310   1.260   4.792   5.595 -0.3814  0.0477  0.0829
  162MOL0     C21311   1.162   4.706   5.536  0.3853 -0.0632  0.2558
  162MOL0     C21312   1.110   4.766   5.408  0.0487  1.1228 -0.3227
  162MOL0     C21313   1.108   4.668   5.306  1.0871  0.0441 -0.5160
  162MOL0     C21314   1.014   4.705   5.197 -1.2569  0.4308 -0.3947
  162MOL0     C21315   1.037   4.616   5.080  0.3259 -0.8961 -0.2842
  162MOL0     C21316   1.038   4.529   4.999 -0.3058  0.4186 -0.4057
  162MOL0     C21317   1.473   4.679   5.546 -1.2649 -0.3148  1.2751
  162MOL0     C21318   1.606   4.680   5.475  0.9288  1.2600  0.0683
  162MOL0     H21319   2.109   4.792   5.462 -1.4521 -0.0655  0.7991
  162MOL0     H21320   2.317   4.778   5.331 -0.4938 -0.1758  0.7050
  162MOL0     H21321   2.482   4.677   5.207 -1.7764 -3.4043 -1.2803
  162MOL0     H21322   2.457   4.833   5.119 -0.9245  0.4902 -0.8637
  162MOL0     H21323   2.538   4.740   4.914 -0.0826  0.9520  0.3659
  162MOL0     H21324   2.531   4.575   4.999 -1.3299  0.9511 -0.8849
  162MOL0     H21325   2.753   4.621   4.963  0.6439 -0.0825  0.8110
  162MOL0     H21326   2.713   4.618   5.137  1.1162 -0.8302 -0.6729
  162MOL0     H21327   2.739   4.883   4.987  0.2797  0.3218 -0.3439
  162MOL0     H21328   2.739   4.845   5.167 -2.0972 -0.9173 -0.4450
  162MOL0     H21329   2.949   4.726   4.996 -1.6507 -1.4732  0.2491
  162MOL0     H21330   2.931   4.734   5.165 -1.5607 -2.0680 -2.4832
  162MOL0     H21331   2.983   4.974   5.174 -0.8283  3.8598 -1.7296
  162MOL0     H21332   2.947   5.000   5.006  0.3365  0.4202  0.0055
  162MOL0     H21333   3.193   5.003   5.070  1.7345 -0.1267 -1.0677
  162MOL0     H21334   3.174   4.829   5.092 -1.5684  0.7887 -0.1584
  162MOL0     H21335   3.075   4.925   4.825  1.1632  1.0518 -0.0826
  162MOL0     H21336   3.138   4.771   4.884  0.9756 -0.5130  1.6492
  162MOL0     H21337   3.257   5.136   4.820  1.8535  1.0011  0.5741
  162MOL0     H21338   3.632   5.130   4.796 -0.0792 -1.9731  0.4203
  162MOL0     H21339   3.490   5.236   4.758 -0.4434 -0.5684 -1.5095
  162MOL0     H21340   3.466   5.114   4.538  0.3181  1.1408 -1.0901
  162MOL0     H21341   3.634   5.055   4.565 -1.0622 -0.4360  0.0130
  162MOL0     H21342   3.651   5.243   4.414  1.8090  0.2673  0.4928
  162MOL0     H21343   3.535   5.337   4.507  1.5542  2.0480 -0.3315
  162MOL0     H21344   3.776   5.410   4.517  1.3963 -0.6137 -0.2008
  162MOL0     H21345   3.818   5.244   4.569 -0.9129 -1.3629 -0.6924
  162MOL0     H21346   3.663   5.380   4.954  1.3048  0.0636  0.6143
  162MOL0     H21347   3.549   5.571   5.047 -0.8799  2.8292 -0.9404
  162MOL0     H21348   3.344   6.038   5.020  5.0491  0.7970  1.6914
  162MOL0     H21349   3.153   6.116   5.162 -2.0081 -1.7506  0.6178
  162MOL0     H21350   3.082   6.212   5.334  0.5440 -0.2209 -1.2574
  162MOL0     H21351   2.974   6.192   5.456  3.2000 -0.6540  1.5050
  162MOL0     H21352   2.950   6.031   5.188 -1.2498  0.7928 -0.3182
  162MOL0     H21353   2.874   6.186   5.217 -0.4482 -1.2288 -2.0518
  162MOL0     H21354   2.693   6.023   5.280 -0.1328  2.6794 -0.1442
  162MOL0     H21355   2.767   6.057   5.436 -5.0646 -2.5802  0.4031
  162MOL0     H21356   2.831   5.817   5.249 -0.0371 -1.8180  1.3565
  162MOL0     H21357   2.915   5.852   5.392  1.0293 -1.1004 -3.5221
  162MOL0     H21358   2.700   5.841   5.517 -0.8133 -0.7022  0.1101
  162MOL0     H21359   2.762   5.691   5.466 -0.7506 -0.0619  0.5919
  162MOL0     H21360   2.617   5.685   5.264  0.2254 -1.3766  1.4714
  162MOL0     H21361   2.549   5.840   5.306 -0.3532 -0.4044 -0.9938
  162MOL0     H21362   2.522   5.612   5.513  1.5357  0.5000  0.1512
  162MOL0     H21363   2.438   5.764   5.508  0.8436 -0.2221  0.0714
  162MOL0     H21364   2.410   5.523   5.319 -1.4035  0.5661 -2.8910
  162MOL0     H21365   2.372   5.685   5.272 -0.5060 -1.7895 -0.4717
  162MOL0     H21366   3.238   5.797   5.450 -1.3526 -0.7496 -0.0260
  162MOL0     H21367   3.414   5.733   5.314 -0.4270  0.3835  2.5958
  162MOL0     H21368   3.523   5.778   4.678 -1.0599  0.0371  0.7929
  162MOL0     H21369   3.663   5.604   4.577  0.1640 -0.5401  0.2546
  162MOL0     H21370   2.107   4.648   4.985  1.5337 -0.3150  0.7184
  162MOL0     H21371   1.895   4.679   5.112 -0.7505  2.8273  1.2134
  162MOL0     H21372   1.554   4.931   5.270  0.5599  0.1585  0.8975
  162MOL0     H21373   1.357   4.973   5.410  0.2871  0.6891  0.9628
  162MOL0     H21374   1.081   4.689   5.607  0.3343  4.3012  1.5962
  162MOL0     H21375   1.213   4.610   5.524  1.0632  0.3393 -0.2112
  162MOL0     H21376   1.009   4.799   5.438  0.4086  0.7393  1.4274
  162MOL0     H21377   1.162   4.858   5.380  0.7498  1.7126  2.5999
  162MOL0     H21378   1.085   4.568   5.343 -1.2427  0.7557  0.1835
  162MOL0     H21379   1.213   4.665   5.278  1.3531  0.4961  0.3866
  162MOL0     H21380   0.913   4.698   5.238 -0.5941  0.7449  1.3848
  162MOL0     H21381   1.027   4.805   5.156  5.4063 -0.2161 -0.8946
  162MOL0     H21382   1.042   4.448   4.929  1.1829  0.4314 -0.3743
  162MOL0     H21383   1.457   4.604   5.622 -0.5259 -1.2451  0.5492
  162MOL0     H21384   1.687   4.616   5.509 -0.3085  0.9236  2.6535
  163MOL0     O21385   0.938   5.179   0.292 -1.0241 -0.0193  0.4947
  163MOL0     C21386   1.017   5.275   0.286  0.1743  1.1758 -0.3601
  163MOL0     O21387   1.146   5.273   0.334  0.6063 -0.5628 -0.0148
  163MOL0     C21388   1.204   5.159   0.373 -0.1132  0.2268 -0.3445
  163MOL0     C21389   1.185   5.036   0.310  0.3107 -0.0289 -0.2995
  163MOL0     C21390   1.243   4.916   0.355 -0.7447  0.9656  0.6282
  163MOL0     C21391   1.317   4.913   0.475 -0.0345 -0.4193 -1.3581
  163MOL0     O21392   1.401   4.805   0.514  0.1410 -0.2320 -1.0133
  163MOL0     C21393   1.521   4.834   0.591  0.1572 -0.2709  0.4164
  163MOL0     C21394   1.601   4.714   0.570 -0.4507 -0.3750 -0.0274
  163MOL0     C21395   1.753   4.734   0.601 -0.0125 -1.2152  1.0855
  163MOL0     C21396   1.845   4.619   0.558  1.4243  0.4321  1.0151
  163MOL0     C21397   1.992   4.644   0.605 -0.1880 -0.8573 -0.0978
  163MOL0     C21398   2.061   4.523   0.553 -0.3640  0.3952 -0.8142
  163MOL0     C21399   2.212   4.513   0.573 -0.8236  0.1464  0.5645
  163MOL0     C21400   2.243   4.492   0.721  0.1164  0.7787 -0.7504
  163MOL0     N21401   2.386   4.474   0.745  0.2556  0.0403  0.0718
  163MOL0     C21402   2.490   4.562   0.732  0.8850 -0.5319 -0.3502
  163MOL0     C21403   2.603   4.494   0.758 -0.5352 -0.0803 -0.4726
  163MOL0     C21404   2.737   4.561   0.772 -0.9670 -0.1644  0.8076
  163MOL0     C21405   2.831   4.511   0.665  1.1212  0.5716  1.2362
  163MOL0     C21406   2.863   4.358   0.687  0.1228 -0.0850 -0.1265
  163MOL0     C21407   2.970   4.332   0.798  0.8503 -0.1900  0.3090
  163MOL0     O21408   2.989   4.184   0.795  0.2756  0.6729  0.3616
  163MOL0     C21409   3.110   4.148   0.847 -0.5171 -0.4252  0.1024
  163MOL0     C21410   3.232   4.187   0.795  0.1896  0.7568  0.6447
  163MOL0     C21411   3.345   4.128   0.856  0.8348 -0.5521 -0.8048
  163MOL0     C21412   3.344   4.039   0.962 -0.0319  0.0179  0.1391
  163MOL0     C21413   3.464   3.991   1.035 -0.2436  0.5563 -1.1803
  163MOL0     O21414   3.457   3.937   1.160  0.3969 -0.7972  0.0405
  163MOL0     C21415   3.566   3.887   1.223 -0.2128  0.8014 -0.1126
  163MOL0     C21416   3.634   3.954   1.324  0.1802  0.6413  0.4550
  163MOL0     C21417   3.745   3.896   1.395  0.5752 -0.4334  0.1607
  163MOL0     C21418   3.786   3.774   1.360 -0.0876 -0.4328  0.1291
  163MOL0     O21419   3.901   3.713   1.410 -0.0917  0.1650 -0.0001
  163MOL0     C21420   3.979   3.769   1.512 -0.7889 -0.1707  0.2417
  163MOL0     C21421   4.095   3.666   1.539  0.5341 -0.0517 -0.1341
  163MOL0     C21422   4.200   3.727   1.635  0.9619  1.2311 -0.5200
  163MOL0     C21423   4.303   3.619   1.672  0.2539  0.3682 -0.4770
  163MOL0     C21424   4.404   3.675   1.777 -0.9487  0.0511  0.1159
  163MOL0     C21425   4.511   3.767   1.703  0.0811 -0.3382  0.1993
  163MOL0     C21426   4.652   3.720   1.741 -1.0052 -0.1364  0.2665
  163MOL0     C21427   4.762   3.789   1.669  0.5402 -0.5192  0.1386
  163MOL0    Cl21428   4.902   3.713   1.728  0.0976  0.1603  0.2661
  163MOL0     C21429   3.721   3.710   1.255 -0.4686  0.0268  0.7718
  163MOL0     C21430   3.604   3.752   1.196  0.0732 -0.3626 -0.0156
  163MOL0     O21431   3.560   3.996   0.964 -0.5129 -1.0572 -0.1493
  163MOL0     C21432   3.210   4.000   1.001  0.7939  0.3726 -0.1181
  163MOL0     C21433   3.099   4.056   0.946  0.0003 -0.2982 -0.3264
  163MOL0     N21434   2.562   4.357   0.783 -0.6655 -0.6340  0.7168
  163MOL0     N21435   2.437   4.346   0.770 -0.0632  0.2550  0.3448
  163MOL0     C21436   1.326   5.033   0.547  0.6608 -0.7861  0.2048
  163MOL0     C21437   1.267   5.151   0.498  0.6125 -0.1335 -0.4006
  163MOL0     C21438   0.967   5.402   0.224 -1.4067 -0.1662 -0.3911
  163MOL0     C21439   0.842   5.449   0.238  0.0146 -0.1177 -1.0079
  163MOL0     C21440   0.806   5.580   0.192  0.4368 -1.5431 -0.5242
  163MOL0     C21441   0.909   5.657   0.134 -0.2078  0.0171  0.2147
  163MOL0     O21442   0.891   5.789   0.090  0.4526 -0.1723  0.5167
  163MOL0     C21443   0.914   5.883   0.190  0.4793 -0.4661 -0.5953
  163MOL0     C21444   0.985   6.005   0.145 -0.1627  0.6650 -0.5443
  163MOL0     C21445   0.993   6.113   0.256 -0.7470 -0.0533 -0.5758
  163MOL0     C21446   1.073   6.232   0.201 -0.5022  0.1685  0.6911
  163MOL0     C21447   1.219   6.203   0.169 -0.2889  0.3330 -0.1067
  163MOL0     C21448   1.332   6.178   0.143  1.1302  0.1236  1.2072
  163MOL0     C21449   1.033   5.603   0.110 -0.3313 -0.7839  0.3077
  163MOL0     C21450   1.061   5.478   0.154  0.2236  0.1176 -0.4285
  163MOL0     H21451   1.132   5.024   0.216  0.6191 -1.8245 -0.2721
  163MOL0     H21452   1.237   4.827   0.293  0.4689  0.3640  1.3437
  163MOL0     H21453   1.509   4.852   0.698 -0.3796 -3.5094  1.0189
  163MOL0     H21454   1.573   4.917   0.543 -2.0384 -1.2687 -4.2280
  163MOL0     H21455   1.590   4.685   0.465  1.2135  0.2401 -0.4085
  163MOL0     H21456   1.554   4.634   0.627 -1.1054 -0.6740 -0.9690
  163MOL0     H21457   1.762   4.737   0.710  1.9410 -2.1364  1.0058
  163MOL0     H21458   1.791   4.826   0.555  0.1559 -1.7286  0.1764
  163MOL0     H21459   1.806   4.523   0.592 -1.3534  0.4386 -1.7057
  163MOL0     H21460   1.847   4.623   0.448  2.4938  0.7838  1.0379
  163MOL0     H21461   1.996   4.645   0.714  1.2548 -0.4973 -0.1339
  163MOL0     H21462   2.024   4.739   0.560 -0.8678  1.8122  4.4084
  163MOL0     H21463   2.030   4.513   0.449 -0.6792  0.7630 -0.7570
  163MOL0     H21464   2.020   4.435   0.604  1.0345  0.1566 -0.0609
  163MOL0     H21465   2.245   4.422   0.521 -2.2664 -0.8697  1.3658
  163MOL0     H21466   2.269   4.601   0.540 -2.0546  0.6511 -0.3169
  163MOL0     H21467   2.207   4.396   0.761  3.4442  0.2766  1.4130
  163MOL0     H21468   2.210   4.574   0.786  0.7340 -0.4772  1.2549
  163MOL0     H21469   2.471   4.668   0.719 -1.4320 -0.4148  2.8082
  163MOL0     H21470   2.785   4.544   0.869  1.2330  5.1231  0.9732
  163MOL0     H21471   2.735   4.669   0.762  0.5689 -0.3524 -3.2018
  163MOL0     H21472   2.925   4.565   0.654  2.3030 -1.4082  1.1687
  163MOL0     H21473   2.775   4.510   0.571  2.7633 -0.2310  0.2211
  163MOL0     H21474   2.779   4.288   0.685  0.6714 -0.7341 -1.2294
  163MOL0     H21475   2.923   4.333   0.600  1.0484  1.8786 -0.1054
  163MOL0     H21476   2.925   4.373   0.889 -0.2253 -0.0840 -0.2559
  163MOL0     H21477   3.062   4.391   0.791  0.2085  0.6781 -1.2644
  163MOL0     H21478   3.246   4.246   0.705  2.0813 -2.6043 -1.4956
  163MOL0     H21479   3.440   4.141   0.807  0.4417 -1.6137 -1.8767
  163MOL0     H21480   3.593   4.049   1.356 -2.4265 -0.8443  1.8328
  163MOL0     H21481   3.792   3.951   1.476  0.5259  1.9005 -1.3077
  163MOL0     H21482   3.919   3.795   1.600  0.3660 -4.3098  2.4878
  163MOL0     H21483   4.033   3.859   1.481 -2.6963  1.6331  1.7934
  163MOL0     H21484   4.139   3.647   1.441  0.8861 -1.9270  0.3489
  163MOL0     H21485   4.046   3.583   1.593 -1.0001  0.7326 -0.2591
  163MOL0     H21486   4.158   3.759   1.731  1.4663 -1.9356  0.9016
  163MOL0     H21487   4.244   3.817   1.591  2.8070  1.0298  0.7863
  163MOL0     H21488   4.260   3.527   1.714  2.7180 -1.7881 -2.3594
  163MOL0     H21489   4.358   3.592   1.582  1.5661  1.1352  0.0725
  163MOL0     H21490   4.451   3.591   1.828 -2.9048 -0.1368  1.7331
  163MOL0     H21491   4.365   3.739   1.857  1.9082 -0.5141  2.1416
  163MOL0     H21492   4.501   3.866   1.748 -5.9691 -0.1074 -0.8616
  163MOL0     H21493   4.502   3.772   1.594 -0.2623  0.7595  0.2630
  163MOL0     H21494   4.659   3.752   1.846 -1.4188  0.1987  0.1954
  163MOL0     H21495   4.648   3.611   1.726 -0.2459 -0.1016 -0.2290
  163MOL0     H21496   4.770   3.893   1.700  0.5759 -0.4299 -0.1694
  163MOL0     H21497   4.753   3.777   1.560  1.1131 -0.6630  0.1034
  163MOL0     H21498   3.762   3.616   1.219 -5.4728 -1.3114 -2.4051
  163MOL0     H21499   3.549   3.703   1.116 -1.6741  1.1537  0.1970
  163MOL0     H21500   3.203   3.941   1.091  0.1385  2.5883  1.3641
  163MOL0     H21501   3.001   4.036   0.987  0.3672 -0.1480  0.6682
  163MOL0     H21502   1.372   5.052   0.643  0.3042 -0.3008  0.2865
  163MOL0     H21503   1.270   5.240   0.560  2.0639 -1.2033  1.1483
  163MOL0     H21504   0.761   5.387   0.275  1.3646 -2.9543 -2.4819
  163MOL0     H21505   0.708   5.616   0.221 -1.0854 -3.0943 -3.2986
  163MOL0     H21506   0.963   5.845   0.279 -0.4983  3.0778  1.6694
  163MOL0     H21507   0.820   5.932   0.220  1.5345  0.5518  1.1806
  163MOL0     H21508   1.083   5.975   0.109 -1.2980 -2.2707 -1.4818
  163MOL0     H21509   0.934   6.053   0.061  1.3185 -0.2578 -2.0125
  163MOL0     H21510   1.063   6.094   0.337 -1.5541  1.4367  0.5197
  163MOL0     H21511   0.904   6.154   0.304  1.3624  0.7294  2.9898
  163MOL0     H21512   1.026   6.263   0.107 -0.9935 -0.1359  0.8341
  163MOL0     H21513   1.066   6.320   0.266 -0.9566  1.7237 -1.3839
  163MOL0     H21514   1.437   6.169   0.122  0.4378  0.0913 -3.2541
  163MOL0     H21515   1.115   5.668   0.081 -1.6538  1.4981  1.3971
  163MOL0     H21516   1.155   5.426   0.139 -1.6743 -3.0888 -2.7492
  164MOL0     O21517   3.333   8.505   4.928 -0.5481 -0.1577 -0.3346
  164MOL0     C21518   3.310   8.413   5.008  0.3290 -0.0740 -0.0089
  164MOL0     O21519   3.206   8.318   4.989 -0.7402  0.0327  0.2356
  164MOL0     C21520   3.132   8.329   4.876 -0.9150  0.7039 -0.1542
  164MOL0     C21521   3.185   8.278   4.754 -0.1572  1.0656  0.0226
  164MOL0     C21522   3.113   8.284   4.639  0.4751  0.2891  0.2721
  164MOL0     C21523   2.992   8.352   4.638 -0.0433 -0.7147 -0.4164
  164MOL0     O21524   2.929   8.375   4.520 -0.3382  0.0950 -0.2692
  164MOL0     C21525   2.821   8.470   4.516 -1.0913  0.4040  0.3634
  164MOL0     C21526   2.772   8.467   4.374  0.6843  0.0784  0.2826
  164MOL0     C21527   2.651   8.560   4.353  0.8125  0.7947  0.1435
  164MOL0     C21528   2.594   8.566   4.210  0.6561  0.3232 -0.1075
  164MOL0     C21529   2.452   8.610   4.211  1.2248 -0.2901  0.3390
  164MOL0     C21530   2.384   8.597   4.074 -0.4443 -0.3950  1.0139
  164MOL0     C21531   2.267   8.690   4.045  0.2967  0.2114 -0.7425
  164MOL0     C21532   2.230   8.689   3.897  0.8075  0.5668  0.0263
  164MOL0     N21533   2.101   8.756   3.892 -0.3660  0.3066 -0.0228
  164MOL0     C21534   2.089   8.879   3.833  1.6096  0.6424 -0.2650
  164MOL0     C21535   1.954   8.897   3.837  0.1208  0.7995 -0.2279
  164MOL0     C21536   1.895   9.017   3.790  1.3357  0.3269 -0.4414
  164MOL0     C21537   1.819   8.980   3.665 -0.9952 -0.5598  0.5892
  164MOL0     C21538   1.789   9.103   3.574  0.1879 -0.4839 -0.0619
  164MOL0     C21539   1.675   9.185   3.642 -0.2479  1.1797 -0.6265
  164MOL0     O21540   1.617   9.269   3.541  0.4032  1.2180 -0.1313
  164MOL0     C21541   1.495   9.321   3.566  0.6667  0.0234 -0.0415
  164MOL0     C21542   1.419   9.316   3.684 -0.1020  0.1062  0.1704
  164MOL0     C21543   1.298   9.381   3.701  0.9324  0.6311 -0.3630
  164MOL0     C21544   1.243   9.442   3.583  0.6550 -0.3178  1.2367
  164MOL0     C21545   1.111   9.512   3.575  1.4623 -0.1041  0.4084
  164MOL0     O21546   1.014   9.483   3.680 -0.3760 -0.2585 -0.0579
  164MOL0     C21547   0.891   9.547   3.665  0.1171  0.3931 -0.7564
  164MOL0     C21548   0.872   9.686   3.646 -0.0499  0.2454  0.1640
  164MOL0     C21549   0.745   9.747   3.634 -1.1292  0.5351 -0.1909
  164MOL0     C21550   0.628   9.666   3.649  0.0855 -1.7104 -0.7827
  164MOL0     O21551   0.512   9.738   3.653  0.6191  0.5314 -0.7943
  164MOL0     C21552   0.396   9.686   3.705  0.9333 -1.1197  0.1541
  164MOL0     C21553   0.398   9.695   3.863 -0.1011  0.7701  0.6460
  164MOL0     C21554   0.418   9.828   3.920 -0.1560 -0.4509  0.1254
  164MOL0     C21555   0.396   9.836   4.070  0.5997 -1.3066  0.2169
  164MOL0     C21556   0.453   9.714   4.154  0.4717  1.1227 -0.3313
  164MOL0     C21557   0.401   9.739   4.304 -0.1530 -0.5646  0.0019
  164MOL0     C21558   0.416   9.626   4.405  0.2193  0.2876 -0.1398
  164MOL0     C21559   0.376   9.643   4.559 -0.8651 -0.4756  1.1305
  164MOL0    Cl21560   0.200   9.641   4.594  0.2462  0.4500 -0.0317
  164MOL0     C21561   0.641   9.528   3.673  0.4726 -0.4108  0.0752
  164MOL0     C21562   0.769   9.473   3.683  0.5648 -0.6407 -0.9770
  164MOL0     O21563   1.091   9.600   3.490 -0.0557  0.2913 -0.0891
  164MOL0     C21564   1.321   9.451   3.465  0.1432 -0.2294  0.2657
  164MOL0     C21565   1.449   9.385   3.452  0.1968 -0.9904  0.3593
  164MOL0     N21566   1.893   8.781   3.876  0.0269  0.1661 -0.1910
  164MOL0     N21567   1.982   8.694   3.911  0.3300 -0.1642 -0.7490
  164MOL0     C21568   2.942   8.405   4.758 -0.6027  0.3445 -0.2718
  164MOL0     C21569   3.007   8.384   4.880  0.3109  0.0022  0.1815
  164MOL0     C21570   3.391   8.401   5.125  0.4236 -0.4915 -0.2121
  164MOL0     C21571   3.352   8.313   5.231  0.1684 -0.4039 -0.7499
  164MOL0     C21572   3.421   8.306   5.347  0.6964  0.0568  0.6870
  164MOL0     C21573   3.555   8.344   5.346 -0.0941 -0.0541  0.3141
  164MOL0     O21574   3.645   8.316   5.449  0.7209  0.1095  0.0977
  164MOL0     C21575   3.656   8.406   5.551  0.1245 -0.2064  0.5931
  164MOL0     C21576   3.639   8.342   5.685  0.2835 -0.2003 -0.3830
  164MOL0     C21577   3.732   8.222   5.701 -0.1030 -0.2100 -0.1440
  164MOL0     C21578   3.701   8.143   5.837 -0.4869 -0.9489  0.2325
  164MOL0     C21579   3.723   8.227   5.955 -0.3328 -0.9260 -1.0098
  164MOL0     C21580   3.747   8.304   6.045 -0.8644 -0.7906  0.4001
  164MOL0     C21581   3.602   8.428   5.244  0.5711  0.1095 -0.0271
  164MOL0     C21582   3.517   8.463   5.141 -1.1425  0.7398 -0.5535
  164MOL0     H21583   3.281   8.227   4.755 -0.4906  0.3295  2.8502
  164MOL0     H21584   3.134   8.233   4.546  2.1057 -3.4743  2.4685
  164MOL0     H21585   2.856   8.573   4.528 -0.4510  0.2653 -0.2529
  164MOL0     H21586   2.743   8.455   4.592 -0.4037  1.6763  1.3532
  164MOL0     H21587   2.748   8.363   4.349 -3.5024  1.0865 -0.7035
  164MOL0     H21588   2.856   8.490   4.307  0.9133 -3.1702 -0.7437
  164MOL0     H21589   2.678   8.664   4.370 -1.4983  1.4528  0.1004
  164MOL0     H21590   2.578   8.543   4.432  0.4945 -0.7843 -0.4525
  164MOL0     H21591   2.646   8.643   4.152  0.0900  1.1127  0.4035
  164MOL0     H21592   2.593   8.471   4.157 -0.4580 -0.5999  1.4767
  164MOL0     H21593   2.429   8.711   4.246  0.6744  0.4479 -1.9941
  164MOL0     H21594   2.398   8.548   4.284  1.6325 -2.1453 -0.8678
  164MOL0     H21595   2.366   8.490   4.058 -2.1643  0.0104 -0.0946
  164MOL0     H21596   2.464   8.624   4.004  0.0254 -3.0510  0.4102
  164MOL0     H21597   2.180   8.656   4.102  1.0985 -2.0956 -0.7790
  164MOL0     H21598   2.289   8.796   4.060  2.7952 -0.3573 -0.0275
  164MOL0     H21599   2.213   8.588   3.858  0.9588  0.8236 -0.7265
  164MOL0     H21600   2.308   8.739   3.838 -0.1216  0.8035 -1.0334
  164MOL0     H21601   2.171   8.938   3.792  1.0909  1.3117 -0.3599
  164MOL0     H21602   1.976   9.088   3.773  2.9448 -1.1027  0.8717
  164MOL0     H21603   1.835   9.060   3.871  1.1808  0.9916 -0.9079
  164MOL0     H21604   1.725   8.929   3.687  0.0198 -1.7685  2.3278
  164MOL0     H21605   1.873   8.921   3.591 -1.7908 -0.5446 -0.0295
  164MOL0     H21606   1.880   9.164   3.562 -1.6743  2.1912 -1.6766
  164MOL0     H21607   1.766   9.085   3.469  0.3724  0.9483 -0.3727
  164MOL0     H21608   1.716   9.255   3.715  0.6321 -0.1480  0.1956
  164MOL0     H21609   1.603   9.127   3.702  1.4275 -1.6648 -1.1973
  164MOL0     H21610   1.458   9.270   3.774  0.1949 -1.5834 -0.7799
  164MOL0     H21611   1.246   9.374   3.796  0.0881  2.3348 -0.6662
  164MOL0     H21612   0.959   9.751   3.641 -2.4834  3.7384 -0.7595
  164MOL0     H21613   0.748   9.851   3.603  1.5349  0.2887 -0.9554
  164MOL0     H21614   0.376   9.590   3.656  2.1782  0.0857 -2.9108
  164MOL0     H21615   0.316   9.751   3.670  1.6052 -1.8007 -2.8805
  164MOL0     H21616   0.473   9.620   3.890  1.2415  0.8196 -2.5385
  164MOL0     H21617   0.299   9.658   3.892  0.1902  0.0804  0.7843
  164MOL0     H21618   0.347   9.889   3.864  1.2134  0.0288 -1.1297
  164MOL0     H21619   0.521   9.853   3.894 -0.8073  3.9622  1.0716
  164MOL0     H21620   0.431   9.931   4.110  1.1357 -0.3670 -2.3046
  164MOL0     H21621   0.288   9.839   4.087  0.6675  4.1776  1.2474
  164MOL0     H21622   0.562   9.719   4.159  0.5466 -0.3700 -0.2246
  164MOL0     H21623   0.412   9.619   4.119  0.2317  0.5054  1.5231
  164MOL0     H21624   0.298   9.774   4.303  0.3313  0.9567  0.8281
  164MOL0     H21625   0.455   9.829   4.334 -1.1960  0.5501 -1.3245
  164MOL0     H21626   0.350   9.544   4.376 -3.0008  1.3858  3.3078
  164MOL0     H21627   0.522   9.596   4.405  0.4081  0.8897  0.6861
  164MOL0     H21628   0.425   9.729   4.606 -2.2021 -0.4377  2.5475
  164MOL0     H21629   0.421   9.554   4.604 -1.5831 -2.7634 -2.3170
  164MOL0     H21630   0.555   9.464   3.693  0.7059 -0.3388  1.3915
  164MOL0     H21631   0.785   9.368   3.704  2.0569 -0.3019 -0.3412
  164MOL0     H21632   1.290   9.495   3.371  3.4113  2.0797  0.0826
  164MOL0     H21633   1.496   9.402   3.355  2.5791 -0.8226  1.4612
  164MOL0     H21634   2.847   8.455   4.773 -1.2666 -1.1970  1.0715
  164MOL0     H21635   2.952   8.409   4.970 -0.4233  2.3235 -0.8472
  164MOL0     H21636   3.259   8.258   5.214 -0.1432  0.6202 -2.5953
  164MOL0     H21637   3.368   8.270   5.435 -2.1130  1.7620 -0.1725
  164MOL0     H21638   3.580   8.483   5.536  0.3789  0.2157  1.4096
  164MOL0     H21639   3.749   8.463   5.545  0.4435 -0.6498  1.2160
  164MOL0     H21640   3.660   8.409   5.770  0.9748 -0.6215 -0.2089
  164MOL0     H21641   3.535   8.311   5.673  0.4484  0.2300 -3.7872
  164MOL0     H21642   3.838   8.246   5.690  0.8773 -4.0888 -0.8299
  164MOL0     H21643   3.721   8.150   5.620  0.8731  0.3678 -0.8059
  164MOL0     H21644   3.607   8.087   5.832 -0.3653 -1.1156 -0.3943
  164MOL0     H21645   3.784   8.073   5.823  1.6365  1.3601  0.6398
  164MOL0     H21646   3.765   8.371   6.126  2.7412  3.2904 -3.2502
  164MOL0     H21647   3.704   8.465   5.249  0.8259 -0.6493  0.5205
  164MOL0     H21648   3.561   8.532   5.070 -2.4055  1.2396 -0.8780
  165MOL0     O21649   7.255   3.440   8.872 -0.2162  0.3835 -0.6090
  165MOL0     C21650   7.359   3.375   8.853 -0.4777 -0.7554  0.3310
  165MOL0     O21651   7.405   3.335   8.735  0.0043 -0.4411  1.1063
  165MOL0     C21652   7.321   3.334   8.624  1.1323  0.0803  0.2860
  165MOL0     C21653   7.352   3.403   8.512 -0.6452 -0.7739 -0.3831
  165MOL0     C21654   7.256   3.430   8.422  0.0757 -0.4243 -0.1951
  165MOL0     C21655   7.130   3.375   8.424 -0.4081  0.0446  0.2695
  165MOL0     O21656   7.052   3.411   8.317  0.8024  0.4498 -0.1923
  165MOL0     C21657   6.931   3.338   8.293  0.7684 -0.3663  0.4990
  165MOL0     C21658   6.858   3.421   8.182  1.0497 -0.3893 -0.2172
  165MOL0     C21659   6.711   3.397   8.193  0.2241  1.3037 -0.1291
  165MOL0     C21660   6.614   3.484   8.115 -0.6920 -0.9481 -0.4915
  165MOL0     C21661   6.580   3.615   8.178  0.2789 -0.0053  0.2095
  165MOL0     C21662   6.519   3.708   8.068  0.8955 -0.5051 -1.0887
  165MOL0     C21663   6.482   3.841   8.145  0.4425  0.2921  0.9716
  165MOL0     C21664   6.396   3.940   8.061 -0.7280 -0.1002  0.0800
  165MOL0     N21665   6.481   4.056   8.009  0.6158  0.3558  0.2653
  165MOL0     C21666   6.581   4.046   7.916  0.5980 -0.1197 -0.2496
  165MOL0     C21667   6.605   4.180   7.891 -0.2689 -0.6894 -0.4599
  165MOL0     C21668   6.702   4.243   7.791  0.1929  0.6811  0.6702
  165MOL0     C21669   6.645   4.278   7.655  1.3647 -0.0360 -0.4048
  165MOL0     C21670   6.745   4.332   7.558  0.1070  0.1721  0.5119
  165MOL0     C21671   6.866   4.415   7.613 -0.2559  1.2555 -0.0325
  165MOL0     O21672   6.945   4.435   7.495  0.9289 -0.3799 -0.4313
  165MOL0     C21673   6.955   4.569   7.457  0.0755 -0.1387 -0.6405
  165MOL0     C21674   6.955   4.678   7.555 -0.2638 -0.2803  0.2751
  165MOL0     C21675   6.975   4.811   7.510 -0.1065 -0.3921  0.0277
  165MOL0     C21676   6.994   4.834   7.372  0.1471 -0.0802  0.0115
  165MOL0     C21677   7.008   4.975   7.329 -0.0234  0.4441  0.1740
  165MOL0     O21678   6.990   5.073   7.421 -0.2490  0.4343 -0.1756
  165MOL0     C21679   6.983   5.208   7.385  0.4278  0.3425 -0.6904
  165MOL0     C21680   7.023   5.301   7.488  0.0915  0.0334 -0.1916
  165MOL0     C21681   7.019   5.442   7.471 -1.1941 -0.1726  0.5002
  165MOL0     C21682   6.976   5.492   7.340  0.8953 -0.2358 -1.0394
  165MOL0     O21683   6.985   5.628   7.313 -0.5309  0.4290  0.0460
  165MOL0     C21684   7.051   5.728   7.393 -0.3449 -0.0271 -0.4279
  165MOL0     C21685   7.035   5.872   7.348 -0.4928  0.0151  0.2932
  165MOL0     C21686   7.101   5.900   7.212 -0.1670  0.8709 -0.3904
  165MOL0     C21687   7.243   5.908   7.220  0.5856  0.1399  0.5277
  165MOL0     C21688   7.324   5.936   7.089  0.0682  1.0976  0.5363
  165MOL0     C21689   7.469   5.936   7.106 -0.5857 -0.4449  0.7765
  165MOL0     C21690   7.556   5.976   6.985  0.7491 -0.7828  0.2610
  165MOL0     C21691   7.699   6.005   7.029  0.2231 -0.0200 -0.1508
  165MOL0    Cl21692   7.774   5.853   7.107  0.0865 -0.5671 -0.7037
  165MOL0     C21693   6.928   5.407   7.240  1.2024  0.1729 -0.5511
  165MOL0     C21694   6.930   5.266   7.269 -0.6549 -0.0420  0.5548
  165MOL0     O21695   7.028   4.996   7.209  0.1451  0.2824  0.0963
  165MOL0     C21696   7.000   4.729   7.278 -0.0279 -0.6489 -0.4011
  165MOL0     C21697   6.988   4.592   7.322  0.6324 -0.9196 -0.7084
  165MOL0     N21698   6.525   4.253   7.972  0.9437  0.5059 -0.0604
  165MOL0     N21699   6.452   4.183   8.042  0.7441 -0.6940 -0.2905
  165MOL0     C21700   7.093   3.303   8.539 -0.5767  1.0335  0.0308
  165MOL0     C21701   7.190   3.272   8.640 -0.6259  0.2441  0.8362
  165MOL0     C21702   7.445   3.354   8.971 -0.4857 -0.5823  0.1744
  165MOL0     C21703   7.536   3.242   8.956  0.8674  0.4264 -0.7846
  165MOL0     C21704   7.617   3.220   9.069 -0.2579  0.4374  0.8273
  165MOL0     C21705   7.608   3.301   9.190 -0.3851  1.2482  0.4454
  165MOL0     O21706   7.675   3.281   9.303 -1.0185 -0.3460 -0.2984
  165MOL0     C21707   7.748   3.163   9.308 -0.1693 -0.6381 -1.2382
  165MOL0     C21708   7.812   3.160   9.453 -0.1140  0.1462  0.4974
  165MOL0     C21709   7.847   3.026   9.505 -0.3436  1.2723  0.2981
  165MOL0     C21710   7.918   2.924   9.414  0.5708 -0.4370  0.6369
  165MOL0     C21711   8.052   2.953   9.371 -0.2492  0.3438  0.1564
  165MOL0     C21712   8.159   2.966   9.323 -0.3633 -0.2361  0.0353
  165MOL0     C21713   7.518   3.402   9.193 -0.5226  0.5866  0.2963
  165MOL0     C21714   7.440   3.430   9.082  0.7682 -0.5771 -1.5393
  165MOL0     H21715   7.449   3.453   8.507 -0.7164 -0.4398  1.0936
  165MOL0     H21716   7.277   3.492   8.335 -2.7526  3.1946  1.4337
  165MOL0     H21717   6.873   3.340   8.386  2.7040 -0.3654  1.7595
  165MOL0     H21718   6.950   3.236   8.260 -2.7545 -0.2635 -2.4043
  165MOL0     H21719   6.899   3.394   8.084 -0.7897 -1.3295 -0.7844
  165MOL0     H21720   6.865   3.528   8.202  1.9830 -0.1485 -1.6647
  165MOL0     H21721   6.681   3.383   8.297 -0.5546  0.7067 -0.4313
  165MOL0     H21722   6.694   3.296   8.155  1.4718  0.7794  0.6194
  165MOL0     H21723   6.665   3.497   8.019 -1.1485 -1.8882 -0.8758
  165MOL0     H21724   6.520   3.437   8.083 -0.7101 -0.1650 -1.6724
  165MOL0     H21725   6.666   3.663   8.227 -1.4786  1.6299  1.9174
  165MOL0     H21726   6.511   3.593   8.260 -0.6133  1.2672 -0.1526
  165MOL0     H21727   6.424   3.662   8.039 -0.0030  0.9874 -0.5996
  165MOL0     H21728   6.577   3.723   7.976  1.3703 -4.2678 -1.5628
  165MOL0     H21729   6.422   3.808   8.231  1.0926 -0.5796  1.1071
  165MOL0     H21730   6.570   3.898   8.177  0.0747  0.0365  2.5153
  165MOL0     H21731   6.318   3.975   8.129 -0.8522 -0.6950  0.2484
  165MOL0     H21732   6.344   3.901   7.974  2.3544 -0.6524 -1.6738
  165MOL0     H21733   6.627   3.966   7.860 -1.7081 -2.6494  1.1989
  165MOL0     H21734   6.779   4.167   7.775  0.1813 -0.1317  3.8217
  165MOL0     H21735   6.751   4.333   7.829 -0.7652  0.4555  2.5838
  165MOL0     H21736   6.571   4.358   7.662  0.1520 -1.2510  2.4811
  165MOL0     H21737   6.587   4.200   7.605  0.8786  3.1628 -5.5589
  165MOL0     H21738   6.786   4.241   7.512 -0.5678  0.9704 -1.8281
  165MOL0     H21739   6.694   4.392   7.483  2.5071 -1.0187 -2.3117
  165MOL0     H21740   6.922   4.369   7.695 -0.8666  1.6752  0.6342
  165MOL0     H21741   6.815   4.496   7.665  0.1056 -0.4561  3.2771
  165MOL0     H21742   6.916   4.677   7.657  1.0216 -0.4561  0.7747
  165MOL0     H21743   6.981   4.897   7.576 -0.7407  1.1072 -1.7803
  165MOL0     H21744   7.062   5.250   7.575  2.8650  2.5276  0.2014
  165MOL0     H21745   7.070   5.508   7.541 -0.0583 -0.0875 -0.3703
  165MOL0     H21746   7.161   5.724   7.394 -0.3410  0.0155 -0.6606
  165MOL0     H21747   7.019   5.719   7.497 -0.6323 -0.5808 -0.5636
  165MOL0     H21748   7.068   5.942   7.424 -2.3247 -1.8241  2.9601
  165MOL0     H21749   6.931   5.898   7.324 -0.0676  0.6655 -0.9120
  165MOL0     H21750   7.069   5.992   7.162 -0.4286  0.2286 -1.4257
  165MOL0     H21751   7.093   5.805   7.159  1.2607 -0.7361  2.0407
  165MOL0     H21752   7.271   5.973   7.303  0.8593 -1.1473  1.4793
  165MOL0     H21753   7.267   5.809   7.260 -3.1274 -1.4795 -0.7916
  165MOL0     H21754   7.305   6.035   7.048  2.2708  0.7043 -1.6650
  165MOL0     H21755   7.304   5.857   7.016  0.6583  2.3838 -1.0506
  165MOL0     H21756   7.505   5.834   7.126  1.1899 -0.5522 -2.2749
  165MOL0     H21757   7.489   6.001   7.191  1.8010  1.1740 -0.8911
  165MOL0     H21758   7.559   5.891   6.917 -3.0108 -2.5626  2.0494
  165MOL0     H21759   7.510   6.067   6.944  2.4413  1.4801  2.9616
  165MOL0     H21760   7.708   6.080   7.109  0.6407  0.4572 -0.6381
  165MOL0     H21761   7.751   6.046   6.943 -0.0824 -3.2335 -2.0102
  165MOL0     H21762   6.890   5.443   7.145 -0.5737 -2.9969 -1.1651
  165MOL0     H21763   6.904   5.197   7.188  0.6872 -0.4609  0.4584
  165MOL0     H21764   7.026   4.765   7.179  1.2022  2.0838  0.7982
  165MOL0     H21765   7.001   4.515   7.247  1.6479  0.4357 -1.9908
  165MOL0     H21766   6.994   3.267   8.566 -0.0540 -0.3858  0.1377
  165MOL0     H21767   7.161   3.211   8.724  0.8423  0.1703  1.3174
  165MOL0     H21768   7.537   3.177   8.869  0.0844  0.5605 -0.8968
  165MOL0     H21769   7.692   3.143   9.062  1.2228  1.8576  0.3386
  165MOL0     H21770   7.823   3.159   9.228  2.0635 -0.7457  0.7394
  165MOL0     H21771   7.675   3.082   9.296 -0.7073 -0.0960 -1.6330
  165MOL0     H21772   7.914   3.198   9.441  0.3790 -1.5939 -1.4224
  165MOL0     H21773   7.752   3.231   9.512  0.8129  2.8007 -1.5184
  165MOL0     H21774   7.749   2.978   9.511 -0.7595  1.3376 -3.3622
  165MOL0     H21775   7.905   3.044   9.596  0.6930  1.5183 -0.3923
  165MOL0     H21776   7.921   2.831   9.472  3.4813 -1.5180 -1.0540
  165MOL0     H21777   7.859   2.894   9.326 -2.4940  3.9205  0.8283
  165MOL0     H21778   8.249   2.951   9.267  3.0169  1.1529  4.4918
  165MOL0     H21779   7.517   3.455   9.288  1.0498  0.8335  0.2073
  165MOL0     H21780   7.379   3.520   9.080  2.0073  0.2746 -2.7279
  166MOL0     O21781  10.835   4.158   2.020  1.3193 -0.9133 -1.1415
  166MOL0     C21782  10.944   4.141   1.975 -0.0246 -0.0849 -0.3026
  166MOL0     O21783  11.051   4.228   1.986 -0.2557  0.1146 -0.2948
  166MOL0     C21784  11.049   4.344   2.068  0.1565  0.5046 -0.4254
  166MOL0     C21785  11.110   4.464   2.017 -0.5303  0.7310  0.1135
  166MOL0     C21786  11.121   4.580   2.091 -0.4830  0.1617 -0.4806
  166MOL0     C21787  11.078   4.581   2.217 -0.2341 -0.0967 -0.4944
  166MOL0     O21788  11.103   4.694   2.289  0.9518  0.1220 -0.9552
  166MOL0     C21789  11.043   4.813   2.233 -1.2299 -0.7673  0.1544
  166MOL0     C21790  11.040   4.918   2.353  0.2130  1.1610  0.7783
  166MOL0     C21791  10.946   5.036   2.308  1.4622  0.0788 -0.7665
  166MOL0     C21792  10.935   5.146   2.426 -0.5806  0.1234 -0.0946
  166MOL0     C21793  11.018   5.277   2.385  0.2644  0.3934 -0.5362
  166MOL0     C21794  11.025   5.381   2.495  0.6714 -0.4102 -0.2010
  166MOL0     C21795  10.879   5.442   2.527  0.6343  0.6355 -0.0507
  166MOL0     C21796  10.888   5.528   2.652  0.2950 -0.3679 -0.0983
  166MOL0     N21797  10.980   5.648   2.625 -0.5852 -0.5933  0.1985
  166MOL0     C21798  10.950   5.758   2.545  0.9842  0.4461  0.4342
  166MOL0     C21799  11.064   5.826   2.569  0.2246 -0.6113 -0.3087
  166MOL0     C21800  11.081   5.960   2.502  0.5286  0.0483  0.1842
  166MOL0     C21801  11.227   6.002   2.493 -1.0200 -0.4607  0.0301
  166MOL0     C21802  11.248   6.134   2.425  0.6530 -0.5825  0.1301
  166MOL0     C21803  11.379   6.191   2.466  0.6804 -0.8438 -0.7194
  166MOL0     O21804  11.488   6.111   2.428  0.1958  0.1744 -0.4684
  166MOL0     C21805  11.616   6.149   2.458 -0.2672 -0.7416  0.2472
  166MOL0     C21806  11.657   6.282   2.507 -0.1531  0.5490 -0.2804
  166MOL0     C21807  11.789   6.304   2.544 -0.5325  0.0282 -1.0886
  166MOL0     C21808  11.890   6.204   2.529 -0.3468  0.3673  0.1870
  166MOL0     C21809  12.031   6.239   2.568  0.3714 -0.5184  0.8936
  166MOL0     O21810  12.034   6.344   2.665 -0.0543  0.2694  0.6383
  166MOL0     C21811  12.157   6.376   2.719 -0.4979  0.8706 -0.3439
  166MOL0     C21812  12.273   6.408   2.646 -0.3124  0.2112  0.5731
  166MOL0     C21813  12.396   6.447   2.713  0.5609  0.0639 -0.0588
  166MOL0     C21814  12.399   6.472   2.855  0.6535  0.4836  0.4314
  166MOL0     O21815  12.509   6.517   2.916 -0.7056  0.2375  0.1238
  166MOL0     C21816  12.575   6.406   2.970 -0.5148 -1.2619 -0.1569
  166MOL0     C21817  12.704   6.447   3.051  1.1082 -0.6420 -0.6046
  166MOL0     C21818  12.760   6.329   3.130 -0.1003 -0.1694 -0.2404
  166MOL0     C21819  12.884   6.379   3.208 -0.0323 -0.2803 -0.6028
  166MOL0     C21820  12.940   6.279   3.304 -0.2799  0.7418 -0.7638
  166MOL0     C21821  12.987   6.148   3.236 -0.6063  0.5489 -0.2564
  166MOL0     C21822  13.040   6.062   3.354  0.1755 -0.1537  0.8177
  166MOL0     C21823  13.088   5.920   3.308 -0.2613  1.0097 -0.5870
  166MOL0    Cl21824  13.251   5.935   3.229  0.4283  0.0042 -0.1919
  166MOL0     C21825  12.286   6.443   2.928  0.3619  0.2418  0.2435
  166MOL0     C21826  12.168   6.395   2.855  0.6764  0.2798 -0.7306
  166MOL0     O21827  12.129   6.171   2.525 -0.2696 -0.4662  0.3667
  166MOL0     C21828  11.858   6.082   2.474 -0.0669 -0.3720 -0.5964
  166MOL0     C21829  11.721   6.057   2.451 -0.3645 -0.1876  0.1201
  166MOL0     N21830  11.140   5.778   2.672 -0.4027 -0.1278 -0.6246
  166MOL0     N21831  11.092   5.665   2.697 -0.1602  0.3492  0.9923
  166MOL0     C21832  11.028   4.460   2.273 -0.6772 -0.1425 -0.1927
  166MOL0     C21833  11.006   4.339   2.197 -0.1297  0.0588 -1.4771
  166MOL0     C21834  10.965   4.013   1.896  0.1611  0.4752 -0.7246
  166MOL0     C21835  11.082   3.984   1.828  0.0881 -0.3129 -0.1832
  166MOL0     C21836  11.097   3.882   1.733 -0.1507  0.2071  0.8222
  166MOL0     C21837  10.993   3.799   1.709  0.1289 -0.2747  0.3509
  166MOL0     O21838  11.014   3.712   1.605  0.6557 -0.0280 -0.4692
  166MOL0     C21839  10.895   3.677   1.524 -0.3227  0.4270  0.5970
  166MOL0     C21840  10.950   3.627   1.391 -0.2391  1.0069  0.2314
  166MOL0     C21841  11.038   3.734   1.312  0.9406 -0.2232  0.1631
  166MOL0     C21842  10.962   3.804   1.202 -0.1854 -0.2020 -0.0749
  166MOL0     C21843  10.842   3.876   1.257  1.0374  0.7256 -0.0791
  166MOL0     C21844  10.739   3.924   1.296 -0.0420 -0.3137  0.2541
  166MOL0     C21845  10.875   3.814   1.779  0.1719  0.4398 -0.5964
  166MOL0     C21846  10.855   3.923   1.870 -0.4051  1.1251  0.2413
  166MOL0     H21847  11.154   4.458   1.918  2.0558 -0.5906  1.2182
  166MOL0     H21848  11.163   4.667   2.040 -2.1350  3.1247  2.7555
  166MOL0     H21849  10.947   4.794   2.184  0.8211 -4.3523 -3.0761
  166MOL0     H21850  11.110   4.853   2.157  1.7493 -0.4155  2.7693
  166MOL0     H21851  11.140   4.943   2.389  1.7079 -1.0009 -1.5155
  166MOL0     H21852  10.991   4.866   2.435  1.0904  1.9336  1.8168
  166MOL0     H21853  10.844   5.001   2.286  1.1628  0.6575 -0.3133
  166MOL0     H21854  10.990   5.092   2.225 -1.5779  0.3183 -2.3612
  166MOL0     H21855  10.828   5.157   2.446 -0.7857 -0.1762 -0.9423
  166MOL0     H21856  10.981   5.104   2.516  1.3999  1.4230 -0.4361
  166MOL0     H21857  10.970   5.325   2.299 -0.7503  0.2723 -0.0552
  166MOL0     H21858  11.116   5.238   2.359  0.3881  1.0943 -1.1648
  166MOL0     H21859  11.099   5.459   2.472  0.0576  0.5896  1.0700
  166MOL0     H21860  11.073   5.327   2.577  1.5905  0.8223  0.1009
  166MOL0     H21861  10.851   5.496   2.436 -3.2718  0.3087  0.7792
  166MOL0     H21862  10.804   5.365   2.547  0.4896  0.9520  0.6389
  166MOL0     H21863  10.936   5.467   2.729 -0.0163 -2.1418 -1.2522
  166MOL0     H21864  10.791   5.567   2.684  0.8740  0.3173  0.8864
  166MOL0     H21865  10.867   5.768   2.476  0.8813  1.6544  0.7159
  166MOL0     H21866  11.040   6.027   2.578 -1.4119 -1.7485  0.8135
  166MOL0     H21867  11.036   5.979   2.404  1.4884  5.7698  0.4783
  166MOL0     H21868  11.285   5.937   2.426  1.5046  2.5925 -1.0017
  166MOL0     H21869  11.270   6.007   2.593 -3.2621 -0.6362  1.0492
  166MOL0     H21870  11.246   6.123   2.316  1.8307  3.9850 -0.5463
  166MOL0     H21871  11.179   6.211   2.459  2.1759 -0.2181  2.6388
  166MOL0     H21872  11.373   6.201   2.575 -0.8562  3.4466 -1.0095
  166MOL0     H21873  11.376   6.293   2.426 -1.4597  1.0264  3.5451
  166MOL0     H21874  11.580   6.358   2.517  0.1546  0.7299  0.7678
  166MOL0     H21875  11.820   6.400   2.584 -3.9919  0.4911  0.8686
  166MOL0     H21876  12.281   6.390   2.539  1.5027 -1.9191  0.9898
  166MOL0     H21877  12.483   6.469   2.652  0.3954 -0.5378 -0.5185
  166MOL0     H21878  12.617   6.350   2.886  2.1135 -1.7830  1.3859
  166MOL0     H21879  12.517   6.331   3.024  0.1598 -0.6481  1.4967
  166MOL0     H21880  12.673   6.540   3.099  0.4077  0.2019 -2.6010
  166MOL0     H21881  12.788   6.486   2.993  4.0806 -2.0825  2.3579
  166MOL0     H21882  12.783   6.240   3.071 -0.4188  1.4153 -2.9186
  166MOL0     H21883  12.686   6.293   3.202 -3.1189  4.8405 -0.3752
  166MOL0     H21884  12.963   6.399   3.135 -0.2152  1.3440 -0.3885
  166MOL0     H21885  12.860   6.466   3.270  1.3595 -1.0249  1.0344
  166MOL0     H21886  12.865   6.258   3.381  1.3630  1.7803  1.1961
  166MOL0     H21887  13.023   6.324   3.358 -0.2638 -1.1026  0.8273
  166MOL0     H21888  13.070   6.149   3.165 -1.4810 -0.5921 -1.3568
  166MOL0     H21889  12.904   6.090   3.193  3.5646 -4.3402 -2.8395
  166MOL0     H21890  13.130   6.114   3.390  2.5080 -1.9157 -1.9809
  166MOL0     H21891  12.967   6.061   3.436  0.5333  0.7552  1.1610
  166MOL0     H21892  13.024   5.870   3.234 -2.9535  0.3053  2.0344
  166MOL0     H21893  13.086   5.852   3.394 -0.5172  0.2083 -1.2034
  166MOL0     H21894  12.281   6.452   3.036 -0.4214 -0.8004  0.3120
  166MOL0     H21895  12.077   6.386   2.914 -0.7761 -0.6097 -2.9839
  166MOL0     H21896  11.931   6.005   2.451  0.9306  0.7907 -1.4920
  166MOL0     H21897  11.704   5.956   2.413  2.4963  0.2849 -2.8917
  166MOL0     H21898  11.002   4.465   2.378  0.6530 -0.1475  0.1501
  166MOL0     H21899  10.974   4.249   2.248  2.3666  1.3103  2.8270
  166MOL0     H21900  11.165   4.050   1.850  1.3083 -0.9573 -2.5462
  166MOL0     H21901  11.193   3.876   1.684  0.1224 -0.7014  1.4391
  166MOL0     H21902  10.836   3.768   1.530 -0.3078  0.3307  3.4310
  166MOL0     H21903  10.837   3.596   1.570  0.4670  0.2392  1.2874
  166MOL0     H21904  11.008   3.535   1.401 -1.9565 -0.6941 -3.3765
  166MOL0     H21905  10.876   3.593   1.318  0.8698 -0.2146 -0.3538
  166MOL0     H21906  11.124   3.694   1.258  0.6679  0.2771 -0.6729
  166MOL0     H21907  11.091   3.804   1.377  1.5046  1.4066 -1.9055
  166MOL0     H21908  11.030   3.867   1.145 -0.1878 -1.4253 -1.4835
  166MOL0     H21909  10.921   3.736   1.126  2.2262  0.4846 -2.1140
  166MOL0     H21910  10.661   3.978   1.346  1.1729 -2.8342  5.6127
  166MOL0     H21911  10.793   3.743   1.773 -0.6595  1.4240 -1.1273
  166MOL0     H21912  10.761   3.936   1.923 -0.0939 -0.6587  1.3314
  167MOL0     O21913   4.692   8.565   6.770  0.2735  0.2618 -0.3104
  167MOL0     C21914   4.595   8.580   6.693  0.6096 -0.2301  0.0002
  167MOL0     O21915   4.537   8.485   6.608  0.0874  1.3568 -1.1178
  167MOL0     C21916   4.605   8.374   6.573 -0.4044  0.4854  0.4501
  167MOL0     C21917   4.527   8.264   6.553  0.7745 -0.3865  0.0342
  167MOL0     C21918   4.581   8.139   6.518 -0.2118  0.3446  0.6150
  167MOL0     C21919   4.721   8.125   6.515 -0.3517 -0.0092  0.0956
  167MOL0     O21920   4.778   8.003   6.473 -0.4716  0.1977 -0.3475
  167MOL0     C21921   4.766   7.898   6.573  0.1729 -0.6304 -0.2385
  167MOL0     C21922   4.739   7.765   6.502 -0.4830 -0.2854  0.5708
  167MOL0     C21923   4.880   7.709   6.455  0.5994 -0.2084 -0.6986
  167MOL0     C21924   4.870   7.575   6.405  0.4198  0.3243 -0.0696
  167MOL0     C21925   4.999   7.539   6.333 -0.2579 -0.3760  0.6399
  167MOL0     C21926   5.133   7.541   6.409  0.2177  0.6052 -0.4206
  167MOL0     C21927   5.152   7.440   6.521 -0.3728  0.9990  0.4203
  167MOL0     C21928   5.299   7.459   6.573  0.2837 -0.5803  0.0399
  167MOL0     N21929   5.346   7.355   6.663 -0.2088 -0.6918  0.6459
  167MOL0     C21930   5.449   7.277   6.649  0.7307  0.7086 -0.6199
  167MOL0     C21931   5.448   7.193   6.754 -0.5184 -0.8931  0.0648
  167MOL0     C21932   5.530   7.066   6.776  0.2773  0.2553 -0.0784
  167MOL0     C21933   5.624   7.044   6.894 -0.1623 -0.1016 -0.8210
  167MOL0     C21934   5.763   7.098   6.865  0.0686 -0.4345  0.2984
  167MOL0     C21935   5.855   7.075   6.984 -0.2287  0.6908  0.3840
  167MOL0     O21936   5.984   7.136   6.959 -0.1149 -0.6978 -0.2911
  167MOL0     C21937   6.081   7.121   7.055  0.3271 -0.3325  0.2693
  167MOL0     C21938   6.060   7.091   7.186  0.4224  0.9051 -1.2886
  167MOL0     C21939   6.158   7.097   7.282  0.0862  0.0947  0.4711
  167MOL0     C21940   6.289   7.132   7.239  0.5230  0.6772  0.2345
  167MOL0     C21941   6.381   7.150   7.344 -0.7979 -0.3208  0.8263
  167MOL0     O21942   6.330   7.166   7.465  0.4492 -0.3865 -0.0417
  167MOL0     C21943   6.407   7.217   7.563 -0.1191 -0.3992 -0.6975
  167MOL0     C21944   6.363   7.328   7.637 -0.6417 -0.1425  0.9668
  167MOL0     C21945   6.427   7.388   7.739 -0.4022 -0.3506  0.1897
  167MOL0     C21946   6.549   7.335   7.778  0.4510  0.1883 -0.0968
  167MOL0     O21947   6.624   7.394   7.876  0.0223 -0.1355  0.0075
  167MOL0     C21948   6.560   7.409   8.009  0.1341 -0.1154  0.0524
  167MOL0     C21949   6.567   7.555   8.042  0.6469 -0.9417  0.0887
  167MOL0     C21950   6.425   7.618   8.086  0.7767  0.6193  0.0192
  167MOL0     C21951   6.435   7.768   8.116 -0.1612 -0.4540  1.4984
  167MOL0     C21952   6.310   7.830   8.177  0.7540  0.3553  0.3921
  167MOL0     C21953   6.301   7.987   8.178 -0.6333  0.2201 -0.3354
  167MOL0     C21954   6.323   8.047   8.037  0.1876  0.1990 -0.1693
  167MOL0     C21955   6.278   8.193   8.011  0.3334 -0.3116 -0.2192
  167MOL0    Cl21956   6.296   8.210   7.831  0.0981 -0.4879  0.3351
  167MOL0     C21957   6.605   7.231   7.715 -0.6202  0.6327  0.2939
  167MOL0     C21958   6.527   7.168   7.608 -0.2850 -0.4442  0.7340
  167MOL0     O21959   6.500   7.178   7.315 -0.0034  0.2455 -0.5101
  167MOL0     C21960   6.314   7.155   7.104 -0.0357 -0.1189  0.2117
  167MOL0     C21961   6.208   7.148   7.012  0.0142 -0.1506 -1.0808
  167MOL0     N21962   5.337   7.220   6.839  0.0116 -0.2826  0.2645
  167MOL0     N21963   5.278   7.313   6.772  0.3602 -0.0371 -0.0508
  167MOL0     C21964   4.798   8.243   6.535 -1.4521 -0.0997  0.0766
  167MOL0     C21965   4.748   8.363   6.561  0.5918  0.2093  0.3776
  167MOL0     C21966   4.527   8.718   6.690 -0.0388 -0.5931  0.2033
  167MOL0     C21967   4.586   8.829   6.746 -0.1526  0.5046 -0.7408
  167MOL0     C21968   4.531   8.951   6.728  0.0361  0.3522 -0.1824
  167MOL0     C21969   4.422   8.971   6.639  0.0704 -0.2270  0.1105
  167MOL0     O21970   4.349   9.083   6.649 -1.2678  0.3629  0.2140
  167MOL0     C21971   4.316   9.148   6.526  0.3227  0.1195 -0.7641
  167MOL0     C21972   4.340   9.294   6.527  0.2719 -0.5745 -0.9630
  167MOL0     C21973   4.250   9.366   6.637  0.1556 -0.2459  0.2795
  167MOL0     C21974   4.315   9.471   6.719  0.9689  0.5524  0.3666
  167MOL0     C21975   4.413   9.413   6.813 -0.1272 -0.5387 -0.2434
  167MOL0     C21976   4.491   9.343   6.874  0.7268 -0.1905  0.1947
  167MOL0     C21977   4.358   8.857   6.578  0.2382  0.4074 -0.7429
  167MOL0     C21978   4.413   8.730   6.607 -0.4407 -0.4396 -0.7542
  167MOL0     H21979   4.421   8.270   6.575  1.3931  2.4119  3.0740
  167MOL0     H21980   4.526   8.051   6.488 -1.3827  0.5783  1.9543
  167MOL0     H21981   4.695   7.909   6.655 -0.5475 -0.2424 -0.9089
  167MOL0     H21982   4.866   7.891   6.617  1.6966 -1.6857 -3.5894
  167MOL0     H21983   4.679   7.789   6.414 -0.4452 -3.1698 -0.3228
  167MOL0     H21984   4.688   7.703   6.575  0.1359 -1.5185 -0.0132
  167MOL0     H21985   4.954   7.710   6.536  0.5595  1.9272 -0.6336
  167MOL0     H21986   4.913   7.780   6.379 -0.4810  0.8766 -0.1854
  167MOL0     H21987   4.847   7.502   6.482 -1.6985  1.2403  0.2477
  167MOL0     H21988   4.784   7.567   6.337  2.4112  1.9943 -2.9946
  167MOL0     H21989   5.009   7.612   6.252  0.2604  1.2674  2.1253
  167MOL0     H21990   4.990   7.442   6.282  0.5380  1.1181 -2.5486
  167MOL0     H21991   5.156   7.638   6.455  1.4106  1.1600 -2.1123
  167MOL0     H21992   5.203   7.521   6.328 -1.6600  0.8255 -2.1935
  167MOL0     H21993   5.085   7.456   6.606 -2.2223 -1.5132 -0.4383
  167MOL0     H21994   5.141   7.336   6.489  4.3995  0.8091 -1.4621
  167MOL0     H21995   5.314   7.548   6.634  0.8374  0.2138 -1.2105
  167MOL0     H21996   5.369   7.476   6.490 -0.1985  1.1871 -0.0437
  167MOL0     H21997   5.522   7.270   6.569  0.1060  0.5018 -1.1851
  167MOL0     H21998   5.588   7.042   6.686  1.4940 -2.6533  1.3506
  167MOL0     H21999   5.451   6.990   6.782  1.3914 -0.9020  0.5189
  167MOL0     H22000   5.625   6.935   6.904 -3.9564 -0.0706  1.9911
  167MOL0     H22001   5.576   7.089   6.981  1.1328  0.7732 -0.5168
  167MOL0     H22002   5.813   7.051   6.780  0.3908 -4.0822  2.3431
  167MOL0     H22003   5.763   7.206   6.845  0.0578  0.4064  4.0824
  167MOL0     H22004   5.869   6.968   7.003  1.4426  1.1180  1.7681
  167MOL0     H22005   5.812   7.135   7.064 -0.1530  1.8185 -0.4081
  167MOL0     H22006   5.965   7.057   7.227  2.9510 -1.3371  3.4369
  167MOL0     H22007   6.122   7.062   7.378  0.9960 -1.1297  0.3862
  167MOL0     H22008   6.271   7.371   7.599 -1.4618 -4.2355 -2.4037
  167MOL0     H22009   6.386   7.481   7.777 -0.9610  0.1260 -1.4905
  167MOL0     H22010   6.621   7.366   8.089 -1.3868 -3.1972 -0.2949
  167MOL0     H22011   6.458   7.371   8.020  0.1308 -0.8499 -2.0515
  167MOL0     H22012   6.626   7.607   7.966  2.5303  0.8492  2.6099
  167MOL0     H22013   6.626   7.571   8.133 -1.5924  3.2407  1.0621
  167MOL0     H22014   6.371   7.576   8.171 -1.9689  1.7092 -1.0432
  167MOL0     H22015   6.352   7.604   8.005  0.8754  0.3320 -0.0207
  167MOL0     H22016   6.515   7.780   8.191 -1.1112  0.8988  2.3342
  167MOL0     H22017   6.467   7.817   8.023 -1.6603 -0.7292  0.8226
  167MOL0     H22018   6.285   7.800   8.279  0.4603 -0.1227  0.1853
  167MOL0     H22019   6.236   7.789   8.108  2.6285 -1.3970 -0.6985
  167MOL0     H22020   6.375   8.039   8.239  0.2741  0.2718 -1.4538
  167MOL0     H22021   6.200   8.015   8.209 -0.0393  0.7915  1.1614
  167MOL0     H22022   6.427   8.040   8.004  0.3323  0.6787  0.1717
  167MOL0     H22023   6.251   7.999   7.971 -1.9650  0.2267  2.0371
  167MOL0     H22024   6.341   8.259   8.072 -0.3620  0.9631 -0.8557
  167MOL0     H22025   6.178   8.214   8.049  0.9028 -2.0280  2.5662
  167MOL0     H22026   6.708   7.221   7.747 -0.3841  1.2023 -0.2618
  167MOL0     H22027   6.581   7.088   7.558 -1.1635 -0.2590 -0.5502
  167MOL0     H22028   6.409   7.198   7.075  0.4510  1.6325  3.8471
  167MOL0     H22029   6.224   7.173   6.907  0.3161  1.0797 -0.7539
  167MOL0     H22030   4.906   8.247   6.521 -1.8233  1.5305 -3.6126
  167MOL0     H22031   4.800   8.458   6.565  1.0224  0.0434  6.2122
  167MOL0     H22032   4.671   8.819   6.813 -0.7202 -0.3450 -0.1274
  167MOL0     H22033   4.578   9.038   6.773  1.6240 -1.2472  1.4113
  167MOL0     H22034   4.225   9.108   6.480 -0.2765 -1.7636  1.7985
  167MOL0     H22035   4.392   9.107   6.459 -0.7663  1.6883 -3.0805
  167MOL0     H22036   4.445   9.307   6.553 -0.2748 -2.0144  2.5683
  167MOL0     H22037   4.302   9.331   6.431  1.2815  0.7341 -0.8993
  167MOL0     H22038   4.220   9.293   6.712  1.1610 -0.6893  0.2680
  167MOL0     H22039   4.153   9.399   6.599 -0.6762 -1.1889  1.5122
  167MOL0     H22040   4.351   9.540   6.641  1.6779 -0.5387 -0.3090
  167MOL0     H22041   4.246   9.525   6.784 -0.9231 -1.2434 -0.0765
  167MOL0     H22042   4.547   9.274   6.935  1.6088  1.6163  1.5487
  167MOL0     H22043   4.265   8.863   6.523 -1.1439 -1.5272  1.2292
  167MOL0     H22044   4.373   8.641   6.560  1.9670 -1.4978 -0.9993
  168MOL0     O22045   2.202   8.431   3.154  0.0925  0.6048  1.0591
  168MOL0     C22046   2.179   8.484   3.262  0.3289  0.4086  0.9272
  168MOL0     O22047   2.141   8.614   3.274  0.1766  0.4889 -0.1522
  168MOL0     C22048   2.118   8.679   3.157  0.0580 -0.1859 -0.5532
  168MOL0     C22049   2.219   8.723   3.071 -0.3067 -0.0237  0.9888
  168MOL0     C22050   2.185   8.784   2.955  0.2384  0.7966  0.1544
  168MOL0     C22051   2.045   8.812   2.918  0.3964 -0.4871 -0.2451
  168MOL0     O22052   2.010   8.859   2.793 -0.4212 -0.4747 -0.2187
  168MOL0     C22053   1.984   8.748   2.696 -0.1224  0.2451  0.9381
  168MOL0     C22054   1.910   8.801   2.566  0.4326 -0.1013 -0.1813
  168MOL0     C22055   2.004   8.877   2.466  0.1240 -1.0966  0.4287
  168MOL0     C22056   1.915   8.976   2.387 -0.0423 -0.7811  0.0740
  168MOL0     C22057   2.006   9.032   2.280  0.5501  0.5367  0.6899
  168MOL0     C22058   1.940   9.158   2.211  1.0774 -0.4669 -0.4777
  168MOL0     C22059   1.923   9.278   2.308 -0.2721 -0.0340  0.2349
  168MOL0     C22060   2.064   9.320   2.359 -1.1281  0.1462 -0.2847
  168MOL0     N22061   2.164   9.381   2.271 -0.3808  1.4057 -0.3232
  168MOL0     C22062   2.162   9.516   2.239 -0.7441 -0.4861 -0.5174
  168MOL0     C22063   2.273   9.532   2.156  0.3471 -0.1830  0.8716
  168MOL0     C22064   2.313   9.654   2.080 -0.3952 -0.5924 -0.8332
  168MOL0     C22065   2.415   9.739   2.157 -0.1349  0.0622 -0.8579
  168MOL0     C22066   2.522   9.660   2.226 -0.3347  0.7772  0.7357
  168MOL0     C22067   2.609   9.737   2.328 -0.5833 -0.0452 -1.0302
  168MOL0     O22068   2.677   9.843   2.262  0.4989 -0.2732  0.1130
  168MOL0     C22069   2.726   9.957   2.326 -0.6244 -0.1046  0.4429
  168MOL0     C22070   2.776  10.064   2.254 -0.8844 -0.5210  0.1441
  168MOL0     C22071   2.841  10.172   2.320 -0.6339  0.3156 -0.5463
  168MOL0     C22072   2.848  10.179   2.454  0.7555 -0.6240 -0.2038
  168MOL0     C22073   2.923  10.291   2.512  0.7329 -0.3550 -0.6447
  168MOL0     O22074   2.857  10.408   2.502  0.1021  0.1977  0.3114
  168MOL0     C22075   2.842  10.506   2.596  1.1375  1.0537  1.4540
  168MOL0     C22076   2.923  10.536   2.711 -0.6669 -0.6571  0.4195
  168MOL0     C22077   2.909  10.659   2.776 -0.2249  0.0689 -0.1618
  168MOL0     C22078   2.824  10.760   2.731 -0.2516 -0.0248 -0.1136
  168MOL0     O22079   2.811  10.880   2.793  0.3608  0.2509 -0.0978
  168MOL0     C22080   2.877  10.911   2.920 -0.1202  0.7957  0.1998
  168MOL0     C22081   2.858  11.064   2.947  0.1771 -0.2201  0.6167
  168MOL0     C22082   2.886  11.095   3.099  0.2006  0.0838 -0.8954
  168MOL0     C22083   2.845  11.234   3.134  0.6072 -0.8646 -1.3170
  168MOL0     C22084   2.872  11.260   3.280 -0.0502  0.3781 -0.3483
  168MOL0     C22085   3.028  11.272   3.307 -0.1540  1.0943  0.1344
  168MOL0     C22086   3.055  11.274   3.463 -0.2339  0.1226  0.1048
  168MOL0     C22087   3.204  11.258   3.495  0.1539 -0.1111 -0.2574
  168MOL0    Cl22088   3.283  11.403   3.441 -0.6746 -0.2036  0.3146
  168MOL0     C22089   2.746  10.727   2.618  0.5629 -0.2287 -0.1437
  168MOL0     C22090   2.751  10.600   2.548  0.2206 -0.2399 -1.6867
  168MOL0     O22091   3.034  10.273   2.563 -0.0742 -0.5106 -0.2758
  168MOL0     C22092   2.803  10.068   2.527  0.0063 -0.7241 -0.6945
  168MOL0     C22093   2.758   9.958   2.462  0.1181  0.8446  0.2708
  168MOL0     N22094   2.330   9.405   2.139 -0.1067  0.1538  0.5133
  168MOL0     N22095   2.251   9.313   2.197  0.0559 -0.9560  0.2942
  168MOL0     C22096   1.943   8.777   3.008 -0.2839  0.4845  0.1467
  168MOL0     C22097   1.989   8.715   3.131  0.0017  0.5333 -0.0650
  168MOL0     C22098   2.196   8.409   3.385  0.7318 -0.0136  0.4031
  168MOL0     C22099   2.104   8.428   3.498 -0.2133 -0.1627 -0.7248
  168MOL0     C22100   2.114   8.327   3.602 -0.6137  0.0581  0.1844
  168MOL0     C22101   2.205   8.223   3.597 -0.4058 -0.1949  0.2716
  168MOL0     O22102   2.221   8.121   3.684 -0.0773 -0.7597 -0.2604
  168MOL0     C22103   2.169   8.129   3.813 -0.9424  0.1312  0.3602
  168MOL0     C22104   2.222   8.232   3.905 -0.5049 -0.5917  0.5565
  168MOL0     C22105   2.124   8.265   4.011 -0.7886 -0.2626  0.0880
  168MOL0     C22106   2.158   8.174   4.132 -0.4214 -0.7100 -0.5871
  168MOL0     C22107   2.261   8.234   4.218  0.5848  0.9798  0.0418
  168MOL0     C22108   2.362   8.263   4.290  0.4358  0.5619 -1.2534
  168MOL0     C22109   2.287   8.212   3.478 -0.1737  0.3300 -0.0435
  168MOL0     C22110   2.291   8.307   3.373  0.6482  1.5497 -0.0972
  168MOL0     H22111   2.316   8.684   3.097 -1.0274 -1.9513  0.9969
  168MOL0     H22112   2.252   8.819   2.877 -1.7030  0.5837 -1.7169
  168MOL0     H22113   1.920   8.677   2.748 -1.3287  0.0634 -0.7102
  168MOL0     H22114   2.078   8.698   2.668  0.9881  0.5804  3.7504
  168MOL0     H22115   1.828   8.864   2.601  2.2699  1.1612  2.1609
  168MOL0     H22116   1.873   8.714   2.511 -4.0293  2.3292 -1.5096
  168MOL0     H22117   2.047   8.804   2.397  2.5276  0.6445 -0.0402
  168MOL0     H22118   2.095   8.924   2.504 -0.2778  0.5416 -0.5550
  168MOL0     H22119   1.824   8.933   2.344 -1.5059 -0.7238  2.8744
  168MOL0     H22120   1.889   9.055   2.457  1.4045  1.8646 -2.1811
  168MOL0     H22121   2.024   8.954   2.205 -0.9962 -2.2044  3.0097
  168MOL0     H22122   2.106   9.056   2.317  0.7132  1.3091 -0.2048
  168MOL0     H22123   1.838   9.140   2.174  1.7991 -3.4420 -1.2562
  168MOL0     H22124   2.001   9.198   2.129  0.7366  0.8185 -0.1381
  168MOL0     H22125   1.876   9.358   2.250 -0.0811 -0.1934 -0.1449
  168MOL0     H22126   1.844   9.261   2.381 -1.6846 -0.7888 -1.3927
  168MOL0     H22127   2.095   9.234   2.420 -1.7589  0.8039  1.0027
  168MOL0     H22128   2.050   9.395   2.437  0.3565 -1.1665  1.3388
  168MOL0     H22129   2.089   9.588   2.275 -0.4626 -2.1394  3.9830
  168MOL0     H22130   2.223   9.714   2.065  0.8355  1.7287  0.4795
  168MOL0     H22131   2.362   9.629   1.985  0.8507  0.7878 -0.5794
  168MOL0     H22132   2.354   9.785   2.235 -0.7943 -2.3792  0.1653
  168MOL0     H22133   2.451   9.821   2.094 -1.2622  1.1371 -0.1339
  168MOL0     H22134   2.469   9.579   2.278 -1.4595 -0.8831 -2.7486
  168MOL0     H22135   2.578   9.630   2.138 -2.6553  3.6481 -1.9401
  168MOL0     H22136   2.679   9.669   2.377 -0.2242 -0.0772 -1.5682
  168MOL0     H22137   2.554   9.774   2.415  1.3619 -1.9449  1.1549
  168MOL0     H22138   2.760  10.062   2.147 -0.8780 -2.4733  0.1540
  168MOL0     H22139   2.864  10.257   2.257 -0.6142 -0.7310 -2.0252
  168MOL0     H22140   3.004  10.466   2.731  0.9422  0.5374 -1.4671
  168MOL0     H22141   2.975  10.671   2.861  1.3281  1.1500 -1.4567
  168MOL0     H22142   2.985  10.895   2.925 -0.1656  0.8581  2.2263
  168MOL0     H22143   2.824  10.854   2.998  1.2657 -1.7906 -0.6187
  168MOL0     H22144   2.757  11.100   2.927  1.0284  2.3711  0.5730
  168MOL0     H22145   2.932  11.123   2.892 -0.7487  1.6402  1.2769
  168MOL0     H22146   2.995  11.087   3.099  0.2313  0.2105 -2.3367
  168MOL0     H22147   2.853  11.015   3.166  1.7262  0.4282  0.3166
  168MOL0     H22148   2.897  11.310   3.075  2.6968  0.0707  1.4702
  168MOL0     H22149   2.739  11.248   3.114  0.4795  1.4978  0.5122
  168MOL0     H22150   2.831  11.174   3.335  0.0498 -0.3789 -1.4310
  168MOL0     H22151   2.821  11.347   3.322  1.4638  0.1363  2.2500
  168MOL0     H22152   3.067  11.364   3.263  2.1527  1.1697  2.1171
  168MOL0     H22153   3.080  11.188   3.259 -1.4496 -0.2397  0.9614
  168MOL0     H22154   3.015  11.360   3.517  0.5767 -0.6110  1.9818
  168MOL0     H22155   2.999  11.188   3.503 -3.0297  1.9886  0.4693
  168MOL0     H22156   3.253  11.168   3.455 -1.2680 -0.6918 -0.7473
  168MOL0     H22157   3.202  11.245   3.603  1.9378  2.7196  0.2063
  168MOL0     H22158   2.680  10.796   2.566  0.5854 -0.6146 -0.6976
  168MOL0     H22159   2.696  10.571   2.459  0.5901 -0.4512 -1.8489
  168MOL0     H22160   2.813  10.069   2.635 -0.8173 -1.0006 -0.6103
  168MOL0     H22161   2.747   9.876   2.532 -1.8164  3.1695  2.8754
  168MOL0     H22162   1.836   8.796   2.999 -0.6758 -0.7055  1.6528
  168MOL0     H22163   1.922   8.668   3.203  0.4299 -0.2541 -0.1614
  168MOL0     H22164   2.037   8.513   3.489  1.2263  0.9357 -1.4464
  168MOL0     H22165   2.048   8.356   3.683 -3.0409  1.7958 -2.2230
  168MOL0     H22166   2.185   8.029   3.856  0.5481  0.0902 -0.2263
  168MOL0     H22167   2.060   8.139   3.811 -0.8822  0.8580  0.4764
  168MOL0     H22168   2.321   8.208   3.944 -1.6021 -2.2771  2.4898
  168MOL0     H22169   2.227   8.324   3.846  0.8323  0.4165  2.1600
  168MOL0     H22170   2.023   8.256   3.970 -0.8006 -0.4132  0.1480
  168MOL0     H22171   2.134   8.369   4.042  0.0850  0.2198 -1.7064
  168MOL0     H22172   2.081   8.179   4.210 -0.9480  1.4100 -1.1908
  168MOL0     H22173   2.153   8.066   4.114  0.1673 -0.7747 -0.3978
  168MOL0     H22174   2.446   8.305   4.340 -0.8009  2.4542 -0.6423
  168MOL0     H22175   2.358   8.131   3.488 -1.9526 -0.9895  3.6651
  168MOL0     H22176   2.346   8.274   3.285 -0.1883 -3.7233  1.0044
  169MOL0     O22177   4.376   7.570   3.465  0.5430  0.3046  0.2043
  169MOL0     C22178   4.493   7.554   3.474  0.6416 -1.0520 -0.2277
  169MOL0     O22179   4.581   7.560   3.373 -0.3863  0.0423 -0.8733
  169MOL0     C22180   4.574   7.669   3.283  0.2669 -0.0999  0.7840
  169MOL0     C22181   4.557   7.653   3.146  0.1972  0.8333 -0.4521
  169MOL0     C22182   4.533   7.763   3.065  0.0057 -0.3504  0.3421
  169MOL0     C22183   4.536   7.898   3.120  0.6886  0.1306 -1.0938
  169MOL0     O22184   4.507   8.012   3.053  0.2930 -0.8281 -0.8764
  169MOL0     C22185   4.589   8.034   2.934 -0.2394 -0.7866  0.0968
  169MOL0     C22186   4.529   8.146   2.850  0.8089  0.7629 -0.3069
  169MOL0     C22187   4.610   8.165   2.721 -0.8982 -0.0325 -0.3094
  169MOL0     C22188   4.580   8.048   2.631  0.3959 -0.0534  0.1081
  169MOL0     C22189   4.595   8.069   2.480  0.6679 -0.5035 -0.3811
  169MOL0     C22190   4.470   8.015   2.393  0.5571  0.3351 -0.1259
  169MOL0     C22191   4.443   7.864   2.409  0.6299  0.5611 -0.3783
  169MOL0     C22192   4.417   7.809   2.267 -0.2584 -0.6968  0.0919
  169MOL0     N22193   4.400   7.664   2.274  0.3392 -1.0072  0.1987
  169MOL0     C22194   4.356   7.582   2.180 -0.1625 -1.2141 -0.5226
  169MOL0     C22195   4.366   7.454   2.232  0.9334 -0.5547 -0.5963
  169MOL0     C22196   4.346   7.324   2.148 -0.1325 -0.0835 -0.2499
  169MOL0     C22197   4.216   7.328   2.064 -1.3339 -1.0482 -0.5979
  169MOL0     C22198   4.090   7.326   2.151  0.0477  0.3756 -0.5177
  169MOL0     C22199   4.035   7.467   2.173 -0.2577  0.6167  0.1217
  169MOL0     O22200   3.899   7.468   2.216 -0.0341 -0.1218 -0.0149
  169MOL0     C22201   3.788   7.479   2.135  0.6368  0.4045 -0.3746
  169MOL0     C22202   3.798   7.482   1.991  0.7980 -0.1473 -0.2697
  169MOL0     C22203   3.687   7.506   1.913 -0.3061  0.8867 -0.0182
  169MOL0     C22204   3.559   7.503   1.966 -0.8557 -0.3055  0.0864
  169MOL0     C22205   3.436   7.515   1.875 -0.2316 -0.1787  0.0267
  169MOL0     O22206   3.310   7.458   1.912 -0.4276  0.6998  0.2578
  169MOL0     C22207   3.200   7.474   1.834 -0.2630  0.4884 -0.0410
  169MOL0     C22208   3.087   7.517   1.896 -0.1682  0.2563 -0.2142
  169MOL0     C22209   2.971   7.552   1.821  0.2692  0.7426  1.0129
  169MOL0     C22210   2.966   7.527   1.691  0.3402 -0.0060  1.0839
  169MOL0     O22211   2.858   7.564   1.610  0.2810 -0.2682  0.6555
  169MOL0     C22212   2.763   7.464   1.603 -0.5257 -0.4361  0.0918
  169MOL0     C22213   2.651   7.502   1.514 -0.2646  0.4733 -0.6014
  169MOL0     C22214   2.698   7.507   1.369 -0.0643 -0.1108  0.5492
  169MOL0     C22215   2.583   7.463   1.277 -0.0345  0.2691 -0.4983
  169MOL0     C22216   2.436   7.522   1.302  0.6818 -0.4391 -0.2309
  169MOL0     C22217   2.390   7.620   1.194  0.1270  0.0668  0.1300
  169MOL0     C22218   2.250   7.664   1.232  0.4816 -0.9805 -0.5807
  169MOL0     C22219   2.137   7.567   1.226  1.2696 -0.3088 -0.2011
  169MOL0    Cl22220   1.989   7.660   1.250 -0.3786  1.0501 -0.7450
  169MOL0     C22221   3.083   7.478   1.628  0.4358  0.6443  0.1696
  169MOL0     C22222   3.201   7.453   1.693 -0.0886 -0.6108  0.6062
  169MOL0     O22223   3.457   7.577   1.775 -1.0104 -0.8211 -0.1471
  169MOL0     C22224   3.545   7.501   2.104  0.4075  0.3885 -1.2023
  169MOL0     C22225   3.660   7.495   2.193 -0.7447  0.3110  0.9225
  169MOL0     N22226   4.407   7.468   2.364 -0.0105 -0.0654 -0.6819
  169MOL0     N22227   4.419   7.593   2.392  0.2568  0.7086  0.2414
  169MOL0     C22228   4.553   7.911   3.263  0.1930 -0.0028 -0.3322
  169MOL0     C22229   4.567   7.799   3.335  0.8611  0.1889  0.2640
  169MOL0     C22230   4.530   7.492   3.603 -0.8187 -0.2842 -0.1553
  169MOL0     C22231   4.656   7.490   3.648 -0.3609  0.1937  0.4967
  169MOL0     C22232   4.707   7.425   3.763 -0.3892  0.4532  0.5149
  169MOL0     C22233   4.614   7.360   3.842 -0.1085 -0.6801 -0.2721
  169MOL0     O22234   4.678   7.301   3.953  0.1870 -0.2624 -0.5519
  169MOL0     C22235   4.599   7.219   4.034 -0.7483  0.4817 -1.1285
  169MOL0     C22236   4.566   7.077   3.970  0.0199  0.5504 -0.1730
  169MOL0     C22237   4.692   7.002   3.921  0.0787 -0.6733  0.3451
  169MOL0     C22238   4.648   6.871   3.854  0.5016 -0.0047  0.1273
  169MOL0     C22239   4.758   6.772   3.859  0.0473 -0.0642  1.5960
  169MOL0     C22240   4.836   6.684   3.884 -0.7544  0.9916  0.3992
  169MOL0     C22241   4.473   7.369   3.809  0.2711 -0.1461 -0.4295
  169MOL0     C22242   4.438   7.438   3.697  0.5177 -0.3989 -0.1452
  169MOL0     H22243   4.573   7.551   3.111  0.9719  0.2288  1.5675
  169MOL0     H22244   4.524   7.743   2.959 -0.3300 -1.3297  0.5378
  169MOL0     H22245   4.595   7.940   2.878 -1.2268 -0.4621 -0.5767
  169MOL0     H22246   4.689   8.061   2.970  1.0256 -0.1299 -3.4109
  169MOL0     H22247   4.531   8.240   2.907 -1.5536  0.5375  0.2669
  169MOL0     H22248   4.427   8.109   2.844  0.0036  1.4517  4.7173
  169MOL0     H22249   4.718   8.181   2.734 -0.4820 -2.2306 -0.8154
  169MOL0     H22250   4.578   8.260   2.676 -3.0677  0.5740  2.2687
  169MOL0     H22251   4.642   7.961   2.657 -0.1242 -0.0977  1.2275
  169MOL0     H22252   4.479   8.010   2.652 -1.1722  1.9957 -2.9605
  169MOL0     H22253   4.681   8.017   2.438 -0.4036 -0.7619 -2.3977
  169MOL0     H22254   4.615   8.174   2.455  0.5758 -0.5423 -0.6216
  169MOL0     H22255   4.495   8.039   2.289  4.2618  2.3503  1.0564
  169MOL0     H22256   4.378   8.072   2.406 -0.2623 -0.7783 -0.7879
  169MOL0     H22257   4.538   7.823   2.445  2.1182  0.5546 -3.9376
  169MOL0     H22258   4.361   7.834   2.475  2.0666 -1.7478  0.5021
  169MOL0     H22259   4.497   7.833   2.197 -1.1144 -2.2845 -1.4918
  169MOL0     H22260   4.319   7.849   2.238  0.5845  2.3117  1.0815
  169MOL0     H22261   4.330   7.601   2.076 -0.5825  0.5180 -0.1382
  169MOL0     H22262   4.341   7.241   2.219  1.7706  0.5845  0.7265
  169MOL0     H22263   4.441   7.319   2.094  0.6124  4.6819  0.2508
  169MOL0     H22264   4.214   7.240   1.999  0.6697 -1.3161 -0.3507
  169MOL0     H22265   4.212   7.424   2.011  0.3759 -0.0591  0.9716
  169MOL0     H22266   4.006   7.276   2.101 -0.5425  1.5709 -0.7567
  169MOL0     H22267   4.117   7.274   2.244  0.5887  2.1127  0.3289
  169MOL0     H22268   4.054   7.519   2.078 -2.0496 -2.8000 -2.3371
  169MOL0     H22269   4.093   7.519   2.250 -0.1320  1.1209 -0.3106
  169MOL0     H22270   3.895   7.493   1.944  1.2968  0.3838  0.8578
  169MOL0     H22271   3.699   7.521   1.806 -3.2528 -1.6404 -0.8584
  169MOL0     H22272   3.086   7.551   2.000 -0.8513 -3.1448  1.0315
  169MOL0     H22273   2.877   7.576   1.870 -0.2481 -0.4693  0.6430
  169MOL0     H22274   2.736   7.440   1.706  1.0683  1.1348  0.9245
  169MOL0     H22275   2.826   7.383   1.564 -0.4937 -1.6779  2.5189
  169MOL0     H22276   2.615   7.602   1.540  0.1842  1.0197 -1.9872
  169MOL0     H22277   2.565   7.439   1.534  0.6838 -0.7913 -0.3580
  169MOL0     H22278   2.784   7.447   1.339 -0.1981  1.2716 -3.0418
  169MOL0     H22279   2.729   7.608   1.339  0.1189 -0.6683 -1.2543
  169MOL0     H22280   2.605   7.479   1.171  1.5497  2.3224  0.0980
  169MOL0     H22281   2.580   7.353   1.278 -1.6882  0.2621  1.9592
  169MOL0     H22282   2.429   7.580   1.394  0.3561  0.1865 -0.6411
  169MOL0     H22283   2.366   7.438   1.309 -2.7007  2.0557 -1.3855
  169MOL0     H22284   2.384   7.566   1.100  1.4612 -1.1023  0.6772
  169MOL0     H22285   2.468   7.696   1.185 -0.4129  0.3015 -4.3377
  169MOL0     H22286   2.255   7.703   1.334 -4.2366  0.3446 -0.6291
  169MOL0     H22287   2.226   7.757   1.180  1.4125  0.2903  1.1400
  169MOL0     H22288   2.145   7.481   1.293 -1.3729 -2.0014 -1.8839
  169MOL0     H22289   2.129   7.531   1.123  0.0683  2.2258 -1.0612
  169MOL0     H22290   3.076   7.451   1.523  1.0873  0.3674  0.1883
  169MOL0     H22291   3.282   7.407   1.638 -0.2983 -0.5722  0.2581
  169MOL0     H22292   3.442   7.517   2.135  0.4585  0.7594 -1.2171
  169MOL0     H22293   3.633   7.486   2.298  1.6572  0.0129  1.5780
  169MOL0     H22294   4.542   8.010   3.306  0.2648 -0.2768  0.3121
  169MOL0     H22295   4.578   7.814   3.442  0.3195  2.4486  0.0452
  169MOL0     H22296   4.739   7.539   3.598  0.4705  0.1833  1.8152
  169MOL0     H22297   4.810   7.441   3.793 -0.1676  0.7789 -0.3872
  169MOL0     H22298   4.500   7.263   4.049 -0.8192  0.9458 -2.8531
  169MOL0     H22299   4.644   7.219   4.134  1.0021  2.5117 -1.8436
  169MOL0     H22300   4.519   7.018   4.050 -0.0816 -0.0468 -0.6621
  169MOL0     H22301   4.492   7.075   3.889  0.8412 -2.4412 -0.9841
  169MOL0     H22302   4.745   6.970   4.011 -0.3653 -1.7099  0.2613
  169MOL0     H22303   4.760   7.057   3.855  2.4633 -2.2783  1.3119
  169MOL0     H22304   4.559   6.826   3.899  0.8411 -0.8183 -0.0042
  169MOL0     H22305   4.623   6.892   3.749  1.6456 -0.0548 -0.1617
  169MOL0     H22306   4.892   6.600   3.921 -3.7603 -1.5417 -0.2808
  169MOL0     H22307   4.398   7.324   3.873  0.8178 -1.1909 -0.4902
  169MOL0     H22308   4.336   7.458   3.666  0.5880  0.5397  0.1781
  170MOL0     O22309   0.428   2.968   6.131  0.2730  0.2946  0.2384
  170MOL0     C22310   0.551   2.953   6.145 -0.1229  0.7493  0.1597
  170MOL0     O22311   0.605   2.890   6.249 -0.0854 -0.4492 -0.2798
  170MOL0     C22312   0.524   2.868   6.364 -0.7097  0.6100 -0.4064
  170MOL0     C22313   0.507   2.733   6.399  1.0369  0.5288 -0.4759
  170MOL0     C22314   0.417   2.702   6.507 -0.2313  0.1840 -0.5814
  170MOL0     C22315   0.360   2.804   6.585 -0.7792  0.0509  0.9763
  170MOL0     O22316   0.310   2.755   6.707  0.6428  0.3927  0.4100
  170MOL0     C22317   0.253   2.842   6.800 -0.1954 -0.5526 -0.1168
  170MOL0     C22318   0.173   2.751   6.888 -0.6315  0.3487  0.1718
  170MOL0     C22319   0.245   2.670   7.004  0.1358  0.8011  1.4361
  170MOL0     C22320   0.137   2.586   7.072  0.2424  0.3082 -0.8160
  170MOL0     C22321   0.200   2.530   7.202  0.4921  0.4964 -0.0179
  170MOL0     C22322   0.105   2.432   7.265 -0.1806 -0.3167 -0.1771
  170MOL0     C22323  -0.006   2.490   7.351 -0.0547  0.3264 -0.0436
  170MOL0     C22324  -0.075   2.378   7.440  0.6999 -0.7461 -0.1474
  170MOL0     N22325  -0.173   2.421   7.537 -0.1298 -0.2687  0.2056
  170MOL0     C22326  -0.151   2.487   7.657 -0.4882 -0.2151 -0.7092
  170MOL0     C22327  -0.279   2.494   7.717  0.0624  0.0161 -0.1971
  170MOL0     C22328  -0.304   2.544   7.857 -0.0624  0.4641 -0.8342
  170MOL0     C22329  -0.437   2.482   7.919 -0.3412  0.1602  0.2842
  170MOL0     C22330  -0.470   2.546   8.059 -0.2979  0.0205  0.8974
  170MOL0     C22331  -0.396   2.468   8.175  1.1755 -0.7320  1.1494
  170MOL0     O22332  -0.257   2.504   8.182  0.1455 -0.2988 -0.0349
  170MOL0     C22333  -0.169   2.432   8.255  0.3259  0.3566  0.9172
  170MOL0     C22334  -0.201   2.363   8.375 -0.2288  0.6729  0.0602
  170MOL0     C22335  -0.108   2.284   8.442  0.4190  0.3363 -1.5302
  170MOL0     C22336   0.022   2.265   8.387  0.0959 -0.4859 -0.6334
  170MOL0     C22337   0.117   2.175   8.452 -0.9292  0.0527  0.3247
  170MOL0     O22338   0.235   2.157   8.394 -0.0184 -0.1913 -0.1590
  170MOL0     C22339   0.326   2.065   8.426 -0.0355  0.1308 -0.6617
  170MOL0     C22340   0.314   1.968   8.526 -0.2805 -0.0718 -0.1577
  170MOL0     C22341   0.408   1.871   8.538 -0.5688 -0.2167 -0.8739
  170MOL0     C22342   0.528   1.871   8.462  0.3110 -0.3310 -0.3338
  170MOL0     O22343   0.621   1.779   8.470  0.1884  0.0235 -0.8576
  170MOL0     C22344   0.738   1.831   8.525  0.0812  0.5615  0.7620
  170MOL0     C22345   0.843   1.717   8.518 -0.8164 -1.8351 -0.3854
  170MOL0     C22346   0.877   1.676   8.371  0.3256 -0.2543  0.1288
  170MOL0     C22347   0.948   1.535   8.366  0.1098  0.2396  1.0837
  170MOL0     C22348   0.996   1.513   8.223 -0.6033  0.0590 -0.0593
  170MOL0     C22349   1.050   1.374   8.200  0.0913  0.3213  1.0173
  170MOL0     C22350   1.127   1.365   8.073 -0.3115 -0.0373  1.2891
  170MOL0     C22351   1.049   1.330   7.947 -0.6168  0.3868  0.1517
  170MOL0    Cl22352   1.153   1.315   7.807  0.3738  0.2151 -0.0961
  170MOL0     C22353   0.548   1.974   8.372  0.5069  0.5758  0.3506
  170MOL0     C22354   0.443   2.066   8.345 -0.5835  0.0548 -0.3211
  170MOL0     O22355   0.072   2.118   8.556  0.0573 -0.4441 -0.0762
  170MOL0     C22356   0.052   2.339   8.273  1.2468  0.9777  0.3376
  170MOL0     C22357  -0.045   2.423   8.204 -0.3997 -0.1330 -0.0312
  170MOL0     N22358  -0.364   2.414   7.633  0.4122  0.1542 -1.3514
  170MOL0     N22359  -0.298   2.380   7.530 -0.1308 -0.3254  0.3275
  170MOL0     C22360   0.388   2.936   6.557  0.5794 -0.3508  0.6590
  170MOL0     C22361   0.472   2.968   6.446  0.5472 -0.2370 -0.1601
  170MOL0     C22362   0.633   2.997   6.030 -0.3972  1.3869 -0.1808
  170MOL0     C22363   0.752   2.933   6.020 -1.2566 -0.4814  0.6385
  170MOL0     C22364   0.847   2.980   5.920  0.6880 -0.4306  0.9750
  170MOL0     C22365   0.809   3.084   5.823 -0.3566  0.5097  0.5323
  170MOL0     O22366   0.894   3.144   5.733 -0.1580  0.5080 -0.7369
  170MOL0     C22367   1.025   3.095   5.697 -0.7014 -0.0382 -0.8812
  170MOL0     C22368   1.080   3.168   5.567 -0.4353 -0.5829  0.0203
  170MOL0     C22369   0.973   3.156   5.457  0.1403  0.4022 -0.7440
  170MOL0     C22370   1.026   3.185   5.312  0.1666 -0.5327  0.6922
  170MOL0     C22371   1.043   3.329   5.290 -0.4128  0.2706 -0.8814
  170MOL0     C22372   1.052   3.451   5.269 -0.0569  0.4555  0.1234
  170MOL0     C22373   0.677   3.140   5.842 -0.5019  0.1966 -0.4232
  170MOL0     C22374   0.591   3.103   5.952  0.5788  0.2389 -0.4035
  170MOL0     H22375   0.546   2.652   6.338 -0.6993 -1.7041  1.1875
  170MOL0     H22376   0.413   2.597   6.537  2.7722  0.3096  0.6400
  170MOL0     H22377   0.195   2.920   6.749  2.9071  2.1308  0.0933
  170MOL0     H22378   0.328   2.900   6.854  2.1811 -0.3408 -3.3183
  170MOL0     H22379   0.118   2.688   6.817 -0.1805  3.5971 -3.3721
  170MOL0     H22380   0.117   2.824   6.947 -0.7410 -1.0823  1.9311
  170MOL0     H22381   0.301   2.745   7.061  1.1887 -1.0376  2.9044
  170MOL0     H22382   0.313   2.602   6.952  1.3691  0.8926  2.8859
  170MOL0     H22383   0.046   2.644   7.089  0.2268 -0.1993  0.9561
  170MOL0     H22384   0.124   2.504   7.001  0.3769 -2.1444  1.8477
  170MOL0     H22385   0.232   2.605   7.274 -1.5732 -0.2477  1.7752
  170MOL0     H22386   0.294   2.479   7.178 -0.4979 -1.6192  0.4117
  170MOL0     H22387   0.173   2.371   7.325  0.6243  0.2805 -0.4629
  170MOL0     H22388   0.077   2.366   7.182  3.1165  1.0248 -2.6113
  170MOL0     H22389   0.049   2.558   7.417  0.5404  1.9946 -2.1364
  170MOL0     H22390  -0.075   2.553   7.295 -0.3818 -0.8649 -1.0199
  170MOL0     H22391   0.005   2.332   7.498 -0.1188 -1.0978  0.7432
  170MOL0     H22392  -0.127   2.309   7.373 -1.4961  0.7448 -0.1051
  170MOL0     H22393  -0.056   2.519   7.697 -1.2570  0.6873  0.4845
  170MOL0     H22394  -0.319   2.652   7.854  1.1738  0.7468  1.3908
  170MOL0     H22395  -0.222   2.520   7.925 -0.4918 -1.9278 -1.0493
  170MOL0     H22396  -0.445   2.373   7.924  0.9126 -0.1627 -2.7026
  170MOL0     H22397  -0.515   2.502   7.845  0.5817 -3.0511 -1.7745
  170MOL0     H22398  -0.447   2.653   8.059 -1.9836  0.4116  0.3668
  170MOL0     H22399  -0.579   2.541   8.064 -0.5505  3.2077  0.9404
  170MOL0     H22400  -0.404   2.359   8.162  1.6228 -0.7236  0.7894
  170MOL0     H22401  -0.448   2.495   8.267 -0.5468  1.0682 -0.2728
  170MOL0     H22402  -0.301   2.375   8.415  0.1396 -0.2467  1.3074
  170MOL0     H22403  -0.145   2.238   8.533 -0.0279  1.8148 -0.9347
  170MOL0     H22404   0.239   1.959   8.604  1.4378 -0.5508  1.5120
  170MOL0     H22405   0.409   1.804   8.623  2.0323  0.6951 -0.0785
  170MOL0     H22406   0.722   1.879   8.622 -0.1239  3.7277 -0.7152
  170MOL0     H22407   0.780   1.912   8.465 -1.2282  3.0273  2.9725
  170MOL0     H22408   0.799   1.632   8.572 -0.1170 -2.0823 -0.1889
  170MOL0     H22409   0.928   1.739   8.583 -2.2075  1.1233  0.5867
  170MOL0     H22410   0.932   1.756   8.320 -0.8344  1.4208  1.3999
  170MOL0     H22411   0.784   1.676   8.313  0.0980  4.4237  0.0915
  170MOL0     H22412   1.037   1.543   8.429  0.7782 -0.6697  0.2803
  170MOL0     H22413   0.884   1.458   8.408  0.7234  0.3917  2.3399
  170MOL0     H22414   1.081   1.575   8.196  0.0945  0.3105  2.4876
  170MOL0     H22415   0.907   1.533   8.162 -2.7011 -0.1239  2.7524
  170MOL0     H22416   0.960   1.312   8.188  1.0492 -0.5588 -2.8546
  170MOL0     H22417   1.109   1.337   8.284  1.1520  1.8486  0.9857
  170MOL0     H22418   1.191   1.451   8.051  1.2735 -2.2608 -5.1105
  170MOL0     H22419   1.196   1.281   8.085 -1.1349 -1.0756 -0.7889
  170MOL0     H22420   0.980   1.414   7.932  0.6958  1.6169  0.8056
  170MOL0     H22421   0.999   1.234   7.962  0.6343 -0.7139 -2.1862
  170MOL0     H22422   0.626   1.969   8.297  0.0017  0.4297 -0.1725
  170MOL0     H22423   0.453   2.128   8.256 -1.2738  1.0572  0.2878
  170MOL0     H22424   0.154   2.344   8.236  0.4199 -0.8722 -2.5843
  170MOL0     H22425  -0.010   2.479   8.118 -1.5456 -0.2174 -0.5758
  170MOL0     H22426   0.349   3.028   6.600 -2.4519 -0.5982 -1.3069
  170MOL0     H22427   0.495   3.072   6.428  0.3900 -0.1223  0.3087
  170MOL0     H22428   0.775   2.851   6.087 -1.1808 -0.2939  0.8413
  170MOL0     H22429   0.948   2.942   5.908  1.6395  2.4745 -1.7065
  170MOL0     H22430   1.029   2.987   5.677 -1.4982 -0.2962  0.2644
  170MOL0     H22431   1.100   3.113   5.775 -2.3813 -0.9039  1.0120
  170MOL0     H22432   1.112   3.270   5.592  1.2536 -1.5524  2.1814
  170MOL0     H22433   1.169   3.112   5.536 -1.3403 -1.2992 -1.3653
  170MOL0     H22434   0.899   3.232   5.482 -2.3947 -2.8986  2.8355
  170MOL0     H22435   0.931   3.056   5.472 -2.3066  1.4253 -0.3008
  170MOL0     H22436   1.125   3.138   5.304  0.8308  0.6466  1.6066
  170MOL0     H22437   0.949   3.147   5.244 -1.9161  1.4336  1.8038
  170MOL0     H22438   1.078   3.550   5.238 -1.0806  0.3760 -1.1042
  170MOL0     H22439   0.657   3.223   5.776  1.6261  2.2402  1.3487
  170MOL0     H22440   0.497   3.155   5.967 -0.0565 -0.9496 -0.1887
  171MOL0     O22441  11.410   3.987   2.912  0.5366  0.2070 -1.0192
  171MOL0     C22442  11.469   4.060   2.826 -0.3900  0.4262 -0.0512
  171MOL0     O22443  11.483   4.200   2.833  0.1772  0.1528 -0.0657
  171MOL0     C22444  11.443   4.261   2.953  0.6197  0.2828  1.2777
  171MOL0     C22445  11.468   4.212   3.079 -0.0447  2.0330 -0.0871
  171MOL0     C22446  11.451   4.297   3.194  0.1684  0.4822  0.1804
  171MOL0     C22447  11.389   4.416   3.183  0.0388 -1.0723 -0.1355
  171MOL0     O22448  11.344   4.486   3.292  0.2387  0.8718 -0.1865
  171MOL0     C22449  11.205   4.541   3.278  0.2095  0.6818 -0.2032
  171MOL0     C22450  11.164   4.581   3.417  0.5423  0.6030 -0.1780
  171MOL0     C22451  11.035   4.656   3.399  0.2143 -0.8326 -0.4817
  171MOL0     C22452  10.995   4.699   3.544 -0.3557 -0.2050 -0.2177
  171MOL0     C22453  10.871   4.792   3.554  1.0251  0.1331  0.0587
  171MOL0     C22454  10.803   4.784   3.692  0.8046 -0.4988 -0.1865
  171MOL0     C22455  10.700   4.895   3.718  0.2252  0.9819  0.3966
  171MOL0     C22456  10.552   4.849   3.743 -0.6105  0.4574  0.3792
  171MOL0     N22457  10.499   4.817   3.614  0.0557  0.0254  0.1287
  171MOL0     C22458  10.466   4.694   3.574  0.4675 -0.1604 -0.1778
  171MOL0     C22459  10.435   4.706   3.444  0.6685  0.8120  0.5141
  171MOL0     C22460  10.415   4.593   3.339  0.2447 -0.9331 -0.6713
  171MOL0     C22461  10.548   4.550   3.266  0.0450  0.3254 -0.5863
  171MOL0     C22462  10.633   4.663   3.200  0.8284 -0.3328 -0.2228
  171MOL0     C22463  10.559   4.728   3.086  0.3504 -0.3901 -0.5778
  171MOL0     O22464  10.531   4.655   2.967 -0.2359 -0.3801  0.2600
  171MOL0     C22465  10.431   4.694   2.878 -0.2264  1.2090 -0.0995
  171MOL0     C22466  10.402   4.612   2.763 -0.1205 -0.0826 -0.2111
  171MOL0     C22467  10.294   4.637   2.678 -0.8340 -1.0066  0.2933
  171MOL0     C22468  10.211   4.740   2.703  0.6395 -1.3852 -0.9982
  171MOL0     C22469  10.110   4.777   2.603  0.4800  0.4955  0.2664
  171MOL0     O22470  10.014   4.854   2.642  0.7925  0.2057 -0.1167
  171MOL0     C22471   9.899   4.832   2.574 -0.6137 -0.0183 -0.3049
  171MOL0     C22472   9.836   4.939   2.506 -0.1526  0.3644  0.7237
  171MOL0     C22473   9.719   4.921   2.437  0.0223  0.2668 -0.4689
  171MOL0     C22474   9.652   4.795   2.444  1.3228 -0.7246 -0.2236
  171MOL0     O22475   9.529   4.790   2.371  0.1387  0.0236 -0.8670
  171MOL0     C22476   9.482   4.658   2.336 -0.2554 -0.2349  0.3497
  171MOL0     C22477   9.566   4.585   2.220  0.1179 -0.0208 -0.0835
  171MOL0     C22478   9.503   4.436   2.209 -0.3743 -0.0137  0.6472
  171MOL0     C22479   9.520   4.379   2.067  0.5708  0.0075 -0.3497
  171MOL0     C22480   9.421   4.456   1.972 -1.2695 -0.0551 -0.4604
  171MOL0     C22481   9.361   4.354   1.880 -0.8942  0.1363 -0.4845
  171MOL0     C22482   9.462   4.283   1.795  0.3089  0.5126  0.3880
  171MOL0     C22483   9.398   4.163   1.721 -0.3517 -0.1666 -1.7542
  171MOL0    Cl22484   9.261   4.204   1.602  0.3701 -0.2079 -0.1963
  171MOL0     C22485   9.720   4.688   2.496  0.1479 -0.2302 -0.9441
  171MOL0     C22486   9.835   4.705   2.572 -0.6135 -0.0160 -0.0680
  171MOL0     O22487  10.138   4.728   2.485 -0.4537 -0.6049 -0.2423
  171MOL0     C22488  10.237   4.827   2.814 -0.5819  0.7334  0.2050
  171MOL0     C22489  10.350   4.803   2.895 -0.0313 -0.6681 -0.2010
  171MOL0     N22490  10.448   4.839   3.412  0.3315  1.6463  0.8804
  171MOL0     N22491  10.475   4.901   3.517 -1.2189 -0.3215  0.3216
  171MOL0     C22492  11.384   4.464   3.054 -0.0413 -0.7318  1.1262
  171MOL0     C22493  11.398   4.383   2.941  0.4912  0.2270  0.1225
  171MOL0     C22494  11.520   3.986   2.704  0.0456 -0.4362  0.0678
  171MOL0     C22495  11.453   3.882   2.644 -0.3510  0.2264  0.0566
  171MOL0     C22496  11.518   3.811   2.539 -0.3067  0.3597  0.0093
  171MOL0     C22497  11.648   3.841   2.494 -0.1484 -0.4658 -0.0643
  171MOL0     O22498  11.701   3.742   2.412  0.5534 -0.2136  0.1309
  171MOL0     C22499  11.832   3.755   2.380 -0.0828 -0.1878  0.5358
  171MOL0     C22500  11.893   3.646   2.292  0.3357  0.9292 -0.6219
  171MOL0     C22501  11.995   3.700   2.200  0.8340 -0.7998  0.3147
  171MOL0     C22502  12.072   3.591   2.132 -0.1096  0.5266  0.5645
  171MOL0     C22503  12.185   3.645   2.052 -0.1396  0.7963  0.0024
  171MOL0     C22504  12.277   3.695   1.989 -0.2794  0.2180  0.7528
  171MOL0     C22505  11.710   3.953   2.550 -0.7862 -0.4172 -1.2395
  171MOL0     C22506  11.645   4.029   2.648  0.7906  0.2842  0.0962
  171MOL0     H22507  11.517   4.116   3.090 -0.8144  1.3481 -2.0658
  171MOL0     H22508  11.460   4.261   3.296  0.2835  0.6287  0.2223
  171MOL0     H22509  11.134   4.466   3.242 -1.3061  2.0168 -0.0976
  171MOL0     H22510  11.198   4.623   3.206 -0.5902  0.9890  0.2139
  171MOL0     H22511  11.246   4.631   3.469 -0.2598  0.8546  0.8696
  171MOL0     H22512  11.144   4.490   3.474 -3.2167  1.1783 -0.3552
  171MOL0     H22513  10.961   4.586   3.360  0.7149 -1.7187  0.1039
  171MOL0     H22514  11.042   4.752   3.347  0.8565 -0.5514  0.1010
  171MOL0     H22515  10.977   4.602   3.592  1.2537  0.2374  1.3632
  171MOL0     H22516  11.077   4.753   3.591 -1.4156  0.5732  0.7858
  171MOL0     H22517  10.795   4.761   3.481 -0.3019 -2.1693  2.2441
  171MOL0     H22518  10.899   4.894   3.527  4.5635 -1.2392 -2.1702
  171MOL0     H22519  10.880   4.782   3.770 -0.3527  3.1572  1.2429
  171MOL0     H22520  10.754   4.687   3.702 -0.3726 -0.1786 -2.3579
  171MOL0     H22521  10.733   4.953   3.805 -1.1538  1.0061  0.9213
  171MOL0     H22522  10.695   4.964   3.633 -3.3674 -1.3067 -1.4767
  171MOL0     H22523  10.499   4.930   3.793  2.1085  2.2076  0.6282
  171MOL0     H22524  10.560   4.758   3.804  3.3202 -1.5363 -2.6415
  171MOL0     H22525  10.468   4.604   3.636 -0.0447  2.6915  4.4301
  171MOL0     H22526  10.336   4.628   3.272 -0.2047  2.0034  1.2067
  171MOL0     H22527  10.373   4.518   3.408 -0.7445  0.2101  0.0096
  171MOL0     H22528  10.526   4.480   3.184  3.2698  0.0791 -1.3794
  171MOL0     H22529  10.612   4.502   3.341  1.2738  2.4527 -0.1959
  171MOL0     H22530  10.664   4.733   3.277 -4.0942 -0.0710  1.8626
  171MOL0     H22531  10.718   4.614   3.151  0.4689 -0.5410 -0.6457
  171MOL0     H22532  10.623   4.809   3.048 -0.5558 -0.5863 -2.6330
  171MOL0     H22533  10.471   4.775   3.130  1.8743  1.2947  0.8502
  171MOL0     H22534  10.479   4.538   2.743  1.9382  1.3113  1.9555
  171MOL0     H22535  10.287   4.593   2.579 -2.6254  2.4915 -1.3398
  171MOL0     H22536   9.883   5.035   2.522 -2.7324  1.5802  1.5440
  171MOL0     H22537   9.677   5.005   2.383  0.9883  0.6071 -0.7197
  171MOL0     H22538   9.380   4.677   2.303  0.1301  0.1194 -0.6582
  171MOL0     H22539   9.473   4.603   2.430 -0.6434  2.0349  1.7101
  171MOL0     H22540   9.671   4.594   2.246  0.0628  1.0338 -0.1759
  171MOL0     H22541   9.559   4.638   2.125 -0.6403 -0.5906 -0.3570
  171MOL0     H22542   9.396   4.425   2.228 -0.6071 -2.7330 -1.4586
  171MOL0     H22543   9.562   4.370   2.274  3.7627 -1.7523 -4.1572
  171MOL0     H22544   9.623   4.382   2.030 -0.2862  0.7325 -2.9032
  171MOL0     H22545   9.495   4.273   2.056 -0.0986 -0.0057  1.0129
  171MOL0     H22546   9.473   4.540   1.924 -1.3426  1.1688  1.4912
  171MOL0     H22547   9.333   4.493   2.024  0.9375  1.8816  2.2299
  171MOL0     H22548   9.284   4.399   1.817 -0.9529 -0.2768 -0.7190
  171MOL0     H22549   9.307   4.284   1.945 -1.9179  0.5402 -0.8774
  171MOL0     H22550   9.497   4.354   1.720 -1.4571 -2.1394 -3.3219
  171MOL0     H22551   9.547   4.248   1.853 -0.5655 -1.8508  0.3778
  171MOL0     H22552   9.361   4.102   1.804  1.2622  1.5337  0.3331
  171MOL0     H22553   9.480   4.113   1.670  1.3822  0.4596  0.2573
  171MOL0     H22554   9.678   4.587   2.501  2.5347 -1.2242  1.1634
  171MOL0     H22555   9.878   4.626   2.633  0.2526 -0.6027 -1.4106
  171MOL0     H22556  10.188   4.922   2.837 -0.6054  0.6310  0.5911
  171MOL0     H22557  10.364   4.868   2.981  0.9120 -1.1292  0.0102
  171MOL0     H22558  11.333   4.558   3.036  1.9860  0.1444 -0.2836
  171MOL0     H22559  11.364   4.411   2.842  1.5510 -0.5546 -0.4938
  171MOL0     H22560  11.365   3.837   2.690 -0.6108  2.3143  1.7511
  171MOL0     H22561  11.461   3.725   2.505 -0.1546  0.4807 -0.5564
  171MOL0     H22562  11.891   3.757   2.472  2.1716 -1.2379 -0.7873
  171MOL0     H22563  11.853   3.848   2.327  0.5554 -1.1327 -0.9277
  171MOL0     H22564  11.942   3.573   2.357 -1.2427 -1.9783 -2.4550
  171MOL0     H22565  11.822   3.589   2.230  1.8022 -0.9456 -0.6644
  171MOL0     H22566  12.060   3.763   2.263  0.1198  2.1449 -1.6791
  171MOL0     H22567  11.952   3.769   2.126  1.6063  0.5957  1.1194
  171MOL0     H22568  12.127   3.522   2.195 -2.1115  0.2928  2.1442
  171MOL0     H22569  12.002   3.540   2.065 -1.3903  2.2103  0.5344
  171MOL0     H22570  12.365   3.743   1.953 -0.8465  1.5922  1.1495
  171MOL0     H22571  11.800   3.997   2.510 -0.6048  1.1492  0.6892
  171MOL0     H22572  11.697   4.114   2.692  0.3615  2.1228 -2.6868
  172MOL0     O22573   9.972   5.795   4.559  0.7937 -0.1580 -0.2953
  172MOL0     C22574   9.946   5.908   4.516  0.0610 -0.2787  0.4268
  172MOL0     O22575   9.865   5.938   4.411 -0.0492 -0.7209 -0.1846
  172MOL0     C22576   9.796   5.831   4.364  0.4420  0.3027 -0.0940
  172MOL0     C22577   9.656   5.826   4.394 -0.7415 -0.1045  0.7978
  172MOL0     C22578   9.573   5.726   4.339 -0.5677  0.4500  0.4212
  172MOL0     C22579   9.638   5.633   4.248 -0.0324  0.0128  0.2581
  172MOL0     O22580   9.561   5.534   4.194 -0.6794 -0.0479  0.1083
  172MOL0     C22581   9.590   5.479   4.064  0.2402  0.5550  0.4735
  172MOL0     C22582   9.467   5.406   3.999 -0.2461  0.4285 -0.5666
  172MOL0     C22583   9.473   5.249   3.983 -0.3771 -0.1430  0.2626
  172MOL0     C22584   9.355   5.196   3.894 -0.2873 -0.5417  0.2790
  172MOL0     C22585   9.326   5.050   3.903 -0.9749 -0.4587  0.6758
  172MOL0     C22586   9.233   5.012   3.785  0.1678 -0.0128  0.5712
  172MOL0     C22587   9.234   4.861   3.751 -0.0318 -0.5221 -0.0032
  172MOL0     C22588   9.122   4.779   3.814 -0.3858 -0.0692  0.1402
  172MOL0     N22589   9.106   4.649   3.746  0.3646  0.7665  0.2759
  172MOL0     C22590   9.023   4.626   3.634 -0.3930  0.1866 -0.6024
  172MOL0     C22591   9.051   4.500   3.599 -0.5454 -0.5123  0.2226
  172MOL0     C22592   8.991   4.444   3.470 -0.0470 -0.2615 -0.7337
  172MOL0     C22593   8.922   4.318   3.498  0.6084 -0.1424 -0.4058
  172MOL0     C22594   9.021   4.202   3.520 -0.3683  0.3156  0.1471
  172MOL0     C22595   8.972   4.065   3.470 -0.4743 -0.1149 -0.5404
  172MOL0     O22596   8.979   4.067   3.327 -0.5856 -0.3930 -0.0001
  172MOL0     C22597   8.964   3.947   3.263 -0.4982  0.6496 -0.6829
  172MOL0     C22598   8.981   3.946   3.127  0.2563  0.7371 -0.0961
  172MOL0     C22599   8.979   3.823   3.051 -0.4538 -0.0485  0.2197
  172MOL0     C22600   8.978   3.701   3.118  0.1820 -0.1668 -0.1814
  172MOL0     C22601   8.976   3.568   3.040 -1.0128  1.0523 -0.5611
  172MOL0     O22602   8.921   3.460   3.113 -0.3041 -0.2346 -0.3492
  172MOL0     C22603   8.927   3.330   3.081  0.3426 -0.1193  0.6163
  172MOL0     C22604   8.822   3.240   3.118 -0.1839 -0.4094 -0.6616
  172MOL0     C22605   8.852   3.099   3.106 -0.4648 -0.0800  0.1733
  172MOL0     C22606   8.970   3.047   3.049  0.6416  0.1882 -0.2934
  172MOL0     O22607   8.992   2.906   3.031 -0.3783 -0.2143  0.1316
  172MOL0     C22608   9.129   2.860   3.058 -0.1339  0.4872 -0.6229
  172MOL0     C22609   9.157   2.819   3.206  0.5277  0.6446  0.7102
  172MOL0     C22610   9.149   2.952   3.294 -0.3543 -0.1352  0.1141
  172MOL0     C22611   9.182   2.909   3.444 -0.0124  0.0637  0.6078
  172MOL0     C22612   9.174   3.023   3.546  0.7326  0.1917 -0.3806
  172MOL0     C22613   9.032   3.052   3.593 -0.1472 -0.8645 -1.0393
  172MOL0     C22614   9.021   3.145   3.717 -0.3520  0.7485 -0.1017
  172MOL0     C22615   8.881   3.145   3.773  1.1984  0.5394 -0.0751
  172MOL0    Cl22616   8.844   3.247   3.920 -0.4429  0.3160 -0.0372
  172MOL0     C22617   9.067   3.142   3.013 -0.1594  1.4718 -0.6090
  172MOL0     C22618   9.046   3.276   3.020  0.2506  0.3286  0.0190
  172MOL0     O22619   9.039   3.561   2.933 -0.2454  0.5765  0.5448
  172MOL0     C22620   8.964   3.700   3.259  1.0644  0.6282 -0.7812
  172MOL0     C22621   8.960   3.822   3.330 -0.5338 -0.1194  0.8607
  172MOL0     N22622   9.159   4.455   3.675 -0.0718  0.1548  0.2066
  172MOL0     N22623   9.177   4.540   3.769 -0.3083  0.6400  0.1410
  172MOL0     C22624   9.768   5.647   4.214 -0.5571  0.3165 -0.0509
  172MOL0     C22625   9.854   5.749   4.266  0.5796 -0.8213  0.1207
  172MOL0     C22626  10.023   6.014   4.583 -0.1974  0.0358 -0.4222
  172MOL0     C22627  10.101   5.991   4.701  1.0777 -0.5762 -0.2964
  172MOL0     C22628  10.171   6.089   4.762 -0.4893  0.3184  0.5327
  172MOL0     C22629  10.183   6.215   4.701  0.6696  0.4986 -0.4847
  172MOL0     O22630  10.259   6.329   4.755 -0.0739 -0.2158  0.6205
  172MOL0     C22631  10.376   6.295   4.818 -0.0709  1.0086 -0.6394
  172MOL0     C22632  10.498   6.315   4.731 -0.3951  0.3840  1.1882
  172MOL0     C22633  10.523   6.458   4.700 -0.5037 -0.2337  0.8468
  172MOL0     C22634  10.633   6.495   4.601  0.4110  0.7859  0.3948
  172MOL0     C22635  10.761   6.443   4.638  0.4403  0.0245  0.1819
  172MOL0     C22636  10.878   6.437   4.653 -0.6905 -0.2387 -0.4478
  172MOL0     C22637  10.099   6.242   4.586 -0.8646 -0.5342  0.0235
  172MOL0     C22638  10.031   6.138   4.528 -0.3704 -1.1194 -0.3015
  172MOL0     H22639   9.614   5.889   4.472 -0.2574 -1.7632  2.5039
  172MOL0     H22640   9.466   5.739   4.346 -0.6026  0.2418  0.3039
  172MOL0     H22641   9.672   5.407   4.068 -0.7741 -0.6238  1.1702
  172MOL0     H22642   9.622   5.546   3.984 -1.1350  1.9882  1.0655
  172MOL0     H22643   9.475   5.454   3.901  0.6214  1.1501 -0.1530
  172MOL0     H22644   9.374   5.426   4.053  0.4322  0.0350  0.7973
  172MOL0     H22645   9.476   5.208   4.084  1.2481 -1.0557 -0.1276
  172MOL0     H22646   9.561   5.208   3.934 -0.7061  0.4888 -0.9126
  172MOL0     H22647   9.266   5.253   3.921 -0.5858 -1.2053  0.7189
  172MOL0     H22648   9.383   5.220   3.791 -1.6447 -0.3185 -0.0536
  172MOL0     H22649   9.285   5.027   4.002  0.1447 -0.0634  1.2437
  172MOL0     H22650   9.419   4.994   3.891  0.3964  1.9721 -1.2669
  172MOL0     H22651   9.249   5.069   3.693 -2.6902 -0.0724 -0.0615
  172MOL0     H22652   9.129   5.045   3.795 -0.0472  0.8937 -3.1710
  172MOL0     H22653   9.235   4.841   3.643  0.0737  0.8435 -0.2643
  172MOL0     H22654   9.330   4.817   3.782  0.1939 -0.3573 -0.4505
  172MOL0     H22655   9.028   4.835   3.806 -1.5578 -2.0307 -0.6337
  172MOL0     H22656   9.132   4.758   3.921  0.4795 -0.0618  0.0663
  172MOL0     H22657   8.953   4.697   3.590  0.5413  2.0844  0.8092
  172MOL0     H22658   9.077   4.437   3.403  1.8430  4.0546  0.8458
  172MOL0     H22659   8.922   4.524   3.443  0.1512  1.4549  3.1080
  172MOL0     H22660   8.856   4.302   3.412  2.1257 -2.7601 -1.1932
  172MOL0     H22661   8.854   4.326   3.584  1.1350 -0.1938  0.0210
  172MOL0     H22662   9.116   4.219   3.468 -0.3920 -0.6240 -0.2162
  172MOL0     H22663   9.045   4.190   3.626  0.1333 -3.0223 -0.2439
  172MOL0     H22664   8.874   4.047   3.516 -0.5912  2.1107  0.2234
  172MOL0     H22665   9.032   3.988   3.518  1.4169 -0.1457 -2.7920
  172MOL0     H22666   8.991   4.041   3.075  0.5959  1.0450  0.5274
  172MOL0     H22667   8.988   3.827   2.943 -1.0649 -0.3643  0.1539
  172MOL0     H22668   8.734   3.277   3.170  0.6666  0.0070  0.5431
  172MOL0     H22669   8.771   3.032   3.133 -2.0704  0.8965 -1.9556
  172MOL0     H22670   9.204   2.935   3.033 -0.2242  1.1885  1.1009
  172MOL0     H22671   9.152   2.765   3.009  0.1425 -2.0248  3.8270
  172MOL0     H22672   9.259   2.781   3.208  0.5365  0.1674 -2.8435
  172MOL0     H22673   9.080   2.751   3.244  0.8590  0.7955  1.7013
  172MOL0     H22674   9.050   2.997   3.284 -1.0329 -1.8430 -1.4195
  172MOL0     H22675   9.228   3.017   3.255  2.0642 -2.2353  1.2283
  172MOL0     H22676   9.108   2.836   3.478 -1.6168  0.2715 -2.1592
  172MOL0     H22677   9.276   2.857   3.465  0.0101 -1.0301 -1.8744
  172MOL0     H22678   9.221   3.115   3.510  1.2744 -0.0745 -0.3681
  172MOL0     H22679   9.229   2.985   3.633  0.9158  1.0194 -0.1344
  172MOL0     H22680   8.973   2.961   3.608 -1.4534 -0.0422 -1.0576
  172MOL0     H22681   8.974   3.106   3.518  0.0945 -0.2810 -0.8059
  172MOL0     H22682   9.091   3.102   3.789  0.3152  0.3202 -0.9817
  172MOL0     H22683   9.052   3.247   3.693  0.1522  1.5123  3.2746
  172MOL0     H22684   8.836   3.048   3.795 -1.8920  1.8556 -0.0275
  172MOL0     H22685   8.817   3.196   3.701 -0.0802 -0.5375  0.2602
  172MOL0     H22686   9.163   3.112   2.971 -0.5000  0.5064 -0.7169
  172MOL0     H22687   9.128   3.345   2.999  0.1825  0.1784 -0.7682
  172MOL0     H22688   8.962   3.606   3.314  0.1991  1.1556  0.1318
  172MOL0     H22689   8.962   3.805   3.437 -0.6129 -1.4684  0.6580
  172MOL0     H22690   9.815   5.574   4.149 -0.6707  1.3215 -1.3120
  172MOL0     H22691   9.960   5.758   4.242  0.4996  1.3464  0.3699
  172MOL0     H22692  10.103   5.898   4.756 -2.6933  1.9614  4.9985
  172MOL0     H22693  10.210   6.073   4.863 -0.0190 -0.1054  0.2875
  172MOL0     H22694  10.386   6.190   4.845 -0.3350  1.4565  1.4199
  172MOL0     H22695  10.386   6.349   4.913 -0.0140  1.2241 -0.7675
  172MOL0     H22696  10.587   6.269   4.774  0.9875  1.9259  0.0438
  172MOL0     H22697  10.483   6.263   4.636  1.6843 -0.5493  1.3172
  172MOL0     H22698  10.543   6.521   4.787  0.2935 -1.2728  1.4504
  172MOL0     H22699  10.431   6.504   4.662 -0.6635 -0.1774  1.2996
  172MOL0     H22700  10.607   6.455   4.503  2.2950  0.9532 -0.2153
  172MOL0     H22701  10.637   6.605   4.598  0.7584  0.7606 -1.2627
  172MOL0     H22702  10.981   6.425   4.680  0.1083  0.9659 -2.6832
  172MOL0     H22703  10.099   6.338   4.535 -2.8408 -0.6133 -0.2003
  172MOL0     H22704   9.967   6.168   4.446  0.2113 -0.7373 -0.6253
  173MOL0     O22705   6.561   5.551   0.994 -0.0804  0.0401 -0.0299
  173MOL0     C22706   6.647   5.501   0.922 -0.1321  0.2015 -0.8956
  173MOL0     O22707   6.644   5.494   0.792 -0.8030  0.8374 -0.1167
  173MOL0     C22708   6.537   5.552   0.725  0.9406 -1.0089  0.3582
  173MOL0     C22709   6.576   5.623   0.615 -0.3885  0.2104  0.5588
  173MOL0     C22710   6.490   5.691   0.524 -1.0147 -0.4804 -0.6313
  173MOL0     C22711   6.359   5.713   0.558  0.3480  0.3383 -0.6735
  173MOL0     O22712   6.258   5.778   0.490 -0.6166 -0.1071 -0.3250
  173MOL0     C22713   6.293   5.843   0.363  1.0673  0.1105  0.0875
  173MOL0     C22714   6.174   5.893   0.277 -0.4242 -0.6160  0.6981
  173MOL0     C22715   6.241   5.928   0.140 -0.5615  0.6278 -0.9919
  173MOL0     C22716   6.138   5.970   0.039  0.1063  0.3778  0.5472
  173MOL0     C22717   6.200   5.999  -0.099  0.6615  0.1294  0.6218
  173MOL0     C22718   6.285   5.881  -0.159 -0.3125 -0.2820  0.3356
  173MOL0     C22719   6.354   5.923  -0.294  0.1387  0.2467 -0.6273
  173MOL0     C22720   6.497   5.850  -0.319 -0.2204 -0.0762  0.1414
  173MOL0     N22721   6.489   5.704  -0.314 -0.6526 -0.5835  0.5411
  173MOL0     C22722   6.592   5.624  -0.269  0.2525  0.4321 -0.8142
  173MOL0     C22723   6.556   5.499  -0.303 -0.9494  0.5770 -0.1140
  173MOL0     C22724   6.641   5.381  -0.265 -0.2234 -0.2755  0.4711
  173MOL0     C22725   6.702   5.333  -0.400  0.2096 -1.0058  0.4583
  173MOL0     C22726   6.609   5.259  -0.501  0.6513  0.0757  0.2925
  173MOL0     C22727   6.675   5.200  -0.618 -0.5807  0.4847 -0.0299
  173MOL0     O22728   6.775   5.285  -0.676  0.1018 -1.0133 -0.3056
  173MOL0     C22729   6.908   5.266  -0.645 -0.8093 -0.5853 -0.5684
  173MOL0     C22730   6.971   5.178  -0.547  0.9702 -1.6314 -0.0785
  173MOL0     C22731   7.101   5.181  -0.539 -0.4431 -0.4915  0.7234
  173MOL0     C22732   7.190   5.262  -0.605  0.4735  0.0321  0.5679
  173MOL0     C22733   7.339   5.242  -0.578  0.4906  0.0492 -0.8702
  173MOL0     O22734   7.381   5.223  -0.448 -0.0559 -0.8635 -0.2714
  173MOL0     C22735   7.510   5.192  -0.449 -0.2397  0.4570  0.4713
  173MOL0     C22736   7.548   5.059  -0.469 -0.4969  0.5443  0.8870
  173MOL0     C22737   7.690   5.031  -0.463 -0.6665  0.1259  0.4016
  173MOL0     C22738   7.784   5.134  -0.459  0.6479  1.5053 -0.3663
  173MOL0     O22739   7.903   5.075  -0.481  0.1152  0.1689  0.4652
  173MOL0     C22740   8.018   5.162  -0.466 -0.5119 -0.3786  0.0522
  173MOL0     C22741   8.146   5.103  -0.527  0.0502  0.7591  1.0120
  173MOL0     C22742   8.234   5.028  -0.425 -0.0278  0.5161 -0.1712
  173MOL0     C22743   8.322   4.922  -0.496  0.2920 -0.7947  0.2030
  173MOL0     C22744   8.415   4.842  -0.404  0.1442  0.2636  0.3656
  173MOL0     C22745   8.350   4.766  -0.284  0.5528 -0.2424  0.9045
  173MOL0     C22746   8.279   4.634  -0.332  0.2769  0.2316 -0.9041
  173MOL0     C22747   8.216   4.560  -0.210 -1.0854  0.0420 -0.4745
  173MOL0    Cl22748   8.148   4.411  -0.275 -0.1465  0.0923 -0.2577
  173MOL0     C22749   7.738   5.265  -0.458  0.2958  0.7720  0.6098
  173MOL0     C22750   7.602   5.293  -0.446 -0.0805 -0.2014 -0.3372
  173MOL0     O22751   7.408   5.236  -0.679  0.6052  0.4801 -0.1621
  173MOL0     C22752   7.140   5.351  -0.708  0.2049  0.1894 -0.8298
  173MOL0     C22753   6.995   5.355  -0.719  0.3941 -0.3588  0.0876
  173MOL0     N22754   6.429   5.504  -0.365 -0.0534 -0.3066 -0.8793
  173MOL0     N22755   6.387   5.629  -0.374 -0.8709  0.3323 -0.2235
  173MOL0     C22756   6.314   5.654   0.674 -0.0721 -0.4693 -0.0362
  173MOL0     C22757   6.402   5.573   0.757 -0.5390  0.0362 -0.0106
  173MOL0     C22758   6.772   5.450   0.987  0.0897  0.1989  0.8101
  173MOL0     C22759   6.795   5.494   1.122 -0.6168 -0.1763  0.7016
  173MOL0     C22760   6.906   5.445   1.192 -0.2736  0.4612 -1.1444
  173MOL0     C22761   6.995   5.347   1.138  0.5494 -0.6375  0.2248
  173MOL0     O22762   7.091   5.302   1.222  0.0950  0.6396  1.2097
  173MOL0     C22763   7.045   5.203   1.308 -0.1431 -0.1391  0.5858
  173MOL0     C22764   7.177   5.128   1.349 -0.2764  0.1107  0.2650
  173MOL0     C22765   7.238   5.201   1.472  0.2890 -0.1344  0.0111
  173MOL0     C22766   7.383   5.238   1.457 -0.8452  0.3583 -0.4174
  173MOL0     C22767   7.476   5.121   1.474  0.6361 -0.8016  0.3413
  173MOL0     C22768   7.540   5.024   1.493 -0.3246 -0.1030  0.0552
  173MOL0     C22769   6.966   5.304   0.998  0.6611 -0.0345 -0.9880
  173MOL0     C22770   6.853   5.348   0.927 -1.0148  1.0826 -1.0935
  173MOL0     H22771   6.682   5.625   0.591 -1.0306 -0.5422 -2.7327
  173MOL0     H22772   6.541   5.729   0.436  1.1521 -0.8895  0.3836
  173MOL0     H22773   6.352   5.770   0.306  0.0221 -0.9823  0.3598
  173MOL0     H22774   6.346   5.931   0.400 -1.0180  1.2504  0.4699
  173MOL0     H22775   6.138   5.991   0.310 -0.3551 -0.3206 -0.0947
  173MOL0     H22776   6.094   5.821   0.258  0.1171 -0.4972 -2.5087
  173MOL0     H22777   6.298   5.839   0.110  3.1252  0.8088  4.1903
  173MOL0     H22778   6.314   6.008   0.160 -1.5071  1.6052 -1.3671
  173MOL0     H22779   6.066   5.889   0.030 -0.6119  1.0014  0.5032
  173MOL0     H22780   6.081   6.062   0.057 -1.6269  0.0140 -2.4884
  173MOL0     H22781   6.265   6.087  -0.098  0.5981  0.1829  0.0263
  173MOL0     H22782   6.121   6.014  -0.173  2.0277 -0.1426 -0.9588
  173MOL0     H22783   6.220   5.793  -0.162  0.0551 -0.6995  2.7948
  173MOL0     H22784   6.354   5.857  -0.079 -1.5898 -1.3666  1.1524
  173MOL0     H22785   6.285   5.903  -0.377  1.1573 -1.9241 -1.0296
  173MOL0     H22786   6.379   6.029  -0.288  2.1317 -0.2337  0.4659
  173MOL0     H22787   6.568   5.893  -0.248  0.6706 -0.4744 -0.4978
  173MOL0     H22788   6.534   5.877  -0.419  2.7886 -2.3956  0.5012
  173MOL0     H22789   6.683   5.654  -0.217 -1.9738  2.6370  2.1407
  173MOL0     H22790   6.581   5.307  -0.211  1.5552  0.1371  3.2105
  173MOL0     H22791   6.719   5.405  -0.192  1.4861  0.2506 -1.4205
  173MOL0     H22792   6.784   5.267  -0.372  1.1089 -0.9164 -1.8066
  173MOL0     H22793   6.752   5.420  -0.441  1.4692 -0.3797  3.0817
  173MOL0     H22794   6.555   5.186  -0.440  0.2983  2.5030  3.0766
  173MOL0     H22795   6.527   5.324  -0.532 -1.0580 -1.0117  2.2697
  173MOL0     H22796   6.595   5.188  -0.693 -2.6639  0.7702  2.0349
  173MOL0     H22797   6.715   5.103  -0.588  0.2931  1.7585  3.3494
  173MOL0     H22798   6.922   5.101  -0.487  3.8599 -2.2749  1.6379
  173MOL0     H22799   7.131   5.111  -0.462  2.7496 -1.4059 -1.1857
  173MOL0     H22800   7.467   4.987  -0.472 -3.4174  3.4248  3.0502
  173MOL0     H22801   7.726   4.929  -0.468  2.3351  0.9874  2.0181
  173MOL0     H22802   8.023   5.167  -0.357 -1.2545  2.5005  0.0222
  173MOL0     H22803   8.014   5.265  -0.501  1.8245  0.6705  2.5524
  173MOL0     H22804   8.223   5.171  -0.564  1.3388 -0.7580  0.8111
  173MOL0     H22805   8.114   5.042  -0.612  0.9759 -0.0390  1.2225
  173MOL0     H22806   8.163   4.976  -0.361  0.8512 -0.0209  0.3887
  173MOL0     H22807   8.295   5.094  -0.363  1.4329  3.4939 -4.2794
  173MOL0     H22808   8.264   4.860  -0.566  4.2443 -1.9768 -2.3795
  173MOL0     H22809   8.401   4.975  -0.551 -0.2162  0.4863  0.6556
  173MOL0     H22810   8.493   4.908  -0.364  0.9270  0.6357 -1.6320
  173MOL0     H22811   8.459   4.770  -0.473 -2.1192  0.5551 -1.5135
  173MOL0     H22812   8.274   4.828  -0.236  0.3957  1.3252 -1.1904
  173MOL0     H22813   8.422   4.735  -0.208 -1.6224 -1.7380  2.4580
  173MOL0     H22814   8.206   4.657  -0.410 -1.3013  0.7657  0.6707
  173MOL0     H22815   8.364   4.571  -0.362 -1.0437 -2.3381  0.4032
  173MOL0     H22816   8.142   4.619  -0.156  0.9215  2.2821 -0.0231
  173MOL0     H22817   8.295   4.537  -0.139 -1.5150  0.2842  0.0942
  173MOL0     H22818   7.807   5.344  -0.485  2.8975 -1.1212  1.2345
  173MOL0     H22819   7.566   5.395  -0.444  2.0223  0.5840  0.0629
  173MOL0     H22820   7.201   5.413  -0.772  0.5575 -0.0329 -0.7091
  173MOL0     H22821   6.944   5.420  -0.789 -2.6560  0.7315  3.0323
  173MOL0     H22822   6.211   5.669   0.702 -0.1225 -3.5206  2.0204
  173MOL0     H22823   6.362   5.541   0.853 -0.8231  1.3395  0.3264
  173MOL0     H22824   6.731   5.572   1.164 -0.9382 -0.9622  1.7067
  173MOL0     H22825   6.924   5.469   1.296  1.9884 -0.4035 -1.2805
  173MOL0     H22826   6.982   5.138   1.248 -1.9721  2.5761 -0.6389
  173MOL0     H22827   6.993   5.242   1.396  1.8512  0.9771  1.3378
  173MOL0     H22828   7.169   5.022   1.376  2.7404 -0.7221 -1.7426
  173MOL0     H22829   7.246   5.126   1.265 -3.4157 -0.2583 -2.5404
  173MOL0     H22830   7.218   5.139   1.560 -0.0726 -1.1971 -0.8015
  173MOL0     H22831   7.181   5.293   1.491 -1.1495 -0.4222 -2.5262
  173MOL0     H22832   7.389   5.286   1.359 -0.9929 -1.0246 -1.1277
  173MOL0     H22833   7.409   5.302   1.541  1.1264 -2.4260  1.2822
  173MOL0     H22834   7.598   4.941   1.526 -0.8066  0.2957  2.0222
  173MOL0     H22835   7.022   5.237   0.932 -0.6523  0.0959 -2.2942
  173MOL0     H22836   6.838   5.316   0.824  1.2360 -0.1984 -1.0736
  174MOL0     O22837   0.048   1.038   8.509  0.0402  0.5971 -0.6327
  174MOL0     C22838  -0.057   1.106   8.501 -0.6560  1.0385 -0.4966
  174MOL0     O22839  -0.174   1.088   8.576  0.2539  0.3926 -0.4977
  174MOL0     C22840  -0.151   1.049   8.699 -0.1956 -0.8043 -0.0115
  174MOL0     C22841  -0.107   0.913   8.734 -0.7853 -0.0950 -0.4118
  174MOL0     C22842  -0.105   0.887   8.869  0.1601  0.2018  0.3011
  174MOL0     C22843  -0.171   0.970   8.964 -0.4230  0.3529 -0.1926
  174MOL0     O22844  -0.167   0.946   9.097  0.5308  0.1258 -0.2025
  174MOL0     C22845  -0.109   0.820   9.158 -0.9009  0.0776  0.4448
  174MOL0     C22846  -0.136   0.811   9.312  0.0507 -0.1957 -0.0107
  174MOL0     C22847  -0.291   0.815   9.340 -0.8121 -0.1298  0.5043
  174MOL0     C22848  -0.359   0.680   9.302 -0.1295 -0.0131  0.0263
  174MOL0     C22849  -0.508   0.699   9.347 -0.2466  0.1474  0.6246
  174MOL0     C22850  -0.595   0.596   9.258 -0.2994 -1.0043 -0.2852
  174MOL0     C22851  -0.728   0.552   9.310  0.5392  0.2218 -0.6568
  174MOL0     C22852  -0.811   0.653   9.394 -0.1279  0.6760  0.2385
  174MOL0     N22853  -0.935   0.584   9.442  0.2907 -0.6617 -0.4166
  174MOL0     C22854  -0.952   0.502   9.554  0.7888 -0.7301  0.0570
  174MOL0     C22855  -1.075   0.446   9.525  0.3916 -0.6074 -0.4267
  174MOL0     C22856  -1.133   0.331   9.618  0.1119 -0.0065  0.3696
  174MOL0     C22857  -1.149   0.201   9.542  0.4523  1.1436 -0.4243
  174MOL0     C22858  -1.207   0.087   9.639 -0.2989 -0.3277  0.5051
  174MOL0     C22859  -1.349   0.123   9.695 -0.1240 -0.6354  0.0854
  174MOL0     O22860  -1.409  -0.002   9.731  0.6080 -0.2452  0.3248
  174MOL0     C22861  -1.539  -0.010   9.758 -0.3131 -0.7114 -0.4122
  174MOL0     C22862  -1.620   0.099   9.797  0.1260  0.0901  0.6931
  174MOL0     C22863  -1.754   0.072   9.830 -0.3172  0.0714  1.1190
  174MOL0     C22864  -1.807  -0.050   9.832  0.4920  0.3188  0.2060
  174MOL0     C22865  -1.940  -0.067   9.891  0.2371 -0.6617 -1.0534
  174MOL0     O22866  -2.020   0.035   9.923 -0.6958  0.6938  0.9230
  174MOL0     C22867  -2.150   0.004   9.935  0.8573  0.0224  0.6277
  174MOL0     C22868  -2.247   0.007   9.835  0.8580 -0.1411 -0.5400
  174MOL0     C22869  -2.385  -0.002   9.859  0.7931  0.7181  0.0791
  174MOL0     C22870  -2.434   0.008   9.988 -0.1651 -0.2519 -1.3163
  174MOL0     O22871  -2.571   0.030  10.019 -0.2053  0.5692  0.0762
  174MOL0     C22872  -2.601   0.036  10.156  0.4887 -0.0069  0.1381
  174MOL0     C22873  -2.756   0.030  10.188  0.1457 -0.1760  1.1584
  174MOL0     C22874  -2.792   0.050  10.333 -0.3884 -0.9723 -0.6346
  174MOL0     C22875  -2.945   0.078  10.343  0.6492  0.3410  0.2514
  174MOL0     C22876  -3.010   0.071  10.477  0.1572 -0.7357 -0.5257
  174MOL0     C22877  -3.027  -0.062  10.541  0.3518 -0.7713 -0.1794
  174MOL0     C22878  -3.124  -0.062  10.657 -0.3466 -0.8093 -0.6217
  174MOL0     C22879  -3.163  -0.206  10.685  0.2432 -0.6268 -0.6247
  174MOL0    Cl22880  -3.242  -0.210  10.839 -0.4116 -0.1369 -0.1154
  174MOL0     C22881  -2.340   0.010  10.101  0.2462  0.3245  1.0591
  174MOL0     C22882  -2.198   0.001  10.072 -1.4012  0.8696 -0.2317
  174MOL0     O22883  -1.976  -0.189   9.892  1.3362 -0.0221 -0.4149
  174MOL0     C22884  -1.722  -0.160   9.799  0.2924 -0.7614  0.3503
  174MOL0     C22885  -1.590  -0.138   9.758  0.1822 -0.6485 -0.1915
  174MOL0     N22886  -1.133   0.493   9.410 -0.5667 -0.8311  0.7955
  174MOL0     N22887  -1.042   0.580   9.365 -0.1209  0.6856  1.2176
  174MOL0     C22888  -0.203   1.100   8.928  1.2858  0.7350 -0.6714
  174MOL0     C22889  -0.188   1.140   8.797  0.5023 -1.0444 -0.5392
  174MOL0     C22890  -0.068   1.197   8.386  0.8277 -0.6765  0.1955
  174MOL0     C22891  -0.174   1.291   8.375  0.6243 -0.3233  0.3975
  174MOL0     C22892  -0.178   1.378   8.267  0.2003 -0.6848 -0.1684
  174MOL0     C22893  -0.097   1.370   8.156  0.0007  0.6343  1.4551
  174MOL0     O22894  -0.123   1.449   8.051  0.3883 -0.0988 -0.2200
  174MOL0     C22895  -0.028   1.482   7.951 -0.3594  0.6974 -0.7709
  174MOL0     C22896  -0.081   1.561   7.831 -0.4871  0.0065  0.1006
  174MOL0     C22897  -0.152   1.468   7.729 -0.4797  0.5842 -0.9096
  174MOL0     C22898  -0.275   1.398   7.773  0.5210 -0.5464 -0.2246
  174MOL0     C22899  -0.371   1.469   7.856  0.7152  0.0124  0.0481
  174MOL0     C22900  -0.464   1.525   7.921 -0.2289 -0.1185  0.4967
  174MOL0     C22901   0.004   1.277   8.154 -0.5161 -0.0354 -0.4124
  174MOL0     C22902   0.016   1.195   8.272  0.4218  0.9030  0.6407
  174MOL0     H22903  -0.097   0.835   8.660  2.5918 -0.1126 -0.0634
  174MOL0     H22904  -0.076   0.788   8.903  0.7816  0.2398 -0.0961
  174MOL0     H22905   0.000   0.827   9.153 -0.7695 -1.6810  0.2527
  174MOL0     H22906  -0.143   0.726   9.113  0.3520 -0.7301  1.1326
  174MOL0     H22907  -0.091   0.903   9.350 -2.1765  0.0917  2.2369
  174MOL0     H22908  -0.083   0.730   9.363  0.7656  1.1015  1.3674
  174MOL0     H22909  -0.349   0.880   9.274 -3.6812 -0.8424  2.1442
  174MOL0     H22910  -0.312   0.837   9.445 -0.7626  0.6954  0.3431
  174MOL0     H22911  -0.354   0.654   9.196  2.5256 -1.5328  0.4604
  174MOL0     H22912  -0.313   0.595   9.354 -2.4195 -0.2180  1.9154
  174MOL0     H22913  -0.543   0.803   9.346 -2.0959 -0.4126 -1.5040
  174MOL0     H22914  -0.525   0.670   9.452 -3.5664  0.9579  0.4414
  174MOL0     H22915  -0.535   0.505   9.244  0.9648 -0.1915 -0.3637
  174MOL0     H22916  -0.616   0.630   9.156  0.0290 -0.8921 -0.3180
  174MOL0     H22917  -0.795   0.518   9.231 -0.9654  0.4284  0.4967
  174MOL0     H22918  -0.703   0.464   9.370 -0.7035 -0.7818 -1.5651
  174MOL0     H22919  -0.841   0.730   9.323  0.6017 -0.3829 -1.2644
  174MOL0     H22920  -0.744   0.688   9.473  0.9622 -1.0183  0.1228
  174MOL0     H22921  -0.888   0.472   9.636  0.7307  1.6080  1.0313
  174MOL0     H22922  -1.235   0.354   9.650  0.1900  0.8736  0.0095
  174MOL0     H22923  -1.066   0.319   9.704  0.4150 -0.4627  0.0742
  174MOL0     H22924  -1.050   0.170   9.506  1.5120  1.6160  1.8456
  174MOL0     H22925  -1.224   0.214   9.464  1.1601 -0.9919 -1.5486
  174MOL0     H22926  -1.227  -0.007   9.589 -2.0449  1.0034 -1.4814
  174MOL0     H22927  -1.129   0.061   9.711  2.4038 -0.4328 -2.2966
  174MOL0     H22928  -1.403   0.177   9.616  1.4380  2.8163  1.1840
  174MOL0     H22929  -1.357   0.189   9.782 -2.5705 -1.6404  0.7057
  174MOL0     H22930  -1.575   0.197   9.796 -1.6347  0.9398 -0.7351
  174MOL0     H22931  -1.809   0.162   9.856 -3.0437 -1.0102 -0.4844
  174MOL0     H22932  -2.206   0.023   9.736 -1.1095  1.6706 -1.1350
  174MOL0     H22933  -2.443   0.009   9.767  0.0627  4.2666  0.8173
  174MOL0     H22934  -2.568   0.124  10.212 -1.7308  0.1626  1.3230
  174MOL0     H22935  -2.559  -0.050  10.210  1.8202  1.4361  1.5069
  174MOL0     H22936  -2.789  -0.067  10.151  0.5735 -0.3130  1.1282
  174MOL0     H22937  -2.802   0.104  10.121 -2.9995 -1.0614  2.1831
  174MOL0     H22938  -2.746   0.142  10.369  2.7653 -2.4191 -0.6619
  174MOL0     H22939  -2.770  -0.037  10.396  2.1652  0.7301  1.0027
  174MOL0     H22940  -2.957   0.181  10.310  0.5300  1.1355  2.5635
  174MOL0     H22941  -3.004  -0.001  10.295  0.0195  0.8771  0.1293
  174MOL0     H22942  -3.106   0.123  10.472  1.7394  2.2989 -3.6811
  174MOL0     H22943  -2.957   0.133  10.550  0.5993 -0.8942 -0.7108
  174MOL0     H22944  -2.936  -0.108  10.581 -1.4561 -2.5198  2.2424
  174MOL0     H22945  -3.066  -0.124  10.460  1.0735  0.5415 -1.5858
  174MOL0     H22946  -3.074  -0.023  10.747  1.5275  0.7156 -2.2263
  174MOL0     H22947  -3.215  -0.006  10.636 -1.3139 -0.8478  2.9005
  174MOL0     H22948  -3.074  -0.269  10.696  0.3590 -1.4754 -4.7911
  174MOL0     H22949  -3.229  -0.246  10.608  0.0984 -1.8200  0.1114
  174MOL0     H22950  -2.363   0.027  10.205  1.1269 -1.5711  1.6115
  174MOL0     H22951  -2.126   0.001  10.152  0.4458  2.1701 -1.8067
  174MOL0     H22952  -1.744  -0.266   9.807 -0.1386 -0.8845 -1.8441
  174MOL0     H22953  -1.524  -0.215   9.719 -1.4488 -2.4569  0.4690
  174MOL0     H22954  -0.244   1.155   9.013  1.6369 -0.4942  0.3214
  174MOL0     H22955  -0.224   1.234   8.757  0.8718  0.0454  1.5395
  174MOL0     H22956  -0.258   1.296   8.443 -0.7900 -1.6876 -1.1794
  174MOL0     H22957  -0.256   1.452   8.281 -0.8522 -1.8451  0.2804
  174MOL0     H22958  -0.002   1.384   7.911  0.3934  0.8032 -0.5469
  174MOL0     H22959   0.057   1.542   7.983  0.7331 -1.4695  0.6503
  174MOL0     H22960  -0.152   1.639   7.861  0.4499  0.4947  1.1369
  174MOL0     H22961   0.001   1.608   7.776 -0.9542  0.4075 -0.2716
  174MOL0     H22962  -0.086   1.397   7.678  1.0811  0.2873  1.4020
  174MOL0     H22963  -0.191   1.539   7.655 -1.9451  0.5516 -0.1925
  174MOL0     H22964  -0.336   1.368   7.687  2.1598 -1.2507 -1.1985
  174MOL0     H22965  -0.250   1.305   7.825 -0.3619 -1.4958 -1.4103
  174MOL0     H22966  -0.532   1.587   7.977 -1.0178 -0.1023 -0.4595
  174MOL0     H22967   0.083   1.264   8.081  1.0839  0.5134  1.1474
  174MOL0     H22968   0.092   1.118   8.284  1.3832  1.9287  1.2495
  175MOL0     O22969   0.555   9.324   6.872  0.2817 -0.4124  0.5419
  175MOL0     C22970   0.542   9.208   6.879  0.1258  0.1342  0.0178
  175MOL0     O22971   0.460   9.126   6.814  0.0875 -0.0800  0.2849
  175MOL0     C22972   0.394   9.173   6.700  0.9761 -0.6560  0.6514
  175MOL0     C22973   0.424   9.291   6.618  0.3644 -0.1463 -0.4172
  175MOL0     C22974   0.347   9.311   6.500 -0.6393  0.7686  0.0750
  175MOL0     C22975   0.238   9.233   6.474  0.1413 -0.6789  0.7714
  175MOL0     O22976   0.169   9.276   6.356  0.6911 -0.5481  0.6038
  175MOL0     C22977   0.075   9.187   6.303 -0.5338 -0.2317 -0.4092
  175MOL0     C22978  -0.005   9.254   6.187 -0.5839  0.4667 -0.4251
  175MOL0     C22979  -0.109   9.159   6.121 -0.7681 -0.0027 -0.9647
  175MOL0     C22980  -0.158   9.235   5.998  1.0429  0.5638  0.3984
  175MOL0     C22981  -0.263   9.153   5.922  0.6699  1.1759  0.3400
  175MOL0     C22982  -0.330   9.220   5.797  0.6006  0.4296 -0.1136
  175MOL0     C22983  -0.228   9.304   5.717 -0.5825 -0.0477  0.1626
  175MOL0     C22984  -0.211   9.258   5.577  0.6200 -0.8766 -0.0242
  175MOL0     N22985  -0.156   9.122   5.568  0.0315 -0.3524  0.3234
  175MOL0     C22986  -0.038   9.067   5.622  0.5906 -0.7798 -0.1652
  175MOL0     C22987  -0.054   8.939   5.597  1.2630 -0.2216  0.1997
  175MOL0     C22988   0.056   8.840   5.632 -1.1411  0.3949 -0.3147
  175MOL0     C22989   0.143   8.874   5.752 -0.0840 -0.5041  0.3146
  175MOL0     C22990   0.069   8.880   5.888  0.1592 -0.7392 -0.1795
  175MOL0     C22991  -0.040   8.775   5.922  0.0909  0.0661  0.3089
  175MOL0     O22992  -0.090   8.824   6.046  0.4463 -0.6651  0.1508
  175MOL0     C22993  -0.040   8.787   6.167 -0.9610  0.1142  0.5016
  175MOL0     C22994  -0.078   8.864   6.284  0.4150  1.4438 -0.0335
  175MOL0     C22995  -0.017   8.841   6.414  1.0999 -0.0924  0.7998
  175MOL0     C22996   0.092   8.750   6.421  0.6092 -0.9148  0.1610
  175MOL0     C22997   0.155   8.724   6.548  0.5747 -0.9909 -0.3175
  175MOL0     O22998   0.281   8.680   6.543 -0.5858 -0.5463 -0.1337
  175MOL0     C22999   0.359   8.666   6.652 -0.9299 -0.6002 -0.5737
  175MOL0     C23000   0.469   8.580   6.643 -0.4872  0.0962 -0.5627
  175MOL0     C23001   0.547   8.536   6.740 -1.4933  0.2288 -0.6669
  175MOL0     C23002   0.523   8.581   6.872  0.4360 -0.0101  0.9780
  175MOL0     O23003   0.596   8.558   6.981  0.2071 -0.2254  0.1890
  175MOL0     C23004   0.650   8.428   6.988  0.0329  1.0231 -0.0561
  175MOL0     C23005   0.712   8.403   7.119 -0.1262  0.1947  0.3150
  175MOL0     C23006   0.823   8.296   7.115  0.5177  0.0065  0.0497
  175MOL0     C23007   0.918   8.311   7.230  0.1524  0.1123  0.9999
  175MOL0     C23008   1.013   8.176   7.234  0.1139  0.4079  0.5675
  175MOL0     C23009   1.059   8.144   7.376 -0.0315 -0.5538 -0.6698
  175MOL0     C23010   0.958   8.051   7.431  0.2718  0.7291 -0.3560
  175MOL0     C23011   0.947   8.077   7.588  0.3322 -0.1361 -0.0609
  175MOL0    Cl23012   0.827   8.206   7.615  0.2631 -0.0698  0.5296
  175MOL0     C23013   0.423   8.671   6.887 -0.1916 -0.4623  0.7919
  175MOL0     C23014   0.338   8.717   6.785 -0.6856 -0.0896  0.7371
  175MOL0     O23015   0.090   8.745   6.649  0.5117  0.4158 -0.1143
  175MOL0     C23016   0.129   8.681   6.307  0.1978  0.4944  0.3886
  175MOL0     C23017   0.063   8.696   6.180 -1.0428 -0.2475 -1.0975
  175MOL0     N23018  -0.167   8.908   5.530 -0.1905 -0.4913  1.0418
  175MOL0     N23019  -0.233   9.020   5.509 -0.9739 -0.9814 -0.0228
  175MOL0     C23020   0.204   9.130   6.553  0.1931 -0.6016  0.2722
  175MOL0     C23021   0.285   9.095   6.662  0.3228  1.0022 -1.2406
  175MOL0     C23022   0.617   9.143   6.992 -0.3794 -0.2715 -0.1348
  175MOL0     C23023   0.677   9.215   7.093  0.3558  0.2389  0.4860
  175MOL0     C23024   0.743   9.148   7.196 -0.2116 -0.0763 -0.7952
  175MOL0     C23025   0.743   9.006   7.207  1.2129  0.7755 -0.0104
  175MOL0     O23026   0.795   8.952   7.321 -0.5125  0.3131  0.1725
  175MOL0     C23027   0.776   8.819   7.354 -0.3481  1.2715 -1.4539
  175MOL0     C23028   0.876   8.715   7.284  0.1106  0.1022  0.6291
  175MOL0     C23029   1.024   8.764   7.295  0.4064 -0.8644 -0.1341
  175MOL0     C23030   1.126   8.680   7.227  0.1738  0.4492  0.3122
  175MOL0     C23031   1.097   8.663   7.081  0.5749 -0.0194  0.1939
  175MOL0     C23032   1.093   8.638   6.960 -0.1649 -0.2157 -0.0526
  175MOL0     C23033   0.672   8.935   7.108 -0.1797  0.4606 -0.1006
  175MOL0     C23034   0.617   9.003   6.998 -0.5811 -0.2624 -0.2598
  175MOL0     H23035   0.509   9.353   6.643  1.7147 -1.0498 -2.5229
  175MOL0     H23036   0.385   9.387   6.432  0.4308 -0.1432 -0.3707
  175MOL0     H23037  -0.002   9.159   6.376  0.7813  0.4361  1.2962
  175MOL0     H23038   0.117   9.096   6.260  0.9799  0.2198  0.0708
  175MOL0     H23039   0.065   9.287   6.109 -0.2633  0.9048  0.0404
  175MOL0     H23040  -0.044   9.342   6.238 -1.1984  0.5024 -0.9562
  175MOL0     H23041  -0.186   9.146   6.198  2.6706 -2.4050  2.4420
  175MOL0     H23042  -0.072   9.060   6.095  1.4866  0.1743  1.2302
  175MOL0     H23043  -0.193   9.335   6.024  1.3668  0.3845  1.5520
  175MOL0     H23044  -0.067   9.256   5.941 -0.3952 -3.0588 -3.8072
  175MOL0     H23045  -0.338   9.118   5.993 -0.0304  1.0805 -0.4313
  175MOL0     H23046  -0.226   9.060   5.878 -2.1414  0.1344 -0.0083
  175MOL0     H23047  -0.415   9.274   5.840 -0.4262 -0.8895 -0.3993
  175MOL0     H23048  -0.379   9.146   5.733 -0.5277  0.7751  0.3233
  175MOL0     H23049  -0.269   9.405   5.706 -1.4557 -0.5930 -2.2320
  175MOL0     H23050  -0.128   9.310   5.759  1.1905  0.6262 -3.7408
  175MOL0     H23051  -0.141   9.319   5.519 -0.2268 -0.0731 -0.2406
  175MOL0     H23052  -0.315   9.260   5.541  0.5517 -3.4698 -0.1701
  175MOL0     H23053   0.049   9.108   5.671  1.6707 -2.8339 -0.2795
  175MOL0     H23054   0.118   8.828   5.543 -0.2772  0.3213  0.2843
  175MOL0     H23055   0.019   8.740   5.654  4.6513 -2.1872 -0.6869
  175MOL0     H23056   0.203   8.965   5.743 -0.7352 -0.2773 -3.1307
  175MOL0     H23057   0.209   8.789   5.773  1.8957  0.4725 -1.4930
  175MOL0     H23058   0.144   8.881   5.968  0.5405 -0.1982 -0.5408
  175MOL0     H23059   0.021   8.979   5.891  2.6676  0.5382  0.8064
  175MOL0     H23060   0.001   8.674   5.912 -0.5520 -0.2571  0.9013
  175MOL0     H23061  -0.122   8.778   5.849 -0.4995 -0.8295  0.9145
  175MOL0     H23062  -0.164   8.928   6.270 -3.1160 -2.7970  0.3256
  175MOL0     H23063  -0.072   8.884   6.497 -3.7014 -0.1924 -1.9873
  175MOL0     H23064   0.482   8.540   6.543 -1.7083  1.3450 -1.2597
  175MOL0     H23065   0.635   8.475   6.721 -2.0122 -0.6508 -0.3088
  175MOL0     H23066   0.728   8.411   6.912 -1.5727  0.0485 -1.5679
  175MOL0     H23067   0.571   8.355   6.966  0.9568  0.3549 -1.3857
  175MOL0     H23068   0.635   8.369   7.189 -0.5780  0.4039 -0.0786
  175MOL0     H23069   0.754   8.498   7.153 -0.5730  1.2090 -1.8103
  175MOL0     H23070   0.882   8.312   7.024  1.1839 -0.5675  0.3773
  175MOL0     H23071   0.788   8.192   7.107  3.8063 -1.0387 -4.4965
  175MOL0     H23072   0.971   8.397   7.189 -1.4819 -0.4877 -2.8051
  175MOL0     H23073   0.868   8.322   7.326 -0.7060 -2.5868  0.9397
  175MOL0     H23074   1.098   8.215   7.177 -1.3476  3.7578  0.4472
  175MOL0     H23075   0.962   8.093   7.186  1.3430  0.3695 -0.7063
  175MOL0     H23076   1.082   8.229   7.440 -0.4242 -2.7128  2.5443
  175MOL0     H23077   1.150   8.084   7.363 -0.7369 -1.7482 -0.3300
  175MOL0     H23078   0.856   8.069   7.396 -0.0692 -1.8046 -0.8358
  175MOL0     H23079   0.989   7.947   7.417  2.7932  1.3556 -0.0453
  175MOL0     H23080   1.042   8.100   7.637  0.6071  1.0848 -1.0987
  175MOL0     H23081   0.907   7.986   7.632  1.0052 -0.9786 -1.1300
  175MOL0     H23082   0.404   8.703   6.988 -6.3239  3.8271 -1.1530
  175MOL0     H23083   0.254   8.773   6.827 -0.5172  0.3141  0.5334
  175MOL0     H23084   0.209   8.609   6.317  1.2714  1.6266  0.1778
  175MOL0     H23085   0.090   8.637   6.093  1.1254 -0.1709 -0.5258
  175MOL0     H23086   0.123   9.066   6.519 -0.3869 -0.2359  0.9259
  175MOL0     H23087   0.266   9.000   6.711  0.1614  0.5924 -2.0776
  175MOL0     H23088   0.673   9.324   7.091  0.6367  0.2965  1.9221
  175MOL0     H23089   0.797   9.212   7.266 -2.9197 -0.4485  1.8458
  175MOL0     H23090   0.671   8.804   7.328 -0.0227  0.5681 -2.3822
  175MOL0     H23091   0.793   8.813   7.462 -1.6881  2.6464 -1.1418
  175MOL0     H23092   0.870   8.615   7.328  1.5243 -0.8528 -1.1997
  175MOL0     H23093   0.834   8.710   7.183  0.1977 -0.4816  0.6192
  175MOL0     H23094   1.042   8.788   7.400  2.1403 -1.7991 -0.1859
  175MOL0     H23095   1.041   8.856   7.238  1.3170 -0.1892  1.1667
  175MOL0     H23096   1.227   8.718   7.245  0.7464 -0.7766 -0.2665
  175MOL0     H23097   1.123   8.579   7.268  1.0917  0.4589  0.4212
  175MOL0     H23098   1.087   8.627   6.853  0.7068  1.3609 -0.2915
  175MOL0     H23099   0.652   8.828   7.109 -3.3592  0.9393 -1.1472
  175MOL0     H23100   0.571   8.940   6.923 -3.1237  2.7810 -1.4324
  176MOL0     O23101   2.901   9.644   4.442  0.3009 -0.5760 -0.1864
  176MOL0     C23102   3.022   9.622   4.422  1.6556  0.4094 -0.1776
  176MOL0     O23103   3.095   9.529   4.483 -0.4991 -0.5641 -0.1275
  176MOL0     C23104   3.038   9.467   4.591  0.8325  0.3044  0.8312
  176MOL0     C23105   2.999   9.528   4.705 -0.3459 -0.0026 -0.3016
  176MOL0     C23106   2.941   9.458   4.811  0.4172  0.1607 -0.9078
  176MOL0     C23107   2.927   9.320   4.799  0.5239  0.3459 -0.2172
  176MOL0     O23108   2.883   9.234   4.905 -0.0487 -0.3382  0.7667
  176MOL0     C23109   2.782   9.272   4.990  0.2017  0.1099  0.2441
  176MOL0     C23110   2.716   9.142   5.041  0.1746  1.1523  0.0644
  176MOL0     C23111   2.598   9.174   5.128  0.8805 -0.8081 -0.2513
  176MOL0     C23112   2.489   9.257   5.050 -1.1160  1.2009 -0.7948
  176MOL0     C23113   2.481   9.401   5.080 -0.7901  0.5618 -0.5058
  176MOL0     C23114   2.369   9.465   4.990 -0.1091 -0.1775 -0.3161
  176MOL0     C23115   2.345   9.617   5.009 -0.8479 -0.6402 -0.1571
  176MOL0     C23116   2.236   9.683   4.919 -0.1127 -0.4745  0.0879
  176MOL0     N23117   2.112   9.663   4.998 -0.0391 -0.5305 -0.5084
  176MOL0     C23118   2.028   9.759   5.045  0.3208 -0.6649  0.0632
  176MOL0     C23119   1.922   9.695   5.087 -0.5265 -0.0455  0.6127
  176MOL0     C23120   1.800   9.748   5.140  0.6731 -0.3498  0.1741
  176MOL0     C23121   1.711   9.784   5.025 -0.1694  0.5653  0.2734
  176MOL0     C23122   1.721   9.928   4.980  0.2237 -0.0591  0.2799
  176MOL0     C23123   1.616   9.963   4.874  0.4734 -0.1198  0.1090
  176MOL0     O23124   1.483   9.936   4.912 -0.3759  0.2593 -0.2778
  176MOL0     C23125   1.409  10.042   4.966 -0.1301  0.5263 -0.1060
  176MOL0     C23126   1.361  10.025   5.096 -0.1078  0.1447  0.3627
  176MOL0     C23127   1.287  10.129   5.154  0.0244  0.7980 -0.7190
  176MOL0     C23128   1.254  10.242   5.087  0.2922  0.0571  0.4365
  176MOL0     C23129   1.180  10.348   5.157 -0.9742 -0.5686  0.7406
  176MOL0     O23130   1.123  10.448   5.080  0.4446  0.1978 -0.0662
  176MOL0     C23131   1.091  10.568   5.139 -0.8710  0.1982  0.1407
  176MOL0     C23132   1.163  10.675   5.109 -0.0817 -0.6188 -0.8210
  176MOL0     C23133   1.109  10.801   5.147  0.4607 -0.5945  0.3017
  176MOL0     C23134   1.003  10.810   5.239  0.2189  0.2608 -0.7306
  176MOL0     O23135   0.975  10.926   5.312  0.1447 -0.6533  0.7555
  176MOL0     C23136   1.081  11.025   5.315 -0.1265  1.5180 -0.0029
  176MOL0     C23137   1.038  11.123   5.426  0.5023 -0.6216  0.1583
  176MOL0     C23138   1.103  11.265   5.424 -0.2405 -0.0492 -0.3500
  176MOL0     C23139   1.257  11.263   5.441 -0.0024  0.6001  0.1266
  176MOL0     C23140   1.321  11.405   5.429 -0.0019  0.0642  0.4877
  176MOL0     C23141   1.458  11.398   5.505  0.0862  0.3877  0.1059
  176MOL0     C23142   1.553  11.304   5.429  0.0568 -0.0403 -0.2658
  176MOL0     C23143   1.703  11.330   5.475  1.3600  0.5023  0.2990
  176MOL0    Cl23144   1.740  11.498   5.419 -0.1114  0.3288  0.2571
  176MOL0     C23145   0.926  10.697   5.267  0.0705  0.0797 -0.3058
  176MOL0     C23146   0.972  10.580   5.211  0.9032  0.3177 -0.3740
  176MOL0     O23147   1.184  10.353   5.280 -0.3345 -0.1368 -0.7630
  176MOL0     C23148   1.297  10.261   4.950 -0.1503  0.7605  0.3751
  176MOL0     C23149   1.376  10.157   4.890  0.2092 -0.6631 -0.3004
  176MOL0     N23150   1.945   9.556   5.069  0.2028  0.0584  0.3965
  176MOL0     N23151   2.055   9.541   5.007 -0.3207  0.0383 -0.7435
  176MOL0     C23152   2.984   9.255   4.689 -0.2962  0.5122 -0.0520
  176MOL0     C23153   3.037   9.329   4.580  0.9297  0.4946  0.3934
  176MOL0     C23154   3.092   9.703   4.315  0.1361  0.4330 -0.7187
  176MOL0     C23155   3.222   9.664   4.272  0.6163  0.2332 -0.4177
  176MOL0     C23156   3.296   9.743   4.184  0.3552  0.5248 -0.1334
  176MOL0     C23157   3.242   9.858   4.130 -0.1520 -0.2965  0.3567
  176MOL0     O23158   3.311   9.951   4.063 -0.3592  0.5685 -0.1045
  176MOL0     C23159   3.450   9.940   4.033  0.5888 -0.4819  0.1609
  176MOL0     C23160   3.489  10.068   3.958  0.5558  0.4007 -0.1657
  176MOL0     C23161   3.634  10.081   3.928  0.6903  0.5180 -0.5029
  176MOL0     C23162   3.682  10.203   3.864  0.6135 -1.3484  0.1965
  176MOL0     C23163   3.643  10.202   3.721 -0.0753 -1.0102 -0.0154
  176MOL0     C23164   3.625  10.206   3.603  0.8446  0.3995 -0.4155
  176MOL0     C23165   3.112   9.897   4.163  0.2851  0.2455 -0.1786
  176MOL0     C23166   3.037   9.820   4.255 -1.1204 -0.8464 -0.0193
  176MOL0     H23167   3.004   9.636   4.710  2.1860 -0.1087  0.9011
  176MOL0     H23168   2.913   9.504   4.906  2.9567 -1.3007  0.6778
  176MOL0     H23169   2.717   9.346   4.941  0.5335  1.5773  1.9083
  176MOL0     H23170   2.844   9.322   5.065  2.1309 -2.2434  0.3323
  176MOL0     H23171   2.789   9.091   5.105 -0.6913  0.1535  0.2889
  176MOL0     H23172   2.689   9.080   4.955 -1.4524  0.9848  0.6564
  176MOL0     H23173   2.621   9.223   5.223 -1.7545 -0.1246  0.1251
  176MOL0     H23174   2.559   9.077   5.160 -1.1714 -0.5420 -1.7395
  176MOL0     H23175   2.489   9.242   4.942  0.0097 -2.2404 -0.4480
  176MOL0     H23176   2.400   9.208   5.090  0.6642  0.7834  3.1254
  176MOL0     H23177   2.580   9.446   5.072  1.1529 -2.0783  4.5074
  176MOL0     H23178   2.447   9.411   5.183 -0.0805  2.8932 -0.4415
  176MOL0     H23179   2.277   9.416   5.021  1.2055 -1.5530  1.6109
  176MOL0     H23180   2.391   9.443   4.885  2.1874 -3.0922  0.6428
  176MOL0     H23181   2.321   9.638   5.114  1.9579  0.8310  0.2564
  176MOL0     H23182   2.437   9.669   4.982  0.0130 -0.8454  2.2043
  176MOL0     H23183   2.243   9.639   4.820  2.9036  0.4740 -0.2128
  176MOL0     H23184   2.241   9.792   4.910 -1.8674 -0.0917  2.6451
  176MOL0     H23185   2.019   9.863   5.017 -1.2610 -0.5823  0.7790
  176MOL0     H23186   1.822   9.835   5.203 -0.4688  0.1998 -0.1632
  176MOL0     H23187   1.746   9.681   5.207 -3.3047  2.0797 -0.2461
  176MOL0     H23188   1.612   9.774   5.071  0.8471 -0.7541  2.3207
  176MOL0     H23189   1.729   9.724   4.935  2.8300  1.2151  0.3388
  176MOL0     H23190   1.703   9.986   5.071 -1.8483 -2.9348  1.8650
  176MOL0     H23191   1.818   9.936   4.931  0.8330 -0.4288  1.4064
  176MOL0     H23192   1.645   9.920   4.778  2.2908 -0.7060  0.8665
  176MOL0     H23193   1.624  10.069   4.851  2.6254 -0.2930 -0.1173
  176MOL0     H23194   1.383   9.925   5.133  3.1609 -0.4110 -2.5411
  176MOL0     H23195   1.252  10.121   5.256  0.5441  0.8899 -0.5310
  176MOL0     H23196   1.254  10.673   5.052  2.8904 -0.8630  3.4426
  176MOL0     H23197   1.173  10.882   5.113  0.8664 -1.3674 -0.8234
  176MOL0     H23198   1.080  11.082   5.221  0.3951 -0.4372 -1.2438
  176MOL0     H23199   1.182  10.989   5.333  0.2491 -0.8337 -5.1071
  176MOL0     H23200   1.061  11.071   5.519  1.1427 -0.0189  0.3530
  176MOL0     H23201   0.930  11.135   5.420  0.3623 -1.5203  0.7030
  176MOL0     H23202   1.072  11.326   5.509  3.4121  2.6210 -0.6941
  176MOL0     H23203   1.074  11.322   5.335 -0.0643  1.2847  0.4329
  176MOL0     H23204   1.273  11.224   5.542 -1.1507 -1.9998 -0.5935
  176MOL0     H23205   1.292  11.189   5.368  0.1001  1.4441 -0.6879
  176MOL0     H23206   1.248  11.478   5.463 -2.2636 -1.8599  0.0405
  176MOL0     H23207   1.344  11.433   5.325  0.8605 -0.1499  0.6129
  176MOL0     H23208   1.432  11.364   5.606 -5.7870 -0.3513 -1.2803
  176MOL0     H23209   1.494  11.501   5.508 -4.4627  2.1804  2.4836
  176MOL0     H23210   1.531  11.202   5.463  0.2916  0.7292  2.4405
  176MOL0     H23211   1.550  11.312   5.320 -0.8238 -3.3974 -0.5919
  176MOL0     H23212   1.765  11.247   5.441  1.1681  0.6066 -0.3040
  176MOL0     H23213   1.694  11.330   5.584  1.3179 -0.0213  0.2978
  176MOL0     H23214   0.847  10.680   5.340 -0.0682 -1.1518 -0.7199
  176MOL0     H23215   0.907  10.494   5.226 -0.5991  1.2152 -1.5466
  176MOL0     H23216   1.268  10.345   4.887 -3.2855 -0.5909 -0.1852
  176MOL0     H23217   1.406  10.168   4.786 -2.2516 -0.6138 -1.0779
  176MOL0     H23218   2.980   9.146   4.688 -0.4781  0.2319  5.0661
  176MOL0     H23219   3.066   9.279   4.488 -2.4179 -0.9132 -0.0209
  176MOL0     H23220   3.276   9.580   4.314 -1.0305  0.7399  3.1255
  176MOL0     H23221   3.389   9.694   4.159  1.2233  2.3408 -0.6794
  176MOL0     H23222   3.461   9.863   3.956 -2.2276  0.5211 -1.3660
  176MOL0     H23223   3.510   9.925   4.123  0.7446 -1.6484 -0.1152
  176MOL0     H23224   3.423  10.084   3.872 -2.3340  1.9429  2.1495
  176MOL0     H23225   3.470  10.148   4.031 -3.7152 -0.1760 -0.4085
  176MOL0     H23226   3.670   9.997   3.867  0.4119  0.2147 -0.2532
  176MOL0     H23227   3.674  10.058   4.027 -0.7676 -1.6347 -0.3452
  176MOL0     H23228   3.635  10.289   3.912 -0.8827 -2.6211  1.1291
  176MOL0     H23229   3.789  10.221   3.874  0.2333 -0.3517  3.8457
  176MOL0     H23230   3.594  10.202   3.500  0.2803 -1.1830 -0.2137
  176MOL0     H23231   3.062   9.988   4.132  3.4197  1.7804 -1.1506
  176MOL0     H23232   2.938   9.856   4.281 -0.4639  1.2983 -0.2809
  177MOL0     O23233   3.119   5.253   8.513  0.4572 -0.9851  0.2010
  177MOL0     C23234   3.083   5.369   8.508  0.1195  0.6414 -0.3054
  177MOL0     O23235   2.993   5.427   8.597  0.2097  0.2974 -0.8089
  177MOL0     C23236   2.991   5.367   8.718 -0.6883  0.6224 -0.9667
  177MOL0     C23237   2.879   5.290   8.755 -0.3839  0.0872 -0.2352
  177MOL0     C23238   2.868   5.239   8.881 -0.1682 -0.0435  1.3079
  177MOL0     C23239   2.974   5.254   8.976  0.8237  1.1881  0.0623
  177MOL0     O23240   2.982   5.186   9.091  0.2544  0.0370  0.4905
  177MOL0     C23241   2.866   5.113   9.130  0.6997  0.0577  0.1665
  177MOL0     C23242   2.886   5.057   9.265  0.1701 -0.7011 -0.2640
  177MOL0     C23243   2.991   4.958   9.272 -0.2156  0.4129 -0.0128
  177MOL0     C23244   3.042   4.943   9.420  0.1266  0.2399  0.0133
  177MOL0     C23245   3.141   4.820   9.416  0.3363 -0.3300 -0.5962
  177MOL0     C23246   3.120   4.745   9.553  0.5428  0.3539  0.3922
  177MOL0     C23247   3.170   4.603   9.563 -0.0873  0.0893 -0.8734
  177MOL0     C23248   3.320   4.580   9.548  0.6349  0.2745 -0.6367
  177MOL0     N23249   3.393   4.615   9.678 -0.7034 -0.1941  0.3820
  177MOL0     C23250   3.476   4.535   9.754  0.4786 -0.2227 -0.3487
  177MOL0     C23251   3.522   4.605   9.857 -0.1903 -0.5361  0.3394
  177MOL0     C23252   3.604   4.549   9.975  0.0861 -0.6714 -0.3708
  177MOL0     C23253   3.551   4.591  10.111  0.0813  0.5124  0.2128
  177MOL0     C23254   3.410   4.530  10.143  0.4640 -0.1505  0.0846
  177MOL0     C23255   3.389   4.525  10.296 -0.1894 -0.1390  0.5237
  177MOL0     O23256   3.494   4.463  10.371 -0.1291  0.0675  0.0958
  177MOL0     C23257   3.467   4.424  10.505  0.1611  0.6989  0.5521
  177MOL0     C23258   3.348   4.446  10.577 -0.0231  0.4489 -0.6583
  177MOL0     C23259   3.325   4.379  10.702  0.2276  0.6469 -0.2223
  177MOL0     C23260   3.437   4.320  10.767 -0.1984  1.0189  0.4955
  177MOL0     C23261   3.415   4.262  10.897  0.3779  0.6826 -0.8359
  177MOL0     O23262   3.487   4.149  10.927 -0.5028 -0.0077 -0.4680
  177MOL0     C23263   3.483   4.064  11.037  0.4466 -0.0308  0.4637
  177MOL0     C23264   3.598   3.985  11.058 -0.6255 -0.0059  0.4711
  177MOL0     C23265   3.595   3.889  11.158 -0.5612 -0.1053  0.6224
  177MOL0     C23266   3.477   3.871  11.238  0.2024  0.5505 -0.1518
  177MOL0     O23267   3.474   3.769  11.326 -0.0973  0.2366  0.0802
  177MOL0     C23268   3.349   3.702  11.341 -0.5596 -0.3093 -0.6420
  177MOL0     C23269   3.366   3.575  11.426 -0.8241 -0.1776 -0.7575
  177MOL0     C23270   3.495   3.495  11.365 -0.1584 -0.4528 -0.5955
  177MOL0     C23271   3.507   3.358  11.444 -0.1161  0.1896  0.1703
  177MOL0     C23272   3.607   3.258  11.396 -0.5204  0.2028 -0.2357
  177MOL0     C23273   3.563   3.149  11.306  0.1744  0.8483  0.3170
  177MOL0     C23274   3.683   3.077  11.238  0.6241 -0.4618 -0.2954
  177MOL0     C23275   3.657   2.926  11.239  0.7075  0.6061  0.3433
  177MOL0    Cl23276   3.562   2.861  11.089 -0.0626 -0.1351 -0.0744
  177MOL0     C23277   3.371   3.954  11.220  0.2268  0.1756  0.2146
  177MOL0     C23278   3.370   4.040  11.111 -0.8297 -0.5973 -0.2080
  177MOL0     O23279   3.338   4.320  10.971 -0.1275  0.6937 -1.0820
  177MOL0     C23280   3.554   4.285  10.690  0.4073 -0.4876  1.4814
  177MOL0     C23281   3.575   4.347  10.561 -0.1088 -0.5879  0.7566
  177MOL0     N23282   3.480   4.733   9.842  0.4815  0.2900 -0.3110
  177MOL0     N23283   3.401   4.745   9.737 -0.8466 -0.2159  0.4136
  177MOL0     C23284   3.087   5.325   8.933 -0.5849  0.5366  1.3506
  177MOL0     C23285   3.101   5.384   8.806  0.0552  0.2140 -0.5035
  177MOL0     C23286   3.122   5.456   8.400  0.8840 -0.5447  0.3449
  177MOL0     C23287   3.054   5.587   8.384 -0.8724  0.1205 -1.2846
  177MOL0     C23288   3.077   5.678   8.280  0.3967  0.4117  0.6417
  177MOL0     C23289   3.159   5.628   8.180  0.8642  0.3022 -0.1545
  177MOL0     O23290   3.190   5.705   8.073 -0.5057 -0.1033  0.3658
  177MOL0     C23291   3.320   5.685   8.012  0.4319 -0.2732 -0.8448
  177MOL0     C23292   3.292   5.632   7.873 -0.4082  1.1837 -0.4702
  177MOL0     C23293   3.419   5.588   7.796 -0.5189 -0.4422 -0.0218
  177MOL0     C23294   3.500   5.457   7.845 -0.4582  0.1505 -0.4029
  177MOL0     C23295   3.400   5.343   7.857 -0.7814 -0.7193 -0.0356
  177MOL0     C23296   3.325   5.259   7.838  1.0389  0.1865 -0.0315
  177MOL0     C23297   3.223   5.500   8.188 -0.3405 -0.3522 -0.3347
  177MOL0     C23298   3.204   5.416   8.300  0.6145 -0.2036 -0.3127
  177MOL0     H23299   2.798   5.277   8.684 -2.6344  3.5713  1.4371
  177MOL0     H23300   2.782   5.175   8.898  1.3402 -2.3350  0.8173
  177MOL0     H23301   2.842   5.030   9.063 -1.5140 -0.3882  1.4107
  177MOL0     H23302   2.769   5.165   9.128  0.0255 -1.1131 -2.5698
  177MOL0     H23303   2.794   5.008   9.298 -1.5067  1.0661 -2.0876
  177MOL0     H23304   2.906   5.136   9.337 -0.5498 -1.2742  0.5824
  177MOL0     H23305   3.071   4.985   9.202  2.5651 -1.0433  2.3633
  177MOL0     H23306   2.938   4.866   9.244 -1.3875  0.9114  0.4851
  177MOL0     H23307   3.091   5.035   9.452  1.2538 -0.5763  0.7029
  177MOL0     H23308   2.955   4.928   9.485 -0.4392 -1.6506 -1.0817
  177MOL0     H23309   3.243   4.856   9.404  0.1040  1.0773  1.2224
  177MOL0     H23310   3.117   4.758   9.329 -1.4985 -2.5438  1.3486
  177MOL0     H23311   3.011   4.742   9.560 -0.1903  2.3745 -5.1946
  177MOL0     H23312   3.162   4.813   9.628  2.4167  0.9082 -1.1056
  177MOL0     H23313   3.148   4.559   9.660  3.9460 -0.2136  0.0867
  177MOL0     H23314   3.121   4.539   9.489 -0.6306 -0.6782  0.1363
  177MOL0     H23315   3.356   4.653   9.475 -2.9901  2.8097 -0.1647
  177MOL0     H23316   3.341   4.475   9.523 -2.4632  0.0169 -2.7451
  177MOL0     H23317   3.501   4.430   9.748 -0.9153 -0.6122  0.0754
  177MOL0     H23318   3.704   4.590   9.958 -0.1407  1.0134  1.9621
  177MOL0     H23319   3.599   4.440   9.970 -3.1735 -0.6515 -0.0064
  177MOL0     H23320   3.542   4.700  10.107 -4.3846  0.2711 -1.4010
  177MOL0     H23321   3.630   4.547  10.172  2.2583  0.4882 -2.4480
  177MOL0     H23322   3.326   4.588  10.103 -0.1855 -0.0056  1.6120
  177MOL0     H23323   3.401   4.425  10.112  0.5887 -0.2504  0.3901
  177MOL0     H23324   3.289   4.482  10.313  1.2489 -3.9195  0.4388
  177MOL0     H23325   3.399   4.630  10.325 -0.9328  0.2235 -0.4857
  177MOL0     H23326   3.274   4.511  10.531 -0.9594 -0.7053 -0.8486
  177MOL0     H23327   3.231   4.376  10.756  0.4796  0.9895  0.2413
  177MOL0     H23328   3.690   3.996  11.001 -0.7596  1.3464  0.4800
  177MOL0     H23329   3.683   3.826  11.171 -0.0027  0.2790 -1.0321
  177MOL0     H23330   3.306   3.672  11.245 -2.5022  0.1068  0.0496
  177MOL0     H23331   3.279   3.767  11.395  0.6205  1.6849 -1.3936
  177MOL0     H23332   3.283   3.506  11.410  1.8703 -3.1303 -3.4716
  177MOL0     H23333   3.373   3.600  11.532 -2.2754  1.9795 -1.1021
  177MOL0     H23334   3.585   3.556  11.355 -0.6994  1.1765  2.9438
  177MOL0     H23335   3.469   3.468  11.262 -1.7284  1.8150 -0.8719
  177MOL0     H23336   3.529   3.386  11.547  0.5689 -1.6655  0.5718
  177MOL0     H23337   3.411   3.308  11.464  0.5308  0.4257  5.1917
  177MOL0     H23338   3.631   3.212  11.492  0.9773 -0.2757 -0.8079
  177MOL0     H23339   3.693   3.306  11.348 -0.5270  0.0398 -0.4128
  177MOL0     H23340   3.490   3.192  11.237 -3.1206  1.8796  4.0733
  177MOL0     H23341   3.511   3.075  11.368 -1.1471 -1.0000 -2.7624
  177MOL0     H23342   3.686   3.104  11.132 -2.4737 -1.9061 -0.8691
  177MOL0     H23343   3.774   3.110  11.289 -0.1574  0.6816  0.4374
  177MOL0     H23344   3.624   2.898  11.340  0.2802  0.5112  0.1795
  177MOL0     H23345   3.761   2.895  11.227  0.4025  0.0852 -1.0440
  177MOL0     H23346   3.277   3.948  11.275  0.3617  1.3001  0.5965
  177MOL0     H23347   3.286   4.105  11.086 -1.4406 -0.6276  1.6657
  177MOL0     H23348   3.627   4.225  10.741 -0.1065 -2.2360  0.2488
  177MOL0     H23349   3.666   4.332  10.504  0.6463  0.6314  1.5803
  177MOL0     H23350   3.175   5.327   8.996 -0.1818 -1.6570  0.9482
  177MOL0     H23351   3.194   5.424   8.765 -1.2459  2.1096 -1.8243
  177MOL0     H23352   2.981   5.612   8.459  2.5056 -1.0158  2.7719
  177MOL0     H23353   3.030   5.774   8.261 -1.0591 -0.6139 -1.3217
  177MOL0     H23354   3.392   5.619   8.062  1.0786  0.2113 -1.1212
  177MOL0     H23355   3.370   5.783   8.013  1.6747 -0.8817 -0.2424
  177MOL0     H23356   3.224   5.546   7.874  0.9518  0.0634 -0.9911
  177MOL0     H23357   3.242   5.706   7.811  0.3002  2.4080  0.3808
  177MOL0     H23358   3.489   5.671   7.804 -1.3521  0.1692  1.2279
  177MOL0     H23359   3.392   5.584   7.690 -0.4670 -1.8179 -0.0008
  177MOL0     H23360   3.581   5.426   7.778 -0.9672 -2.0120 -0.0919
  177MOL0     H23361   3.546   5.480   7.942 -4.0024 -1.4630  1.8747
  177MOL0     H23362   3.265   5.171   7.826 -0.1652  0.8212  1.1166
  177MOL0     H23363   3.275   5.456   8.104 -0.5105 -2.0238  0.3896
  177MOL0     H23364   3.246   5.316   8.298  0.2121 -0.3619 -1.4074
  178MOL0     O23365   6.984   5.986   1.320  0.1552 -0.1605 -0.2424
  178MOL0     C23366   6.957   5.867   1.334 -0.4425 -1.3769  0.1820
  178MOL0     O23367   7.034   5.767   1.305 -0.6187  0.4099 -0.1680
  178MOL0     C23368   7.167   5.767   1.283 -0.1167 -0.8021 -0.3215
  178MOL0     C23369   7.235   5.657   1.339 -0.0060 -0.5493 -0.3957
  178MOL0     C23370   7.375   5.654   1.328 -0.1734 -0.1637 -0.4140
  178MOL0     C23371   7.454   5.764   1.294  0.4274 -0.4886  0.5520
  178MOL0     O23372   7.588   5.749   1.280 -1.6753  0.4644  0.8731
  178MOL0     C23373   7.666   5.867   1.266  0.6564  0.1527 -0.4182
  178MOL0     C23374   7.816   5.845   1.265  0.1618 -0.0250  0.6869
  178MOL0     C23375   7.874   5.793   1.398 -0.1802  0.5089 -0.3577
  178MOL0     C23376   8.024   5.783   1.382  0.6423 -0.2231 -0.2610
  178MOL0     C23377   8.101   5.910   1.343  1.3194  0.5122 -0.0146
  178MOL0     C23378   8.241   5.903   1.394 -0.2326  0.5628  0.9993
  178MOL0     C23379   8.304   6.037   1.421 -0.6496  0.0345 -0.1529
  178MOL0     C23380   8.321   6.115   1.291 -0.1536  0.8826 -1.0507
  178MOL0     N23381   8.346   6.253   1.325  0.3134  0.4157 -0.6096
  178MOL0     C23382   8.258   6.354   1.355  0.8530  0.1131  0.5332
  178MOL0     C23383   8.341   6.461   1.370  0.5261  1.0841  0.3344
  178MOL0     C23384   8.291   6.600   1.399 -0.7641  0.7545  0.7930
  178MOL0     C23385   8.215   6.600   1.530  0.5753 -1.3962 -0.4525
  178MOL0     C23386   8.299   6.563   1.650  0.5179 -0.0243  1.0286
  178MOL0     C23387   8.424   6.641   1.673  0.2798  0.7053  0.2719
  178MOL0     O23388   8.494   6.588   1.786  0.5403 -0.9827  0.1528
  178MOL0     C23389   8.594   6.666   1.839  0.7501 -0.8550  0.0315
  178MOL0     C23390   8.694   6.588   1.890  0.0761 -0.4864  1.1712
  178MOL0     C23391   8.816   6.639   1.936 -0.2981 -0.4464  1.2314
  178MOL0     C23392   8.831   6.780   1.950  1.1491  0.4855 -0.8102
  178MOL0     C23393   8.958   6.839   2.009  1.0551 -0.4999  0.5633
  178MOL0     O23394   9.051   6.742   2.037 -0.0615 -0.1630 -0.8716
  178MOL0     C23395   9.160   6.791   2.106  0.0749  0.2303  0.4582
  178MOL0     C23396   9.192   6.757   2.238 -0.2659  0.3291 -0.4083
  178MOL0     C23397   9.298   6.814   2.307  0.0167  0.7124 -0.4905
  178MOL0     C23398   9.376   6.902   2.237 -0.1918 -0.1159  0.1767
  178MOL0     O23399   9.476   6.974   2.286  0.5622  0.5952 -0.8615
  178MOL0     C23400   9.553   6.912   2.389  0.7594 -0.0369  0.1240
  178MOL0     C23401   9.676   6.993   2.446  1.3027 -0.2595  0.5020
  178MOL0     C23402   9.623   7.108   2.533  0.5825 -0.2415  0.4862
  178MOL0     C23403   9.739   7.164   2.615 -1.2804 -0.1198  0.6014
  178MOL0     C23404   9.708   7.269   2.717 -0.3624 -0.0314  0.2724
  178MOL0     C23405   9.833   7.326   2.790 -0.1278  0.3584  0.4402
  178MOL0     C23406   9.787   7.420   2.899 -0.0581 -0.0740  0.3814
  178MOL0     C23407   9.901   7.485   2.976 -0.6832  0.6663  0.1738
  178MOL0    Cl23408   9.847   7.567   3.127 -0.6295  0.1894  0.3566
  178MOL0     C23409   9.354   6.933   2.101 -0.5855 -0.7991  0.1195
  178MOL0     C23410   9.242   6.880   2.036  0.3212 -0.4994  0.4449
  178MOL0     O23411   8.948   6.957   2.051 -0.7486 -0.0260 -0.2004
  178MOL0     C23412   8.715   6.860   1.912  0.4311 -1.1736 -0.7299
  178MOL0     C23413   8.600   6.809   1.849  0.1991 -0.5309 -0.1931
  178MOL0     N23414   8.471   6.425   1.341 -0.8859 -0.1436 -0.5297
  178MOL0     N23415   8.471   6.298   1.322  1.0992 -0.3018  0.0766
  178MOL0     C23416   7.381   5.876   1.244 -0.2213 -1.0560 -0.4674
  178MOL0     C23417   7.236   5.879   1.242  0.3038 -0.1118 -0.3568
  178MOL0     C23418   6.826   5.824   1.377  0.0330  1.0420 -0.8303
  178MOL0     C23419   6.806   5.712   1.453  0.3636  0.3108 -0.8315
  178MOL0     C23420   6.677   5.664   1.488  0.0577  1.2212  0.0153
  178MOL0     C23421   6.566   5.721   1.432  0.0371 -0.3805  0.4215
  178MOL0     O23422   6.447   5.690   1.483 -0.5753  0.0324 -0.0289
  178MOL0     C23423   6.330   5.769   1.489  0.9193  0.6528  0.3098
  178MOL0     C23424   6.344   5.902   1.555  0.3483 -1.0245  0.6796
  178MOL0     C23425   6.226   5.949   1.641 -0.2272  0.0811  0.3839
  178MOL0     C23426   6.119   6.010   1.558 -0.3256  0.0401 -0.6301
  178MOL0     C23427   6.160   6.143   1.515  0.9739  1.2508  0.7593
  178MOL0     C23428   6.193   6.250   1.467  0.1238  0.3228  0.3069
  178MOL0     C23429   6.588   5.834   1.355  0.2237 -0.6171 -0.2412
  178MOL0     C23430   6.715   5.882   1.323  0.4477  1.0916 -0.3980
  178MOL0     H23431   7.169   5.578   1.375 -1.7076  1.3800  0.8957
  178MOL0     H23432   7.414   5.557   1.355 -1.3747 -0.5271  0.0758
  178MOL0     H23433   7.648   5.934   1.351 -0.9476  1.3187 -1.6348
  178MOL0     H23434   7.644   5.921   1.174  3.8748 -0.3613 -1.6116
  178MOL0     H23435   7.857   5.943   1.237 -2.3459  0.0605 -3.4209
  178MOL0     H23436   7.838   5.782   1.179 -2.7506  2.2422 -1.9482
  178MOL0     H23437   7.831   5.699   1.432  0.1419  0.2091 -0.7713
  178MOL0     H23438   7.848   5.858   1.482  0.3313 -1.1484  1.1453
  178MOL0     H23439   8.067   5.752   1.478 -2.3613  2.3475  2.1575
  178MOL0     H23440   8.055   5.703   1.315  0.6527 -1.8265  1.5639
  178MOL0     H23441   8.040   5.986   1.393 -2.7862 -2.7701  0.5338
  178MOL0     H23442   8.102   5.921   1.234 -0.7596  3.9395  0.1792
  178MOL0     H23443   8.305   5.843   1.329  0.0397  1.8643  0.0156
  178MOL0     H23444   8.251   5.850   1.489 -0.9123 -2.6850 -0.6060
  178MOL0     H23445   8.259   6.085   1.508  0.5224 -3.2426  2.4981
  178MOL0     H23446   8.403   6.023   1.467  0.2545  0.9282 -1.7393
  178MOL0     H23447   8.232   6.096   1.231  0.7081 -0.4939 -1.9659
  178MOL0     H23448   8.407   6.068   1.242  0.9708  1.8492 -0.0609
  178MOL0     H23449   8.150   6.354   1.351  0.7097  2.9025  1.8245
  178MOL0     H23450   8.234   6.636   1.313  2.1667 -0.5501 -1.8967
  178MOL0     H23451   8.369   6.676   1.398 -1.3336  1.3390  0.7125
  178MOL0     H23452   8.140   6.520   1.526  2.3401 -3.1271 -0.6099
  178MOL0     H23453   8.166   6.696   1.548  0.7293 -1.9990  4.5018
  178MOL0     H23454   8.228   6.558   1.733 -1.0133 -3.1174 -0.2742
  178MOL0     H23455   8.322   6.456   1.642  1.3304  0.2046  0.1808
  178MOL0     H23456   8.395   6.745   1.685 -1.7733  0.2825 -0.4846
  178MOL0     H23457   8.497   6.625   1.593  1.4540 -3.1325  1.8739
  178MOL0     H23458   8.682   6.481   1.883  1.8009 -0.5900 -1.0479
  178MOL0     H23459   8.883   6.563   1.975 -0.9778 -0.8129  1.7063
  178MOL0     H23460   9.128   6.686   2.289  1.2398 -0.2120  0.8403
  178MOL0     H23461   9.317   6.788   2.411  0.5329 -1.7305 -1.1458
  178MOL0     H23462   9.586   6.818   2.343  4.3418  0.4008  1.4120
  178MOL0     H23463   9.497   6.895   2.482  0.9616 -1.6624 -0.0230
  178MOL0     H23464   9.739   7.041   2.371  1.5104 -1.2880 -0.0110
  178MOL0     H23465   9.745   6.929   2.502  1.3549  1.3458  2.3725
  178MOL0     H23466   9.539   7.066   2.590 -1.6089 -3.5936 -4.4812
  178MOL0     H23467   9.581   7.183   2.466  1.9707 -1.4492 -1.8595
  178MOL0     H23468   9.799   7.087   2.664  0.4376 -0.2235 -1.5132
  178MOL0     H23469   9.804   7.215   2.543 -2.6660 -0.1776 -0.7372
  178MOL0     H23470   9.642   7.214   2.784  0.4558  0.9366  1.9400
  178MOL0     H23471   9.657   7.351   2.665 -0.5999  0.5662  1.4229
  178MOL0     H23472   9.906   7.382   2.731  0.9261  0.4651  1.7865
  178MOL0     H23473   9.893   7.254   2.846 -0.8334 -0.2874  0.3725
  178MOL0     H23474   9.725   7.503   2.864 -1.0107 -1.7215 -2.0737
  178MOL0     H23475   9.723   7.356   2.959 -0.4777 -1.5621 -1.5722
  178MOL0     H23476   9.941   7.553   2.900  0.6697  0.4182  0.6429
  178MOL0     H23477   9.967   7.402   3.001 -1.3424  0.6552  1.9978
  178MOL0     H23478   9.412   7.013   2.055 -0.6648 -1.0553 -0.4400
  178MOL0     H23479   9.211   6.918   1.939 -2.0521 -3.6961 -0.2057
  178MOL0     H23480   8.712   6.967   1.929 -2.0214 -1.0069 -1.7766
  178MOL0     H23481   8.515   6.867   1.814 -1.5338 -0.4225  3.6715
  178MOL0     H23482   7.426   5.960   1.192 -1.6508  0.1900  0.2203
  178MOL0     H23483   7.203   5.976   1.206 -0.3672 -1.2910 -3.1962
  178MOL0     H23484   6.897   5.671   1.495  0.6649  0.1681 -1.6109
  178MOL0     H23485   6.672   5.581   1.557 -1.4109  1.1937 -0.0968
  178MOL0     H23486   6.258   5.716   1.553 -1.2542  1.3821 -1.3958
  178MOL0     H23487   6.286   5.786   1.390  1.4769  2.3004  0.3252
  178MOL0     H23488   6.431   5.896   1.621 -0.3960 -1.4997  1.6449
  178MOL0     H23489   6.360   5.978   1.478 -0.9897 -1.1941  0.2068
  178MOL0     H23490   6.271   6.011   1.719 -3.1855  0.0817  2.2692
  178MOL0     H23491   6.181   5.859   1.685  1.2002 -1.8336 -1.8665
  178MOL0     H23492   6.100   5.960   1.463 -2.0401  1.1841 -0.9233
  178MOL0     H23493   6.033   6.010   1.625  1.0962 -2.1340  1.3702
  178MOL0     H23494   6.235   6.337   1.421 -2.8627  0.3518 -2.7703
  178MOL0     H23495   6.501   5.886   1.316 -0.2563  0.2840  1.8503
  178MOL0     H23496   6.728   5.957   1.245 -2.7724  1.0699 -1.0900
  179MOL0     O23497   2.229   4.483   5.887  0.3933 -0.3765 -0.8491
  179MOL0     C23498   2.279   4.404   5.809 -0.4043 -0.0339 -0.1014
  179MOL0     O23499   2.209   4.328   5.722  0.4485  0.7913  0.6143
  179MOL0     C23500   2.075   4.318   5.709 -0.5020 -0.0683 -0.4347
  179MOL0     C23501   1.974   4.415   5.750 -0.0059 -0.6481 -0.3869
  179MOL0     C23502   1.835   4.398   5.734  0.2616  0.0443  0.1224
  179MOL0     C23503   1.792   4.288   5.658 -0.7464  0.1322  0.4396
  179MOL0     O23504   1.665   4.232   5.639  0.0079 -0.7972 -0.7892
  179MOL0     C23505   1.560   4.327   5.666 -0.0637  0.0450 -0.2798
  179MOL0     C23506   1.440   4.245   5.633 -0.0236  1.3275 -0.0377
  179MOL0     C23507   1.312   4.320   5.668  0.0534  0.9029 -1.1366
  179MOL0     C23508   1.189   4.247   5.610  1.0203 -0.0046 -0.0311
  179MOL0     C23509   1.066   4.282   5.692 -0.2574  0.1330  0.2985
  179MOL0     C23510   0.932   4.236   5.620  0.3236  0.9653  0.0048
  179MOL0     C23511   0.897   4.314   5.497  0.0127  0.5624  0.2579
  179MOL0     C23512   0.759   4.276   5.449  0.8295 -0.8490  0.3447
  179MOL0     N23513   0.754   4.294   5.302 -0.0440  0.9781 -1.1037
  179MOL0     C23514   0.840   4.242   5.205 -0.7515  0.4292  0.5122
  179MOL0     C23515   0.784   4.286   5.087  0.1235  0.0859  0.2414
  179MOL0     C23516   0.832   4.232   4.954 -0.4962  0.0362 -0.5048
  179MOL0     C23517   0.769   4.095   4.934  0.0494 -0.1643 -0.6829
  179MOL0     C23518   0.826   4.022   4.821  0.4329  0.2858  0.9722
  179MOL0     C23519   0.825   3.871   4.819  0.5474  0.8467  0.6237
  179MOL0     O23520   0.689   3.832   4.856 -0.1136  0.2685 -0.4416
  179MOL0     C23521   0.615   3.768   4.758  0.1196  0.0823 -0.2643
  179MOL0     C23522   0.533   3.661   4.799 -0.6858  0.4064 -0.3623
  179MOL0     C23523   0.458   3.589   4.708  0.2063  0.2248 -0.1423
  179MOL0     C23524   0.469   3.610   4.567  0.0895  0.3363 -0.6927
  179MOL0     C23525   0.388   3.527   4.475  0.2207 -0.4924  1.1553
  179MOL0     O23526   0.285   3.449   4.527  0.0971 -0.5628 -0.2299
  179MOL0     C23527   0.206   3.393   4.431  0.1071 -0.7311 -0.2723
  179MOL0     C23528   0.206   3.261   4.421  0.6469  0.5013 -0.6384
  179MOL0     C23529   0.118   3.186   4.342  1.1997  0.4420 -0.1330
  179MOL0     C23530   0.038   3.264   4.253  0.7405  0.7205  0.3841
  179MOL0     O23531  -0.070   3.189   4.203  0.3373 -0.4771  0.1311
  179MOL0     C23532  -0.151   3.246   4.099  0.3813  0.1554  0.0848
  179MOL0     C23533  -0.104   3.238   3.948  0.7792  1.0044 -0.1117
  179MOL0     C23534  -0.132   3.096   3.897  0.0663  0.1010 -0.8197
  179MOL0     C23535  -0.090   3.084   3.752  0.4550 -0.2754 -0.4971
  179MOL0     C23536  -0.101   2.941   3.694 -0.1454 -0.1042  0.1085
  179MOL0     C23537  -0.020   2.925   3.567 -0.2061  0.8082  0.8384
  179MOL0     C23538  -0.008   2.785   3.514  0.2778  0.0973  0.8043
  179MOL0     C23539   0.044   2.774   3.370 -0.2327 -0.1488  0.0112
  179MOL0    Cl23540   0.029   2.601   3.316 -0.3325 -0.0868  0.1728
  179MOL0     C23541   0.053   3.406   4.242 -0.3670  0.3637  0.1177
  179MOL0     C23542   0.139   3.468   4.334 -0.0591  0.2758 -0.0339
  179MOL0     O23543   0.433   3.522   4.359  0.8404  0.2627 -0.1889
  179MOL0     C23544   0.566   3.702   4.530  0.1974  0.6292  0.2294
  179MOL0     C23545   0.638   3.777   4.620  0.3180 -0.4538  0.5130
  179MOL0     N23546   0.676   4.368   5.107 -0.6971  0.6520 -0.5511
  179MOL0     N23547   0.667   4.380   5.236 -0.8879  0.5123  0.8785
  179MOL0     C23548   1.891   4.200   5.604 -0.4532  0.6679  0.5603
  179MOL0     C23549   2.029   4.219   5.627 -0.5486  0.6981 -1.2859
  179MOL0     C23550   2.425   4.389   5.810 -0.9331  0.3362 -0.0356
  179MOL0     C23551   2.493   4.325   5.708 -0.2437  0.3181 -0.2772
  179MOL0     C23552   2.634   4.323   5.711 -0.1975  0.3312  0.2045
  179MOL0     C23553   2.711   4.373   5.819 -0.0182  0.6802 -0.0607
  179MOL0     O23554   2.850   4.361   5.810  0.0154 -0.3997 -0.6215
  179MOL0     C23555   2.918   4.487   5.831 -0.3568 -0.4011 -0.6777
  179MOL0     C23556   3.019   4.498   5.718 -0.6868 -0.6267  0.2243
  179MOL0     C23557   3.126   4.389   5.714 -0.1390  0.8009 -0.3846
  179MOL0     C23558   3.205   4.395   5.843  0.0549 -0.4734 -0.9892
  179MOL0     C23559   3.334   4.311   5.834  0.5932  0.1373 -0.1915
  179MOL0     C23560   3.443   4.270   5.828 -1.0024 -0.4338 -0.7066
  179MOL0     C23561   2.645   4.421   5.928  0.4554  0.2757 -0.0729
  179MOL0     C23562   2.502   4.441   5.922 -0.0791  0.2732  0.3345
  179MOL0     H23563   1.992   4.504   5.810 -0.1669 -0.2116 -0.9727
  179MOL0     H23564   1.766   4.469   5.779 -1.2880 -0.7135 -0.9710
  179MOL0     H23565   1.566   4.401   5.586 -0.7797  0.0976 -0.2921
  179MOL0     H23566   1.567   4.371   5.766  1.9403  2.1186 -1.2639
  179MOL0     H23567   1.461   4.147   5.677  0.6687  0.7358 -1.6224
  179MOL0     H23568   1.431   4.215   5.529 -1.4143  1.7891 -0.0675
  179MOL0     H23569   1.304   4.423   5.634 -2.3278  0.5169 -1.9305
  179MOL0     H23570   1.312   4.333   5.777  0.2766  0.0291 -1.0221
  179MOL0     H23571   1.182   4.291   5.510 -0.4624  1.2163  0.5683
  179MOL0     H23572   1.205   4.140   5.597 -3.2644 -0.8067 -0.1705
  179MOL0     H23573   1.061   4.386   5.726  0.9326 -0.1460  1.3993
  179MOL0     H23574   1.075   4.231   5.788  0.0021 -0.6822 -0.1510
  179MOL0     H23575   0.852   4.235   5.695 -0.6722  3.3420 -0.9039
  179MOL0     H23576   0.933   4.134   5.581  0.6890  1.4705 -1.3955
  179MOL0     H23577   0.903   4.420   5.524  4.7782  0.7056 -0.5323
  179MOL0     H23578   0.962   4.304   5.411 -1.5481  0.2113 -0.9319
  179MOL0     H23579   0.681   4.328   5.506  2.6186  1.0621  1.1752
  179MOL0     H23580   0.733   4.171   5.466 -0.2910 -0.9389 -1.6737
  179MOL0     H23581   0.912   4.161   5.210  3.6460  3.9367  0.1449
  179MOL0     H23582   0.941   4.239   4.952 -0.3814 -0.6886  1.3006
  179MOL0     H23583   0.797   4.289   4.868  0.2885  2.2003  0.5226
  179MOL0     H23584   0.660   4.092   4.938  0.0066 -1.7784 -2.0342
  179MOL0     H23585   0.810   4.040   5.019 -2.7928  0.4929  1.2768
  179MOL0     H23586   0.766   4.052   4.734 -1.9480 -1.5807  1.8787
  179MOL0     H23587   0.927   4.064   4.809 -0.2422  1.9802  0.8430
  179MOL0     H23588   0.902   3.835   4.888  2.9661  0.8775 -1.9137
  179MOL0     H23589   0.858   3.832   4.723  1.5691 -1.3348  1.7977
  179MOL0     H23590   0.509   3.630   4.900 -3.6005 -0.8736 -1.3490
  179MOL0     H23591   0.396   3.506   4.742 -0.3959  1.6909  2.6258
  179MOL0     H23592   0.260   3.207   4.498 -3.7026 -3.2280  0.2393
  179MOL0     H23593   0.116   3.078   4.343  1.4465  0.4314  1.1653
  179MOL0     H23594  -0.184   3.348   4.121 -1.6163 -0.9054  2.4677
  179MOL0     H23595  -0.246   3.193   4.112  0.5413 -0.1295  0.1016
  179MOL0     H23596   0.003   3.258   3.936  1.2584 -1.0544  0.3313
  179MOL0     H23597  -0.165   3.309   3.892 -0.3041 -1.0919 -1.7016
  179MOL0     H23598  -0.240   3.078   3.907 -0.0915 -0.6267 -3.2767
  179MOL0     H23599  -0.073   3.025   3.955  0.3114  0.3412 -0.7751
  179MOL0     H23600  -0.153   3.145   3.687  1.7059 -0.9496 -2.4388
  179MOL0     H23601   0.012   3.117   3.729 -0.4347 -0.3417 -5.7705
  179MOL0     H23602  -0.206   2.924   3.667 -0.7084  1.0011  1.4266
  179MOL0     H23603  -0.073   2.856   3.756 -1.5865 -1.1318 -0.6122
  179MOL0     H23604   0.082   2.960   3.584 -0.4417  1.1159  1.6298
  179MOL0     H23605  -0.056   2.990   3.486  1.1698 -1.4369 -1.7462
  179MOL0     H23606   0.053   2.721   3.578 -0.2754 -1.5123 -0.2361
  179MOL0     H23607  -0.109   2.743   3.507  0.0644  0.9058 -2.3044
  179MOL0     H23608   0.150   2.800   3.376 -0.6840  2.3027 -1.3571
  179MOL0     H23609  -0.005   2.846   3.304 -1.9696  1.1734  2.5805
  179MOL0     H23610   0.010   3.463   4.160  0.3992  1.8390  0.7092
  179MOL0     H23611   0.143   3.576   4.333  0.6059  0.3162  2.4350
  179MOL0     H23612   0.589   3.718   4.425 -0.3857  1.6440  0.2382
  179MOL0     H23613   0.704   3.852   4.578  0.6324 -2.7389 -3.6239
  179MOL0     H23614   1.857   4.123   5.536  2.4903 -0.5995  0.3623
  179MOL0     H23615   2.090   4.152   5.566 -0.3300 -0.2395 -0.0766
  179MOL0     H23616   2.430   4.299   5.623 -1.1296  3.0292 -0.5680
  179MOL0     H23617   2.690   4.281   5.628 -0.1945  0.1292  0.3065
  179MOL0     H23618   2.967   4.486   5.929 -3.4915  1.3283  1.0893
  179MOL0     H23619   2.847   4.570   5.823 -0.0588 -0.1111 -0.3676
  179MOL0     H23620   2.970   4.494   5.620  3.1668 -0.3829 -1.8833
  179MOL0     H23621   3.072   4.594   5.724  0.6410 -1.1465 -2.2723
  179MOL0     H23622   3.200   4.396   5.634  0.8466 -2.2293  0.1483
  179MOL0     H23623   3.078   4.291   5.702 -2.7664  1.5725  2.5451
  179MOL0     H23624   3.241   4.496   5.864 -0.7782 -0.1086 -1.2655
  179MOL0     H23625   3.154   4.370   5.937 -0.0507  2.0285 -0.2986
  179MOL0     H23626   3.543   4.232   5.823 -0.2838  1.4876 -2.0440
  179MOL0     H23627   2.702   4.454   6.015  3.0124 -2.4788 -0.5716
  179MOL0     H23628   2.450   4.498   5.999 -0.0026 -1.6671  1.8898
  180MOL0     O23629   5.279  10.621   1.187  0.5005 -0.1371  0.9535
  180MOL0     C23630   5.312  10.699   1.270  0.6252  0.3410  0.4113
  180MOL0     O23631   5.286  10.686   1.400 -0.1120  0.9456 -0.1988
  180MOL0     C23632   5.293  10.560   1.459  0.4549 -0.4781  0.8789
  180MOL0     C23633   5.416  10.487   1.463  0.3298  0.6794 -0.1639
  180MOL0     C23634   5.413  10.355   1.520 -0.2334  0.1088 -0.9556
  180MOL0     C23635   5.303  10.294   1.577  1.1071  0.5541  0.9230
  180MOL0     O23636   5.291  10.162   1.616 -0.0510 -0.2804 -0.5570
  180MOL0     C23637   5.411  10.096   1.647 -0.5494  0.0853  0.0388
  180MOL0     C23638   5.379   9.966   1.724  0.5328  0.0227 -0.9175
  180MOL0     C23639   5.325  10.006   1.861 -0.3134  0.5860 -0.8458
  180MOL0     C23640   5.313   9.886   1.957  0.0228  0.0947 -0.6951
  180MOL0     C23641   5.256   9.914   2.090  0.0805 -0.4487 -0.2238
  180MOL0     C23642   5.357   9.906   2.209 -0.8871  0.5682  0.1436
  180MOL0     C23643   5.489   9.978   2.197  0.8398  1.1064  0.3435
  180MOL0     C23644   5.574   9.983   2.330 -0.5677  0.3456 -0.6274
  180MOL0     N23645   5.719  10.019   2.321 -0.6400  0.2922  0.4292
  180MOL0     C23646   5.772  10.122   2.243  0.1597  0.1852 -1.0632
  180MOL0     C23647   5.897  10.148   2.303  0.1257  0.6431  0.5841
  180MOL0     C23648   5.997  10.250   2.261  0.2788 -0.0629 -0.2668
  180MOL0     C23649   5.983  10.385   2.326  1.4296  0.4302 -0.6222
  180MOL0     C23650   6.087  10.481   2.285  0.6441 -0.3850  0.5035
  180MOL0     C23651   6.051  10.627   2.321  0.0736 -0.5556 -0.0660
  180MOL0     O23652   6.141  10.712   2.253  0.3312 -0.4687  0.4527
  180MOL0     C23653   6.241  10.793   2.302 -0.4034 -0.4685  0.5710
  180MOL0     C23654   6.331  10.861   2.222 -1.1479  0.1841 -0.8017
  180MOL0     C23655   6.436  10.928   2.282  0.1856 -0.1038 -0.1030
  180MOL0     C23656   6.478  10.926   2.417 -0.2106  1.7556 -0.3983
  180MOL0     C23657   6.594  10.990   2.487  0.9706  0.0191 -1.0174
  180MOL0     O23658   6.582  10.980   2.625 -0.2661 -1.1034  0.1026
  180MOL0     C23659   6.674  11.048   2.698  0.1621 -0.0605 -0.4705
  180MOL0     C23660   6.734  10.971   2.793 -0.3878  0.3944 -0.2376
  180MOL0     C23661   6.831  11.031   2.879 -0.0896 -0.5623  0.2492
  180MOL0     C23662   6.866  11.168   2.863  0.4868  0.4223 -0.6381
  180MOL0     O23663   6.970  11.220   2.940 -0.8818  0.4202 -0.3825
  180MOL0     C23664   6.997  11.364   2.955 -0.4843  0.7227 -0.0788
  180MOL0     C23665   6.909  11.414   3.061 -0.8685  0.2226  0.0047
  180MOL0     C23666   6.873  11.563   3.067  0.8323 -0.0376  0.3998
  180MOL0     C23667   7.000  11.653   3.057  0.3120 -0.9077 -0.1605
  180MOL0     C23668   6.961  11.801   3.053  0.5705  0.2769 -0.9514
  180MOL0     C23669   7.085  11.883   3.018 -0.9647 -0.3488 -0.3008
  180MOL0     C23670   7.169  11.858   2.885  0.2084  0.1039 -0.6281
  180MOL0     C23671   7.257  11.970   2.846  0.2140  0.1653 -0.2292
  180MOL0    Cl23672   7.356  11.942   2.699  0.3450  0.6773  0.0367
  180MOL0     C23673   6.800  11.241   2.763  0.4168 -0.2176  0.0791
  180MOL0     C23674   6.698  11.185   2.686 -0.1348 -0.0432  0.2750
  180MOL0     O23675   6.685  11.048   2.430 -0.2291 -0.3154 -0.0451
  180MOL0     C23676   6.392  10.846   2.492 -1.2330  1.4782  0.5546
  180MOL0     C23677   6.281  10.780   2.432  0.2233 -0.2858  0.1711
  180MOL0     N23678   5.917  10.052   2.400 -0.3660  0.0768 -0.5404
  180MOL0     N23679   5.820   9.976   2.405 -0.4899 -0.0263  0.0996
  180MOL0     C23680   5.184  10.380   1.582  0.3912  0.5311 -0.7359
  180MOL0     C23681   5.180  10.510   1.519 -0.3437  0.0802 -0.0720
  180MOL0     C23682   5.348  10.838   1.228  0.1483  0.9099  0.1193
  180MOL0     C23683   5.343  10.871   1.087 -0.6344  0.3888 -0.0935
  180MOL0     C23684   5.386  11.000   1.049  0.7214  0.6214  0.5107
  180MOL0     C23685   5.405  11.101   1.150 -0.1702  0.1872  0.5324
  180MOL0     O23686   5.447  11.236   1.117  0.6936  0.2121 -0.4212
  180MOL0     C23687   5.505  11.252   0.986 -0.3669 -0.1525  0.9846
  180MOL0     C23688   5.609  11.353   0.984 -0.3454  0.3280 -0.4408
  180MOL0     C23689   5.658  11.383   0.847 -0.3263 -0.7379  1.2680
  180MOL0     C23690   5.814  11.402   0.834  0.1877 -0.3366  0.2771
  180MOL0     C23691   5.854  11.515   0.912 -0.2438  0.4038 -0.5584
  180MOL0     C23692   5.885  11.614   0.976 -0.6201  0.8036  0.3472
  180MOL0     C23693   5.399  11.069   1.281  0.6037 -0.0543  1.9657
  180MOL0     C23694   5.378  10.939   1.321 -0.1064 -0.0120  0.0063
  180MOL0     H23695   5.501  10.525   1.407  0.7527 -0.0641 -0.0414
  180MOL0     H23696   5.510  10.306   1.518  0.5656  1.4523  1.2732
  180MOL0     H23697   5.485  10.155   1.700 -1.3669 -0.9166  2.4045
  180MOL0     H23698   5.447  10.071   1.547 -1.2127  0.2416 -0.2504
  180MOL0     H23699   5.463   9.902   1.750 -1.0585 -2.4523 -1.5810
  180MOL0     H23700   5.312   9.898   1.671  3.5010 -0.1309 -4.9697
  180MOL0     H23701   5.225  10.046   1.846 -0.0044  0.4806 -3.6991
  180MOL0     H23702   5.390  10.080   1.909 -0.8658  0.1564  0.6245
  180MOL0     H23703   5.253   9.807   1.913 -1.3933 -0.4085  1.9177
  180MOL0     H23704   5.416   9.849   1.966 -0.2362 -1.4665 -3.1938
  180MOL0     H23705   5.169   9.849   2.107 -1.5675  2.0245  1.4557
  180MOL0     H23706   5.220  10.017   2.085  0.1806 -0.1349  3.1410
  180MOL0     H23707   5.374   9.804   2.243 -2.3557  0.0760 -0.5283
  180MOL0     H23708   5.302   9.961   2.287 -0.6326  1.0304 -0.0007
  180MOL0     H23709   5.548   9.940   2.113  0.9286  1.2528  0.3373
  180MOL0     H23710   5.470  10.086   2.187 -1.4144  1.0100  2.6645
  180MOL0     H23711   5.575   9.882   2.372 -0.3770  0.2221 -0.9344
  180MOL0     H23712   5.526  10.046   2.406  1.9841  1.8494 -0.1509
  180MOL0     H23713   5.716  10.160   2.158 -1.8494 -3.4644 -1.6109
  180MOL0     H23714   5.977  10.280   2.158  1.9994  1.4929 -0.1946
  180MOL0     H23715   6.096  10.205   2.272 -0.2115 -1.1370 -0.1648
  180MOL0     H23716   5.982  10.369   2.435 -0.1683 -1.3679 -0.8338
  180MOL0     H23717   5.884  10.424   2.299  1.9868  1.9701 -0.5306
  180MOL0     H23718   6.180  10.473   2.342  2.4580  0.0608 -2.2285
  180MOL0     H23719   6.104  10.477   2.177 -0.8982 -0.9522  0.2531
  180MOL0     H23720   6.057  10.637   2.430 -0.1255  4.5378 -0.2942
  180MOL0     H23721   5.949  10.660   2.299  0.8741  2.5850  0.4622
  180MOL0     H23722   6.328  10.870   2.114 -0.6613  1.2115 -0.7462
  180MOL0     H23723   6.481  11.000   2.214 -1.9500  0.4615 -0.9878
  180MOL0     H23724   6.707  10.867   2.811 -0.6254  0.5695  0.4108
  180MOL0     H23725   6.895  10.972   2.943 -0.2956 -0.9477  0.1059
  180MOL0     H23726   6.976  11.418   2.862 -0.3459  0.6027 -0.1809
  180MOL0     H23727   7.102  11.378   2.984 -0.8237  1.0394  1.0579
  180MOL0     H23728   6.961  11.400   3.156  1.6825  0.7030 -1.2431
  180MOL0     H23729   6.815  11.360   3.075  0.3179 -1.6527  1.2296
  180MOL0     H23730   6.810  11.598   3.150  0.0209  4.2147 -1.7110
  180MOL0     H23731   6.808  11.578   2.980 -1.6874  0.4747  2.2499
  180MOL0     H23732   7.066  11.633   3.141  0.4228  2.3015  0.6558
  180MOL0     H23733   7.068  11.634   2.973  1.2350  1.8368 -0.1304
  180MOL0     H23734   6.926  11.831   3.152  1.9941  0.8245 -0.5903
  180MOL0     H23735   6.889  11.829   2.975  2.3265  0.5949 -2.5258
  180MOL0     H23736   7.158  11.873   3.099 -0.6322  1.3651 -0.3449
  180MOL0     H23737   7.057  11.988   3.018 -2.7078 -0.7883 -0.7849
  180MOL0     H23738   7.229  11.768   2.878 -3.1314 -2.2685 -1.0789
  180MOL0     H23739   7.098  11.833   2.806 -0.6751  1.1743 -0.2121
  180MOL0     H23740   7.319  11.996   2.933 -1.6898  1.1319  0.9214
  180MOL0     H23741   7.203  12.063   2.825 -0.5284 -0.8188 -3.0257
  180MOL0     H23742   6.824  11.346   2.746  1.9688 -0.4399  0.7079
  180MOL0     H23743   6.632  11.250   2.630 -3.2017 -1.2886  2.1672
  180MOL0     H23744   6.424  10.811   2.590 -1.7125 -2.9227 -0.6161
  180MOL0     H23745   6.229  10.715   2.502  2.3389 -0.0803  2.0526
  180MOL0     H23746   5.098  10.319   1.607  1.0554 -1.2916 -2.6118
  180MOL0     H23747   5.088  10.567   1.518 -0.3724  0.1210  1.5820
  180MOL0     H23748   5.317  10.791   1.018  0.9084 -1.0709  0.9390
  180MOL0     H23749   5.386  11.025   0.943 -1.7156  0.7478  0.4787
  180MOL0     H23750   5.434  11.298   0.916  3.5473  1.9086 -2.0153
  180MOL0     H23751   5.544  11.166   0.931 -2.0895  1.2793 -2.8413
  180MOL0     H23752   5.569  11.444   1.030  0.4822  0.8787 -0.7880
  180MOL0     H23753   5.693  11.309   1.040  0.4315 -0.5738 -2.2205
  180MOL0     H23754   5.612  11.478   0.817  1.2896  0.4546  2.4056
  180MOL0     H23755   5.621  11.308   0.777 -0.2250 -0.0724  0.4849
  180MOL0     H23756   5.863  11.304   0.841  1.0585  0.0306 -0.5548
  180MOL0     H23757   5.833  11.428   0.730  0.7482 -1.3300  0.1121
  180MOL0     H23758   5.924  11.707   1.012  3.5363 -0.5034 -0.2068
  180MOL0     H23759   5.431  11.143   1.353 -0.8520 -1.6031  4.3525
  180MOL0     H23760   5.360  10.932   1.428  0.6241  1.5944  0.2635
  181MOL0     O23761   9.983   0.460  10.309 -0.5059  0.6643  0.3976
  181MOL0     C23762  10.030   0.528  10.213 -0.6072 -0.5489  0.6490
  181MOL0     O23763   9.976   0.637  10.148  0.5686 -0.3602  0.2542
  181MOL0     C23764   9.851   0.685  10.195  0.5498 -0.9826  0.5810
  181MOL0     C23765   9.798   0.665  10.317  1.2263 -0.0304 -0.5001
  181MOL0     C23766   9.669   0.703  10.347 -0.1637 -0.4268 -0.6305
  181MOL0     C23767   9.590   0.756  10.243  0.9599 -0.0839 -0.4209
  181MOL0     O23768   9.457   0.768  10.282  0.1171  0.3208 -0.5068
  181MOL0     C23769   9.368   0.748  10.169 -0.3793 -0.1889  0.1441
  181MOL0     C23770   9.229   0.736  10.214  0.6620 -0.6231  0.8209
  181MOL0     C23771   9.184   0.868  10.283 -0.8647 -0.2372 -0.1912
  181MOL0     C23772   9.034   0.841  10.302 -0.2792  0.3626 -0.3998
  181MOL0     C23773   8.952   0.956  10.366  0.2638  0.1240  0.3646
  181MOL0     C23774   8.976   1.096  10.289 -0.4827  0.7750 -1.3092
  181MOL0     C23775   8.858   1.195  10.321  0.1686  0.8088  1.1505
  181MOL0     C23776   8.841   1.333  10.247 -0.2423  0.4023 -0.0443
  181MOL0     N23777   8.733   1.418  10.299 -0.1919  0.2980 -0.1938
  181MOL0     C23778   8.738   1.492  10.412 -0.7529  0.3140  0.8420
  181MOL0     C23779   8.614   1.550  10.418  0.6121  0.6087  0.3847
  181MOL0     C23780   8.550   1.634  10.529  0.9390 -0.0346 -0.7042
  181MOL0     C23781   8.670   1.716  10.610 -0.6384  0.0193  0.3059
  181MOL0     C23782   8.610   1.768  10.740  0.4122  0.4257  0.3441
  181MOL0     C23783   8.711   1.807  10.837  0.3289  0.6463 -0.3156
  181MOL0     O23784   8.643   1.872  10.946 -0.4150 -0.3027 -0.1315
  181MOL0     C23785   8.652   2.008  10.946  0.3693 -0.3843 -0.2645
  181MOL0     C23786   8.711   2.057  11.064 -0.3110  0.0015 -0.4880
  181MOL0     C23787   8.734   2.193  11.083  0.0568  0.0091 -0.2692
  181MOL0     C23788   8.698   2.282  10.988 -0.0298 -0.1264  0.4596
  181MOL0     C23789   8.730   2.425  11.016  1.0740 -0.4451 -0.3156
  181MOL0     O23790   8.699   2.506  10.914  0.5255  0.6165  0.5031
  181MOL0     C23791   8.744   2.636  10.915 -1.0042  0.4187 -0.2902
  181MOL0     C23792   8.656   2.730  10.965  0.2226 -0.9426  0.7007
  181MOL0     C23793   8.701   2.869  10.955  0.6064  0.1635 -0.3451
  181MOL0     C23794   8.834   2.894  10.923 -0.6066  0.0549  0.5776
  181MOL0     O23795   8.880   3.025  10.943  0.7923  0.7827 -0.2469
  181MOL0     C23796   9.019   3.050  10.933  1.0287  0.8829 -0.5474
  181MOL0     C23797   9.055   3.191  10.964  0.1496  0.2550  0.5700
  181MOL0     C23798   9.045   3.234  11.114  0.9441  0.5348  0.2824
  181MOL0     C23799   9.141   3.153  11.204  0.3092  0.3514  0.2275
  181MOL0     C23800   9.139   3.206  11.358 -0.0628  0.9387  0.3196
  181MOL0     C23801   9.205   3.344  11.372 -0.3207 -0.5836 -0.3015
  181MOL0     C23802   9.361   3.336  11.353  0.7969  1.1642 -0.9294
  181MOL0     C23803   9.424   3.468  11.390 -0.1193 -0.7048  1.6434
  181MOL0    Cl23804   9.387   3.579  11.256  0.0363 -0.4571 -0.1005
  181MOL0     C23805   8.927   2.785  10.911 -0.0338 -0.3244 -0.2279
  181MOL0     C23806   8.879   2.656  10.888 -0.5097 -0.8110 -0.1705
  181MOL0     O23807   8.772   2.469  11.121 -0.0166 -0.1319  0.3367
  181MOL0     C23808   8.645   2.232  10.867 -0.3832  0.6585 -0.6066
  181MOL0     C23809   8.616   2.094  10.850  0.3256 -0.7735  0.4299
  181MOL0     N23810   8.539   1.511  10.306  0.1241  0.4438  0.5757
  181MOL0     N23811   8.615   1.431  10.231  0.3324 -0.2127 -0.6049
  181MOL0     C23812   9.648   0.787  10.115 -1.3071 -0.2527  0.0545
  181MOL0     C23813   9.780   0.755  10.091 -0.8980  0.2276 -0.7065
  181MOL0     C23814  10.154   0.469  10.160  0.3258  0.1128  1.2404
  181MOL0     C23815  10.191   0.506  10.028 -0.1141  0.1007  0.3516
  181MOL0     C23816  10.293   0.440   9.968 -0.5525 -0.5901 -0.4643
  181MOL0     C23817  10.367   0.343  10.034 -0.8487 -0.1829  0.2154
  181MOL0     O23818  10.461   0.271   9.968  0.2990 -0.5520 -0.3045
  181MOL0     C23819  10.455   0.132  10.003 -0.4771 -0.4725  0.9516
  181MOL0     C23820  10.531   0.061   9.894 -0.3675 -0.5188 -0.2644
  181MOL0     C23821  10.544  -0.082   9.917 -0.8247 -0.5606 -0.0766
  181MOL0     C23822  10.628  -0.139   9.807 -0.3128  0.6487  0.8760
  181MOL0     C23823  10.669  -0.279   9.839 -0.4525 -1.1655  0.0844
  181MOL0     C23824  10.691  -0.388   9.884  0.3868 -0.8475 -0.9298
  181MOL0     C23825  10.337   0.319  10.166  0.1523  0.5350  0.5203
  181MOL0     C23826  10.235   0.383  10.231 -0.3693 -0.3880 -0.3217
  181MOL0     H23827   9.858   0.636  10.403  0.2963 -2.6388 -0.6319
  181MOL0     H23828   9.636   0.698  10.450  1.7510  3.5764  0.3776
  181MOL0     H23829   9.394   0.654  10.119  1.4790 -0.3422  1.3325
  181MOL0     H23830   9.373   0.828  10.094 -0.2917  0.7994  1.1876
  181MOL0     H23831   9.212   0.659  10.290  2.6476 -1.6206  0.3477
  181MOL0     H23832   9.171   0.726  10.121  0.7341  0.6525  0.6156
  181MOL0     H23833   9.204   0.945  10.208 -2.4521 -1.2691 -1.7526
  181MOL0     H23834   9.241   0.883  10.375 -1.2594 -3.0731  0.5957
  181MOL0     H23835   8.972   0.819  10.215 -2.0144 -0.0543  0.8803
  181MOL0     H23836   9.026   0.750  10.362  2.1390  0.9600  0.9780
  181MOL0     H23837   8.976   0.962  10.473  0.5555  0.6054  0.2746
  181MOL0     H23838   8.846   0.928  10.359 -0.6348  3.2926 -0.4980
  181MOL0     H23839   8.993   1.075  10.183  0.0315  3.5947 -1.8575
  181MOL0     H23840   9.070   1.141  10.322 -1.6435  1.4906  1.3289
  181MOL0     H23841   8.768   1.142  10.288  0.1664  2.9159 -2.8571
  181MOL0     H23842   8.856   1.218  10.428 -0.8355  1.2075  1.0594
  181MOL0     H23843   8.823   1.312  10.141 -1.5332  1.2991 -0.0356
  181MOL0     H23844   8.926   1.399  10.271 -2.6070  3.6037  0.3024
  181MOL0     H23845   8.822   1.499  10.480 -0.9067 -2.5263  1.4502
  181MOL0     H23846   8.509   1.557  10.594  0.1716  1.4140  0.5792
  181MOL0     H23847   8.478   1.711  10.500  3.2032  2.0545 -1.2026
  181MOL0     H23848   8.718   1.796  10.554  1.5765 -1.7433 -0.4473
  181MOL0     H23849   8.760   1.657  10.630 -0.2810  0.4955  0.1318
  181MOL0     H23850   8.541   1.851  10.720  0.0632  0.2270  0.7118
  181MOL0     H23851   8.552   1.687  10.786 -0.7564  0.7402 -0.5248
  181MOL0     H23852   8.780   1.872  10.783 -0.6842  2.2053  0.2031
  181MOL0     H23853   8.773   1.730  10.885  1.0702  1.5867  0.2651
  181MOL0     H23854   8.723   1.993  11.150 -1.1020  2.2414  1.3971
  181MOL0     H23855   8.780   2.235  11.172  1.6862  1.5051 -1.7325
  181MOL0     H23856   8.553   2.715  10.997 -0.4562  1.7442  0.0444
  181MOL0     H23857   8.645   2.958  10.981  1.4210  0.4856  0.4002
  181MOL0     H23858   9.073   3.026  10.841 -0.5092  2.4945 -1.9255
  181MOL0     H23859   9.066   2.984  11.007 -1.4587 -2.7058 -1.9281
  181MOL0     H23860   9.003   3.250  10.889 -0.3302 -1.7945 -0.8134
  181MOL0     H23861   9.159   3.205  10.934 -0.8373  2.1510 -2.2624
  181MOL0     H23862   8.940   3.213  11.133  1.1775 -1.3286 -0.2723
  181MOL0     H23863   9.074   3.339  11.125  2.2707  0.2122  0.0825
  181MOL0     H23864   9.122   3.045  11.203  1.7341  0.0659 -1.1040
  181MOL0     H23865   9.240   3.163  11.157 -0.4113  2.0175 -1.0391
  181MOL0     H23866   9.197   3.135  11.418  1.1156  2.2501  0.8028
  181MOL0     H23867   9.033   3.206  11.386 -0.3449  1.9602 -0.6533
  181MOL0     H23868   9.201   3.380  11.475 -0.6370  1.0980 -0.8670
  181MOL0     H23869   9.153   3.422  11.315 -0.6757  0.0651  0.8858
  181MOL0     H23870   9.409   3.261  11.416  1.1976  2.8600  0.8999
  181MOL0     H23871   9.395   3.299  11.256  0.5101 -1.8002  0.0222
  181MOL0     H23872   9.529   3.439  11.392 -0.4456 -2.3886 -0.8502
  181MOL0     H23873   9.380   3.499  11.486  2.4800  0.1622  2.6391
  181MOL0     H23874   9.031   2.801  10.882  0.6045 -2.7518  0.5200
  181MOL0     H23875   8.942   2.571  10.866  1.5224  0.8173 -0.9002
  181MOL0     H23876   8.629   2.308  10.791 -0.2746  0.7054 -0.5822
  181MOL0     H23877   8.558   2.059  10.765  1.6669  0.2807 -1.0110
  181MOL0     H23878   9.598   0.844  10.038  1.1874  2.4216  0.2601
  181MOL0     H23879   9.837   0.762   9.999  1.3988  1.1159  0.6890
  181MOL0     H23880  10.139   0.583   9.973 -0.3764 -0.1484  0.2482
  181MOL0     H23881  10.308   0.458   9.862 -3.1549 -3.6277 -1.5005
  181MOL0     H23882  10.353   0.094   9.995 -0.7337  0.5828 -2.3250
  181MOL0     H23883  10.505   0.087  10.089 -3.4447 -0.0797  3.0368
  181MOL0     H23884  10.492   0.082   9.794 -2.3128 -1.9542  0.1155
  181MOL0     H23885  10.632   0.102   9.889  0.2922 -2.2356 -2.6755
  181MOL0     H23886  10.443  -0.124   9.916 -0.0524 -2.5115 -0.1887
  181MOL0     H23887  10.596  -0.117  10.008 -0.9707 -0.3826  0.0757
  181MOL0     H23888  10.567  -0.145   9.716 -0.0192 -1.9281  0.7846
  181MOL0     H23889  10.720  -0.081   9.794  0.9317 -1.2184  0.9767
  181MOL0     H23890  10.710  -0.484   9.928  2.3844  0.5078  1.3624
  181MOL0     H23891  10.406   0.260  10.225  2.9898  2.3710 -0.7291
  181MOL0     H23892  10.205   0.363  10.334 -2.0153  1.2883 -0.4263
  182MOL0     O23893   8.322   8.853  10.836 -0.2674  0.1527  0.0510
  182MOL0     C23894   8.250   8.856  10.936  0.0507 -0.3585  0.2880
  182MOL0     O23895   8.244   8.755  11.034  0.4316  0.1635 -0.1667
  182MOL0     C23896   8.335   8.656  11.038  0.4432 -1.0130  0.4261
  182MOL0     C23897   8.418   8.657  11.153 -0.4186  0.0247 -0.2245
  182MOL0     C23898   8.532   8.575  11.156  0.3682  0.0086  0.0831
  182MOL0     C23899   8.556   8.482  11.060  0.3309  0.3560 -0.3345
  182MOL0     O23900   8.677   8.414  11.065  0.0011  0.5865 -0.4838
  182MOL0     C23901   8.737   8.399  10.933  0.4428 -0.4048  0.0968
  182MOL0     C23902   8.882   8.383  10.942 -0.5164 -0.0357  0.7086
  182MOL0     C23903   8.948   8.508  10.985 -0.0172  0.1203  0.4438
  182MOL0     C23904   9.103   8.506  10.986  0.4488  0.0478  0.0299
  182MOL0     C23905   9.135   8.656  10.988 -0.8700  1.2033 -0.3635
  182MOL0     C23906   9.284   8.683  10.983  0.0826 -1.2011 -0.6861
  182MOL0     C23907   9.307   8.846  10.995  0.1280  0.8998  0.1037
  182MOL0     C23908   9.243   8.937  10.894  0.0087 -0.8480  0.0453
  182MOL0     N23909   9.279   8.923  10.753 -0.3441 -0.2093  0.5247
  182MOL0     C23910   9.204   8.850  10.651 -0.3610 -0.5376  0.2352
  182MOL0     C23911   9.265   8.878  10.538 -0.3183  0.4930 -0.3437
  182MOL0     C23912   9.242   8.823  10.401 -0.5702  0.4205 -0.3964
  182MOL0     C23913   9.122   8.892  10.337  0.2933  0.1508  0.1779
  182MOL0     C23914   8.996   8.807  10.364  0.7348  0.2275 -0.7753
  182MOL0     C23915   8.870   8.866  10.308 -0.0331  0.0478  0.0220
  182MOL0     O23916   8.860   8.907  10.174 -0.1625 -0.1109 -0.4429
  182MOL0     C23917   8.743   8.943  10.108  1.1328 -0.6547 -0.1694
  182MOL0     C23918   8.757   8.984   9.977 -1.3855  0.2119  0.2117
  182MOL0     C23919   8.649   9.045   9.901 -0.5232  1.1368  0.2728
  182MOL0     C23920   8.524   9.055   9.962  1.3148  0.3350 -0.3310
  182MOL0     C23921   8.419   9.134   9.891  0.3772  0.5178 -0.9281
  182MOL0     O23922   8.425   9.172   9.765  0.0164  0.2659 -0.0349
  182MOL0     C23923   8.315   9.229   9.699  0.5259 -1.3944 -0.3059
  182MOL0     C23924   8.234   9.150   9.615  0.8966  0.2558  0.1436
  182MOL0     C23925   8.126   9.195   9.550 -0.4612  0.5312  0.7416
  182MOL0     C23926   8.086   9.326   9.570  0.0484 -0.0710 -0.3182
  182MOL0     O23927   7.976   9.379   9.515  0.6495 -0.3224  0.4807
  182MOL0     C23928   7.866   9.307   9.458 -0.5475  0.2112 -1.0879
  182MOL0     C23929   7.784   9.226   9.559 -0.1073  0.8996 -0.2919
  182MOL0     C23930   7.663   9.148   9.514  0.2599  0.5553  1.0957
  182MOL0     C23931   7.703   8.999   9.477  0.3778 -0.2837  0.8009
  182MOL0     C23932   7.588   8.909   9.441  0.9790  0.2931 -0.0286
  182MOL0     C23933   7.633   8.770   9.391 -0.2893  0.2818 -0.0700
  182MOL0     C23934   7.605   8.742   9.234 -0.7410  0.3598 -0.1132
  182MOL0     C23935   7.472   8.782   9.175 -0.8711 -0.8522  0.2477
  182MOL0    Cl23936   7.339   8.678   9.249 -0.7138 -0.0166  0.0058
  182MOL0     C23937   8.161   9.407   9.662 -0.1952  0.0288 -0.3358
  182MOL0     C23938   8.263   9.358   9.728  0.6784  1.5977 -0.1630
  182MOL0     O23939   8.327   9.163   9.966 -0.7123  0.4772  0.7115
  182MOL0     C23940   8.500   9.006  10.099 -0.7160  0.3405  1.1203
  182MOL0     C23941   8.611   8.951  10.167 -0.7516  0.3690 -0.3815
  182MOL0     N23942   9.370   8.960  10.562 -0.9605  0.6626  0.9320
  182MOL0     N23943   9.367   8.991  10.687 -0.2279 -0.7699  0.2688
  182MOL0     C23944   8.468   8.465  10.951 -0.0023 -0.4668 -0.3588
  182MOL0     C23945   8.366   8.565  10.931  0.4707 -1.0187  0.3889
  182MOL0     C23946   8.147   8.955  10.942 -0.7204 -0.3468 -0.8835
  182MOL0     C23947   8.117   9.039  10.830  0.2310  0.7548 -0.2956
  182MOL0     C23948   8.039   9.155  10.845  0.3184  0.1543 -0.5610
  182MOL0     C23949   7.982   9.182  10.968  0.2218 -0.0058  0.2320
  182MOL0     O23950   7.894   9.293  10.969 -0.1064  0.7507 -0.2154
  182MOL0     C23951   7.786   9.286  10.873  0.3908 -0.5175  0.1037
  182MOL0     C23952   7.661   9.201  10.914 -0.2139 -0.7572  0.2649
  182MOL0     C23953   7.530   9.245  10.836 -0.5172 -0.5513  0.0433
  182MOL0     C23954   7.490   9.394  10.860  0.2027  0.4025  0.0225
  182MOL0     C23955   7.342   9.404  10.842 -0.1373 -0.3685 -0.3031
  182MOL0     C23956   7.223   9.419  10.832 -0.0196  0.5783 -0.3157
  182MOL0     C23957   8.014   9.101  11.075  0.2282 -0.3713  0.4876
  182MOL0     C23958   8.086   8.982  11.065  0.6118  0.0689  0.1885
  182MOL0     H23959   8.392   8.729  11.230  2.6242  2.1250 -0.9706
  182MOL0     H23960   8.607   8.584  11.233  2.1257  1.4950 -1.6846
  182MOL0     H23961   8.707   8.486  10.874 -1.0441  0.0720  1.4839
  182MOL0     H23962   8.692   8.315  10.880 -2.6161 -0.4709  2.5035
  182MOL0     H23963   8.932   8.356  10.848  0.5444  0.2018  1.1875
  182MOL0     H23964   8.917   8.301  11.005 -1.2052 -0.7132  0.2216
  182MOL0     H23965   8.898   8.544  11.076 -1.1183 -0.2859  0.0233
  182MOL0     H23966   8.919   8.592  10.920  0.7100  0.4608  0.5516
  182MOL0     H23967   9.133   8.446  11.072 -3.0252  3.2132  3.8702
  182MOL0     H23968   9.133   8.461  10.891  0.9162  2.8560 -1.2501
  182MOL0     H23969   9.091   8.705  11.076  0.7804 -0.6313  1.6010
  182MOL0     H23970   9.098   8.700  10.895  1.8962  1.4693 -1.4309
  182MOL0     H23971   9.319   8.651  10.884  1.9736  1.7838 -1.1187
  182MOL0     H23972   9.345   8.629  11.057 -1.3754 -0.5687  1.0518
  182MOL0     H23973   9.268   8.884  11.090  0.6158 -0.4872  0.8894
  182MOL0     H23974   9.416   8.859  10.998  0.3685 -0.9888  0.3710
  182MOL0     H23975   9.265   9.042  10.914 -1.1818 -0.2685 -1.4935
  182MOL0     H23976   9.135   8.932  10.909 -0.3691  2.4645 -0.7944
  182MOL0     H23977   9.112   8.793  10.657 -0.1157 -1.1091 -1.0909
  182MOL0     H23978   9.220   8.717  10.413 -4.1263  1.0903  0.0533
  182MOL0     H23979   9.331   8.831  10.338  0.3813 -2.1729  0.4817
  182MOL0     H23980   9.155   8.900  10.233 -1.7125  1.4029 -0.4189
  182MOL0     H23981   9.109   8.998  10.360 -0.7774 -0.0335  0.4835
  182MOL0     H23982   8.998   8.711  10.312 -2.2165  0.8932 -2.2961
  182MOL0     H23983   8.993   8.774  10.468 -0.4244 -0.1274 -0.9136
  182MOL0     H23984   8.849   8.950  10.376  2.2218 -0.1351  1.0454
  182MOL0     H23985   8.792   8.795  10.337 -0.2793  0.9478  1.7179
  182MOL0     H23986   8.850   8.982   9.922 -2.7142  1.7393 -2.2602
  182MOL0     H23987   8.647   9.076   9.797  0.9187  0.0632 -0.0977
  182MOL0     H23988   8.245   9.046   9.588 -1.2039  0.3592 -1.3268
  182MOL0     H23989   8.067   9.143   9.475 -0.0547  0.0696  0.7326
  182MOL0     H23990   7.898   9.242   9.376 -1.5642 -1.5789 -0.1062
  182MOL0     H23991   7.804   9.382   9.408 -0.1699 -0.9742 -3.5083
  182MOL0     H23992   7.751   9.289   9.642  1.2008 -2.1839  2.8574
  182MOL0     H23993   7.845   9.152   9.612 -3.6967 -1.7173  0.5273
  182MOL0     H23994   7.617   9.202   9.431  0.7551 -4.8847 -3.3142
  182MOL0     H23995   7.586   9.148   9.592 -2.1572  0.9184 -1.1640
  182MOL0     H23996   7.787   9.004   9.407 -0.2446 -2.0519 -0.1491
  182MOL0     H23997   7.753   8.960   9.566  0.1190 -2.4565  0.0724
  182MOL0     H23998   7.526   8.962   9.368  1.9096  0.4131 -0.7403
  182MOL0     H23999   7.520   8.902   9.526  0.0452  3.4641 -0.3779
  182MOL0     H24000   7.583   8.702   9.460 -2.3675  0.7336 -1.0678
  182MOL0     H24001   7.742   8.763   9.390 -0.1764  1.5918  0.4503
  182MOL0     H24002   7.677   8.809   9.187  1.5491 -1.1170  1.1252
  182MOL0     H24003   7.626   8.635   9.219 -1.9341  0.0990 -0.0891
  182MOL0     H24004   7.466   8.770   9.066 -1.3396  0.9648  0.0417
  182MOL0     H24005   7.453   8.888   9.197  4.3048 -0.1040  2.5894
  182MOL0     H24006   8.122   9.504   9.689  0.6485  0.0313  0.9140
  182MOL0     H24007   8.325   9.408   9.802  3.4137 -1.2785 -0.2926
  182MOL0     H24008   8.404   9.025  10.145 -2.2924 -0.1366 -1.7573
  182MOL0     H24009   8.594   8.923  10.271 -1.9498 -0.6570 -0.8361
  182MOL0     H24010   8.475   8.386  10.878 -0.6245 -0.6236 -0.2551
  182MOL0     H24011   8.307   8.558  10.840 -0.1038  0.4381  0.6165
  182MOL0     H24012   8.152   9.019  10.729 -1.3225  0.9607 -0.9135
  182MOL0     H24013   8.017   9.227  10.767 -2.5561  0.2104  0.1876
  182MOL0     H24014   7.829   9.254  10.777 -1.1979 -0.1687 -0.7602
  182MOL0     H24015   7.768   9.392  10.852  3.8191 -0.0349 -1.1803
  182MOL0     H24016   7.682   9.096  10.891  1.7183 -0.1583 -0.8736
  182MOL0     H24017   7.632   9.197  11.019 -3.6745  1.1081 -0.4672
  182MOL0     H24018   7.451   9.178  10.872 -0.7578 -0.1191  0.3325
  182MOL0     H24019   7.542   9.233  10.728 -2.9797 -0.9181 -0.2539
  182MOL0     H24020   7.506   9.417  10.965  0.2591 -0.4405  0.2012
  182MOL0     H24021   7.550   9.458  10.794  0.1723  0.9945  0.5642
  182MOL0     H24022   7.117   9.434  10.833  0.2040  2.4233 -1.7355
  182MOL0     H24023   7.971   9.124  11.172 -0.0218 -4.1196  1.4199
  182MOL0     H24024   8.101   8.921  11.153 -3.1379 -2.1562 -0.4946
  183MOL0     O24025   0.718   9.122   5.765 -0.8079 -0.7306 -0.3518
  183MOL0     C24026   0.827   9.078   5.764 -0.5572  0.4303  0.5102
  183MOL0     O24027   0.905   9.058   5.655  0.2562  0.4773  0.3718
  183MOL0     C24028   0.858   9.038   5.523 -0.6729  0.2600 -0.5271
  183MOL0     C24029   0.902   8.929   5.444 -0.3355 -0.4301 -0.9608
  183MOL0     C24030   0.859   8.903   5.318 -0.5791  0.7109 -0.5907
  183MOL0     C24031   0.779   8.990   5.260  0.5942 -0.1941 -1.3501
  183MOL0     O24032   0.752   8.953   5.133 -0.2246 -0.0818 -0.2831
  183MOL0     C24033   0.751   9.057   5.027 -1.0431 -0.0633 -0.2144
  183MOL0     C24034   0.731   8.997   4.891 -0.0672  0.3119 -0.3143
  183MOL0     C24035   0.591   8.936   4.881 -0.3681  1.0624 -0.1524
  183MOL0     C24036   0.543   8.921   4.733 -0.6846  0.2792 -0.3188
  183MOL0     C24037   0.638   8.824   4.655  0.3496  0.3182 -0.2030
  183MOL0     C24038   0.624   8.688   4.721  0.2344 -0.5823 -0.3645
  183MOL0     C24039   0.729   8.589   4.672  1.0415  0.1606 -0.4254
  183MOL0     C24040   0.857   8.598   4.756 -0.1974  1.3324 -0.2444
  183MOL0     N24041   0.885   8.464   4.816  0.4915  0.1071 -0.7944
  183MOL0     C24042   0.846   8.437   4.943 -0.4277  0.3434  0.2583
  183MOL0     C24043   0.884   8.310   4.965 -0.3676 -0.5706 -0.4411
  183MOL0     C24044   0.862   8.236   5.098  0.1798  0.0583  0.2704
  183MOL0     C24045   0.825   8.092   5.073 -0.0308  0.3257 -0.3866
  183MOL0     C24046   0.854   8.006   5.190  0.0391  0.0673 -1.0777
  183MOL0     C24047   0.762   7.885   5.204 -0.4941  1.3174 -0.0213
  183MOL0     O24048   0.700   7.892   5.333  0.4013 -0.2399  0.0512
  183MOL0     C24049   0.586   7.816   5.363 -0.7452  0.1359 -1.8177
  183MOL0     C24050   0.537   7.835   5.490 -0.2356 -1.2509 -0.5997
  183MOL0     C24051   0.422   7.770   5.531 -0.3254  0.4034  0.4736
  183MOL0     C24052   0.352   7.679   5.452 -0.1373 -0.5605  0.0928
  183MOL0     C24053   0.216   7.631   5.496 -0.0744  0.0169 -0.6454
  183MOL0     O24054   0.167   7.663   5.622 -0.1477 -0.4652  0.8351
  183MOL0     C24055   0.030   7.639   5.645 -0.6961  0.0781 -1.0981
  183MOL0     C24056  -0.070   7.744   5.646  0.1462 -0.3292 -0.1033
  183MOL0     C24057  -0.190   7.730   5.706  0.4284  0.7525  0.2374
  183MOL0     C24058  -0.230   7.618   5.777 -0.2282 -0.0123  0.1887
  183MOL0     O24059  -0.344   7.625   5.857 -0.5862 -0.8828 -0.0960
  183MOL0     C24060  -0.387   7.516   5.938 -1.1320  0.1046  0.0486
  183MOL0     C24061  -0.451   7.409   5.849 -0.1119 -0.2276  0.0992
  183MOL0     C24062  -0.595   7.429   5.808 -0.1855 -0.3014  0.1619
  183MOL0     C24063  -0.698   7.382   5.913 -0.6302  0.9812 -0.4959
  183MOL0     C24064  -0.839   7.368   5.852 -0.7752  0.0617  0.0366
  183MOL0     C24065  -0.950   7.354   5.952 -0.0096  0.6195  0.9868
  183MOL0     C24066  -1.081   7.336   5.879  0.0209 -0.0863  0.2690
  183MOL0     C24067  -1.225   7.344   5.949 -0.3157 -0.4017 -0.2195
  183MOL0    Cl24068  -1.220   7.470   6.087 -0.2859 -0.2404 -0.4290
  183MOL0     C24069  -0.142   7.500   5.759 -0.0075 -0.6409  0.2681
  183MOL0     C24070  -0.014   7.515   5.682  0.1070  0.0525  0.0030
  183MOL0     O24071   0.150   7.566   5.415 -0.1027  0.7774  0.1711
  183MOL0     C24072   0.418   7.651   5.330 -0.6066 -0.4887 -0.0358
  183MOL0     C24073   0.527   7.719   5.286  0.3977  0.1864  0.2629
  183MOL0     N24074   0.955   8.267   4.857 -0.8972  0.5419 -0.3565
  183MOL0     N24075   0.960   8.365   4.764 -0.0583 -0.0997 -0.0424
  183MOL0     C24076   0.721   9.099   5.323 -0.5467 -0.2409 -0.1656
  183MOL0     C24077   0.766   9.130   5.462 -1.3830  0.0150  0.4290
  183MOL0     C24078   0.888   9.039   5.888  0.7246  0.0750 -0.0055
  183MOL0     C24079   0.816   9.066   6.010  0.2277 -0.2236  0.8140
  183MOL0     C24080   0.875   9.023   6.129 -0.9546 -0.9344 -0.1323
  183MOL0     C24081   1.004   8.964   6.134  0.3330  0.1003 -0.0145
  183MOL0     O24082   1.059   8.949   6.259 -0.6261  0.0655 -0.4297
  183MOL0     C24083   1.199   8.923   6.280  0.8076 -0.6347 -0.4634
  183MOL0     C24084   1.277   9.050   6.251  0.0812 -0.2579 -0.2813
  183MOL0     C24085   1.299   9.141   6.375 -0.4580  0.1457 -0.5966
  183MOL0     C24086   1.345   9.277   6.327 -0.1579 -0.9056  0.7145
  183MOL0     C24087   1.381   9.376   6.435 -0.7599  0.0967  0.3872
  183MOL0     C24088   1.395   9.472   6.507  0.0452  0.6831 -0.0861
  183MOL0     C24089   1.067   8.942   6.018 -0.4545  0.0050  0.7080
  183MOL0     C24090   1.012   8.978   5.891 -0.1717  0.4497 -0.1882
  183MOL0     H24091   0.965   8.855   5.491  1.1462  1.3625 -0.0052
  183MOL0     H24092   0.901   8.823   5.259  1.4093  0.4369  1.1039
  183MOL0     H24093   0.847   9.109   5.024  0.6546 -2.9628  0.2414
  183MOL0     H24094   0.677   9.134   5.050 -0.3506  0.2124  1.1546
  183MOL0     H24095   0.804   8.917   4.882 -1.2813 -0.9138  0.3779
  183MOL0     H24096   0.739   9.062   4.803  3.1511  0.6816  0.1638
  183MOL0     H24097   0.510   8.997   4.923 -1.6838  1.5801 -3.1385
  183MOL0     H24098   0.577   8.846   4.941 -1.4130  1.8567  0.8387
  183MOL0     H24099   0.440   8.883   4.735 -0.4367 -0.4621 -0.9756
  183MOL0     H24100   0.536   9.024   4.695 -1.5599  0.0013 -0.9636
  183MOL0     H24101   0.743   8.853   4.648  0.5508 -0.6088 -1.2552
  183MOL0     H24102   0.592   8.812   4.557 -0.9314 -0.3422  0.4533
  183MOL0     H24103   0.526   8.655   4.685  0.5628  0.0094 -1.8827
  183MOL0     H24104   0.618   8.685   4.830 -1.2385 -1.6341 -0.4441
  183MOL0     H24105   0.685   8.489   4.669  0.3602  0.4720 -1.5955
  183MOL0     H24106   0.762   8.613   4.570 -1.1638  1.3783 -0.9010
  183MOL0     H24107   0.833   8.676   4.829 -3.5792  2.8166 -2.6697
  183MOL0     H24108   0.948   8.618   4.699 -0.7666 -0.2381 -1.8104
  183MOL0     H24109   0.779   8.485   5.015 -0.3132  0.0190  0.5860
  183MOL0     H24110   0.788   8.281   5.165 -0.8428 -0.0033 -0.8042
  183MOL0     H24111   0.955   8.234   5.156  0.4895 -2.5563 -0.1512
  183MOL0     H24112   0.874   8.056   4.982  1.5906 -0.5197  0.7707
  183MOL0     H24113   0.716   8.099   5.063 -0.2166 -1.3041  0.2830
  183MOL0     H24114   0.957   7.973   5.169  1.6689  3.5088  0.7057
  183MOL0     H24115   0.870   8.056   5.286  2.1901 -1.4979 -0.5451
  183MOL0     H24116   0.823   7.796   5.186 -0.7607  1.3719 -1.2523
  183MOL0     H24117   0.694   7.876   5.119  3.1771  0.1619 -3.1039
  183MOL0     H24118   0.598   7.896   5.557 -1.7192  2.5828 -2.3980
  183MOL0     H24119   0.382   7.786   5.631 -0.0049 -0.7850  0.8076
  183MOL0     H24120  -0.025   7.840   5.622 -0.8395  0.2726  0.4151
  183MOL0     H24121  -0.252   7.818   5.717 -0.1592  0.2265  1.2157
  183MOL0     H24122  -0.464   7.561   6.001 -0.3092  1.4541  0.1344
  183MOL0     H24123  -0.302   7.481   5.997 -1.4538 -1.1388 -0.2095
  183MOL0     H24124  -0.429   7.306   5.878 -0.1208  0.2380  1.8924
  183MOL0     H24125  -0.382   7.402   5.764  0.4279 -1.6559  0.6313
  183MOL0     H24126  -0.604   7.378   5.712 -1.1988  1.4374 -0.7183
  183MOL0     H24127  -0.617   7.535   5.792  1.3706 -0.1444 -1.2510
  183MOL0     H24128  -0.675   7.286   5.961  1.1401  1.1033 -1.0143
  183MOL0     H24129  -0.702   7.446   6.002  0.2146 -2.0418  1.8985
  183MOL0     H24130  -0.832   7.281   5.786 -1.3159 -3.3738  4.0624
  183MOL0     H24131  -0.862   7.451   5.784 -1.2363  0.1153  0.2504
  183MOL0     H24132  -0.962   7.443   6.014  1.3426  0.2215  1.8653
  183MOL0     H24133  -0.928   7.276   6.025  0.8558  0.9032  1.0358
  183MOL0     H24134  -1.088   7.428   5.819  1.8359 -1.1711 -1.7441
  183MOL0     H24135  -1.072   7.257   5.804 -0.1607 -2.3344  2.5124
  183MOL0     H24136  -1.232   7.252   6.008  1.4391  1.1055  2.5217
  183MOL0     H24137  -1.312   7.342   5.883 -0.8060 -1.5799  0.4296
  183MOL0     H24138  -0.168   7.398   5.781 -1.9514  0.4921  3.9556
  183MOL0     H24139   0.050   7.429   5.668 -2.6537 -2.4086  1.4468
  183MOL0     H24140   0.366   7.582   5.263 -1.8389  0.9138 -0.5825
  183MOL0     H24141   0.575   7.686   5.194  0.7019 -0.6412  0.7177
  183MOL0     H24142   0.637   9.162   5.297  0.0046  0.3253 -0.5873
  183MOL0     H24143   0.720   9.218   5.505 -3.9347 -1.1046  0.1509
  183MOL0     H24144   0.715   9.105   6.023 -0.6332 -1.7764 -0.7239
  183MOL0     H24145   0.819   9.017   6.222  0.3427  1.7535  0.9597
  183MOL0     H24146   1.236   8.845   6.212 -0.4793 -2.3516  0.7203
  183MOL0     H24147   1.215   8.882   6.380 -0.3446 -0.3099 -0.1296
  183MOL0     H24148   1.373   9.025   6.205  1.0438 -0.1133  1.5411
  183MOL0     H24149   1.231   9.112   6.173  2.0527 -1.4186 -2.5076
  183MOL0     H24150   1.385   9.096   6.426 -1.3814 -2.5561 -1.2988
  183MOL0     H24151   1.218   9.165   6.444 -0.4646  3.5098 -1.6016
  183MOL0     H24152   1.434   9.276   6.265 -0.5589  3.1627 -0.1925
  183MOL0     H24153   1.255   9.315   6.278 -0.7103 -3.2939 -0.2736
  183MOL0     H24154   1.416   9.556   6.570 -0.2066  1.6355 -1.2408
  183MOL0     H24155   1.160   8.886   6.025 -0.0876  0.2227 -1.6961
  183MOL0     H24156   1.055   8.953   5.794 -2.3100 -2.0439 -0.6051
  184MOL0     O24157   5.340  11.383   0.678 -0.8389  0.7838 -0.4972
  184MOL0     C24158   5.409  11.376   0.580 -0.4173  0.1469 -0.0470
  184MOL0     O24159   5.433  11.262   0.513 -0.0022 -0.9659  0.5688
  184MOL0     C24160   5.390  11.146   0.572  0.2549 -0.7778 -0.1663
  184MOL0     C24161   5.481  11.040   0.597 -0.5640  0.1289 -0.2107
  184MOL0     C24162   5.438  10.920   0.656  0.6423 -0.9674  0.1185
  184MOL0     C24163   5.299  10.913   0.681  0.1506 -0.5634  0.8965
  184MOL0     O24164   5.259  10.806   0.761 -0.0669  0.2080 -0.0620
  184MOL0     C24165   5.148  10.728   0.728 -0.0451 -0.1416 -0.2357
  184MOL0     C24166   5.073  10.676   0.845  0.3533 -0.1957 -0.3494
  184MOL0     C24167   5.012  10.778   0.945  0.3424 -0.5626 -0.1567
  184MOL0     C24168   4.910  10.712   1.035  0.2309  0.4187  0.4472
  184MOL0     C24169   4.844  10.803   1.132  0.4315 -0.1599 -0.6629
  184MOL0     C24170   4.947  10.880   1.215 -0.2264 -0.5533 -0.1209
  184MOL0     C24171   4.900  10.907   1.355  0.0680  0.3313 -0.3618
  184MOL0     C24172   4.836  11.046   1.378  0.0903  1.3822  0.9527
  184MOL0     N24173   4.852  11.069   1.519 -0.4866 -0.2694 -0.7125
  184MOL0     C24174   4.777  11.019   1.628  0.2137 -0.7470 -0.1856
  184MOL0     C24175   4.830  11.076   1.740 -0.0954  0.5154  1.3585
  184MOL0     C24176   4.756  11.084   1.877  0.0265  0.9574  0.2593
  184MOL0     C24177   4.637  11.174   1.877 -0.1673 -0.2494  0.7250
  184MOL0     C24178   4.586  11.211   2.015  0.2648  0.3434 -0.2451
  184MOL0     C24179   4.493  11.333   2.027 -0.2579  0.6890 -0.5472
  184MOL0     O24180   4.386  11.313   1.936 -0.0768  0.0810 -0.4430
  184MOL0     C24181   4.271  11.374   1.973  0.3975  0.3254  0.1253
  184MOL0     C24182   4.252  11.491   2.051  0.8833 -0.0071 -0.1448
  184MOL0     C24183   4.119  11.511   2.101  0.3542  0.0568 -0.0641
  184MOL0     C24184   4.000  11.433   2.065  0.0247 -0.3124  0.2647
  184MOL0     C24185   3.871  11.477   2.118 -0.0927  0.2855  0.7541
  184MOL0     O24186   3.864  11.597   2.173 -0.2635  0.0409  0.6575
  184MOL0     C24187   3.739  11.656   2.209  0.0279  0.3418 -0.0417
  184MOL0     C24188   3.728  11.705   2.338  0.1394  0.6748 -0.7485
  184MOL0     C24189   3.596  11.750   2.380 -1.1831 -1.0292 -0.2585
  184MOL0     C24190   3.485  11.747   2.295  0.0971 -0.8056 -0.3056
  184MOL0     O24191   3.378  11.812   2.336  0.6266  0.2140  0.2894
  184MOL0     C24192   3.256  11.729   2.326  0.1226  0.0835  0.3818
  184MOL0     C24193   3.128  11.795   2.385  0.6385  0.4431 -0.1062
  184MOL0     C24194   3.008  11.822   2.291  0.1968 -0.4123  0.0757
  184MOL0     C24195   3.046  11.901   2.160  0.2915 -0.4425  0.0197
  184MOL0     C24196   2.926  11.953   2.085 -0.2599  1.0945  0.6268
  184MOL0     C24197   2.964  11.965   1.940 -0.3060  0.5379  0.5127
  184MOL0     C24198   3.054  12.094   1.904 -0.2473 -0.3130 -0.0748
  184MOL0     C24199   3.060  12.130   1.755  0.3063  0.4202  1.0017
  184MOL0    Cl24200   3.142  11.992   1.656  0.3719  0.0660 -0.0245
  184MOL0     C24201   3.499  11.705   2.168 -0.0155  0.0349 -0.1132
  184MOL0     C24202   3.625  11.658   2.125  0.7493 -0.3262  0.3960
  184MOL0     O24203   3.773  11.403   2.102 -0.6141  0.4070 -0.0967
  184MOL0     C24204   4.028  11.324   1.972  0.3359  0.4853 -0.3125
  184MOL0     C24205   4.157  11.303   1.922  0.2941 -1.2390  0.2153
  184MOL0     N24206   4.949  11.142   1.701  0.0116  0.5122  0.6467
  184MOL0     N24207   4.958  11.139   1.572 -0.7815 -0.1899  0.3153
  184MOL0     C24208   5.202  11.007   0.635 -0.3534 -0.0631  0.7487
  184MOL0     C24209   5.257  11.119   0.576  0.3494  0.0295  0.3407
  184MOL0     C24210   5.452  11.505   0.525 -0.9328 -0.4417  1.0476
  184MOL0     C24211   5.432  11.631   0.586  1.1599 -0.2675  0.7309
  184MOL0     C24212   5.466  11.749   0.521  0.1550 -0.7708 -0.2848
  184MOL0     C24213   5.520  11.755   0.390 -0.3186  0.4697  0.0207
  184MOL0     O24214   5.538  11.870   0.329  0.4487 -0.0030  0.5383
  184MOL0     C24215   5.556  11.866   0.187  0.2672  0.0552 -0.0512
  184MOL0     C24216   5.584  11.999   0.119 -0.0079  0.1591  0.5689
  184MOL0     C24217   5.473  12.100   0.164 -0.9189  0.4822  0.2462
  184MOL0     C24218   5.487  12.231   0.094 -0.4713 -0.5519 -0.4526
  184MOL0     C24219   5.380  12.319   0.146  0.4354  0.4597 -0.4708
  184MOL0     C24220   5.276  12.374   0.176  0.6388  0.0731  0.4041
  184MOL0     C24221   5.553  11.628   0.330  1.3580  0.7970 -0.0918
  184MOL0     C24222   5.512  11.508   0.391 -0.4261  0.3760  0.8264
  184MOL0     H24223   5.585  11.070   0.597 -0.1743 -0.7369 -3.8514
  184MOL0     H24224   5.504  10.854   0.713 -0.8627 -2.1914  0.5223
  184MOL0     H24225   5.184  10.648   0.663  0.9760 -0.3271  0.5326
  184MOL0     H24226   5.075  10.781   0.666  0.4916  1.4755  0.4540
  184MOL0     H24227   5.127  10.603   0.905 -4.0449 -3.7655 -0.2173
  184MOL0     H24228   4.993  10.614   0.804 -0.2482  1.4428 -1.7870
  184MOL0     H24229   4.966  10.852   0.878 -1.6361 -0.2874  1.4307
  184MOL0     H24230   5.088  10.823   1.009 -1.1575 -0.7503  1.8295
  184MOL0     H24231   4.833  10.662   0.976  0.9724 -1.1095  0.7311
  184MOL0     H24232   4.956  10.623   1.080  2.8986  1.6031  0.2715
  184MOL0     H24233   4.770  10.740   1.183 -2.5710  0.9336 -3.3435
  184MOL0     H24234   4.782  10.875   1.078 -0.8238  0.6301  1.6506
  184MOL0     H24235   4.974  10.972   1.161 -1.8824 -0.1019 -0.2434
  184MOL0     H24236   5.029  10.813   1.240  1.2879  2.1568  2.9160
  184MOL0     H24237   4.824  10.837   1.390 -0.7379  0.0834 -2.4202
  184MOL0     H24238   4.986  10.887   1.418  0.2207  1.7004 -0.1106
  184MOL0     H24239   4.731  11.045   1.350  1.0130  2.6716 -3.0884
  184MOL0     H24240   4.880  11.118   1.310  1.7623 -0.6749 -0.2750
  184MOL0     H24241   4.683  10.965   1.625 -0.2669  0.1243 -1.2594
  184MOL0     H24242   4.826  11.107   1.957 -3.2767 -0.4568  3.9164
  184MOL0     H24243   4.716  10.986   1.904  0.7578  1.4438  3.4725
  184MOL0     H24244   4.561  11.115   1.824 -0.7104  0.2658  0.9153
  184MOL0     H24245   4.671  11.262   1.822 -2.4042  0.1375 -0.1461
  184MOL0     H24246   4.537  11.126   2.065  2.2986  0.1889  1.6019
  184MOL0     H24247   4.675  11.230   2.075  1.1985  0.4729 -1.6355
  184MOL0     H24248   4.556  11.417   1.996 -0.2763  0.0919 -2.2968
  184MOL0     H24249   4.465  11.353   2.131  0.2489  3.3601 -0.8462
  184MOL0     H24250   4.335  11.556   2.075  1.3880 -0.8696  0.5234
  184MOL0     H24251   4.106  11.611   2.143  2.6360  0.2114  0.4050
  184MOL0     H24252   3.800  11.693   2.419 -0.6344 -2.6264 -0.3927
  184MOL0     H24253   3.588  11.798   2.477 -3.8059 -2.0071  0.0594
  184MOL0     H24254   3.273  11.626   2.359  0.3141 -1.0251 -2.8228
  184MOL0     H24255   3.223  11.727   2.221 -0.4733 -1.5924  0.5670
  184MOL0     H24256   3.158  11.892   2.426  3.4805  0.8645 -2.8382
  184MOL0     H24257   3.093  11.735   2.470  0.2453 -0.2556 -0.7535
  184MOL0     H24258   2.928  11.873   2.345 -0.1451 -0.6982 -0.1554
  184MOL0     H24259   2.978  11.722   2.259 -0.2081 -0.3885  0.3774
  184MOL0     H24260   3.112  11.983   2.188 -0.3531 -0.6534  2.3932
  184MOL0     H24261   3.101  11.828   2.100 -1.1156 -2.3178  0.9017
  184MOL0     H24262   2.898  12.051   2.124  0.5235  1.9685 -0.9376
  184MOL0     H24263   2.837  11.892   2.101  1.2785 -1.1184  1.2774
  184MOL0     H24264   2.866  11.970   1.891  0.5244 -3.6038 -2.1640
  184MOL0     H24265   3.017  11.880   1.896  0.3569  0.9092  0.5880
  184MOL0     H24266   3.016  12.182   1.958 -2.5308 -0.2710 -1.5866
  184MOL0     H24267   3.155  12.069   1.938  0.7551 -0.2098 -2.6756
  184MOL0     H24268   3.109  12.226   1.736  0.9809 -0.0350  0.3979
  184MOL0     H24269   2.952  12.139   1.738  0.5569  3.1885  0.4228
  184MOL0     H24270   3.411  11.717   2.105 -1.7153  2.9188  2.5029
  184MOL0     H24271   3.619  11.623   2.023 -2.2355 -0.1326  0.4119
  184MOL0     H24272   3.950  11.251   1.950 -1.0784  1.8274  0.0056
  184MOL0     H24273   4.177  11.237   1.838  4.7967  0.5367 -0.3617
  184MOL0     H24274   5.094  11.001   0.644 -0.7008  0.8377 -1.9367
  184MOL0     H24275   5.180  11.184   0.536  1.0521  0.7234  0.0851
  184MOL0     H24276   5.394  11.634   0.687 -1.7528  3.2097 -0.2447
  184MOL0     H24277   5.452  11.845   0.570  0.3506 -0.2074 -1.3010
  184MOL0     H24278   5.463  11.832   0.140  1.1449 -0.1510 -1.7297
  184MOL0     H24279   5.649  11.810   0.174  1.6029  2.1807 -0.2704
  184MOL0     H24280   5.688  12.024   0.141  0.1193  2.2104 -1.8762
  184MOL0     H24281   5.580  11.976   0.012 -1.1294 -2.5345  1.1160
  184MOL0     H24282   5.490  12.111   0.272  0.2131  1.5347 -0.0135
  184MOL0     H24283   5.373  12.060   0.151 -0.8036 -0.4035  1.8973
  184MOL0     H24284   5.585  12.275   0.114 -0.8177  1.2049 -2.2776
  184MOL0     H24285   5.487  12.205  -0.013 -1.4598  0.2283 -0.6572
  184MOL0     H24286   5.172  12.400   0.185  0.8421  0.6163  1.3161
  184MOL0     H24287   5.594  11.614   0.230  1.5459 -0.8357  0.1850
  184MOL0     H24288   5.518  11.411   0.342  0.7761 -0.5876  2.7827
  185MOL0     O24289   6.929   4.134   7.289 -0.2912  0.1253 -0.3786
  185MOL0     C24290   7.037   4.172   7.340  0.6276 -0.3497  0.7781
  185MOL0     O24291   7.078   4.137   7.462  0.4125 -0.3423 -0.6270
  185MOL0     C24292   7.016   4.048   7.545  1.2978 -0.0830 -1.7808
  185MOL0     C24293   7.078   4.019   7.664 -0.8877 -0.2472  0.2860
  185MOL0     C24294   7.028   3.941   7.769 -0.4455  0.6836 -0.0005
  185MOL0     C24295   6.908   3.875   7.744 -0.0622 -0.1211  0.3314
  185MOL0     O24296   6.856   3.800   7.837  0.1684  0.5099 -0.1737
  185MOL0     C24297   6.920   3.705   7.917  0.1491  0.7696  0.3543
  185MOL0     C24298   6.989   3.591   7.835 -0.7327  0.5895 -0.5531
  185MOL0     C24299   6.895   3.483   7.781  0.5496 -0.2129 -0.3900
  185MOL0     C24300   6.977   3.362   7.721  0.2141 -0.0399 -0.2498
  185MOL0     C24301   7.058   3.281   7.826  0.2272 -1.0405 -1.0101
  185MOL0     C24302   6.965   3.176   7.888 -0.2101 -0.0085 -0.4330
  185MOL0     C24303   7.019   3.109   8.009 -0.5762  0.0245 -0.5406
  185MOL0     C24304   6.930   2.996   8.053  0.3255  0.0736 -0.2125
  185MOL0     N24305   6.987   2.865   8.010  0.0019 -0.4220 -0.8963
  185MOL0     C24306   7.064   2.798   8.103 -0.0591  0.1787 -0.5393
  185MOL0     C24307   7.143   2.707   8.033  0.3710 -0.5534 -0.9641
  185MOL0     C24308   7.240   2.619   8.101  0.1067  0.0248  0.4199
  185MOL0     C24309   7.383   2.679   8.075  0.3745 -0.0808  0.1927
  185MOL0     C24310   7.452   2.646   7.941 -0.8045 -0.1699 -0.0606
  185MOL0     C24311   7.472   2.496   7.931  0.6439  0.0047 -0.8477
  185MOL0     O24312   7.526   2.426   8.049  0.3919 -0.4751  0.4206
  185MOL0     C24313   7.652   2.375   8.024  0.5472  0.6104 -0.6179
  185MOL0     C24314   7.655   2.240   7.974  0.8312  0.0842  0.4368
  185MOL0     C24315   7.780   2.176   7.949 -0.1545  0.4953 -0.8405
  185MOL0     C24316   7.907   2.239   7.968  1.2779 -0.1242  0.0085
  185MOL0     C24317   8.042   2.176   7.938  0.5288  0.6273  0.1084
  185MOL0     O24318   8.151   2.237   7.994 -0.5194  0.0672  0.6472
  185MOL0     C24319   8.282   2.206   7.971  0.6965 -0.2508 -0.0924
  185MOL0     C24320   8.333   2.076   7.984 -0.3413 -0.1242 -0.2180
  185MOL0     C24321   8.470   2.055   7.959 -0.0532 -0.9601 -0.6800
  185MOL0     C24322   8.557   2.166   7.935  0.2613  0.0263  0.5514
  185MOL0     O24323   8.693   2.159   7.928  0.7017 -0.4497  0.5106
  185MOL0     C24324   8.759   2.070   8.026 -0.3382  0.8211  0.5068
  185MOL0     C24325   8.912   2.097   8.040  1.0551 -0.8749  0.2485
  185MOL0     C24326   8.975   1.994   8.122 -0.2460  0.2787 -0.5841
  185MOL0     C24327   9.122   2.036   8.160 -0.4333 -0.6068  0.1563
  185MOL0     C24328   9.193   1.959   8.276  0.6045 -0.1902  0.1202
  185MOL0     C24329   9.174   1.811   8.241 -0.8832 -0.8312  0.0153
  185MOL0     C24330   9.277   1.722   8.302 -0.7904  0.2366  0.0696
  185MOL0     C24331   9.265   1.709   8.451 -0.1185  0.6044  0.8489
  185MOL0    Cl24332   9.304   1.868   8.527  0.1072 -0.0235  0.1694
  185MOL0     C24333   8.491   2.290   7.924  0.2505  0.2799  0.6614
  185MOL0     C24334   8.359   2.314   7.946  0.6311  0.5132  0.0588
  185MOL0     O24335   8.039   2.072   7.873  1.2734  0.1468 -0.5593
  185MOL0     C24336   7.905   2.374   8.022  0.4587  0.6546 -0.6167
  185MOL0     C24337   7.772   2.436   8.051 -0.8045  0.0260 -0.4079
  185MOL0     N24338   7.113   2.725   7.899  0.3135 -0.3107 -0.6232
  185MOL0     N24339   7.024   2.818   7.889  0.0714  0.0585  0.3091
  185MOL0     C24340   6.838   3.890   7.628  0.0328 -0.7079  0.1378
  185MOL0     C24341   6.887   3.990   7.535  1.3077  1.2953  0.6681
  185MOL0     C24342   7.119   4.269   7.255  0.2756  0.7545 -1.3283
  185MOL0     C24343   7.227   4.328   7.315 -0.4452 -0.7141  0.2993
  185MOL0     C24344   7.281   4.437   7.244  0.1383 -0.5765 -0.3633
  185MOL0     C24345   7.261   4.461   7.107 -0.3762  0.4631  0.4333
  185MOL0     O24346   7.339   4.554   7.035 -0.1363 -0.1476 -0.4622
  185MOL0     C24347   7.416   4.650   7.106 -0.1079  0.6596 -0.2481
  185MOL0     C24348   7.423   4.791   7.025  0.8150  0.4808 -0.9929
  185MOL0     C24349   7.274   4.856   7.019  0.1629  0.7229 -0.5586
  185MOL0     C24350   7.263   4.992   6.945 -0.2262 -1.1375  0.2548
  185MOL0     C24351   7.320   4.970   6.813 -0.8636 -0.8971 -0.2493
  185MOL0     C24352   7.352   4.953   6.695  0.4026 -0.1523  0.1245
  185MOL0     C24353   7.168   4.379   7.037  1.3047 -0.0287  0.0201
  185MOL0     C24354   7.097   4.280   7.116 -0.0853  0.1137 -0.7984
  185MOL0     H24355   7.175   4.058   7.694 -2.3947  1.9859  2.7495
  185MOL0     H24356   7.079   3.930   7.865  1.7487 -2.4087 -1.3581
  185MOL0     H24357   6.843   3.649   7.971  0.7292 -0.4837 -0.0808
  185MOL0     H24358   6.992   3.747   7.989 -1.8863  0.8278  2.4785
  185MOL0     H24359   7.042   3.542   7.917  0.7446  0.3933 -1.5831
  185MOL0     H24360   7.061   3.627   7.761 -0.9223 -0.4984 -1.3017
  185MOL0     H24361   6.834   3.520   7.698  1.1498  0.4272 -0.5607
  185MOL0     H24362   6.834   3.451   7.866 -0.8436  1.2071 -0.8082
  185MOL0     H24363   6.894   3.303   7.681  0.9722 -0.4006 -1.3621
  185MOL0     H24364   7.038   3.396   7.636  1.5472 -0.8908  0.3456
  185MOL0     H24365   7.120   3.340   7.894  2.0841 -1.3410 -2.3546
  185MOL0     H24366   7.125   3.225   7.759  0.3627 -0.8307 -1.0512
  185MOL0     H24367   6.942   3.102   7.812  0.5992 -1.6041  0.8200
  185MOL0     H24368   6.871   3.219   7.925 -1.1325 -1.5017 -0.9604
  185MOL0     H24369   7.123   3.078   8.003 -1.1199 -2.1233  0.1809
  185MOL0     H24370   7.025   3.187   8.086  1.1473  0.7235 -1.3314
  185MOL0     H24371   6.831   2.991   8.007 -0.0390  0.8043  0.4737
  185MOL0     H24372   6.921   2.998   8.162 -2.1851 -1.2560 -0.3268
  185MOL0     H24373   7.071   2.805   8.212  4.1411  0.6820 -0.6755
  185MOL0     H24374   7.226   2.514   8.074  1.0346  0.4722 -2.0717
  185MOL0     H24375   7.220   2.624   8.209 -0.0027 -2.2256  0.5656
  185MOL0     H24376   7.450   2.650   8.157 -0.9942 -1.4802  0.8789
  185MOL0     H24377   7.367   2.787   8.085  0.2507  0.0703 -1.4122
  185MOL0     H24378   7.399   2.682   7.852  2.2345  1.7649 -1.2775
  185MOL0     H24379   7.550   2.695   7.936 -0.6495 -0.5196 -0.5490
  185MOL0     H24380   7.522   2.484   7.834 -1.0287  1.5416 -1.9676
  185MOL0     H24381   7.374   2.448   7.916 -0.4154  1.4479  1.0561
  185MOL0     H24382   7.561   2.191   7.951 -0.2859  2.4453 -0.4595
  185MOL0     H24383   7.767   2.076   7.909 -2.5467 -0.6036  2.2956
  185MOL0     H24384   8.282   1.987   8.019 -0.3683  0.1771  0.5224
  185MOL0     H24385   8.507   1.954   7.971  0.6381 -0.6784 -0.3421
  185MOL0     H24386   8.749   1.967   7.992  0.4758  0.6628  0.7156
  185MOL0     H24387   8.712   2.091   8.122 -0.9170 -1.0985  0.6942
  185MOL0     H24388   8.923   2.199   8.077  1.3727  0.4797 -3.1991
  185MOL0     H24389   8.964   2.084   7.945  0.7832 -0.4117  0.0300
  185MOL0     H24390   8.978   1.893   8.081 -0.5727 -0.7405  1.7283
  185MOL0     H24391   8.922   1.994   8.218  1.6545 -2.0514  0.5751
  185MOL0     H24392   9.176   2.039   8.065 -1.4376 -0.3612 -0.4277
  185MOL0     H24393   9.114   2.144   8.178 -1.5508 -0.5530 -0.5686
  185MOL0     H24394   9.141   1.980   8.370 -0.8218 -2.4337 -0.1059
  185MOL0     H24395   9.300   1.975   8.294  0.3346  0.0808  1.6377
  185MOL0     H24396   9.169   1.790   8.134 -1.2956  0.5865 -0.2652
  185MOL0     H24397   9.078   1.779   8.283 -1.3033 -1.3210 -1.2731
  185MOL0     H24398   9.258   1.623   8.261 -0.8574 -1.4268  3.7009
  185MOL0     H24399   9.377   1.762   8.289 -1.3841  2.1425  1.0067
  185MOL0     H24400   9.335   1.631   8.484  0.1684  0.7135  0.5077
  185MOL0     H24401   9.164   1.679   8.480 -0.7227  1.9412  0.2194
  185MOL0     H24402   8.554   2.377   7.906  1.4396 -0.8162 -0.7293
  185MOL0     H24403   8.301   2.405   7.929 -1.2378 -0.4349  0.9884
  185MOL0     H24404   7.997   2.422   8.054  1.3246 -1.3875  0.1301
  185MOL0     H24405   7.784   2.538   8.085  1.9514 -0.8973  1.7701
  185MOL0     H24406   6.746   3.834   7.621  0.3768 -1.1800 -0.6885
  185MOL0     H24407   6.823   4.014   7.451  1.7170  2.6294  0.7194
  185MOL0     H24408   7.251   4.320   7.420  0.5978  1.2400  0.2492
  185MOL0     H24409   7.348   4.502   7.300 -0.8601 -0.9802  1.3545
  185MOL0     H24410   7.518   4.616   7.124  0.3631  2.4774  0.8530
  185MOL0     H24411   7.364   4.678   7.198 -1.1132 -1.4116 -0.1318
  185MOL0     H24412   7.472   4.870   7.082  0.8786 -0.1427 -0.1795
  185MOL0     H24413   7.466   4.782   6.924  0.3743  1.2943 -1.2622
  185MOL0     H24414   7.244   4.877   7.122  1.4537  2.1403 -0.4507
  185MOL0     H24415   7.227   4.773   6.964  3.1799 -1.8752  0.4794
  185MOL0     H24416   7.166   5.038   6.922  0.2328 -1.0450 -1.6251
  185MOL0     H24417   7.323   5.058   7.008 -0.8438 -1.9371  1.7149
  185MOL0     H24418   7.385   4.924   6.598  2.3872  2.4216 -0.0732
  185MOL0     H24419   7.136   4.390   6.934 -3.5837 -2.6972  0.9155
  185MOL0     H24420   7.007   4.227   7.086 -0.3299 -1.2294  2.0110
  186MOL0     O24421   2.935   0.749   6.879 -0.2460  1.0495 -1.2240
  186MOL0     C24422   3.027   0.800   6.950  0.8401 -1.4055 -0.3528
  186MOL0     O24423   3.069   0.760   7.075  0.1615  0.7153 -0.2523
  186MOL0     C24424   2.994   0.657   7.145 -0.1114 -0.0613 -0.6055
  186MOL0     C24425   3.063   0.582   7.237  0.6013  0.2056 -0.1031
  186MOL0     C24426   3.003   0.491   7.323 -0.2275 -0.2034  0.4336
  186MOL0     C24427   2.870   0.477   7.309  1.0596 -0.7251 -1.0003
  186MOL0     O24428   2.786   0.398   7.388 -0.0340 -0.2485  0.4643
  186MOL0     C24429   2.819   0.255   7.408 -0.5858 -0.5585  0.4715
  186MOL0     C24430   2.705   0.164   7.470 -0.2177 -0.4576 -0.2479
  186MOL0     C24431   2.716   0.019   7.440  0.5015 -0.7155  0.5979
  186MOL0     C24432   2.649  -0.079   7.543  0.0490 -0.1498  0.0319
  186MOL0     C24433   2.717  -0.216   7.541 -0.3244  0.3613  0.6805
  186MOL0     C24434   2.624  -0.321   7.597 -0.7423  0.1047  0.4595
  186MOL0     C24435   2.686  -0.458   7.620 -0.3554  0.2979 -0.7060
  186MOL0     C24436   2.774  -0.460   7.748 -0.8740  0.2727  0.0676
  186MOL0     N24437   2.817  -0.600   7.792 -1.0623  0.6856  0.0730
  186MOL0     C24438   2.735  -0.706   7.817 -0.0745 -0.3275 -0.6177
  186MOL0     C24439   2.818  -0.820   7.825  0.0283  0.0473 -0.5462
  186MOL0     C24440   2.775  -0.961   7.858  0.7426 -0.7469  0.7667
  186MOL0     C24441   2.887  -1.057   7.825 -0.0508 -0.7055  0.5425
  186MOL0     C24442   2.879  -1.174   7.911  0.2034  0.1392  0.4331
  186MOL0     C24443   2.987  -1.284   7.862  0.0413 -0.3435  0.9675
  186MOL0     O24444   2.957  -1.399   7.926  0.5777  0.8821 -0.3909
  186MOL0     C24445   3.045  -1.502   7.927 -0.5556 -0.1155 -0.7094
  186MOL0     C24446   2.994  -1.633   7.941  0.6084 -1.5486  0.0738
  186MOL0     C24447   3.083  -1.744   7.949 -0.0590 -0.3710  0.2730
  186MOL0     C24448   3.225  -1.732   7.933 -0.0122 -0.5899  0.5883
  186MOL0     C24449   3.327  -1.839   7.940  0.5157 -1.3967 -0.1773
  186MOL0     O24450   3.276  -1.965   7.943  0.8377  0.3587  0.3038
  186MOL0     C24451   3.349  -2.061   7.996  0.5306 -0.2394  0.5000
  186MOL0     C24452   3.335  -2.075   8.134  0.5535 -0.0034 -0.1365
  186MOL0     C24453   3.422  -2.167   8.196 -0.0431 -0.1804 -1.2504
  186MOL0     C24454   3.528  -2.235   8.133 -0.0998 -0.0499  0.3054
  186MOL0     O24455   3.603  -2.338   8.191  0.6885 -0.7178  1.3177
  186MOL0     C24456   3.576  -2.399   8.316  0.6234 -0.0863 -0.2299
  186MOL0     C24457   3.464  -2.503   8.334  0.0135  0.9133 -0.3901
  186MOL0     C24458   3.505  -2.642   8.296  1.1350  0.1176 -0.0313
  186MOL0     C24459   3.395  -2.737   8.339  0.8117 -0.1144  0.2200
  186MOL0     C24460   3.374  -2.853   8.239  0.1928 -0.0578  0.7271
  186MOL0     C24461   3.279  -2.956   8.292 -0.0049  0.2672 -0.7831
  186MOL0     C24462   3.315  -3.021   8.435  0.4337  0.4458 -0.5185
  186MOL0     C24463   3.241  -3.154   8.468 -0.1155 -0.0904  0.5050
  186MOL0    Cl24464   3.062  -3.133   8.481  0.0899 -0.4486  0.0197
  186MOL0     C24465   3.528  -2.220   7.991  0.0400 -0.4461 -0.5554
  186MOL0     C24466   3.438  -2.138   7.920 -0.3364 -0.5506  0.6314
  186MOL0     O24467   3.444  -1.812   7.923  0.1385  0.7638 -0.7365
  186MOL0     C24468   3.270  -1.600   7.903  0.8475 -1.0776 -0.4612
  186MOL0     C24469   3.183  -1.485   7.898 -1.0603  0.0138 -0.1696
  186MOL0     N24470   2.950  -0.777   7.807  0.1146 -0.3960 -0.2091
  186MOL0     N24471   2.941  -0.646   7.779 -0.4033  0.3611 -0.6916
  186MOL0     C24472   2.794   0.560   7.231  0.6694 -0.7974 -0.0613
  186MOL0     C24473   2.853   0.644   7.145 -0.5876 -0.3023  0.0647
  186MOL0     C24474   3.118   0.898   6.893 -0.7270  0.0412  0.9110
  186MOL0     C24475   3.191   0.975   6.977 -1.0119  0.4807 -0.1425
  186MOL0     C24476   3.277   1.070   6.927  0.1888  0.3079  0.2902
  186MOL0     C24477   3.301   1.087   6.793 -0.0853 -0.5659 -0.4233
  186MOL0     O24478   3.393   1.178   6.765 -1.0358 -0.0979 -0.4551
  186MOL0     C24479   3.410   1.216   6.628  0.5798 -0.3874  0.1663
  186MOL0     C24480   3.540   1.301   6.610 -0.1126 -0.0121 -0.4858
  186MOL0     C24481   3.548   1.453   6.653  0.0794 -0.2785  0.4916
  186MOL0     C24482   3.473   1.475   6.794  0.1688 -0.3938 -0.2346
  186MOL0     C24483   3.489   1.613   6.844  1.0690  0.0521 -0.9316
  186MOL0     C24484   3.495   1.731   6.868 -0.7613  0.4185  0.0875
  186MOL0     C24485   3.224   1.009   6.707  0.7303  0.3848 -0.3630
  186MOL0     C24486   3.134   0.914   6.755  0.5127  0.1617 -0.6951
  186MOL0     H24487   3.171   0.591   7.230  0.5452  0.5426 -0.5951
  186MOL0     H24488   3.068   0.430   7.387  2.3615  1.2913 -0.5997
  186MOL0     H24489   2.904   0.250   7.477 -0.1994  0.0702  0.0545
  186MOL0     H24490   2.854   0.224   7.310  0.7472 -2.1723  1.4054
  186MOL0     H24491   2.614   0.198   7.421 -0.7061  0.2820  1.1155
  186MOL0     H24492   2.690   0.170   7.578  0.7566 -2.0536 -0.0006
  186MOL0     H24493   2.820  -0.015   7.441  0.7281 -0.0778 -0.3685
  186MOL0     H24494   2.681  -0.003   7.339  0.6857 -0.1070  0.3960
  186MOL0     H24495   2.660  -0.041   7.645  1.4696 -1.9185  0.5887
  186MOL0     H24496   2.544  -0.093   7.515 -0.2760  5.1345 -2.7994
  186MOL0     H24497   2.814  -0.217   7.592 -1.5182  1.5165  3.1658
  186MOL0     H24498   2.742  -0.237   7.437  0.8001 -3.1730  1.5388
  186MOL0     H24499   2.548  -0.332   7.519 -0.8259  0.9601  0.4134
  186MOL0     H24500   2.573  -0.279   7.684  1.0121  0.9148  1.1529
  186MOL0     H24501   2.606  -0.533   7.624 -2.1100  2.1104  1.6924
  186MOL0     H24502   2.748  -0.481   7.533  0.6350  2.1377 -0.5292
  186MOL0     H24503   2.742  -0.395   7.830  1.4758  4.3214 -1.9193
  186MOL0     H24504   2.873  -0.422   7.722 -0.2730 -1.3068 -0.0285
  186MOL0     H24505   2.628  -0.698   7.833 -0.2530  3.7640 -2.6670
  186MOL0     H24506   2.686  -0.979   7.796  0.4243 -0.2064  1.0577
  186MOL0     H24507   2.736  -0.962   7.961  1.5006  0.9270  1.0970
  186MOL0     H24508   2.986  -1.016   7.847  1.0672 -2.9136 -0.0878
  186MOL0     H24509   2.886  -1.091   7.721 -1.9594 -1.0634  0.6484
  186MOL0     H24510   2.888  -1.143   8.015  1.1955  1.0024  0.1066
  186MOL0     H24511   2.778  -1.215   7.905 -1.0529  3.0750 -0.3084
  186MOL0     H24512   3.087  -1.248   7.885 -0.1088 -0.1589  1.3460
  186MOL0     H24513   2.982  -1.304   7.755  0.8996  2.3642  0.3547
  186MOL0     H24514   2.888  -1.654   7.943  0.5759 -1.2851  1.5322
  186MOL0     H24515   3.052  -1.847   7.966 -1.8815 -0.2859 -2.1381
  186MOL0     H24516   3.250  -2.034   8.187  1.9958  3.0844  0.0263
  186MOL0     H24517   3.412  -2.187   8.302  0.5530 -1.6945 -1.4421
  186MOL0     H24518   3.556  -2.316   8.385 -0.8341 -1.4432  1.0897
  186MOL0     H24519   3.671  -2.442   8.350  1.6461 -0.0879 -2.9001
  186MOL0     H24520   3.376  -2.458   8.286  0.5264  0.4909 -1.7753
  186MOL0     H24521   3.440  -2.517   8.439 -3.3785  1.2599 -1.0035
  186MOL0     H24522   3.596  -2.679   8.343 -0.6889 -1.4315  2.4803
  186MOL0     H24523   3.511  -2.643   8.186  0.8780  1.2568 -0.0750
  186MOL0     H24524   3.417  -2.781   8.437 -0.8111  0.7581  1.0206
  186MOL0     H24525   3.299  -2.685   8.350  0.4936 -0.8456  1.0133
  186MOL0     H24526   3.468  -2.908   8.228  0.6520  1.0473 -1.5261
  186MOL0     H24527   3.344  -2.823   8.138 -1.1112  1.7287  1.6009
  186MOL0     H24528   3.267  -3.043   8.227  0.5599  0.8265 -1.6611
  186MOL0     H24529   3.187  -2.897   8.301  0.7969  1.2600  2.0920
  186MOL0     H24530   3.422  -3.044   8.433  0.3841 -0.0995  1.0008
  186MOL0     H24531   3.299  -2.960   8.525 -0.3693 -1.0119  0.3646
  186MOL0     H24532   3.260  -3.185   8.571 -1.2588  0.0926  0.7797
  186MOL0     H24533   3.262  -3.234   8.398 -1.0393 -1.6865  1.9802
  186MOL0     H24534   3.594  -2.288   7.938 -2.0708 -0.9530 -2.7677
  186MOL0     H24535   3.441  -2.121   7.812 -3.8653  3.2051  0.8663
  186MOL0     H24536   3.370  -1.577   7.868  0.0839  1.2721 -1.2725
  186MOL0     H24537   3.231  -1.390   7.874  2.6051 -1.4972  0.5097
  186MOL0     H24538   2.687   0.553   7.246  0.5470  2.8636  2.0065
  186MOL0     H24539   2.793   0.717   7.093  0.9838  1.4010  0.5177
  186MOL0     H24540   3.185   0.971   7.085 -0.4169  1.4116 -0.0611
  186MOL0     H24541   3.341   1.121   6.998  1.5610  2.0635 -2.0567
  186MOL0     H24542   3.328   1.280   6.595  0.0163  0.1199  2.4355
  186MOL0     H24543   3.422   1.126   6.568 -1.5647 -0.3902 -0.3439
  186MOL0     H24544   3.624   1.240   6.645 -0.1027 -0.5843 -1.4634
  186MOL0     H24545   3.566   1.312   6.505 -0.4311 -0.5287 -0.6250
  186MOL0     H24546   3.508   1.524   6.581  2.2482  0.3398 -0.1947
  186MOL0     H24547   3.655   1.476   6.658  0.0206 -0.2490  2.2473
  186MOL0     H24548   3.368   1.449   6.781 -0.8157  2.1496  1.7036
  186MOL0     H24549   3.518   1.401   6.861 -2.2446 -0.2675  1.6599
  186MOL0     H24550   3.492   1.835   6.891  0.3275  0.3514  0.5581
  186MOL0     H24551   3.237   1.017   6.600 -1.3915 -0.9059 -0.7767
  186MOL0     H24552   3.086   0.854   6.679  0.8392 -2.9619  1.3855
  187MOL0     O24553   9.614   7.328   4.676  0.4013  0.2562 -0.6693
  187MOL0     C24554   9.652   7.401   4.588  0.5178 -0.3688  0.1197
  187MOL0     O24555   9.689   7.368   4.465  0.0877  0.3605 -0.3876
  187MOL0     C24556   9.672   7.235   4.419  0.0891 -0.4364 -0.0526
  187MOL0     C24557   9.756   7.201   4.314 -0.1121 -0.0443 -0.4486
  187MOL0     C24558   9.757   7.072   4.261  0.5631  0.0791 -0.2963
  187MOL0     C24559   9.657   6.983   4.308 -0.0480 -0.0568 -0.1452
  187MOL0     O24560   9.649   6.860   4.255  0.2524  0.6375 -0.0047
  187MOL0     C24561   9.518   6.835   4.203 -1.0593  0.8297  0.2009
  187MOL0     C24562   9.535   6.692   4.139 -0.0857 -1.2766  0.1371
  187MOL0     C24563   9.414   6.681   4.041 -0.9406 -0.0471  0.7169
  187MOL0     C24564   9.452   6.576   3.941  0.7382  0.3187  0.5002
  187MOL0     C24565   9.340   6.562   3.839 -0.1375  0.0485 -0.3872
  187MOL0     C24566   9.397   6.485   3.721 -0.2584  0.6152 -0.2626
  187MOL0     C24567   9.283   6.437   3.627 -0.7167 -0.1715  0.6852
  187MOL0     C24568   9.330   6.366   3.504  0.1418 -0.2568  0.1513
  187MOL0     N24569   9.224   6.374   3.401 -0.3939  1.1390 -0.4928
  187MOL0     C24570   9.106   6.309   3.425  0.2138  1.6153 -0.5522
  187MOL0     C24571   9.044   6.325   3.309  0.7473  0.7862 -0.5020
  187MOL0     C24572   8.908   6.278   3.274  0.5039  0.5063  0.1601
  187MOL0     C24573   8.797   6.384   3.291 -0.1189 -0.5499  0.3765
  187MOL0     C24574   8.706   6.368   3.413 -0.4854 -0.1844 -0.3308
  187MOL0     C24575   8.757   6.377   3.552 -0.0527 -0.4023 -0.4225
  187MOL0     O24576   8.833   6.495   3.574 -0.2848 -0.1922  0.4019
  187MOL0     C24577   8.864   6.531   3.701  0.1140  1.0338  0.5427
  187MOL0     C24578   8.843   6.450   3.816 -0.3840  0.0975 -1.0527
  187MOL0     C24579   8.883   6.493   3.942 -0.5507  0.9040  0.1280
  187MOL0     C24580   8.959   6.616   3.954  0.4091 -0.3086  0.2381
  187MOL0     C24581   9.005   6.667   4.081  0.0295  0.2376  0.2923
  187MOL0     O24582   9.095   6.772   4.087  0.2286 -0.5851  0.5793
  187MOL0     C24583   9.123   6.805   4.218  0.1408 -0.6285 -0.5514
  187MOL0     C24584   9.202   6.733   4.306  0.3647 -0.4161  0.2219
  187MOL0     C24585   9.216   6.788   4.433  0.5808 -0.0673  0.3190
  187MOL0     C24586   9.154   6.907   4.471 -0.0629  0.1819  0.1006
  187MOL0     O24587   9.169   6.954   4.594  0.1856  0.7943  0.1804
  187MOL0     C24588   9.062   7.014   4.669  0.8319  0.3171 -0.0785
  187MOL0     C24589   9.117   7.127   4.758  0.1354 -0.1443 -0.1540
  187MOL0     C24590   9.181   7.060   4.878  0.7017 -0.5971 -0.3583
  187MOL0     C24591   9.260   7.164   4.959  0.4733  0.3583 -0.2209
  187MOL0     C24592   9.295   7.113   5.089 -1.4103 -0.2826 -0.1470
  187MOL0     C24593   9.414   7.014   5.084  0.2917  0.8051 -1.0052
  187MOL0     C24594   9.425   6.947   5.223 -0.5465  0.2533  0.1093
  187MOL0     C24595   9.569   6.956   5.285 -0.6650 -0.4650  0.5768
  187MOL0    Cl24596   9.605   7.130   5.308  0.0714 -0.2884  0.0473
  187MOL0     C24597   9.076   6.982   4.383 -0.2069  0.3207  0.3790
  187MOL0     C24598   9.058   6.928   4.256  0.3763 -0.9506 -0.2937
  187MOL0     O24599   8.963   6.604   4.177 -0.6867 -0.3366 -0.6335
  187MOL0     C24600   8.986   6.681   3.840 -0.2531  0.2158 -0.7266
  187MOL0     C24601   8.936   6.642   3.724 -0.7971 -0.4927  0.3059
  187MOL0     N24602   9.123   6.401   3.221  0.3469 -0.7057  1.0108
  187MOL0     N24603   9.242   6.417   3.274 -0.2981 -0.0344 -0.3504
  187MOL0     C24604   9.572   7.014   4.417  0.5152 -0.9444  0.2507
  187MOL0     C24605   9.586   7.135   4.471  0.6753  0.0914  0.7498
  187MOL0     C24606   9.681   7.546   4.636 -0.2210 -0.1373 -0.1227
  187MOL0     C24607   9.695   7.580   4.772  0.4412  0.0484 -1.0584
  187MOL0     C24608   9.732   7.706   4.817  0.3439  0.6432 -0.2809
  187MOL0     C24609   9.758   7.806   4.717 -0.5374  0.0619 -0.8368
  187MOL0     O24610   9.819   7.928   4.746  0.0399 -0.4129  0.0115
  187MOL0     C24611   9.848   7.945   4.885 -0.6865  0.6302  0.9869
  187MOL0     C24612   9.988   7.888   4.908  0.1347  0.3378 -0.8667
  187MOL0     C24613  10.038   7.882   5.054 -0.4918 -0.5354  0.0892
  187MOL0     C24614   9.969   7.773   5.137 -0.0652  0.1043 -0.0822
  187MOL0     C24615  10.001   7.639   5.092  0.2860 -0.9224  0.0063
  187MOL0     C24616  10.030   7.520   5.056  1.2610  0.3099 -1.4719
  187MOL0     C24617   9.728   7.785   4.585  0.0080  0.7158  0.3744
  187MOL0     C24618   9.695   7.652   4.545  0.3627 -0.4014 -0.1523
  187MOL0     H24619   9.843   7.262   4.292  0.4621 -0.4334  0.6600
  187MOL0     H24620   9.811   7.042   4.171 -0.2283 -0.3858 -0.6246
  187MOL0     H24621   9.484   6.919   4.142 -0.6564  1.8384  1.3096
  187MOL0     H24622   9.436   6.829   4.275 -2.0194 -1.4454 -0.9645
  187MOL0     H24623   9.528   6.622   4.222 -1.6517 -1.7760 -0.3722
  187MOL0     H24624   9.628   6.693   4.082  0.1135 -0.6895  0.4662
  187MOL0     H24625   9.411   6.783   4.000  2.9486  1.0814  2.7860
  187MOL0     H24626   9.321   6.645   4.086  0.8101  0.3897  5.2096
  187MOL0     H24627   9.542   6.604   3.887 -0.7149  1.6500 -1.3561
  187MOL0     H24628   9.457   6.478   3.991 -0.7683  0.1021  0.2921
  187MOL0     H24629   9.310   6.662   3.808  0.9888  0.2180 -1.0051
  187MOL0     H24630   9.255   6.519   3.892 -0.1327  0.3064 -0.1697
  187MOL0     H24631   9.447   6.395   3.759  0.3722  1.4004  0.8293
  187MOL0     H24632   9.473   6.525   3.654 -0.2051 -2.2779 -2.0839
  187MOL0     H24633   9.202   6.387   3.681 -1.1754 -2.2894 -1.7613
  187MOL0     H24634   9.237   6.532   3.597 -2.6432 -0.3455  2.8621
  187MOL0     H24635   9.372   6.269   3.531  3.3205  0.9418 -0.0113
  187MOL0     H24636   9.411   6.431   3.469 -0.1910 -0.7945 -1.7159
  187MOL0     H24637   9.070   6.249   3.507  0.0413  0.9815 -1.0839
  187MOL0     H24638   8.888   6.200   3.348  2.3468  2.1369  2.5307
  187MOL0     H24639   8.902   6.230   3.176 -1.2862 -2.6499  1.6583
  187MOL0     H24640   8.739   6.386   3.198  0.4856  1.4767 -0.0059
  187MOL0     H24641   8.836   6.486   3.288 -3.2835  0.8431  2.2261
  187MOL0     H24642   8.632   6.449   3.408  0.4803  0.6812 -1.1976
  187MOL0     H24643   8.669   6.266   3.406 -0.3761 -0.2675  0.2714
  187MOL0     H24644   8.824   6.293   3.572  2.2963  1.3173 -0.6070
  187MOL0     H24645   8.670   6.380   3.618  0.9780 -1.3063  1.0145
  187MOL0     H24646   8.772   6.368   3.825 -2.8979  2.1631 -0.9663
  187MOL0     H24647   8.856   6.434   4.029  0.0262  0.8681  0.2866
  187MOL0     H24648   9.244   6.634   4.289 -2.5815 -2.0547  1.7108
  187MOL0     H24649   9.281   6.747   4.511  1.4858  0.6218 -0.0570
  187MOL0     H24650   9.025   6.941   4.742  0.8292  2.1579  1.8549
  187MOL0     H24651   8.978   7.053   4.611 -1.0983 -1.3914  1.4580
  187MOL0     H24652   9.031   7.188   4.788  2.8141  2.5524  2.8279
  187MOL0     H24653   9.189   7.187   4.702 -0.7030  1.0419  0.0028
  187MOL0     H24654   9.231   6.965   4.860 -2.2649 -2.4432  0.4178
  187MOL0     H24655   9.100   7.035   4.947  1.0238 -2.6294 -0.6430
  187MOL0     H24656   9.350   7.179   4.899  1.0195 -1.8629 -0.0539
  187MOL0     H24657   9.198   7.254   4.968 -1.4957 -0.6011 -2.7396
  187MOL0     H24658   9.208   7.077   5.144 -0.7351  2.1143  2.7436
  187MOL0     H24659   9.324   7.195   5.155 -1.9167  0.1103 -0.4085
  187MOL0     H24660   9.510   7.061   5.060  0.2550  1.9865  0.9904
  187MOL0     H24661   9.391   6.938   5.009 -0.1814  1.3059 -1.3721
  187MOL0     H24662   9.354   7.008   5.280 -0.6963  1.0398 -0.9011
  187MOL0     H24663   9.409   6.841   5.243  4.3883 -0.0391  4.9147
  187MOL0     H24664   9.640   6.927   5.207 -0.7164  1.0911 -0.0927
  187MOL0     H24665   9.580   6.893   5.374  1.2349  0.8432  1.3456
  187MOL0     H24666   9.025   7.071   4.418  1.1936 -0.0303  3.6297
  187MOL0     H24667   9.012   6.986   4.176  1.6604  0.8245  0.1776
  187MOL0     H24668   9.044   6.773   3.843 -1.0262  0.7324 -1.2580
  187MOL0     H24669   8.951   6.699   3.633 -0.8394 -1.0183 -0.0338
  187MOL0     H24670   9.502   6.937   4.450  1.7887 -1.3268  2.2675
  187MOL0     H24671   9.516   7.133   4.554 -0.2886 -4.5658  0.1192
  187MOL0     H24672   9.689   7.501   4.847 -0.6631 -0.1195 -1.3003
  187MOL0     H24673   9.759   7.714   4.922 -1.9323 -1.9360  0.6221
  187MOL0     H24674   9.775   7.911   4.958 -1.3371  2.3572  1.1857
  187MOL0     H24675   9.842   8.053   4.901 -0.3156  0.6710  0.8759
  187MOL0     H24676   9.986   7.786   4.868 -0.2956  0.4927 -1.2393
  187MOL0     H24677  10.066   7.936   4.849 -0.4195  2.5656  0.1149
  187MOL0     H24678  10.007   7.980   5.091 -4.1001 -1.4259 -0.2088
  187MOL0     H24679  10.147   7.877   5.049 -0.1231  3.8971 -1.1093
  187MOL0     H24680  10.021   7.778   5.234 -0.1757  1.0455 -0.0593
  187MOL0     H24681   9.862   7.792   5.142 -1.1306 -4.5674 -0.8982
  187MOL0     H24682  10.066   7.422   5.032 -0.6297 -0.4108 -1.5238
  187MOL0     H24683   9.735   7.878   4.529 -3.7627  2.2715  2.0931
  187MOL0     H24684   9.680   7.624   4.441  0.6707  2.5167 -1.0785
  188MOL0     O24685   2.424   5.293   4.830 -0.6789 -0.3650 -0.3030
  188MOL0     C24686   2.519   5.349   4.884 -0.2212  0.2089 -0.2565
  188MOL0     O24687   2.510   5.464   4.963 -0.6678 -0.1764  0.2788
  188MOL0     C24688   2.387   5.511   4.995 -0.6007  0.0935 -0.1645
  188MOL0     C24689   2.306   5.451   5.087 -0.1626  0.1113  0.0491
  188MOL0     C24690   2.179   5.501   5.121 -0.1883  0.0891 -1.2695
  188MOL0     C24691   2.138   5.623   5.063  1.1522  0.2221  0.4613
  188MOL0     O24692   2.012   5.683   5.112 -0.5016 -0.7364 -0.3420
  188MOL0     C24693   1.898   5.597   5.132  0.2444  0.1788  0.4104
  188MOL0     C24694   1.816   5.597   5.006  0.5357  0.2450 -1.3472
  188MOL0     C24695   1.743   5.727   4.993 -1.1318  0.4171  0.8679
  188MOL0     C24696   1.654   5.750   4.873  0.0230  0.7794 -0.1411
  188MOL0     C24697   1.551   5.636   4.864 -0.4082 -0.6367 -0.1558
  188MOL0     C24698   1.476   5.650   4.728 -0.5259 -0.1428 -0.3808
  188MOL0     C24699   1.381   5.540   4.695  0.4198  1.1220  0.6633
  188MOL0     C24700   1.271   5.570   4.598 -0.2745 -0.1818  0.5938
  188MOL0     N24701   1.312   5.573   4.451  0.4370  0.3992  0.0179
  188MOL0     C24702   1.280   5.464   4.378 -0.5190 -0.2687 -0.1658
  188MOL0     C24703   1.334   5.491   4.257 -0.9837 -0.1815  0.0239
  188MOL0     C24704   1.336   5.390   4.140 -0.0578 -0.1322 -0.3477
  188MOL0     C24705   1.432   5.415   4.019 -0.1916  0.4868  0.2797
  188MOL0     C24706   1.584   5.388   4.059 -0.4397 -0.9770 -0.9533
  188MOL0     C24707   1.681   5.417   3.948  0.8003  0.6332  0.1073
  188MOL0     O24708   1.651   5.323   3.849 -0.8872  0.2066  0.5329
  188MOL0     C24709   1.713   5.361   3.730 -0.4026 -0.4056  0.8437
  188MOL0     C24710   1.828   5.445   3.706 -0.0245  0.0646 -0.7791
  188MOL0     C24711   1.864   5.484   3.581 -0.1942  0.0955  0.4582
  188MOL0     C24712   1.789   5.447   3.469 -0.0595 -0.0751  0.3559
  188MOL0     C24713   1.840   5.467   3.331 -1.1807  0.0377  0.9085
  188MOL0     O24714   1.958   5.539   3.306 -1.1639  0.1706  0.7225
  188MOL0     C24715   1.998   5.576   3.179  0.0658  0.0908 -0.3238
  188MOL0     C24716   2.137   5.593   3.153  0.2340 -0.4089 -0.1248
  188MOL0     C24717   2.186   5.647   3.034 -0.3561  0.5808 -0.0884
  188MOL0     C24718   2.105   5.674   2.922  0.3586 -0.3970 -0.8882
  188MOL0     O24719   2.167   5.706   2.804 -0.0577 -0.2935  0.2895
  188MOL0     C24720   2.095   5.702   2.684  0.5469  0.0255 -1.5017
  188MOL0     C24721   2.100   5.567   2.607  0.7557 -0.9475 -0.6257
  188MOL0     C24722   2.063   5.445   2.687 -0.2257 -1.0099  0.1129
  188MOL0     C24723   2.044   5.316   2.606 -0.5909 -0.7804  0.1220
  188MOL0     C24724   1.986   5.195   2.688 -0.4517  0.1391  0.1864
  188MOL0     C24725   1.839   5.203   2.747  0.8005  0.8135  0.7746
  188MOL0     C24726   1.724   5.231   2.643 -0.6166  0.4702 -0.1821
  188MOL0     C24727   1.707   5.386   2.632 -0.2619  0.0851  0.0019
  188MOL0    Cl24728   1.643   5.457   2.780  0.1255  0.3846 -0.1233
  188MOL0     C24729   1.969   5.638   2.935 -0.1284 -0.3239 -0.1386
  188MOL0     C24730   1.921   5.606   3.065  0.3475  0.5253 -0.0351
  188MOL0     O24731   1.782   5.399   3.248 -0.3388  0.0424 -0.5664
  188MOL0     C24732   1.685   5.358   3.492  0.1752  0.6295 -0.4943
  188MOL0     C24733   1.646   5.301   3.616 -0.2232  0.9309  0.3729
  188MOL0     N24734   1.402   5.619   4.262  0.7585 -0.4063  0.2911
  188MOL0     N24735   1.388   5.670   4.384  0.0201 -0.5066  0.0901
  188MOL0     C24736   2.210   5.684   4.960 -0.1248 -0.3965  0.3621
  188MOL0     C24737   2.337   5.631   4.931 -0.2432  0.9698  0.4126
  188MOL0     C24738   2.652   5.309   4.857 -0.2837 -0.0253  0.8079
  188MOL0     C24739   2.673   5.175   4.828 -0.8325 -0.0498  0.1208
  188MOL0     C24740   2.807   5.128   4.803  0.3707  0.0023 -0.1622
  188MOL0     C24741   2.909   5.217   4.784 -0.6152 -0.9736 -0.3583
  188MOL0     O24742   3.042   5.187   4.745  0.4907 -0.0117  0.7031
  188MOL0     C24743   3.042   5.175   4.598  0.2728  0.1176  0.7447
  188MOL0     C24744   3.092   5.308   4.546  0.3446 -0.6189  0.2480
  188MOL0     C24745   3.209   5.361   4.611 -0.5333 -0.1126 -0.4570
  188MOL0     C24746   3.271   5.480   4.542 -0.2851  0.2646  0.0409
  188MOL0     C24747   3.189   5.602   4.547  0.8049 -0.3090 -0.2092
  188MOL0     C24748   3.124   5.704   4.560  0.4077  0.1573 -0.4354
  188MOL0     C24749   2.882   5.353   4.811 -0.2873  0.5319 -0.6190
  188MOL0     C24750   2.761   5.403   4.850  0.6251  0.7207 -1.3190
  188MOL0     H24751   2.353   5.369   5.141  2.6225  1.2546 -0.4259
  188MOL0     H24752   2.121   5.444   5.194  0.4087 -0.3015 -1.0925
  188MOL0     H24753   1.834   5.634   5.212  0.1750 -0.8625  0.8526
  188MOL0     H24754   1.917   5.489   5.138 -1.0656 -0.0264  1.1355
  188MOL0     H24755   1.752   5.509   5.002  1.0336 -0.1430 -0.9918
  188MOL0     H24756   1.866   5.583   4.909  0.2118 -1.8588 -1.2624
  188MOL0     H24757   1.814   5.809   4.975 -0.9018 -0.2186 -1.4562
  188MOL0     H24758   1.687   5.752   5.084  2.9916  4.9971  2.6451
  188MOL0     H24759   1.595   5.841   4.891 -3.5857 -0.7633 -2.8817
  188MOL0     H24760   1.718   5.763   4.786 -0.7360  0.1579 -0.8109
  188MOL0     H24761   1.475   5.633   4.943  0.3577 -1.0205  0.5777
  188MOL0     H24762   1.594   5.535   4.854  1.0194 -0.0359 -0.3143
  188MOL0     H24763   1.553   5.657   4.652 -0.7370 -2.4068 -0.8785
  188MOL0     H24764   1.408   5.736   4.728  1.7960  1.7744 -0.9992
  188MOL0     H24765   1.437   5.451   4.664 -0.1036  0.7082  0.8926
  188MOL0     H24766   1.326   5.514   4.785 -0.1396  0.1047  0.0448
  188MOL0     H24767   1.221   5.663   4.627  2.7811  0.9763  2.5741
  188MOL0     H24768   1.208   5.481   4.607 -0.8673  0.4261  4.2670
  188MOL0     H24769   1.243   5.365   4.402  3.3942 -2.3862 -1.9509
  188MOL0     H24770   1.234   5.366   4.108  0.0645 -1.2173  0.0276
  188MOL0     H24771   1.368   5.303   4.198  3.7700  1.3056 -0.0285
  188MOL0     H24772   1.428   5.518   3.983 -2.7265  0.4775  0.3167
  188MOL0     H24773   1.398   5.353   3.935 -0.9684 -0.5928  1.3670
  188MOL0     H24774   1.607   5.445   4.149 -1.0838 -3.0480  0.5902
  188MOL0     H24775   1.603   5.285   4.088  2.4475  0.7626  4.9355
  188MOL0     H24776   1.780   5.380   3.977 -0.4441 -3.2561 -0.0251
  188MOL0     H24777   1.682   5.523   3.922  0.7662  0.3126 -1.3163
  188MOL0     H24778   1.889   5.477   3.789  0.4250  1.5924 -1.6712
  188MOL0     H24779   1.956   5.537   3.559 -0.6403 -0.1695 -2.5017
  188MOL0     H24780   2.209   5.575   3.231  1.5330 -3.3805 -1.8276
  188MOL0     H24781   2.293   5.665   3.029 -0.0388 -1.0545  0.3178
  188MOL0     H24782   2.151   5.768   2.617  1.8102 -0.2580 -0.7489
  188MOL0     H24783   1.993   5.738   2.702 -0.1993 -3.0321  1.4843
  188MOL0     H24784   2.201   5.555   2.568  1.4921  1.9902  0.1863
  188MOL0     H24785   2.026   5.576   2.527  1.4399 -1.5790 -1.3419
  188MOL0     H24786   1.968   5.453   2.740  0.3378  0.9915  0.9021
  188MOL0     H24787   2.136   5.420   2.765  1.3624  0.3309 -0.8614
  188MOL0     H24788   1.986   5.337   2.515  2.4358  4.5288 -1.0552
  188MOL0     H24789   2.141   5.278   2.573 -0.9020 -1.0035 -0.5523
  188MOL0     H24790   2.062   5.178   2.765  1.0768  0.3006 -1.2314
  188MOL0     H24791   2.002   5.104   2.629  3.7193 -0.2329  1.5777
  188MOL0     H24792   1.832   5.273   2.831 -3.4080  1.2306  0.2828
  188MOL0     H24793   1.811   5.108   2.794 -1.1673  0.6998 -0.5267
  188MOL0     H24794   1.747   5.198   2.541 -2.2339 -1.2431 -0.0525
  188MOL0     H24795   1.624   5.193   2.665 -0.4936  1.1203  1.6315
  188MOL0     H24796   1.627   5.386   2.558  0.9847 -2.6294 -1.4670
  188MOL0     H24797   1.791   5.445   2.595 -0.4701  1.0899  1.0550
  188MOL0     H24798   1.891   5.649   2.859 -0.3709 -0.7018  0.0560
  188MOL0     H24799   1.814   5.610   3.085 -0.2618 -1.1810 -2.4630
  188MOL0     H24800   1.631   5.319   3.406 -0.2894 -2.8175  1.1850
  188MOL0     H24801   1.556   5.242   3.627 -1.2431  2.1189 -1.1945
  188MOL0     H24802   2.161   5.769   4.912 -0.6014 -0.1606  1.2584
  188MOL0     H24803   2.382   5.689   4.852 -0.6984  2.9202  1.5094
  188MOL0     H24804   2.595   5.099   4.833 -0.7925 -0.0274  2.3057
  188MOL0     H24805   2.812   5.021   4.787  2.3201 -0.1951  1.3470
  188MOL0     H24806   2.940   5.147   4.569  0.4205 -0.7633  1.0500
  188MOL0     H24807   3.112   5.099   4.564  2.3305  2.2093  0.0212
  188MOL0     H24808   3.124   5.298   4.442  0.6846  2.3885 -0.0132
  188MOL0     H24809   3.022   5.392   4.548 -0.3198 -1.0167 -2.2503
  188MOL0     H24810   3.286   5.283   4.619 -1.5112 -0.9806  0.9446
  188MOL0     H24811   3.180   5.386   4.713  1.1386  0.2950 -0.0434
  188MOL0     H24812   3.362   5.509   4.593 -0.6987  0.4590  0.6796
  188MOL0     H24813   3.311   5.449   4.445  2.8924 -0.7954  1.5702
  188MOL0     H24814   3.081   5.801   4.571 -3.1694 -1.2884 -0.3867
  188MOL0     H24815   2.967   5.420   4.800  0.0358 -0.0683 -1.9974
  188MOL0     H24816   2.742   5.510   4.858  2.7341  1.1488 -1.5189
  189MOL0     O24817   2.762   9.453   9.051 -0.1856  0.7235 -0.4470
  189MOL0     C24818   2.661   9.456   8.980 -0.0562  0.5271  0.0387
  189MOL0     O24819   2.551   9.534   9.005 -0.1700 -0.1373 -0.4477
  189MOL0     C24820   2.515   9.607   9.116  0.6878  0.3407  0.8324
  189MOL0     C24821   2.591   9.615   9.237  0.1194 -0.7203  0.3109
  189MOL0     C24822   2.554   9.702   9.346  1.3530  0.5770  0.9502
  189MOL0     C24823   2.439   9.777   9.337 -1.3949 -0.1541  0.5874
  189MOL0     O24824   2.426   9.865   9.442 -0.0195  0.2084  0.9430
  189MOL0     C24825   2.338   9.987   9.443  0.4634  0.5241  0.1409
  189MOL0     C24826   2.342  10.063   9.578  0.9673 -0.9252 -0.5891
  189MOL0     C24827   2.256  10.198   9.577  1.0814  0.2606 -0.0107
  189MOL0     C24828   2.257  10.265   9.447 -0.3312 -0.3607 -0.1280
  189MOL0     C24829   2.226  10.414   9.456 -0.2583  0.4650 -0.6265
  189MOL0     C24830   2.222  10.490   9.313 -0.1356 -0.9616 -0.4121
  189MOL0     C24831   2.252  10.633   9.309 -0.0045 -0.4108  1.1645
  189MOL0     C24832   2.327  10.680   9.179  0.1781 -0.1981  0.1034
  189MOL0     N24833   2.261  10.660   9.059  0.4816 -0.2111  0.0320
  189MOL0     C24834   2.134  10.699   9.025  0.4151  0.1265  0.4042
  189MOL0     C24835   2.125  10.635   8.902  0.3008  0.1545 -0.4345
  189MOL0     C24836   2.002  10.636   8.814 -0.5585  0.6429 -0.8818
  189MOL0     C24837   1.884  10.703   8.884  0.1663 -0.3884 -0.1816
  189MOL0     C24838   1.768  10.745   8.789  0.4240 -0.2268 -0.2475
  189MOL0     C24839   1.645  10.788   8.870 -0.3472  0.0668 -0.4142
  189MOL0     O24840   1.571  10.676   8.921  0.1941  0.4438 -0.2404
  189MOL0     C24841   1.463  10.632   8.848  0.1383  0.2020 -0.2181
  189MOL0     C24842   1.387  10.553   8.923  0.4238  0.4774  0.2473
  189MOL0     C24843   1.279  10.477   8.866  0.3315 -0.3737  0.3217
  189MOL0     C24844   1.241  10.495   8.730 -0.4608 -0.4193  0.2921
  189MOL0     C24845   1.122  10.431   8.674 -1.1542  0.2595 -0.6007
  189MOL0     O24846   1.067  10.493   8.561  0.2294  0.6353  0.8198
  189MOL0     C24847   0.962  10.440   8.487 -0.4886 -0.2889 -0.0660
  189MOL0     C24848   0.950  10.497   8.363 -1.1863  1.0630 -0.8579
  189MOL0     C24849   0.851  10.460   8.276 -0.1835  0.6542 -0.3688
  189MOL0     C24850   0.750  10.356   8.302 -0.5205 -1.2536 -0.5381
  189MOL0     O24851   0.652  10.333   8.206  0.9126  0.5049  0.0359
  189MOL0     C24852   0.525  10.270   8.242  0.6110  0.6683  0.3969
  189MOL0     C24853   0.423  10.359   8.319  0.9532  0.6270 -0.1666
  189MOL0     C24854   0.275  10.311   8.309  0.3759  0.3573  0.3328
  189MOL0     C24855   0.264  10.180   8.388 -0.5118  0.4317 -0.3258
  189MOL0     C24856   0.119  10.140   8.422  0.2180  0.5489 -0.0665
  189MOL0     C24857   0.033  10.133   8.293  0.5034 -0.3979  0.8271
  189MOL0     C24858  -0.116  10.088   8.314  0.0584  0.6164  0.6218
  189MOL0     C24859  -0.205  10.075   8.183 -1.1179  0.0825 -0.7109
  189MOL0    Cl24860  -0.367  10.062   8.222  0.5318  0.3204 -0.2143
  189MOL0     C24861   0.759  10.309   8.434  0.5589  0.3383  0.0554
  189MOL0     C24862   0.860  10.350   8.522  0.3421  0.5588  0.8599
  189MOL0     O24863   1.078  10.339   8.737  0.0926 -0.0792 -0.5010
  189MOL0     C24864   1.315  10.593   8.660  0.0029  1.1380  0.4000
  189MOL0     C24865   1.422  10.664   8.718  0.0624  0.1138 -0.7860
  189MOL0     N24866   2.237  10.568   8.872  0.7661 -0.4359  0.3539
  189MOL0     N24867   2.318  10.596   8.959  0.9280 -0.3710  1.0194
  189MOL0     C24868   2.367   9.775   9.218  0.2840 -0.3334 -0.3790
  189MOL0     C24869   2.400   9.699   9.110 -0.6378  0.3929  0.2535
  189MOL0     C24870   2.653   9.383   8.849 -1.0110 -0.5221 -0.6253
  189MOL0     C24871   2.531   9.334   8.814 -0.1819  0.1036  0.0019
  189MOL0     C24872   2.530   9.259   8.700 -0.3041  0.2283 -0.0488
  189MOL0     C24873   2.637   9.236   8.619  0.4338  0.0694 -0.4781
  189MOL0     O24874   2.636   9.166   8.497 -0.0782  0.4525  0.1025
  189MOL0     C24875   2.517   9.083   8.474  0.8313 -0.4661 -0.6361
  189MOL0     C24876   2.550   9.004   8.357  1.3510  0.2339  0.4517
  189MOL0     C24877   2.436   8.925   8.290 -0.5723 -0.3596  0.7620
  189MOL0     C24878   2.475   8.856   8.159 -0.2716 -0.3666  0.2215
  189MOL0     C24879   2.354   8.818   8.086  0.6113  0.4825  0.3820
  189MOL0     C24880   2.253   8.779   8.025 -0.6430  0.3326 -0.1398
  189MOL0     C24881   2.760   9.288   8.661 -0.2715 -0.1985 -0.0680
  189MOL0     C24882   2.770   9.351   8.782  0.4606  1.1291  0.1542
  189MOL0     H24883   2.687   9.564   9.242  1.7284  1.2237 -4.8182
  189MOL0     H24884   2.627   9.715   9.425  1.7472 -2.1747  1.1369
  189MOL0     H24885   2.237   9.945   9.439  0.2488  1.1589 -1.6322
  189MOL0     H24886   2.354  10.054   9.358 -3.5269  1.1084 -0.3346
  189MOL0     H24887   2.444  10.097   9.597 -0.5861  2.4217  3.3217
  189MOL0     H24888   2.321   9.998   9.664 -0.8216 -0.0847 -0.3514
  189MOL0     H24889   2.285  10.261   9.661 -0.6802 -0.8569  1.5171
  189MOL0     H24890   2.157  10.162   9.605  0.9258  1.0577  0.5017
  189MOL0     H24891   2.358  10.260   9.405  1.0246  0.5928  2.7915
  189MOL0     H24892   2.182  10.221   9.380 -0.3605  0.7119 -0.8264
  189MOL0     H24893   2.318  10.462   9.492  0.8188 -1.4585 -0.6651
  189MOL0     H24894   2.140  10.431   9.521  0.6674 -1.0749  1.0724
  189MOL0     H24895   2.121  10.483   9.271  0.1785 -1.3941 -1.1164
  189MOL0     H24896   2.292  10.437   9.249  0.8065 -1.4813  1.0076
  189MOL0     H24897   2.158  10.687   9.327 -0.9840 -2.1947  1.6047
  189MOL0     H24898   2.312  10.648   9.399  0.0797 -4.1403  1.8654
  189MOL0     H24899   2.419  10.621   9.175  0.2085 -0.1647  0.3225
  189MOL0     H24900   2.359  10.782   9.201 -2.8972  0.8138  0.3815
  189MOL0     H24901   2.060  10.763   9.073 -2.1229 -1.3540 -1.2753
  189MOL0     H24902   1.974  10.531   8.804  2.1079 -0.2778  0.3854
  189MOL0     H24903   2.034  10.681   8.720 -0.1956 -2.4423 -2.3686
  189MOL0     H24904   1.918  10.795   8.933 -0.0254 -0.6191  0.3959
  189MOL0     H24905   1.845  10.647   8.970 -3.7367  1.4992 -0.4955
  189MOL0     H24906   1.810  10.831   8.737 -2.4899  1.4041 -0.0958
  189MOL0     H24907   1.734  10.669   8.718 -2.7893  0.9089 -0.0900
  189MOL0     H24908   1.571  10.843   8.812 -0.9845  1.0656  1.2857
  189MOL0     H24909   1.668  10.846   8.960  0.2074 -2.8471  1.4546
  189MOL0     H24910   1.426  10.534   9.022  2.8526  0.5023 -0.6242
  189MOL0     H24911   1.241  10.399   8.931  0.2486 -0.2786  0.3872
  189MOL0     H24912   1.028  10.572   8.354 -0.6253  0.9431  2.1602
  189MOL0     H24913   0.843  10.514   8.182 -2.4934 -1.6944 -1.6929
  189MOL0     H24914   0.550  10.185   8.305  1.3213  1.0550  0.6468
  189MOL0     H24915   0.478  10.230   8.151  1.5841 -0.7708  0.5046
  189MOL0     H24916   0.426  10.460   8.276  1.9325  0.6934  0.0318
  189MOL0     H24917   0.461  10.362   8.422  2.1104  1.7534 -0.5943
  189MOL0     H24918   0.261  10.290   8.203 -1.7491  0.7396  0.4909
  189MOL0     H24919   0.198  10.378   8.348 -0.7185 -0.6976  0.0565
  189MOL0     H24920   0.317  10.106   8.328 -0.5926  1.8170 -2.1735
  189MOL0     H24921   0.320  10.198   8.481  1.3323  0.6155 -1.4126
  189MOL0     H24922   0.076  10.206   8.498  1.6335 -0.2362  1.4998
  189MOL0     H24923   0.119  10.043   8.474 -1.8580 -0.5095 -1.8434
  189MOL0     H24924   0.088  10.067   8.225 -0.0981 -0.0704  0.0056
  189MOL0     H24925   0.027  10.234   8.252  0.6482 -0.9031 -0.4872
  189MOL0     H24926  -0.111   9.989   8.362  1.7732  0.1202 -0.4966
  189MOL0     H24927  -0.168  10.159   8.379 -4.2378 -0.5849 -1.1554
  189MOL0     H24928  -0.175   9.985   8.130 -2.0722 -1.4656  1.2709
  189MOL0     H24929  -0.206  10.146   8.100 -2.8602 -0.0887 -0.8830
  189MOL0     H24930   0.688  10.236   8.471 -1.4174  1.7919 -0.6983
  189MOL0     H24931   0.873  10.301   8.618 -3.4100  2.5028  2.5881
  189MOL0     H24932   1.291  10.619   8.558  0.8505  1.6423  0.3139
  189MOL0     H24933   1.473  10.743   8.665 -2.9376 -0.1953 -4.5490
  189MOL0     H24934   2.297   9.856   9.199  1.2992  1.2147  2.0109
  189MOL0     H24935   2.335   9.706   9.023  0.2470 -0.6559 -0.5176
  189MOL0     H24936   2.449   9.347   8.884  1.5348  0.6957  1.9979
  189MOL0     H24937   2.432   9.218   8.678  0.6568 -0.7434 -2.9985
  189MOL0     H24938   2.432   9.150   8.456  1.1277  0.6173  1.5361
  189MOL0     H24939   2.500   9.019   8.561 -0.8041 -0.4392 -0.8997
  189MOL0     H24940   2.590   9.075   8.284  2.0339  1.5389  2.0215
  189MOL0     H24941   2.635   8.941   8.386  2.1142  0.1704 -1.7424
  189MOL0     H24942   2.358   8.997   8.262  0.4742  1.4075  2.2289
  189MOL0     H24943   2.388   8.850   8.354  1.4355 -4.1936 -1.7903
  189MOL0     H24944   2.537   8.920   8.095  0.5478 -0.3096  1.0507
  189MOL0     H24945   2.532   8.765   8.181 -1.3685 -1.3454 -0.8458
  189MOL0     H24946   2.166   8.738   7.976  0.4219 -1.2740 -0.7723
  189MOL0     H24947   2.842   9.287   8.588 -2.2706  0.5801 -2.4730
  189MOL0     H24948   2.867   9.390   8.809  0.6373  0.1832  0.9400
  190MOL0     O24949   9.817   7.652   8.048  0.2641 -0.5539 -0.0969
  190MOL0     C24950   9.928   7.621   8.009 -0.2787  0.3279  0.1045
  190MOL0     O24951   9.952   7.534   7.903 -0.6864 -1.3532 -0.2579
  190MOL0     C24952   9.847   7.489   7.826 -0.1024 -0.5305  0.6974
  190MOL0     C24953   9.768   7.590   7.760 -0.2660  0.4623  0.7362
  190MOL0     C24954   9.672   7.557   7.666  0.3626  0.1086 -0.3382
  190MOL0     C24955   9.652   7.423   7.641 -0.6884  0.4286 -0.5511
  190MOL0     O24956   9.547   7.378   7.556 -0.7215 -0.3313 -0.4084
  190MOL0     C24957   9.553   7.452   7.428 -0.5676  0.7457  0.0745
  190MOL0     C24958   9.479   7.359   7.332  0.8814 -0.6305  0.1131
  190MOL0     C24959   9.327   7.387   7.321  0.6282  0.6366 -0.4448
  190MOL0     C24960   9.273   7.487   7.219 -0.2988  0.5652 -0.0317
  190MOL0     C24961   9.126   7.528   7.249 -0.4286 -0.2376  0.1303
  190MOL0     C24962   9.082   7.604   7.125  0.5652 -1.2179 -0.3346
  190MOL0     C24963   8.986   7.726   7.137 -0.1259  0.8653 -0.1547
  190MOL0     C24964   8.867   7.703   7.238  0.5128  0.3194  0.2632
  190MOL0     N24965   8.798   7.578   7.190  0.1445 -0.3066 -0.1578
  190MOL0     C24966   8.730   7.563   7.073  0.2326  0.8938  0.7501
  190MOL0     C24967   8.662   7.445   7.090 -0.4340 -0.1158  0.6559
  190MOL0     C24968   8.569   7.375   6.993  0.9700  0.6773 -0.0350
  190MOL0     C24969   8.450   7.473   6.982 -0.0514  1.1749 -0.7016
  190MOL0     C24970   8.358   7.417   6.870 -0.5303  0.1987 -0.8703
  190MOL0     C24971   8.254   7.523   6.840  0.2274 -0.0148  0.7180
  190MOL0     O24972   8.181   7.540   6.959  0.7297 -0.1927 -1.0527
  190MOL0     C24973   8.077   7.636   6.964 -0.7026 -0.3987  0.6504
  190MOL0     C24974   8.016   7.656   7.086 -0.8786  0.2122  0.3707
  190MOL0     C24975   7.924   7.761   7.107 -0.6049  1.0579 -0.3586
  190MOL0     C24976   7.881   7.833   6.989  0.2346  0.5314  1.0278
  190MOL0     C24977   7.774   7.940   6.997 -0.3505 -0.5640  0.4657
  190MOL0     O24978   7.725   8.005   6.882  0.8919  0.0038 -0.5225
  190MOL0     C24979   7.632   8.118   6.905  0.4941  0.3002 -1.1289
  190MOL0     C24980   7.665   8.229   6.818  0.2862  0.0753 -0.4380
  190MOL0     C24981   7.580   8.343   6.828 -0.8305 -0.3626  0.4567
  190MOL0     C24982   7.465   8.338   6.905  0.5239 -0.0996 -0.6154
  190MOL0     O24983   7.376   8.437   6.912 -0.0554 -0.6114  0.0089
  190MOL0     C24984   7.353   8.529   6.811 -0.2965  0.1923 -0.0212
  190MOL0     C24985   7.205   8.573   6.816  0.3441 -0.2074  0.4588
  190MOL0     C24986   7.104   8.460   6.788 -0.7749  0.4318 -0.6534
  190MOL0     C24987   7.000   8.484   6.679  0.8485 -1.4166 -0.6382
  190MOL0     C24988   6.957   8.356   6.609 -0.3219  0.6350  0.9106
  190MOL0     C24989   6.835   8.381   6.520 -0.4518 -0.1087  0.1662
  190MOL0     C24990   6.853   8.484   6.403  0.4915 -0.0237  0.4906
  190MOL0     C24991   6.966   8.445   6.305 -0.1784 -0.7872 -0.5491
  190MOL0    Cl24992   6.968   8.585   6.189 -0.0415 -0.0457 -0.3530
  190MOL0     C24993   7.440   8.239   6.995 -0.0436  1.1970  0.8828
  190MOL0     C24994   7.519   8.123   6.982 -0.5988  0.9103  0.0739
  190MOL0     O24995   7.716   7.947   7.107 -0.4840 -0.7922  0.3644
  190MOL0     C24996   7.954   7.805   6.872 -0.3937  0.1701 -0.1290
  190MOL0     C24997   8.038   7.709   6.852  0.2269  0.7058  0.3782
  190MOL0     N24998   8.708   7.388   7.206 -0.2074 -0.4839 -0.1795
  190MOL0     N24999   8.784   7.469   7.261 -0.2535 -0.1482 -0.0048
  190MOL0     C25000   9.737   7.327   7.689  0.6166 -0.2901  1.0692
  190MOL0     C25001   9.834   7.359   7.784 -1.3454 -0.7719 -0.1577
  190MOL0     C25002  10.039   7.687   8.080  0.4376 -0.0745 -0.6375
  190MOL0     C25003  10.011   7.787   8.177  0.3592  0.0055  1.1110
  190MOL0     C25004  10.107   7.869   8.229 -0.1626  0.4406 -0.1688
  190MOL0     C25005  10.243   7.850   8.190  0.8955  0.0173  0.9066
  190MOL0     O25006  10.339   7.920   8.252  0.1376 -0.0749  0.7965
  190MOL0     C25007  10.474   7.927   8.199  0.0112 -0.1874 -0.4822
  190MOL0     C25008  10.557   8.042   8.256 -0.6558  0.1540  0.2916
  190MOL0     C25009  10.701   8.041   8.189  0.6968 -0.3733 -0.0488
  190MOL0     C25010  10.768   7.908   8.204  0.2715  0.4429 -0.2688
  190MOL0     C25011  10.917   7.917   8.192 -0.0462 -0.1932 -0.5309
  190MOL0     C25012  11.043   7.917   8.188 -0.1004 -0.1460 -0.0812
  190MOL0     C25013  10.277   7.748   8.099 -0.5181  0.4570  1.0122
  190MOL0     C25014  10.174   7.671   8.042 -0.9272  0.2810  0.5407
  190MOL0     H25015   9.777   7.697   7.776 -1.5176  0.6321  0.3909
  190MOL0     H25016   9.612   7.642   7.636  0.2655  1.4193  3.0525
  190MOL0     H25017   9.653   7.445   7.385 -1.5972 -1.7140 -2.2266
  190MOL0     H25018   9.521   7.556   7.419 -0.9599  0.6468  0.2658
  190MOL0     H25019   9.506   7.255   7.353 -1.0018 -1.0730  0.5499
  190MOL0     H25020   9.521   7.375   7.232  3.7524  2.4701  1.6109
  190MOL0     H25021   9.294   7.427   7.417 -0.8539 -1.1171 -0.1659
  190MOL0     H25022   9.267   7.301   7.288  0.0303 -0.3333  2.8491
  190MOL0     H25023   9.336   7.576   7.219  0.3531  0.1342 -1.5842
  190MOL0     H25024   9.287   7.439   7.122  1.5578 -1.2984  1.0545
  190MOL0     H25025   9.136   7.583   7.343  1.7587  2.4351 -1.5166
  190MOL0     H25026   9.061   7.443   7.271 -1.3800  0.5704  0.5043
  190MOL0     H25027   9.046   7.531   7.052 -0.0262 -1.7082  0.4413
  190MOL0     H25028   9.165   7.655   7.075 -2.0655  1.7569 -2.0517
  190MOL0     H25029   9.042   7.808   7.183 -2.4748  1.5845  1.6484
  190MOL0     H25030   8.950   7.747   7.036  0.6619  0.9037 -0.4316
  190MOL0     H25031   8.798   7.788   7.230 -2.4100 -2.0724 -5.2371
  190MOL0     H25032   8.900   7.685   7.341  3.0067 -1.2861 -0.7307
  190MOL0     H25033   8.727   7.636   6.993  4.3992  1.1612  0.6116
  190MOL0     H25034   8.542   7.277   7.032 -0.3389  1.9434  2.5587
  190MOL0     H25035   8.620   7.368   6.897  1.1496  2.2677 -0.0901
  190MOL0     H25036   8.491   7.571   6.958 -0.4934  1.5638  0.0776
  190MOL0     H25037   8.387   7.471   7.071  0.3950  1.3795 -0.3831
  190MOL0     H25038   8.417   7.399   6.779 -0.6728 -1.1653 -0.7144
  190MOL0     H25039   8.304   7.326   6.896 -2.2447  2.1071  3.0862
  190MOL0     H25040   8.187   7.483   6.764 -1.2329 -0.9723  2.4352
  190MOL0     H25041   8.301   7.618   6.814 -0.2816 -0.5537 -2.5127
  190MOL0     H25042   8.062   7.594   7.162  2.3848  3.2187  1.1275
  190MOL0     H25043   7.869   7.780   7.198 -0.6796 -1.6544  0.2616
  190MOL0     H25044   7.748   8.218   6.748  1.3117 -2.3012  1.0100
  190MOL0     H25045   7.597   8.427   6.760 -3.4594 -2.1196 -2.6691
  190MOL0     H25046   7.366   8.479   6.715 -2.3957 -1.6800  0.6040
  190MOL0     H25047   7.424   8.613   6.814 -1.5246  1.2583  0.1226
  190MOL0     H25048   7.185   8.652   6.743 -1.8110 -1.8728 -0.8752
  190MOL0     H25049   7.181   8.594   6.921  0.2355 -2.7836  1.0044
  190MOL0     H25050   7.062   8.429   6.884  2.2770 -1.1761  0.3105
  190MOL0     H25051   7.153   8.367   6.758  0.6537  1.1383 -0.5713
  190MOL0     H25052   6.914   8.532   6.727  0.6027 -0.4936 -1.9467
  190MOL0     H25053   7.039   8.556   6.606 -1.9805  0.6126 -0.3070
  190MOL0     H25054   6.930   8.279   6.682  0.2670 -0.9225 -0.4606
  190MOL0     H25055   7.045   8.326   6.551 -0.3444  3.5560 -0.8274
  190MOL0     H25056   6.747   8.407   6.580 -1.2300 -0.5651 -0.7426
  190MOL0     H25057   6.806   8.281   6.485 -1.9323 -0.1710  1.4622
  190MOL0     H25058   6.762   8.484   6.342  0.1034 -1.3460  1.0338
  190MOL0     H25059   6.863   8.587   6.438 -1.8181  0.7014 -0.7878
  190MOL0     H25060   6.936   8.349   6.263  2.0013 -2.4727  1.5091
  190MOL0     H25061   7.057   8.436   6.364 -0.3951 -0.0673 -0.0840
  190MOL0     H25062   7.351   8.248   7.058 -1.9224  1.2024 -1.6327
  190MOL0     H25063   7.495   8.036   7.044  1.5573  1.0152  1.1305
  190MOL0     H25064   7.935   7.868   6.786  2.6834  2.3226  0.6448
  190MOL0     H25065   8.082   7.699   6.753 -0.9006  1.1544 -0.1821
  190MOL0     H25066   9.728   7.225   7.654  2.3006  0.1678 -0.9150
  190MOL0     H25067   9.894   7.283   7.833 -0.2371  0.0929 -0.1351
  190MOL0     H25068   9.909   7.819   8.197  0.2581 -1.6629  3.7447
  190MOL0     H25069  10.073   7.956   8.284 -0.4424 -1.0538  2.1199
  190MOL0     H25070  10.471   7.937   8.090  1.5027  0.1479 -0.5106
  190MOL0     H25071  10.519   7.829   8.220 -2.0575 -0.8664  1.1140
  190MOL0     H25072  10.499   8.131   8.229  0.5869  0.1661 -2.7586
  190MOL0     H25073  10.564   8.030   8.365 -2.6982  1.5373  0.6391
  190MOL0     H25074  10.761   8.103   8.256 -1.9911 -0.1433  2.3832
  190MOL0     H25075  10.694   8.066   8.083 -1.0108 -0.6937 -0.0438
  190MOL0     H25076  10.745   7.854   8.297  1.1956 -2.0267 -1.3746
  190MOL0     H25077  10.730   7.846   8.123  0.7288  0.0651 -0.2045
  190MOL0     H25078  11.149   7.928   8.198  0.0597 -0.5058 -1.1649
  190MOL0     H25079  10.379   7.720   8.075 -1.0373 -0.7688  0.1227
  190MOL0     H25080  10.213   7.604   7.966 -0.9258  0.9343 -0.0432
  191MOL0     O25081  10.906   3.505   0.259 -0.6424 -0.5515 -0.2041
  191MOL0     C25082  10.899   3.570   0.362 -0.1935 -0.2578  0.7294
  191MOL0     O25083  10.980   3.560   0.469 -0.1461 -0.4582 -0.0185
  191MOL0     C25084  11.094   3.479   0.461  0.6315 -0.0804  0.2644
  191MOL0     C25085  11.112   3.375   0.551  0.6248  1.1463  0.1752
  191MOL0     C25086  11.216   3.287   0.538  0.2220 -0.5979 -0.1274
  191MOL0     C25087  11.326   3.315   0.454  0.9979 -0.4336 -0.3354
  191MOL0     O25088  11.436   3.244   0.461  0.5613 -0.3339 -0.2089
  191MOL0     C25089  11.423   3.106   0.423  0.8005 -0.1989 -0.1807
  191MOL0     C25090  11.564   3.044   0.428  0.8921 -1.4820 -0.5723
  191MOL0     C25091  11.555   2.904   0.373 -1.4614  0.2755  0.7181
  191MOL0     C25092  11.693   2.833   0.374  0.1331 -0.3789 -0.3175
  191MOL0     C25093  11.681   2.690   0.305 -1.1677 -0.4146  0.0423
  191MOL0     C25094  11.814   2.627   0.266 -0.5415  0.6996  0.2337
  191MOL0     C25095  11.811   2.483   0.196 -0.1964  0.3338  1.2529
  191MOL0     C25096  11.947   2.448   0.118 -0.5468  0.2579 -0.3180
  191MOL0     N25097  11.957   2.301   0.099 -0.3569 -0.3458  0.6098
  191MOL0     C25098  11.901   2.232  -0.010  0.5017 -0.0330 -0.0640
  191MOL0     C25099  11.946   2.104   0.010  0.2039 -0.4364  0.8283
  191MOL0     C25100  11.905   1.985  -0.079 -0.8101  0.6904 -0.2251
  191MOL0     C25101  12.029   1.902  -0.110 -0.2069  1.0358 -0.3085
  191MOL0     C25102  11.996   1.759  -0.168 -0.2940  0.1399 -0.6081
  191MOL0     C25103  11.948   1.771  -0.312 -0.1952 -0.7207  0.1441
  191MOL0     O25104  11.937   1.636  -0.345 -0.0135  0.1215 -0.4383
  191MOL0     C25105  11.899   1.587  -0.468 -0.4693 -0.5425 -0.4282
  191MOL0     C25106  11.864   1.678  -0.565  0.2043 -0.5716  0.1090
  191MOL0     C25107  11.831   1.633  -0.691 -0.5786 -0.1861  1.0774
  191MOL0     C25108  11.829   1.492  -0.718 -0.3545 -0.0616 -0.7119
  191MOL0     C25109  11.764   1.438  -0.844  0.8347  0.5789  0.2969
  191MOL0     O25110  11.779   1.302  -0.867 -0.2745 -0.3472  0.3288
  191MOL0     C25111  11.734   1.259  -0.991 -0.1072 -0.6357 -0.6542
  191MOL0     C25112  11.605   1.256  -1.035  0.2774  0.3754 -0.9022
  191MOL0     C25113  11.576   1.192  -1.151  0.2293  0.4834 -0.3322
  191MOL0     C25114  11.683   1.144  -1.227  1.0756 -0.2013  0.9898
  191MOL0     O25115  11.644   1.071  -1.338 -0.1123  1.2350  0.1875
  191MOL0     C25116  11.730   1.075  -1.449  0.0248  0.5032 -0.2843
  191MOL0     C25117  11.648   1.056  -1.568  0.5958 -0.7879 -0.6494
  191MOL0     C25118  11.536   1.160  -1.587 -0.2454  0.2689  0.5230
  191MOL0     C25119  11.469   1.136  -1.726 -0.5385  0.1068 -0.9149
  191MOL0     C25120  11.415   1.266  -1.797  1.5146 -0.0182 -0.4808
  191MOL0     C25121  11.509   1.376  -1.845  0.1186  1.1107 -0.0853
  191MOL0     C25122  11.580   1.338  -1.970 -0.1698  0.3156 -0.5438
  191MOL0     C25123  11.634   1.453  -2.066 -0.7851  1.0032 -0.0453
  191MOL0    Cl25124  11.748   1.413  -2.193  0.3034 -0.3273 -0.1053
  191MOL0     C25125  11.811   1.170  -1.194 -0.4436  0.1738  0.6791
  191MOL0     C25126  11.835   1.218  -1.070  0.0928 -0.5158  0.2951
  191MOL0     O25127  11.711   1.525  -0.919 -0.3993  0.9112 -0.3137
  191MOL0     C25128  11.870   1.410  -0.618 -0.4813 -0.2784 -0.1437
  191MOL0     C25129  11.906   1.450  -0.488  0.5241 -0.4870 -0.4749
  191MOL0     N25130  12.020   2.099   0.120 -0.7131 -0.1093 -0.1008
  191MOL0     N25131  12.025   2.211   0.175  0.1348 -0.0744  0.0705
  191MOL0     C25132  11.312   3.426   0.364 -0.4409 -0.5835  0.2106
  191MOL0     C25133  11.196   3.499   0.366  0.2600 -1.0417 -0.0398
  191MOL0     C25134  10.772   3.636   0.378  1.1421 -0.4307 -0.2899
  191MOL0     C25135  10.719   3.666   0.507 -0.4695  0.5589  0.5542
  191MOL0     C25136  10.596   3.734   0.505 -0.3058 -0.4022 -0.1161
  191MOL0     C25137  10.511   3.768   0.398 -0.5532 -0.3672  0.5295
  191MOL0     O25138  10.401   3.828   0.434  0.3157 -0.6527  0.3731
  191MOL0     C25139  10.285   3.855   0.347  0.1478  0.2409  0.3370
  191MOL0     C25140  10.165   3.760   0.354  0.0455  0.0721 -0.1676
  191MOL0     C25141  10.119   3.756   0.503  0.6976  0.0072  0.5775
  191MOL0     C25142   9.989   3.690   0.518 -0.7993 -0.8619 -1.0669
  191MOL0     C25143   9.951   3.717   0.657 -0.0920 -0.8039  0.0968
  191MOL0     C25144   9.954   3.738   0.774 -0.0227  1.0261 -0.7590
  191MOL0     C25145  10.569   3.754   0.272 -0.5536 -0.1586  0.1156
  191MOL0     C25146  10.692   3.679   0.267  0.3944  0.2122  0.5151
  191MOL0     H25147  11.037   3.356   0.626  2.0658 -0.9478  1.1911
  191MOL0     H25148  11.220   3.204   0.608  0.1394 -1.2251 -0.8563
  191MOL0     H25149  11.377   3.088   0.325 -1.6753  0.2409  0.8405
  191MOL0     H25150  11.366   3.046   0.494  0.2731  1.4225  0.8166
  191MOL0     H25151  11.604   3.035   0.529 -1.6852 -1.5842  0.5383
  191MOL0     H25152  11.631   3.115   0.378  0.4442  2.1857  3.4020
  191MOL0     H25153  11.524   2.916   0.268  1.9380  1.6320 -0.2570
  191MOL0     H25154  11.479   2.838   0.416 -1.2899 -0.9639 -0.7989
  191MOL0     H25155  11.766   2.908   0.342 -2.5376  3.4796  1.7500
  191MOL0     H25156  11.713   2.830   0.481 -0.1102  2.0725 -0.1450
  191MOL0     H25157  11.627   2.710   0.212 -3.3755  0.0226  1.3362
  191MOL0     H25158  11.626   2.632   0.379  0.8674  0.4155  2.3448
  191MOL0     H25159  11.865   2.632   0.363 -1.7020  1.0160  0.8522
  191MOL0     H25160  11.861   2.703   0.204  0.6746  1.2012  1.7071
  191MOL0     H25161  11.797   2.404   0.270 -1.2243 -4.3193 -3.3196
  191MOL0     H25162  11.729   2.481   0.124  0.6187  3.2365  0.1164
  191MOL0     H25163  12.034   2.478   0.177  4.2526 -1.9800 -5.2858
  191MOL0     H25164  11.960   2.497   0.021  0.1634  4.0142  1.4825
  191MOL0     H25165  11.834   2.268  -0.087 -0.9220  1.4793  1.7882
  191MOL0     H25166  11.870   2.024  -0.175 -0.2156 -2.6363 -1.9594
  191MOL0     H25167  11.824   1.923  -0.040  1.4057 -2.6033 -0.4488
  191MOL0     H25168  12.085   1.883  -0.018  0.3930 -0.6648 -0.9901
  191MOL0     H25169  12.094   1.957  -0.179 -0.1856  1.3052 -0.0756
  191MOL0     H25170  12.083   1.693  -0.159 -0.0178  0.5581 -0.1192
  191MOL0     H25171  11.919   1.703  -0.114 -1.3561 -2.7944 -4.6829
  191MOL0     H25172  12.016   1.831  -0.372  1.0904 -3.4153 -1.3019
  191MOL0     H25173  11.847   1.812  -0.300  0.8175  1.7656  0.7296
  191MOL0     H25174  11.855   1.783  -0.536  0.9110 -0.8213  1.2725
  191MOL0     H25175  11.784   1.690  -0.770  0.9574 -2.6801 -1.8474
  191MOL0     H25176  11.531   1.282  -0.960 -1.8857 -1.3403 -2.3155
  191MOL0     H25177  11.476   1.178  -1.190 -0.0899  0.3617  0.5106
  191MOL0     H25178  11.802   0.993  -1.458  0.6544  0.8003  1.6774
  191MOL0     H25179  11.774   1.174  -1.464 -1.3664  1.6057  2.3171
  191MOL0     H25180  11.610   0.953  -1.569  3.2378 -1.8633  0.3052
  191MOL0     H25181  11.708   1.064  -1.659 -2.7442  0.5522 -2.9413
  191MOL0     H25182  11.566   1.265  -1.584 -2.0669  0.8650 -0.5177
  191MOL0     H25183  11.465   1.132  -1.509 -1.6696  0.7465 -0.5644
  191MOL0     H25184  11.549   1.099  -1.791  0.2906  0.5946 -0.1952
  191MOL0     H25185  11.394   1.057  -1.719 -2.1088  1.6948  1.9575
  191MOL0     H25186  11.362   1.327  -1.724  1.6240 -1.0133  0.4622
  191MOL0     H25187  11.352   1.237  -1.882 -3.2462 -0.6706  2.9058
  191MOL0     H25188  11.577   1.385  -1.760 -1.6090  2.0126  1.2638
  191MOL0     H25189  11.455   1.469  -1.864  0.3658  1.0442 -1.1554
  191MOL0     H25190  11.663   1.272  -1.943  0.9233  1.5946 -0.6970
  191MOL0     H25191  11.509   1.275  -2.025  1.2515 -2.6430  0.7528
  191MOL0     H25192  11.671   1.538  -2.008 -0.2046 -0.6613  2.1410
  191MOL0     H25193  11.540   1.491  -2.107 -3.0263 -0.9416  2.8583
  191MOL0     H25194  11.887   1.131  -1.261 -0.1617 -0.1766  1.1988
  191MOL0     H25195  11.937   1.214  -1.032 -0.2185  1.7488  1.5311
  191MOL0     H25196  11.855   1.302  -0.622  0.8637 -0.6266  2.2040
  191MOL0     H25197  11.925   1.372  -0.415  0.5030 -1.4877 -1.5116
  191MOL0     H25198  11.392   3.454   0.296 -1.8518 -0.7874 -1.5982
  191MOL0     H25199  11.203   3.582   0.297 -1.3242 -0.6443  0.2272
  191MOL0     H25200  10.770   3.647   0.601 -2.2189 -1.6492  1.1234
  191MOL0     H25201  10.553   3.759   0.602  0.3692 -0.8377  0.3101
  191MOL0     H25202  10.324   3.859   0.245 -1.6787  0.0356 -0.4076
  191MOL0     H25203  10.248   3.951   0.386  0.7773  1.1454 -1.1798
  191MOL0     H25204  10.087   3.791   0.284 -0.6228 -0.1502  0.4697
  191MOL0     H25205  10.194   3.658   0.327 -1.6104 -1.5574  3.5002
  191MOL0     H25206  10.115   3.859   0.540  1.5653 -0.1114  1.0095
  191MOL0     H25207  10.196   3.699   0.555  0.8139 -2.1080 -1.7012
  191MOL0     H25208   9.914   3.738   0.454 -1.2766 -0.1905 -0.0501
  191MOL0     H25209   9.996   3.581   0.510 -0.1006 -0.7867 -1.5152
  191MOL0     H25210   9.961   3.736   0.881 -4.1304 -0.7391 -0.3392
  191MOL0     H25211  10.531   3.805   0.184  4.6081  0.6449 -2.0182
  191MOL0     H25212  10.731   3.655   0.168  0.7689  2.0303  0.1826
  192MOL0     O25213   7.229  11.276   4.772  0.9518 -0.7427 -0.3658
  192MOL0     C25214   7.238  11.174   4.705 -0.1117 -0.3834 -0.4083
  192MOL0     O25215   7.147  11.140   4.619  0.2132 -0.5771 -0.0820
  192MOL0     C25216   7.024  11.198   4.599 -0.0812 -0.3900 -0.3714
  192MOL0     C25217   6.936  11.104   4.541  0.2713  0.1463 -0.3580
  192MOL0     C25218   6.807  11.139   4.523  0.3280 -0.3262  0.2897
  192MOL0     C25219   6.761  11.265   4.545  0.6621  0.5349 -0.8122
  192MOL0     O25220   6.634  11.315   4.538  1.0207 -0.3718  0.8068
  192MOL0     C25221   6.548  11.289   4.424  0.1132  0.8640 -0.2018
  192MOL0     C25222   6.396  11.333   4.445 -0.3453  0.5055 -0.1686
  192MOL0     C25223   6.355  11.428   4.346 -0.0766 -2.0120 -0.4655
  192MOL0     C25224   6.210  11.461   4.397  0.0433  0.0286  0.4072
  192MOL0     C25225   6.162  11.577   4.308  0.0268  0.0038  0.0256
  192MOL0     C25226   6.014  11.600   4.326  0.5831 -0.9021 -0.0673
  192MOL0     C25227   5.971  11.706   4.223  0.0121  0.5025 -1.4078
  192MOL0     C25228   6.027  11.845   4.267 -0.5292  0.1000  0.4315
  192MOL0     N25229   5.945  11.957   4.235  0.0178 -0.4983 -0.7758
  192MOL0     C25230   5.924  11.992   4.104 -0.2706 -0.1649 -0.4164
  192MOL0     C25231   5.859  12.115   4.117  0.9764 -1.0140 -0.1136
  192MOL0     C25232   5.789  12.184   4.010 -0.5685 -1.1564 -0.5566
  192MOL0     C25233   5.801  12.339   4.020  0.1567 -0.1898  0.5132
  192MOL0     C25234   5.944  12.397   3.991 -0.6472 -0.4354  0.3906
  192MOL0     C25235   5.983  12.397   3.836  0.0487 -0.2243 -1.3207
  192MOL0     O25236   5.884  12.467   3.757 -0.1586  0.5246  1.0264
  192MOL0     C25237   5.885  12.606   3.757  0.5264 -0.6342  0.7445
  192MOL0     C25238   5.779  12.664   3.696  0.4864  0.1859 -0.0725
  192MOL0     C25239   5.772  12.808   3.683  0.2753 -0.0179  0.8178
  192MOL0     C25240   5.867  12.901   3.740 -0.0776  0.5602 -0.3637
  192MOL0     C25241   5.863  13.051   3.715  0.7739  0.1029 -0.2031
  192MOL0     O25242   5.918  13.128   3.808 -0.2823  0.1444 -0.4893
  192MOL0     C25243   5.936  13.264   3.781  0.6239 -0.4101  0.1291
  192MOL0     C25244   5.839  13.341   3.721 -0.3492 -0.2828  1.0714
  192MOL0     C25245   5.854  13.474   3.704  0.0600  0.0003  0.1387
  192MOL0     C25246   5.975  13.544   3.725  0.8745 -0.2650 -0.6719
  192MOL0     O25247   6.009  13.669   3.694 -0.0552  1.1009  0.1392
  192MOL0     C25248   5.903  13.764   3.692 -0.7392  0.5285 -0.0432
  192MOL0     C25249   5.943  13.910   3.685  0.0726  0.5971  0.4529
  192MOL0     C25250   6.074  13.934   3.618  0.2516 -0.4737  0.9326
  192MOL0     C25251   6.087  13.908   3.467 -0.3075  0.0285 -0.5752
  192MOL0     C25252   6.229  13.939   3.414 -0.4218 -0.7178  0.3492
  192MOL0     C25253   6.221  13.975   3.258  0.3417  0.6173  0.8710
  192MOL0     C25254   6.332  13.905   3.183  0.2167 -0.5537 -0.3116
  192MOL0     C25255   6.320  13.936   3.039  1.1216 -0.1577 -0.3864
  192MOL0    Cl25256   6.485  13.903   2.968  0.1231 -0.0864 -0.7907
  192MOL0     C25257   6.078  13.465   3.780  0.5301 -0.4455 -0.1229
  192MOL0     C25258   6.058  13.336   3.812  0.7722  0.8498  0.6267
  192MOL0     O25259   5.850  13.084   3.597  0.5057  0.1122  0.3145
  192MOL0     C25260   5.975  12.834   3.805 -0.6124  0.1075  0.0277
  192MOL0     C25261   5.983  12.696   3.807 -0.3337  0.1091 -0.0879
  192MOL0     N25262   5.842  12.145   4.253 -0.7419  0.1318 -0.4902
  192MOL0     N25263   5.898  12.051   4.324 -0.6376  0.1881  0.6363
  192MOL0     C25264   6.842  11.363   4.600 -0.0321 -0.6123  0.4905
  192MOL0     C25265   6.971  11.324   4.633 -0.5880  0.0330  0.3821
  192MOL0     C25266   7.368  11.112   4.685  0.0990  0.0175  0.9693
  192MOL0     C25267   7.475  11.153   4.769  0.2992  0.0164 -0.4643
  192MOL0     C25268   7.604  11.100   4.764  0.2981  0.0708  0.0843
  192MOL0     C25269   7.629  10.988   4.680 -0.1656  0.2575 -0.1890
  192MOL0     O25270   7.750  10.928   4.691 -0.5366  0.8671  0.2657
  192MOL0     C25271   7.765  10.790   4.643 -0.1518  0.6476 -0.3195
  192MOL0     C25272   7.914  10.753   4.639 -0.2898  0.1630  0.5903
  192MOL0     C25273   7.990  10.824   4.532  0.5951 -0.0734  0.5159
  192MOL0     C25274   8.113  10.745   4.497 -0.1271  0.5100 -0.7675
  192MOL0     C25275   8.183  10.779   4.378 -0.5136 -0.8543 -0.5653
  192MOL0     C25276   8.240  10.795   4.272 -0.0409  0.2148  0.6517
  192MOL0     C25277   7.518  10.953   4.594 -0.0317 -0.9551  0.3720
  192MOL0     C25278   7.393  11.007   4.592 -0.3769 -1.1990  0.2525
  192MOL0     H25279   6.981  11.008   4.521 -0.8769 -1.1530  2.7019
  192MOL0     H25280   6.730  11.069   4.493 -1.6827  0.9425  2.2013
  192MOL0     H25281   6.536  11.182   4.405 -4.1018  1.0573  0.4691
  192MOL0     H25282   6.591  11.338   4.336 -2.3288  0.0787 -1.9200
  192MOL0     H25283   6.381  11.363   4.549  0.4425  0.1469  0.0549
  192MOL0     H25284   6.335  11.243   4.429 -0.2725  0.8804 -3.1459
  192MOL0     H25285   6.348  11.396   4.242  0.2564 -1.3340 -0.7017
  192MOL0     H25286   6.429  11.508   4.355 -0.5181 -1.4074 -1.8859
  192MOL0     H25287   6.150  11.374   4.367  2.1321 -1.0440 -0.9310
  192MOL0     H25288   6.202  11.490   4.503  2.2500 -3.2742  1.6441
  192MOL0     H25289   6.186  11.545   4.206  0.0297  0.4255 -0.1085
  192MOL0     H25290   6.207  11.673   4.336  1.4003 -0.8163  0.7056
  192MOL0     H25291   6.006  11.619   4.433 -1.5134  0.1613 -0.3453
  192MOL0     H25292   5.955  11.509   4.308  1.3594 -1.1155 -1.6858
  192MOL0     H25293   5.983  11.676   4.118  0.2099 -1.7269 -0.7872
  192MOL0     H25294   5.865  11.733   4.228 -0.5204 -0.7598 -4.1395
  192MOL0     H25295   6.127  11.869   4.231 -0.9132  1.7530  0.3854
  192MOL0     H25296   6.039  11.829   4.374  0.6484 -1.9760  0.0411
  192MOL0     H25297   5.948  11.936   4.015 -0.0345  2.9620 -2.4820
  192MOL0     H25298   5.686  12.148   4.001 -1.5412  0.8321  1.4592
  192MOL0     H25299   5.827  12.155   3.911 -1.3097  0.0797 -1.2419
  192MOL0     H25300   5.760  12.380   4.113  1.4271  0.3807  0.8550
  192MOL0     H25301   5.733  12.386   3.949  1.2049  2.9946  1.4183
  192MOL0     H25302   5.946  12.495   4.040  0.4071  0.9893 -2.2274
  192MOL0     H25303   6.022  12.339   4.041 -0.2611  1.3238  1.9401
  192MOL0     H25304   5.985  12.289   3.815  2.8476 -1.7120  4.4066
  192MOL0     H25305   6.086  12.434   3.826  0.8269 -1.9857 -0.3829
  192MOL0     H25306   5.705  12.594   3.660  1.7892 -1.8898  1.0990
  192MOL0     H25307   5.707  12.861   3.614  2.3248  0.9142 -0.5211
  192MOL0     H25308   5.744  13.292   3.700 -0.4370 -0.6009  2.1757
  192MOL0     H25309   5.770  13.532   3.668 -1.2642 -1.0722  1.3703
  192MOL0     H25310   5.844  13.749   3.782  0.2586  0.0181  0.5459
  192MOL0     H25311   5.839  13.745   3.605 -3.6986  1.3734  1.8192
  192MOL0     H25312   5.947  13.942   3.789  0.8250 -1.8891  1.2570
  192MOL0     H25313   5.866  13.964   3.629 -1.4734 -3.9109 -2.3622
  192MOL0     H25314   6.137  13.867   3.677  1.0995  2.6370  3.8901
  192MOL0     H25315   6.109  14.033   3.647  1.8430 -2.0895  5.3653
  192MOL0     H25316   6.075  13.802   3.445  1.5715 -0.5430  0.8716
  192MOL0     H25317   6.017  13.980   3.425  2.1119  1.6477 -2.0700
  192MOL0     H25318   6.295  13.853   3.424 -0.4446 -0.8931 -0.8177
  192MOL0     H25319   6.271  14.030   3.458 -2.2450 -0.4743  1.6635
  192MOL0     H25320   6.224  14.082   3.236 -3.6664  0.6667 -0.3129
  192MOL0     H25321   6.125  13.938   3.218 -0.7493  3.8622  0.2047
  192MOL0     H25322   6.429  13.946   3.212 -0.5666 -0.0903  1.8926
  192MOL0     H25323   6.328  13.798   3.205  3.6881 -0.5531  0.9505
  192MOL0     H25324   6.283  14.036   3.017  1.6368 -0.4553 -3.0113
  192MOL0     H25325   6.245  13.866   3.000 -2.1303  2.1826  1.1627
  192MOL0     H25326   6.179  13.498   3.802  0.9097 -0.1983 -2.0249
  192MOL0     H25327   6.134  13.278   3.863 -2.9955 -2.2368  3.4229
  192MOL0     H25328   6.067  12.882   3.836  0.5975 -0.4263 -2.4982
  192MOL0     H25329   6.073  12.644   3.839  0.3463  2.2663  1.7247
  192MOL0     H25330   6.815  11.468   4.609 -0.1019 -0.5411 -0.4408
  192MOL0     H25331   7.040  11.387   4.688 -2.2617  1.1456  1.3072
  192MOL0     H25332   7.458  11.230   4.844 -4.2607 -1.0821 -0.0381
  192MOL0     H25333   7.679  11.133   4.836  1.3906 -0.8475 -0.5931
  192MOL0     H25334   7.734  10.785   4.538 -2.7685  0.3097  0.4067
  192MOL0     H25335   7.702  10.716   4.693  0.1794 -1.3628 -2.6668
  192MOL0     H25336   7.963  10.753   4.737 -0.5438 -0.5855  0.7259
  192MOL0     H25337   7.928  10.650   4.605 -0.6364  0.8222 -1.7141
  192MOL0     H25338   8.026  10.921   4.567  2.5440 -0.5030 -0.1681
  192MOL0     H25339   7.927  10.823   4.443 -0.7725  1.8116  1.4007
  192MOL0     H25340   8.181  10.752   4.582 -1.0717 -0.0500  0.0654
  192MOL0     H25341   8.087  10.639   4.484 -1.7515  0.9977 -1.8777
  192MOL0     H25342   8.273  10.813   4.172  1.3715 -0.0371  1.0484
  192MOL0     H25343   7.533  10.878   4.517  2.2338  1.3754 -1.6697
  192MOL0     H25344   7.313  10.968   4.531 -0.0457 -0.3799 -0.7216
  193MOL0     O25345   1.409   1.614  10.313 -0.1450  0.4984  0.4319
  193MOL0     C25346   1.370   1.504  10.277 -0.5402 -0.7221 -0.2122
  193MOL0     O25347   1.443   1.390  10.281  0.0162 -0.1637 -0.5247
  193MOL0     C25348   1.554   1.366  10.358  1.3165  1.0185  0.3902
  193MOL0     C25349   1.656   1.449  10.386  0.4648 -0.6533  0.2737
  193MOL0     C25350   1.771   1.412  10.454  0.4221 -0.0167  1.0776
  193MOL0     C25351   1.778   1.283  10.511 -0.1674  0.0625  0.3005
  193MOL0     O25352   1.892   1.232  10.572  0.4538  0.1620  0.1269
  193MOL0     C25353   2.023   1.289  10.536 -1.1950  0.5608  0.0491
  193MOL0     C25354   2.117   1.223  10.630  0.0143 -0.6006 -1.1791
  193MOL0     C25355   2.262   1.247  10.582 -0.2308 -0.7512 -0.6218
  193MOL0     C25356   2.313   1.392  10.596 -0.5363  0.4809  0.0809
  193MOL0     C25357   2.464   1.411  10.618 -0.6726  0.0886  0.3997
  193MOL0     C25358   2.516   1.374  10.762  0.1903  0.6396  0.6770
  193MOL0     C25359   2.660   1.385  10.782 -0.2043  0.2536 -1.0199
  193MOL0     C25360   2.705   1.364  10.927  0.2664 -0.2291  0.0495
  193MOL0     N25361   2.839   1.406  10.932  0.0689  0.2382 -0.3839
  193MOL0     C25362   2.896   1.514  11.010 -0.0216  0.1876 -0.1717
  193MOL0     C25363   3.021   1.534  10.955 -0.2753  0.5625  0.7774
  193MOL0     C25364   3.095   1.661  10.969 -0.6809 -0.7446  0.0919
  193MOL0     C25365   3.168   1.675  11.108 -0.0578  0.0780  0.3893
  193MOL0     C25366   3.292   1.582  11.114 -0.2268 -0.7717 -0.5908
  193MOL0     C25367   3.376   1.610  11.244  0.2531 -0.3667  0.5832
  193MOL0     O25368   3.507   1.550  11.226 -0.3567  0.0071 -0.2515
  193MOL0     C25369   3.605   1.628  11.167  0.0560 -0.5424  0.0057
  193MOL0     C25370   3.728   1.564  11.140  0.6619  0.9185 -0.2709
  193MOL0     C25371   3.836   1.624  11.065  0.0269  0.3903  0.2954
  193MOL0     C25372   3.827   1.762  11.033  1.5447  0.0511 -1.0821
  193MOL0     C25373   3.947   1.834  10.986  0.3079 -0.9153 -0.4584
  193MOL0     O25374   3.949   1.975  10.998  0.9390 -0.0133  0.0145
  193MOL0     C25375   4.050   2.055  10.942  0.6154  0.9514 -0.6616
  193MOL0     C25376   4.141   2.126  11.012  0.2284 -0.0588  0.9381
  193MOL0     C25377   4.233   2.204  10.952  0.4208 -0.4246 -0.1946
  193MOL0     C25378   4.236   2.216  10.817 -0.5101  0.7653  0.0646
  193MOL0     O25379   4.333   2.298  10.768 -0.2128  0.0706  0.2865
  193MOL0     C25380   4.293   2.392  10.664 -0.4894  0.0411  0.1929
  193MOL0     C25381   4.369   2.522  10.677 -0.7018  0.2333 -0.4716
  193MOL0     C25382   4.336   2.632  10.581 -1.0766  0.8470 -0.5811
  193MOL0     C25383   4.394   2.762  10.633 -1.2449 -0.5103  1.2543
  193MOL0     C25384   4.396   2.888  10.542 -1.1694 -0.5776  0.2994
  193MOL0     C25385   4.462   2.875  10.406  1.1130  0.2811  0.3852
  193MOL0     C25386   4.619   2.876  10.405  0.7591  0.4641  0.2999
  193MOL0     C25387   4.679   2.807  10.282 -0.3122 -0.1901  0.7000
  193MOL0    Cl25388   4.846   2.873  10.268  0.1978 -0.2845  0.0911
  193MOL0     C25389   4.141   2.145  10.740 -0.2389 -0.9922 -0.5260
  193MOL0     C25390   4.048   2.071  10.802 -0.1198  0.4796 -0.0361
  193MOL0     O25391   4.037   1.770  10.939 -0.6997 -0.0300  0.5486
  193MOL0     C25392   3.710   1.830  11.066 -0.1061 -0.1283  0.5063
  193MOL0     C25393   3.595   1.765  11.122 -0.5396 -0.4476  0.0156
  193MOL0     N25394   3.038   1.448  10.851  0.5352  0.0483 -0.3030
  193MOL0     N25395   2.934   1.370  10.841 -0.0731 -0.4390  0.0752
  193MOL0     C25396   1.671   1.191  10.482 -0.2908 -0.4686  0.2025
  193MOL0     C25397   1.560   1.234  10.409 -0.0260 -0.3947  0.2808
  193MOL0     C25398   1.229   1.499  10.220  0.1267 -1.1467 -0.0014
  193MOL0     C25399   1.160   1.621  10.177 -0.0706  0.5659 -0.1216
  193MOL0     C25400   1.028   1.621  10.132 -0.2168  0.9545  0.8673
  193MOL0     C25401   0.961   1.499  10.116 -0.5472 -0.6742 -0.4338
  193MOL0     O25402   0.828   1.494  10.089  0.0127  0.3144 -0.0987
  193MOL0     C25403   0.750   1.612  10.073  0.1528 -0.4683 -0.2942
  193MOL0     C25404   0.609   1.587  10.136  1.0516 -0.3490 -0.1762
  193MOL0     C25405   0.621   1.556  10.289 -0.2698 -0.2308 -0.2219
  193MOL0     C25406   0.732   1.636  10.375 -1.0905  0.2855 -0.1478
  193MOL0     C25407   0.744   1.593  10.510 -0.5423 -0.0120 -0.2878
  193MOL0     C25408   0.748   1.556  10.628  0.0783  0.2197  1.3233
  193MOL0     C25409   1.030   1.380  10.148  0.7665  0.5701  0.1691
  193MOL0     C25410   1.160   1.377  10.189 -0.4610  0.6394 -0.1651
  193MOL0     H25411   1.643   1.553  10.358  1.8460  0.2497  2.6771
  193MOL0     H25412   1.865   1.466  10.462  0.2583  1.1244 -2.5834
  193MOL0     H25413   2.028   1.399  10.533 -2.3846  0.6041 -1.5709
  193MOL0     H25414   2.046   1.256  10.435  1.4594  1.4900  0.2701
  193MOL0     H25415   2.106   1.114  10.636  1.4032 -0.7173 -0.0656
  193MOL0     H25416   2.110   1.272  10.727  0.8208 -2.8671  0.1062
  193MOL0     H25417   2.277   1.191  10.489 -1.7920 -1.4916 -0.4617
  193MOL0     H25418   2.320   1.189  10.655  1.5321 -0.8869 -2.0564
  193MOL0     H25419   2.282   1.431  10.498 -1.4049 -0.6913 -0.1270
  193MOL0     H25420   2.259   1.441  10.677  0.6286 -1.7102  2.3115
  193MOL0     H25421   2.492   1.512  10.588  0.5819 -0.5312 -0.6299
  193MOL0     H25422   2.512   1.341  10.548 -2.6071 -0.0398 -0.8615
  193MOL0     H25423   2.478   1.275  10.789  2.6649 -1.1265 -1.7954
  193MOL0     H25424   2.461   1.439  10.831 -2.6921  1.5877 -2.2138
  193MOL0     H25425   2.707   1.297  10.737 -0.1834 -0.1933 -0.1311
  193MOL0     H25426   2.702   1.482  10.752  2.5978  0.1045  1.9238
  193MOL0     H25427   2.703   1.257  10.950 -1.3049  0.5742  4.8897
  193MOL0     H25428   2.643   1.419  11.000  0.5280  1.1568 -0.7395
  193MOL0     H25429   2.848   1.574  11.086  1.0892  0.7783  0.0822
  193MOL0     H25430   3.033   1.751  10.962  2.5358  1.6278 -0.2489
  193MOL0     H25431   3.171   1.666  10.890  2.5780 -1.6260  2.9410
  193MOL0     H25432   3.096   1.643  11.184  0.4071 -2.8865 -0.3012
  193MOL0     H25433   3.186   1.782  11.121 -0.6821  0.0431  1.7219
  193MOL0     H25434   3.264   1.476  11.123 -0.0606 -0.6674  2.0931
  193MOL0     H25435   3.349   1.621  11.030 -1.7298  0.9506 -0.8510
  193MOL0     H25436   3.320   1.565  11.326 -1.5285  0.4331 -0.1563
  193MOL0     H25437   3.403   1.714  11.267  0.0867  0.0288 -0.8975
  193MOL0     H25438   3.731   1.460  11.169 -1.0135  0.7673 -0.5537
  193MOL0     H25439   3.927   1.572  11.037  0.8517  0.4411  2.6628
  193MOL0     H25440   4.130   2.134  11.120 -3.4579  1.0129  0.6221
  193MOL0     H25441   4.303   2.262  11.010  0.4462  0.8524 -1.4437
  193MOL0     H25442   4.187   2.419  10.672 -0.4449  0.2304  0.1646
  193MOL0     H25443   4.282   2.353  10.563  4.6640  1.7516 -1.3764
  193MOL0     H25444   4.475   2.495  10.676 -0.4219  0.2593  4.1914
  193MOL0     H25445   4.340   2.542  10.781 -2.1841 -2.9658 -0.1722
  193MOL0     H25446   4.228   2.633  10.569 -0.8573 -1.2172 -4.1621
  193MOL0     H25447   4.369   2.597  10.483 -1.4922  1.2650 -0.8677
  193MOL0     H25448   4.347   2.794  10.727  1.8875 -0.6657  3.0185
  193MOL0     H25449   4.493   2.732  10.669 -0.2651  2.4057  1.1786
  193MOL0     H25450   4.451   2.965  10.596  1.8672  0.0563 -3.2381
  193MOL0     H25451   4.291   2.916  10.533 -2.2384 -3.4994  2.2562
  193MOL0     H25452   4.439   2.969  10.355  0.3533  0.1767  0.5321
  193MOL0     H25453   4.419   2.798  10.342 -0.7358  0.3492  1.4877
  193MOL0     H25454   4.650   2.981  10.395 -1.3338  1.1301  0.2348
  193MOL0     H25455   4.655   2.840  10.502  0.3789 -0.7667 -0.0077
  193MOL0     H25456   4.625   2.833  10.190  0.6999 -0.8128 -0.0873
  193MOL0     H25457   4.685   2.699  10.291  0.9770 -0.2037 -0.1033
  193MOL0     H25458   4.145   2.136  10.632  2.9207 -0.7687 -0.5305
  193MOL0     H25459   3.968   2.039  10.736  1.4992  1.6332 -2.7235
  193MOL0     H25460   3.698   1.934  11.040 -0.2150 -0.4083 -0.6169
  193MOL0     H25461   3.513   1.834  11.139 -1.0301 -1.6348  3.3402
  193MOL0     H25462   1.677   1.090  10.520 -2.1889 -0.7204 -0.0915
  193MOL0     H25463   1.474   1.167  10.410  0.8573 -1.5865  1.7910
  193MOL0     H25464   1.226   1.707  10.184  1.2900 -0.4459 -0.1335
  193MOL0     H25465   0.979   1.714  10.103  0.2734  0.7570 -0.6810
  193MOL0     H25466   0.747   1.632   9.966 -0.6091 -0.4354 -0.2762
  193MOL0     H25467   0.789   1.701  10.123 -1.2262 -0.7823  1.4158
  193MOL0     H25468   0.551   1.677  10.116  2.2254  0.1190 -1.6920
  193MOL0     H25469   0.558   1.512  10.074  0.9672  1.0744 -1.9280
  193MOL0     H25470   0.628   1.447  10.297 -2.8406 -0.5830 -1.6660
  193MOL0     H25471   0.518   1.583  10.318  1.0321  2.1908  2.7662
  193MOL0     H25472   0.833   1.605  10.347 -0.3512  0.5593  1.9808
  193MOL0     H25473   0.724   1.745  10.361 -3.3326  0.4456  1.8346
  193MOL0     H25474   0.743   1.525  10.731  0.1184  0.6735  1.4632
  193MOL0     H25475   0.986   1.281  10.141  1.7069  0.0836  0.9694
  193MOL0     H25476   1.202   1.277  10.187 -0.2424  0.6883  1.2925
  194MOL0     O25477   6.188   3.719   2.861  0.2382  0.2261 -0.6689
  194MOL0     C25478   6.187   3.605   2.826 -0.8861 -0.5599  0.7277
  194MOL0     O25479   6.299   3.542   2.792 -0.3651  0.0398  0.2485
  194MOL0     C25480   6.403   3.621   2.766 -0.2710  0.0847  0.2503
  194MOL0     C25481   6.419   3.710   2.660 -0.2275  0.4907 -0.0871
  194MOL0     C25482   6.542   3.771   2.621  0.3179  0.9217 -0.6608
  194MOL0     C25483   6.652   3.743   2.698 -0.6911  0.1047  0.5160
  194MOL0     O25484   6.774   3.808   2.667 -0.8744  0.4325 -0.7376
  194MOL0     C25485   6.900   3.790   2.739 -0.3269  0.1687 -0.1189
  194MOL0     C25486   7.014   3.827   2.642  0.0831 -0.4416 -0.2697
  194MOL0     C25487   7.138   3.882   2.723  0.2987  0.0558  0.4745
  194MOL0     C25488   7.255   3.904   2.624 -0.4666 -0.4693  0.5767
  194MOL0     C25489   7.379   3.934   2.709  0.6913 -0.1278 -0.0019
  194MOL0     C25490   7.395   4.085   2.723  0.3884  0.9095  0.5481
  194MOL0     C25491   7.480   4.158   2.827 -0.3850  0.1658 -0.2648
  194MOL0     C25492   7.630   4.138   2.790 -0.1008 -0.2110 -0.1875
  194MOL0     N25493   7.711   4.188   2.899  0.2305  0.8283 -0.9254
  194MOL0     C25494   7.741   4.107   3.009  0.1150 -0.3900 -0.3597
  194MOL0     C25495   7.810   4.190   3.092  0.6309 -0.0507  0.3363
  194MOL0     C25496   7.875   4.162   3.226  0.0357  0.0991 -0.3194
  194MOL0     C25497   8.030   4.135   3.202 -0.0989 -0.8009 -0.1767
  194MOL0     C25498   8.106   4.139   3.336  0.4853  0.3557  0.0755
  194MOL0     C25499   8.253   4.121   3.306 -0.4424 -0.1067  0.0975
  194MOL0     O25500   8.323   4.233   3.247 -0.0363 -1.1183 -0.2482
  194MOL0     C25501   8.418   4.306   3.318  0.1085  0.2966  0.1847
  194MOL0     C25502   8.477   4.283   3.442 -0.1613  0.0446  0.3100
  194MOL0     C25503   8.562   4.383   3.487  0.1425 -0.5946 -1.0867
  194MOL0     C25504   8.587   4.502   3.419  0.9343 -0.2537  0.3343
  194MOL0     C25505   8.677   4.613   3.461  0.2573  1.0515  0.2054
  194MOL0     O25506   8.710   4.710   3.372  0.1376 -0.5766 -0.0814
  194MOL0     C25507   8.751   4.841   3.410 -0.1366  0.2997  0.2653
  194MOL0     C25508   8.841   4.907   3.330  0.2072 -0.9124 -0.6648
  194MOL0     C25509   8.903   5.034   3.369 -0.4169  1.2472 -0.1669
  194MOL0     C25510   8.851   5.101   3.485 -0.8819  0.6550  0.0701
  194MOL0     O25511   8.907   5.227   3.505 -0.8383  0.1413  0.0360
  194MOL0     C25512   8.867   5.293   3.617 -1.0323  0.2610 -0.4760
  194MOL0     C25513   8.725   5.352   3.621  0.4380  0.8756  0.3061
  194MOL0     C25514   8.686   5.454   3.506 -0.4898 -0.6149  0.4959
  194MOL0     C25515   8.769   5.582   3.501 -0.1002 -0.0876 -0.6319
  194MOL0     C25516   8.714   5.680   3.397 -0.5061  0.6916  0.9456
  194MOL0     C25517   8.817   5.798   3.375  0.0852  0.6678 -0.5669
  194MOL0     C25518   8.778   5.897   3.259 -0.4957 -0.6356  0.3675
  194MOL0     C25519   8.876   5.923   3.147 -0.6954  0.6052 -0.2136
  194MOL0    Cl25520   8.906   5.766   3.062 -0.7584 -0.2005 -0.0944
  194MOL0     C25521   8.762   5.035   3.569  0.5295 -0.0142  0.0083
  194MOL0     C25522   8.709   4.908   3.527  1.0547 -0.5112  0.3172
  194MOL0     O25523   8.705   4.605   3.579 -0.0356  0.0923 -0.1251
  194MOL0     C25524   8.513   4.524   3.298  0.4079 -0.6578  0.7044
  194MOL0     C25525   8.426   4.429   3.256 -0.0026 -0.2602  0.7629
  194MOL0     N25526   7.814   4.317   3.035  0.7314 -0.0339  0.8500
  194MOL0     N25527   7.753   4.313   2.924  0.1066 -0.4922 -0.4436
  194MOL0     C25528   6.644   3.648   2.802 -0.0496 -0.1959 -0.3193
  194MOL0     C25529   6.521   3.582   2.832 -0.9027 -0.1563 -0.0314
  194MOL0     C25530   6.064   3.525   2.848  0.7849 -0.1817 -0.1770
  194MOL0     C25531   5.944   3.575   2.906 -0.0562 -0.3914  0.4147
  194MOL0     C25532   5.829   3.501   2.897  0.2140  1.3676  0.5207
  194MOL0     C25533   5.822   3.372   2.831 -0.2503 -0.4804 -0.5911
  194MOL0     O25534   5.707   3.292   2.815  0.3844 -0.2212  0.8448
  194MOL0     C25535   5.606   3.324   2.912  0.0274 -0.1768  0.9365
  194MOL0     C25536   5.485   3.233   2.898  0.0447  0.4691  0.0482
  194MOL0     C25537   5.398   3.223   3.025 -1.1640  0.2707  0.2524
  194MOL0     C25538   5.310   3.350   3.051 -0.2810  0.1059  0.4178
  194MOL0     C25539   5.177   3.315   3.009  0.1799  0.6254  0.1506
  194MOL0     C25540   5.067   3.283   2.968 -1.1416  0.1067 -0.2520
  194MOL0     C25541   5.940   3.331   2.766  0.0623  1.3362 -0.0233
  194MOL0     C25542   6.061   3.405   2.779 -0.0555  0.0749  0.3480
  194MOL0     H25543   6.329   3.714   2.600 -2.1057 -4.2018  2.0065
  194MOL0     H25544   6.555   3.827   2.529 -1.2365  3.4514  0.5499
  194MOL0     H25545   6.906   3.686   2.769  0.5049  0.2708  0.0763
  194MOL0     H25546   6.894   3.849   2.831  1.3739 -1.4424  1.0866
  194MOL0     H25547   6.987   3.907   2.572  0.1882  1.7892  2.0814
  194MOL0     H25548   7.042   3.736   2.588 -0.4464  2.0033 -5.1865
  194MOL0     H25549   7.165   3.801   2.792 -0.3086  0.2962  1.0012
  194MOL0     H25550   7.103   3.974   2.770 -1.2107  0.5604 -1.5466
  194MOL0     H25551   7.264   3.804   2.580 -3.6169  0.6437 -3.1656
  194MOL0     H25552   7.238   3.968   2.537  1.6564 -0.8026 -0.1416
  194MOL0     H25553   7.457   3.875   2.660  0.4957  0.3066 -0.8651
  194MOL0     H25554   7.379   3.886   2.807  4.4999 -1.5155 -0.5066
  194MOL0     H25555   7.300   4.138   2.726  1.2060  2.3897  1.9260
  194MOL0     H25556   7.440   4.107   2.626  2.2111  2.4599  1.6825
  194MOL0     H25557   7.465   4.266   2.830 -1.5242  0.0380 -0.6818
  194MOL0     H25558   7.463   4.133   2.932  2.9517 -1.0652  0.0927
  194MOL0     H25559   7.660   4.199   2.704 -0.9298  4.2348  2.3560
  194MOL0     H25560   7.638   4.032   2.764 -1.1721 -0.3799  0.1006
  194MOL0     H25561   7.718   4.002   3.020 -2.7969 -0.0726 -2.2469
  194MOL0     H25562   7.837   4.070   3.272  0.7656 -1.2454 -2.2599
  194MOL0     H25563   7.858   4.248   3.291  0.6372  1.3459 -1.7358
  194MOL0     H25564   8.063   4.213   3.133 -1.6858 -1.0602 -1.2825
  194MOL0     H25565   8.040   4.039   3.151 -1.1921 -0.2264 -1.5480
  194MOL0     H25566   8.083   4.230   3.392 -1.0349 -0.2547  0.4713
  194MOL0     H25567   8.071   4.056   3.398 -3.2471  0.0337 -2.1776
  194MOL0     H25568   8.264   4.033   3.242 -4.1179 -0.3464 -0.4390
  194MOL0     H25569   8.298   4.085   3.399  2.1882 -0.2531 -1.1441
  194MOL0     H25570   8.455   4.181   3.474 -3.8389  0.7954  0.6702
  194MOL0     H25571   8.617   4.361   3.578 -2.5975  1.1438  1.1742
  194MOL0     H25572   8.887   4.865   3.241 -0.3875  2.3779 -2.6918
  194MOL0     H25573   8.991   5.066   3.314 -0.6801 -0.8461 -1.9427
  194MOL0     H25574   8.942   5.372   3.618 -0.9882  0.3536 -3.2577
  194MOL0     H25575   8.884   5.236   3.709  3.2478  1.2171 -0.4711
  194MOL0     H25576   8.703   5.404   3.715 -0.3400 -1.0498  1.2610
  194MOL0     H25577   8.648   5.276   3.603  0.2217  1.4755 -1.5044
  194MOL0     H25578   8.586   5.498   3.512 -0.2527  1.3203 -4.5803
  194MOL0     H25579   8.687   5.402   3.410  0.5319 -0.9602  0.6793
  194MOL0     H25580   8.766   5.636   3.596 -1.3876 -0.9184 -0.1703
  194MOL0     H25581   8.872   5.556   3.472 -0.8348 -1.9187 -1.7783
  194MOL0     H25582   8.610   5.710   3.409 -1.0439  0.3515 -2.0693
  194MOL0     H25583   8.708   5.615   3.309  2.4302 -1.0769  1.9319
  194MOL0     H25584   8.912   5.749   3.350 -1.3847 -2.0736 -1.1715
  194MOL0     H25585   8.831   5.847   3.471 -0.1528 -0.3050 -0.0181
  194MOL0     H25586   8.692   5.858   3.204  0.3078 -2.1581  0.1517
  194MOL0     H25587   8.751   5.993   3.306  0.8856 -1.1663  2.3680
  194MOL0     H25588   8.974   5.958   3.179  0.3273 -1.6923 -0.5944
  194MOL0     H25589   8.830   5.987   3.071 -1.3321  0.1842 -0.1961
  194MOL0     H25590   8.726   5.081   3.661  2.2276  1.2089  0.1089
  194MOL0     H25591   8.638   4.844   3.577 -3.4126  0.9791 -3.4262
  194MOL0     H25592   8.527   4.618   3.244 -1.6338  0.0603  1.3442
  194MOL0     H25593   8.380   4.446   3.159  0.4747  2.2513  0.9025
  194MOL0     H25594   6.734   3.626   2.860  1.1309 -1.9392 -2.6666
  194MOL0     H25595   6.519   3.507   2.911  2.1313 -1.3264 -0.9138
  194MOL0     H25596   5.944   3.675   2.946 -1.0416  0.0840 -0.7232
  194MOL0     H25597   5.735   3.546   2.927 -0.6033  3.6560 -4.5280
  194MOL0     H25598   5.571   3.425   2.893  2.6187 -0.0463 -5.3776
  194MOL0     H25599   5.654   3.319   3.010  2.9490 -0.3686 -0.4231
  194MOL0     H25600   5.421   3.276   2.821  0.6697 -2.3077 -2.1975
  194MOL0     H25601   5.502   3.131   2.861  0.7479  0.3441  0.6949
  194MOL0     H25602   5.466   3.214   3.111  0.8348  2.3120 -1.0018
  194MOL0     H25603   5.336   3.133   3.026  0.4142 -0.9318  2.9430
  194MOL0     H25604   5.301   3.357   3.160  2.7212 -3.1262  1.0368
  194MOL0     H25605   5.350   3.443   3.009  3.5460 -1.5807 -0.0623
  194MOL0     H25606   4.976   3.245   2.925 -0.6625 -0.4842 -0.7520
  194MOL0     H25607   5.938   3.232   2.721 -1.6672  1.5267 -0.4225
  194MOL0     H25608   6.144   3.363   2.724 -1.1972 -2.4970  0.4466
  195MOL0     O25609   0.178  10.491   7.964 -0.1046  0.0325 -0.2134
  195MOL0     C25610   0.199  10.610   7.942  0.1259 -0.3671 -0.0945
  195MOL0     O25611   0.107  10.702   7.893 -0.1473 -0.2005  0.1608
  195MOL0     C25612  -0.028  10.665   7.879  1.0484  0.0558 -0.5349
  195MOL0     C25613  -0.122  10.773   7.871  0.8045  0.5681 -0.5106
  195MOL0     C25614  -0.254  10.754   7.867  0.9301  0.4191  0.6894
  195MOL0     C25615  -0.309  10.625   7.870  0.1892  0.4155  1.1378
  195MOL0     O25616  -0.445  10.619   7.892  0.1936 -0.0567  0.4101
  195MOL0     C25617  -0.530  10.587   7.776 -0.6742 -0.6785  0.1615
  195MOL0     C25618  -0.598  10.456   7.796  1.0937 -0.0297 -0.3252
  195MOL0     C25619  -0.677  10.457   7.926  0.3432  0.2113  0.1521
  195MOL0     C25620  -0.765  10.337   7.926 -0.1167 -1.1712 -0.5761
  195MOL0     C25621  -0.900  10.352   7.850  0.4037  0.3452 -0.6298
  195MOL0     C25622  -0.958  10.212   7.837  0.0489  0.4568 -0.0464
  195MOL0     C25623  -1.102  10.208   7.791  0.4688 -0.2394 -1.0789
  195MOL0     C25624  -1.152  10.071   7.759 -0.3478 -0.7127 -0.4821
  195MOL0     N25625  -1.283  10.090   7.695  0.2918  0.3962  0.5080
  195MOL0     C25626  -1.400  10.058   7.754 -0.2021 -0.8119  0.3640
  195MOL0     C25627  -1.495  10.067   7.660  1.0044  0.8088 -1.6821
  195MOL0     C25628  -1.641  10.039   7.674 -0.6046 -0.4051  1.4311
  195MOL0     C25629  -1.693   9.897   7.713 -0.3321 -0.0534  0.4323
  195MOL0     C25630  -1.617   9.785   7.660 -0.4071 -0.5349 -0.2867
  195MOL0     C25631  -1.676   9.651   7.700 -0.0869  0.4730 -0.1669
  195MOL0     O25632  -1.665   9.615   7.840 -0.1114 -0.2687 -0.2472
  195MOL0     C25633  -1.705   9.495   7.877 -0.2125 -0.3785  0.8167
  195MOL0     C25634  -1.652   9.435   7.984 -2.3417  0.8845  0.5186
  195MOL0     C25635  -1.690   9.311   8.029 -0.2073  0.6967  0.1851
  195MOL0     C25636  -1.792   9.243   7.962 -0.5485 -0.0459 -0.1651
  195MOL0     C25637  -1.863   9.121   8.024 -0.1829  0.1936  0.0484
  195MOL0     O25638  -1.956   9.046   7.947 -0.3332 -0.1445  0.3143
  195MOL0     C25639  -2.000   8.922   7.986  0.3535  0.4182 -0.3550
  195MOL0     C25640  -1.990   8.823   7.890 -1.3919 -1.0482  0.4153
  195MOL0     C25641  -2.031   8.698   7.923 -0.4841 -0.0828  1.0952
  195MOL0     C25642  -2.080   8.667   8.047 -0.9128 -0.5552  0.3439
  195MOL0     O25643  -2.091   8.535   8.064  0.2180  0.0200 -0.6883
  195MOL0     C25644  -2.128   8.489   8.186  0.4426  0.7201 -0.7426
  195MOL0     C25645  -2.158   8.344   8.175 -0.4162  0.4977  0.5883
  195MOL0     C25646  -2.179   8.278   8.314 -0.9429 -1.1654 -0.1904
  195MOL0     C25647  -2.216   8.131   8.313  0.9343 -0.6449 -0.3564
  195MOL0     C25648  -2.253   8.082   8.464  0.3571 -0.3574  0.4256
  195MOL0     C25649  -2.377   7.984   8.476 -0.3413 -0.2545  0.3099
  195MOL0     C25650  -2.368   7.890   8.595 -0.1792 -0.6158  0.4077
  195MOL0     C25651  -2.477   7.778   8.575  0.8543  0.3133  0.1294
  195MOL0    Cl25652  -2.411   7.677   8.444 -0.1798 -0.1202  0.1549
  195MOL0     C25653  -2.088   8.770   8.147 -0.6412 -0.1671  0.4991
  195MOL0     C25654  -2.064   8.902   8.110 -0.4122  0.5909 -0.1842
  195MOL0     O25655  -1.817   9.076   8.133 -0.2911 -0.2016  0.1305
  195MOL0     C25656  -1.837   9.302   7.840 -0.4900  0.0472 -0.0702
  195MOL0     C25657  -1.798   9.427   7.799 -0.0937 -0.1735 -0.3141
  195MOL0     N25658  -1.435  10.102   7.539 -0.5320 -0.0562 -0.8095
  195MOL0     N25659  -1.311  10.114   7.558  0.1859 -0.1274 -0.4320
  195MOL0     C25660  -0.233  10.506   7.865 -0.1967 -0.3623  0.3097
  195MOL0     C25661  -0.095  10.534   7.869 -0.3248  0.0283 -0.6328
  195MOL0     C25662   0.325  10.659   7.986 -0.4685  0.5653  0.1585
  195MOL0     C25663   0.352  10.792   8.010  0.2849  0.1193  0.0097
  195MOL0     C25664   0.479  10.837   8.040 -0.8431  0.0377 -0.6027
  195MOL0     C25665   0.598  10.759   8.031  0.5142  0.6786 -0.2729
  195MOL0     O25666   0.730  10.813   8.035 -0.2343 -0.4399  1.0622
  195MOL0     C25667   0.765  10.939   8.099  0.9212 -0.3974  0.0970
  195MOL0     C25668   0.923  10.934   8.098  1.5124 -0.3662 -0.0247
  195MOL0     C25669   0.968  11.077   8.102 -0.4486  0.0077  0.2217
  195MOL0     C25670   1.121  11.087   8.115 -0.5834  0.1998  0.1716
  195MOL0     C25671   1.170  11.215   8.061 -0.6365  0.8791 -1.5966
  195MOL0     C25672   1.212  11.317   8.035 -0.2398 -0.1450 -0.8872
  195MOL0     C25673   0.575  10.623   8.033 -0.0525  0.9570 -0.0599
  195MOL0     C25674   0.440  10.569   8.011  0.7647  0.0452 -0.0499
  195MOL0     H25675  -0.075  10.870   7.878  3.5432 -0.7411  0.6049
  195MOL0     H25676  -0.315  10.844   7.866  2.9465  1.8538  0.9214
  195MOL0     H25677  -0.470  10.588   7.685  2.4858  0.7244  2.1183
  195MOL0     H25678  -0.605  10.666   7.764 -1.3087 -1.5107 -1.7371
  195MOL0     H25679  -0.525  10.374   7.801 -0.5769 -1.5460  0.2320
  195MOL0     H25680  -0.654  10.433   7.705  1.2009 -0.6182 -0.2518
  195MOL0     H25681  -0.746  10.542   7.934 -0.7222 -0.4709 -1.4334
  195MOL0     H25682  -0.611  10.471   8.013  2.1496 -2.6750 -0.5996
  195MOL0     H25683  -0.722  10.244   7.887 -2.3177 -1.6426 -2.0502
  195MOL0     H25684  -0.801  10.319   8.028 -1.8838 -1.3943 -1.2002
  195MOL0     H25685  -0.880  10.392   7.750  0.6201  2.2917  0.1437
  195MOL0     H25686  -0.978  10.412   7.897  0.2875 -0.8754  0.7974
  195MOL0     H25687  -0.962  10.167   7.936 -1.3580 -3.0132 -1.4918
  195MOL0     H25688  -0.892  10.156   7.770 -0.6051  0.9998 -1.1785
  195MOL0     H25689  -1.166  10.236   7.875 -0.8635 -3.5921 -0.8516
  195MOL0     H25690  -1.113  10.278   7.707 -0.6913  1.6422  0.5528
  195MOL0     H25691  -1.148  10.008   7.848  1.8169  0.9536  0.7066
  195MOL0     H25692  -1.083  10.033   7.682 -0.9538 -1.1670 -0.8091
  195MOL0     H25693  -1.415  10.035   7.859 -0.5985  1.0864  0.7766
  195MOL0     H25694  -1.697  10.060   7.583  0.1595 -2.7741  0.3345
  195MOL0     H25695  -1.682  10.114   7.742  0.7807  1.6477  0.0884
  195MOL0     H25696  -1.798   9.896   7.685  0.1063 -0.5550 -1.3418
  195MOL0     H25697  -1.683   9.896   7.822  0.4044  3.7647  0.5422
  195MOL0     H25698  -1.608   9.798   7.552  0.6577  0.8098 -0.0557
  195MOL0     H25699  -1.513   9.791   7.693 -0.8042  1.7260  0.7125
  195MOL0     H25700  -1.626   9.571   7.645 -1.3589  0.0818 -0.7926
  195MOL0     H25701  -1.782   9.665   7.677 -0.4629 -0.7002  0.7689
  195MOL0     H25702  -1.568   9.482   8.035  1.6297  0.3835 -4.7711
  195MOL0     H25703  -1.659   9.275   8.127  3.5258  1.3688 -0.5975
  195MOL0     H25704  -1.946   8.842   7.793  1.3618 -1.4134  1.4910
  195MOL0     H25705  -2.031   8.618   7.850  3.1966  1.0493 -0.3569
  195MOL0     H25706  -2.215   8.534   8.233  0.7848 -1.8294  2.7199
  195MOL0     H25707  -2.048   8.504   8.260 -1.1631  1.1291  0.9700
  195MOL0     H25708  -2.071   8.298   8.126 -0.3017 -1.7257  2.6608
  195MOL0     H25709  -2.248   8.320   8.119 -2.6462 -0.7123  4.3023
  195MOL0     H25710  -2.252   8.342   8.363  2.1567  1.5039  1.3751
  195MOL0     H25711  -2.083   8.296   8.365 -1.6774 -0.8621  1.1194
  195MOL0     H25712  -2.300   8.130   8.243  1.2004  2.9965 -0.9067
  195MOL0     H25713  -2.142   8.067   8.263 -1.0656 -0.8335 -3.3338
  195MOL0     H25714  -2.276   8.170   8.524  0.3926  1.7031 -2.3959
  195MOL0     H25715  -2.171   8.025   8.509 -0.4509 -1.9268 -0.0035
  195MOL0     H25716  -2.374   7.923   8.385  0.8518 -2.5762  1.8243
  195MOL0     H25717  -2.472   8.038   8.481 -1.8314 -2.6209 -0.8007
  195MOL0     H25718  -2.268   7.851   8.613  0.6348  2.0569  2.3467
  195MOL0     H25719  -2.392   7.952   8.682  0.1536  0.7268 -0.4293
  195MOL0     H25720  -2.575   7.821   8.550 -2.6553 -5.8636  1.1467
  195MOL0     H25721  -2.500   7.708   8.656 -2.4996 -1.6610 -2.2674
  195MOL0     H25722  -2.113   8.745   8.250  3.2955  1.1445  1.9945
  195MOL0     H25723  -2.086   8.979   8.183  0.7317 -0.5607  1.4468
  195MOL0     H25724  -1.912   9.250   7.781 -1.4398  2.1363 -0.8046
  195MOL0     H25725  -1.854   9.472   7.718  1.4494 -1.5955 -2.2542
  195MOL0     H25726  -0.283  10.409   7.859 -0.9457  0.0788 -0.8342
  195MOL0     H25727  -0.032  10.446   7.879  1.4784  0.7719 -3.9831
  195MOL0     H25728   0.265  10.858   8.008  0.0774 -0.1542 -0.0823
  195MOL0     H25729   0.485  10.945   8.054 -1.2480 -0.3306  4.7984
  195MOL0     H25730   0.725  10.942   8.200 -1.5058 -2.9044 -0.6443
  195MOL0     H25731   0.722  11.027   8.049 -0.0871  1.8320  4.4324
  195MOL0     H25732   0.950  10.879   8.189 -2.8885 -0.1432  1.6641
  195MOL0     H25733   0.944  10.883   8.004 -0.1102 -0.3652 -0.4079
  195MOL0     H25734   0.926  11.122   8.193 -1.0496  1.8286 -0.8814
  195MOL0     H25735   0.924  11.128   8.016 -2.4279 -0.5231  0.8672
  195MOL0     H25736   1.158  11.063   8.215  4.2891  3.5260 -0.5202
  195MOL0     H25737   1.152  10.999   8.058 -0.8674  0.4393 -0.3623
  195MOL0     H25738   1.266  11.410   8.029 -2.6006  1.4173  0.3175
  195MOL0     H25739   0.664  10.561   8.040 -0.3083  0.7541  2.2154
  195MOL0     H25740   0.431  10.461   8.012 -0.0702 -0.0040 -2.9617
  196MOL0     O25741   2.412   3.018   9.341 -0.8403  0.3522  0.6746
  196MOL0     C25742   2.377   2.901   9.346 -0.6177  0.4224  1.2943
  196MOL0     O25743   2.417   2.796   9.270 -0.4941  0.0111 -0.3861
  196MOL0     C25744   2.474   2.844   9.160 -0.5165  1.0766  0.6629
  196MOL0     C25745   2.402   2.903   9.048  0.8552  0.0042  0.8220
  196MOL0     C25746   2.468   2.958   8.942  0.1802 -0.3124  0.6202
  196MOL0     C25747   2.602   2.966   8.933  1.2313  0.2037  0.4343
  196MOL0     O25748   2.672   3.041   8.834  1.0864  0.2169  0.4510
  196MOL0     C25749   2.772   3.137   8.869 -0.8781 -0.5609 -0.2077
  196MOL0     C25750   2.700   3.272   8.850  0.1150  0.8280 -0.5368
  196MOL0     C25751   2.637   3.326   8.977 -0.1404 -0.4618 -1.0236
  196MOL0     C25752   2.578   3.465   8.946  0.6226 -0.0079 -0.0506
  196MOL0     C25753   2.511   3.535   9.074 -0.5989  0.5309  0.5191
  196MOL0     C25754   2.603   3.545   9.199  0.7673  0.9952  0.5714
  196MOL0     C25755   2.739   3.600   9.169  0.2083 -0.2089  0.1014
  196MOL0     C25756   2.736   3.745   9.111  0.0101  0.2018 -0.4319
  196MOL0     N25757   2.875   3.798   9.094  0.1929 -0.0401 -0.0522
  196MOL0     C25758   2.956   3.766   8.993 -0.7591  0.2411 -0.3051
  196MOL0     C25759   3.083   3.793   9.036 -0.4992  0.2129  0.6613
  196MOL0     C25760   3.209   3.788   8.946 -0.0659 -0.0575 -0.4591
  196MOL0     C25761   3.221   3.914   8.868  0.3757 -0.6593 -0.2605
  196MOL0     C25762   3.117   3.932   8.753  0.1414  0.3646 -0.6445
  196MOL0     C25763   3.118   3.813   8.648 -0.9058 -0.4600 -0.0437
  196MOL0     O25764   3.062   3.694   8.705  0.1737  0.3756 -0.5302
  196MOL0     C25765   2.980   3.617   8.618 -0.0293 -0.1106  0.2739
  196MOL0     C25766   2.881   3.535   8.675  0.0618  0.7519  0.1674
  196MOL0     C25767   2.810   3.454   8.580 -0.5258  0.1083  0.4427
  196MOL0     C25768   2.827   3.459   8.434  0.1186 -0.4617  0.3724
  196MOL0     C25769   2.740   3.382   8.340 -0.5809 -0.1163 -1.0726
  196MOL0     O25770   2.636   3.309   8.403  0.1096  0.5190  0.3427
  196MOL0     C25771   2.565   3.233   8.310  0.1770 -0.5439  0.3089
  196MOL0     C25772   2.429   3.263   8.288 -0.2427 -1.1163  0.1097
  196MOL0     C25773   2.353   3.189   8.191 -0.7045 -0.0761 -0.2022
  196MOL0     C25774   2.411   3.091   8.112  0.4478 -1.2305  0.5086
  196MOL0     O25775   2.322   3.032   8.020 -0.0386 -0.6319 -0.6831
  196MOL0     C25776   2.352   2.900   7.974  0.8508  0.2142 -0.0035
  196MOL0     C25777   2.254   2.855   7.864  0.0934  0.3025 -0.0204
  196MOL0     C25778   2.123   2.795   7.933 -0.0661 -0.5582 -0.1141
  196MOL0     C25779   2.155   2.654   7.987  0.9599 -0.0500 -0.2254
  196MOL0     C25780   2.032   2.630   8.085 -0.1464 -0.6099  0.1863
  196MOL0     C25781   2.033   2.506   8.176 -0.9457  0.2251 -0.1150
  196MOL0     C25782   1.928   2.508   8.281  0.7999 -0.0858 -1.0142
  196MOL0     C25783   1.931   2.391   8.376  0.3117  0.4634 -0.1666
  196MOL0    Cl25784   2.065   2.428   8.488  1.0457  0.6348 -0.4797
  196MOL0     C25785   2.549   3.068   8.133 -0.4958 -0.2529  0.1228
  196MOL0     C25786   2.624   3.136   8.232 -0.3003 -0.4772  0.1343
  196MOL0     O25787   2.783   3.378   8.222 -0.2093  0.0715 -0.1319
  196MOL0     C25788   2.934   3.538   8.387  0.1996 -0.3553 -0.3959
  196MOL0     C25789   3.001   3.626   8.475  0.1847  1.0075  0.5794
  196MOL0     N25790   3.065   3.856   9.158 -0.0982  0.3799  0.1974
  196MOL0     N25791   2.939   3.857   9.196 -0.7287  0.8837 -0.3061
  196MOL0     C25792   2.681   2.901   9.034  0.7353 -1.0025 -0.5376
  196MOL0     C25793   2.609   2.830   9.144 -0.6702  0.2831  0.1803
  196MOL0     C25794   2.272   2.868   9.445 -0.7227 -0.0964 -0.9550
  196MOL0     C25795   2.201   2.749   9.453  0.1784  0.5198 -0.5339
  196MOL0     C25796   2.113   2.728   9.558  0.7735 -0.9754  0.7769
  196MOL0     C25797   2.076   2.817   9.649 -0.4637  0.3319 -0.4905
  196MOL0     O25798   1.982   2.779   9.742  0.3189  0.0006  0.1667
  196MOL0     C25799   1.846   2.831   9.714 -0.6456  0.9984  0.9854
  196MOL0     C25800   1.836   2.975   9.765 -0.2915  0.0035 -0.3125
  196MOL0     C25801   1.826   2.973   9.924 -0.1835  0.0765  0.9186
  196MOL0     C25802   1.761   3.101   9.972  0.7496  1.2691 -0.1212
  196MOL0     C25803   1.846   3.217   9.952 -0.1379  0.1040  0.1168
  196MOL0     C25804   1.921   3.315   9.934 -0.4850 -0.2230  1.5139
  196MOL0     C25805   2.150   2.935   9.644  1.1041  0.2171 -0.4284
  196MOL0     C25806   2.235   2.971   9.544 -0.5419  1.3029  0.6797
  196MOL0     H25807   2.294   2.902   9.061  0.9399 -0.9796  1.5295
  196MOL0     H25808   2.425   3.003   8.854  2.1187 -0.9501 -0.7109
  196MOL0     H25809   2.853   3.130   8.796 -1.0733  0.1407 -0.5018
  196MOL0     H25810   2.809   3.121   8.971 -0.2610 -0.7643 -0.4527
  196MOL0     H25811   2.627   3.253   8.771  1.5585  0.6007 -1.8666
  196MOL0     H25812   2.769   3.349   8.813 -1.1592  1.4931 -1.6127
  196MOL0     H25813   2.722   3.343   9.043 -0.7097 -0.8358 -0.1789
  196MOL0     H25814   2.561   3.267   9.027  0.7324  0.4930  1.5695
  196MOL0     H25815   2.647   3.536   8.900 -1.1753  1.3244 -0.8258
  196MOL0     H25816   2.503   3.458   8.866  1.1896  1.1944 -0.7236
  196MOL0     H25817   2.419   3.482   9.099 -0.8408  0.0044 -1.3291
  196MOL0     H25818   2.490   3.640   9.051  2.4252  1.2834  0.8404
  196MOL0     H25819   2.617   3.443   9.236  1.0606 -0.7984 -3.8389
  196MOL0     H25820   2.551   3.607   9.273 -2.0642 -0.3521 -0.1674
  196MOL0     H25821   2.798   3.594   9.261 -0.7920  1.0889  0.8506
  196MOL0     H25822   2.799   3.543   9.097 -0.4361  1.4120 -1.8340
  196MOL0     H25823   2.698   3.802   9.196  0.6241 -2.6819  1.9442
  196MOL0     H25824   2.686   3.737   9.014  2.3715 -3.4281 -1.5530
  196MOL0     H25825   2.917   3.725   8.901  0.8099 -0.0291 -0.8852
  196MOL0     H25826   3.210   3.711   8.868  1.0298  1.2424 -1.7885
  196MOL0     H25827   3.291   3.776   9.017  0.2157  0.8250 -0.6190
  196MOL0     H25828   3.318   3.932   8.821  0.1950 -0.6203 -0.6219
  196MOL0     H25829   3.201   4.001   8.931  0.1960  0.7103 -2.1279
  196MOL0     H25830   3.017   3.944   8.797 -0.5615  0.2446 -2.1536
  196MOL0     H25831   3.138   4.028   8.704 -0.3946  1.0358  0.3859
  196MOL0     H25832   3.221   3.795   8.614  0.0714 -1.1310  2.9200
  196MOL0     H25833   3.060   3.841   8.560 -1.9432 -1.8481  0.1569
  196MOL0     H25834   2.879   3.515   8.782  1.8487  0.2491  0.1405
  196MOL0     H25835   2.741   3.375   8.608  1.3544 -1.2592  1.4441
  196MOL0     H25836   2.370   3.331   8.348 -1.2729 -2.1704  0.3449
  196MOL0     H25837   2.246   3.200   8.178 -0.5301  0.9620 -0.8750
  196MOL0     H25838   2.380   2.822   8.045 -1.7711 -1.5128 -0.7133
  196MOL0     H25839   2.451   2.903   7.927  1.4318 -3.0895  0.7518
  196MOL0     H25840   2.293   2.781   7.793 -0.1776  2.6834 -2.8778
  196MOL0     H25841   2.221   2.939   7.802 -2.2487 -1.3714 -1.2243
  196MOL0     H25842   2.039   2.789   7.863 -1.0079  2.7808  0.5808
  196MOL0     H25843   2.098   2.865   8.013  0.7312 -1.9507  1.4200
  196MOL0     H25844   2.175   2.579   7.909 -0.2786 -0.7454  0.1106
  196MOL0     H25845   2.240   2.652   8.055  2.6477  3.6627 -1.8958
  196MOL0     H25846   1.946   2.622   8.017 -0.2127 -0.2501  0.2270
  196MOL0     H25847   2.010   2.716   8.149 -0.3815  0.8529 -1.7429
  196MOL0     H25848   2.133   2.497   8.221  0.1076  4.6271 -1.0688
  196MOL0     H25849   2.023   2.426   8.103  0.0840 -0.1159  0.0985
  196MOL0     H25850   1.914   2.601   8.336  0.4370  0.0894 -1.3949
  196MOL0     H25851   1.831   2.490   8.232 -1.9691  1.0702  3.5019
  196MOL0     H25852   1.940   2.294   8.326 -0.5443  0.6826 -0.7707
  196MOL0     H25853   1.841   2.403   8.436  1.8380  1.5726  2.0487
  196MOL0     H25854   2.605   2.998   8.072  1.2125  2.3490 -1.5468
  196MOL0     H25855   2.727   3.109   8.254 -0.4421 -0.7368  0.4869
  196MOL0     H25856   2.957   3.530   8.281 -0.3711  0.0916 -0.5594
  196MOL0     H25857   3.068   3.694   8.423 -1.4562  2.3172  0.0876
  196MOL0     H25858   2.789   2.907   9.022  0.5010  1.3420 -2.0656
  196MOL0     H25859   2.668   2.774   9.214 -1.4833 -3.1600 -1.6624
  196MOL0     H25860   2.217   2.671   9.380 -1.5900  0.0647 -0.4810
  196MOL0     H25861   2.067   2.630   9.554 -3.7949  0.8630  2.2841
  196MOL0     H25862   1.762   2.769   9.745 -1.1683 -0.2903 -2.6612
  196MOL0     H25863   1.847   2.839   9.605 -0.7520  0.8862  0.9767
  196MOL0     H25864   1.921   3.039   9.740 -0.5890  1.3764  1.9067
  196MOL0     H25865   1.742   3.015   9.725 -1.4075 -0.7131  1.4432
  196MOL0     H25866   1.924   2.983   9.972  0.5087  2.0061 -0.7427
  196MOL0     H25867   1.759   2.891   9.950 -3.7991  3.0235  1.8182
  196MOL0     H25868   1.661   3.120   9.931  0.3819  2.6747  1.3271
  196MOL0     H25869   1.742   3.104  10.079  0.6310  3.5026 -0.1588
  196MOL0     H25870   1.990   3.395   9.915  0.6049 -1.4130  0.3521
  196MOL0     H25871   2.126   2.995   9.732 -2.1073 -2.2976  0.6016
  196MOL0     H25872   2.284   3.068   9.542  1.7429  0.2674 -2.8725
  197MOL0     O25873   0.966   7.730   4.077  1.0661  0.1732  0.4099
  197MOL0     C25874   1.074   7.756   4.029  0.3107 -0.6412  0.6137
  197MOL0     O25875   1.134   7.683   3.936  0.2293  0.0560  0.0868
  197MOL0     C25876   1.116   7.549   3.954 -0.1850 -0.9880 -0.1287
  197MOL0     C25877   1.168   7.485   4.063 -0.8932  0.3986  0.5688
  197MOL0     C25878   1.158   7.345   4.076 -0.6783 -0.5997  0.2502
  197MOL0     C25879   1.095   7.263   3.977 -0.3387 -0.2448  0.5597
  197MOL0     O25880   1.079   7.133   4.005 -0.8379  0.0574  0.3057
  197MOL0     C25881   1.028   7.046   3.899  0.2359 -0.2101  0.1298
  197MOL0     C25882   1.061   6.899   3.924  0.4107  0.0318  0.6930
  197MOL0     C25883   0.962   6.805   3.849  0.7909 -1.1267  0.1956
  197MOL0     C25884   0.831   6.783   3.927 -0.2186  0.4656 -0.4074
  197MOL0     C25885   0.713   6.732   3.833 -0.0545 -0.6209  0.2999
  197MOL0     C25886   0.599   6.672   3.902  1.3111  0.8203 -0.7425
  197MOL0     C25887   0.516   6.621   3.792  0.3819 -0.1361  0.1628
  197MOL0     C25888   0.424   6.732   3.725  0.3674  0.6485 -0.0071
  197MOL0     N25889   0.341   6.659   3.615  0.5662  0.3017 -0.0683
  197MOL0     C25890   0.203   6.684   3.598 -0.4870  0.5822 -0.2738
  197MOL0     C25891   0.166   6.622   3.480  0.0595  0.4787 -0.3705
  197MOL0     C25892   0.023   6.602   3.432 -1.1499 -0.3133 -0.1171
  197MOL0     C25893   0.005   6.696   3.310 -0.2517  0.4319 -0.5191
  197MOL0     C25894  -0.139   6.663   3.245 -0.3230  0.1869  0.8727
  197MOL0     C25895  -0.172   6.768   3.140 -0.1508  0.3470 -0.7461
  197MOL0     O25896  -0.208   6.706   3.016 -0.3860  0.5122  0.2893
  197MOL0     C25897  -0.346   6.685   2.998 -0.9159  0.7360  0.0287
  197MOL0     C25898  -0.441   6.688   3.092  0.2084 -0.8742 -0.0846
  197MOL0     C25899  -0.578   6.675   3.053 -0.6397  0.8141  0.2745
  197MOL0     C25900  -0.618   6.644   2.923  0.0159  0.1404 -0.3802
  197MOL0     C25901  -0.761   6.644   2.889  0.4022  0.4073  0.9127
  197MOL0     O25902  -0.852   6.677   2.977 -0.2127  0.0688  0.0499
  197MOL0     C25903  -0.980   6.637   2.961 -0.0411 -0.0231  0.5662
  197MOL0     C25904  -1.034   6.529   3.031 -1.3838 -0.9277  0.2471
  197MOL0     C25905  -1.173   6.503   3.031  0.3035  0.1939  0.1649
  197MOL0     C25906  -1.263   6.582   2.954  0.9802 -0.1052 -0.8493
  197MOL0     O25907  -1.395   6.538   2.963 -0.1900 -0.0460 -0.0083
  197MOL0     C25908  -1.490   6.631   3.016 -0.0325  0.8063 -0.3770
  197MOL0     C25909  -1.623   6.609   2.936  0.3510  0.4901 -0.3954
  197MOL0     C25910  -1.696   6.495   3.011 -0.7154  0.4996 -1.1432
  197MOL0     C25911  -1.851   6.511   2.977 -0.2729 -0.1015  0.0421
  197MOL0     C25912  -1.940   6.400   3.047 -0.0866 -0.6493  0.0840
  197MOL0     C25913  -1.926   6.255   2.991  0.0197 -0.5124  0.1350
  197MOL0     C25914  -1.984   6.230   2.857 -0.2175 -0.0650  0.3077
  197MOL0     C25915  -1.974   6.082   2.805  0.0585  0.7562  0.7099
  197MOL0    Cl25916  -1.810   6.032   2.793 -0.1096  0.3564 -0.2242
  197MOL0     C25917  -1.207   6.692   2.887  0.6795  1.3681 -0.5838
  197MOL0     C25918  -1.069   6.717   2.886 -0.5483 -0.5913 -0.0437
  197MOL0     O25919  -0.790   6.598   2.779 -0.4525  0.9476 -0.0909
  197MOL0     C25920  -0.513   6.637   2.836  0.0070 -0.7559  0.6399
  197MOL0     C25921  -0.375   6.659   2.865  0.7341 -0.3500 -0.9316
  197MOL0     N25922   0.286   6.574   3.422 -0.0787  0.4206 -0.4360
  197MOL0     N25923   0.382   6.597   3.504  1.1202 -0.8066 -0.6794
  197MOL0     C25924   1.034   7.335   3.872 -0.2513  0.5996  0.9050
  197MOL0     C25925   1.048   7.472   3.859 -0.0064  0.7227 -0.4162
  197MOL0     C25926   1.129   7.893   4.045 -0.3802  0.4407 -0.9374
  197MOL0     C25927   1.269   7.914   4.008 -0.3412 -0.5512 -0.2566
  197MOL0     C25928   1.330   8.039   4.022  0.5842  0.4060  0.1238
  197MOL0     C25929   1.258   8.149   4.058  0.2947 -0.5316  0.1964
  197MOL0     O25930   1.326   8.265   4.059  0.0648 -0.3868 -0.1843
  197MOL0     C25931   1.255   8.392   4.089 -0.7325  0.6710  0.2519
  197MOL0     C25932   1.227   8.471   3.961  0.5804  0.8994 -0.5166
  197MOL0     C25933   1.144   8.602   3.979 -0.1867  0.2342 -0.8200
  197MOL0     C25934   1.206   8.695   4.086  0.4011 -0.0327  1.1529
  197MOL0     C25935   1.135   8.695   4.218  0.0309 -0.0136 -0.4987
  197MOL0     C25936   1.076   8.689   4.323  0.1679 -0.0334 -0.7249
  197MOL0     C25937   1.119   8.135   4.092 -0.2680 -0.2821 -0.2949
  197MOL0     C25938   1.064   8.011   4.090  0.3176  0.5508 -0.4530
  197MOL0     H25939   1.211   7.551   4.138 -2.4499  0.2145  1.6604
  197MOL0     H25940   1.204   7.296   4.162 -1.5436 -0.8010  0.6115
  197MOL0     H25941   1.082   7.073   3.808  0.5570 -0.8119  0.1371
  197MOL0     H25942   0.922   7.046   3.875  0.3184 -1.9258 -0.3428
  197MOL0     H25943   1.072   6.870   4.029 -1.2061 -1.7012  0.4566
  197MOL0     H25944   1.153   6.881   3.867 -1.4817 -1.2525 -2.2221
  197MOL0     H25945   1.012   6.709   3.833  1.9181 -0.2746 -1.7832
  197MOL0     H25946   0.925   6.840   3.753 -1.6536 -1.6498  0.8726
  197MOL0     H25947   0.848   6.705   4.001  3.9521  0.0196 -1.5805
  197MOL0     H25948   0.794   6.877   3.968 -1.1807  0.8250 -1.9955
  197MOL0     H25949   0.760   6.655   3.772  2.9160  0.6198  0.8805
  197MOL0     H25950   0.683   6.819   3.774  1.2580  0.4583  1.1758
  197MOL0     H25951   0.547   6.752   3.955  2.1993  1.7846 -1.2755
  197MOL0     H25952   0.642   6.596   3.967  0.7465  1.0697 -0.0672
  197MOL0     H25953   0.574   6.570   3.716 -0.0345 -2.5450  1.3779
  197MOL0     H25954   0.447   6.550   3.839 -1.3351  0.5066 -1.2695
  197MOL0     H25955   0.483   6.822   3.702  0.8756 -0.1099 -1.8502
  197MOL0     H25956   0.358   6.754   3.810  0.4194 -0.0286  0.2106
  197MOL0     H25957   0.132   6.739   3.659 -1.5422  1.0167 -1.8229
  197MOL0     H25958  -0.063   6.621   3.498 -0.8462  1.5065 -0.1920
  197MOL0     H25959   0.009   6.497   3.403  0.0774 -0.8159  1.0227
  197MOL0     H25960   0.092   6.687   3.244 -0.5270 -0.0931 -0.8188
  197MOL0     H25961   0.003   6.801   3.341  0.5828  1.1083 -2.5983
  197MOL0     H25962  -0.133   6.561   3.204 -1.6681  0.9179 -1.3326
  197MOL0     H25963  -0.221   6.655   3.317 -1.1150 -0.2855 -0.0495
  197MOL0     H25964  -0.089   6.838   3.124  1.8437 -1.6391  0.3146
  197MOL0     H25965  -0.247   6.835   3.183  0.0522  2.1971 -3.0702
  197MOL0     H25966  -0.423   6.724   3.193 -0.5369  1.5190 -0.7250
  197MOL0     H25967  -0.646   6.703   3.132 -0.4620 -0.9482  1.1054
  197MOL0     H25968  -0.961   6.474   3.090  1.7457  1.1401 -1.3701
  197MOL0     H25969  -1.234   6.438   3.094  2.1807 -1.5036  0.3460
  197MOL0     H25970  -1.456   6.735   3.015  3.4038 -0.1568  1.2352
  197MOL0     H25971  -1.507   6.611   3.122 -0.1549 -2.3306 -0.9000
  197MOL0     H25972  -1.607   6.595   2.829  2.0284  1.7989 -0.3615
  197MOL0     H25973  -1.686   6.699   2.942  1.3565  1.1298  1.4386
  197MOL0     H25974  -1.678   6.503   3.118  0.8915  0.7883 -1.4108
  197MOL0     H25975  -1.657   6.396   2.985  3.4614  1.3978  0.9694
  197MOL0     H25976  -1.879   6.615   2.991 -2.5352 -0.3465 -2.0620
  197MOL0     H25977  -1.855   6.491   2.870  2.1110 -3.0476  0.3529
  197MOL0     H25978  -2.046   6.427   3.049  0.0653  0.0190 -0.4875
  197MOL0     H25979  -1.908   6.397   3.152 -1.0059  1.0425  0.4524
  197MOL0     H25980  -1.988   6.188   3.050 -3.4788 -1.4901 -4.1470
  197MOL0     H25981  -1.824   6.215   2.999 -1.1496 -4.1673 -1.0355
  197MOL0     H25982  -2.087   6.267   2.853 -0.3930 -0.5333  0.4602
  197MOL0     H25983  -1.918   6.291   2.795 -0.4871 -0.5258 -0.4550
  197MOL0     H25984  -2.011   6.064   2.704 -1.8734  0.5287  1.4046
  197MOL0     H25985  -2.031   6.016   2.872  2.1944 -1.6162  0.3120
  197MOL0     H25986  -1.268   6.752   2.820  1.5829  1.3085 -1.4694
  197MOL0     H25987  -1.039   6.815   2.850 -4.2407  1.3102  1.5363
  197MOL0     H25988  -0.535   6.614   2.732 -0.2228 -0.1145  0.5449
  197MOL0     H25989  -0.298   6.646   2.790 -0.0703  1.8645 -2.2125
  197MOL0     H25990   0.959   7.288   3.810 -1.1548  2.1975  0.7244
  197MOL0     H25991   0.984   7.511   3.781  0.1175  2.6218  0.3619
  197MOL0     H25992   1.330   7.835   3.966  2.2528  0.4511  1.3447
  197MOL0     H25993   1.432   8.036   3.985  0.0651 -2.9375 -1.4434
  197MOL0     H25994   1.319   8.458   4.148 -2.4029  2.4382  0.1785
  197MOL0     H25995   1.161   8.374   4.142 -3.3751  0.7395 -3.9290
  197MOL0     H25996   1.310   8.492   3.894  1.9603  0.5065  0.9936
  197MOL0     H25997   1.159   8.401   3.912 -0.7092  1.1330  0.8504
  197MOL0     H25998   1.038   8.576   3.993 -0.2135  0.8571  0.2850
  197MOL0     H25999   1.152   8.657   3.885 -0.4263 -0.8380 -1.4844
  197MOL0     H26000   1.315   8.685   4.097  0.1349 -1.7162  2.7326
  197MOL0     H26001   1.201   8.798   4.049  0.4780 -0.5057 -0.2043
  197MOL0     H26002   1.011   8.693   4.408  3.2090  0.1197  1.8186
  197MOL0     H26003   1.050   8.210   4.128 -0.6428 -1.3915  1.4251
  197MOL0     H26004   0.963   7.999   4.127  0.0232 -3.3110 -2.0435
  198MOL0     O26005   9.969   0.083   6.895 -0.0966 -0.1985  0.6863
  198MOL0     C26006   9.985   0.022   6.787  0.1859  0.9301  0.5796
  198MOL0     O26007   9.978  -0.114   6.764  0.3665 -0.0621  0.2082
  198MOL0     C26008   9.957  -0.192   6.874 -1.0742 -0.7925  0.3299
  198MOL0     C26009  10.053  -0.286   6.911 -0.8892  0.1468  0.2570
  198MOL0     C26010  10.044  -0.372   7.020 -0.3588  0.9627 -1.0574
  198MOL0     C26011   9.937  -0.374   7.104 -0.2580 -0.3598 -0.4987
  198MOL0     O26012   9.935  -0.460   7.211  0.1071 -0.4615 -0.1363
  198MOL0     C26013   9.815  -0.526   7.237 -0.8269  0.6003  0.4550
  198MOL0     C26014   9.823  -0.585   7.378  0.0366  0.6638 -0.2186
  198MOL0     C26015   9.782  -0.480   7.483  0.2729  0.1920  0.2131
  198MOL0     C26016   9.777  -0.541   7.623  0.1857  0.1031 -0.2867
  198MOL0     C26017   9.645  -0.608   7.638  0.7675 -0.5919 -0.0020
  198MOL0     C26018   9.530  -0.516   7.670 -0.1081  0.2438  0.8661
  198MOL0     C26019   9.409  -0.592   7.706  0.1426 -1.2756 -0.6033
  198MOL0     C26020   9.287  -0.495   7.723 -0.4793  0.0468 -0.0028
  198MOL0     N26021   9.162  -0.563   7.759  0.2221  0.3609 -0.4742
  198MOL0     C26022   9.072  -0.526   7.850  0.3316 -0.0141 -0.1884
  198MOL0     C26023   8.981  -0.620   7.859  0.2624  0.2545  0.9041
  198MOL0     C26024   8.858  -0.630   7.949 -0.0332 -1.1749 -0.6960
  198MOL0     C26025   8.875  -0.572   8.084 -1.2897 -0.3869  0.3444
  198MOL0     C26026   8.987  -0.640   8.169 -0.3178 -0.8048 -0.5343
  198MOL0     C26027   9.039  -0.547   8.276 -0.3807  0.4861  0.3720
  198MOL0     O26028   9.136  -0.446   8.225  0.1513 -0.1610  0.5284
  198MOL0     C26029   9.188  -0.353   8.316 -0.4336  0.1699  0.0292
  198MOL0     C26030   9.153  -0.342   8.446  1.0641  0.4172 -0.7956
  198MOL0     C26031   9.190  -0.238   8.534 -0.3751  1.0030 -0.8225
  198MOL0     C26032   9.272  -0.129   8.476 -0.0975  0.8233 -0.3785
  198MOL0     C26033   9.308  -0.016   8.560 -0.2849 -0.8309  0.7597
  198MOL0     O26034   9.410   0.064   8.511 -0.6885  0.2749  0.2396
  198MOL0     C26035   9.461   0.174   8.568  0.3850  0.0731  0.4320
  198MOL0     C26036   9.527   0.177   8.691 -0.4107  0.4245 -0.1541
  198MOL0     C26037   9.553   0.302   8.741  0.0508  0.3917 -0.8527
  198MOL0     C26038   9.520   0.419   8.683  0.4178 -0.0484  0.1406
  198MOL0     O26039   9.551   0.534   8.739 -0.2963  0.3196 -0.8546
  198MOL0     C26040   9.655   0.608   8.672  0.3612  0.2168  0.2060
  198MOL0     C26041   9.654   0.755   8.714  0.1519  0.0778  0.4830
  198MOL0     C26042   9.767   0.842   8.662  0.0635  0.9192  0.1510
  198MOL0     C26043   9.778   0.984   8.741  0.0732  0.2509  0.3056
  198MOL0     C26044   9.893   1.074   8.700  0.5650  0.2222  0.3344
  198MOL0     C26045  10.035   1.017   8.723  0.5403  0.0982  0.2862
  198MOL0     C26046  10.147   1.115   8.689 -0.3060 -0.0414  0.7015
  198MOL0     C26047  10.196   1.187   8.803 -0.6607  0.1724 -0.1587
  198MOL0    Cl26048  10.353   1.268   8.763  0.5958 -0.1627 -0.4125
  198MOL0     C26049   9.457   0.419   8.567 -0.5711  0.9493 -0.2612
  198MOL0     C26050   9.438   0.297   8.504 -0.2120  0.2387 -0.6462
  198MOL0     O26051   9.251   0.011   8.661 -0.2034  0.0439  0.2336
  198MOL0     C26052   9.314  -0.140   8.348  0.3786  0.6278 -0.2266
  198MOL0     C26053   9.273  -0.249   8.266  0.6891  0.1802  0.6481
  198MOL0     N26054   9.010  -0.718   7.765  0.2783 -0.2534 -0.0467
  198MOL0     N26055   9.114  -0.678   7.702  0.4896  0.0711 -0.6173
  198MOL0     C26056   9.837  -0.286   7.068  0.2825 -0.0683  1.2025
  198MOL0     C26057   9.848  -0.191   6.958 -0.0478 -0.6094 -0.8897
  198MOL0     C26058  10.025   0.101   6.666  0.3151  0.3531 -0.4549
  198MOL0     C26059  10.015   0.238   6.675  0.5792 -0.1415 -0.0190
  198MOL0     C26060  10.067   0.319   6.581 -1.0667 -0.0101  0.9632
  198MOL0     C26061  10.110   0.263   6.463 -0.0790 -0.4019  0.4082
  198MOL0     O26062  10.139   0.337   6.350 -0.3761  0.1354  0.1569
  198MOL0     C26063  10.069   0.462   6.344 -0.2445  0.7013 -0.1370
  198MOL0     C26064   9.914   0.445   6.344  0.4111 -0.3316  0.0747
  198MOL0     C26065   9.852   0.551   6.252 -1.5161 -0.5056 -0.8486
  198MOL0     C26066   9.702   0.565   6.282  0.2707 -0.7615  0.1287
  198MOL0     C26067   9.649   0.684   6.206  0.7081 -0.6979 -0.2385
  198MOL0     C26068   9.621   0.778   6.133  0.8720 -0.1765  0.3761
  198MOL0     C26069  10.112   0.125   6.440 -0.7353  0.6173 -0.1079
  198MOL0     C26070  10.076   0.042   6.547 -0.5793  0.1446 -0.5951
  198MOL0     H26071  10.143  -0.281   6.851  0.9981  1.4379  2.9847
  198MOL0     H26072  10.109  -0.452   7.056  0.1423  0.8674 -2.1236
  198MOL0     H26073   9.812  -0.604   7.161  1.1381 -0.4953  1.4345
  198MOL0     H26074   9.725  -0.464   7.227 -2.5939 -1.0873  3.8669
  198MOL0     H26075   9.924  -0.618   7.403 -1.8302 -2.8519  3.9756
  198MOL0     H26076   9.765  -0.676   7.396  2.8941 -0.7459  2.9644
  198MOL0     H26077   9.678  -0.456   7.458  0.1675 -1.2966 -0.8796
  198MOL0     H26078   9.851  -0.395   7.487  2.7019 -1.5213 -1.9593
  198MOL0     H26079   9.862  -0.608   7.642  1.2366  1.5920  0.5103
  198MOL0     H26080   9.791  -0.468   7.703 -0.4859 -1.6674  1.5605
  198MOL0     H26081   9.653  -0.693   7.705  2.8460 -0.1312  0.4217
  198MOL0     H26082   9.623  -0.655   7.542  3.8638  2.5332 -2.5426
  198MOL0     H26083   9.520  -0.453   7.581  2.2639  2.1462  1.8263
  198MOL0     H26084   9.552  -0.454   7.758  1.7591  1.6630 -0.5161
  198MOL0     H26085   9.397  -0.649   7.613  0.6485  0.8107 -2.0179
  198MOL0     H26086   9.415  -0.659   7.792  0.8189 -1.5824 -0.8841
  198MOL0     H26087   9.280  -0.434   7.633 -0.8276  0.8061  0.5242
  198MOL0     H26088   9.312  -0.428   7.806 -1.2315  0.7936 -0.3568
  198MOL0     H26089   9.068  -0.433   7.905 -0.5542 -0.3214  0.2875
  198MOL0     H26090   8.822  -0.733   7.953 -2.3728 -0.3658  1.3068
  198MOL0     H26091   8.777  -0.576   7.900  0.4237  0.1902 -0.0007
  198MOL0     H26092   8.785  -0.552   8.142  0.6577  3.4441  2.3937
  198MOL0     H26093   8.920  -0.474   8.065  0.5896 -1.3308 -0.2934
  198MOL0     H26094   8.933  -0.727   8.207  1.2564 -2.0676 -1.0599
  198MOL0     H26095   9.077  -0.689   8.131  0.8210  0.2471  0.7212
  198MOL0     H26096   9.071  -0.604   8.364 -2.7004  0.3467  1.2091
  198MOL0     H26097   8.951  -0.496   8.316 -0.4517  0.3539  0.3875
  198MOL0     H26098   9.092  -0.419   8.494  2.5253  0.7068  1.7146
  198MOL0     H26099   9.156  -0.236   8.637 -0.5746 -0.1917 -0.8526
  198MOL0     H26100   9.547   0.090   8.753 -0.7837 -0.1347 -0.7975
  198MOL0     H26101   9.597   0.313   8.840 -0.3121 -0.9650 -0.5191
  198MOL0     H26102   9.643   0.608   8.563 -2.7081  2.1359  0.4405
  198MOL0     H26103   9.750   0.567   8.708  1.2799  0.7231 -1.5126
  198MOL0     H26104   9.656   0.759   8.823  0.0081  0.9015  0.4634
  198MOL0     H26105   9.559   0.806   8.698  0.9235  1.0920 -1.1444
  198MOL0     H26106   9.757   0.862   8.555 -0.9505  0.4152  0.1482
  198MOL0     H26107   9.854   0.780   8.684 -1.4009 -0.5543  2.1531
  198MOL0     H26108   9.681   1.034   8.744  1.2608  2.7231  2.7805
  198MOL0     H26109   9.801   0.956   8.845  0.8921  0.3841  0.1629
  198MOL0     H26110   9.887   1.167   8.758 -1.4081 -1.5679  3.2545
  198MOL0     H26111   9.883   1.086   8.591 -3.9206 -4.5293 -0.1662
  198MOL0     H26112  10.043   0.926   8.664 -2.9148 -0.8780  1.0867
  198MOL0     H26113  10.040   0.995   8.831 -2.1098  2.2557  0.9650
  198MOL0     H26114  10.230   1.052   8.655 -0.5394  1.1581 -2.4275
  198MOL0     H26115  10.117   1.179   8.606  0.0470 -3.4539 -2.2621
  198MOL0     H26116  10.220   1.122   8.887  2.4081  0.1294 -0.9177
  198MOL0     H26117  10.127   1.270   8.822 -1.3877 -0.3846 -0.3357
  198MOL0     H26118   9.424   0.513   8.524 -0.6905  1.5852  1.1623
  198MOL0     H26119   9.405   0.305   8.401  5.2224  0.9659 -2.6116
  198MOL0     H26120   9.385  -0.074   8.298 -0.2612  0.3197 -1.6064
  198MOL0     H26121   9.289  -0.249   8.159  1.9548 -1.1753  0.8096
  198MOL0     H26122   9.747  -0.279   7.127  0.6675 -2.5744  2.1882
  198MOL0     H26123   9.765  -0.129   6.926 -2.2845 -2.1195  1.5732
  198MOL0     H26124   9.966   0.282   6.761  0.3272 -3.4350  1.7007
  198MOL0     H26125  10.044   0.424   6.598  2.8099  0.6534  3.2101
  198MOL0     H26126  10.117   0.493   6.250  3.5318 -1.1915  0.9753
  198MOL0     H26127  10.092   0.534   6.422 -1.3481  0.4308  0.4587
  198MOL0     H26128   9.894   0.347   6.300  0.0857  0.9581 -2.8600
  198MOL0     H26129   9.874   0.464   6.444  0.2113  0.4665 -0.1469
  198MOL0     H26130   9.851   0.520   6.148 -1.5668 -1.2610 -0.6308
  198MOL0     H26131   9.909   0.643   6.265  0.8116 -1.9991  0.1783
  198MOL0     H26132   9.650   0.474   6.252 -3.7807  0.5119  2.5023
  198MOL0     H26133   9.684   0.569   6.390 -1.5503 -1.2900 -0.1094
  198MOL0     H26134   9.590   0.859   6.070  0.2597 -1.4723 -1.0588
  198MOL0     H26135  10.151   0.077   6.351 -1.6116 -0.7439  0.2079
  198MOL0     H26136  10.093  -0.063   6.527 -0.2970 -0.4542  2.3938
  199MOL0     O26137   5.226   8.869  10.561 -0.3290 -0.5620 -1.0560
  199MOL0     C26138   5.170   8.908  10.458 -0.4299  0.0634 -0.3957
  199MOL0     O26139   5.121   8.824  10.365  0.4250  0.4051 -0.0883
  199MOL0     C26140   5.119   8.685  10.388  0.0189  0.3098 -0.6102
  199MOL0     C26141   5.004   8.631  10.450  0.4951 -0.5690  0.5619
  199MOL0     C26142   4.990   8.496  10.439 -0.1040  1.2137 -0.0682
  199MOL0     C26143   5.092   8.410  10.404  0.2717 -0.1531 -1.1298
  199MOL0     O26144   5.072   8.276  10.407 -0.8635 -0.5937 -0.5390
  199MOL0     C26145   5.170   8.185  10.457  0.3402 -0.6854  0.3906
  199MOL0     C26146   5.201   8.084  10.342  0.1400 -0.2223  0.4466
  199MOL0     C26147   5.306   7.971  10.381 -0.3663 -0.4513 -0.2635
  199MOL0     C26148   5.334   7.893  10.253  0.1355  0.0955 -0.2856
  199MOL0     C26149   5.446   7.800  10.276  0.0776  0.1639  0.2915
  199MOL0     C26150   5.410   7.677  10.376  0.2027 -0.2321 -0.0642
  199MOL0     C26151   5.495   7.553  10.367  0.4637  0.5044 -0.3798
  199MOL0     C26152   5.640   7.584  10.366 -0.4694 -0.1449  0.0057
  199MOL0     N26153   5.718   7.464  10.383  0.2507  0.5731 -0.7728
  199MOL0     C26154   5.704   7.386  10.498 -0.2985  0.0571 -0.2840
  199MOL0     C26155   5.775   7.272  10.482  0.1020  0.3083 -1.0840
  199MOL0     C26156   5.782   7.169  10.588 -0.1529 -0.4410 -0.5033
  199MOL0     C26157   5.918   7.153  10.646 -0.0026 -0.3898  0.1883
  199MOL0     C26158   6.045   7.150  10.557  0.9387 -0.3978  0.3429
  199MOL0     C26159   6.166   7.131  10.656  0.6553  0.2747 -0.0044
  199MOL0     O26160   6.185   7.255  10.726 -0.3549  0.3710 -0.1874
  199MOL0     C26161   6.314   7.314  10.731  0.1724  0.3241  0.5055
  199MOL0     C26162   6.437   7.247  10.737 -0.8867  0.4228 -0.4862
  199MOL0     C26163   6.556   7.331  10.747 -0.5380  1.2223  0.6617
  199MOL0     C26164   6.551   7.471  10.739 -0.0351 -1.0637 -0.3268
  199MOL0     C26165   6.670   7.551  10.744 -0.6785 -0.0438  0.2046
  199MOL0     O26166   6.661   7.670  10.803  0.0931 -0.1859 -0.2182
  199MOL0     C26167   6.784   7.734  10.818 -0.6487  0.1065  1.4622
  199MOL0     C26168   6.830   7.810  10.708 -1.3439 -0.1360  0.2701
  199MOL0     C26169   6.951   7.874  10.725 -0.0339 -0.7821 -0.0080
  199MOL0     C26170   7.022   7.870  10.849  0.1145  0.8785  0.6387
  199MOL0     O26171   7.146   7.923  10.869  0.2682  0.3280 -0.1401
  199MOL0     C26172   7.175   8.045  10.811 -0.6693 -0.2095 -0.6886
  199MOL0     C26173   7.314   8.094  10.854  0.3240 -0.4794  0.0976
  199MOL0     C26174   7.334   8.233  10.787 -0.5897  0.3952  0.0680
  199MOL0     C26175   7.476   8.271  10.804 -0.6379 -0.0703 -0.1126
  199MOL0     C26176   7.587   8.211  10.717  1.1102 -0.4008  0.6979
  199MOL0     C26177   7.552   8.192  10.570  1.2660 -0.7192 -0.3933
  199MOL0     C26178   7.679   8.173  10.480 -0.6523  0.2230  1.0376
  199MOL0     C26179   7.631   8.156  10.338  0.0728 -0.6794 -0.4134
  199MOL0    Cl26180   7.518   8.020  10.323 -0.7080 -0.1276 -0.0164
  199MOL0     C26181   6.966   7.798  10.955 -0.2403 -0.2421  0.0249
  199MOL0     C26182   6.852   7.733  10.941  1.0914  0.3893  0.5512
  199MOL0     O26183   6.771   7.498  10.698  0.0043  0.4640 -0.5558
  199MOL0     C26184   6.426   7.532  10.725 -0.6233 -0.2682 -0.2076
  199MOL0     C26185   6.314   7.452  10.720  0.7567 -1.0250 -0.1009
  199MOL0     N26186   5.832   7.281  10.359 -0.1011 -0.4023 -0.0481
  199MOL0     N26187   5.797   7.393  10.294  1.0542  0.2300  0.1485
  199MOL0     C26188   5.205   8.469  10.350 -0.6630  0.0345 -0.4842
  199MOL0     C26189   5.225   8.609  10.354 -1.1885  2.5792  0.5706
  199MOL0     C26190   5.149   9.053  10.445 -0.0706  0.6001  0.1091
  199MOL0     C26191   5.080   9.113  10.341 -0.0863 -0.1945  0.3396
  199MOL0     C26192   5.061   9.253  10.330 -0.0401 -0.2017 -0.7483
  199MOL0     C26193   5.121   9.340  10.423 -0.6216  0.3331 -0.2300
  199MOL0     O26194   5.115   9.475  10.416  0.9767  0.0524  0.3787
  199MOL0     C26195   5.050   9.549  10.304 -0.2380  0.8518  0.2510
  199MOL0     C26196   5.156   9.582  10.196  0.1169  0.5458 -0.4705
  199MOL0     C26197   5.090   9.638  10.066 -0.4418  0.0045  0.1295
  199MOL0     C26198   4.975   9.553  10.014  0.3775 -0.2103  0.6088
  199MOL0     C26199   5.027   9.432   9.954  0.2988 -0.6381  0.7790
  199MOL0     C26200   5.066   9.319   9.923  0.4513  0.8810 -1.3120
  199MOL0     C26201   5.188   9.284  10.529 -0.0284 -0.0488  0.8988
  199MOL0     C26202   5.207   9.149  10.539  0.7334 -0.2741  0.1075
  199MOL0     H26203   4.917   8.690  10.478  0.5599 -0.7438  1.1352
  199MOL0     H26204   4.893   8.454  10.463  0.3267  0.0730 -0.2673
  199MOL0     H26205   5.134   8.136  10.548  3.5797 -2.9630  0.5989
  199MOL0     H26206   5.264   8.236  10.479  1.9550 -4.9800  5.1604
  199MOL0     H26207   5.221   8.132  10.246  0.0449 -0.7344  0.1611
  199MOL0     H26208   5.109   8.024  10.334 -0.0110  0.1337 -0.8181
  199MOL0     H26209   5.271   7.917  10.469 -2.0226 -1.3600 -1.4329
  199MOL0     H26210   5.402   8.018  10.403  0.4887 -2.6132  0.8829
  199MOL0     H26211   5.242   7.842  10.223 -1.2149  2.6285 -0.7471
  199MOL0     H26212   5.364   7.965  10.176  2.2120  2.5009  2.5250
  199MOL0     H26213   5.533   7.852  10.318  0.6253 -0.2048 -0.3658
  199MOL0     H26214   5.470   7.769  10.174 -0.3395  1.9452 -0.3825
  199MOL0     H26215   5.303   7.657  10.367 -0.2760  1.7638  0.8219
  199MOL0     H26216   5.420   7.723  10.474  0.4190 -1.2054  0.3858
  199MOL0     H26217   5.465   7.480  10.443  1.0466  1.0689  0.4054
  199MOL0     H26218   5.475   7.505  10.271 -0.2007 -2.4458  1.0900
  199MOL0     H26219   5.665   7.657  10.443 -1.3613  1.9626 -1.6058
  199MOL0     H26220   5.665   7.615  10.264 -1.5827 -1.5014 -0.7076
  199MOL0     H26221   5.656   7.414  10.591  2.4718  1.9562  0.7072
  199MOL0     H26222   5.753   7.074  10.543 -0.8572 -0.2441 -0.4820
  199MOL0     H26223   5.716   7.188  10.673 -1.3464  1.5490 -1.7824
  199MOL0     H26224   5.904   7.060  10.701 -2.2761 -1.3582 -1.8547
  199MOL0     H26225   5.931   7.241  10.710  0.6093  1.7417 -2.6854
  199MOL0     H26226   6.046   7.067  10.486 -0.7736  0.7407 -1.0838
  199MOL0     H26227   6.055   7.252  10.518 -2.1464  1.1229  3.0788
  199MOL0     H26228   6.257   7.108  10.600  0.6703  1.7469 -0.6365
  199MOL0     H26229   6.149   7.054  10.732  1.0276 -0.0404 -0.2371
  199MOL0     H26230   6.452   7.141  10.749  1.5077  0.8431  0.9578
  199MOL0     H26231   6.653   7.283  10.751 -1.0434  0.0536 -0.6176
  199MOL0     H26232   6.784   7.826  10.611 -2.7270 -0.6858  0.8043
  199MOL0     H26233   6.987   7.943  10.649 -4.2439  2.8787  0.9047
  199MOL0     H26234   7.103   8.121  10.840  0.0131 -0.6563  2.7185
  199MOL0     H26235   7.181   8.039  10.702 -0.4595 -0.9468 -0.6427
  199MOL0     H26236   7.387   8.016  10.832 -0.8536 -1.7480  0.5463
  199MOL0     H26237   7.309   8.096  10.963  0.7943  1.1375  0.1106
  199MOL0     H26238   7.257   8.298  10.829 -0.8901 -0.7753  1.4146
  199MOL0     H26239   7.314   8.229  10.680  1.7756  2.9816 -0.5781
  199MOL0     H26240   7.485   8.380  10.798  0.2680 -0.1101  0.3556
  199MOL0     H26241   7.509   8.246  10.905 -2.0929  1.6996  0.8610
  199MOL0     H26242   7.614   8.113  10.757 -1.0846 -2.2037 -1.9320
  199MOL0     H26243   7.672   8.278  10.738  0.7730 -0.1842  1.3821
  199MOL0     H26244   7.490   8.278  10.540 -1.0978 -1.5786  1.7266
  199MOL0     H26245   7.492   8.102  10.561 -0.8453 -0.0811  4.5099
  199MOL0     H26246   7.738   8.264  10.500 -1.1939  0.3724  2.0050
  199MOL0     H26247   7.721   8.075  10.507 -2.9452 -1.1166 -0.0274
  199MOL0     H26248   7.721   8.143  10.277 -0.1203  0.1915 -0.9065
  199MOL0     H26249   7.596   8.258  10.317  1.5678 -0.2622 -1.0441
  199MOL0     H26250   7.031   7.774  11.038  0.0389  0.3851 -0.0037
  199MOL0     H26251   6.826   7.651  11.007 -2.8999 -1.4741 -2.8201
  199MOL0     H26252   6.410   7.637  10.702  1.1665 -0.4181 -2.5066
  199MOL0     H26253   6.212   7.489  10.719  1.3432  0.8098 -2.7661
  199MOL0     H26254   5.286   8.410  10.307 -0.4933 -0.0992  0.0142
  199MOL0     H26255   5.312   8.653  10.307 -0.7422  0.7670 -0.4012
  199MOL0     H26256   5.020   9.060  10.267 -0.6198  3.1428 -1.8487
  199MOL0     H26257   5.013   9.300  10.245  1.4448 -1.1826 -2.1852
  199MOL0     H26258   5.028   9.650  10.340 -1.3479  1.2749 -1.4562
  199MOL0     H26259   4.960   9.498  10.267  1.3037  0.2853 -3.1242
  199MOL0     H26260   5.229   9.657  10.227  0.8256  0.8457 -2.7384
  199MOL0     H26261   5.213   9.492  10.173  1.7909  1.2589  0.6612
  199MOL0     H26262   5.170   9.638   9.992 -0.4124 -1.6276  0.1194
  199MOL0     H26263   5.045   9.736  10.086  1.8886  2.0702 -3.5689
  199MOL0     H26264   4.897   9.526  10.086  1.0275 -3.9247  0.1166
  199MOL0     H26265   4.922   9.610   9.937 -1.9488  0.7677  2.7853
  199MOL0     H26266   5.089   9.216   9.906  2.2262  1.0460 -0.1150
  199MOL0     H26267   5.217   9.355  10.606  3.3695 -0.0319 -0.2437
  199MOL0     H26268   5.239   9.113  10.636  0.1354 -0.5225  0.2186
  200MOL0     O26269   5.560   6.606   2.714  0.1298  0.6953 -0.0136
  200MOL0     C26270   5.554   6.724   2.688  0.8559 -0.3678  1.2311
  200MOL0     O26271   5.616   6.832   2.754  0.1415  0.5571  0.3451
  200MOL0     C26272   5.723   6.806   2.838  0.1982 -0.5448  0.1366
  200MOL0     C26273   5.731   6.893   2.952  0.1168  0.2258  0.0302
  200MOL0     C26274   5.840   6.883   3.036 -0.3002  0.0632 -0.2949
  200MOL0     C26275   5.934   6.785   3.014  0.6429 -0.9526 -0.2377
  200MOL0     O26276   6.036   6.798   3.100  0.3788 -1.0179 -0.7859
  200MOL0     C26277   6.151   6.707   3.086  0.3669 -0.2572 -0.0096
  200MOL0     C26278   6.255   6.754   3.182 -0.4731  0.2515 -1.1987
  200MOL0     C26279   6.379   6.664   3.203  1.0723 -0.2521  0.4759
  200MOL0     C26280   6.477   6.760   3.281  0.9396  0.1636 -1.7784
  200MOL0     C26281   6.622   6.694   3.295 -0.7604 -0.8917 -0.6515
  200MOL0     C26282   6.739   6.793   3.330 -0.6031  0.5203 -0.6123
  200MOL0     C26283   6.761   6.911   3.233  0.3837  0.6118  0.9110
  200MOL0     C26284   6.894   6.986   3.262  0.2638  0.3231 -0.0042
  200MOL0     N26285   6.922   7.110   3.196  0.2093  0.2592 -0.0135
  200MOL0     C26286   6.916   7.138   3.062  0.4963  1.0167 -0.0547
  200MOL0     C26287   6.934   7.269   3.047 -0.0624  0.0106  0.8956
  200MOL0     C26288   6.964   7.342   2.918 -0.1955 -0.1445 -0.2348
  200MOL0     C26289   7.107   7.347   2.873 -0.2826 -0.3828  0.3895
  200MOL0     C26290   7.205   7.383   2.976 -0.0029 -0.2733 -0.8873
  200MOL0     C26291   7.177   7.524   3.040 -0.4771 -0.5430  0.1132
  200MOL0     O26292   7.226   7.629   2.948 -0.1756 -0.1706  0.1899
  200MOL0     C26293   7.168   7.752   2.961  1.0233 -0.1847  0.4247
  200MOL0     C26294   7.211   7.849   2.868  0.3728  0.7262 -0.0883
  200MOL0     C26295   7.148   7.974   2.877  0.1494  0.4804 -0.0911
  200MOL0     C26296   7.050   8.003   2.973 -0.0128 -0.2450  0.3422
  200MOL0     C26297   6.993   8.140   2.983  1.0275  0.4556 -0.3262
  200MOL0     O26298   6.900   8.152   3.080 -0.3670  0.6140  0.0062
  200MOL0     C26299   6.825   8.266   3.070 -0.5226 -0.1840  0.7433
  200MOL0     C26300   6.866   8.385   3.116 -0.7122 -0.7017 -0.1223
  200MOL0     C26301   6.793   8.489   3.103  0.4406 -0.6007 -0.3172
  200MOL0     C26302   6.678   8.495   3.023 -0.6883  0.1673 -0.5287
  200MOL0     O26303   6.610   8.612   3.003 -0.0190 -0.2224 -0.5173
  200MOL0     C26304   6.490   8.608   2.932 -0.1372  0.0451  0.2844
  200MOL0     C26305   6.433   8.756   2.925  0.0148 -0.0288 -0.2289
  200MOL0     C26306   6.500   8.844   2.829 -0.0064 -0.5060 -0.3304
  200MOL0     C26307   6.428   8.983   2.800  0.6898  0.6246 -0.3960
  200MOL0     C26308   6.472   9.046   2.668  0.2965 -0.1387 -0.4407
  200MOL0     C26309   6.442   9.196   2.667  0.0988  1.4149 -0.3898
  200MOL0     C26310   6.291   9.242   2.672 -0.3011  0.6802 -0.3285
  200MOL0     C26311   6.267   9.375   2.749 -0.4019 -0.2745 -0.0953
  200MOL0    Cl26312   6.348   9.515   2.663 -0.1370 -0.5660 -0.7105
  200MOL0     C26313   6.642   8.371   2.968  0.3774  0.3569 -0.0924
  200MOL0     C26314   6.716   8.252   2.987 -0.4022 -1.1084 -0.7597
  200MOL0     O26315   7.020   8.223   2.895  0.0120 -0.0542 -0.1739
  200MOL0     C26316   6.999   7.897   3.054 -0.2992 -0.4119  0.2479
  200MOL0     C26317   7.067   7.777   3.053 -0.0678 -0.6825  0.4434
  200MOL0     N26318   6.953   7.318   3.170 -0.0857  0.5936  0.4314
  200MOL0     N26319   6.942   7.232   3.261  0.9467  0.5409 -0.2091
  200MOL0     C26320   5.919   6.695   2.903 -0.1874 -0.2021 -0.9275
  200MOL0     C26321   5.816   6.706   2.808 -0.8222  0.3859 -0.1500
  200MOL0     C26322   5.442   6.767   2.597  0.1444  0.2426 -0.1064
  200MOL0     C26323   5.386   6.891   2.618 -0.5753  0.2079 -0.9192
  200MOL0     C26324   5.273   6.930   2.541  1.1149 -0.0933  0.7142
  200MOL0     C26325   5.226   6.844   2.437 -0.3302 -0.0755 -0.4313
  200MOL0     O26326   5.107   6.858   2.360  0.6592  0.0743  0.1369
  200MOL0     C26327   5.107   6.914   2.225 -0.2069 -0.5688 -0.0206
  200MOL0     C26328   5.002   6.848   2.132 -0.0444 -0.3692 -0.2876
  200MOL0     C26329   5.007   6.696   2.126  1.2550  0.9196 -0.3855
  200MOL0     C26330   4.905   6.641   2.018 -0.3490 -0.0389  0.5827
  200MOL0     C26331   4.769   6.605   2.063  0.3545 -0.7715 -0.7044
  200MOL0     C26332   4.645   6.596   2.088  0.1851  0.1024 -0.6295
  200MOL0     C26333   5.305   6.730   2.411 -0.3821 -0.5001  0.1801
  200MOL0     C26334   5.401   6.684   2.492  0.2993 -0.9099 -1.1999
  200MOL0     H26335   5.660   6.974   2.967  0.9778  0.9336  0.4149
  200MOL0     H26336   5.858   6.943   3.124 -0.4612  2.3065 -1.7178
  200MOL0     H26337   6.193   6.712   2.985 -2.7708  2.1459 -1.3785
  200MOL0     H26338   6.117   6.607   3.112 -1.0458  0.7024  2.0956
  200MOL0     H26339   6.198   6.764   3.275  1.3632 -1.8774  0.2489
  200MOL0     H26340   6.277   6.859   3.159  1.6195  0.8954  2.8878
  200MOL0     H26341   6.428   6.624   3.114  1.0215 -0.3039  0.4719
  200MOL0     H26342   6.358   6.578   3.267  1.1125  0.4469  1.4452
  200MOL0     H26343   6.479   6.857   3.232  3.2575  1.6271  0.8741
  200MOL0     H26344   6.435   6.785   3.379  0.7641 -1.6266 -1.3596
  200MOL0     H26345   6.640   6.650   3.196  1.3363 -2.3997  0.3251
  200MOL0     H26346   6.619   6.611   3.366 -1.1951  1.1748  1.8864
  200MOL0     H26347   6.824   6.727   3.351 -1.3942 -0.5930 -0.7876
  200MOL0     H26348   6.714   6.828   3.431 -0.8709 -3.1395  0.7321
  200MOL0     H26349   6.772   6.874   3.131 -3.2850  0.3291  0.4979
  200MOL0     H26350   6.681   6.986   3.237 -0.1059  0.1039  0.7784
  200MOL0     H26351   6.983   6.924   3.243 -0.2629  0.0355 -1.7670
  200MOL0     H26352   6.881   7.003   3.369 -1.9142  1.6535 -0.4115
  200MOL0     H26353   6.901   7.065   2.983  1.9338  1.0747 -0.4077
  200MOL0     H26354   6.917   7.440   2.910 -0.1994 -0.1819 -0.7023
  200MOL0     H26355   6.906   7.292   2.840  1.1371 -2.1496 -0.0049
  200MOL0     H26356   7.116   7.419   2.791 -2.6623  0.0239  0.4027
  200MOL0     H26357   7.125   7.251   2.825  0.3570 -0.2074  0.2733
  200MOL0     H26358   7.212   7.315   3.061  0.6062  1.4042  0.4571
  200MOL0     H26359   7.307   7.387   2.935  0.4229 -2.6358 -0.2135
  200MOL0     H26360   7.230   7.532   3.135 -0.2524  0.6378 -0.1013
  200MOL0     H26361   7.072   7.534   3.067  0.3283  2.1424  2.7736
  200MOL0     H26362   7.288   7.819   2.798 -0.5022 -0.4506 -0.5760
  200MOL0     H26363   7.185   8.048   2.807 -0.9680 -0.6613 -1.9653
  200MOL0     H26364   6.963   8.383   3.165 -0.4115 -0.1710 -0.6955
  200MOL0     H26365   6.812   8.587   3.146  0.0609 -0.6928  0.0716
  200MOL0     H26366   6.408   8.560   2.986  0.4545  0.0251  1.1994
  200MOL0     H26367   6.497   8.561   2.834  1.4927  2.1820 -0.6986
  200MOL0     H26368   6.439   8.805   3.023  2.2022 -0.8713  0.1245
  200MOL0     H26369   6.329   8.733   2.901  0.1265 -0.0919 -0.6529
  200MOL0     H26370   6.510   8.797   2.731 -1.7868  3.8758 -2.9098
  200MOL0     H26371   6.601   8.878   2.856 -0.9027  1.5978  0.5964
  200MOL0     H26372   6.322   8.953   2.793  1.0077 -0.5541 -0.4979
  200MOL0     H26373   6.443   9.054   2.881  1.5112 -0.3839  0.3616
  200MOL0     H26374   6.418   9.002   2.584 -3.2854 -2.3757  2.7082
  200MOL0     H26375   6.581   9.043   2.675  0.2030 -0.0561  1.4798
  200MOL0     H26376   6.492   9.250   2.586 -2.0975  2.6294 -1.0201
  200MOL0     H26377   6.482   9.237   2.761 -0.7862  0.4971  0.4139
  200MOL0     H26378   6.254   9.245   2.569 -1.3170  1.2179  0.0353
  200MOL0     H26379   6.224   9.165   2.713  0.6745  1.1556  2.3055
  200MOL0     H26380   6.301   9.375   2.853 -1.6431 -1.6281  0.3326
  200MOL0     H26381   6.160   9.394   2.755 -0.4034  0.2439 -1.5379
  200MOL0     H26382   6.558   8.361   2.899 -0.2571  1.2669  0.5302
  200MOL0     H26383   6.710   8.158   2.932  1.8085 -1.3675 -0.6409
  200MOL0     H26384   6.912   7.920   3.115  0.9089  2.4773  1.0449
  200MOL0     H26385   7.032   7.705   3.126 -2.1783 -0.5398 -0.3501
  200MOL0     H26386   5.999   6.625   2.882 -0.9301 -1.4663  0.2959
  200MOL0     H26387   5.825   6.649   2.717  3.6323  0.9355 -0.2806
  200MOL0     H26388   5.431   6.960   2.688 -1.8822 -1.9308  2.2585
  200MOL0     H26389   5.211   7.014   2.568  1.6820  0.6807 -0.3193
  200MOL0     H26390   5.203   6.900   2.173 -0.5458  3.0310 -1.9449
  200MOL0     H26391   5.095   7.022   2.232  2.8313 -0.1975  0.8137
  200MOL0     H26392   4.904   6.881   2.168  0.5230  0.1800  0.8188
  200MOL0     H26393   5.033   6.893   2.037  2.9909 -2.0463 -0.2147
  200MOL0     H26394   4.980   6.639   2.215 -0.5696 -0.3004 -1.6501
  200MOL0     H26395   5.110   6.666   2.103  1.6725  1.3963  0.7946
  200MOL0     H26396   4.895   6.718   1.941  0.0567 -0.8029 -0.2569
  200MOL0     H26397   4.951   6.559   1.961  1.4698  3.2619 -3.1432
  200MOL0     H26398   4.539   6.590   2.105  0.5118 -1.3370  1.1730
  200MOL0     H26399   5.268   6.656   2.340 -3.8605 -0.8433  2.1150
  200MOL0     H26400   5.457   6.591   2.485  0.9467 -0.5147 -1.3870
  201MOL0     O26401   8.705   7.937   0.163  0.2656 -0.8005  0.1218
  201MOL0     C26402   8.753   7.829   0.148 -0.4830  0.5727 -0.2325
  201MOL0     O26403   8.752   7.756   0.025 -0.3930  0.0406  0.1626
  201MOL0     C26404   8.733   7.832  -0.086  0.9521  0.1317 -1.1700
  201MOL0     C26405   8.641   7.788  -0.185 -0.0147  0.4640  0.0375
  201MOL0     C26406   8.644   7.857  -0.313  0.3669  0.5537  0.3509
  201MOL0     C26407   8.728   7.963  -0.339 -0.2971 -0.8642  0.3211
  201MOL0     O26408   8.730   8.032  -0.463 -0.5821  0.2853 -0.7175
  201MOL0     C26409   8.719   7.950  -0.585 -0.0842 -0.0854 -0.6756
  201MOL0     C26410   8.779   8.026  -0.708  1.2049  0.4345 -0.0937
  201MOL0     C26411   8.676   8.127  -0.758  0.2871 -0.5240 -0.8249
  201MOL0     C26412   8.735   8.244  -0.845  0.6552  0.5194 -0.0198
  201MOL0     C26413   8.631   8.359  -0.843 -0.8305  0.1457  0.2730
  201MOL0     C26414   8.668   8.475  -0.932  0.0668  0.4808  0.5017
  201MOL0     C26415   8.566   8.583  -0.947 -0.8081 -0.9460  0.5213
  201MOL0     C26416   8.532   8.657  -0.818 -0.1704  0.0370  0.3091
  201MOL0     N26417   8.649   8.718  -0.747 -0.0277 -0.4315 -0.3362
  201MOL0     C26418   8.646   8.739  -0.614  0.2661  0.8572  0.5473
  201MOL0     C26419   8.764   8.803  -0.581  0.4126 -0.0302 -0.5370
  201MOL0     C26420   8.805   8.878  -0.457 -0.3956 -0.3072  0.9790
  201MOL0     C26421   8.861   9.020  -0.477  1.0688 -0.7346  0.3278
  201MOL0     C26422   8.752   9.108  -0.546 -0.8409 -0.1520  0.4808
  201MOL0     C26423   8.653   9.167  -0.443 -0.5598  0.7306 -0.1370
  201MOL0     O26424   8.535   9.211  -0.507 -0.0941  0.6562  0.5163
  201MOL0     C26425   8.439   9.292  -0.446  0.3770  0.8141  0.5551
  201MOL0     C26426   8.435   9.325  -0.307  0.3240 -0.5790  0.5170
  201MOL0     C26427   8.340   9.400  -0.253  0.9027 -0.1756  0.4423
  201MOL0     C26428   8.235   9.458  -0.333 -0.3889  0.8794  0.4327
  201MOL0     C26429   8.143   9.549  -0.274  0.6508  0.2890 -0.3564
  201MOL0     O26430   8.082   9.640  -0.353  0.5153 -0.3135  0.2795
  201MOL0     C26431   7.987   9.720  -0.307 -0.3645  0.3254 -0.7034
  201MOL0     C26432   7.973   9.759  -0.169  0.6555  0.6874  0.5150
  201MOL0     C26433   7.854   9.806  -0.131  1.0497  0.4338 -0.8372
  201MOL0     C26434   7.756   9.852  -0.219  0.3213  0.0583  0.5504
  201MOL0     O26435   7.649   9.932  -0.184 -0.1951  0.1398  0.2947
  201MOL0     C26436   7.603   9.938  -0.045 -0.3475  0.1145 -0.7212
  201MOL0     C26437   7.478  10.017  -0.067 -0.4437 -0.5259 -0.2629
  201MOL0     C26438   7.424  10.076   0.064  0.9253 -0.0508 -0.5762
  201MOL0     C26439   7.289  10.139   0.054  0.3666  0.5500 -0.4602
  201MOL0     C26440   7.256  10.220   0.177  0.3378  1.0523  0.6350
  201MOL0     C26441   7.255  10.144   0.305 -0.3077  0.2018 -0.6246
  201MOL0     C26442   7.210  10.243   0.415  0.4050 -0.6287  0.0526
  201MOL0     C26443   7.326  10.342   0.441 -0.8036 -0.4604  0.1663
  201MOL0    Cl26444   7.324  10.444   0.581  0.6150  0.0744 -0.3944
  201MOL0     C26445   7.772   9.825  -0.359 -0.5744 -0.3287  0.4219
  201MOL0     C26446   7.886   9.754  -0.393 -0.5341 -0.1024 -0.1199
  201MOL0     O26447   8.139   9.533  -0.148  0.2546  0.4478 -0.5604
  201MOL0     C26448   8.231   9.428  -0.479  0.0194  0.6376 -0.4058
  201MOL0     C26449   8.330   9.338  -0.528  0.5025 -0.2447  0.6330
  201MOL0     N26450   8.828   8.823  -0.696 -0.1531 -0.6223 -0.0877
  201MOL0     N26451   8.771   8.757  -0.795  0.1062 -0.0693  0.8141
  201MOL0     C26452   8.813   8.005  -0.236  0.6777  0.2832  0.4276
  201MOL0     C26453   8.811   7.940  -0.115 -0.9775  1.3237 -0.0203
  201MOL0     C26454   8.808   7.755   0.260 -0.0503 -0.0197 -0.1636
  201MOL0     C26455   8.798   7.804   0.395 -0.0237 -0.1204 -0.3324
  201MOL0     C26456   8.843   7.738   0.509 -0.8341  0.5541  0.1445
  201MOL0     C26457   8.900   7.606   0.492 -0.1139 -0.8484 -1.1647
  201MOL0     O26458   8.931   7.544   0.611  0.1190  0.9788  0.7630
  201MOL0     C26459   8.966   7.406   0.608 -0.2056  0.0599 -0.7140
  201MOL0     C26460   8.981   7.346   0.746 -0.0342  0.0966  1.0084
  201MOL0     C26461   8.896   7.412   0.847  0.7208 -0.3252 -0.5107
  201MOL0     C26462   8.910   7.336   0.980 -0.3483 -0.5985 -0.2427
  201MOL0     C26463   8.807   7.227   0.991 -0.3530  0.4621  1.1517
  201MOL0     C26464   8.725   7.139   0.989  0.3392  0.8359 -0.5912
  201MOL0     C26465   8.921   7.560   0.358  0.6582 -0.3948  0.3546
  201MOL0     C26466   8.873   7.629   0.249  1.0390 -0.3396 -1.1011
  201MOL0     H26467   8.582   7.698  -0.173  2.5148 -0.9829  3.3088
  201MOL0     H26468   8.583   7.824  -0.396  1.2817 -0.6391  0.1335
  201MOL0     H26469   8.613   7.932  -0.606 -0.0117 -0.2928 -0.8713
  201MOL0     H26470   8.781   7.861  -0.574  1.0732  0.4219 -2.5881
  201MOL0     H26471   8.817   7.949  -0.776  0.8393  0.2798 -0.1259
  201MOL0     H26472   8.871   8.075  -0.675 -1.3519  4.0148  2.4238
  201MOL0     H26473   8.629   8.176  -0.672  0.2438 -1.1747 -0.4768
  201MOL0     H26474   8.600   8.065  -0.808  2.2645 -3.7497 -0.1069
  201MOL0     H26475   8.837   8.261  -0.810 -0.0213 -1.0435  3.0274
  201MOL0     H26476   8.737   8.211  -0.950  3.5543  2.8040 -0.8210
  201MOL0     H26477   8.622   8.398  -0.741 -1.4024 -0.8237  0.6012
  201MOL0     H26478   8.531   8.324  -0.869 -0.5025 -0.3493 -0.3595
  201MOL0     H26479   8.697   8.441  -1.032  0.4118  0.3798  0.6322
  201MOL0     H26480   8.758   8.521  -0.890  0.8816  2.1430 -2.7212
  201MOL0     H26481   8.591   8.661  -1.020 -0.7555  0.0663  1.5884
  201MOL0     H26482   8.482   8.529  -0.991 -3.0394 -0.8494  4.2403
  201MOL0     H26483   8.479   8.589  -0.750 -0.3152  0.0689  0.2275
  201MOL0     H26484   8.453   8.727  -0.845  1.1134  1.6600  0.6132
  201MOL0     H26485   8.565   8.720  -0.544 -4.3626 -0.4813 -4.5210
  201MOL0     H26486   8.885   8.823  -0.407  1.4870  0.3765 -1.1045
  201MOL0     H26487   8.717   8.882  -0.392  0.8759 -0.9052  2.8113
  201MOL0     H26488   8.953   9.019  -0.537  0.4193  0.0163 -0.7261
  201MOL0     H26489   8.879   9.076  -0.385  1.8895  0.6994 -0.6531
  201MOL0     H26490   8.793   9.194  -0.599  0.1709  0.3615  2.0231
  201MOL0     H26491   8.702   9.042  -0.618 -0.0003 -0.6741  0.3621
  201MOL0     H26492   8.689   9.255  -0.389 -1.4050  1.6766 -1.0806
  201MOL0     H26493   8.613   9.100  -0.366 -1.8575  1.9371  0.2837
  201MOL0     H26494   8.514   9.286  -0.243  0.2521 -0.1852  0.8500
  201MOL0     H26495   8.333   9.405  -0.145 -2.0538  0.9988  0.3040
  201MOL0     H26496   8.040   9.756  -0.084  1.6234 -0.5018 -0.2469
  201MOL0     H26497   7.849   9.818  -0.023 -1.4928 -1.2784 -0.6744
  201MOL0     H26498   7.682   9.991   0.009 -0.9914  0.7073 -0.3436
  201MOL0     H26499   7.588   9.838  -0.004  0.5154  0.2335 -0.1032
  201MOL0     H26500   7.404   9.945  -0.104  2.3004 -2.4507 -2.3663
  201MOL0     H26501   7.499  10.096  -0.140  2.1327 -0.8617  0.0418
  201MOL0     H26502   7.495  10.151   0.100  3.1284 -1.8857 -0.8433
  201MOL0     H26503   7.423   9.997   0.139 -1.5522  0.8414  0.4354
  201MOL0     H26504   7.281  10.202  -0.035 -4.0645  1.1022  0.0627
  201MOL0     H26505   7.221  10.052   0.048  2.1566 -0.8382 -1.7115
  201MOL0     H26506   7.155  10.259   0.162 -1.0082 -2.4348 -0.3336
  201MOL0     H26507   7.333  10.298   0.183 -0.2316  1.5932  0.9074
  201MOL0     H26508   7.354  10.100   0.320 -1.0577 -0.2642  5.4840
  201MOL0     H26509   7.182  10.064   0.295  0.1614 -0.0906 -1.9042
  201MOL0     H26510   7.122  10.298   0.382  0.4337 -1.2912 -1.1830
  201MOL0     H26511   7.200  10.216   0.520  1.5474  1.7072  0.8476
  201MOL0     H26512   7.342  10.414   0.360 -0.5541  0.7792  1.2786
  201MOL0     H26513   7.422  10.288   0.446 -0.1528  0.4701 -1.4973
  201MOL0     H26514   7.709   9.861  -0.439  0.8031  3.4206  0.8465
  201MOL0     H26515   7.898   9.715  -0.493 -0.2054  2.1211 -0.9959
  201MOL0     H26516   8.156   9.462  -0.549 -1.2239  0.7674  0.9514
  201MOL0     H26517   8.337   9.315  -0.634  0.3825 -2.1754  0.9979
  201MOL0     H26518   8.882   8.087  -0.256 -0.5946  1.7495  1.7221
  201MOL0     H26519   8.867   7.995  -0.041 -0.7070 -0.3783  1.0799
  201MOL0     H26520   8.749   7.899   0.418  1.0289  0.3524  0.0347
  201MOL0     H26521   8.828   7.773   0.610  1.0183 -1.2331  1.1134
  201MOL0     H26522   9.064   7.387   0.566  0.0504  0.6937 -0.4235
  201MOL0     H26523   8.888   7.351   0.554  1.5247 -1.3652 -1.8669
  201MOL0     H26524   8.966   7.237   0.742  0.8483  0.0084 -1.4931
  201MOL0     H26525   9.084   7.366   0.775 -0.3349  1.4713  1.1655
  201MOL0     H26526   8.790   7.420   0.819  0.4460 -2.3037 -0.1622
  201MOL0     H26527   8.936   7.513   0.856 -2.1376  0.7739  1.4033
  201MOL0     H26528   9.013   7.303   0.993  1.1760  3.3155 -0.8689
  201MOL0     H26529   8.888   7.410   1.058  0.7383 -0.1684 -0.3335
  201MOL0     H26530   8.660   7.056   1.007 -0.9826  1.9724  0.0845
  201MOL0     H26531   8.972   7.467   0.340  2.4916 -0.0415  3.0649
  201MOL0     H26532   8.872   7.586   0.149 -1.4160 -2.8744 -0.1189
  202MOL0     O26533  11.380  11.010   4.311  0.3499 -1.0096 -0.0337
  202MOL0     C26534  11.323  11.090   4.235  0.6862  0.5816  0.3004
  202MOL0     O26535  11.295  11.217   4.268  0.1558  0.1438  0.7922
  202MOL0     C26536  11.356  11.259   4.383  0.2518  0.1059  0.1485
  202MOL0     C26537  11.490  11.258   4.404 -0.7370  1.2319 -0.5423
  202MOL0     C26538  11.542  11.308   4.525  0.0168 -0.4959  1.2874
  202MOL0     C26539  11.459  11.379   4.611  0.0811 -0.4831 -0.6509
  202MOL0     O26540  11.523  11.431   4.727 -0.3913 -0.2344  0.0697
  202MOL0     C26541  11.563  11.568   4.708 -0.3554  1.0765 -0.6566
  202MOL0     C26542  11.446  11.655   4.751  0.6548 -0.2089  0.2599
  202MOL0     C26543  11.397  11.634   4.893  0.5261  0.2570  0.0215
  202MOL0     C26544  11.267  11.717   4.925  0.3691 -0.0252 -0.3995
  202MOL0     C26545  11.203  11.672   5.063  1.1422  0.3341  0.1261
  202MOL0     C26546  11.050  11.689   5.044 -0.3280 -0.9572  0.1286
  202MOL0     C26547  11.011  11.832   5.004 -0.7291  0.0335  0.1231
  202MOL0     C26548  10.863  11.858   4.988 -0.8781  0.4106  0.0333
  202MOL0     N26549  10.803  11.907   5.118 -0.1534 -0.2543 -0.2343
  202MOL0     C26550  10.830  11.856   5.245  0.0530 -0.1805  0.2853
  202MOL0     C26551  10.793  11.961   5.327 -0.3793  0.3150  0.7576
  202MOL0     C26552  10.767  11.949   5.473 -0.2284 -0.3148  0.0746
  202MOL0     C26553  10.619  11.947   5.492  0.5738  1.0494  0.9712
  202MOL0     C26554  10.573  11.927   5.634  0.2719 -0.1946 -0.1395
  202MOL0     C26555  10.427  11.894   5.661  0.6484 -0.5613 -0.2970
  202MOL0     O26556  10.413  11.874   5.805  0.4480  0.4995 -0.9880
  202MOL0     C26557  10.287  11.852   5.845  0.0834 -0.5508 -0.5265
  202MOL0     C26558  10.271  11.767   5.958  0.3390  0.0356 -0.1345
  202MOL0     C26559  10.143  11.727   6.000 -0.9139 -1.4556  0.2279
  202MOL0     C26560  10.020  11.768   5.932  0.1345  0.5898  0.5294
  202MOL0     C26561   9.881  11.715   5.958  0.3024 -0.9343 -0.5036
  202MOL0     O26562   9.872  11.594   6.019  0.1567 -0.0455  1.1301
  202MOL0     C26563   9.747  11.534   6.000 -1.0794 -0.1696  0.0609
  202MOL0     C26564   9.726  11.444   5.892  0.1040  0.7296  0.2267
  202MOL0     C26565   9.619  11.355   5.887  1.1246 -0.3333 -0.2493
  202MOL0     C26566   9.523  11.346   5.992  0.7713 -0.6409  0.2728
  202MOL0     O26567   9.409  11.270   5.975  0.0478 -0.1946  0.2717
  202MOL0     C26568   9.286  11.332   6.013 -0.0054  0.0183  0.0862
  202MOL0     C26569   9.183  11.258   5.930 -0.7395  0.2792 -0.7967
  202MOL0     C26570   9.040  11.322   5.943 -0.0816 -0.8966  0.4127
  202MOL0     C26571   8.929  11.224   5.900  0.7259  0.1362  0.4870
  202MOL0     C26572   8.792  11.293   5.851  0.0194 -0.0953 -0.6224
  202MOL0     C26573   8.700  11.318   5.966 -0.0747  0.5986 -0.7243
  202MOL0     C26574   8.607  11.192   6.002 -0.8573 -0.7113 -0.0278
  202MOL0     C26575   8.535  11.219   6.136  0.0993  0.2062 -0.0055
  202MOL0    Cl26576   8.383  11.311   6.082 -0.2062  0.0024 -0.0598
  202MOL0     C26577   9.546  11.438   6.101 -0.0967 -0.8154 -0.6735
  202MOL0     C26578   9.660  11.522   6.106  0.2170 -1.3369  0.1375
  202MOL0     O26579   9.792  11.795   5.935 -0.0711  0.6734  0.7319
  202MOL0     C26580  10.035  11.865   5.828 -0.3230  0.0362 -0.2030
  202MOL0     C26581  10.168  11.900   5.792 -0.3832  0.2609  0.2943
  202MOL0     N26582  10.759  12.076   5.255 -0.4860  0.0569 -0.4428
  202MOL0     N26583  10.763  12.038   5.133  0.9419 -0.0347 -0.3603
  202MOL0     C26584  11.328  11.378   4.590  0.3995 -0.3655  0.7573
  202MOL0     C26585  11.276  11.316   4.474  0.4491 -0.5448  0.1720
  202MOL0     C26586  11.273  11.036   4.113 -0.2057  0.1635  0.3462
  202MOL0     C26587  11.172  11.097   4.044  0.8135 -0.7951  0.2750
  202MOL0     C26588  11.116  11.036   3.929  0.2312  0.2692  0.3797
  202MOL0     C26589  11.166  10.913   3.888 -0.4895  1.0522 -1.4480
  202MOL0     O26590  11.107  10.873   3.771  0.2391  0.4519 -0.7465
  202MOL0     C26591  11.109  10.744   3.720 -0.7255 -0.3460  0.5776
  202MOL0     C26592  11.019  10.719   3.603  0.8529  0.2524  1.4352
  202MOL0     C26593  10.890  10.783   3.628  0.1005 -0.2628  0.2343
  202MOL0     C26594  10.786  10.750   3.518 -0.2577 -0.4581  0.1194
  202MOL0     C26595  10.677  10.843   3.542 -0.2535 -0.1367  0.2212
  202MOL0     C26596  10.583  10.919   3.560 -1.1815 -0.1600 -0.3039
  202MOL0     C26597  11.273  10.848   3.955 -0.0058  0.6027  0.3143
  202MOL0     C26598  11.322  10.914   4.063  0.4250  0.8882 -0.6885
  202MOL0     H26599  11.554  11.221   4.325  0.4849 -0.1464  1.0281
  202MOL0     H26600  11.648  11.291   4.542  0.2884  0.3203  0.4695
  202MOL0     H26601  11.588  11.588   4.604  0.1632  3.0250 -0.2144
  202MOL0     H26602  11.646  11.582   4.777 -0.2475  1.6490 -0.8951
  202MOL0     H26603  11.374  11.637   4.671 -0.4368  2.6876  0.4726
  202MOL0     H26604  11.468  11.762   4.745 -2.0327  0.5469  2.0413
  202MOL0     H26605  11.475  11.660   4.966 -0.7144  2.6045  0.5865
  202MOL0     H26606  11.365  11.531   4.912  0.5337  0.0614 -0.9816
  202MOL0     H26607  11.281  11.825   4.922 -0.4926  0.2226  2.1876
  202MOL0     H26608  11.203  11.686   4.842  1.8910 -0.9310 -1.2892
  202MOL0     H26609  11.225  11.727   5.155 -3.8194  1.4241  0.9316
  202MOL0     H26610  11.217  11.564   5.070  1.7869  0.2610 -1.6883
  202MOL0     H26611  10.992  11.653   5.130  2.7574 -1.7608  2.0396
  202MOL0     H26612  11.034  11.618   4.962 -1.7138 -1.5491  0.8618
  202MOL0     H26613  11.046  11.897   5.084 -1.1117  2.3233 -1.4738
  202MOL0     H26614  11.063  11.860   4.912  1.7175 -1.5531  0.9029
  202MOL0     H26615  10.805  11.772   4.953 -0.5849  0.8513 -1.6113
  202MOL0     H26616  10.849  11.935   4.912 -1.0162 -1.6736 -2.1609
  202MOL0     H26617  10.856  11.756   5.277 -5.7152 -0.9051  4.3160
  202MOL0     H26618  10.817  12.032   5.524  0.9405  0.1497 -1.7394
  202MOL0     H26619  10.800  11.853   5.514 -1.9230 -1.2346 -0.6349
  202MOL0     H26620  10.581  11.868   5.427 -1.1677  1.0319  1.9384
  202MOL0     H26621  10.572  12.035   5.447 -0.5535  0.8179  1.6535
  202MOL0     H26622  10.640  11.854   5.681 -0.9494 -0.2422  1.6396
  202MOL0     H26623  10.595  12.019   5.691 -1.2316  1.3211 -1.9018
  202MOL0     H26624  10.407  11.801   5.607  2.4169 -1.5691  0.6828
  202MOL0     H26625  10.360  11.969   5.618 -0.2438 -0.6144  0.9408
  202MOL0     H26626  10.365  11.736   6.003  1.1064  3.4425  0.9093
  202MOL0     H26627  10.145  11.654   6.081  2.4386 -0.6532  1.0406
  202MOL0     H26628   9.799  11.445   5.812 -1.2455 -2.6863 -1.2786
  202MOL0     H26629   9.596  11.309   5.792 -2.1686 -2.6643  1.4526
  202MOL0     H26630   9.279  11.441   6.006  0.5225  0.3221  3.0294
  202MOL0     H26631   9.270  11.320   6.121  1.1216  2.5798  0.6112
  202MOL0     H26632   9.168  11.154   5.961 -1.5221  0.9681  1.2807
  202MOL0     H26633   9.216  11.267   5.826 -1.5340  1.0593 -0.9959
  202MOL0     H26634   9.043  11.403   5.870 -2.6674  1.5562  2.7365
  202MOL0     H26635   9.040  11.372   6.041 -1.4119  1.4098 -0.6587
  202MOL0     H26636   8.966  11.154   5.825 -3.3619  0.9850 -2.7259
  202MOL0     H26637   8.905  11.158   5.984 -0.3544  1.4740  1.2885
  202MOL0     H26638   8.749  11.239   5.766  2.0295 -2.1389 -0.4544
  202MOL0     H26639   8.827  11.387   5.807  2.9216 -1.1565 -0.8465
  202MOL0     H26640   8.634  11.403   5.947  0.8569  1.3703 -0.5662
  202MOL0     H26641   8.765  11.335   6.052 -1.3501  1.6002  0.0922
  202MOL0     H26642   8.540  11.170   5.919  0.5520  0.8608 -1.6565
  202MOL0     H26643   8.678  11.109   6.013  1.0426  0.3899 -2.8111
  202MOL0     H26644   8.600  11.290   6.188  1.3553  0.8716 -2.3236
  202MOL0     H26645   8.498  11.135   6.195 -1.0926 -0.1477 -1.2112
  202MOL0     H26646   9.481  11.439   6.188  0.4392 -0.3573 -0.2699
  202MOL0     H26647   9.674  11.584   6.195 -0.5974  0.8860 -1.2074
  202MOL0     H26648   9.947  11.893   5.771 -1.3432 -0.7822  0.9088
  202MOL0     H26649  10.176  11.974   5.713  1.0517 -1.1286 -0.9263
  202MOL0     H26650  11.267  11.436   4.658  1.3135 -1.2996  2.4498
  202MOL0     H26651  11.173  11.332   4.441  0.4275 -0.7338  0.1443
  202MOL0     H26652  11.132  11.195   4.068 -0.7930 -0.7519 -2.2142
  202MOL0     H26653  11.034  11.075   3.870 -0.0281 -0.6686  0.1072
  202MOL0     H26654  11.104  10.677   3.806  3.6664  0.1229  1.4426
  202MOL0     H26655  11.211  10.729   3.682 -0.7636  0.8354 -0.0496
  202MOL0     H26656  11.071  10.768   3.520 -0.6237 -0.5971 -0.0455
  202MOL0     H26657  11.019  10.610   3.589 -1.2966  0.1499  1.8942
  202MOL0     H26658  10.896  10.890   3.649 -0.8111  0.0447 -1.0061
  202MOL0     H26659  10.848  10.741   3.720  0.5149 -0.4334  0.3461
  202MOL0     H26660  10.827  10.751   3.416 -0.3820 -0.3984  0.0706
  202MOL0     H26661  10.751  10.646   3.515  1.1435 -0.9675 -2.6203
  202MOL0     H26662  10.502  10.979   3.595 -1.3359  0.3935 -1.5739
  202MOL0     H26663  11.314  10.755   3.916  0.1508  0.9253 -0.2953
  202MOL0     H26664  11.400  10.863   4.119 -0.1995  1.8416  1.1391
  203MOL0     O26665   3.878   8.589   8.671  0.2139 -0.1668 -0.2278
  203MOL0     C26666   3.893   8.706   8.682  0.2847 -0.5375  0.6997
  203MOL0     O26667   3.898   8.776   8.795 -0.0626  0.8998 -0.1189
  203MOL0     C26668   3.895   8.706   8.915 -0.6096 -0.6214  1.3394
  203MOL0     C26669   3.809   8.747   9.014 -0.4433 -0.4306 -1.1148
  203MOL0     C26670   3.822   8.697   9.138  0.2240  0.3104 -0.1292
  203MOL0     C26671   3.921   8.604   9.168  0.2538  0.9980  0.0101
  203MOL0     O26672   3.930   8.546   9.288 -0.3452  0.5666  0.0008
  203MOL0     C26673   3.839   8.584   9.399 -0.1409  1.2782  0.3827
  203MOL0     C26674   3.887   8.710   9.474 -0.1145 -0.5035  0.1517
  203MOL0     C26675   3.809   8.712   9.601  1.3572  0.1622 -0.3365
  203MOL0     C26676   3.836   8.835   9.677  0.4204  0.5953  0.2341
  203MOL0     C26677   3.755   8.825   9.814  0.2007  0.6419 -0.0194
  203MOL0     C26678   3.788   8.942   9.896  0.6047 -0.4894 -0.5462
  203MOL0     C26679   3.705   8.929  10.023  0.6465 -0.1329 -0.0960
  203MOL0     C26680   3.735   9.037  10.122 -0.8672 -0.2718  0.8345
  203MOL0     N26681   3.878   9.045  10.168  0.5465  0.8012  0.1977
  203MOL0     C26682   3.973   9.136  10.139 -0.6875  0.3506  0.0877
  203MOL0     C26683   4.088   9.092  10.195 -0.4559  0.0220 -0.9129
  203MOL0     C26684   4.223   9.153  10.167 -0.8793  0.1056  0.7878
  203MOL0     C26685   4.315   9.166  10.291  1.0080 -0.2782  1.0782
  203MOL0     C26686   4.455   9.210  10.256 -0.9383 -0.0515  0.6685
  203MOL0     C26687   4.539   9.208  10.389 -0.1877  0.1477  0.9595
  203MOL0     O26688   4.683   9.213  10.385 -0.8583  0.4239 -0.0329
  203MOL0     C26689   4.755   9.283  10.487 -0.0632  0.7718  0.0948
  203MOL0     C26690   4.855   9.221  10.572  0.5010  0.0942 -0.0903
  203MOL0     C26691   4.922   9.269  10.679  0.0880  0.6826 -0.4958
  203MOL0     C26692   4.896   9.408  10.709 -0.6032  0.2905  1.2300
  203MOL0     C26693   4.957   9.454  10.827  0.3146  0.1187 -1.1950
  203MOL0     O26694   5.079   9.404  10.860  0.6502  0.1011 -0.1787
  203MOL0     C26695   5.150   9.438  10.970 -0.3952  0.5886 -0.5120
  203MOL0     C26696   5.279   9.503  10.962  0.1700 -0.1836 -0.9794
  203MOL0     C26697   5.353   9.532  11.077 -0.2459  0.1636  0.9406
  203MOL0     C26698   5.292   9.489  11.200  0.2930 -0.6814 -0.2528
  203MOL0     O26699   5.370   9.521  11.312 -0.4051  0.5638  0.0901
  203MOL0     C26700   5.303   9.625  11.382  0.3376  0.5633 -0.4521
  203MOL0     C26701   5.388   9.658  11.507 -0.3427  0.1864  0.6462
  203MOL0     C26702   5.313   9.748  11.611  0.0989 -0.2411 -0.3985
  203MOL0     C26703   5.414   9.803  11.707  0.3576  1.1423 -0.4734
  203MOL0     C26704   5.340   9.859  11.824  0.2984  0.0737 -0.2454
  203MOL0     C26705   5.411   9.936  11.937 -0.5806  0.0178  1.0386
  203MOL0     C26706   5.500  10.042  11.865  0.0269 -0.1770  0.3902
  203MOL0     C26707   5.542  10.138  11.971 -0.5678  0.0961 -0.0040
  203MOL0    Cl26708   5.623  10.067  12.114 -0.0779  0.3072 -0.3044
  203MOL0     C26709   5.166   9.426  11.210 -0.4274  0.3583 -1.0225
  203MOL0     C26710   5.094   9.413  11.095  0.4868  0.2520  0.9633
  203MOL0     O26711   4.895   9.544  10.887 -0.2985 -0.7034  0.0301
  203MOL0     C26712   4.804   9.475  10.626  0.6329 -0.3065 -0.2846
  203MOL0     C26713   4.737   9.419  10.518  0.7142  0.3579 -0.0774
  203MOL0     N26714   4.057   8.978  10.268  0.2807 -0.0203 -0.4253
  203MOL0     N26715   3.928   8.954  10.248  0.9573 -0.5660 -0.8989
  203MOL0     C26716   4.005   8.559   9.065 -0.3617 -0.5230 -0.6654
  203MOL0     C26717   3.979   8.604   8.940 -0.9109  0.8475  0.0751
  203MOL0     C26718   3.916   8.780   8.547 -0.2702 -0.5509  0.0796
  203MOL0     C26719   3.947   8.910   8.554 -0.1289  0.2268  0.1811
  203MOL0     C26720   3.965   8.983   8.434 -0.1762  0.2161 -0.7639
  203MOL0     C26721   3.942   8.923   8.308 -0.4323 -0.0149  0.1678
  203MOL0     O26722   3.944   9.006   8.201 -0.0086  0.3994  0.2161
  203MOL0     C26723   3.944   8.956   8.068 -0.3952  0.2730 -0.1504
  203MOL0     C26724   3.905   9.062   7.965 -0.0322 -0.4819  0.8002
  203MOL0     C26725   4.033   9.133   7.916  0.1734 -0.0020 -0.7085
  203MOL0     C26726   4.009   9.238   7.807  0.1478  1.3892 -0.2469
  203MOL0     C26727   3.890   9.322   7.846  0.2180 -0.0290  0.0549
  203MOL0     C26728   3.794   9.386   7.881 -0.2345 -0.1711 -0.7910
  203MOL0     C26729   3.923   8.786   8.303  0.0207  0.8572 -0.7016
  203MOL0     C26730   3.909   8.728   8.425  1.0198  1.1608  0.2719
  203MOL0     H26731   3.726   8.812   8.985 -1.1059 -1.6339 -1.9953
  203MOL0     H26732   3.744   8.709   9.213 -1.3138 -1.3120 -1.3696
  203MOL0     H26733   3.836   8.498   9.467 -1.0230 -0.1090 -1.3574
  203MOL0     H26734   3.734   8.588   9.370  0.2977 -1.4674 -2.0085
  203MOL0     H26735   3.864   8.794   9.407 -3.8738 -2.1289 -0.9111
  203MOL0     H26736   3.994   8.712   9.492 -0.2686  1.9893  1.2878
  203MOL0     H26737   3.831   8.628   9.667  0.9501 -0.7764 -1.3480
  203MOL0     H26738   3.703   8.707   9.576  1.2935  0.2217 -0.0796
  203MOL0     H26739   3.943   8.847   9.694  0.1652  1.3639  1.4061
  203MOL0     H26740   3.794   8.918   9.620 -0.6387  2.1668  3.1111
  203MOL0     H26741   3.782   8.730   9.862  3.7178  1.7530  0.4553
  203MOL0     H26742   3.648   8.816   9.795  0.6841 -1.5326 -2.2448
  203MOL0     H26743   3.756   9.037   9.852 -1.7494 -0.2083  1.5365
  203MOL0     H26744   3.895   8.929   9.915  0.7935 -1.5147 -2.1286
  203MOL0     H26745   3.598   8.927  10.004  0.8800 -0.4461 -1.4912
  203MOL0     H26746   3.712   8.829  10.069 -0.0260  0.6366  1.7890
  203MOL0     H26747   3.665   9.030  10.206  0.1270  1.2933  1.8502
  203MOL0     H26748   3.713   9.133  10.074  0.6549 -2.0858 -4.1687
  203MOL0     H26749   3.954   9.212  10.065  0.1572  0.9282  0.4473
  203MOL0     H26750   4.214   9.254  10.127  1.0970  0.2332  0.5557
  203MOL0     H26751   4.271   9.106  10.081  0.1391  1.7618  0.3928
  203MOL0     H26752   4.331   9.062  10.322  1.8626 -0.9530 -1.3641
  203MOL0     H26753   4.267   9.222  10.371  0.6548 -1.0383  1.4075
  203MOL0     H26754   4.499   9.149  10.177  1.3103  3.1209 -0.7163
  203MOL0     H26755   4.473   9.310  10.215  2.8512 -0.7852  0.1683
  203MOL0     H26756   4.523   9.113  10.441 -2.1228 -1.6508 -2.5851
  203MOL0     H26757   4.500   9.294  10.445  0.7588  2.5922 -1.8886
  203MOL0     H26758   4.865   9.115  10.552  2.5181  0.0202  1.0157
  203MOL0     H26759   4.981   9.203  10.742 -0.4212  0.9446  0.2716
  203MOL0     H26760   5.316   9.522  10.862  0.6121  0.7650 -0.6450
  203MOL0     H26761   5.441   9.595  11.077  0.1086 -0.3210  0.9491
  203MOL0     H26762   5.200   9.600  11.410  1.0936 -1.8095  0.4100
  203MOL0     H26763   5.312   9.714  11.320  3.9490  1.4446  1.0618
  203MOL0     H26764   5.483   9.703  11.478 -0.4072  0.6700  1.1502
  203MOL0     H26765   5.415   9.568  11.563  1.2018 -0.3765 -0.9153
  203MOL0     H26766   5.245   9.692  11.676 -0.8933  1.0106 -0.3202
  203MOL0     H26767   5.265   9.828  11.555 -1.4303 -1.7300 -1.2826
  203MOL0     H26768   5.475   9.720  11.742 -0.4834 -0.2834 -2.2337
  203MOL0     H26769   5.470   9.878  11.649  0.5194  1.8084  0.5204
  203MOL0     H26770   5.291   9.780  11.881  0.8650  0.9057  1.4826
  203MOL0     H26771   5.266   9.929  11.786  0.4498  0.4430  0.1364
  203MOL0     H26772   5.474   9.865  11.991 -1.6261 -2.1725 -0.4688
  203MOL0     H26773   5.333   9.975  12.003 -1.7185  0.3372 -0.4259
  203MOL0     H26774   5.578   9.991  11.809 -1.7217 -2.6296  0.0351
  203MOL0     H26775   5.439  10.089  11.786 -1.6296 -0.8996  1.2084
  203MOL0     H26776   5.455  10.190  12.012 -2.1007 -1.1146 -1.5525
  203MOL0     H26777   5.601  10.216  11.922  0.7105  0.9852  2.7796
  203MOL0     H26778   5.126   9.397  11.307  1.7306 -1.2054 -0.5333
  203MOL0     H26779   4.998   9.362  11.096  0.0304  1.1064  2.3583
  203MOL0     H26780   4.794   9.582  10.638  1.6058 -0.4064  1.9955
  203MOL0     H26781   4.654   9.470  10.469  1.5253  0.6149 -1.2029
  203MOL0     H26782   4.079   8.481   9.081  2.6135  1.4031 -3.6419
  203MOL0     H26783   4.050   8.571   8.864 -0.2549  4.3578 -1.0323
  203MOL0     H26784   3.980   8.952   8.648 -0.7632  2.6405 -0.5859
  203MOL0     H26785   3.979   9.090   8.441  2.7239 -0.1849  1.3682
  203MOL0     H26786   3.874   8.873   8.055  2.1809 -2.0431 -0.2198
  203MOL0     H26787   4.041   8.912   8.042  0.8913  2.9970 -0.3940
  203MOL0     H26788   3.860   9.012   7.879  0.7687 -0.5093  0.3926
  203MOL0     H26789   3.838   9.135   8.010  2.7090  2.0117  1.1264
  203MOL0     H26790   4.107   9.061   7.882 -0.1483 -0.3869 -0.6017
  203MOL0     H26791   4.080   9.182   8.001  2.3897 -1.1883 -1.1981
  203MOL0     H26792   4.091   9.308   7.790  0.2434  1.6076  0.9953
  203MOL0     H26793   3.979   9.178   7.721 -0.3200  2.1301 -0.6074
  203MOL0     H26794   3.708   9.445   7.905  0.0244  0.3238 -1.0419
  203MOL0     H26795   3.921   8.725   8.213 -0.6261  2.0463 -1.5181
  203MOL0     H26796   3.888   8.622   8.422  1.6208  0.9532  2.0087
  204MOL0     O26797   9.097   1.575   3.163 -0.0916 -0.2275  0.0441
  204MOL0     C26798   9.036   1.510   3.243  0.7242  0.8324 -0.4440
  204MOL0     O26799   8.912   1.462   3.215 -0.2902  0.1365  0.0251
  204MOL0     C26800   8.854   1.431   3.092  0.5474 -0.3534 -0.4965
  204MOL0     C26801   8.932   1.414   2.980 -0.5552 -0.3042 -0.4510
  204MOL0     C26802   8.876   1.378   2.861 -0.4296 -0.5253  0.4095
  204MOL0     C26803   8.739   1.358   2.852 -0.0685 -0.0316 -0.2777
  204MOL0     O26804   8.669   1.307   2.743 -0.0497 -0.3246 -0.3707
  204MOL0     C26805   8.706   1.340   2.605  1.1225  0.8163 -0.0395
  204MOL0     C26806   8.659   1.477   2.567 -0.6469  0.7159  1.0662
  204MOL0     C26807   8.514   1.483   2.538 -0.5880  0.8189 -0.0635
  204MOL0     C26808   8.417   1.430   2.643  0.3547  0.3082 -1.1951
  204MOL0     C26809   8.271   1.437   2.604  0.5615 -0.0476  0.0557
  204MOL0     C26810   8.199   1.331   2.680 -0.9570 -0.3589 -0.2929
  204MOL0     C26811   8.052   1.361   2.677 -0.1424 -0.0574 -0.9492
  204MOL0     C26812   7.980   1.323   2.534 -0.6748  0.4965 -0.4318
  204MOL0     N26813   7.831   1.309   2.562 -0.1069  0.1016  0.3599
  204MOL0     C26814   7.782   1.188   2.589 -0.1009  1.1762 -0.1959
  204MOL0     C26815   7.650   1.216   2.626 -0.5653  0.8933 -0.2189
  204MOL0     C26816   7.567   1.108   2.676  0.6199 -0.9114 -0.7012
  204MOL0     C26817   7.446   1.139   2.759  0.4809 -0.6654 -0.7223
  204MOL0     C26818   7.367   1.012   2.765 -0.6040  0.0001  1.1039
  204MOL0     C26819   7.249   1.037   2.860 -0.0393 -0.8907 -0.0298
  204MOL0     O26820   7.146   0.940   2.831  0.5034 -0.2691  0.9614
  204MOL0     C26821   7.031   0.953   2.902  0.0381 -0.3128 -0.0847
  204MOL0     C26822   6.945   0.841   2.907 -0.3509 -0.2054  0.8162
  204MOL0     C26823   6.821   0.847   2.981  0.6213  0.1022  0.6597
  204MOL0     C26824   6.773   0.966   3.042  0.4033 -0.5073  0.2874
  204MOL0     C26825   6.639   0.969   3.100  0.3925 -0.6229  0.5416
  204MOL0     O26826   6.606   1.089   3.162 -0.2176  0.3549 -0.1133
  204MOL0     C26827   6.491   1.106   3.235 -0.0259  0.6225  0.4484
  204MOL0     C26828   6.438   1.007   3.327  0.7794 -0.1887  0.9910
  204MOL0     C26829   6.340   1.040   3.408  0.1054  0.2676 -0.3696
  204MOL0     C26830   6.270   1.163   3.405  0.3577 -0.2857 -0.2156
  204MOL0     O26831   6.167   1.193   3.489 -0.1192  0.2815 -0.0113
  204MOL0     C26832   6.059   1.284   3.442 -0.1877 -0.1637 -0.2466
  204MOL0     C26833   5.967   1.197   3.355  0.6029 -0.5111  0.6323
  204MOL0     C26834   5.856   1.293   3.311  1.7813 -0.0972 -0.1535
  204MOL0     C26835   5.756   1.234   3.212 -0.1938 -0.1783 -0.0286
  204MOL0     C26836   5.635   1.316   3.190  0.3833  0.1404  0.6534
  204MOL0     C26837   5.543   1.352   3.309 -0.5753  0.9064 -0.1412
  204MOL0     C26838   5.421   1.412   3.250 -0.4560  0.3500 -0.3317
  204MOL0     C26839   5.299   1.372   3.337 -0.8275 -0.7846  0.9665
  204MOL0    Cl26840   5.339   1.391   3.508 -0.3666  0.3091  0.6123
  204MOL0     C26841   6.325   1.255   3.320 -0.9632  0.8226  0.6790
  204MOL0     C26842   6.428   1.230   3.227 -0.5056 -0.1116 -0.2678
  204MOL0     O26843   6.565   0.875   3.085 -0.1172 -0.2215 -0.1355
  204MOL0     C26844   6.861   1.077   3.049 -0.0791  0.2984 -0.2180
  204MOL0     C26845   6.983   1.068   2.973  0.5737 -0.2376  0.7633
  204MOL0     N26846   7.622   1.344   2.589  0.1479  0.0885  0.1897
  204MOL0     N26847   7.733   1.398   2.548  0.2302 -0.3766  0.5318
  204MOL0     C26848   8.659   1.372   2.963 -0.1449 -0.1181 -0.0331
  204MOL0     C26849   8.718   1.406   3.085 -0.1649 -0.1157 -0.6401
  204MOL0     C26850   9.113   1.482   3.364 -0.3496 -0.9049  0.7218
  204MOL0     C26851   9.072   1.375   3.444  0.2567 -0.9734 -1.3448
  204MOL0     C26852   9.141   1.339   3.559 -0.7441 -0.1329  0.0139
  204MOL0     C26853   9.246   1.424   3.602  0.1851  0.1695  0.4232
  204MOL0     O26854   9.307   1.399   3.727 -0.5463 -0.0858  0.0960
  204MOL0     C26855   9.243   1.336   3.834 -0.4675 -0.2659 -0.0480
  204MOL0     C26856   9.134   1.417   3.899 -0.1608  0.4562 -0.2591
  204MOL0     C26857   9.045   1.317   3.975  0.3520  0.2021  0.2513
  204MOL0     C26858   8.937   1.374   4.072  0.4790  0.2421  0.2438
  204MOL0     C26859   9.018   1.391   4.194  0.0266 -0.2143  0.8048
  204MOL0     C26860   9.059   1.421   4.307 -0.2164 -0.7165  0.4396
  204MOL0     C26861   9.283   1.532   3.517  0.6237  0.3354 -0.1185
  204MOL0     C26862   9.217   1.559   3.402  0.6701  0.2554 -0.4988
  204MOL0     H26863   9.041   1.415   2.978 -0.4423 -2.8746  0.0013
  204MOL0     H26864   8.947   1.363   2.781  0.4007 -1.1280  1.2413
  204MOL0     H26865   8.658   1.266   2.541 -2.6891  2.9189  0.0783
  204MOL0     H26866   8.814   1.334   2.590  1.2352 -1.4106  1.2360
  204MOL0     H26867   8.730   1.492   2.484 -1.3893 -0.7671  0.1267
  204MOL0     H26868   8.692   1.545   2.646 -0.9224  1.2063  0.7670
  204MOL0     H26869   8.489   1.419   2.453  2.3924 -1.4588  0.6330
  204MOL0     H26870   8.484   1.586   2.516 -0.5366  1.0682  0.9903
  204MOL0     H26871   8.435   1.322   2.645 -4.1577 -0.7873 -4.4217
  204MOL0     H26872   8.429   1.488   2.734 -3.5680  1.2073 -1.0989
  204MOL0     H26873   8.262   1.414   2.498 -0.7839  1.0535 -0.1039
  204MOL0     H26874   8.234   1.538   2.622  0.7487  0.8432 -3.7209
  204MOL0     H26875   8.229   1.340   2.785  1.9229 -0.3902 -1.0347
  204MOL0     H26876   8.231   1.235   2.639  1.9258  1.5860 -3.0493
  204MOL0     H26877   8.014   1.300   2.759  2.6282 -0.4846  0.1498
  204MOL0     H26878   8.042   1.469   2.694  1.1764  0.2433 -1.8795
  204MOL0     H26879   8.014   1.226   2.498 -2.1783 -0.9806  1.8535
  204MOL0     H26880   8.002   1.392   2.452  2.0040 -0.0378 -0.2513
  204MOL0     H26881   7.831   1.091   2.594 -4.2734 -1.1638  0.9899
  204MOL0     H26882   7.631   1.047   2.740  0.1085 -0.3152  0.3933
  204MOL0     H26883   7.538   1.038   2.598 -0.3665 -1.9521  0.5672
  204MOL0     H26884   7.390   1.215   2.704 -0.5492 -0.6970  0.2480
  204MOL0     H26885   7.467   1.186   2.855 -0.8463  2.8731 -2.0121
  204MOL0     H26886   7.346   0.984   2.662 -0.1438 -2.1782  1.5366
  204MOL0     H26887   7.414   0.922   2.806 -1.8761  0.2607  3.2830
  204MOL0     H26888   7.220   1.143   2.856  1.5411 -0.2802  2.5275
  204MOL0     H26889   7.287   1.018   2.960  0.7118  0.5261 -0.0086
  204MOL0     H26890   6.988   0.760   2.849  1.6894  1.6158 -0.3861
  204MOL0     H26891   6.751   0.763   2.984 -4.3763  3.7613 -0.4038
  204MOL0     H26892   6.486   0.911   3.338 -3.2273 -2.4800  0.3818
  204MOL0     H26893   6.304   0.965   3.478  0.9004 -0.8370 -1.1151
  204MOL0     H26894   6.095   1.379   3.401 -0.0727  0.7126  1.7721
  204MOL0     H26895   5.998   1.315   3.527 -0.0300  1.1747 -0.6004
  204MOL0     H26896   5.932   1.103   3.400  0.5269 -1.2001 -0.8131
  204MOL0     H26897   6.031   1.169   3.271  2.4365 -0.2570  1.8795
  204MOL0     H26898   5.903   1.377   3.260  1.0840 -0.2056 -1.0070
  204MOL0     H26899   5.813   1.336   3.402  0.2993 -1.0752 -0.3459
  204MOL0     H26900   5.804   1.227   3.114 -1.1024 -0.5817 -0.4608
  204MOL0     H26901   5.731   1.134   3.249  2.8144 -0.5836  1.1851
  204MOL0     H26902   5.575   1.258   3.119  0.5242 -0.2469  0.8474
  204MOL0     H26903   5.676   1.403   3.138  2.4101 -1.5339 -0.7620
  204MOL0     H26904   5.587   1.417   3.384 -0.8977 -1.3037  2.0921
  204MOL0     H26905   5.525   1.263   3.370  2.6957  1.7706  2.3816
  204MOL0     H26906   5.432   1.520   3.237 -2.0774  0.5134 -0.5158
  204MOL0     H26907   5.402   1.361   3.155 -0.7170  2.0842 -1.2560
  204MOL0     H26908   5.258   1.273   3.315 -2.4306  0.3032 -1.3240
  204MOL0     H26909   5.222   1.449   3.326 -1.0582 -0.6175  3.1904
  204MOL0     H26910   6.312   1.363   3.323  0.8785  1.0571  1.6651
  204MOL0     H26911   6.470   1.310   3.168  0.7291 -1.2642 -1.0291
  204MOL0     H26912   6.849   1.166   3.110 -0.6314  0.1070 -0.0351
  204MOL0     H26913   7.035   1.163   2.969 -2.8647  1.8274 -2.8923
  204MOL0     H26914   8.551   1.365   2.961 -0.0949 -0.9645 -0.2142
  204MOL0     H26915   8.658   1.394   3.175  1.7069 -2.7702  0.3989
  204MOL0     H26916   8.985   1.317   3.413 -0.1878 -0.5976 -0.8128
  204MOL0     H26917   9.106   1.260   3.624 -0.4102  0.1046  0.4889
  204MOL0     H26918   9.332   1.317   3.895  1.1911  0.7213 -2.0635
  204MOL0     H26919   9.202   1.239   3.805 -0.9122  0.4588 -2.0153
  204MOL0     H26920   9.170   1.488   3.974 -1.7268  2.4802 -1.3237
  204MOL0     H26921   9.083   1.481   3.826 -0.2329  0.4885 -0.1804
  204MOL0     H26922   9.079   1.222   4.017  2.1387  0.7561  0.1192
  204MOL0     H26923   8.977   1.276   3.899  0.4995 -1.5027  1.0002
  204MOL0     H26924   8.911   1.474   4.034 -3.1356 -0.0398  1.5278
  204MOL0     H26925   8.853   1.303   4.076  1.7303 -1.6295 -2.9750
  204MOL0     H26926   9.098   1.441   4.405 -0.0176  2.7130 -0.2285
  204MOL0     H26927   9.382   1.573   3.536  1.5345 -2.3088  1.4276
  204MOL0     H26928   9.261   1.639   3.343 -5.2972  4.2544 -0.4715
  205MOL0     O26929   5.178   4.925   0.358  0.0549  0.6613  0.4292
  205MOL0     C26930   5.237   4.871   0.446  0.8678 -0.4768 -0.6444
  205MOL0     O26931   5.295   4.743   0.444  0.4951  0.2602 -0.0219
  205MOL0     C26932   5.312   4.680   0.322  0.8868 -0.7182 -0.0457
  205MOL0     C26933   5.434   4.671   0.252  0.1256 -0.9194 -0.3839
  205MOL0     C26934   5.438   4.626   0.118 -0.0437  1.1021  0.2334
  205MOL0     C26935   5.323   4.562   0.063  0.3959  0.7996  0.2362
  205MOL0     O26936   5.344   4.503  -0.065 -0.4795  0.3744  0.2047
  205MOL0     C26937   5.263   4.563  -0.167  0.1100 -0.0769  0.0564
  205MOL0     C26938   5.311   4.516  -0.298  0.5074 -0.3315 -0.0287
  205MOL0     C26939   5.267   4.375  -0.329  0.8623  0.0018  0.1344
  205MOL0     C26940   5.331   4.337  -0.456  0.4273  0.2521 -1.0776
  205MOL0     C26941   5.267   4.217  -0.523 -1.3038  0.0029  0.3299
  205MOL0     C26942   5.284   4.089  -0.429 -0.0806  0.2174  1.2946
  205MOL0     C26943   5.227   3.958  -0.478 -0.5970  1.5240 -0.5963
  205MOL0     C26944   5.081   3.965  -0.507  0.5797 -0.2104  0.1502
  205MOL0     N26945   5.056   3.867  -0.624  0.3979 -0.7182  0.6148
  205MOL0     C26946   5.038   3.732  -0.610  0.0662  0.0642 -1.1698
  205MOL0     C26947   5.036   3.679  -0.740  1.1138 -0.9748 -0.6095
  205MOL0     C26948   5.058   3.542  -0.783  0.2660 -0.0256 -0.4186
  205MOL0     C26949   5.199   3.528  -0.860  0.5710  0.7942 -0.4862
  205MOL0     C26950   5.268   3.391  -0.829 -0.4212  0.0151  0.2287
  205MOL0     C26951   5.394   3.378  -0.920  1.0588  0.6346  0.3179
  205MOL0     O26952   5.465   3.269  -0.864 -0.1107 -0.9364  0.4199
  205MOL0     C26953   5.590   3.252  -0.932 -0.3605  0.5313  0.2425
  205MOL0     C26954   5.700   3.336  -0.940 -0.3250 -0.1232  0.2765
  205MOL0     C26955   5.812   3.318  -1.024  0.8620 -0.3765 -0.4615
  205MOL0     C26956   5.811   3.217  -1.120 -0.3837  1.5628 -0.0952
  205MOL0     C26957   5.900   3.213  -1.236  0.5999 -0.4976 -0.0180
  205MOL0     O26958   6.010   3.272  -1.226  0.2231 -0.3210  0.1900
  205MOL0     C26959   6.116   3.262  -1.318  0.6991 -0.2198 -0.5009
  205MOL0     C26960   6.244   3.300  -1.277  0.5679 -0.2558 -0.2302
  205MOL0     C26961   6.353   3.299  -1.356  0.2059 -0.6621  0.3426
  205MOL0     C26962   6.332   3.265  -1.489 -1.1137  0.4588 -0.0187
  205MOL0     O26963   6.441   3.260  -1.572  0.6803 -0.4735 -0.4862
  205MOL0     C26964   6.503   3.387  -1.600  0.0512  0.1544 -0.0271
  205MOL0     C26965   6.618   3.358  -1.693 -0.4071  0.7292  0.4668
  205MOL0     C26966   6.679   3.485  -1.741 -1.1386 -0.6160  0.0624
  205MOL0     C26967   6.760   3.588  -1.643 -0.4761  1.0227  0.3020
  205MOL0     C26968   6.691   3.657  -1.521 -0.0220  0.0123 -0.4184
  205MOL0     C26969   6.789   3.758  -1.466 -0.5673  0.6923  0.0177
  205MOL0     C26970   6.734   3.816  -1.339  0.4635  0.6193 -0.3501
  205MOL0     C26971   6.794   3.949  -1.281 -0.4576  0.5408 -0.0987
  205MOL0    Cl26972   6.976   3.936  -1.284  0.3835  0.5173 -0.0549
  205MOL0     C26973   6.209   3.231  -1.533 -0.1158 -0.5074 -0.4337
  205MOL0     C26974   6.094   3.234  -1.448 -0.2992 -0.3022 -0.1996
  205MOL0     O26975   5.860   3.140  -1.324  0.0503  0.4086 -0.4013
  205MOL0     C26976   5.701   3.123  -1.112 -0.3974  0.4376  0.0600
  205MOL0     C26977   5.600   3.143  -1.015 -0.0440  0.9390 -0.2642
  205MOL0     N26978   5.030   3.786  -0.821 -0.3417 -0.1538  0.5429
  205MOL0     N26979   5.035   3.899  -0.754  1.1065  0.5804 -0.7297
  205MOL0     C26980   5.206   4.570   0.136  0.5882  0.9347  0.0620
  205MOL0     C26981   5.198   4.628   0.265 -0.0670 -0.1854  0.7210
  205MOL0     C26982   5.260   4.937   0.572 -0.2859 -1.0000 -0.0282
  205MOL0     C26983   5.237   5.077   0.581 -1.1430 -0.0924  0.3944
  205MOL0     C26984   5.270   5.160   0.687  0.5085 -1.2378  0.2905
  205MOL0     C26985   5.336   5.105   0.801  0.4852 -0.3343  0.2479
  205MOL0     O26986   5.367   5.193   0.905 -0.3554 -0.9591 -0.5653
  205MOL0     C26987   5.413   5.144   1.033 -0.6698  0.1356 -0.6152
  205MOL0     C26988   5.401   5.260   1.125  0.1702  0.5324 -0.1018
  205MOL0     C26989   5.414   5.232   1.277  0.1429  0.1605  0.3532
  205MOL0     C26990   5.562   5.236   1.330  1.2645  0.0268  0.7704
  205MOL0     C26991   5.659   5.331   1.272  0.2488  0.7308 -0.9319
  205MOL0     C26992   5.747   5.382   1.204  0.1270 -1.0016 -1.1063
  205MOL0     C26993   5.364   4.968   0.798  0.5725  0.7392  0.2623
  205MOL0     C26994   5.317   4.886   0.695  0.4541 -1.2232  0.8521
  205MOL0     H26995   5.526   4.716   0.290  1.1110 -3.5768  0.6298
  205MOL0     H26996   5.529   4.631   0.059 -0.7987 -1.8952 -1.3852
  205MOL0     H26997   5.274   4.672  -0.158  0.3404  0.0369 -1.4573
  205MOL0     H26998   5.158   4.535  -0.158  0.6670 -2.2503  0.5054
  205MOL0     H26999   5.418   4.538  -0.305  0.0331  2.6516  0.6951
  205MOL0     H27000   5.267   4.580  -0.376  0.2294 -0.8439 -0.2980
  205MOL0     H27001   5.158   4.384  -0.326  0.8413 -0.2925  0.4068
  205MOL0     H27002   5.288   4.303  -0.249 -0.8499 -0.1705  0.4691
  205MOL0     H27003   5.323   4.415  -0.533 -1.3527 -0.6791 -1.8983
  205MOL0     H27004   5.436   4.317  -0.436  0.5279  1.7748  0.1004
  205MOL0     H27005   5.314   4.208  -0.622  0.6207  0.5842  1.1504
  205MOL0     H27006   5.163   4.244  -0.546 -0.3573  3.1282 -0.8053
  205MOL0     H27007   5.221   4.113  -0.343  0.1834  0.5020  1.4107
  205MOL0     H27008   5.388   4.078  -0.396 -0.3763 -0.5973  1.9890
  205MOL0     H27009   5.282   3.910  -0.560  1.1741  1.3971  0.6014
  205MOL0     H27010   5.241   3.882  -0.401 -1.2924  0.6765 -1.2750
  205MOL0     H27011   5.052   4.060  -0.552 -0.4784  0.0339  1.3055
  205MOL0     H27012   5.023   3.948  -0.416  0.2518  0.7488  0.1250
  205MOL0     H27013   5.055   3.683  -0.514 -2.1111  1.1965 -0.1345
  205MOL0     H27014   4.977   3.508  -0.847 -0.6791 -0.7017  1.0720
  205MOL0     H27015   5.052   3.473  -0.698  0.2400 -2.7201 -2.4667
  205MOL0     H27016   5.260   3.603  -0.809  0.9438  0.0932  0.0969
  205MOL0     H27017   5.179   3.547  -0.966 -1.3468  1.6346 -0.0272
  205MOL0     H27018   5.290   3.376  -0.722 -0.9672 -4.5775 -0.1030
  205MOL0     H27019   5.199   3.309  -0.848 -1.8872  1.0266  0.9983
  205MOL0     H27020   5.453   3.470  -0.917  2.2447  0.0866 -2.7127
  205MOL0     H27021   5.365   3.368  -1.025  1.4044  1.7742  0.0974
  205MOL0     H27022   5.703   3.414  -0.865 -1.8221  0.0005  0.2236
  205MOL0     H27023   5.892   3.391  -1.022  0.4785  0.0955 -1.5428
  205MOL0     H27024   6.239   3.332  -1.173 -1.2466 -1.5295  0.1212
  205MOL0     H27025   6.454   3.324  -1.323  0.5886  1.8520 -2.4024
  205MOL0     H27026   6.526   3.425  -1.500 -1.3665  1.8832 -0.3213
  205MOL0     H27027   6.439   3.464  -1.643 -0.7922 -0.7701 -0.4737
  205MOL0     H27028   6.575   3.315  -1.784  1.4462  1.6222 -0.9021
  205MOL0     H27029   6.692   3.287  -1.655 -0.5964  0.9101  1.1951
  205MOL0     H27030   6.596   3.534  -1.793 -1.8715 -3.6456 -1.9119
  205MOL0     H27031   6.740   3.462  -1.829 -2.1491  0.3549 -0.9280
  205MOL0     H27032   6.854   3.545  -1.607 -0.4160  2.6063  2.2047
  205MOL0     H27033   6.791   3.671  -1.708 -0.0080  0.5750 -0.0513
  205MOL0     H27034   6.666   3.581  -1.446 -0.6931  2.9014  2.4941
  205MOL0     H27035   6.594   3.702  -1.544  0.9771  3.0129  0.7251
  205MOL0     H27036   6.817   3.832  -1.541  1.7999 -2.5387 -2.5728
  205MOL0     H27037   6.878   3.697  -1.450 -1.3520 -0.2907  0.7665
  205MOL0     H27038   6.629   3.821  -1.367  1.2579 -1.8440 -4.9305
  205MOL0     H27039   6.755   3.748  -1.256 -1.2417  3.9335  3.0805
  205MOL0     H27040   6.760   3.968  -1.179  3.1548 -4.0890  2.3254
  205MOL0     H27041   6.773   4.025  -1.357 -1.0465 -1.8306 -2.4614
  205MOL0     H27042   6.200   3.196  -1.635 -0.3710  2.3404 -1.4777
  205MOL0     H27043   6.001   3.223  -1.501  1.2434  0.0742 -3.2031
  205MOL0     H27044   5.708   3.036  -1.175  4.7786 -0.3773  1.2872
  205MOL0     H27045   5.514   3.079  -1.002  0.6803  0.0890  0.5394
  205MOL0     H27046   5.127   4.506   0.099  0.7816 -2.0969  4.1108
  205MOL0     H27047   5.099   4.624   0.307 -1.2460  2.7115 -1.4411
  205MOL0     H27048   5.204   5.146   0.503  2.1227  0.6300 -0.4807
  205MOL0     H27049   5.263   5.268   0.692  1.0210 -1.2235  0.7602
  205MOL0     H27050   5.518   5.114   1.029 -0.8799 -1.5388  2.9077
  205MOL0     H27051   5.358   5.052   1.057  0.3113 -0.5852 -1.0640
  205MOL0     H27052   5.474   5.332   1.086  0.7783 -0.5698 -1.0660
  205MOL0     H27053   5.299   5.299   1.118  0.6257  2.6523  3.0143
  205MOL0     H27054   5.361   5.138   1.299  0.6870 -0.2730 -0.1601
  205MOL0     H27055   5.345   5.299   1.329 -0.1624  0.5707 -0.5769
  205MOL0     H27056   5.575   5.220   1.438 -0.5922 -1.6716  0.8073
  205MOL0     H27057   5.595   5.143   1.283 -4.3874 -1.0973 -1.8164
  205MOL0     H27058   5.820   5.419   1.135  1.2645 -3.8436 -1.5710
  205MOL0     H27059   5.410   4.910   0.878  0.3534 -0.0795 -0.2058
  205MOL0     H27060   5.302   4.781   0.718 -0.6818 -0.8823  1.7537
  206MOL0     O27061   1.341   4.222   0.870  0.4985 -0.5171  0.3193
  206MOL0     C27062   1.228   4.249   0.821 -0.0746  0.2564  0.1038
  206MOL0     O27063   1.200   4.297   0.694  0.3844 -0.9344  0.7261
  206MOL0     C27064   1.296   4.346   0.615 -0.5114  0.2811 -0.4024
  206MOL0     C27065   1.402   4.270   0.580  0.6673  0.4505 -0.1014
  206MOL0     C27066   1.489   4.305   0.480  0.9844 -0.0460 -0.4649
  206MOL0     C27067   1.468   4.427   0.394  0.1241  1.2971  0.2058
  206MOL0     O27068   1.554   4.451   0.290  0.6035  0.4424  0.2205
  206MOL0     C27069   1.513   4.557   0.199 -0.2543 -0.2241  0.7974
  206MOL0     C27070   1.626   4.571   0.102  0.2124 -0.4777  0.0317
  206MOL0     C27071   1.751   4.618   0.173  0.1990 -1.1855  0.7575
  206MOL0     C27072   1.869   4.657   0.079 -1.5128 -0.0720 -1.2943
  206MOL0     C27073   1.997   4.710   0.152 -0.1221  0.4522 -0.2286
  206MOL0     C27074   2.121   4.719   0.050 -0.1848  0.0848 -0.5260
  206MOL0     C27075   2.237   4.767   0.140 -0.0530 -0.0372 -0.3233
  206MOL0     C27076   2.372   4.752   0.069 -0.2086 -0.2674  0.4295
  206MOL0     N27077   2.466   4.779   0.175  0.6445 -1.0245  0.9173
  206MOL0     C27078   2.551   4.888   0.208 -0.4145 -0.5368  0.4395
  206MOL0     C27079   2.641   4.841   0.289  0.2957 -0.0516  0.4779
  206MOL0     C27080   2.761   4.912   0.349 -0.8332  0.5488 -0.1394
  206MOL0     C27081   2.718   4.996   0.472 -0.6507 -0.2210  0.0841
  206MOL0     C27082   2.644   4.905   0.577  0.0966  0.0574  1.0819
  206MOL0     C27083   2.640   4.958   0.718  0.0099  1.3383  0.5819
  206MOL0     O27084   2.775   4.982   0.765 -0.8598 -1.1084 -0.6553
  206MOL0     C27085   2.803   4.944   0.890  0.0190  0.1095 -0.6826
  206MOL0     C27086   2.916   4.868   0.897  0.2197  0.9400 -0.8193
  206MOL0     C27087   2.960   4.819   1.022 -0.2454  0.5288 -0.1085
  206MOL0     C27088   2.896   4.861   1.138  0.4602  0.4186 -0.3407
  206MOL0     C27089   2.956   4.827   1.273  0.0671  1.2689  0.8403
  206MOL0     O27090   2.934   4.900   1.388 -0.0318  0.4113  0.0109
  206MOL0     C27091   2.989   4.853   1.502 -0.0253 -0.7362  0.0177
  206MOL0     C27092   3.123   4.819   1.506 -0.0543 -0.4049  0.0093
  206MOL0     C27093   3.188   4.784   1.621 -0.1999 -0.5154  0.1704
  206MOL0     C27094   3.119   4.774   1.744  1.0551  0.0464  0.1034
  206MOL0     O27095   3.182   4.726   1.855  0.5832  0.8614 -0.1924
  206MOL0     C27096   3.180   4.815   1.967 -0.0667 -0.4671 -0.7140
  206MOL0     C27097   3.324   4.831   2.033  0.1352  0.1932  0.3054
  206MOL0     C27098   3.315   4.920   2.152 -0.3161 -0.2118  0.1310
  206MOL0     C27099   3.451   4.922   2.227 -0.8707  0.0449 -0.0922
  206MOL0     C27100   3.475   5.040   2.313  0.5683  0.2212  0.3047
  206MOL0     C27101   3.372   5.063   2.423 -1.0719 -0.5790 -0.2229
  206MOL0     C27102   3.409   5.170   2.519 -0.1786  0.7454 -0.3424
  206MOL0     C27103   3.327   5.302   2.498 -0.3871  0.1645 -0.1580
  206MOL0    Cl27104   3.380   5.439   2.600  0.1378 -0.1141  0.6158
  206MOL0     C27105   2.983   4.824   1.742  0.0649 -0.0823  0.0351
  206MOL0     C27106   2.921   4.862   1.621  0.2402  0.6941 -0.0788
  206MOL0     O27107   3.021   4.721   1.263  0.0670  1.1574 -0.1680
  206MOL0     C27108   2.782   4.950   1.123 -0.5835 -0.2725 -1.2764
  206MOL0     C27109   2.732   4.986   0.998 -0.2037 -0.0986  0.5202
  206MOL0     N27110   2.608   4.713   0.336  1.7273 -0.0396  0.5054
  206MOL0     N27111   2.509   4.683   0.260  0.4186  0.3504  0.0271
  206MOL0     C27112   1.351   4.495   0.433  0.0380 -0.4379 -0.4023
  206MOL0     C27113   1.276   4.458   0.542  0.8154 -0.0252  0.8749
  206MOL0     C27114   1.113   4.239   0.911 -0.3174 -0.4325 -0.4116
  206MOL0     C27115   1.116   4.174   1.036  0.8421 -0.2293  0.8772
  206MOL0     C27116   1.005   4.157   1.116  0.0473 -0.0899  0.1075
  206MOL0     C27117   0.884   4.208   1.078 -0.9971  0.2204 -0.4908
  206MOL0     O27118   0.784   4.196   1.166 -0.3060 -0.1384 -0.6281
  206MOL0     C27119   0.657   4.249   1.132  0.8834  0.2593 -0.2563
  206MOL0     C27120   0.637   4.403   1.143  1.0550 -0.1655 -0.2484
  206MOL0     C27121   0.494   4.446   1.104 -0.6948 -0.2634  0.0461
  206MOL0     C27122   0.436   4.548   1.207  1.1352  0.1382 -0.2249
  206MOL0     C27123   0.455   4.682   1.156  0.5424 -0.4976 -0.2195
  206MOL0     C27124   0.467   4.795   1.114  0.2467  0.2291 -0.7762
  206MOL0     C27125   0.872   4.265   0.952 -0.7477  0.3111  0.2131
  206MOL0     C27126   0.982   4.289   0.866  0.7020 -0.8155  1.0749
  206MOL0     H27127   1.415   4.181   0.641  0.7797  0.4226 -0.1660
  206MOL0     H27128   1.571   4.236   0.464  0.3963 -0.6157 -1.0702
  206MOL0     H27129   1.505   4.649   0.258  2.3031  1.3216 -1.0770
  206MOL0     H27130   1.417   4.547   0.146  0.3497  4.2185 -1.6346
  206MOL0     H27131   1.605   4.648   0.027 -3.6546 -0.1883  1.1942
  206MOL0     H27132   1.649   4.476   0.053 -0.1922 -0.4249 -0.2733
  206MOL0     H27133   1.786   4.543   0.245 -1.6561 -1.7161  1.1788
  206MOL0     H27134   1.724   4.706   0.232  1.8547 -1.2322  1.6335
  206MOL0     H27135   1.905   4.565   0.033 -0.6135 -0.6309  0.4286
  206MOL0     H27136   1.846   4.732   0.003  1.1037  0.3648 -1.7530
  206MOL0     H27137   2.014   4.637   0.232 -0.4769  0.9528  0.3226
  206MOL0     H27138   1.981   4.811   0.192  1.6199  2.1055 -3.3502
  206MOL0     H27139   2.099   4.790  -0.030 -4.3326 -0.9814 -0.5841
  206MOL0     H27140   2.144   4.616   0.022 -1.2653 -1.0038  2.1611
  206MOL0     H27141   2.220   4.873   0.163  1.2621  0.6742 -2.3874
  206MOL0     H27142   2.241   4.715   0.237  1.9161 -1.6868 -1.2227
  206MOL0     H27143   2.381   4.829  -0.009  2.0642 -0.8529  0.0486
  206MOL0     H27144   2.384   4.648   0.039  0.3059 -0.8367  2.4851
  206MOL0     H27145   2.552   4.980   0.151 -3.1756 -0.6444  0.0609
  206MOL0     H27146   2.811   4.978   0.277 -1.0506  3.1303  1.9056
  206MOL0     H27147   2.828   4.832   0.380  0.4826  1.5477 -0.3380
  206MOL0     H27148   2.653   5.081   0.453 -0.6830 -0.1827  0.3607
  206MOL0     H27149   2.810   5.030   0.520 -0.9202  0.5591  0.0511
  206MOL0     H27150   2.546   4.886   0.532  1.0660 -0.5088 -0.8992
  206MOL0     H27151   2.693   4.808   0.589 -0.4359 -0.3782 -0.1647
  206MOL0     H27152   2.591   4.885   0.784  0.5888  1.2251  0.8885
  206MOL0     H27153   2.581   5.051   0.725 -2.7365 -0.1647 -0.8758
  206MOL0     H27154   2.981   4.839   0.815  0.9309 -0.3881  0.1689
  206MOL0     H27155   3.053   4.762   1.021 -0.0959  0.7497 -2.3790
  206MOL0     H27156   3.179   4.839   1.415 -0.6321  1.3080 -0.0051
  206MOL0     H27157   3.295   4.764   1.611 -0.5426 -2.3759 -0.0849
  206MOL0     H27158   3.116   4.772   2.045  0.3134  1.0868  0.5143
  206MOL0     H27159   3.143   4.914   1.937  2.1756  0.1207 -1.7289
  206MOL0     H27160   3.395   4.861   1.955 -0.4609 -1.7642 -1.0726
  206MOL0     H27161   3.363   4.735   2.067  0.8220  0.9757  1.8147
  206MOL0     H27162   3.238   4.881   2.219  0.2601  0.3355  1.1376
  206MOL0     H27163   3.291   5.017   2.107  0.2689  0.4118  1.1240
  206MOL0     H27164   3.476   4.833   2.286  3.0581  0.9307 -0.1393
  206MOL0     H27165   3.514   4.931   2.138 -1.3284 -0.1588 -0.4421
  206MOL0     H27166   3.480   5.129   2.249  3.4717  0.8138  1.2220
  206MOL0     H27167   3.571   5.028   2.364  1.7039  0.9853 -1.5546
  206MOL0     H27168   3.358   4.975   2.485  1.4903  0.2418  1.7260
  206MOL0     H27169   3.279   5.093   2.374 -2.3268 -0.3398  2.1685
  206MOL0     H27170   3.395   5.131   2.620  1.4379 -2.8319 -1.3197
  206MOL0     H27171   3.516   5.188   2.507 -0.1078 -0.3437 -1.6702
  206MOL0     H27172   3.220   5.291   2.516 -0.4783  2.5668  1.2727
  206MOL0     H27173   3.333   5.335   2.394  0.8451  1.2390  0.2320
  206MOL0     H27174   2.929   4.824   1.836 -2.5363  1.2225 -1.3533
  206MOL0     H27175   2.815   4.877   1.605 -0.0073 -2.0916 -1.8020
  206MOL0     H27176   2.725   4.977   1.211 -0.5373 -1.8467 -0.7414
  206MOL0     H27177   2.637   5.036   0.987 -1.5493 -2.1846  1.7888
  206MOL0     H27178   1.336   4.593   0.388 -0.7440 -1.1080 -1.6656
  206MOL0     H27179   1.181   4.503   0.568  1.0583  0.8723  0.2539
  206MOL0     H27180   1.212   4.130   1.061  1.4542 -0.3629 -1.4800
  206MOL0     H27181   1.022   4.106   1.210  2.9683  0.6115  0.0354
  206MOL0     H27182   0.590   4.205   1.206  1.9897  0.4333  0.8877
  206MOL0     H27183   0.627   4.212   1.034  2.0813 -1.0674 -0.1531
  206MOL0     H27184   0.663   4.433   1.245  1.6880  0.3237 -0.5477
  206MOL0     H27185   0.707   4.445   1.071  1.6140 -0.6603 -0.0098
  206MOL0     H27186   0.432   4.357   1.115 -1.5235  0.2898 -0.0086
  206MOL0     H27187   0.493   4.485   1.001  0.9953  1.3527  0.5820
  206MOL0     H27188   0.328   4.528   1.206  1.3656 -1.2512  0.6025
  206MOL0     H27189   0.461   4.533   1.312 -0.7460  2.2669  0.6025
  206MOL0     H27190   0.493   4.892   1.078  2.1607 -0.3182 -0.9740
  206MOL0     H27191   0.780   4.309   0.914 -0.1733  0.0317 -1.5980
  206MOL0     H27192   0.969   4.339   0.771  0.2656  1.7964  2.4361
  207MOL0     O27193   2.096   7.686   2.255  0.5898 -1.2217 -0.2860
  207MOL0     C27194   2.128   7.725   2.369 -1.3837 -0.4409  0.3251
  207MOL0     O27195   2.087   7.840   2.435  0.4173 -0.1713 -0.0089
  207MOL0     C27196   1.999   7.921   2.363 -0.2804  0.9501  0.6967
  207MOL0     C27197   2.044   7.993   2.249  0.7613  0.6164  0.7606
  207MOL0     C27198   1.957   8.063   2.166 -0.5065  0.1685 -0.9893
  207MOL0     C27199   1.820   8.061   2.194 -0.0231  0.9020 -0.6856
  207MOL0     O27200   1.725   8.136   2.121 -0.5630 -0.2008 -0.7431
  207MOL0     C27201   1.758   8.194   1.995  0.1909 -0.1332  0.1491
  207MOL0     C27202   1.653   8.299   1.972  0.3363 -0.8090  0.1235
  207MOL0     C27203   1.663   8.418   2.065  0.0687 -0.1168  0.8328
  207MOL0     C27204   1.568   8.525   2.010 -0.2467  0.0742 -0.3382
  207MOL0     C27205   1.546   8.643   2.114  0.6147  1.3585 -0.1015
  207MOL0     C27206   1.467   8.769   2.062 -0.0956  0.9339  0.5828
  207MOL0     C27207   1.422   8.860   2.178 -0.2896 -0.3550 -0.0184
  207MOL0     C27208   1.411   9.007   2.146  0.5847 -0.4615  0.6090
  207MOL0     N27209   1.388   9.086   2.271 -0.3514  0.1313 -0.4956
  207MOL0     C27210   1.270   9.097   2.329  0.7882 -0.0772 -0.5817
  207MOL0     C27211   1.278   9.186   2.431 -1.0024 -0.2581  0.4125
  207MOL0     C27212   1.163   9.202   2.526 -0.5298 -0.2545  0.2368
  207MOL0     C27213   1.060   9.294   2.455  0.3910  0.7696 -0.3135
  207MOL0     C27214   1.101   9.435   2.478 -0.1103 -0.7257 -0.9798
  207MOL0     C27215   1.004   9.535   2.430  0.6515 -0.1197 -0.0691
  207MOL0     O27216   0.906   9.569   2.528 -0.5963 -0.1069 -0.1020
  207MOL0     C27217   0.820   9.670   2.488 -0.0838  0.1230 -0.2301
  207MOL0     C27218   0.829   9.759   2.377 -0.3962  0.8156  0.0448
  207MOL0     C27219   0.716   9.829   2.328 -0.5023  0.7810 -0.4294
  207MOL0     C27220   0.594   9.814   2.413  0.1439 -0.1938  1.1699
  207MOL0     C27221   0.479   9.885   2.351 -0.1818  0.6461  0.0753
  207MOL0     O27222   0.504   9.966   2.238  0.9189  0.4910  0.2169
  207MOL0     C27223   0.392  10.033   2.198 -0.9293  0.3395  0.7423
  207MOL0     C27224   0.283   9.964   2.141  0.2138 -0.2680  0.2594
  207MOL0     C27225   0.168  10.031   2.100 -0.1770  0.7614 -0.6497
  207MOL0     C27226   0.160  10.173   2.113  0.4652  0.3692  0.6202
  207MOL0     O27227   0.051  10.258   2.080  0.4884  0.5097 -0.1488
  207MOL0     C27228  -0.060  10.221   1.992  0.4821  0.3069 -0.3103
  207MOL0     C27229  -0.143  10.345   1.956 -0.1017 -0.3775 -1.1708
  207MOL0     C27230  -0.251  10.369   2.068 -0.0563  0.5370 -0.0762
  207MOL0     C27231  -0.336  10.489   2.028  0.1264  1.2189 -0.2460
  207MOL0     C27232  -0.428  10.525   2.146  0.0881  0.6835 -0.1606
  207MOL0     C27233  -0.536  10.627   2.095 -0.7330  0.3194 -0.3860
  207MOL0     C27234  -0.667  10.573   2.053 -0.3008 -0.3299 -0.0838
  207MOL0     C27235  -0.735  10.685   1.979 -0.5581 -0.4104 -0.3186
  207MOL0    Cl27236  -0.901  10.648   1.931 -0.0120 -0.0993 -0.2126
  207MOL0     C27237   0.270  10.238   2.158  0.5014  0.1016  0.9743
  207MOL0     C27238   0.390  10.168   2.201 -0.2053 -0.6740 -0.1367
  207MOL0     O27239   0.366   9.855   2.394 -0.0461  0.3320  0.2378
  207MOL0     C27240   0.587   9.728   2.520 -0.2738 -0.0813 -0.2847
  207MOL0     C27241   0.698   9.660   2.558 -0.5052  0.6768  0.3980
  207MOL0     N27242   1.416   9.225   2.433  0.9728  0.7660 -0.8763
  207MOL0     N27243   1.475   9.178   2.334 -0.3916 -0.0403 -0.2886
  207MOL0     C27244   1.776   7.999   2.313  0.8830  0.3644 -0.1927
  207MOL0     C27245   1.869   7.924   2.394  0.0355 -0.4506  0.3543
  207MOL0     C27246   2.251   7.657   2.424  0.5405 -0.3825 -0.0760
  207MOL0     C27247   2.263   7.662   2.561  0.2550 -0.4347  0.2185
  207MOL0     C27248   2.367   7.599   2.629 -0.1969 -0.5155 -0.3525
  207MOL0     C27249   2.459   7.533   2.554 -0.5736  0.0413  0.2969
  207MOL0     O27250   2.561   7.469   2.624 -0.0163 -0.7240 -0.4540
  207MOL0     C27251   2.687   7.521   2.593  0.6317 -0.1158 -0.2585
  207MOL0     C27252   2.769   7.505   2.716 -0.0941  0.1010 -0.7290
  207MOL0     C27253   2.919   7.554   2.719  0.4842 -0.0441 -0.9492
  207MOL0     C27254   3.005   7.486   2.619 -0.5720  0.4396  0.4539
  207MOL0     C27255   3.023   7.343   2.649 -0.9073  0.1562  0.9847
  207MOL0     C27256   3.030   7.222   2.680  0.8562 -0.8329  0.2561
  207MOL0     C27257   2.458   7.532   2.414  0.0549  0.0806  0.8483
  207MOL0     C27258   2.346   7.589   2.353 -0.1389 -0.4037 -0.1641
  207MOL0     H27259   2.149   8.004   2.223  0.6334  2.0774  0.7489
  207MOL0     H27260   2.009   8.110   2.083 -0.7757  0.8591 -0.7793
  207MOL0     H27261   1.757   8.123   1.912  0.5906  0.9878 -0.8353
  207MOL0     H27262   1.859   8.235   1.998 -1.2585  3.8606  0.4836
  207MOL0     H27263   1.556   8.250   1.981  0.1208 -0.2940  0.6171
  207MOL0     H27264   1.665   8.332   1.868 -3.7743 -1.6682 -0.7794
  207MOL0     H27265   1.761   8.463   2.083  0.1930  0.5840 -1.3870
  207MOL0     H27266   1.628   8.376   2.160  1.2328 -0.9309  0.9148
  207MOL0     H27267   1.610   8.553   1.913 -0.0706 -1.9952 -0.8990
  207MOL0     H27268   1.473   8.482   1.975 -0.2799 -0.6163  0.5634
  207MOL0     H27269   1.639   8.681   2.156 -0.4685  3.6301  0.3669
  207MOL0     H27270   1.494   8.601   2.201 -1.0009  1.2669 -1.0615
  207MOL0     H27271   1.382   8.735   2.003  0.2672 -2.3615  1.7679
  207MOL0     H27272   1.525   8.827   1.989 -2.8097  0.0724 -2.4792
  207MOL0     H27273   1.334   8.825   2.233  1.5932 -0.2626  3.2880
  207MOL0     H27274   1.506   8.856   2.248  0.9451  2.0812 -1.2512
  207MOL0     H27275   1.333   9.030   2.073  0.1535 -1.4446  0.7533
  207MOL0     H27276   1.504   9.058   2.115  0.1836 -0.2889 -0.3658
  207MOL0     H27277   1.178   9.042   2.317  0.5861 -0.8838  3.3110
  207MOL0     H27278   1.206   9.246   2.617  2.6214 -1.3423 -0.6111
  207MOL0     H27279   1.119   9.107   2.558 -0.8155 -0.0231  0.5351
  207MOL0     H27280   0.965   9.262   2.500 -0.6163  2.2451 -1.2931
  207MOL0     H27281   1.050   9.261   2.351  0.8950 -3.5253  0.8152
  207MOL0     H27282   1.125   9.450   2.583 -0.4021 -2.2452 -0.6656
  207MOL0     H27283   1.195   9.445   2.422  1.7756  1.5690  2.2533
  207MOL0     H27284   0.958   9.503   2.336  0.1186  3.1536 -1.0510
  207MOL0     H27285   1.062   9.626   2.414  2.0381 -1.1828 -1.3632
  207MOL0     H27286   0.920   9.772   2.319  1.1350  1.9023  2.5265
  207MOL0     H27287   0.726   9.892   2.240  0.7885 -0.2898 -1.0857
  207MOL0     H27288   0.277   9.856   2.135 -2.8152 -0.1355 -1.0173
  207MOL0     H27289   0.079   9.983   2.061 -1.3085  1.8431  0.5039
  207MOL0     H27290  -0.113  10.133   2.031  2.1678 -1.4614 -1.8015
  207MOL0     H27291  -0.005  10.175   1.909  0.3375 -0.2534 -0.1041
  207MOL0     H27292  -0.190  10.318   1.860  0.1736 -2.0985 -0.8481
  207MOL0     H27293  -0.076  10.430   1.935 -0.9455  1.0509  1.4987
  207MOL0     H27294  -0.205  10.395   2.164 -0.6290 -1.0569  0.6602
  207MOL0     H27295  -0.321  10.288   2.088 -1.8422  2.0469  0.1371
  207MOL0     H27296  -0.262  10.568   2.012  2.3577 -0.6638  0.2988
  207MOL0     H27297  -0.386  10.451   1.939  0.8839 -2.2059  0.6385
  207MOL0     H27298  -0.352  10.582   2.200 -0.3033  2.9368 -1.8410
  207MOL0     H27299  -0.467  10.442   2.206  0.4874 -0.9281 -2.0067
  207MOL0     H27300  -0.495  10.694   2.019  0.9576  0.8156  0.8820
  207MOL0     H27301  -0.569  10.697   2.173 -3.4872  0.0411 -1.1973
  207MOL0     H27302  -0.635  10.500   1.977  3.0266  2.4941 -1.6573
  207MOL0     H27303  -0.728  10.526   2.131 -1.4481  0.4426 -0.4821
  207MOL0     H27304  -0.678  10.731   1.898 -0.6509  2.8794  1.3219
  207MOL0     H27305  -0.760  10.755   2.059 -2.3283 -3.5755  2.1489
  207MOL0     H27306   0.278  10.347   2.159 -0.8350  0.2992 -1.6457
  207MOL0     H27307   0.476  10.220   2.242 -0.0406 -0.9436 -0.1328
  207MOL0     H27308   0.497   9.715   2.580  0.1372  1.1582  0.6343
  207MOL0     H27309   0.697   9.583   2.635  1.5030 -1.6933 -1.7287
  207MOL0     H27310   1.669   8.002   2.329  0.5442 -2.8321 -1.2321
  207MOL0     H27311   1.840   7.878   2.488 -1.5706 -2.7797 -1.1835
  207MOL0     H27312   2.195   7.731   2.611 -0.9663 -0.1940 -1.6610
  207MOL0     H27313   2.376   7.604   2.737 -1.0519 -1.3551 -0.2273
  207MOL0     H27314   2.681   7.623   2.555 -0.4163  0.1492  0.5456
  207MOL0     H27315   2.736   7.458   2.519  1.0033 -1.9641  1.4830
  207MOL0     H27316   2.712   7.554   2.796  0.3730  0.7023 -0.7513
  207MOL0     H27317   2.774   7.400   2.745 -2.6878  0.2813  0.6118
  207MOL0     H27318   2.956   7.544   2.822 -2.8292 -2.4721  0.1556
  207MOL0     H27319   2.935   7.654   2.677  0.5873 -0.7261 -2.5991
  207MOL0     H27320   2.959   7.489   2.520 -0.6041  2.8062  0.4875
  207MOL0     H27321   3.105   7.531   2.614 -0.6206  0.4740 -0.2516
  207MOL0     H27322   3.048   7.124   2.720  1.0189 -1.2480 -0.7953
  207MOL0     H27323   2.520   7.474   2.347  1.0471  3.3841 -1.3306
  207MOL0     H27324   2.326   7.568   2.249 -0.9153  0.0347 -0.1068
  208MOL0     O27325   4.157   4.981   2.035 -0.5832 -0.3166  0.3955
  208MOL0     C27326   4.189   4.936   2.148  0.4806 -0.7778 -0.0232
  208MOL0     O27327   4.119   4.840   2.224 -0.2404 -0.6126 -0.8857
  208MOL0     C27328   4.006   4.787   2.163 -0.0352  1.1787  0.1261
  208MOL0     C27329   4.038   4.702   2.048  0.1549  0.4321  1.2480
  208MOL0     C27330   3.932   4.641   1.973  1.0811  0.3384 -0.1277
  208MOL0     C27331   3.794   4.665   2.013  0.1397  0.4779 -0.1806
  208MOL0     O27332   3.688   4.619   1.936  0.2527  0.0802 -0.1444
  208MOL0     C27333   3.695   4.495   1.862  0.8023  0.3625 -0.5268
  208MOL0     C27334   3.569   4.472   1.777 -0.6926 -0.2841  0.3546
  208MOL0     C27335   3.444   4.429   1.840  0.3380  0.0311  0.0871
  208MOL0     C27336   3.339   4.409   1.731 -1.1698  0.5832  1.1852
  208MOL0     C27337   3.209   4.368   1.775  0.4811  0.0713  0.4274
  208MOL0     C27338   3.111   4.362   1.656  0.2465  0.0537  0.5864
  208MOL0     C27339   2.975   4.319   1.708  0.9715  0.1217  0.3894
  208MOL0     C27340   2.889   4.442   1.738 -0.0937 -1.3699 -0.2290
  208MOL0     N27341   2.760   4.401   1.772 -0.7447 -0.3047 -0.8984
  208MOL0     C27342   2.666   4.395   1.676  1.0672  0.4956  0.4181
  208MOL0     C27343   2.558   4.370   1.749  0.2028 -1.0264 -0.8482
  208MOL0     C27344   2.431   4.345   1.669 -1.4905 -0.6159 -0.3983
  208MOL0     C27345   2.309   4.416   1.735 -0.1448 -0.9422  0.3819
  208MOL0     C27346   2.188   4.436   1.638 -0.4081 -0.2466 -0.0462
  208MOL0     C27347   2.073   4.517   1.701 -0.2832  0.6604 -0.7350
  208MOL0     O27348   2.104   4.650   1.728  0.1646 -0.7344 -0.3410
  208MOL0     C27349   2.060   4.728   1.626  0.7025 -0.0262  0.4951
  208MOL0     C27350   1.930   4.760   1.579  0.5839 -0.5415  0.1166
  208MOL0     C27351   1.891   4.845   1.473  0.2633  0.6913  0.2095
  208MOL0     C27352   1.996   4.889   1.384  0.1949 -0.3673 -0.8365
  208MOL0     C27353   1.977   4.982   1.262 -0.3436 -0.0801  0.7168
  208MOL0     O27354   1.850   5.010   1.223  0.0576  0.2724  0.7609
  208MOL0     C27355   1.830   5.093   1.106 -0.8842 -0.0654 -0.3707
  208MOL0     C27356   1.791   5.033   0.986 -0.4676 -0.7159 -0.4293
  208MOL0     C27357   1.765   5.114   0.872  0.4428 -0.1782  0.6751
  208MOL0     C27358   1.795   5.247   0.873  0.2024 -0.2762  0.6148
  208MOL0     O27359   1.773   5.323   0.763  0.1680  0.3545  0.0817
  208MOL0     C27360   1.693   5.286   0.651 -0.1339 -0.5183  1.0835
  208MOL0     C27361   1.780   5.226   0.537  0.5293  0.6683 -0.0027
  208MOL0     C27362   1.726   5.252   0.398  0.0432 -0.9587  0.7460
  208MOL0     C27363   1.800   5.173   0.283  0.2144 -0.5190  0.0962
  208MOL0     C27364   1.787   5.018   0.288 -0.0023  0.1126  0.7976
  208MOL0     C27365   1.651   4.979   0.223 -0.1150 -0.9511  1.0172
  208MOL0     C27366   1.655   4.980   0.062  1.0375  0.5486  0.7608
  208MOL0     C27367   1.523   4.920   0.012 -0.1078 -0.0767 -0.6916
  208MOL0    Cl27368   1.541   4.899  -0.167 -0.2661  0.0949 -0.0401
  208MOL0     C27369   1.848   5.310   0.995 -0.6295 -0.3829  0.2746
  208MOL0     C27370   1.862   5.225   1.108 -0.7161  0.2702 -0.1602
  208MOL0     O27371   2.073   5.029   1.218 -0.4124 -0.4262  0.4420
  208MOL0     C27372   2.126   4.857   1.416 -0.2095  0.3102 -0.0593
  208MOL0     C27373   2.152   4.778   1.534  0.1485 -0.5482 -0.3640
  208MOL0     N27374   2.584   4.370   1.886 -0.2740  0.7549 -0.5481
  208MOL0     N27375   2.714   4.394   1.902 -0.9135  0.1490  0.4376
  208MOL0     C27376   3.771   4.729   2.133  0.2193  0.3071  0.3019
  208MOL0     C27377   3.873   4.796   2.210 -0.0429  1.1097  0.1079
  208MOL0     C27378   4.321   4.968   2.191  0.6539  0.0332 -0.1059
  208MOL0     C27379   4.384   4.903   2.298 -0.3981  0.8316 -0.3242
  208MOL0     C27380   4.511   4.940   2.330 -0.8748  0.8502  0.0860
  208MOL0     C27381   4.570   5.050   2.278 -0.5586 -0.5145 -0.3729
  208MOL0     O27382   4.702   5.065   2.314  0.6600  0.3251  0.7826
  208MOL0     C27383   4.764   5.180   2.257  0.2331 -0.1865 -0.2921
  208MOL0     C27384   4.908   5.193   2.307 -0.0049  0.0510 -0.0719
  208MOL0     C27385   5.004   5.269   2.232 -0.2944 -0.9850  0.1211
  208MOL0     C27386   5.012   5.420   2.269 -0.7902  0.1100 -0.0480
  208MOL0     C27387   5.151   5.474   2.270 -0.0809  0.0645  0.4049
  208MOL0     C27388   5.266   5.521   2.266 -0.4830 -0.9646  0.0917
  208MOL0     C27389   4.510   5.120   2.175  0.2052 -0.0368  0.2378
  208MOL0     C27390   4.388   5.076   2.117  0.5398 -0.2506  0.2598
  208MOL0     H27391   4.141   4.695   2.012 -1.4421 -4.0446 -3.7330
  208MOL0     H27392   3.956   4.595   1.878 -2.5493  1.8669 -1.9876
  208MOL0     H27393   3.707   4.416   1.936 -1.7115  1.2288  0.9186
  208MOL0     H27394   3.785   4.491   1.799  0.3918  0.2060 -1.1137
  208MOL0     H27395   3.593   4.400   1.698  1.9822 -2.5899  3.0325
  208MOL0     H27396   3.534   4.566   1.732 -2.4139 -1.5104 -1.0224
  208MOL0     H27397   3.425   4.510   1.911  1.1779  1.5032 -1.2918
  208MOL0     H27398   3.457   4.333   1.890 -0.3865 -2.1910 -3.6118
  208MOL0     H27399   3.332   4.503   1.676  0.2121  0.2695  0.4110
  208MOL0     H27400   3.381   4.345   1.653  0.7061  1.7200  1.2157
  208MOL0     H27401   3.160   4.437   1.843  0.5447 -1.0306  1.6290
  208MOL0     H27402   3.206   4.275   1.832  1.2216  0.8236  1.7603
  208MOL0     H27403   3.142   4.280   1.590 -0.9632 -1.1895  1.5077
  208MOL0     H27404   3.124   4.453   1.596  0.3329 -0.5165 -0.2833
  208MOL0     H27405   2.938   4.253   1.629 -0.7846  1.5971 -0.0815
  208MOL0     H27406   2.989   4.254   1.795  2.1705 -2.7656 -1.8145
  208MOL0     H27407   2.890   4.517   1.659 -0.3335  1.3778  2.2065
  208MOL0     H27408   2.932   4.496   1.823  0.6067  0.4240 -1.6483
  208MOL0     H27409   2.681   4.393   1.568 -2.3054  2.0441 -0.1925
  208MOL0     H27410   2.424   4.237   1.657  0.9394 -1.0532  1.2461
  208MOL0     H27411   2.441   4.389   1.570  0.2553  2.1803  0.8844
  208MOL0     H27412   2.339   4.512   1.777  1.6565 -1.8713  1.3288
  208MOL0     H27413   2.272   4.367   1.825 -1.8458 -2.9541 -1.2687
  208MOL0     H27414   2.218   4.473   1.540 -3.4659  1.8165 -0.3338
  208MOL0     H27415   2.145   4.340   1.610 -0.3902  0.2698 -1.9269
  208MOL0     H27416   2.049   4.469   1.797 -1.1839  2.4518 -0.0227
  208MOL0     H27417   1.985   4.505   1.638 -2.3852 -6.3504  2.4333
  208MOL0     H27418   1.846   4.721   1.635  1.0233 -0.6822  0.6913
  208MOL0     H27419   1.786   4.865   1.457  0.5000  1.8035 -0.0328
  208MOL0     H27420   1.764   4.928   0.988  2.8397 -1.7488 -2.1527
  208MOL0     H27421   1.716   5.069   0.787 -0.8955  2.9594 -0.3591
  208MOL0     H27422   1.651   5.373   0.601  1.2300 -0.6790 -0.4407
  208MOL0     H27423   1.609   5.219   0.669  1.5789 -3.8344 -1.8004
  208MOL0     H27424   1.781   5.118   0.549  0.1006  0.6202 -0.3679
  208MOL0     H27425   1.886   5.252   0.537  0.6986  0.0797 -1.3438
  208MOL0     H27426   1.741   5.358   0.373  0.8455 -1.1603  0.3425
  208MOL0     H27427   1.619   5.230   0.403 -0.4551  0.8513 -0.7378
  208MOL0     H27428   1.747   5.202   0.192 -0.6520  1.7653  1.2494
  208MOL0     H27429   1.902   5.209   0.300  0.4125 -0.8141 -0.4417
  208MOL0     H27430   1.796   4.994   0.394  2.8399  1.4380  0.9259
  208MOL0     H27431   1.878   4.982   0.239 -0.1291  0.7590  0.0634
  208MOL0     H27432   1.579   5.059   0.244  1.0023  1.0967 -2.1036
  208MOL0     H27433   1.637   4.883   0.272  2.0452 -0.5640  2.5068
  208MOL0     H27434   1.654   5.084   0.028  2.7893  0.2858 -0.1663
  208MOL0     H27435   1.744   4.932   0.020 -0.5397 -2.6228  0.7041
  208MOL0     H27436   1.438   4.983   0.039 -0.1762 -0.7092  0.6529
  208MOL0     H27437   1.515   4.823   0.063 -1.4852  0.2668 -0.2121
  208MOL0     H27438   1.869   5.416   1.006 -0.0003 -0.3528 -1.1035
  208MOL0     H27439   1.914   5.263   1.195  0.8433  3.1092 -2.1569
  208MOL0     H27440   2.197   4.889   1.341 -1.1236  0.7459 -0.7627
  208MOL0     H27441   2.251   4.754   1.570 -0.0273 -1.2453 -0.3339
  208MOL0     H27442   3.667   4.745   2.159 -0.0827 -2.1426  0.8530
  208MOL0     H27443   3.838   4.853   2.296 -0.8508  1.3032 -0.3451
  208MOL0     H27444   4.347   4.814   2.349  1.8577  0.6766  1.2349
  208MOL0     H27445   4.560   4.895   2.416 -0.5586 -0.3472 -0.7042
  208MOL0     H27446   4.710   5.275   2.260  1.1844  0.3650 -0.2384
  208MOL0     H27447   4.769   5.166   2.148  0.3879  2.4384 -0.7013
  208MOL0     H27448   4.910   5.237   2.407 -1.3909 -2.9552  1.4285
  208MOL0     H27449   4.948   5.095   2.335 -0.3921 -0.5350 -1.5204
  208MOL0     H27450   4.987   5.246   2.126  2.9675 -1.5391 -0.3990
  208MOL0     H27451   5.101   5.223   2.253  0.0936  0.5422  1.8729
  208MOL0     H27452   4.963   5.471   2.185 -0.3309 -2.4947 -2.0027
  208MOL0     H27453   4.964   5.448   2.364 -0.5977 -2.9808  1.0653
  208MOL0     H27454   5.360   5.567   2.243 -0.6136 -0.6317  0.2277
  208MOL0     H27455   4.553   5.211   2.134  3.4471 -1.3148  0.5314
  208MOL0     H27456   4.337   5.132   2.040 -1.4433 -4.3454 -1.7240
  209MOL0     O27457   4.694   1.217   6.245  0.2253  0.8220  0.3889
  209MOL0     C27458   4.672   1.159   6.138 -0.6031  0.3665  0.8129
  209MOL0     O27459   4.553   1.123   6.089  0.3215  0.7964  0.2894
  209MOL0     C27460   4.445   1.206   6.084  0.6741 -0.1590 -0.9728
  209MOL0     C27461   4.435   1.347   6.099  0.5005  0.1416  0.1876
  209MOL0     C27462   4.310   1.412   6.094  0.1317  0.2449  0.7160
  209MOL0     C27463   4.188   1.342   6.082 -0.0226  1.3290  0.0327
  209MOL0     O27464   4.057   1.403   6.081  0.4729  0.4842 -0.3075
  209MOL0     C27465   4.054   1.542   6.046 -0.4012  0.0054 -0.9857
  209MOL0     C27466   4.035   1.624   6.178  0.6797 -0.0139 -0.4654
  209MOL0     C27467   3.899   1.591   6.236 -0.5109 -1.3967 -0.0870
  209MOL0     C27468   3.885   1.651   6.376 -0.2598 -0.4362  0.6766
  209MOL0     C27469   3.741   1.702   6.401 -0.3154 -0.4997 -0.0386
  209MOL0     C27470   3.743   1.793   6.520 -0.2584  0.8944  0.4397
  209MOL0     C27471   3.618   1.868   6.527 -0.3286  0.7075  0.1577
  209MOL0     C27472   3.625   1.965   6.650 -0.5152 -0.5922 -0.3715
  209MOL0     N27473   3.505   2.042   6.661  0.2108 -0.0418 -0.3213
  209MOL0     C27474   3.380   2.003   6.691  0.3444  0.2771  0.7463
  209MOL0     C27475   3.306   2.111   6.690  0.2887 -0.7630 -1.2649
  209MOL0     C27476   3.158   2.102   6.716  0.1470 -0.3943 -0.7964
  209MOL0     C27477   3.112   1.981   6.800 -1.0212 -0.5195  0.7404
  209MOL0     C27478   2.966   1.968   6.807  0.7063  0.4105 -0.3640
  209MOL0     C27479   2.931   1.827   6.862 -0.0779  0.1094 -0.2495
  209MOL0     O27480   2.802   1.849   6.919  0.2658  0.6281  0.6440
  209MOL0     C27481   2.718   1.742   6.948 -0.3309  0.2932 -0.2138
  209MOL0     C27482   2.577   1.751   6.932 -0.8541  0.3443  0.2704
  209MOL0     C27483   2.495   1.647   6.949 -0.4719 -0.1653 -0.1528
  209MOL0     C27484   2.540   1.517   6.993  0.2276 -0.0601  1.1272
  209MOL0     C27485   2.452   1.400   6.995  0.1355  0.9476 -1.3675
  209MOL0     O27486   2.329   1.397   6.925  0.0312 -0.5801  0.2980
  209MOL0     C27487   2.265   1.280   6.895 -0.2676  0.6651 -0.0019
  209MOL0     C27488   2.279   1.197   6.777  0.0106 -0.1022 -0.3028
  209MOL0     C27489   2.209   1.081   6.766  0.1338  0.3391 -0.7583
  209MOL0     C27490   2.116   1.045   6.867  0.3904  0.5179 -0.3566
  209MOL0     O27491   2.029   0.937   6.870  0.0181  0.2424 -0.1889
  209MOL0     C27492   2.034   0.844   6.759  1.4496  0.2006  0.4356
  209MOL0     C27493   1.916   0.742   6.754  0.1067  0.6699  0.0328
  209MOL0     C27494   1.884   0.670   6.886  0.4187 -0.8965  0.5079
  209MOL0     C27495   1.991   0.572   6.914  0.0629  0.1750 -0.1726
  209MOL0     C27496   1.967   0.480   7.035 -0.3522  0.6986  0.3644
  209MOL0     C27497   1.966   0.540   7.171  0.3142  1.1777 -0.8714
  209MOL0     C27498   1.905   0.440   7.272 -0.0808  0.3786  0.2911
  209MOL0     C27499   1.905   0.487   7.413  0.3812  1.2541 -0.3755
  209MOL0    Cl27500   2.065   0.520   7.471  0.1830  0.2371 -0.2863
  209MOL0     C27501   2.094   1.124   6.984 -0.0340 -0.8322  1.4665
  209MOL0     C27502   2.167   1.242   6.990 -0.1188  0.1326 -0.5004
  209MOL0     O27503   2.490   1.310   7.079 -0.4254 -0.2494 -0.6481
  209MOL0     C27504   2.681   1.514   7.026 -0.3009  0.1337  0.3087
  209MOL0     C27505   2.774   1.614   6.991  0.3935 -0.1034  1.1537
  209MOL0     N27506   3.388   2.219   6.670  0.6262 -0.3743  1.4279
  209MOL0     N27507   3.503   2.176   6.652 -0.2488  0.0063 -0.6104
  209MOL0     C27508   4.207   1.200   6.075  0.0553 -0.1136  0.5421
  209MOL0     C27509   4.323   1.129   6.073 -0.8516 -1.4837  1.5761
  209MOL0     C27510   4.789   1.109   6.064 -0.2590 -0.4406  0.1837
  209MOL0     C27511   4.782   1.039   5.947 -0.0631  0.1072 -0.0774
  209MOL0     C27512   4.899   0.974   5.901 -0.5481  0.1590  0.8767
  209MOL0     C27513   5.022   0.988   5.965 -0.1475 -0.1268  0.2856
  209MOL0     O27514   5.124   0.916   5.897  0.0141 -0.2460 -0.0488
  209MOL0     C27515   5.246   0.906   5.974 -0.1140 -0.0226  1.2495
  209MOL0     C27516   5.332   0.786   5.930 -0.0202 -0.1953 -0.1036
  209MOL0     C27517   5.363   0.794   5.779 -0.4653 -0.1157 -0.3848
  209MOL0     C27518   5.456   0.679   5.741 -0.1695 -0.0677 -0.0537
  209MOL0     C27519   5.493   0.683   5.601  0.5127  0.2855 -0.9885
  209MOL0     C27520   5.524   0.677   5.480 -0.7751 -0.2458  0.6836
  209MOL0     C27521   5.024   1.060   6.088  0.9853  0.5918  0.2215
  209MOL0     C27522   4.909   1.131   6.125 -0.0108 -0.4579  0.0086
  209MOL0     H27523   4.524   1.408   6.109  0.5887 -0.3925  4.4007
  209MOL0     H27524   4.302   1.520   6.099 -1.0200  0.1300  2.1069
  209MOL0     H27525   3.969   1.556   5.979 -1.2940 -1.8257 -0.2704
  209MOL0     H27526   4.145   1.574   5.993  0.7717 -1.2905  0.1877
  209MOL0     H27527   4.043   1.730   6.149  0.2701  0.5432  1.2999
  209MOL0     H27528   4.113   1.602   6.251 -1.6046 -2.6558  1.3653
  209MOL0     H27529   3.878   1.483   6.235  0.5051 -1.6000 -0.9437
  209MOL0     H27530   3.825   1.628   6.165  0.0380  0.6612  0.3441
  209MOL0     H27531   3.912   1.580   6.455 -0.4809 -0.5004  0.6970
  209MOL0     H27532   3.953   1.736   6.385  0.1844 -0.6305 -0.6130
  209MOL0     H27533   3.666   1.623   6.403 -1.2948  0.4159  0.0435
  209MOL0     H27534   3.732   1.761   6.309  1.2649 -0.9535 -0.5265
  209MOL0     H27535   3.822   1.869   6.517 -0.7620  1.7497  3.7570
  209MOL0     H27536   3.764   1.735   6.611 -2.7235  1.0895  1.2166
  209MOL0     H27537   3.586   1.917   6.434  0.5133 -0.0102 -0.5298
  209MOL0     H27538   3.535   1.800   6.550  0.9024 -1.9100 -2.4191
  209MOL0     H27539   3.714   2.027   6.639 -0.6963 -0.5213 -1.4733
  209MOL0     H27540   3.640   1.898   6.736  1.2095  0.1304 -0.0559
  209MOL0     H27541   3.350   1.902   6.719 -3.4557  1.1140  0.2537
  209MOL0     H27542   3.115   2.078   6.618 -0.5018 -1.3238 -0.3000
  209MOL0     H27543   3.129   2.198   6.760  1.8973  0.2947 -1.0759
  209MOL0     H27544   3.156   1.994   6.900  1.8559 -0.2786 -0.4760
  209MOL0     H27545   3.159   1.886   6.774  0.0094  0.4942 -1.3237
  209MOL0     H27546   2.916   2.034   6.879 -1.4239 -2.8123  1.3715
  209MOL0     H27547   2.911   1.981   6.713 -1.4129 -2.4619  0.3410
  209MOL0     H27548   3.005   1.780   6.927  0.2824 -2.6356 -2.4549
  209MOL0     H27549   2.917   1.752   6.783  2.0731 -0.8515  0.2142
  209MOL0     H27550   2.547   1.850   6.900 -0.3185  0.5250  0.3132
  209MOL0     H27551   2.390   1.672   6.944  0.1782  2.9368 -0.4972
  209MOL0     H27552   2.351   1.226   6.700  1.0908 -3.2022 -0.6161
  209MOL0     H27553   2.222   1.022   6.676  0.9145 -2.1433  0.8808
  209MOL0     H27554   2.128   0.788   6.765  0.8424 -0.8299  0.5562
  209MOL0     H27555   2.039   0.907   6.670  0.2254 -0.5579 -0.2011
  209MOL0     H27556   1.946   0.667   6.681 -0.7054 -5.6352  5.2877
  209MOL0     H27557   1.832   0.809   6.731  0.9381  1.1254 -1.8777
  209MOL0     H27558   1.782   0.636   6.864  0.1524  0.2980 -0.1797
  209MOL0     H27559   1.879   0.741   6.969  1.5473  0.0040 -0.1682
  209MOL0     H27560   2.022   0.514   6.827  0.9910 -0.2297  0.4120
  209MOL0     H27561   2.082   0.631   6.931 -1.8068  3.2348 -0.1053
  209MOL0     H27562   2.039   0.398   7.022 -0.1726  1.1575 -2.0549
  209MOL0     H27563   1.870   0.431   7.026 -1.3725  2.1494  2.6406
  209MOL0     H27564   1.904   0.629   7.162 -2.1552 -0.6529 -4.0337
  209MOL0     H27565   2.066   0.561   7.211  0.7146 -3.7905  1.6796
  209MOL0     H27566   1.799   0.444   7.247  0.2874  1.9019 -1.1830
  209MOL0     H27567   1.930   0.333   7.266  0.6740  0.5571  0.1111
  209MOL0     H27568   1.861   0.407   7.472 -1.6298  2.0886 -0.6691
  209MOL0     H27569   1.840   0.572   7.433 -0.1094  0.6263  0.7920
  209MOL0     H27570   2.031   1.093   7.067  0.4706 -1.5003  1.6051
  209MOL0     H27571   2.142   1.309   7.072  1.4126  1.8644 -1.3446
  209MOL0     H27572   2.728   1.422   7.063  1.7885  0.4155 -1.4460
  209MOL0     H27573   2.879   1.609   7.016  0.9413  1.5696 -0.5743
  209MOL0     H27574   4.117   1.143   6.059 -0.2033  1.2620 -4.6748
  209MOL0     H27575   4.305   1.023   6.057 -3.1142 -1.0485  0.7995
  209MOL0     H27576   4.691   1.036   5.887  1.1613 -1.7656 -1.9839
  209MOL0     H27577   4.891   0.914   5.812  2.2244 -1.2064  1.4340
  209MOL0     H27578   5.222   0.908   6.081 -0.4324  0.5231  1.1721
  209MOL0     H27579   5.313   0.991   5.959  0.8269 -0.7049  1.4844
  209MOL0     H27580   5.424   0.794   5.988  0.8224  1.1034 -1.5396
  209MOL0     H27581   5.278   0.697   5.965  0.1969 -0.4172 -0.3258
  209MOL0     H27582   5.430   0.880   5.772  0.2081 -0.6983 -1.3550
  209MOL0     H27583   5.280   0.813   5.711 -0.3626  1.6736 -0.0530
  209MOL0     H27584   5.546   0.687   5.803 -0.0837  3.6891 -0.4502
  209MOL0     H27585   5.409   0.583   5.764  2.8579 -0.8866  3.9241
  209MOL0     H27586   5.568   0.674   5.382  1.8227 -0.4270  1.7642
  209MOL0     H27587   5.113   1.056   6.150 -0.3117 -0.8625  2.1245
  209MOL0     H27588   4.914   1.182   6.220  0.2997 -2.4935  1.1337
  210MOL0     O27589   1.917  10.962   5.284 -0.4925 -0.3072  0.4133
  210MOL0     C27590   1.896  10.846   5.330 -0.8136 -0.5348  0.0736
  210MOL0     O27591   1.997  10.765   5.370 -0.0004 -0.3553  0.5978
  210MOL0     C27592   2.127  10.816   5.369 -0.3237 -0.2985  0.1826
  210MOL0     C27593   2.197  10.867   5.253  0.1171  0.6024  0.3216
  210MOL0     C27594   2.331  10.908   5.257  0.3885 -0.4226  0.1496
  210MOL0     C27595   2.395  10.921   5.382  0.4528  0.6734  0.5855
  210MOL0     O27596   2.518  10.978   5.380 -0.6470 -0.3717 -0.5065
  210MOL0     C27597   2.628  10.940   5.467  0.2847  0.9662  0.0115
  210MOL0     C27598   2.761  10.997   5.426 -0.4242  0.8835 -0.1335
  210MOL0     C27599   2.750  11.131   5.356  0.2364 -1.1747 -0.4976
  210MOL0     C27600   2.886  11.155   5.303 -0.6671 -0.1050  0.1730
  210MOL0     C27601   2.879  11.284   5.210  0.9715  1.0759  0.1567
  210MOL0     C27602   3.016  11.347   5.194  1.0160 -0.2011 -0.3099
  210MOL0     C27603   3.102  11.288   5.083 -0.3125  0.1991 -0.7579
  210MOL0     C27604   3.239  11.355   5.075  0.1774 -0.9625  0.0674
  210MOL0     N27605   3.322  11.370   5.195 -0.7355  0.2997 -0.5146
  210MOL0     C27606   3.332  11.485   5.276  0.8493  0.4261  0.0012
  210MOL0     C27607   3.408  11.434   5.379  0.1523 -0.0294 -0.3251
  210MOL0     C27608   3.421  11.515   5.501 -0.8366 -0.5319  0.4126
  210MOL0     C27609   3.564  11.534   5.556 -0.4132 -0.2891 -1.1915
  210MOL0     C27610   3.680  11.560   5.459 -0.1489 -0.6829  1.2591
  210MOL0     C27611   3.765  11.437   5.459 -0.8218  0.0640  1.3313
  210MOL0     O27612   3.885  11.473   5.520  0.1837  0.1565 -0.0247
  210MOL0     C27613   3.992  11.386   5.520 -0.1119 -0.0918 -1.2493
  210MOL0     C27614   4.113  11.438   5.480 -0.4162 -0.4158  0.8462
  210MOL0     C27615   4.233  11.370   5.460  0.8107  0.1692  0.5472
  210MOL0     C27616   4.227  11.234   5.492 -0.2072 -0.1680  0.5207
  210MOL0     C27617   4.350  11.158   5.464 -0.7526 -1.1844 -0.3348
  210MOL0     O27618   4.340  11.019   5.453 -0.2243  0.3274 -0.1317
  210MOL0     C27619   4.448  10.942   5.498 -0.5699  0.1580  0.9736
  210MOL0     C27620   4.519  10.867   5.395  0.5762 -0.5075 -1.3078
  210MOL0     C27621   4.634  10.800   5.447  0.2845  0.3215 -0.1135
  210MOL0     C27622   4.670  10.801   5.574 -0.3239  0.5001  0.1728
  210MOL0     O27623   4.787  10.744   5.616 -1.2538 -0.5463 -0.0900
  210MOL0     C27624   4.872  10.672   5.523 -0.0718  0.7728  0.0554
  210MOL0     C27625   4.997  10.646   5.587  0.8006  0.3494 -0.6613
  210MOL0     C27626   5.086  10.766   5.600  0.2220  0.5511  0.1069
  210MOL0     C27627   5.221  10.732   5.644  0.7175 -0.1416 -0.7053
  210MOL0     C27628   5.285  10.846   5.734 -1.0870 -0.0709 -0.1131
  210MOL0     C27629   5.433  10.814   5.748  0.1313 -0.3506 -0.6076
  210MOL0     C27630   5.469  10.757   5.883 -0.2061  0.2532  0.4564
  210MOL0     C27631   5.429  10.607   5.903  0.4107  0.2970  0.2167
  210MOL0    Cl27632   5.515  10.549   6.050 -0.0547  0.0113  0.2371
  210MOL0     C27633   4.592  10.867   5.676  0.6477 -0.1881  0.9982
  210MOL0     C27634   4.482  10.943   5.635 -0.0939  0.1604 -0.4463
  210MOL0     O27635   4.456  11.220   5.469 -0.9264 -0.1738  0.3898
  210MOL0     C27636   4.104  11.167   5.528  0.9298 -0.3270  0.0624
  210MOL0     C27637   3.983  11.245   5.541 -0.6784  1.2185  1.6015
  210MOL0     N27638   3.441  11.301   5.371 -0.0021 -0.1007  0.2995
  210MOL0     N27639   3.376  11.266   5.263 -0.1621 -0.0367 -0.2833
  210MOL0     C27640   2.328  10.875   5.501  0.0112  0.7863  0.2476
  210MOL0     C27641   2.194  10.817   5.493 -0.8409 -0.7657  0.0700
  210MOL0     C27642   1.757  10.822   5.365 -0.3405  0.1061  0.3340
  210MOL0     C27643   1.655  10.915   5.340  0.5675  0.0592  0.9106
  210MOL0     C27644   1.522  10.896   5.382 -0.2513  0.9864 -0.2058
  210MOL0     C27645   1.471  10.774   5.422  0.4230  0.1493 -0.2737
  210MOL0     O27646   1.334  10.765   5.439 -0.7134  0.9979 -0.7354
  210MOL0     C27647   1.291  10.639   5.484 -0.5601  0.0068  0.2722
  210MOL0     C27648   1.147  10.650   5.539 -1.0569  0.4725  0.1502
  210MOL0     C27649   1.104  10.511   5.579 -0.5610  0.0051 -0.2530
  210MOL0     C27650   1.018  10.503   5.714 -0.2588  0.1636 -0.5459
  210MOL0     C27651   0.889  10.564   5.694 -0.3056 -0.5074 -0.4301
  210MOL0     C27652   0.771  10.588   5.673  0.1834  0.6517 -0.9427
  210MOL0     C27653   1.572  10.670   5.432 -0.3835 -0.3735  0.0446
  210MOL0     C27654   1.711  10.691   5.411  0.5485 -0.2488 -0.9632
  210MOL0     H27655   2.138  10.866   5.162  5.0400 -0.7949 -3.3101
  210MOL0     H27656   2.384  10.945   5.170  2.7349 -0.2121  1.5770
  210MOL0     H27657   2.629  10.838   5.505  1.4155  0.8327 -0.3502
  210MOL0     H27658   2.613  10.993   5.561 -0.7324 -1.3879  1.2441
  210MOL0     H27659   2.801  10.929   5.351  1.5774  2.8153 -0.9392
  210MOL0     H27660   2.825  10.999   5.515 -1.0066  1.1855  0.2853
  210MOL0     H27661   2.731  11.219   5.418 -0.6362 -1.0920 -0.8665
  210MOL0     H27662   2.678  11.128   5.274  0.4746 -1.9897 -0.6902
  210MOL0     H27663   2.947  11.188   5.388  3.5633 -1.0216 -2.2031
  210MOL0     H27664   2.938  11.069   5.260 -1.9229 -0.8456  0.0870
  210MOL0     H27665   2.825  11.369   5.253  3.0044  1.7429  1.5265
  210MOL0     H27666   2.833  11.245   5.118 -1.3626  2.2083  0.7686
  210MOL0     H27667   3.069  11.337   5.289  0.5217  2.9941  0.4073
  210MOL0     H27668   3.007  11.454   5.172  2.3167  0.0658  0.3544
  210MOL0     H27669   3.127  11.184   5.102 -1.4837  0.0347 -0.0202
  210MOL0     H27670   3.057  11.271   4.985  3.8831 -2.6166 -2.5071
  210MOL0     H27671   3.224  11.457   5.040  2.7511 -0.6867 -0.3814
  210MOL0     H27672   3.302  11.305   5.001 -0.2805  0.9738 -1.7016
  210MOL0     H27673   3.288  11.583   5.258 -1.7421 -0.9359 -1.7774
  210MOL0     H27674   3.367  11.463   5.581 -0.8814  0.1306  0.8198
  210MOL0     H27675   3.376  11.614   5.494  2.2869  1.2413  2.9815
  210MOL0     H27676   3.592  11.452   5.624 -1.5271  0.4593  0.2296
  210MOL0     H27677   3.555  11.611   5.633 -0.8697 -0.2642 -1.2654
  210MOL0     H27678   3.634  11.589   5.364  2.0718  0.5642  0.4957
  210MOL0     H27679   3.744  11.644   5.487 -0.3254 -0.0801 -0.0662
  210MOL0     H27680   3.798  11.419   5.356  0.3902 -2.2503  2.0786
  210MOL0     H27681   3.702  11.352   5.486 -3.1077  1.2273  0.0370
  210MOL0     H27682   4.121  11.545   5.461  3.7700 -0.8761 -1.2502
  210MOL0     H27683   4.315  11.425   5.415  2.4397 -1.7653  1.0125
  210MOL0     H27684   4.492  10.868   5.290 -0.0698 -0.6130 -1.1473
  210MOL0     H27685   4.679  10.760   5.357 -4.9355  2.7903 -4.3725
  210MOL0     H27686   4.896  10.736   5.437  1.0893  0.3960  0.0817
  210MOL0     H27687   4.825  10.580   5.490 -0.8728  1.0617  0.3535
  210MOL0     H27688   5.050  10.569   5.531 -1.9586 -1.4084 -1.0637
  210MOL0     H27689   4.979  10.595   5.683 -0.1596  2.2760  0.2296
  210MOL0     H27690   5.036  10.830   5.673 -1.8628  0.7540 -1.3942
  210MOL0     H27691   5.106  10.823   5.508  1.1394  0.4341  0.2254
  210MOL0     H27692   5.210  10.642   5.706 -0.9795  1.5579  1.6399
  210MOL0     H27693   5.285  10.705   5.559  1.3956  3.0725 -1.3237
  210MOL0     H27694   5.247  10.847   5.837  1.9034  1.9583  1.1220
  210MOL0     H27695   5.261  10.939   5.681 -1.1261  0.1612  0.3083
  210MOL0     H27696   5.495  10.904   5.757 -2.0829  1.0318  2.7521
  210MOL0     H27697   5.475  10.743   5.676 -1.0932 -0.8538 -0.8575
  210MOL0     H27698   5.577  10.766   5.898  0.1962  0.5265 -2.1236
  210MOL0     H27699   5.432  10.814   5.969 -0.4913 -1.1689  1.3217
  210MOL0     H27700   5.442  10.548   5.812 -3.7874 -1.7490  0.7008
  210MOL0     H27701   5.322  10.595   5.923  0.4071 -1.9769 -0.9162
  210MOL0     H27702   4.617  10.863   5.782 -2.7035  3.1548  2.1538
  210MOL0     H27703   4.428  11.012   5.698  0.9513 -1.2793  2.2052
  210MOL0     H27704   4.111  11.060   5.543 -0.7480 -0.1916  2.4680
  210MOL0     H27705   3.893  11.198   5.579 -3.2064  4.5358  0.1973
  210MOL0     H27706   2.357  10.896   5.604  1.4740 -1.7259  0.4329
  210MOL0     H27707   2.143  10.787   5.584 -1.8606 -0.9349 -0.5370
  210MOL0     H27708   1.679  11.020   5.331 -0.7534  0.3999  1.0743
  210MOL0     H27709   1.456  10.982   5.369 -0.0701  1.0741 -0.5721
  210MOL0     H27710   1.350  10.602   5.568  1.5730 -1.8242 -1.8961
  210MOL0     H27711   1.292  10.562   5.406  1.5574  0.2617  0.0061
  210MOL0     H27712   1.139  10.712   5.629 -3.1886  0.0004  0.3360
  210MOL0     H27713   1.081  10.694   5.464  0.2939  0.1480 -1.2882
  210MOL0     H27714   1.194  10.453   5.602 -0.2188  0.8693  0.6672
  210MOL0     H27715   1.049  10.465   5.496  1.8332 -0.9396 -1.3924
  210MOL0     H27716   1.004  10.398   5.741  2.2396 -0.3220 -0.9227
  210MOL0     H27717   1.079  10.549   5.792  1.1901 -0.0867 -1.4908
  210MOL0     H27718   0.674  10.621   5.643  0.3418 -0.1551 -2.4281
  210MOL0     H27719   1.553  10.566   5.458  1.5804 -0.0975  3.0918
  210MOL0     H27720   1.782  10.611   5.425  0.4018 -0.4441 -1.3434
  211MOL0     O27721   9.059   6.352   7.597  0.2630  0.4082  0.3787
  211MOL0     C27722   9.181   6.367   7.620  0.3361  0.0984 -0.3866
  211MOL0     O27723   9.259   6.287   7.695  0.3502  0.1856  0.3960
  211MOL0     C27724   9.202   6.184   7.767  0.3008 -1.1884 -0.0533
  211MOL0     C27725   9.118   6.084   7.700 -0.0429 -0.0046  0.2713
  211MOL0     C27726   9.070   5.976   7.771  0.1189  0.4388  1.0725
  211MOL0     C27727   9.111   5.954   7.905 -0.2111 -0.4566 -0.4205
  211MOL0     O27728   9.078   5.844   7.972  0.8088 -0.2802 -0.5147
  211MOL0     C27729   8.966   5.752   7.926 -0.8762  0.4570 -0.1393
  211MOL0     C27730   8.969   5.633   8.020  0.6400  0.1340 -0.9766
  211MOL0     C27731   9.097   5.543   8.015  0.5649  1.0407 -0.3252
  211MOL0     C27732   9.236   5.609   8.030 -0.1464 -1.0397  0.3382
  211MOL0     C27733   9.347   5.523   8.089  0.5218  0.2898 -0.0185
  211MOL0     C27734   9.455   5.601   8.165  0.0495 -0.5676 -0.8071
  211MOL0     C27735   9.561   5.502   8.227  0.6617 -0.1717 -0.0436
  211MOL0     C27736   9.677   5.579   8.302  0.2050 -0.2091  0.7216
  211MOL0     N27737   9.793   5.630   8.218 -0.1553 -0.5447 -1.1365
  211MOL0     C27738   9.858   5.559   8.115 -0.2247 -0.7723  0.6766
  211MOL0     C27739   9.974   5.629   8.100  0.1191  0.4159 -0.5349
  211MOL0     C27740  10.086   5.595   7.993 -0.3140 -1.1774 -0.5298
  211MOL0     C27741  10.220   5.554   8.054 -0.0843  0.5134  0.3349
  211MOL0     C27742  10.204   5.412   8.109  0.1104 -0.5409  0.2103
  211MOL0     C27743  10.342   5.361   8.141 -1.0003  0.1104 -0.3243
  211MOL0     O27744  10.391   5.432   8.259 -0.2155  0.1316 -0.0413
  211MOL0     C27745  10.532   5.417   8.269  0.7140 -0.3017 -0.4057
  211MOL0     C27746  10.582   5.300   8.321 -0.4164  0.2498 -0.3515
  211MOL0     C27747  10.723   5.290   8.341  0.7882  0.3613  0.1467
  211MOL0     C27748  10.802   5.406   8.327  0.4156 -0.0984  0.0144
  211MOL0     C27749  10.941   5.399   8.351 -0.7848 -0.5185 -0.9189
  211MOL0     O27750  10.979   5.284   8.407  0.1971  0.0046 -0.3228
  211MOL0     C27751  11.110   5.278   8.459  0.4894 -0.2140 -0.1125
  211MOL0     C27752  11.119   5.293   8.603  0.8870 -0.3500  0.8627
  211MOL0     C27753  11.246   5.279   8.670  0.0085  0.1939 -0.0480
  211MOL0     C27754  11.353   5.230   8.595  0.0074 -0.5910 -0.7938
  211MOL0     O27755  11.478   5.216   8.646  0.0730 -0.1706  1.0899
  211MOL0     C27756  11.523   5.306   8.747  0.5528 -0.0821  0.4817
  211MOL0     C27757  11.668   5.277   8.760 -0.3486  0.4026  0.1981
  211MOL0     C27758  11.760   5.336   8.659  0.2890 -0.5486  0.5394
  211MOL0     C27759  11.913   5.286   8.695 -0.0342 -0.2229 -1.0345
  211MOL0     C27760  11.937   5.133   8.663  0.3226  0.7398 -0.8433
  211MOL0     C27761  12.079   5.093   8.692  0.2559  0.1583  0.7490
  211MOL0     C27762  12.088   4.947   8.676  0.2463  0.3273 -0.1881
  211MOL0     C27763  12.223   4.874   8.694 -0.5182 -0.9017 -1.0902
  211MOL0    Cl27764  12.348   4.930   8.576 -0.2304  0.7204  0.0526
  211MOL0     C27765  11.351   5.214   8.454 -0.2359  0.3646  0.1901
  211MOL0     C27766  11.228   5.237   8.385  0.4679 -0.5008  0.0308
  211MOL0     O27767  11.012   5.504   8.346 -0.2662  0.3121 -0.8431
  211MOL0     C27768  10.742   5.531   8.285  0.6407 -0.1754  0.0679
  211MOL0     C27769  10.609   5.528   8.249 -0.2317  0.1716 -0.7518
  211MOL0     N27770   9.969   5.742   8.183  1.5141  0.2796  0.6690
  211MOL0     N27771   9.856   5.746   8.247 -0.0357 -0.1497 -0.4573
  211MOL0     C27772   9.206   6.046   7.966 -0.2431 -0.0618  0.1831
  211MOL0     C27773   9.251   6.150   7.897 -0.7798  0.4430 -0.0936
  211MOL0     C27774   9.249   6.484   7.551  0.0040 -0.4763  0.7206
  211MOL0     C27775   9.373   6.534   7.595 -0.3641 -0.3899  0.4600
  211MOL0     C27776   9.430   6.635   7.520  0.3669 -1.1608  0.5166
  211MOL0     C27777   9.368   6.691   7.400  0.4158  0.0230  0.4845
  211MOL0     O27778   9.429   6.802   7.336 -0.0150  0.0528 -0.4460
  211MOL0     C27779   9.428   6.807   7.196 -0.1818 -0.5814  0.0195
  211MOL0     C27780   9.395   6.943   7.138 -0.7996 -0.3429 -0.4130
  211MOL0     C27781   9.247   6.994   7.151 -0.7700  0.4758 -0.1449
  211MOL0     C27782   9.242   7.119   7.055  0.5438  1.1572  0.0648
  211MOL0     C27783   9.105   7.158   7.054  0.7532 -0.8587 -0.1629
  211MOL0     C27784   8.990   7.195   7.051 -0.7399 -0.4171 -0.7639
  211MOL0     C27785   9.246   6.639   7.356  0.2910  0.8777 -0.0806
  211MOL0     C27786   9.187   6.543   7.439  0.0513 -0.3514 -0.7856
  211MOL0     H27787   9.103   6.098   7.593  0.9432 -1.9684 -0.1849
  211MOL0     H27788   9.011   5.900   7.722  1.1624 -0.5842  1.3546
  211MOL0     H27789   8.999   5.716   7.828  3.2170 -1.2882  1.6404
  211MOL0     H27790   8.864   5.791   7.924 -1.0340  0.0413 -1.2782
  211MOL0     H27791   8.886   5.566   7.995  0.0691  1.3603 -2.5215
  211MOL0     H27792   8.946   5.673   8.119  0.2949  0.3314 -1.1362
  211MOL0     H27793   9.102   5.485   7.922 -0.1171  0.3704  0.0413
  211MOL0     H27794   9.082   5.481   8.104 -1.3179  0.7730 -0.7824
  211MOL0     H27795   9.261   5.633   7.926  0.3731 -0.4908  0.5819
  211MOL0     H27796   9.221   5.699   8.091 -1.2643 -1.4770  0.7282
  211MOL0     H27797   9.389   5.460   8.010  2.7183 -1.4161  2.3466
  211MOL0     H27798   9.299   5.449   8.153  0.9272 -1.8409 -2.0180
  211MOL0     H27799   9.412   5.660   8.246  1.9761  1.0989 -0.9301
  211MOL0     H27800   9.501   5.671   8.095 -0.2199  0.5368  0.0985
  211MOL0     H27801   9.510   5.439   8.301  1.2617  0.2857  0.7758
  211MOL0     H27802   9.597   5.440   8.144  0.3914  0.5146 -0.6808
  211MOL0     H27803   9.727   5.524   8.382  1.4978 -1.2273 -0.7339
  211MOL0     H27804   9.628   5.660   8.357 -1.2801  0.1921 -1.0933
  211MOL0     H27805   9.829   5.463   8.074 -1.7612 -0.3094  0.5905
  211MOL0     H27806  10.086   5.688   7.936 -1.3865 -0.0683  1.1947
  211MOL0     H27807  10.062   5.503   7.938  1.9432 -1.6976 -0.7398
  211MOL0     H27808  10.250   5.628   8.129  0.2610  0.0024  0.7115
  211MOL0     H27809  10.297   5.549   7.976 -0.9576 -0.7756 -0.4821
  211MOL0     H27810  10.147   5.408   8.202  0.2871 -1.5350  0.2867
  211MOL0     H27811  10.161   5.348   8.032  0.1071  0.7609 -0.9043
  211MOL0     H27812  10.407   5.373   8.054  0.3454 -1.1798  0.4636
  211MOL0     H27813  10.346   5.253   8.158 -1.3620  0.4519  2.2929
  211MOL0     H27814  10.526   5.212   8.350  2.0701 -1.7030 -1.0479
  211MOL0     H27815  10.758   5.194   8.375  0.2732 -0.1765 -0.7935
  211MOL0     H27816  11.035   5.330   8.661 -0.9347 -1.0982 -1.1772
  211MOL0     H27817  11.260   5.305   8.775 -0.0667  1.0820 -0.2457
  211MOL0     H27818  11.472   5.269   8.836 -1.2313 -1.9836 -1.2330
  211MOL0     H27819  11.494   5.410   8.729 -0.3175 -0.3462  0.3149
  211MOL0     H27820  11.678   5.168   8.762 -2.4263  0.1204 -1.4154
  211MOL0     H27821  11.700   5.315   8.858 -2.8275  2.7164  0.2534
  211MOL0     H27822  11.742   5.443   8.653 -3.1477 -1.0497 -0.4975
  211MOL0     H27823  11.723   5.287   8.568 -1.2998 -0.1608  0.9489
  211MOL0     H27824  11.986   5.341   8.635 -0.0240 -0.2939 -1.0870
  211MOL0     H27825  11.932   5.314   8.799 -2.5302 -2.1759  0.0630
  211MOL0     H27826  11.908   5.117   8.559  1.1362  2.8484 -1.4499
  211MOL0     H27827  11.870   5.064   8.714 -2.7275  2.1056 -2.7504
  211MOL0     H27828  12.102   5.104   8.799  2.4486 -1.4094  0.5129
  211MOL0     H27829  12.146   5.145   8.622  0.3511 -2.4336 -1.2321
  211MOL0     H27830  12.023   4.895   8.747  3.3870 -3.7232  0.0664
  211MOL0     H27831  12.058   4.919   8.575 -1.1125 -2.9489  0.9807
  211MOL0     H27832  12.210   4.766   8.683  0.8179 -1.3445  0.9467
  211MOL0     H27833  12.270   4.892   8.792 -2.1331 -0.0309 -0.4398
  211MOL0     H27834  11.429   5.166   8.396  0.7635  0.3948  1.4708
  211MOL0     H27835  11.208   5.220   8.280  2.3619 -1.4378 -0.2195
  211MOL0     H27836  10.803   5.621   8.290 -0.4728  0.5926  0.1381
  211MOL0     H27837  10.545   5.610   8.218 -0.3770  0.2092 -0.3615
  211MOL0     H27838   9.242   6.009   8.062 -2.6058 -0.8169  0.8554
  211MOL0     H27839   9.333   6.208   7.936  0.1617 -0.9651  0.0747
  211MOL0     H27840   9.418   6.486   7.682 -1.5572  2.6172  2.9369
  211MOL0     H27841   9.527   6.673   7.552  1.3070 -3.7458  1.0498
  211MOL0     H27842   9.370   6.724   7.154  3.8950 -3.1590 -1.0062
  211MOL0     H27843   9.530   6.797   7.159 -0.1843  1.6484 -0.7471
  211MOL0     H27844   9.451   7.013   7.200 -1.2381  0.9754 -1.4596
  211MOL0     H27845   9.423   6.942   7.032 -0.7719  1.4389 -0.4388
  211MOL0     H27846   9.216   7.017   7.254 -0.6467 -1.4326  0.3603
  211MOL0     H27847   9.176   6.918   7.117 -2.0927  1.2577  0.7349
  211MOL0     H27848   9.305   7.203   7.087  1.5197  0.7059 -0.6241
  211MOL0     H27849   9.262   7.087   6.953 -0.6491  2.3117 -0.5612
  211MOL0     H27850   8.888   7.224   7.037 -1.6944 -3.5207 -1.1278
  211MOL0     H27851   9.190   6.672   7.268 -2.9962 -0.5423  1.3273
  211MOL0     H27852   9.090   6.498   7.419 -1.1439  1.7732 -0.0404
  212MOL0     O27853   9.518   3.820   1.494 -0.3147  0.0851  0.4110
  212MOL0     C27854   9.631   3.857   1.469  0.3794 -0.6538 -1.1730
  212MOL0     O27855   9.700   3.831   1.343  0.8748 -0.4032 -0.0139
  212MOL0     C27856   9.622   3.780   1.238  0.0495  0.4303 -1.1968
  212MOL0     C27857   9.496   3.823   1.204  0.9828 -0.0619 -0.1430
  212MOL0     C27858   9.421   3.767   1.096  0.5160  0.1513  0.1767
  212MOL0     C27859   9.479   3.678   1.012  0.1397 -0.4601 -0.2164
  212MOL0     O27860   9.399   3.645   0.904  0.0204 -0.3142  0.4140
  212MOL0     C27861   9.464   3.569   0.802  0.5188  0.2132  0.9691
  212MOL0     C27862   9.386   3.555   0.673  0.3325 -0.0907  0.7126
  212MOL0     C27863   9.442   3.587   0.535 -0.6001 -0.9423  0.1935
  212MOL0     C27864   9.561   3.503   0.504 -0.0836 -0.7950  0.4100
  212MOL0     C27865   9.600   3.504   0.352 -0.1593  0.6482  0.6797
  212MOL0     C27866   9.729   3.439   0.318 -0.9311  0.0498 -0.8190
  212MOL0     C27867   9.774   3.460   0.171  0.4427 -0.9192 -0.8027
  212MOL0     C27868   9.909   3.406   0.153 -0.0300  1.2309  0.3431
  212MOL0     N27869   9.923   3.270   0.209  0.3547 -0.4775 -0.5513
  212MOL0     C27870   9.870   3.164   0.135 -0.3374  0.5814  1.0785
  212MOL0     C27871   9.918   3.059   0.201 -0.0867 -0.3413 -0.8609
  212MOL0     C27872   9.895   2.906   0.174  0.6463 -0.3992 -0.0566
  212MOL0     C27873   9.998   2.861   0.082 -0.3944  0.1886 -0.1199
  212MOL0     C27874   9.991   2.711   0.038 -0.5786 -0.4864  0.9919
  212MOL0     C27875   9.858   2.682  -0.023 -0.4661 -0.8575 -0.3666
  212MOL0     O27876   9.812   2.793  -0.110 -0.1738  0.4235 -0.6865
  212MOL0     C27877   9.854   2.811  -0.237 -0.3100 -1.1167 -0.6375
  212MOL0     C27878   9.833   2.943  -0.272 -0.6099  0.5057  0.5251
  212MOL0     C27879   9.879   2.982  -0.403  0.3423  0.9353 -0.5724
  212MOL0     C27880   9.942   2.889  -0.489  0.4474  0.4507 -0.4104
  212MOL0     C27881   9.990   2.925  -0.620 -0.6224  0.2706  0.1283
  212MOL0     O27882  10.046   3.052  -0.638  0.6180  0.6790 -0.3675
  212MOL0     C27883  10.077   3.098  -0.757  0.3471 -0.8625 -0.8155
  212MOL0     C27884   9.988   3.095  -0.866  0.2759  0.3380 -0.3471
  212MOL0     C27885  10.033   3.133  -0.995 -0.1369  0.3798 -0.7208
  212MOL0     C27886  10.169   3.183  -1.010 -0.0432  0.4616  0.0765
  212MOL0     O27887  10.190   3.232  -1.130 -0.1627 -0.6073 -0.3854
  212MOL0     C27888  10.208   3.373  -1.135  0.4157 -0.2980  0.7929
  212MOL0     C27889  10.355   3.423  -1.137 -0.2912 -0.5548 -0.3343
  212MOL0     C27890  10.463   3.364  -1.230 -0.7037  0.0920 -0.0393
  212MOL0     C27891  10.602   3.404  -1.199 -0.8040 -1.5235  0.4966
  212MOL0     C27892  10.712   3.320  -1.281  0.4975  0.3106 -0.5038
  212MOL0     C27893  10.851   3.385  -1.265  0.0587 -0.6338  1.1410
  212MOL0     C27894  10.955   3.317  -1.363 -0.4192 -0.0051 -0.5096
  212MOL0     C27895  10.939   3.337  -1.511 -0.5563 -0.1520  1.0692
  212MOL0    Cl27896  10.811   3.243  -1.587  0.5225  0.0769 -0.2905
  212MOL0     C27897  10.259   3.178  -0.903  0.0878 -0.8222  0.0367
  212MOL0     C27898  10.212   3.132  -0.781 -0.1271 -0.1874 -0.7532
  212MOL0     O27899   9.976   2.851  -0.714  0.3517  0.1617 -1.1669
  212MOL0     C27900   9.960   2.758  -0.443 -1.4765 -0.5322 -0.2610
  212MOL0     C27901   9.926   2.720  -0.309 -0.0645 -0.5212  0.7380
  212MOL0     N27902   9.999   3.105   0.312  0.1964 -0.1926 -0.2286
  212MOL0     N27903   9.988   3.230   0.322 -0.4077 -0.7621  0.3778
  212MOL0     C27904   9.614   3.635   1.035 -0.6740 -0.7734  0.0127
  212MOL0     C27905   9.687   3.691   1.151 -0.2003  0.3078  0.0814
  212MOL0     C27906   9.707   3.909   1.588  0.9276  0.6292 -0.5327
  212MOL0     C27907   9.637   3.931   1.717 -0.3316  0.7997 -0.7676
  212MOL0     C27908   9.703   3.975   1.827 -0.8313 -0.4927  0.2589
  212MOL0     C27909   9.839   4.015   1.816  0.4092 -0.5831  0.6379
  212MOL0     O27910   9.916   4.066   1.917 -0.0492 -0.2523  0.2141
  212MOL0     C27911   9.854   4.149   2.019  0.3520 -0.3413 -0.5523
  212MOL0     C27912   9.950   4.153   2.143 -0.5675 -0.7543 -0.4155
  212MOL0     C27913   9.865   4.197   2.267  0.1383  0.2784 -0.0444
  212MOL0     C27914   9.948   4.201   2.399  1.1173  0.0421 -1.3865
  212MOL0     C27915  10.069   4.284   2.384 -0.4755  0.3501 -0.2229
  212MOL0     C27916  10.154   4.366   2.406  0.0350  0.0569 -0.1540
  212MOL0     C27917   9.896   3.985   1.695  0.4071  0.0900 -0.3052
  212MOL0     C27918   9.838   3.928   1.588  0.9228  0.6719 -0.4201
  212MOL0     H27919   9.448   3.890   1.275  1.4925  1.5939 -1.3030
  212MOL0     H27920   9.317   3.785   1.070  0.6031  0.2194 -0.1308
  212MOL0     H27921   9.496   3.470   0.837  0.6007 -0.6364 -1.3575
  212MOL0     H27922   9.549   3.630   0.771 -2.3011  3.2698 -1.4544
  212MOL0     H27923   9.299   3.622   0.678 -0.7304 -1.4544  1.0830
  212MOL0     H27924   9.340   3.456   0.678 -1.4955  0.3612 -3.2206
  212MOL0     H27925   9.479   3.690   0.534  3.3063 -2.1359  2.3459
  212MOL0     H27926   9.364   3.565   0.461 -0.4405 -0.6788 -0.0559
  212MOL0     H27927   9.643   3.549   0.560 -1.5753  0.1332  1.9015
  212MOL0     H27928   9.534   3.400   0.530 -2.5088 -0.8183 -1.7638
  212MOL0     H27929   9.605   3.608   0.320  0.8653  0.0045 -1.4329
  212MOL0     H27930   9.520   3.447   0.302  0.6706  0.0055  0.0522
  212MOL0     H27931   9.736   3.332   0.339  1.1246  0.5508  1.5214
  212MOL0     H27932   9.809   3.479   0.381 -1.6397 -0.1294  0.2216
  212MOL0     H27933   9.694   3.420   0.109 -0.1165  0.5682 -1.0685
  212MOL0     H27934   9.787   3.564   0.141  0.4970 -1.0004 -1.0596
  212MOL0     H27935   9.987   3.464   0.204 -1.0663  2.3163  0.7143
  212MOL0     H27936   9.935   3.405   0.046  0.1980  1.2221  0.3977
  212MOL0     H27937   9.800   3.174   0.053 -1.2929  1.6388  1.9846
  212MOL0     H27938   9.798   2.913   0.125  0.9427  1.8731 -0.4436
  212MOL0     H27939   9.891   2.842   0.263  2.7271 -2.7596 -1.5150
  212MOL0     H27940  10.092   2.896   0.125 -0.6613  3.0734 -1.6962
  212MOL0     H27941   9.997   2.915  -0.013  1.9773 -1.0833 -0.9695
  212MOL0     H27942  10.064   2.708  -0.043 -0.1826  0.7148  1.2875
  212MOL0     H27943  10.019   2.647   0.122 -0.1100 -0.0718  1.1509
  212MOL0     H27944   9.786   2.670   0.059  2.0093 -0.2908  2.0188
  212MOL0     H27945   9.861   2.585  -0.072  2.5826 -1.2282  0.3662
  212MOL0     H27946   9.779   3.010  -0.206  0.4474  1.4298  0.4840
  212MOL0     H27947   9.858   3.079  -0.446 -5.5269 -0.1481 -0.9317
  212MOL0     H27948   9.894   3.045  -0.847  1.6765 -1.7996  1.4986
  212MOL0     H27949   9.958   3.115  -1.071  0.1333 -0.0828 -0.8858
  212MOL0     H27950  10.159   3.423  -1.051 -1.1908  0.6401 -0.6474
  212MOL0     H27951  10.150   3.394  -1.225 -2.2292 -4.0483  1.4130
  212MOL0     H27952  10.389   3.418  -1.034 -1.6321 -0.8078  0.1115
  212MOL0     H27953  10.344   3.530  -1.160  1.3747 -0.8685 -3.1248
  212MOL0     H27954  10.442   3.389  -1.334 -1.4753  1.9955  0.5264
  212MOL0     H27955  10.456   3.256  -1.216 -0.4635  0.4785  4.8964
  212MOL0     H27956  10.611   3.511  -1.219  3.2712 -1.4204  2.0124
  212MOL0     H27957  10.625   3.393  -1.093 -1.1340 -0.1940  0.7219
  212MOL0     H27958  10.686   3.321  -1.387 -1.0856  1.2889 -0.1436
  212MOL0     H27959  10.720   3.215  -1.251  1.0564  0.8597  1.3849
  212MOL0     H27960  10.891   3.367  -1.164  0.3981 -1.2481  0.9030
  212MOL0     H27961  10.853   3.492  -1.288  1.2086 -0.6960  0.8515
  212MOL0     H27962  11.058   3.344  -1.338  0.8526  0.1767 -4.9953
  212MOL0     H27963  10.952   3.208  -1.348 -1.6942  0.2210  1.1568
  212MOL0     H27964  11.026   3.303  -1.568  0.6479  1.8347  1.5987
  212MOL0     H27965  10.923   3.443  -1.535  2.1209  0.9937  3.7064
  212MOL0     H27966  10.363   3.209  -0.902  0.0201 -0.6212  0.7317
  212MOL0     H27967  10.268   3.142  -0.689 -1.0821  2.5090 -0.3526
  212MOL0     H27968  10.006   2.698  -0.521  1.3446  2.3198 -1.0379
  212MOL0     H27969   9.957   2.622  -0.273 -1.3988 -1.6912 -1.0826
  212MOL0     H27970   9.652   3.546   0.986  1.1571  0.4454 -0.8750
  212MOL0     H27971   9.792   3.665   1.161 -0.1544  0.4638  0.0105
  212MOL0     H27972   9.529   3.922   1.715 -0.2121 -1.8285 -3.9351
  212MOL0     H27973   9.649   3.996   1.918 -1.4382  1.0682 -0.4241
  212MOL0     H27974   9.757   4.106   2.043  0.4906 -1.6320 -2.1522
  212MOL0     H27975   9.840   4.254   1.992  1.0067 -0.0930  0.0420
  212MOL0     H27976   9.999   4.056   2.151 -0.3081 -0.6906 -1.1318
  212MOL0     H27977  10.035   4.221   2.128 -0.0414 -1.2596  0.2002
  212MOL0     H27978   9.784   4.124   2.273  1.5778 -1.5102 -1.3650
  212MOL0     H27979   9.822   4.297   2.255 -0.6843  0.1465  1.4673
  212MOL0     H27980   9.877   4.251   2.466  0.3576 -2.8940  0.1713
  212MOL0     H27981   9.976   4.105   2.444 -1.2843 -0.7160 -1.3165
  212MOL0     H27982  10.237   4.432   2.415 -1.0844  1.2996  1.8492
  212MOL0     H27983  10.004   3.997   1.706  0.1255  2.9798  0.0829
  212MOL0     H27984   9.893   3.889   1.504  3.5883  2.4224  0.3974
  213MOL0     O27985   4.017   6.582   5.967 -0.0634  0.5460 -0.6137
  213MOL0     C27986   4.113   6.658   5.971  0.2463 -0.1178 -0.4896
  213MOL0     O27987   4.107   6.789   5.952  0.1027  0.3312 -0.6587
  213MOL0     C27988   3.985   6.844   5.926 -0.1037  0.9431  0.1348
  213MOL0     C27989   3.930   6.854   5.799  0.4530 -0.2910  0.5516
  213MOL0     C27990   3.797   6.898   5.777  0.6790 -0.2633  0.6528
  213MOL0     C27991   3.724   6.955   5.887  0.8539 -0.9212 -0.6304
  213MOL0     O27992   3.600   7.024   5.877 -0.1465 -0.0963 -0.2188
  213MOL0     C27993   3.527   7.010   5.755 -0.4665  0.2135 -0.7111
  213MOL0     C27994   3.412   7.118   5.761 -0.1745  0.7656 -0.0447
  213MOL0     C27995   3.323   7.084   5.875 -0.0803 -0.0405 -0.1516
  213MOL0     C27996   3.204   7.187   5.874 -1.8439 -0.2258 -1.8328
  213MOL0     C27997   3.112   7.158   5.986 -0.3104 -0.1469  0.4775
  213MOL0     C27998   3.018   7.284   5.988 -0.2528  0.1648  0.4026
  213MOL0     C27999   2.888   7.260   6.076  0.3353 -0.9315 -1.0389
  213MOL0     C28000   2.923   7.213   6.224  0.5020 -0.0028 -0.1546
  213MOL0     N28001   2.808   7.237   6.309  0.4646  1.0192  0.0180
  213MOL0     C28002   2.686   7.163   6.318 -0.4254 -0.2049  0.3563
  213MOL0     C28003   2.603   7.228   6.410 -0.3547 -0.0413  0.5089
  213MOL0     C28004   2.465   7.192   6.464 -0.9265  0.4675  1.0982
  213MOL0     C28005   2.369   7.265   6.364  0.1566 -0.0641 -0.6678
  213MOL0     C28006   2.224   7.237   6.426 -0.5641 -0.4700  0.0276
  213MOL0     C28007   2.114   7.272   6.328  0.5581  0.0561 -0.4066
  213MOL0     O28008   1.988   7.229   6.387 -0.3424 -0.4924  0.5154
  213MOL0     C28009   1.939   7.293   6.500  0.3216  0.1961 -0.9310
  213MOL0     C28010   1.948   7.436   6.496  0.0431  0.8063 -0.0196
  213MOL0     C28011   1.915   7.500   6.611  0.2506  0.2968 -0.0772
  213MOL0     C28012   1.888   7.428   6.735  0.2055  0.1194  0.0459
  213MOL0     C28013   1.859   7.500   6.863 -0.1483 -0.5868 -0.1888
  213MOL0     O28014   1.853   7.436   6.982 -0.0705 -0.4052 -0.3191
  213MOL0     C28015   1.890   7.494   7.105 -0.0987  1.0544 -0.2839
  213MOL0     C28016   1.952   7.621   7.129  0.0366  1.1711  0.1050
  213MOL0     C28017   1.972   7.661   7.268  0.7781  0.7392  1.4790
  213MOL0     C28018   1.959   7.566   7.372  0.0472 -1.1974  0.9270
  213MOL0     O28019   1.980   7.608   7.500 -0.0633 -0.3329 -0.2309
  213MOL0     C28020   2.042   7.737   7.537  0.4468  0.3232 -0.3332
  213MOL0     C28021   1.951   7.853   7.558 -0.2885 -0.2000  0.7977
  213MOL0     C28022   1.969   7.932   7.680 -0.0136 -0.2964 -0.5698
  213MOL0     C28023   1.949   7.851   7.807  0.1246 -0.2634 -0.3584
  213MOL0     C28024   1.955   7.935   7.937  0.2927 -0.0364  0.4682
  213MOL0     C28025   1.928   7.846   8.061  0.5582  0.1613 -0.6132
  213MOL0     C28026   1.935   7.930   8.186  0.2423 -0.6755 -0.0719
  213MOL0     C28027   1.877   7.864   8.305 -0.4852  0.0238 -0.5320
  213MOL0    Cl28028   1.859   7.959   8.450 -0.2913  0.3133  0.2989
  213MOL0     C28029   1.918   7.444   7.340 -0.1590  0.3014  0.3362
  213MOL0     C28030   1.883   7.401   7.212 -0.8058 -0.8066 -0.0993
  213MOL0     O28031   1.843   7.624   6.849 -0.1931  1.4581 -0.6374
  213MOL0     C28032   1.872   7.285   6.728  0.1006  0.7832 -0.0148
  213MOL0     C28033   1.896   7.220   6.608 -0.0413 -0.1379  0.2418
  213MOL0     N28034   2.677   7.338   6.458 -0.7924 -0.8739 -0.4219
  213MOL0     N28035   2.797   7.342   6.394 -0.0923 -0.7329 -0.0850
  213MOL0     C28036   3.779   6.939   6.017 -0.3434  0.4217 -0.1166
  213MOL0     C28037   3.913   6.885   6.038  0.1049 -0.7069  0.2997
  213MOL0     C28038   4.237   6.621   6.052 -0.1613 -0.2265  0.3043
  213MOL0     C28039   4.243   6.490   6.111  0.4844 -0.0035  0.2603
  213MOL0     C28040   4.347   6.447   6.195  0.4680  0.2700 -0.5082
  213MOL0     C28041   4.460   6.526   6.216 -0.8789  0.0957 -0.3562
  213MOL0     O28042   4.564   6.480   6.289  0.3785  0.6288 -0.6470
  213MOL0     C28043   4.667   6.567   6.333 -0.3397 -0.4630  0.1815
  213MOL0     C28044   4.787   6.578   6.227  0.2863 -0.2997 -0.4152
  213MOL0     C28045   4.885   6.678   6.260 -0.1067 -0.7801  0.8342
  213MOL0     C28046   4.997   6.634   6.363 -0.0309  0.0442  0.9084
  213MOL0     C28047   5.113   6.580   6.297 -0.8100  0.2661  0.6527
  213MOL0     C28048   5.210   6.526   6.248 -0.2863  0.4658  0.1905
  213MOL0     C28049   4.455   6.657   6.151  0.6474  0.7123  1.3855
  213MOL0     C28050   4.350   6.697   6.079  0.5503 -0.2673  0.2944
  213MOL0     H28051   3.986   6.813   5.716  0.9936 -0.1871  0.8581
  213MOL0     H28052   3.763   6.902   5.674 -1.4299 -1.9536  1.2201
  213MOL0     H28053   3.480   6.911   5.751 -1.3508  0.6492 -3.5282
  213MOL0     H28054   3.585   7.022   5.663  0.6413 -1.3263 -0.2665
  213MOL0     H28055   3.357   7.109   5.667  1.0431  3.1833 -1.0630
  213MOL0     H28056   3.450   7.219   5.775  2.6200 -0.3721  1.4915
  213MOL0     H28057   3.369   7.105   5.973 -0.7082 -0.4438  0.2398
  213MOL0     H28058   3.285   6.981   5.877  0.6939 -0.3792 -1.8046
  213MOL0     H28059   3.252   7.285   5.878  1.6441 -1.8395  0.5578
  213MOL0     H28060   3.145   7.189   5.782  0.1379 -0.0428 -3.1587
  213MOL0     H28061   3.156   7.137   6.084 -3.1133  0.3288  1.9491
  213MOL0     H28062   3.052   7.068   5.969 -1.1709  0.6661 -1.0185
  213MOL0     H28063   2.990   7.289   5.882  2.0111  1.4143 -0.1998
  213MOL0     H28064   3.054   7.382   6.020 -0.4161 -1.3239  6.3185
  213MOL0     H28065   2.842   7.359   6.083 -0.1584 -1.0784 -2.0274
  213MOL0     H28066   2.805   7.204   6.032 -0.6734 -0.2327 -0.0708
  213MOL0     H28067   3.012   7.270   6.253 -0.7325  2.0535 -0.2236
  213MOL0     H28068   2.950   7.109   6.244  2.7746  1.1441  4.0663
  213MOL0     H28069   2.650   7.090   6.246 -0.0547 -0.0944  0.0507
  213MOL0     H28070   2.449   7.231   6.565  0.0911  0.6799  1.1868
  213MOL0     H28071   2.466   7.083   6.467  3.3189  0.2354 -1.2579
  213MOL0     H28072   2.367   7.233   6.260 -1.3515 -1.5738 -0.2246
  213MOL0     H28073   2.388   7.372   6.375 -3.1926  0.4060  2.2554
  213MOL0     H28074   2.215   7.132   6.456 -1.5823 -0.6550 -0.8386
  213MOL0     H28075   2.215   7.287   6.523 -1.9891 -1.6748  0.5599
  213MOL0     H28076   2.129   7.226   6.230 -0.4692 -0.4695 -0.3351
  213MOL0     H28077   2.115   7.380   6.310 -0.3661 -0.1116 -1.6192
  213MOL0     H28078   1.967   7.487   6.402 -1.1475  0.7534 -0.3039
  213MOL0     H28079   1.921   7.608   6.619 -0.2256  0.2824  0.6082
  213MOL0     H28080   1.962   7.685   7.042  2.0283  1.8164  0.7561
  213MOL0     H28081   2.016   7.760   7.282  0.8804  0.6335  1.9273
  213MOL0     H28082   2.122   7.750   7.462 -0.9893 -0.4892 -2.0888
  213MOL0     H28083   2.095   7.727   7.632 -0.4192  1.3528  0.2766
  213MOL0     H28084   1.853   7.806   7.555 -0.2401 -0.2997 -2.7973
  213MOL0     H28085   1.969   7.927   7.479 -1.9331 -0.1253  0.4578
  213MOL0     H28086   1.895   8.012   7.682  0.4356  0.1385  1.6324
  213MOL0     H28087   2.069   7.975   7.690 -0.1602 -0.0469 -0.1387
  213MOL0     H28088   1.857   7.793   7.800 -0.2604  0.2212  0.5372
  213MOL0     H28089   2.032   7.781   7.820 -0.9623 -0.9763  5.0853
  213MOL0     H28090   1.887   8.020   7.929  1.4323  1.1283  2.1842
  213MOL0     H28091   2.051   7.987   7.934  0.2098  0.0576 -1.3006
  213MOL0     H28092   1.994   7.760   8.072  0.5090  0.1868 -0.1167
  213MOL0     H28093   1.825   7.812   8.046  0.5353  1.0717 -2.9488
  213MOL0     H28094   2.039   7.955   8.207  0.2806 -1.8198  1.2805
  213MOL0     H28095   1.871   8.016   8.167 -1.3873 -1.9393 -0.5747
  213MOL0     H28096   1.940   7.778   8.331 -0.8501  0.8451  3.8234
  213MOL0     H28097   1.777   7.830   8.275 -1.2179  3.6781 -2.7979
  213MOL0     H28098   1.910   7.390   7.434  3.4153  0.6347  0.9850
  213MOL0     H28099   1.836   7.310   7.176  1.6582 -1.4086 -2.1486
  213MOL0     H28100   1.838   7.238   6.820  1.3268  1.5248  0.8580
  213MOL0     H28101   1.897   7.114   6.588  0.3003  0.0971 -1.1429
  213MOL0     H28102   3.711   6.964   6.098  0.4393  1.3807  0.2673
  213MOL0     H28103   3.962   6.878   6.135 -0.3898 -1.7699  0.4890
  213MOL0     H28104   4.165   6.416   6.097  1.8251 -1.1097 -2.0735
  213MOL0     H28105   4.341   6.342   6.222 -0.8671  0.9155  2.0026
  213MOL0     H28106   4.704   6.536   6.431  1.4256 -2.0061 -0.9069
  213MOL0     H28107   4.624   6.665   6.357 -0.4326 -0.5709  0.4567
  213MOL0     H28108   4.829   6.480   6.200  1.0534  0.3739 -1.7862
  213MOL0     H28109   4.749   6.618   6.132 -1.1596 -1.1460 -0.2243
  213MOL0     H28110   4.832   6.761   6.308  0.5544  0.5051 -0.5828
  213MOL0     H28111   4.920   6.732   6.172 -2.5288  0.0491  0.3056
  213MOL0     H28112   5.032   6.724   6.414 -4.0846  2.0388  0.6082
  213MOL0     H28113   4.949   6.568   6.435 -2.1770  0.6278  0.1139
  213MOL0     H28114   5.299   6.474   6.219  0.2579  2.0632 -1.1598
  213MOL0     H28115   4.538   6.727   6.148  0.2015  1.2303 -0.4738
  213MOL0     H28116   4.362   6.798   6.041  1.0214 -0.9997 -1.5739
  214MOL0     O28117   1.270   2.026   1.234 -0.5142 -1.0955  0.1618
  214MOL0     C28118   1.280   2.132   1.184  0.9328 -0.0948 -0.0987
  214MOL0     O28119   1.399   2.187   1.144 -0.8357 -1.4385  0.3293
  214MOL0     C28120   1.513   2.111   1.148  0.2675 -0.2994  0.2704
  214MOL0     C28121   1.594   2.124   1.028 -0.7891 -0.5457  0.5931
  214MOL0     C28122   1.716   2.053   1.024  0.3971  0.5975  0.6575
  214MOL0     C28123   1.761   1.977   1.133  0.2292  0.2375  0.1985
  214MOL0     O28124   1.884   1.921   1.133 -0.6028 -1.1254  0.0763
  214MOL0     C28125   1.917   1.798   1.194  0.0962 -0.6548  0.7643
  214MOL0     C28126   2.018   1.724   1.116 -0.6449 -0.2197  0.2057
  214MOL0     C28127   2.166   1.776   1.121 -0.8361 -0.0235 -0.3425
  214MOL0     C28128   2.251   1.660   1.074 -0.5054  0.1931  0.0593
  214MOL0     C28129   2.389   1.708   1.089 -0.3625 -1.0527  0.4210
  214MOL0     C28130   2.491   1.596   1.079 -0.1258 -0.3511 -0.4955
  214MOL0     C28131   2.628   1.664   1.106 -1.5053 -0.2544  0.5155
  214MOL0     C28132   2.731   1.564   1.168  0.2332  0.1742 -0.1433
  214MOL0     N28133   2.753   1.463   1.067  0.0145  0.1717 -0.2475
  214MOL0     C28134   2.804   1.483   0.938  0.2836 -0.0484  0.0920
  214MOL0     C28135   2.790   1.356   0.886  0.8341 -0.4500 -0.5450
  214MOL0     C28136   2.852   1.299   0.750  0.6307  0.2856 -0.1548
  214MOL0     C28137   2.989   1.219   0.774  0.5513  0.4785 -0.2170
  214MOL0     C28138   2.966   1.067   0.776 -0.2157 -0.1526 -0.9620
  214MOL0     C28139   3.072   0.985   0.697  0.7310  0.3191 -0.2407
  214MOL0     O28140   3.205   0.985   0.753  0.8391  0.3128 -0.4259
  214MOL0     C28141   3.313   0.937   0.686 -0.2722  0.5061  0.7055
  214MOL0     C28142   3.308   0.885   0.556 -0.1177  0.4923 -0.4374
  214MOL0     C28143   3.426   0.849   0.497  0.9604  0.2279  0.6472
  214MOL0     C28144   3.547   0.861   0.567 -0.4184 -0.1654  0.8569
  214MOL0     C28145   3.677   0.809   0.501  1.1084 -0.5641 -0.8198
  214MOL0     O28146   3.778   0.774   0.596 -0.1688 -0.9040 -0.4256
  214MOL0     C28147   3.903   0.734   0.552  0.2353 -0.0833 -0.7120
  214MOL0     C28148   3.924   0.635   0.462  1.0898  0.3598  0.6940
  214MOL0     C28149   4.044   0.574   0.452  0.0012  1.5667  0.5148
  214MOL0     C28150   4.151   0.604   0.536 -0.9066 -0.6400  0.4485
  214MOL0     O28151   4.255   0.510   0.536  0.0242 -0.4104  0.0294
  214MOL0     C28152   4.371   0.529   0.614 -0.2449  0.0998  0.8676
  214MOL0     C28153   4.391   0.386   0.682 -0.2426  0.4520  0.0203
  214MOL0     C28154   4.518   0.385   0.763 -0.7358  1.2694 -0.0600
  214MOL0     C28155   4.597   0.250   0.773  0.2452 -1.1487 -0.2422
  214MOL0     C28156   4.672   0.229   0.636 -0.6844  0.7972  0.2323
  214MOL0     C28157   4.808   0.162   0.664 -0.0400 -0.2998  0.5727
  214MOL0     C28158   4.876   0.106   0.528  0.4308 -0.4555  0.1491
  214MOL0     C28159   5.022   0.085   0.551  0.0332  0.4926  0.6147
  214MOL0    Cl28160   5.111   0.042   0.403  0.0352  0.5976 -0.1637
  214MOL0     C28161   4.141   0.720   0.618  0.0618 -0.0902 -0.1793
  214MOL0     C28162   4.012   0.779   0.627  0.4732  0.5729  0.0108
  214MOL0     O28163   3.685   0.791   0.378  0.7852  0.2790  0.4073
  214MOL0     C28164   3.551   0.911   0.701 -0.6300  0.4487  0.5738
  214MOL0     C28165   3.428   0.946   0.757 -1.0750  0.8961 -0.0244
  214MOL0     N28166   2.731   1.269   0.980 -0.4724 -0.0530 -2.0692
  214MOL0     N28167   2.704   1.344   1.093 -0.6978  0.0464 -1.2656
  214MOL0     C28168   1.680   1.969   1.254  0.0364  0.8873 -0.2623
  214MOL0     C28169   1.558   2.034   1.256  0.3175  0.1879  0.3111
  214MOL0     C28170   1.157   2.216   1.201  0.6187  0.8896  0.1685
  214MOL0     C28171   1.160   2.350   1.164  0.8088  0.1537  0.0462
  214MOL0     C28172   1.037   2.424   1.167 -0.8916 -0.7930 -0.9795
  214MOL0     C28173   0.917   2.364   1.203  0.2037 -0.3375  0.5150
  214MOL0     O28174   0.808   2.449   1.185 -0.0230 -0.2360 -0.8761
  214MOL0     C28175   0.674   2.406   1.210 -0.1071  0.2788  0.0755
  214MOL0     C28176   0.567   2.502   1.140  0.4852 -0.5951 -0.3504
  214MOL0     C28177   0.433   2.484   1.206 -0.9822  0.7069  0.4873
  214MOL0     C28178   0.312   2.523   1.121 -0.0302 -0.2492 -0.1299
  214MOL0     C28179   0.325   2.665   1.089  0.8424  0.4404  0.5655
  214MOL0     C28180   0.333   2.780   1.051  0.6784  0.4749 -0.1807
  214MOL0     C28181   0.911   2.230   1.232 -0.4393 -0.4451 -0.4858
  214MOL0     C28182   1.030   2.158   1.250  0.3559  0.4137 -0.6117
  214MOL0     H28183   1.550   2.186   0.950  0.9403 -2.3802 -2.0261
  214MOL0     H28184   1.777   2.057   0.935  1.8685  0.1508  1.6248
  214MOL0     H28185   1.827   1.735   1.189 -0.6399  0.4601 -2.6241
  214MOL0     H28186   1.947   1.804   1.299  1.6410 -2.6818  0.5189
  214MOL0     H28187   1.978   1.730   1.015 -0.2833  0.7829  0.1101
  214MOL0     H28188   2.013   1.620   1.148 -3.5207  0.5610  2.7665
  214MOL0     H28189   2.189   1.794   1.226  2.0048  2.6722 -1.3007
  214MOL0     H28190   2.181   1.872   1.071  1.4652  1.1305  2.3108
  214MOL0     H28191   2.224   1.563   1.118 -0.0210 -0.4813 -1.0940
  214MOL0     H28192   2.233   1.650   0.966  0.9728 -0.3707 -0.1596
  214MOL0     H28193   2.415   1.757   1.183  3.2514 -1.6837 -0.0814
  214MOL0     H28194   2.403   1.780   1.007  0.4656  0.2454  1.6432
  214MOL0     H28195   2.494   1.555   0.978  0.7714 -2.2424  0.2441
  214MOL0     H28196   2.477   1.529   1.164  1.4865  1.4235  1.3043
  214MOL0     H28197   2.673   1.700   1.013  2.8852  1.4539  2.9734
  214MOL0     H28198   2.625   1.743   1.181  0.7393  0.6334 -0.2465
  214MOL0     H28199   2.702   1.514   1.261 -1.4822  2.2383  0.4956
  214MOL0     H28200   2.828   1.612   1.183 -0.0596  1.3865 -1.8887
  214MOL0     H28201   2.858   1.568   0.896  1.0516 -0.7521 -0.3803
  214MOL0     H28202   2.874   1.370   0.670 -1.4312  0.1400 -0.9235
  214MOL0     H28203   2.784   1.233   0.694  0.5376  1.3944 -1.4124
  214MOL0     H28204   3.028   1.258   0.869  1.1393  0.3614 -0.4101
  214MOL0     H28205   3.066   1.231   0.698  2.1246 -1.3187  1.0029
  214MOL0     H28206   2.955   1.033   0.880 -2.4698 -0.9356 -1.4043
  214MOL0     H28207   2.877   1.048   0.715  0.0781 -1.5835 -0.9978
  214MOL0     H28208   3.079   1.030   0.598 -1.0973 -1.3155 -1.1874
  214MOL0     H28209   3.047   0.878   0.690  0.8123  0.2266  0.7337
  214MOL0     H28210   3.220   0.894   0.494 -0.9073  1.4164  0.7673
  214MOL0     H28211   3.412   0.816   0.395 -2.9117 -0.6820  1.3115
  214MOL0     H28212   3.844   0.602   0.397 -1.9937  0.5008  4.1350
  214MOL0     H28213   4.053   0.484   0.392  2.2032  0.6098  2.1110
  214MOL0     H28214   4.368   0.602   0.695 -2.1284  2.8585 -1.4646
  214MOL0     H28215   4.453   0.545   0.542 -3.6787  2.7584 -2.9516
  214MOL0     H28216   4.405   0.329   0.590  1.0196  3.6996 -1.9760
  214MOL0     H28217   4.301   0.356   0.737 -0.8607  0.3371 -1.0134
  214MOL0     H28218   4.499   0.422   0.864  1.2872  0.9282  0.5001
  214MOL0     H28219   4.585   0.464   0.726  1.0144 -0.6026 -1.1250
  214MOL0     H28220   4.677   0.264   0.846  0.5448 -0.3694 -0.7043
  214MOL0     H28221   4.530   0.168   0.799 -0.7747 -0.0555  0.7116
  214MOL0     H28222   4.681   0.328   0.590 -3.3231  1.2800  0.5982
  214MOL0     H28223   4.606   0.166   0.576  2.4814 -0.1668 -2.4967
  214MOL0     H28224   4.791   0.074   0.726 -0.3035 -0.7887 -0.1722
  214MOL0     H28225   4.869   0.235   0.718 -1.1206  1.5647 -0.5904
  214MOL0     H28226   4.827   0.015   0.492  3.2651 -0.8070 -3.3680
  214MOL0     H28227   4.866   0.172   0.441 -0.8080 -0.3788  0.3269
  214MOL0     H28228   5.028   0.007   0.628 -2.2663 -0.9216 -0.5260
  214MOL0     H28229   5.059   0.179   0.592  0.2591  1.3911 -1.5418
  214MOL0     H28230   4.226   0.750   0.678  3.0365 -1.6187 -3.3344
  214MOL0     H28231   3.983   0.853   0.701  1.1024  0.9252 -0.0867
  214MOL0     H28232   3.642   0.918   0.759  0.0791  1.9551 -0.6516
  214MOL0     H28233   3.433   0.985   0.858  1.4010  0.8504 -0.0807
  214MOL0     H28234   1.720   1.909   1.335  0.3812  2.6342  0.9268
  214MOL0     H28235   1.499   2.039   1.347  1.2103 -0.7954  0.9832
  214MOL0     H28236   1.256   2.395   1.141  0.2519  0.9126 -0.8713
  214MOL0     H28237   1.030   2.527   1.134 -1.4137  0.1314  1.7090
  214MOL0     H28238   0.660   2.391   1.317  0.2881 -1.5947 -0.0980
  214MOL0     H28239   0.667   2.318   1.146  3.0185  1.5423 -2.2719
  214MOL0     H28240   0.604   2.605   1.141  2.0885 -1.1021  1.9067
  214MOL0     H28241   0.561   2.476   1.034  0.4910  0.8137 -0.7186
  214MOL0     H28242   0.432   2.547   1.296  1.1536  0.0956  0.9889
  214MOL0     H28243   0.403   2.385   1.244  1.6941 -0.1750  0.5090
  214MOL0     H28244   0.308   2.468   1.026  2.2834 -1.2252  0.2651
  214MOL0     H28245   0.220   2.496   1.173  1.9201 -1.8098  2.7386
  214MOL0     H28246   0.332   2.884   1.023  1.4361  1.3403  2.7211
  214MOL0     H28247   0.818   2.179   1.252 -0.6257 -1.1788 -2.8997
  214MOL0     H28248   1.028   2.053   1.279 -0.5736  0.9202  1.3835
  215MOL0     O28249   1.266  10.910   8.964 -0.1285 -0.7496 -0.1829
  215MOL0     C28250   1.268  10.870   9.081 -0.2628  0.0572  0.3715
  215MOL0     O28251   1.192  10.770   9.135  0.4614  1.2143  0.6689
  215MOL0     C28252   1.095  10.719   9.069  0.3334 -0.7973 -0.1627
  215MOL0     C28253   1.068  10.583   9.080  0.0832 -0.3493  0.3594
  215MOL0     C28254   0.956  10.533   9.015  0.2642  0.0823 -0.5971
  215MOL0     C28255   0.871  10.616   8.941  0.1741  0.3084  0.3205
  215MOL0     O28256   0.768  10.575   8.852 -0.0513 -0.0599 -0.4808
  215MOL0     C28257   0.737  10.434   8.855  0.2810  0.0620  0.9697
  215MOL0     C28258   0.601  10.408   8.787  0.3193 -0.8503  0.4685
  215MOL0     C28259   0.485  10.464   8.873 -0.1625 -0.6548 -0.1505
  215MOL0     C28260   0.362  10.446   8.778 -0.1770 -0.2507 -0.5694
  215MOL0     C28261   0.226  10.504   8.819  0.1622 -0.9360 -0.0188
  215MOL0     C28262   0.122  10.502   8.706  0.0344  0.4071  0.0137
  215MOL0     C28263  -0.027  10.496   8.759 -0.3771  0.9374  0.2818
  215MOL0     C28264  -0.062  10.359   8.824  0.6070  0.2768 -0.6583
  215MOL0     N28265  -0.182  10.303   8.764  0.6969  0.1499  0.3337
  215MOL0     C28266  -0.197  10.201   8.673 -0.0536 -0.0923 -0.4078
  215MOL0     C28267  -0.336  10.189   8.656  0.2881  0.5471 -1.0682
  215MOL0     C28268  -0.429  10.100   8.569  0.3264  0.8918 -0.1682
  215MOL0     C28269  -0.529  10.023   8.659  0.7069 -1.1321  0.8367
  215MOL0     C28270  -0.638   9.952   8.576  0.1503 -0.1470  0.3791
  215MOL0     C28271  -0.742   9.878   8.669 -0.8657 -0.0207  0.3932
  215MOL0     O28272  -0.672   9.788   8.749 -0.1491 -0.3332 -0.1542
  215MOL0     C28273  -0.617   9.679   8.690 -0.4696  0.7895 -0.0154
  215MOL0     C28274  -0.683   9.594   8.610  0.0723  0.5765 -0.1729
  215MOL0     C28275  -0.631   9.482   8.547 -0.0348  0.3744  0.2975
  215MOL0     C28276  -0.494   9.463   8.560  0.4805  0.1417  0.0272
  215MOL0     C28277  -0.433   9.356   8.485 -0.2295  1.1531  0.0068
  215MOL0     O28278  -0.294   9.366   8.471 -0.3191 -0.3562 -0.9392
  215MOL0     C28279  -0.230   9.266   8.412 -0.6110  0.8064 -0.7546
  215MOL0     C28280  -0.187   9.149   8.480  0.1233 -1.2071 -1.5468
  215MOL0     C28281  -0.105   9.050   8.429  0.6021  0.5902 -0.1808
  215MOL0     C28282  -0.061   9.053   8.302 -0.2191  0.4353 -0.8437
  215MOL0     O28283   0.025   8.958   8.259  0.4380  0.4051 -0.1084
  215MOL0     C28284   0.085   8.944   8.128 -0.5433  0.8227 -0.2192
  215MOL0     C28285   0.206   8.845   8.142  0.0204 -0.1112 -0.4776
  215MOL0     C28286   0.271   8.824   8.001  0.1169 -0.4308  0.2134
  215MOL0     C28287   0.329   8.687   7.971 -0.1016  0.4991  0.1639
  215MOL0     C28288   0.394   8.693   7.834 -0.0324 -0.0376  1.0614
  215MOL0     C28289   0.457   8.562   7.772  0.1236  0.9858 -0.8765
  215MOL0     C28290   0.510   8.591   7.629 -0.3605  0.0268 -0.1824
  215MOL0     C28291   0.601   8.486   7.571  0.2280  0.1651  0.0681
  215MOL0    Cl28292   0.512   8.329   7.556  0.2515  0.0700  0.3164
  215MOL0     C28293  -0.111   9.159   8.222  0.6762 -0.1146  0.3369
  215MOL0     C28294  -0.197   9.261   8.270  0.6852 -0.3853  0.1583
  215MOL0     O28295  -0.503   9.273   8.428  0.3387 -0.5515 -0.2953
  215MOL0     C28296  -0.415   9.540   8.648 -0.6927 -0.1878  0.1343
  215MOL0     C28297  -0.488   9.637   8.722 -0.9849  0.2822 -0.6660
  215MOL0     N28298  -0.394  10.293   8.733  0.6523  0.4957 -1.4414
  215MOL0     N28299  -0.298  10.359   8.785  0.5131 -0.5862  0.4374
  215MOL0     C28300   0.886  10.751   8.941  0.2258 -0.4209  0.2858
  215MOL0     C28301   0.999  10.802   9.004  0.1179  0.2344 -0.3938
  215MOL0     C28302   1.372  10.925   9.169  0.0130 -1.1635  0.5779
  215MOL0     C28303   1.460  11.022   9.133  0.3078 -0.5617  0.9555
  215MOL0     C28304   1.538  11.100   9.227 -1.0576  0.1845  0.6376
  215MOL0     C28305   1.556  11.045   9.357  0.3961  0.3970 -0.3644
  215MOL0     O28306   1.634  11.086   9.460 -0.3227  0.5558 -0.6360
  215MOL0     C28307   1.706  11.210   9.449  1.1922 -0.1500  0.6102
  215MOL0     C28308   1.610  11.328   9.439 -0.0042 -0.2980  0.0571
  215MOL0     C28309   1.507  11.333   9.546 -0.3990 -0.7413 -0.2206
  215MOL0     C28310   1.553  11.403   9.681  0.0517 -0.2287  0.8751
  215MOL0     C28311   1.601  11.540   9.668 -0.3846 -0.7110 -0.2631
  215MOL0     C28312   1.649  11.648   9.646 -0.3296  0.5911  0.4569
  215MOL0     C28313   1.485  10.927   9.385  0.0261  0.1627 -0.6700
  215MOL0     C28314   1.389  10.876   9.297  0.3622  0.3310  0.0988
  215MOL0     H28315   1.142  10.522   9.131  1.7461  1.1812 -0.1296
  215MOL0     H28316   0.949  10.426   9.031  0.6693  0.4043  2.3452
  215MOL0     H28317   0.715  10.389   8.952  0.0178 -1.5839  0.1714
  215MOL0     H28318   0.822  10.378   8.814  1.5491  2.2762  0.4095
  215MOL0     H28319   0.592  10.301   8.768 -3.8346 -0.5597 -0.1276
  215MOL0     H28320   0.615  10.458   8.691  2.3865 -1.4649  0.4141
  215MOL0     H28321   0.489  10.570   8.899  0.4984 -0.3344 -1.4726
  215MOL0     H28322   0.473  10.410   8.967 -0.3636  0.6989  0.6311
  215MOL0     H28323   0.383  10.491   8.680 -2.7582 -1.8438 -1.9718
  215MOL0     H28324   0.351  10.339   8.758 -0.6965  0.0182 -1.8763
  215MOL0     H28325   0.244  10.607   8.852  1.1910  0.0615 -3.2704
  215MOL0     H28326   0.184  10.436   8.894 -1.1447 -1.4559 -1.1712
  215MOL0     H28327   0.136  10.409   8.650 -0.1544  0.9988 -1.0598
  215MOL0     H28328   0.146  10.580   8.632 -0.3611  1.0805  0.5841
  215MOL0     H28329  -0.049  10.582   8.823  1.7659  1.4343  0.4419
  215MOL0     H28330  -0.102  10.501   8.680 -0.3380 -1.8021 -0.0307
  215MOL0     H28331  -0.083  10.373   8.931  1.1946 -0.8130 -0.3919
  215MOL0     H28332   0.014  10.281   8.814 -0.2417 -0.6828  0.1933
  215MOL0     H28333  -0.113  10.148   8.630  0.9158  0.9539  0.1327
  215MOL0     H28334  -0.375  10.025   8.510  1.2467 -0.2395  2.0128
  215MOL0     H28335  -0.478  10.168   8.499  2.2004  2.3299 -0.1478
  215MOL0     H28336  -0.575  10.099   8.723 -3.0031 -2.5653  0.0798
  215MOL0     H28337  -0.472   9.950   8.717  2.9365  0.0051  0.2173
  215MOL0     H28338  -0.699  10.022   8.518 -0.7577 -2.2096 -1.2645
  215MOL0     H28339  -0.586   9.883   8.509  2.1550  2.7685 -1.2749
  215MOL0     H28340  -0.817   9.826   8.608  0.1681 -0.9381 -0.1310
  215MOL0     H28341  -0.782   9.953   8.738  2.2285 -1.4330  4.0491
  215MOL0     H28342  -0.788   9.611   8.590 -0.4133  0.1722  1.8050
  215MOL0     H28343  -0.687   9.423   8.475  0.4831 -3.2309  2.6054
  215MOL0     H28344  -0.213   9.141   8.585  0.2878 -2.2949 -1.5836
  215MOL0     H28345  -0.067   8.968   8.489  1.2714  1.4653  0.6335
  215MOL0     H28346   0.126   9.040   8.098 -0.5875 -0.2169 -4.1450
  215MOL0     H28347   0.010   8.914   8.054 -0.4395  0.3785 -0.1483
  215MOL0     H28348   0.170   8.751   8.183 -0.8909  0.5681  0.3226
  215MOL0     H28349   0.285   8.864   8.216  0.2271 -1.6248 -0.2823
  215MOL0     H28350   0.353   8.896   8.000 -2.7361  3.3155  3.6039
  215MOL0     H28351   0.210   8.854   7.915  1.3633 -0.8769 -0.8763
  215MOL0     H28352   0.405   8.660   8.044  0.2219  0.6462 -0.1129
  215MOL0     H28353   0.254   8.607   7.969 -1.2012  1.5046 -1.2868
  215MOL0     H28354   0.476   8.766   7.831  1.3283 -1.5385 -0.4669
  215MOL0     H28355   0.320   8.730   7.763  1.1811 -1.0623 -0.8317
  215MOL0     H28356   0.383   8.482   7.772 -0.8123  1.7645 -2.8271
  215MOL0     H28357   0.542   8.534   7.835  0.2671  1.0996 -1.0176
  215MOL0     H28358   0.425   8.611   7.565  0.3060 -1.8464 -1.7486
  215MOL0     H28359   0.571   8.681   7.621  2.2816 -1.6212 -0.1825
  215MOL0     H28360   0.692   8.471   7.629  1.5103  0.2732 -1.8252
  215MOL0     H28361   0.627   8.510   7.468 -0.5352  1.3260  0.1340
  215MOL0     H28362  -0.099   9.145   8.115 -1.6290 -0.3808  0.0637
  215MOL0     H28363  -0.231   9.338   8.201  0.1949  1.2324  2.0979
  215MOL0     H28364  -0.308   9.525   8.662 -0.4355 -0.4022 -1.7204
  215MOL0     H28365  -0.431   9.700   8.790  0.1890  0.4684 -1.7890
  215MOL0     H28366   0.826  10.816   8.879  0.3412 -2.4346 -2.0788
  215MOL0     H28367   1.010  10.910   8.999  2.3946  0.0053 -2.4678
  215MOL0     H28368   1.465  11.055   9.030  1.0522  1.5808  1.6270
  215MOL0     H28369   1.590  11.189   9.194  0.8999 -0.2265  2.3762
  215MOL0     H28370   1.764  11.209   9.356 -0.3782  0.0618 -0.4182
  215MOL0     H28371   1.771  11.243   9.530 -0.7619 -0.6477  2.4749
  215MOL0     H28372   1.668  11.421   9.443  1.0454 -0.9651  1.2065
  215MOL0     H28373   1.557  11.322   9.344 -2.4985 -3.9223  1.4184
  215MOL0     H28374   1.474  11.234   9.580  1.0993 -0.6973  1.5433
  215MOL0     H28375   1.416  11.379   9.506 -0.1649  1.1348  1.2440
  215MOL0     H28376   1.477  11.411   9.759  0.1561 -0.3109  0.9859
  215MOL0     H28377   1.621  11.333   9.731 -0.2880  0.4962  2.4120
  215MOL0     H28378   1.699  11.737   9.615  1.0469 -0.2877  0.0392
  215MOL0     H28379   1.477  10.878   9.482 -1.3882 -4.9245 -3.0014
  215MOL0     H28380   1.333  10.792   9.338 -0.3675  1.8401  2.3855
  216MOL0     O28381   2.676   2.196   1.467 -0.5473 -0.6197  0.0070
  216MOL0     C28382   2.647   2.085   1.447  0.4235 -0.1136 -0.1120
  216MOL0     O28383   2.530   2.044   1.384  0.0700 -0.5527 -0.8987
  216MOL0     C28384   2.416   2.121   1.366  0.0419  0.1013 -0.2756
  216MOL0     C28385   2.392   2.253   1.412  0.5086 -0.1876 -0.2601
  216MOL0     C28386   2.264   2.310   1.393 -0.5095 -0.1171 -0.9974
  216MOL0     C28387   2.155   2.233   1.337  0.8643 -0.1887 -0.1023
  216MOL0     O28388   2.028   2.289   1.337  0.4620  0.1549 -0.1354
  216MOL0     C28389   1.922   2.200   1.341 -0.1154 -0.6035  0.4941
  216MOL0     C28390   1.799   2.272   1.385 -0.6303  0.3618 -0.0680
  216MOL0     C28391   1.754   2.394   1.295 -0.1960 -0.2265 -1.0255
  216MOL0     C28392   1.614   2.454   1.319 -0.0013 -0.2093 -0.0446
  216MOL0     C28393   1.613   2.563   1.442 -0.1170 -0.3417  0.0527
  216MOL0     C28394   1.473   2.585   1.484  0.2167  0.3564 -0.0517
  216MOL0     C28395   1.402   2.681   1.379 -0.1950  0.6094 -0.1248
  216MOL0     C28396   1.250   2.705   1.395  0.3686 -0.4034  0.6760
  216MOL0     N28397   1.200   2.841   1.416  0.2539 -0.0701  0.1806
  216MOL0     C28398   1.184   2.898   1.537  0.1152 -0.5374 -0.8053
  216MOL0     C28399   1.152   3.023   1.505 -0.7100 -1.0234  0.6369
  216MOL0     C28400   1.150   3.122   1.619 -0.3346  0.2365  0.5010
  216MOL0     C28401   1.014   3.199   1.594 -0.2272 -0.0223  0.1412
  216MOL0     C28402   0.893   3.106   1.594 -0.4654 -0.0198  0.8015
  216MOL0     C28403   0.771   3.173   1.628 -0.1838 -0.5822  0.0849
  216MOL0     O28404   0.733   3.270   1.530 -0.3315  0.0189 -0.6813
  216MOL0     C28405   0.681   3.390   1.571  0.4191  0.6097 -0.1215
  216MOL0     C28406   0.608   3.409   1.690  0.3932 -0.4301 -0.1179
  216MOL0     C28407   0.550   3.530   1.717 -0.7257 -0.1436 -0.5662
  216MOL0     C28408   0.546   3.632   1.625 -0.8798 -0.3153 -0.4382
  216MOL0     C28409   0.464   3.760   1.637  0.2538  0.9411  0.3895
  216MOL0     O28410   0.445   3.795   1.768  0.3997  0.2317 -0.0388
  216MOL0     C28411   0.359   3.897   1.789  0.3271 -0.0918 -0.9916
  216MOL0     C28412   0.223   3.895   1.744 -1.0183  0.5971  0.2895
  216MOL0     C28413   0.137   3.996   1.781  0.4972  0.0069 -0.4244
  216MOL0     C28414   0.178   4.093   1.870  0.6004  1.4339 -0.3024
  216MOL0     O28415   0.067   4.172   1.909 -0.4139  0.0985 -0.1557
  216MOL0     C28416   0.070   4.234   2.038 -0.5686 -0.2116 -0.2018
  216MOL0     C28417   0.094   4.393   2.029  0.8002  0.6422 -0.3717
  216MOL0     C28418   0.074   4.463   2.168  0.1704  0.8004  0.3205
  216MOL0     C28419   0.061   4.620   2.171 -0.0479  0.1573  0.5215
  216MOL0     C28420   0.060   4.667   2.323 -0.6040  1.1017 -0.1405
  216MOL0     C28421   0.041   4.818   2.337 -0.8001  0.6204 -0.5436
  216MOL0     C28422   0.147   4.899   2.249 -0.1968  0.1393 -1.5193
  216MOL0     C28423   0.223   5.001   2.332  0.9986  0.2512  0.6220
  216MOL0    Cl28424   0.123   5.140   2.377 -0.1089  0.0078  0.1067
  216MOL0     C28425   0.305   4.096   1.925 -1.2877  0.0374 -0.9830
  216MOL0     C28426   0.397   3.993   1.895  0.2298 -0.1000 -0.2570
  216MOL0     O28427   0.428   3.826   1.542 -1.2920 -0.4831  0.2474
  216MOL0     C28428   0.616   3.617   1.503 -0.1362 -0.1834  0.7309
  216MOL0     C28429   0.675   3.486   1.477 -0.0348 -0.9622 -0.7116
  216MOL0     N28430   1.144   3.035   1.362 -0.9928 -0.0463  0.0171
  216MOL0     N28431   1.161   2.919   1.316 -0.0126 -0.3549  0.9486
  216MOL0     C28432   2.179   2.102   1.286  0.5566 -0.5314 -0.4663
  216MOL0     C28433   2.309   2.050   1.314  0.6606 -0.3518 -0.1600
  216MOL0     C28434   2.732   1.978   1.489  0.0909 -0.3974 -0.6985
  216MOL0     C28435   2.859   1.998   1.544  0.2253 -0.0028 -0.3869
  216MOL0     C28436   2.942   1.893   1.602 -0.5169 -0.2918 -0.4624
  216MOL0     C28437   2.899   1.761   1.590  0.5075 -0.0385 -0.7401
  216MOL0     O28438   2.956   1.640   1.632 -0.4366  0.5179  0.3374
  216MOL0     C28439   3.062   1.669   1.724  0.4202  0.1472  0.3038
  216MOL0     C28440   3.204   1.705   1.664  0.0775  0.1807  0.1154
  216MOL0     C28441   3.291   1.724   1.786 -0.2866 -0.1503 -0.9155
  216MOL0     C28442   3.440   1.736   1.733  0.7384 -0.6624 -0.5133
  216MOL0     C28443   3.460   1.842   1.633 -0.3264  0.8709 -0.5691
  216MOL0     C28444   3.466   1.932   1.543  0.0757 -0.6469  0.1968
  216MOL0     C28445   2.777   1.740   1.532 -0.6639  0.5607 -0.2148
  216MOL0     C28446   2.695   1.840   1.491  0.6404 -0.3195 -0.1116
  216MOL0     H28447   2.459   2.311   1.475 -1.1746  1.9988 -0.3697
  216MOL0     H28448   2.237   2.409   1.428  1.1064  0.2620 -0.6999
  216MOL0     H28449   1.935   2.114   1.408 -0.5244 -1.7103 -0.8013
  216MOL0     H28450   1.894   2.187   1.236  1.5570  1.0265 -0.2017
  216MOL0     H28451   1.822   2.300   1.488 -3.8905  0.9355  0.6264
  216MOL0     H28452   1.708   2.210   1.388 -1.3692  1.4076 -0.4154
  216MOL0     H28453   1.753   2.366   1.189 -1.1739 -1.0260 -0.8190
  216MOL0     H28454   1.830   2.469   1.316  1.0840 -2.1029  1.6448
  216MOL0     H28455   1.587   2.518   1.235 -0.0536  1.3461  1.1008
  216MOL0     H28456   1.537   2.376   1.326  1.2184 -1.4410 -0.0997
  216MOL0     H28457   1.635   2.664   1.407 -3.9315 -0.0997 -2.1119
  216MOL0     H28458   1.684   2.533   1.520  0.0208  0.5529  0.2869
  216MOL0     H28459   1.464   2.630   1.583 -3.1054 -1.7405  0.7800
  216MOL0     H28460   1.425   2.488   1.495  3.1509 -0.9520  2.9669
  216MOL0     H28461   1.460   2.773   1.381 -2.7117  2.2859  1.2927
  216MOL0     H28462   1.404   2.625   1.285 -1.1589 -1.1424  0.8408
  216MOL0     H28463   1.203   2.649   1.476 -1.1622  0.1740  0.2215
  216MOL0     H28464   1.205   2.668   1.303  0.4545 -1.1867  0.9428
  216MOL0     H28465   1.212   2.850   1.630  0.6541  3.3274  1.2383
  216MOL0     H28466   1.232   3.194   1.605 -0.2142 -0.4383 -3.6285
  216MOL0     H28467   1.157   3.073   1.716 -1.1972 -0.9612 -0.0112
  216MOL0     H28468   1.021   3.261   1.504  0.4838 -1.1593 -0.6167
  216MOL0     H28469   0.999   3.266   1.679 -0.7565  2.8416 -2.0652
  216MOL0     H28470   0.876   3.065   1.494 -0.9983 -0.2502  0.9799
  216MOL0     H28471   0.907   3.030   1.672  2.6298  1.5816  1.9543
  216MOL0     H28472   0.769   3.221   1.727 -1.7265  0.5250 -0.4569
  216MOL0     H28473   0.699   3.091   1.630  0.1064 -0.9910 -2.5003
  216MOL0     H28474   0.590   3.334   1.767 -3.0858  0.9653  0.5880
  216MOL0     H28475   0.506   3.544   1.815 -0.5756  0.7425 -0.6203
  216MOL0     H28476   0.184   3.822   1.673  2.1485  1.0457 -2.1243
  216MOL0     H28477   0.030   3.987   1.762  0.1503  1.5960  0.6061
  216MOL0     H28478   0.146   4.198   2.108 -2.4833  0.2576  2.2876
  216MOL0     H28479  -0.026   4.222   2.090 -1.3971  1.4310 -1.2590
  216MOL0     H28480   0.013   4.440   1.972 -1.1132 -0.3058  1.3949
  216MOL0     H28481   0.187   4.426   1.982  0.5654  2.0034  0.0650
  216MOL0     H28482   0.161   4.439   2.230  1.4896  0.7734 -1.4642
  216MOL0     H28483  -0.022   4.424   2.202  0.5096  2.7719  4.0142
  216MOL0     H28484   0.139   4.677   2.119  1.8839 -0.6965  2.3022
  216MOL0     H28485  -0.035   4.653   2.131  0.0835  0.4695  0.4590
  216MOL0     H28486   0.151   4.630   2.370 -0.1023 -0.1910 -2.0062
  216MOL0     H28487  -0.016   4.609   2.377 -0.2347 -2.1026 -2.7222
  216MOL0     H28488   0.062   4.843   2.441  2.3449  1.6172 -1.3036
  216MOL0     H28489  -0.064   4.838   2.311 -1.3944 -2.9264 -1.5167
  216MOL0     H28490   0.220   4.828   2.210 -1.2559 -2.0618  0.2549
  216MOL0     H28491   0.095   4.935   2.160 -0.3682  0.7387 -1.1880
  216MOL0     H28492   0.312   5.036   2.278  0.5359  2.4892  1.2345
  216MOL0     H28493   0.267   4.952   2.419 -0.9631 -0.7576  1.0982
  216MOL0     H28494   0.331   4.180   1.989  0.7074 -2.1959  1.3849
  216MOL0     H28495   0.498   4.002   1.932  0.2339  0.3680 -0.3770
  216MOL0     H28496   0.622   3.695   1.428  0.7678  0.4598  1.4454
  216MOL0     H28497   0.724   3.470   1.382 -1.3964 -0.3435 -1.5593
  216MOL0     H28498   2.111   2.029   1.244  0.4473 -0.8716  0.2846
  216MOL0     H28499   2.321   1.947   1.283  2.6442  0.1544 -1.3158
  216MOL0     H28500   2.909   2.094   1.553  1.8551 -0.8622  0.2750
  216MOL0     H28501   3.038   1.929   1.638 -0.5534 -0.1773 -0.4818
  216MOL0     H28502   3.073   1.573   1.775 -3.3919 -1.5131 -1.5874
  216MOL0     H28503   3.036   1.734   1.808 -0.2687 -1.1308  1.1078
  216MOL0     H28504   3.228   1.611   1.613  1.4847  0.5894 -0.0127
  216MOL0     H28505   3.198   1.788   1.593 -0.6619  0.7260  0.7906
  216MOL0     H28506   3.284   1.645   1.862 -0.6571  1.5487  0.8791
  216MOL0     H28507   3.270   1.824   1.823  0.4673 -0.1094 -0.5687
  216MOL0     H28508   3.505   1.766   1.815 -1.1068  2.3465  0.0124
  216MOL0     H28509   3.467   1.643   1.682  0.5104 -0.8307 -0.3277
  216MOL0     H28510   3.472   1.995   1.456 -0.4165 -1.1018 -0.1749
  216MOL0     H28511   2.743   1.637   1.534  0.8752 -0.0187  2.9828
  216MOL0     H28512   2.591   1.815   1.476  1.0517 -2.1200 -0.1262
  217MOL0     O28513   3.432   6.325   4.444  0.1110  0.7923  0.2864
  217MOL0     C28514   3.525   6.275   4.390 -0.3602  1.1481  0.9261
  217MOL0     O28515   3.641   6.247   4.457  0.3470 -0.7525 -0.0595
  217MOL0     C28516   3.645   6.255   4.595 -0.2794 -0.5799 -0.8223
  217MOL0     C28517   3.608   6.152   4.680 -0.0362 -0.6654  0.5522
  217MOL0     C28518   3.616   6.165   4.820 -0.8829 -0.0499 -0.7618
  217MOL0     C28519   3.651   6.294   4.885 -1.2779  0.6509  0.8372
  217MOL0     O28520   3.643   6.316   5.022 -0.2424  0.5025  0.4025
  217MOL0     C28521   3.573   6.225   5.106  0.3206  0.0245 -0.4283
  217MOL0     C28522   3.602   6.262   5.253 -0.4090  0.1859 -0.5061
  217MOL0     C28523   3.750   6.232   5.288  0.9565 -0.1984  0.9030
  217MOL0     C28524   3.777   6.299   5.411  0.9323  0.1924  0.1810
  217MOL0     C28525   3.847   6.224   5.519  0.3633 -0.5494  0.5676
  217MOL0     C28526   3.753   6.118   5.575 -0.5540  0.2520 -0.3751
  217MOL0     C28527   3.670   6.184   5.688 -0.3944  0.5508  0.5249
  217MOL0     C28528   3.757   6.181   5.811  0.3569 -0.0041  1.2895
  217MOL0     N28529   3.691   6.265   5.913  0.5469 -0.9350  0.1557
  217MOL0     C28530   3.720   6.400   5.950  0.2766  0.3975  0.4580
  217MOL0     C28531   3.648   6.418   6.057 -0.1142  0.7836  0.6355
  217MOL0     C28532   3.636   6.556   6.114 -0.1256  0.5991  0.2956
  217MOL0     C28533   3.509   6.580   6.198 -0.7632 -0.1407 -0.7702
  217MOL0     C28534   3.362   6.572   6.129 -0.6848  0.1038 -0.2450
  217MOL0     C28535   3.355   6.675   6.014 -0.4674  0.2212 -0.6498
  217MOL0     O28536   3.238   6.657   5.930  0.2022  0.7780 -0.1357
  217MOL0     C28537   3.119   6.695   5.983 -0.6989 -0.5228  0.0877
  217MOL0     C28538   3.096   6.791   6.080 -0.4340  0.0251  0.3383
  217MOL0     C28539   2.961   6.825   6.105 -0.1842  0.5794 -0.0466
  217MOL0     C28540   2.856   6.765   6.044  0.4779 -0.8493  0.2565
  217MOL0     C28541   2.722   6.799   6.087 -0.1125 -0.0742 -0.1571
  217MOL0     O28542   2.614   6.713   6.050 -0.0816  1.4163 -0.2516
  217MOL0     C28543   2.486   6.724   6.094 -1.2762 -0.0004 -0.4111
  217MOL0     C28544   2.413   6.606   6.104 -0.1754 -0.0214  0.2003
  217MOL0     C28545   2.282   6.602   6.148  0.5621 -0.5600 -0.3941
  217MOL0     C28546   2.212   6.716   6.181 -0.1732 -0.6522  0.3240
  217MOL0     O28547   2.079   6.695   6.215 -0.1434 -0.3786  0.4539
  217MOL0     C28548   2.011   6.794   6.298  0.0647  0.0239  0.9312
  217MOL0     C28549   1.878   6.729   6.361 -1.2028  0.0058  0.2723
  217MOL0     C28550   1.818   6.823   6.461  0.1432 -1.1820 -0.5345
  217MOL0     C28551   1.680   6.776   6.487  0.4085  0.4615 -0.5432
  217MOL0     C28552   1.626   6.845   6.619  0.0272  0.5721  0.1228
  217MOL0     C28553   1.470   6.840   6.628 -0.1357  0.3018  0.0227
  217MOL0     C28554   1.431   6.911   6.758  0.8965  0.3741  0.9321
  217MOL0     C28555   1.287   6.958   6.760  0.5971  0.0993 -0.3170
  217MOL0    Cl28556   1.168   6.821   6.748  0.1886  0.3539  0.2086
  217MOL0     C28557   2.286   6.837   6.176  0.0850  0.4600 -0.0185
  217MOL0     C28558   2.415   6.833   6.140 -1.3391  0.2723  0.6526
  217MOL0     O28559   2.708   6.898   6.157 -0.5124 -0.8217  0.2858
  217MOL0     C28560   2.873   6.689   5.923  0.3513  0.1681 -0.4908
  217MOL0     C28561   3.013   6.656   5.905  0.1394  0.5790  0.3177
  217MOL0     N28562   3.574   6.304   6.089 -0.3799 -0.9890 -0.0706
  217MOL0     N28563   3.607   6.208   6.004  0.4707  0.1630 -0.2393
  217MOL0     C28564   3.684   6.400   4.800 -0.5888 -0.5570  1.0200
  217MOL0     C28565   3.682   6.384   4.656  0.6387  0.5429 -0.2374
  217MOL0     C28566   3.511   6.230   4.249  0.0695 -0.6088 -0.7156
  217MOL0     C28567   3.626   6.195   4.175 -0.4114 -0.3201 -0.1465
  217MOL0     C28568   3.601   6.148   4.049 -0.3290 -0.2078 -0.6444
  217MOL0     C28569   3.485   6.143   3.989  1.0490  0.2294 -0.2388
  217MOL0     O28570   3.490   6.090   3.863 -0.6350 -0.5652  0.4859
  217MOL0     C28571   3.399   6.133   3.773 -0.1045 -0.3968  0.2729
  217MOL0     C28572   3.441   6.103   3.637 -0.2583  0.2238  0.2009
  217MOL0     C28573   3.467   5.950   3.617 -0.5841 -0.3745 -0.2942
  217MOL0     C28574   3.494   5.916   3.477  0.6429  0.1985  0.0581
  217MOL0     C28575   3.510   5.767   3.453  0.0284  0.0352  0.3072
  217MOL0     C28576   3.508   5.647   3.428  0.0305  0.0927  0.5495
  217MOL0     C28577   3.371   6.188   4.055  0.5559 -0.1750  0.4576
  217MOL0     C28578   3.380   6.238   4.188 -0.3564  1.0831  0.0541
  217MOL0     H28579   3.585   6.055   4.637  0.1524  0.0801 -1.3298
  217MOL0     H28580   3.585   6.080   4.880 -2.6630  0.2494 -1.1860
  217MOL0     H28581   3.612   6.123   5.099  1.6260  0.3590  1.3248
  217MOL0     H28582   3.466   6.221   5.081  0.1151  2.3313 -0.2082
  217MOL0     H28583   3.559   6.179   5.309  0.7397 -0.9315 -1.2404
  217MOL0     H28584   3.557   6.360   5.271 -3.5829 -1.0405 -1.1099
  217MOL0     H28585   3.812   6.267   5.205  0.0328 -3.4162 -1.3476
  217MOL0     H28586   3.777   6.127   5.306  1.8665  0.0196  0.8466
  217MOL0     H28587   3.851   6.368   5.370 -0.9635  0.5437 -2.9696
  217MOL0     H28588   3.689   6.344   5.458  2.2810 -0.8518  4.1446
  217MOL0     H28589   3.879   6.295   5.597 -3.5396  2.2490 -0.0991
  217MOL0     H28590   3.923   6.159   5.473 -1.3688 -4.3390  2.6184
  217MOL0     H28591   3.805   6.029   5.611  0.7227  1.2045  0.2124
  217MOL0     H28592   3.688   6.078   5.496 -1.1382  1.4173 -0.5118
  217MOL0     H28593   3.647   6.290   5.674  0.6425  1.4470  4.4148
  217MOL0     H28594   3.577   6.126   5.695 -1.5524  2.2433 -0.1673
  217MOL0     H28595   3.859   6.221   5.811 -0.8429  3.4855 -0.0223
  217MOL0     H28596   3.766   6.080   5.853  1.2893 -0.0585  0.9709
  217MOL0     H28597   3.769   6.477   5.892 -0.7159  0.3362 -0.5093
  217MOL0     H28598   3.624   6.631   6.035 -1.5104 -0.5596 -0.6273
  217MOL0     H28599   3.722   6.571   6.180  1.4109 -0.1446 -1.4501
  217MOL0     H28600   3.515   6.686   6.220 -4.1068  0.2096 -0.9859
  217MOL0     H28601   3.496   6.511   6.282  0.0468  1.7733  0.9801
  217MOL0     H28602   3.337   6.470   6.100  1.1809 -1.1068  1.9925
  217MOL0     H28603   3.293   6.609   6.207 -1.2438  2.1529 -1.6226
  217MOL0     H28604   3.441   6.656   5.948 -0.2224 -2.5308  0.3622
  217MOL0     H28605   3.371   6.778   6.049  2.3092  0.2943 -1.8106
  217MOL0     H28606   3.177   6.835   6.137 -1.9958  3.0460  0.4832
  217MOL0     H28607   2.955   6.881   6.197  0.5817 -0.2017  0.4924
  217MOL0     H28608   2.459   6.509   6.096  0.2544  0.3375 -2.1728
  217MOL0     H28609   2.230   6.509   6.167  1.0491 -0.6078  0.8177
  217MOL0     H28610   1.973   6.871   6.230 -1.3021  0.0386  1.6702
  217MOL0     H28611   2.074   6.826   6.382 -0.4736 -0.3461  1.4838
  217MOL0     H28612   1.917   6.641   6.413  1.6385 -0.5661 -2.5063
  217MOL0     H28613   1.801   6.695   6.291  0.2310 -2.7957 -0.0715
  217MOL0     H28614   1.812   6.925   6.422 -2.1006  0.8034  4.2555
  217MOL0     H28615   1.879   6.824   6.551 -3.0678  1.3751  1.8414
  217MOL0     H28616   1.615   6.800   6.403  2.0408 -0.2370 -2.0660
  217MOL0     H28617   1.667   6.667   6.494 -3.0227  0.4668 -3.5996
  217MOL0     H28618   1.645   6.952   6.611 -5.3036  1.6659 -3.1866
  217MOL0     H28619   1.676   6.798   6.704 -1.5460  1.0300  1.3399
  217MOL0     H28620   1.438   6.736   6.615  1.6847 -0.2628 -0.2516
  217MOL0     H28621   1.418   6.891   6.546  0.9743  1.0008 -0.2630
  217MOL0     H28622   1.431   6.838   6.839 -0.4403 -1.4660 -0.6264
  217MOL0     H28623   1.493   6.999   6.774 -2.0333  2.2545  2.7932
  217MOL0     H28624   1.266   7.023   6.675  2.9958  0.6752 -0.5468
  217MOL0     H28625   1.260   7.012   6.851  1.1532 -1.0335  0.5528
  217MOL0     H28626   2.238   6.929   6.207 -0.9632 -0.2520  0.5698
  217MOL0     H28627   2.459   6.932   6.136 -0.1892 -0.2558 -0.0980
  217MOL0     H28628   2.794   6.649   5.859 -0.5915 -0.2002  0.8430
  217MOL0     H28629   3.025   6.593   5.818 -3.2659 -1.1460  0.9080
  217MOL0     H28630   3.702   6.499   4.840  0.1802 -0.7026  1.0451
  217MOL0     H28631   3.702   6.479   4.608 -0.7596  1.9432  1.7796
  217MOL0     H28632   3.726   6.206   4.215  0.3791  4.7556 -2.7042
  217MOL0     H28633   3.691   6.121   3.994 -0.2328 -4.8749  1.3331
  217MOL0     H28634   3.386   6.242   3.772 -0.2099 -0.3664 -2.1999
  217MOL0     H28635   3.301   6.087   3.791 -1.9317  2.1584 -2.1508
  217MOL0     H28636   3.360   6.134   3.570 -0.5099  2.0226  1.2801
  217MOL0     H28637   3.528   6.165   3.615  2.8837 -2.3171  4.0545
  217MOL0     H28638   3.381   5.894   3.653  1.3608 -3.9829 -0.7791
  217MOL0     H28639   3.556   5.928   3.678 -0.0834  3.4049  0.6296
  217MOL0     H28640   3.406   5.943   3.418 -3.0513 -1.8940  4.0342
  217MOL0     H28641   3.578   5.972   3.434 -0.2080 -0.1550 -2.1772
  217MOL0     H28642   3.507   5.544   3.395  0.0748 -0.7974  3.1105
  217MOL0     H28643   3.282   6.208   3.996 -1.3321  2.1300  3.7087
  217MOL0     H28644   3.296   6.266   4.251  1.6647  0.3366  3.3557
  218MOL0     O28645   5.932   3.001   9.669 -1.0177  0.1388 -0.0804
  218MOL0     C28646   5.843   3.084   9.681 -0.2060  0.6917 -0.6247
  218MOL0     O28647   5.728   3.069   9.752  0.4846 -0.4887 -0.2621
  218MOL0     C28648   5.654   2.954   9.785  0.1361 -0.6441  0.1832
  218MOL0     C28649   5.556   2.902   9.694 -0.6814  0.0449  0.6839
  218MOL0     C28650   5.504   2.769   9.704 -0.1586 -0.6628 -0.3823
  218MOL0     C28651   5.549   2.697   9.817  1.4611  0.5048 -0.3479
  218MOL0     O28652   5.477   2.579   9.828  0.0107  0.2059  0.4603
  218MOL0     C28653   5.478   2.510   9.945 -0.6887 -0.2958  0.1872
  218MOL0     C28654   5.450   2.361   9.938 -0.6491 -0.3533  0.2800
  218MOL0     C28655   5.297   2.341   9.920  0.1023 -1.2746  0.3948
  218MOL0     C28656   5.238   2.394   9.778 -0.5767 -0.6165  0.2454
  218MOL0     C28657   5.314   2.324   9.663 -1.0639  0.1847 -0.1240
  218MOL0     C28658   5.333   2.166   9.658 -0.5051  0.3985  0.1532
  218MOL0     C28659   5.198   2.096   9.659 -0.2855  1.3291 -0.4237
  218MOL0     C28660   5.212   1.944   9.704 -0.7197  0.6525  0.1869
  218MOL0     N28661   5.091   1.859   9.726  0.3591  0.0723  0.6281
  218MOL0     C28662   5.011   1.866   9.835 -0.1532 -0.6373 -0.7012
  218MOL0     C28663   4.917   1.772   9.822 -0.0826 -0.4668  0.1626
  218MOL0     C28664   4.801   1.736   9.919 -0.2535  0.3870  0.1736
  218MOL0     C28665   4.757   1.585   9.904  0.3974 -0.6835  0.1489
  218MOL0     C28666   4.651   1.574  10.019  0.8968  0.5493  0.2269
  218MOL0     C28667   4.574   1.439  10.024 -0.0502 -0.5443  0.8887
  218MOL0     O28668   4.658   1.326  10.064  1.0284  0.7365  0.3924
  218MOL0     C28669   4.735   1.267   9.966 -0.5541  0.3600 -0.3161
  218MOL0     C28670   4.695   1.240   9.832 -0.7689  0.8419 -0.6326
  218MOL0     C28671   4.788   1.201   9.742 -0.5802 -1.1467 -0.7313
  218MOL0     C28672   4.910   1.147   9.776 -1.0110 -0.2573 -0.8928
  218MOL0     C28673   4.991   1.072   9.679  0.0451  0.2178  0.2645
  218MOL0     O28674   4.949   1.082   9.550  0.4273 -0.0442 -0.4462
  218MOL0     C28675   5.012   1.035   9.435  0.5506 -0.8033 -0.2879
  218MOL0     C28676   4.961   1.084   9.315 -0.2964  0.1732 -0.0295
  218MOL0     C28677   5.022   1.049   9.193 -0.9949 -0.0170  0.5988
  218MOL0     C28678   5.143   0.972   9.198  0.2700  0.1223 -0.1440
  218MOL0     O28679   5.206   0.944   9.083 -0.5012 -0.3176  0.7315
  218MOL0     C28680   5.205   1.032   8.964 -0.4328 -0.2944  0.3221
  218MOL0     C28681   5.247   1.181   8.987 -0.0579  0.9090 -0.9237
  218MOL0     C28682   5.224   1.267   8.868  0.6977  0.2761 -1.1931
  218MOL0     C28683   5.242   1.411   8.905  0.0046 -0.8622  0.0960
  218MOL0     C28684   5.382   1.431   8.955  0.2339 -0.5114  0.0377
  218MOL0     C28685   5.446   1.560   8.911  0.0421  0.1906  0.4972
  218MOL0     C28686   5.393   1.693   8.978 -0.7634 -0.2633 -1.5593
  218MOL0     C28687   5.496   1.798   8.938  0.1388 -0.1344  1.0280
  218MOL0    Cl28688   5.456   1.963   8.993 -0.1297  0.1216  0.5853
  218MOL0     C28689   5.194   0.916   9.317  0.4375 -0.0359 -0.5421
  218MOL0     C28690   5.128   0.949   9.432 -0.3657  0.3491  0.0481
  218MOL0     O28691   5.092   1.014   9.719 -0.1996 -0.1605  0.4068
  218MOL0     C28692   4.958   1.182   9.905 -0.6967  0.9980  0.0387
  218MOL0     C28693   4.873   1.236   9.999  0.2671 -0.5026 -0.8696
  218MOL0     N28694   4.934   1.710   9.695  0.0655 -0.7383 -0.0760
  218MOL0     N28695   5.043   1.760   9.639  0.1153 -0.1621  0.5522
  218MOL0     C28696   5.642   2.745   9.912  0.3246  0.0734 -0.1773
  218MOL0     C28697   5.692   2.877   9.900  0.1723 -0.7410 -0.0445
  218MOL0     C28698   5.873   3.218   9.634  0.1503 -0.5304  0.4213
  218MOL0     C28699   5.779   3.327   9.651 -0.5822  0.1561 -0.9374
  218MOL0     C28700   5.811   3.456   9.608 -0.3154 -0.8126  0.4429
  218MOL0     C28701   5.934   3.490   9.550  0.6584 -0.6508  0.3487
  218MOL0     O28702   5.962   3.616   9.506 -1.1236 -0.7254 -0.2691
  218MOL0     C28703   5.902   3.733   9.563 -0.3521 -0.1190 -0.2388
  218MOL0     C28704   5.953   3.847   9.473 -1.2243 -1.1230 -0.7240
  218MOL0     C28705   5.896   3.981   9.524  0.4243 -0.3879 -0.1836
  218MOL0     C28706   5.985   4.106   9.498 -0.1517 -0.5445 -0.3422
  218MOL0     C28707   6.115   4.114   9.571  0.6316 -0.9755  0.6167
  218MOL0     C28708   6.226   4.122   9.624 -0.7953  0.8707 -0.6082
  218MOL0     C28709   6.018   3.380   9.525 -0.5433 -0.7655  0.4488
  218MOL0     C28710   5.991   3.252   9.575 -0.0156 -0.4340 -0.4869
  218MOL0     H28711   5.541   2.944   9.595 -0.3017 -2.5503 -0.5718
  218MOL0     H28712   5.429   2.739   9.632 -2.1423  1.9983  0.4260
  218MOL0     H28713   5.418   2.553  10.026  0.8323  0.6475  0.8650
  218MOL0     H28714   5.579   2.523   9.985 -0.0705  2.3563 -1.9566
  218MOL0     H28715   5.472   2.308  10.031 -2.3721 -3.4853 -0.9606
  218MOL0     H28716   5.503   2.307   9.858  0.1794  0.5328  0.2036
  218MOL0     H28717   5.261   2.398  10.006 -0.3168  1.8986 -1.7197
  218MOL0     H28718   5.277   2.234   9.931 -0.6058 -1.3541 -1.3169
  218MOL0     H28719   5.131   2.369   9.774 -0.7942  0.2119  0.6080
  218MOL0     H28720   5.242   2.502   9.762 -0.7293 -0.7276 -0.5783
  218MOL0     H28721   5.413   2.372   9.662 -1.1422  0.3462 -0.3473
  218MOL0     H28722   5.277   2.363   9.568  2.0058  1.3225 -0.9914
  218MOL0     H28723   5.382   2.129   9.748 -1.1001 -2.9254 -0.7427
  218MOL0     H28724   5.384   2.143   9.564  0.3848  0.9474  0.4872
  218MOL0     H28725   5.137   2.144   9.736  0.5232 -2.0548  2.5647
  218MOL0     H28726   5.151   2.121   9.564 -0.3049  2.9659 -0.0187
  218MOL0     H28727   5.251   1.935   9.806 -0.6837  1.7381  0.2856
  218MOL0     H28728   5.275   1.893   9.631 -4.0270 -2.6392 -0.6579
  218MOL0     H28729   5.025   1.946   9.907  0.3454 -1.5681  0.2551
  218MOL0     H28730   4.716   1.802   9.898 -1.2434 -1.2055 -1.0704
  218MOL0     H28731   4.843   1.762  10.016 -2.4591  4.0630  0.3370
  218MOL0     H28732   4.843   1.521   9.926  1.0064 -0.2244 -0.8156
  218MOL0     H28733   4.712   1.551   9.811 -2.0841 -1.4726  1.5513
  218MOL0     H28734   4.697   1.595  10.117  4.9346  0.2847 -1.4095
  218MOL0     H28735   4.569   1.644  10.003  0.4486  0.1426  0.7335
  218MOL0     H28736   4.519   1.421   9.932  1.3983 -2.9366  0.4205
  218MOL0     H28737   4.490   1.452  10.093 -3.0092 -1.4765 -2.3062
  218MOL0     H28738   4.599   1.267   9.790 -1.6220  1.0851  1.3590
  218MOL0     H28739   4.762   1.186   9.638  0.8301  1.3754 -1.5460
  218MOL0     H28740   4.881   1.157   9.314 -1.7003 -1.3096 -1.5298
  218MOL0     H28741   4.982   1.085   9.099  0.0146 -1.5130 -0.4336
  218MOL0     H28742   5.105   1.026   8.920  0.8469  0.0198 -2.8887
  218MOL0     H28743   5.271   0.989   8.888 -1.4525  0.0607 -0.7946
  218MOL0     H28744   5.354   1.176   9.013  0.0775 -2.0632 -1.6490
  218MOL0     H28745   5.191   1.220   9.073 -0.5300 -2.1603  0.2947
  218MOL0     H28746   5.118   1.256   8.844  0.1134  0.9952  0.8432
  218MOL0     H28747   5.291   1.227   8.792 -0.7075 -0.9660 -1.8316
  218MOL0     H28748   5.210   1.487   8.833 -1.8637  0.4429  2.1532
  218MOL0     H28749   5.172   1.443   8.983  1.5703 -0.9179  1.5870
  218MOL0     H28750   5.454   1.352   8.930  2.9374  2.0484 -0.7916
  218MOL0     H28751   5.380   1.429   9.064  0.5511  1.1305  0.0948
  218MOL0     H28752   5.453   1.570   8.802  4.7030  0.1811  0.5858
  218MOL0     H28753   5.550   1.546   8.942 -0.1793 -1.6019  0.5227
  218MOL0     H28754   5.294   1.728   8.947 -1.4555 -1.2089 -0.4836
  218MOL0     H28755   5.393   1.673   9.085 -2.2000 -0.1846 -1.5236
  218MOL0     H28756   5.495   1.801   8.828  2.6673 -1.6218  0.8816
  218MOL0     H28757   5.594   1.764   8.972  0.7067 -1.8567 -1.9337
  218MOL0     H28758   5.272   0.841   9.315 -0.9071 -1.5348  0.7076
  218MOL0     H28759   5.168   0.890   9.514  4.7810 -2.5475 -3.9850
  218MOL0     H28760   5.059   1.148   9.924  0.0377  0.5976 -3.7093
  218MOL0     H28761   4.919   1.286  10.084  1.5131  0.6509 -2.1734
  218MOL0     H28762   5.687   2.693   9.997 -0.8954 -1.3115 -0.3372
  218MOL0     H28763   5.752   2.922   9.978 -0.9582 -0.8568  0.9346
  218MOL0     H28764   5.688   3.313   9.708  1.0208 -1.3846  1.4271
  218MOL0     H28765   5.737   3.534   9.628  1.8667  1.7489 -0.8828
  218MOL0     H28766   5.931   3.754   9.666 -2.7490  1.4868  0.1960
  218MOL0     H28767   5.793   3.728   9.577 -0.0694  1.2962  3.7178
  218MOL0     H28768   6.062   3.855   9.462 -1.3486  1.1163 -0.6976
  218MOL0     H28769   5.920   3.835   9.369 -3.9926  0.0278 -0.0386
  218MOL0     H28770   5.891   3.978   9.633 -1.4883 -1.3067 -0.2547
  218MOL0     H28771   5.796   3.994   9.481 -0.0504 -0.9648  0.7249
  218MOL0     H28772   6.010   4.114   9.392 -0.4074  1.8005 -0.2837
  218MOL0     H28773   5.922   4.193   9.519  0.8595  0.5118 -1.5599
  218MOL0     H28774   6.313   4.142   9.683 -2.5879  0.6681  2.2496
  218MOL0     H28775   6.108   3.398   9.467 -0.1695 -0.7726  1.0160
  218MOL0     H28776   6.077   3.187   9.564 -0.1695 -0.5472 -1.0379
  219MOL0     O28777   3.607   3.862   7.687  0.5867  0.5464  0.3626
  219MOL0     C28778   3.552   3.756   7.661 -0.0459 -0.2244 -0.9057
  219MOL0     O28779   3.578   3.641   7.733 -0.3830  0.5870 -0.1672
  219MOL0     C28780   3.714   3.616   7.766  0.8821 -1.0246  0.1494
  219MOL0     C28781   3.788   3.530   7.682  0.4963  0.4463  0.5553
  219MOL0     C28782   3.923   3.494   7.713  0.7443 -0.8109 -0.3504
  219MOL0     C28783   3.991   3.561   7.808 -0.7949 -0.5555 -0.7584
  219MOL0     O28784   4.121   3.536   7.838 -0.0410 -0.3654  0.4489
  219MOL0     C28785   4.214   3.554   7.736  0.8446  0.3086  0.5627
  219MOL0     C28786   4.343   3.486   7.782 -0.3534 -0.1816 -0.4892
  219MOL0     C28787   4.447   3.496   7.667  0.0559 -0.0712 -0.5931
  219MOL0     C28788   4.562   3.413   7.708 -0.2210  0.3973  0.5368
  219MOL0     C28789   4.689   3.425   7.616 -0.5572 -0.4955 -0.5654
  219MOL0     C28790   4.805   3.329   7.657 -0.0344 -0.6524  0.5311
  219MOL0     C28791   4.938   3.334   7.575 -0.0029 -0.9771 -0.8324
  219MOL0     C28792   4.912   3.252   7.444  0.0858  0.2021 -0.3092
  219MOL0     N28793   4.962   3.312   7.315  0.3306  0.3977 -0.3286
  219MOL0     C28794   5.025   3.229   7.226  0.2117  0.6975  0.4070
  219MOL0     C28795   5.063   3.308   7.124 -0.3277  0.0956 -1.1253
  219MOL0     C28796   5.137   3.272   6.996 -0.0650  0.9357  0.8250
  219MOL0     C28797   5.146   3.120   6.983 -0.4053 -0.1581  0.7289
  219MOL0     C28798   5.238   3.069   6.868 -0.0775 -0.4463  0.1029
  219MOL0     C28799   5.182   3.101   6.725  0.0002  0.1930  0.9111
  219MOL0     O28800   5.285   3.041   6.642  0.4662 -0.5206  0.0482
  219MOL0     C28801   5.267   2.907   6.616 -0.5171 -0.3910  0.6709
  219MOL0     C28802   5.364   2.856   6.528  0.1126 -0.5122  0.3789
  219MOL0     C28803   5.357   2.722   6.477 -0.5614  0.9515 -0.0136
  219MOL0     C28804   5.254   2.641   6.510  0.0766  0.6203 -0.2500
  219MOL0     C28805   5.251   2.512   6.445  0.9084 -0.4987  0.4962
  219MOL0     O28806   5.354   2.472   6.372  0.4420 -0.3121 -0.1353
  219MOL0     C28807   5.379   2.350   6.314  0.7943 -0.0929  0.6583
  219MOL0     C28808   5.479   2.342   6.211  0.2792 -0.1894 -0.0652
  219MOL0     C28809   5.530   2.216   6.174  0.2977  0.2579 -0.0465
  219MOL0     C28810   5.458   2.098   6.203 -0.6944  0.4051  0.1768
  219MOL0     O28811   5.493   1.975   6.166 -0.2464 -0.0653  0.5109
  219MOL0     C28812   5.630   1.943   6.131  0.2932  0.3163 -0.4607
  219MOL0     C28813   5.644   1.796   6.103  0.6247 -0.1640  0.2664
  219MOL0     C28814   5.537   1.736   6.014 -0.4026 -0.4115  0.3129
  219MOL0     C28815   5.529   1.812   5.880 -0.8934  0.0026 -1.0508
  219MOL0     C28816   5.426   1.742   5.789 -0.0321 -0.6326 -0.9885
  219MOL0     C28817   5.433   1.763   5.640 -0.8101 -0.3143 -0.9493
  219MOL0     C28818   5.332   1.681   5.556  0.0639 -0.0559  0.6134
  219MOL0     C28819   5.395   1.667   5.412 -0.4209 -0.0635  0.2093
  219MOL0    Cl28820   5.376   1.826   5.352 -0.2183  0.0560 -0.0966
  219MOL0     C28821   5.356   2.113   6.296  0.1752  0.4303  0.9702
  219MOL0     C28822   5.308   2.232   6.352 -0.0084 -0.4935 -0.2390
  219MOL0     O28823   5.140   2.453   6.459 -0.4321  0.7607  0.1374
  219MOL0     C28824   5.160   2.689   6.596 -0.4023 -0.0003 -0.5214
  219MOL0     C28825   5.169   2.818   6.651 -0.4100 -1.4168  0.3000
  219MOL0     N28826   5.047   3.431   7.170  1.0077  0.7137  0.2819
  219MOL0     N28827   4.995   3.433   7.288 -0.1622  0.3657 -0.4910
  219MOL0     C28828   3.926   3.657   7.886 -1.0483 -0.2304 -0.1422
  219MOL0     C28829   3.792   3.682   7.866 -0.0782  0.2211  0.5912
  219MOL0     C28830   3.423   3.763   7.584  0.2132  1.0241 -0.9498
  219MOL0     C28831   3.392   3.864   7.496 -0.0006 -0.7645 -0.3120
  219MOL0     C28832   3.275   3.867   7.426  0.1658  0.2093  0.2679
  219MOL0     C28833   3.174   3.764   7.448  0.2103  1.1798  0.8461
  219MOL0     O28834   3.061   3.761   7.370  0.6811 -0.2940  0.4631
  219MOL0     C28835   2.971   3.871   7.369  0.4375  0.5186  0.7099
  219MOL0     C28836   2.827   3.821   7.356  0.6594 -0.1089 -0.6077
  219MOL0     C28837   2.768   3.827   7.212 -0.5096  0.2055  0.1356
  219MOL0     C28838   2.627   3.752   7.215  1.0439 -0.0239 -0.9509
  219MOL0     C28839   2.582   3.753   7.079  1.4091 -0.8095  1.1106
  219MOL0     C28840   2.552   3.769   6.957  0.4887 -0.0159 -0.5556
  219MOL0     C28841   3.213   3.647   7.521 -0.2108 -0.1677  0.4489
  219MOL0     C28842   3.335   3.651   7.592 -0.2668 -0.4710  0.4076
  219MOL0     H28843   3.729   3.497   7.598  0.1012  0.8182  0.6829
  219MOL0     H28844   3.974   3.414   7.661  2.6248 -0.1044  0.3138
  219MOL0     H28845   4.225   3.662   7.722 -0.0157  0.1199 -2.0219
  219MOL0     H28846   4.174   3.518   7.641  0.2820  0.7724  0.6185
  219MOL0     H28847   4.330   3.382   7.815  2.4424 -1.1934 -2.1507
  219MOL0     H28848   4.371   3.545   7.870  0.7560  1.0980 -1.6459
  219MOL0     H28849   4.483   3.594   7.634 -0.2838  0.3355  0.2311
  219MOL0     H28850   4.395   3.452   7.581 -0.9320 -0.1774  0.0448
  219MOL0     H28851   4.588   3.425   7.814 -0.5036 -1.8239  0.9075
  219MOL0     H28852   4.539   3.307   7.696  2.1045 -0.0987  0.0421
  219MOL0     H28853   4.722   3.529   7.607 -0.6039 -0.5886 -2.2113
  219MOL0     H28854   4.660   3.398   7.514 -1.2511 -1.6921 -0.0651
  219MOL0     H28855   4.764   3.229   7.671  3.0029 -1.6922  3.1850
  219MOL0     H28856   4.839   3.373   7.752  1.0465 -0.5004  0.0938
  219MOL0     H28857   4.977   3.433   7.547  0.8962 -1.3218 -0.8114
  219MOL0     H28858   5.013   3.288   7.639  0.2250  2.2415  1.4373
  219MOL0     H28859   4.803   3.247   7.431  0.3171  1.4367 -3.4724
  219MOL0     H28860   4.941   3.146   7.440  1.1644  0.5246 -2.2618
  219MOL0     H28861   5.034   3.121   7.239  0.1626  0.1778 -3.0728
  219MOL0     H28862   5.239   3.310   7.007  1.7601 -2.6345 -1.7543
  219MOL0     H28863   5.082   3.323   6.915  0.3255 -2.8254 -2.1014
  219MOL0     H28864   5.045   3.080   6.980 -0.3010 -0.3921 -0.4113
  219MOL0     H28865   5.183   3.083   7.079 -0.9304 -0.2473  0.9006
  219MOL0     H28866   5.339   3.111   6.869  0.1557 -0.9021 -1.5581
  219MOL0     H28867   5.253   2.961   6.877  2.1339 -0.1514  0.4952
  219MOL0     H28868   5.180   3.210   6.708 -1.8236  0.3106  1.7064
  219MOL0     H28869   5.081   3.068   6.702  0.7968 -0.8372 -1.3859
  219MOL0     H28870   5.441   2.925   6.495 -0.5811 -0.6147 -1.6468
  219MOL0     H28871   5.443   2.694   6.416 -0.4714  3.7711 -1.3631
  219MOL0     H28872   5.540   2.414   6.157  0.8200  1.1507  2.2250
  219MOL0     H28873   5.624   2.210   6.120  0.2122 -3.4543 -0.0214
  219MOL0     H28874   5.694   1.960   6.219  1.1318  1.1738 -1.2193
  219MOL0     H28875   5.662   1.996   6.041 -3.0809 -1.0405 -2.6570
  219MOL0     H28876   5.646   1.742   6.198  1.5934 -2.7941 -1.1346
  219MOL0     H28877   5.746   1.792   6.062  1.0581  0.9938  1.1846
  219MOL0     H28878   5.435   1.745   6.055 -0.8488 -1.1356 -0.6052
  219MOL0     H28879   5.557   1.628   6.011 -1.4653 -0.8941  4.2720
  219MOL0     H28880   5.489   1.912   5.901  1.1847  0.3571  1.8731
  219MOL0     H28881   5.630   1.809   5.839  1.0036 -0.8073  3.1831
  219MOL0     H28882   5.327   1.778   5.821  0.7794 -0.5669  1.7652
  219MOL0     H28883   5.428   1.637   5.821  2.0178  0.2443  2.2033
  219MOL0     H28884   5.534   1.750   5.600 -0.4982 -2.9662  0.4447
  219MOL0     H28885   5.414   1.870   5.628  1.7160  0.3652  0.4926
  219MOL0     H28886   5.311   1.590   5.613 -0.9174 -0.9898 -1.1734
  219MOL0     H28887   5.238   1.737   5.551 -1.0790 -1.9651 -0.3907
  219MOL0     H28888   5.328   1.610   5.347 -1.8292  1.4892  0.2259
  219MOL0     H28889   5.495   1.624   5.417 -0.5779 -0.6449 -1.2948
  219MOL0     H28890   5.317   2.015   6.320 -0.7630  0.0971 -1.6165
  219MOL0     H28891   5.231   2.228   6.429 -3.0048  1.4438 -2.8460
  219MOL0     H28892   5.083   2.621   6.631 -0.1856 -0.7909 -1.5247
  219MOL0     H28893   5.089   2.849   6.718  1.3554  1.1546  1.3768
  219MOL0     H28894   3.994   3.715   7.948  1.4144  0.3918 -3.1429
  219MOL0     H28895   3.744   3.760   7.923  0.2870 -0.2254  1.5387
  219MOL0     H28896   3.466   3.942   7.479 -1.3188  1.3178  2.6043
  219MOL0     H28897   3.261   3.941   7.348 -3.2695  2.8951  3.1165
  219MOL0     H28898   2.987   3.939   7.284  2.4386  0.3970  0.9274
  219MOL0     H28899   2.982   3.938   7.455  0.8726  2.2996 -0.6725
  219MOL0     H28900   2.814   3.725   7.407 -0.5197  1.1640  1.6651
  219MOL0     H28901   2.765   3.893   7.409 -2.4902 -2.3333 -1.0319
  219MOL0     H28902   2.841   3.787   7.141 -0.7265  0.0420  0.0056
  219MOL0     H28903   2.775   3.933   7.189  2.7473 -0.5533 -3.2142
  219MOL0     H28904   2.634   3.645   7.232 -1.9016 -0.3508 -1.2008
  219MOL0     H28905   2.553   3.793   7.284 -0.1046 -0.1256 -2.0655
  219MOL0     H28906   2.521   3.780   6.855  0.6464 -0.0946 -0.6122
  219MOL0     H28907   3.162   3.550   7.523 -0.5680 -0.0808 -1.9438
  219MOL0     H28908   3.366   3.563   7.647 -1.3704  0.3193  2.4076
  220MOL0     O28909   7.581   8.687   1.373  0.2001 -0.1614  0.2592
  220MOL0     C28910   7.474   8.622   1.362  0.6806 -0.1455  0.7688
  220MOL0     O28911   7.412   8.592   1.243 -0.2651 -0.5760  0.6780
  220MOL0     C28912   7.468   8.650   1.139 -0.1797 -0.1885 -0.0792
  220MOL0     C28913   7.577   8.596   1.078 -0.5146  0.0979 -0.2948
  220MOL0     C28914   7.648   8.668   0.980  0.3688  0.2387  0.0393
  220MOL0     C28915   7.612   8.795   0.942  0.7005  0.1703 -0.0799
  220MOL0     O28916   7.682   8.855   0.843 -0.3213 -0.1173 -0.0159
  220MOL0     C28917   7.679   8.803   0.710  0.5172 -0.3512 -0.1757
  220MOL0     C28918   7.811   8.819   0.646  0.0067  0.1116 -0.0903
  220MOL0     C28919   7.855   8.968   0.638 -0.2438 -0.3556  0.0297
  220MOL0     C28920   7.989   8.986   0.568  0.1443 -0.7474  0.3090
  220MOL0     C28921   8.106   8.979   0.663 -0.3313  1.1527  0.3066
  220MOL0     C28922   8.210   9.089   0.635 -1.0258 -0.1655  0.2602
  220MOL0     C28923   8.328   9.085   0.736  0.6665 -0.3284  0.3896
  220MOL0     C28924   8.430   9.196   0.713  0.2292  0.4571  0.1594
  220MOL0     N28925   8.478   9.221   0.575  0.8762 -0.2801 -0.5723
  220MOL0     C28926   8.426   9.315   0.493  0.0121 -0.4126 -0.0666
  220MOL0     C28927   8.472   9.295   0.360 -1.1179 -0.0983 -1.5883
  220MOL0     C28928   8.416   9.360   0.235  1.9184 -0.7484  0.3435
  220MOL0     C28929   8.292   9.288   0.172 -0.0913  0.4772  0.0828
  220MOL0     C28930   8.169   9.304   0.264  0.0865 -0.3473 -0.5909
  220MOL0     C28931   8.046   9.220   0.219 -1.0142 -0.5891  0.2264
  220MOL0     O28932   8.000   9.272   0.087  0.0199  0.0234 -0.8346
  220MOL0     C28933   7.861   9.287   0.064 -1.4314 -0.3616  0.1789
  220MOL0     C28934   7.842   9.340  -0.060  0.0204  0.5411  0.2308
  220MOL0     C28935   7.714   9.365  -0.104  0.3149 -0.1410  0.4227
  220MOL0     C28936   7.603   9.347  -0.025  0.1740  0.9228  0.7255
  220MOL0     C28937   7.462   9.381  -0.072  0.0041 -0.2941  0.4681
  220MOL0     O28938   7.450   9.459  -0.187 -0.1880 -0.6238  0.1489
  220MOL0     C28939   7.342   9.522  -0.227  0.3258 -0.2261 -0.5835
  220MOL0     C28940   7.367   9.653  -0.263  0.3374 -0.7214 -0.3027
  220MOL0     C28941   7.256   9.735  -0.286  0.0299 -0.9079  0.4633
  220MOL0     C28942   7.120   9.684  -0.281  0.5675 -1.0040  0.3556
  220MOL0     O28943   7.026   9.791  -0.319 -0.1734  0.5492 -0.3005
  220MOL0     C28944   6.886   9.749  -0.315 -0.9099  0.8821 -0.2488
  220MOL0     C28945   6.802   9.856  -0.367  0.4473  0.2210 -0.8112
  220MOL0     C28946   6.649   9.830  -0.374 -1.6559  0.0001  0.2594
  220MOL0     C28947   6.568   9.930  -0.453 -0.7001  0.0273 -0.0877
  220MOL0     C28948   6.422   9.911  -0.438  0.5651 -0.6728  0.2312
  220MOL0     C28949   6.347   9.807  -0.521  0.4526 -0.4047 -0.0573
  220MOL0     C28950   6.208   9.766  -0.469  0.1904 -0.1454 -0.2478
  220MOL0     C28951   6.134   9.685  -0.576 -0.6760 -0.6249  0.5171
  220MOL0    Cl28952   6.003   9.590  -0.498  0.1104 -0.3179 -0.0734
  220MOL0     C28953   7.093   9.553  -0.246 -0.7427 -0.4479  1.6389
  220MOL0     C28954   7.203   9.474  -0.213  0.5000  0.6604 -0.3612
  220MOL0     O28955   7.364   9.322  -0.025 -0.5520  0.3632 -0.1612
  220MOL0     C28956   7.622   9.294   0.107 -0.1439 -0.1731 -0.6289
  220MOL0     C28957   7.753   9.266   0.156 -0.8254  0.6069  1.0031
  220MOL0     N28958   8.570   9.199   0.371 -0.5261 -0.0671 -0.5422
  220MOL0     N28959   8.563   9.147   0.494  0.7721 -0.7409 -0.1621
  220MOL0     C28960   7.508   8.854   1.007 -0.2765 -0.5170 -0.2753
  220MOL0     C28961   7.433   8.784   1.107 -0.5399  0.0110  0.8022
  220MOL0     C28962   7.410   8.578   1.487 -0.2958 -0.4393  0.8243
  220MOL0     C28963   7.294   8.506   1.480  0.5256  0.0540  0.1532
  220MOL0     C28964   7.232   8.461   1.598  0.2957 -0.2080 -0.0353
  220MOL0     C28965   7.292   8.494   1.719 -0.3636  0.3988 -0.2436
  220MOL0     O28966   7.236   8.444   1.835  0.2946  0.1566  0.0415
  220MOL0     C28967   7.158   8.320   1.837 -0.2066  0.1658 -0.0749
  220MOL0     C28968   7.254   8.203   1.799 -0.6713 -0.1759  0.3176
  220MOL0     C28969   7.398   8.205   1.854  0.4760  0.9320 -0.0523
  220MOL0     C28970   7.454   8.068   1.869 -0.2155 -0.0526  0.0206
  220MOL0     C28971   7.385   8.012   1.984 -0.6967 -0.6195  0.2712
  220MOL0     C28972   7.352   7.972   2.092  0.0647  0.0803  0.3978
  220MOL0     C28973   7.418   8.558   1.725 -0.3325 -0.1942  0.6282
  220MOL0     C28974   7.471   8.609   1.609 -0.2743 -0.5834  0.9571
  220MOL0     H28975   7.616   8.496   1.092 -1.3103 -0.7315 -3.1706
  220MOL0     H28976   7.737   8.625   0.934  1.2478 -0.8902  2.6132
  220MOL0     H28977   7.607   8.848   0.641  2.1697  2.3912 -0.2452
  220MOL0     H28978   7.645   8.699   0.717  0.0804 -0.2397 -0.5624
  220MOL0     H28979   7.824   8.768   0.550  3.2105  2.1513 -0.9046
  220MOL0     H28980   7.874   8.764   0.716  0.7800 -0.8107 -1.4474
  220MOL0     H28981   7.859   9.008   0.740 -0.4882  0.3694 -0.2394
  220MOL0     H28982   7.789   9.033   0.580 -0.5339 -0.5618  0.1278
  220MOL0     H28983   7.996   8.914   0.486  0.1245  1.6868 -1.9615
  220MOL0     H28984   7.989   9.087   0.527 -4.2305 -0.9957 -0.7260
  220MOL0     H28985   8.135   8.873   0.664 -1.0444  0.7654 -3.5284
  220MOL0     H28986   8.071   9.005   0.763 -1.4402  2.0317 -0.2911
  220MOL0     H28987   8.150   9.179   0.650 -1.4624 -0.6090  1.1888
  220MOL0     H28988   8.239   9.061   0.533 -2.9194  0.0204 -0.3654
  220MOL0     H28989   8.283   9.099   0.835  0.3123 -1.2825  0.3701
  220MOL0     H28990   8.378   8.988   0.744 -1.1540 -1.3242  0.1764
  220MOL0     H28991   8.520   9.167   0.767  0.7243  0.5343 -0.6053
  220MOL0     H28992   8.381   9.285   0.754  5.4763  2.3917  3.2068
  220MOL0     H28993   8.358   9.392   0.527 -2.2316 -1.4588 -1.8948
  220MOL0     H28994   8.493   9.373   0.158  0.9385  0.2650 -0.4934
  220MOL0     H28995   8.385   9.456   0.277 -3.1072 -2.4170  1.0715
  220MOL0     H28996   8.318   9.182   0.167 -0.0803  0.4906 -0.1899
  220MOL0     H28997   8.270   9.329   0.073 -0.1137  1.3968  0.4585
  220MOL0     H28998   8.185   9.280   0.370  1.8919  1.5561 -0.3475
  220MOL0     H28999   8.134   9.408   0.265 -0.7968 -0.5633  2.4896
  220MOL0     H29000   7.968   9.225   0.296  0.1041  0.1286  1.3613
  220MOL0     H29001   8.080   9.116   0.208  1.4587  0.4259 -5.6418
  220MOL0     H29002   7.928   9.368  -0.120 -1.5531  3.3487 -0.8667
  220MOL0     H29003   7.709   9.386  -0.210 -0.3704 -2.4208 -0.0571
  220MOL0     H29004   7.467   9.693  -0.250 -0.2342  1.1411 -1.3387
  220MOL0     H29005   7.285   9.839  -0.298 -1.0797 -0.4331  1.6794
  220MOL0     H29006   6.857   9.714  -0.215  0.5582 -1.9691 -0.7279
  220MOL0     H29007   6.868   9.660  -0.376  0.6803  0.3678 -0.0018
  220MOL0     H29008   6.831   9.879  -0.470 -0.0925  2.6313 -0.4856
  220MOL0     H29009   6.816   9.948  -0.309 -1.4767 -0.5439  0.9581
  220MOL0     H29010   6.622   9.840  -0.269 -0.0834  2.9661  0.4983
  220MOL0     H29011   6.631   9.729  -0.413  0.1758  0.1445 -1.0854
  220MOL0     H29012   6.588  10.034  -0.427  0.9061 -0.2855  0.0330
  220MOL0     H29013   6.603   9.930  -0.557 -0.3269 -0.5673  0.0289
  220MOL0     H29014   6.378  10.011  -0.450 -0.1080 -0.9095  0.6889
  220MOL0     H29015   6.399   9.878  -0.336 -1.2463  0.8229  0.3651
  220MOL0     H29016   6.423   9.734  -0.552  2.2678  2.0323 -1.7239
  220MOL0     H29017   6.323   9.843  -0.622 -1.1369 -2.0677 -0.3284
  220MOL0     H29018   6.201   9.709  -0.376 -1.8791  1.6501  0.8091
  220MOL0     H29019   6.166   9.866  -0.450  3.5068  0.8204  3.3613
  220MOL0     H29020   6.203   9.609  -0.615  2.6469  3.0684 -1.5794
  220MOL0     H29021   6.095   9.740  -0.662 -2.0746 -0.0307  1.4873
  220MOL0     H29022   6.992   9.513  -0.241 -0.5966 -0.8071  1.7096
  220MOL0     H29023   7.192   9.369  -0.191 -1.1888  0.5271 -1.6494
  220MOL0     H29024   7.539   9.300   0.177  1.4384  2.3353  1.2248
  220MOL0     H29025   7.753   9.231   0.258  0.0657  1.8544  1.4528
  220MOL0     H29026   7.485   8.960   0.999  0.4236  0.0993  3.6759
  220MOL0     H29027   7.363   8.844   1.164 -0.1866  2.6430 -1.2938
  220MOL0     H29028   7.248   8.475   1.386 -1.4783 -0.8700  1.3634
  220MOL0     H29029   7.135   8.412   1.600  0.6202 -0.9480 -1.3494
  220MOL0     H29030   7.068   8.322   1.775  0.4411  0.0490 -1.0384
  220MOL0     H29031   7.113   8.322   1.936 -2.9875 -0.7144 -1.2319
  220MOL0     H29032   7.195   8.117   1.832  0.7598 -0.8566  1.1682
  220MOL0     H29033   7.262   8.200   1.690  0.7145  1.1562  0.3482
  220MOL0     H29034   7.400   8.249   1.954 -0.4394  0.6588  0.0968
  220MOL0     H29035   7.459   8.272   1.793 -1.5929  1.5366 -1.5542
  220MOL0     H29036   7.442   8.004   1.781 -2.0632 -0.8532  0.7888
  220MOL0     H29037   7.560   8.061   1.895  0.0781  3.4649  0.2992
  220MOL0     H29038   7.311   7.939   2.185 -2.1232 -1.3576 -0.9925
  220MOL0     H29039   7.474   8.588   1.814  2.2045 -1.4780 -0.4285
  220MOL0     H29040   7.563   8.666   1.612  0.3186 -0.8002 -3.8690
  221MOL0     O29041   7.462   7.186   2.928 -0.8296 -0.4015  0.2134
  221MOL0     C29042   7.402   7.087   2.975 -0.0076 -1.8470  0.4378
  221MOL0     O29043   7.378   7.065   3.102 -0.1403 -0.0760 -0.3337
  221MOL0     C29044   7.449   7.134   3.200  0.6082 -0.2396  1.2227
  221MOL0     C29045   7.381   7.206   3.298  1.0985 -0.3440  0.1784
  221MOL0     C29046   7.443   7.289   3.386 -0.4771 -0.1886 -0.8244
  221MOL0     C29047   7.581   7.276   3.398 -0.1714 -0.2024 -0.8476
  221MOL0     O29048   7.648   7.340   3.503  0.4859 -0.0861  0.5085
  221MOL0     C29049   7.607   7.311   3.642  0.1262 -1.3595  0.6353
  221MOL0     C29050   7.666   7.430   3.714  0.1691  0.0086 -0.9897
  221MOL0     C29051   7.570   7.549   3.718  0.4093 -0.8940  0.3034
  221MOL0     C29052   7.645   7.667   3.764 -0.1487 -0.3565  0.9190
  221MOL0     C29053   7.548   7.782   3.805 -0.0570  0.2262  0.8209
  221MOL0     C29054   7.464   7.859   3.685 -0.7292 -0.1074  0.1147
  221MOL0     C29055   7.566   7.926   3.592  0.4440  0.0758  0.5819
  221MOL0     C29056   7.582   8.079   3.622  1.1307  0.2625  0.6369
  221MOL0     N29057   7.670   8.096   3.740  0.0148 -0.2355 -0.5773
  221MOL0     C29058   7.630   8.123   3.863  0.4969 -0.3141 -0.0807
  221MOL0     C29059   7.741   8.135   3.935  1.2046 -0.2598  0.0906
  221MOL0     C29060   7.741   8.194   4.071  0.7087 -0.7439 -0.3253
  221MOL0     C29061   7.665   8.108   4.178  0.0737 -0.1640  0.7538
  221MOL0     C29062   7.669   8.180   4.313  0.2664  0.3639 -0.3254
  221MOL0     C29063   7.545   8.258   4.351 -0.3136 -0.6709  0.5765
  221MOL0     O29064   7.526   8.371   4.261  0.2445 -0.6364 -0.8948
  221MOL0     C29065   7.394   8.410   4.267 -0.0252  0.0770  0.0808
  221MOL0     C29066   7.309   8.427   4.377  1.1796  0.1373 -0.3835
  221MOL0     C29067   7.173   8.453   4.372  0.4997  0.2345 -0.2748
  221MOL0     C29068   7.113   8.489   4.248  0.7438 -0.3199 -0.2294
  221MOL0     C29069   6.964   8.506   4.239  0.1561  0.3315 -0.1510
  221MOL0     O29070   6.927   8.504   4.108  0.4284 -0.4685  0.5428
  221MOL0     C29071   6.796   8.522   4.066  0.0495  0.6805  0.0474
  221MOL0     C29072   6.770   8.608   3.960 -0.6508 -0.0682  0.3093
  221MOL0     C29073   6.642   8.628   3.914 -0.2944 -0.5647 -0.4902
  221MOL0     C29074   6.538   8.568   3.986  1.0204  0.2575 -0.1151
  221MOL0     O29075   6.414   8.575   3.924 -0.1056  0.2783 -0.2936
  221MOL0     C29076   6.296   8.567   4.008 -0.0037 -0.4394 -0.9892
  221MOL0     C29077   6.180   8.637   3.958  0.1557 -0.1492 -0.5630
  221MOL0     C29078   6.091   8.551   3.865 -0.1372  0.3678 -0.4256
  221MOL0     C29079   6.008   8.641   3.761  0.0306 -0.3847 -0.5685
  221MOL0     C29080   5.914   8.726   3.856  0.5194  0.3233 -0.0591
  221MOL0     C29081   5.812   8.645   3.947  0.4195  0.4017 -0.6651
  221MOL0     C29082   5.697   8.571   3.875 -0.5006 -0.1070  0.4291
  221MOL0     C29083   5.601   8.653   3.788 -0.2980  0.4769 -0.8721
  221MOL0    Cl29084   5.453   8.563   3.744  0.0874 -0.4732 -0.3101
  221MOL0     C29085   6.560   8.487   4.098  0.6509  0.3737 -0.0711
  221MOL0     C29086   6.693   8.471   4.144 -0.1841  0.3409 -0.8900
  221MOL0     O29087   6.902   8.554   4.328 -0.2978 -0.2295 -0.7420
  221MOL0     C29088   7.201   8.483   4.134  0.1288  0.6970  0.0207
  221MOL0     C29089   7.331   8.444   4.141 -0.1927 -0.0610 -0.6034
  221MOL0     N29090   7.845   8.097   3.852  0.0485 -0.7494 -1.2479
  221MOL0     N29091   7.806   8.080   3.740 -0.6864 -0.4426  0.7288
  221MOL0     C29092   7.658   7.201   3.300 -0.0870 -0.2440  0.4291
  221MOL0     C29093   7.592   7.140   3.197  0.4985  0.1826  0.4334
  221MOL0     C29094   7.321   7.019   2.872 -0.6658 -0.1669 -0.3946
  221MOL0     C29095   7.361   7.029   2.735 -0.4241 -0.1166  0.5127
  221MOL0     C29096   7.286   6.966   2.633 -0.7003  0.4624 -0.4050
  221MOL0     C29097   7.171   6.892   2.668  0.4027  0.3874  0.3821
  221MOL0     O29098   7.096   6.820   2.577 -0.4057  0.3730 -0.4821
  221MOL0     C29099   7.126   6.822   2.441 -0.1798  0.0365 -0.5826
  221MOL0     C29100   6.999   6.776   2.370 -0.6200 -0.8386 -0.5527
  221MOL0     C29101   6.943   6.642   2.417 -0.2355 -0.2149 -0.0223
  221MOL0     C29102   7.039   6.526   2.397  1.1021  0.2256 -0.6672
  221MOL0     C29103   6.980   6.401   2.440 -0.8429 -0.4748 -0.3308
  221MOL0     C29104   6.922   6.308   2.486 -0.6830 -0.2035 -0.2492
  221MOL0     C29105   7.129   6.885   2.802  0.4219  0.1580  1.4505
  221MOL0     C29106   7.205   6.952   2.897 -1.4167  0.6833  0.1539
  221MOL0     H29107   7.273   7.200   3.305  1.0782 -1.4176 -0.7232
  221MOL0     H29108   7.390   7.353   3.456  4.1456  1.8087  1.3015
  221MOL0     H29109   7.655   7.218   3.671  4.3977  0.5555  0.4138
  221MOL0     H29110   7.498   7.321   3.641  0.3015  2.4253  1.4754
  221MOL0     H29111   7.757   7.462   3.662  0.3294  1.3023  0.0520
  221MOL0     H29112   7.696   7.396   3.814  1.3158 -0.0103 -1.3214
  221MOL0     H29113   7.483   7.533   3.783 -1.8848  1.4109 -1.9275
  221MOL0     H29114   7.523   7.566   3.620 -1.6577  1.5763  1.5782
  221MOL0     H29115   7.705   7.652   3.854  0.6316 -0.3041  0.4204
  221MOL0     H29116   7.717   7.701   3.688 -1.0395  2.9954  1.4264
  221MOL0     H29117   7.615   7.860   3.842  1.9797  0.3230 -2.5820
  221MOL0     H29118   7.478   7.752   3.883  0.2680  1.8481  1.7787
  221MOL0     H29119   7.406   7.939   3.732 -0.0603  1.4140 -1.5295
  221MOL0     H29120   7.406   7.787   3.627 -2.1973  0.7921  0.4122
  221MOL0     H29121   7.656   7.866   3.579 -1.1534 -2.4972  0.5635
  221MOL0     H29122   7.524   7.914   3.491 -1.4244 -2.7013  1.5543
  221MOL0     H29123   7.484   8.124   3.638  1.5822  1.9658 -1.0318
  221MOL0     H29124   7.623   8.121   3.529  0.5869 -2.1813 -0.8002
  221MOL0     H29125   7.529   8.142   3.898  1.1559  0.1548  1.6782
  221MOL0     H29126   7.687   8.289   4.068 -1.7601 -1.8889  2.4758
  221MOL0     H29127   7.843   8.206   4.108  0.3744 -2.5229  1.3659
  221MOL0     H29128   7.714   8.011   4.180 -1.9802 -1.2624  2.5969
  221MOL0     H29129   7.561   8.085   4.151 -0.1234  0.3576  1.0449
  221MOL0     H29130   7.687   8.098   4.383  1.9849 -1.2302 -2.4921
  221MOL0     H29131   7.751   8.251   4.330  0.0180  0.2184  1.8191
  221MOL0     H29132   7.550   8.285   4.457  0.4079  0.7153  0.2169
  221MOL0     H29133   7.466   8.182   4.341 -0.2066 -0.6909 -0.1373
  221MOL0     H29134   7.345   8.401   4.476 -1.9343 -0.6358  0.6632
  221MOL0     H29135   7.121   8.457   4.467  0.4250 -0.3442 -0.2931
  221MOL0     H29136   6.852   8.659   3.910  0.3415 -1.1226  0.8208
  221MOL0     H29137   6.617   8.680   3.822 -0.3720 -0.7035 -0.5491
  221MOL0     H29138   6.325   8.610   4.103 -3.3007  1.8666 -0.8603
  221MOL0     H29139   6.275   8.461   4.027  1.4889 -0.5071  0.5364
  221MOL0     H29140   6.215   8.719   3.894 -3.1018  1.5584 -0.4371
  221MOL0     H29141   6.116   8.682   4.035  0.1435 -2.7209  1.0262
  221MOL0     H29142   6.030   8.483   3.925  1.1957 -1.3851 -0.9529
  221MOL0     H29143   6.148   8.484   3.800 -1.1081 -0.9655  0.0496
  221MOL0     H29144   6.074   8.719   3.722 -1.7885  1.9510  0.7434
  221MOL0     H29145   5.957   8.576   3.689  0.2370 -1.9856  0.6973
  221MOL0     H29146   5.857   8.797   3.795 -2.4219  0.5095  2.6417
  221MOL0     H29147   5.980   8.782   3.923  1.4086 -0.5010 -0.2254
  221MOL0     H29148   5.777   8.719   4.019  0.4745  0.3895 -0.6266
  221MOL0     H29149   5.865   8.575   4.011 -1.7497 -0.6314  0.1043
  221MOL0     H29150   5.737   8.490   3.813 -0.4944 -0.8047  1.3140
  221MOL0     H29151   5.637   8.509   3.943  0.2117 -0.1936  0.9967
  221MOL0     H29152   5.641   8.675   3.688 -1.3554 -0.9633 -1.6502
  221MOL0     H29153   5.581   8.751   3.831 -0.5338  1.4172 -2.9777
  221MOL0     H29154   6.484   8.424   4.142 -0.8309  1.4040 -1.0275
  221MOL0     H29155   6.716   8.430   4.242  1.3760  1.9087 -0.5368
  221MOL0     H29156   7.167   8.505   4.033  0.2363 -1.4216 -0.5280
  221MOL0     H29157   7.384   8.439   4.046 -0.8071  0.3616 -0.9766
  221MOL0     H29158   7.761   7.181   3.326 -0.9080 -4.0465  1.3085
  221MOL0     H29159   7.657   7.079   3.136  0.4216 -0.0577  0.5892
  221MOL0     H29160   7.448   7.071   2.685 -1.6379 -0.2422 -1.8421
  221MOL0     H29161   7.325   6.965   2.532  1.8360 -0.7564  0.4979
  221MOL0     H29162   7.204   6.751   2.412 -0.6761 -0.3879 -0.9047
  221MOL0     H29163   7.157   6.923   2.414 -0.6522  0.8577  1.7129
  221MOL0     H29164   6.935   6.863   2.388  0.1805  0.0555 -1.8390
  221MOL0     H29165   7.019   6.785   2.262 -2.1883  1.3762 -0.7130
  221MOL0     H29166   6.846   6.624   2.371 -0.0697 -0.1317 -0.4173
  221MOL0     H29167   6.925   6.655   2.524  2.3690  1.5477  0.2947
  221MOL0     H29168   7.051   6.497   2.292  0.8747 -2.8873  0.0673
  221MOL0     H29169   7.137   6.545   2.443  0.9766  1.9552 -1.0519
  221MOL0     H29170   6.862   6.234   2.535 -2.9773 -0.0249 -2.6075
  221MOL0     H29171   7.046   6.823   2.834  0.2023 -0.5073 -0.2919
  221MOL0     H29172   7.172   6.941   3.000  0.2301  1.9514  0.8708
  222MOL0     O29173   7.393   7.167   1.878  0.2461  0.9177  0.3134
  222MOL0     C29174   7.456   7.155   1.780 -0.1233  0.6670  2.0230
  222MOL0     O29175   7.591   7.138   1.764 -1.1815 -0.2088  0.6634
  222MOL0     C29176   7.674   7.160   1.873 -0.4661  0.0630  0.5535
  222MOL0     C29177   7.665   7.097   2.000  0.2479 -0.1735 -0.3522
  222MOL0     C29178   7.771   7.118   2.096  0.7265  0.4425 -0.6143
  222MOL0     C29179   7.884   7.196   2.066  0.1234 -0.4058  0.4741
  222MOL0     O29180   7.980   7.231   2.150 -0.0375 -0.0532  0.4238
  222MOL0     C29181   7.997   7.146   2.260 -0.8101 -0.6367 -1.2848
  222MOL0     C29182   8.139   7.183   2.323 -0.3950 -0.3167 -0.4331
  222MOL0     C29183   8.147   7.149   2.468 -0.0081  0.2713 -0.3885
  222MOL0     C29184   8.172   7.002   2.484 -0.1623  0.3830 -0.7295
  222MOL0     C29185   8.201   6.961   2.629  0.4588 -0.7553  0.1789
  222MOL0     C29186   8.313   7.046   2.701  0.0265 -0.1145 -0.7752
  222MOL0     C29187   8.392   6.965   2.811 -0.3456  0.3976  0.7718
  222MOL0     C29188   8.474   6.851   2.758 -1.0809  0.2589 -0.5568
  222MOL0     N29189   8.596   6.832   2.839 -0.1506 -0.1103  0.4405
  222MOL0     C29190   8.615   6.779   2.965 -0.6763  0.2900  0.0296
  222MOL0     C29191   8.746   6.792   2.995  0.9426  0.2686 -0.4775
  222MOL0     C29192   8.813   6.751   3.126  0.4218 -0.1326  0.2683
  222MOL0     C29193   8.834   6.869   3.222  0.5655 -0.6360 -0.8561
  222MOL0     C29194   8.907   6.833   3.354  0.2527 -0.1838  1.0708
  222MOL0     C29195   9.062   6.814   3.325  0.0943 -0.0880 -0.0184
  222MOL0     O29196   9.144   6.923   3.375  0.1593 -0.5953  0.1686
  222MOL0     C29197   9.275   6.922   3.344 -0.8360 -0.0707  0.0563
  222MOL0     C29198   9.336   7.044   3.334  0.1544  0.2688 -0.3258
  222MOL0     C29199   9.473   7.058   3.287  1.2723  0.9498  0.2450
  222MOL0     C29200   9.547   6.949   3.249 -0.6960  0.9583 -0.0259
  222MOL0     C29201   9.676   6.954   3.198  0.2223  0.7265  0.8209
  222MOL0     O29202   9.723   7.077   3.154 -0.7505 -0.4987  0.2726
  222MOL0     C29203   9.852   7.068   3.119  0.7551 -0.4976  0.5806
  222MOL0     C29204   9.880   7.027   2.987 -0.3544  0.5806 -0.3480
  222MOL0     C29205  10.008   7.043   2.941  0.0010  1.0354 -0.4522
  222MOL0     C29206  10.108   7.105   3.012  0.4355  0.3878 -0.5937
  222MOL0     O29207  10.233   7.118   2.951  0.1045  0.4990  0.4198
  222MOL0     C29208  10.342   7.065   3.026  0.8977 -0.4499  0.7340
  222MOL0     C29209  10.472   7.095   2.957  0.6691  0.4847 -0.0297
  222MOL0     C29210  10.590   7.061   3.049 -0.4432  0.2559 -0.7344
  222MOL0     C29211  10.709   7.154   3.036  0.6286  0.4419  0.2237
  222MOL0     C29212  10.820   7.085   3.115 -0.1303  0.1647 -0.4728
  222MOL0     C29213  10.956   7.145   3.091 -1.3838 -0.1748 -0.0090
  222MOL0     C29214  11.001   7.253   3.186  1.0885  0.3166 -0.2976
  222MOL0     C29215  11.124   7.223   3.271  0.1517  0.1132 -0.4834
  222MOL0    Cl29216  11.089   7.091   3.371  0.2378  0.0925  0.1905
  222MOL0     C29217  10.082   7.157   3.136  0.5439  0.5242  0.0922
  222MOL0     C29218   9.956   7.125   3.200 -0.4478 -0.0518  0.7681
  222MOL0     O29219   9.737   6.844   3.187 -1.0773  0.0163  0.1071
  222MOL0     C29220   9.477   6.820   3.246 -0.3854  0.1860 -0.8757
  222MOL0     C29221   9.345   6.806   3.297 -0.2863 -0.8513  0.3618
  222MOL0     N29222   8.798   6.853   2.879 -0.0342  0.1265 -0.6868
  222MOL0     N29223   8.711   6.872   2.784 -0.4038  0.5647 -0.0754
  222MOL0     C29224   7.897   7.245   1.935  0.8635  0.2414  0.4145
  222MOL0     C29225   7.788   7.239   1.846  0.1382 -0.4424 -0.5811
  222MOL0     C29226   7.373   7.132   1.662 -0.6429  0.1600  0.5334
  222MOL0     C29227   7.429   7.110   1.532 -0.1216 -0.3394 -0.0244
  222MOL0     C29228   7.357   7.082   1.421 -0.2352  0.5926  0.3703
  222MOL0     C29229   7.216   7.073   1.422  0.0361 -0.5122  0.7757
  222MOL0     O29230   7.156   7.061   1.297 -0.5386  0.1939  0.4331
  222MOL0     C29231   7.012   7.064   1.278  0.0280  0.0756  0.5226
  222MOL0     C29232   6.985   6.984   1.154  0.3116  0.4184 -0.4163
  222MOL0     C29233   6.837   7.007   1.106  0.2507 -1.3233  0.4527
  222MOL0     C29234   6.723   7.003   1.208  0.6132  0.4881 -0.2663
  222MOL0     C29235   6.737   6.881   1.279 -1.0896  0.4849  0.8179
  222MOL0     C29236   6.762   6.786   1.346  0.5046 -1.2901 -0.0908
  222MOL0     C29237   7.153   7.085   1.545  0.2101 -0.3183  0.3904
  222MOL0     C29238   7.232   7.113   1.660  1.4418  0.2580 -0.3758
  222MOL0     H29239   7.579   7.032   2.009 -1.3143  1.9740  0.9686
  222MOL0     H29240   7.767   7.058   2.186  1.9804 -0.7104 -1.2908
  222MOL0     H29241   7.996   7.040   2.236 -2.6261 -1.0658  0.4125
  222MOL0     H29242   7.914   7.176   2.325  0.9203  1.2584  0.2335
  222MOL0     H29243   8.135   7.292   2.333 -3.5406 -0.2383 -1.3247
  222MOL0     H29244   8.221   7.142   2.263  1.0656 -1.3385  2.1275
  222MOL0     H29245   8.062   7.184   2.528  1.9372  1.0218  2.0961
  222MOL0     H29246   8.237   7.204   2.498  0.8251 -2.5516  2.8036
  222MOL0     H29247   8.081   6.945   2.460 -1.7592  1.7985  1.5512
  222MOL0     H29248   8.251   6.969   2.416  1.5216 -1.1347  1.8083
  222MOL0     H29249   8.236   6.857   2.625  2.0245 -0.2922  0.8036
  222MOL0     H29250   8.110   6.965   2.689 -0.6394 -2.2466 -1.2932
  222MOL0     H29251   8.269   7.140   2.738  0.5969  0.8348 -2.3827
  222MOL0     H29252   8.385   7.082   2.627 -0.0691 -0.8869 -1.2548
  222MOL0     H29253   8.462   7.026   2.867 -0.4399 -0.8166  2.2758
  222MOL0     H29254   8.318   6.925   2.882  0.4698 -3.2559 -0.2143
  222MOL0     H29255   8.509   6.859   2.654 -0.6331 -1.0845 -0.5207
  222MOL0     H29256   8.414   6.760   2.754  0.0394 -0.5033 -0.6685
  222MOL0     H29257   8.545   6.711   3.013  1.0753 -1.6714 -0.0345
  222MOL0     H29258   8.907   6.698   3.107  0.4209  0.2604 -0.9466
  222MOL0     H29259   8.745   6.679   3.171  0.3643 -1.7667 -2.2205
  222MOL0     H29260   8.743   6.918   3.258 -0.0670 -1.9855 -0.5612
  222MOL0     H29261   8.894   6.943   3.168  2.8703 -1.2310  0.7197
  222MOL0     H29262   8.891   6.911   3.429 -2.2703 -1.6486  2.1879
  222MOL0     H29263   8.870   6.736   3.390 -0.6688 -0.4758 -0.5449
  222MOL0     H29264   9.073   6.806   3.217 -1.0174 -2.1699 -0.0212
  222MOL0     H29265   9.101   6.723   3.370 -1.5006 -1.9672 -2.2239
  222MOL0     H29266   9.273   7.129   3.358  3.0895  2.4621  0.2632
  222MOL0     H29267   9.518   7.157   3.282  1.7758  0.6806 -2.4900
  222MOL0     H29268   9.800   6.974   2.937 -2.1039  0.5142  2.3483
  222MOL0     H29269  10.049   7.007   2.847  3.2515 -2.0914  1.9283
  222MOL0     H29270  10.335   6.956   3.034 -1.4955 -0.5149 -1.0820
  222MOL0     H29271  10.352   7.096   3.130  0.6252 -3.7465  1.8449
  222MOL0     H29272  10.476   7.204   2.949 -0.7776  0.4798 -1.3004
  222MOL0     H29273  10.480   7.043   2.861  0.7107 -0.6940  0.5969
  222MOL0     H29274  10.627   6.959   3.033  3.1022  0.9711  1.7800
  222MOL0     H29275  10.572   7.069   3.156  0.8014  0.4513 -0.5246
  222MOL0     H29276  10.735   7.171   2.931  0.7888  1.9142  0.4738
  222MOL0     H29277  10.694   7.254   3.077  0.0974  0.8219 -0.8371
  222MOL0     H29278  10.832   6.978   3.097 -0.6366 -0.4040  2.1534
  222MOL0     H29279  10.786   7.089   3.219 -0.7707 -1.3393 -0.6053
  222MOL0     H29280  10.934   7.198   2.999 -1.0105 -0.4926 -0.2819
  222MOL0     H29281  11.038   7.072   3.088 -1.4211 -0.2293  0.2171
  222MOL0     H29282  11.015   7.345   3.128  0.1641 -0.4729 -1.8238
  222MOL0     H29283  10.921   7.263   3.260  0.1066 -2.9997 -0.7827
  222MOL0     H29284  11.150   7.313   3.327  0.3825  0.3792 -1.0157
  222MOL0     H29285  11.205   7.192   3.204  1.5048 -0.2450  1.2688
  222MOL0     H29286  10.152   7.211   3.199  0.4388  1.2760 -0.4258
  222MOL0     H29287   9.924   7.138   3.303 -0.4034 -1.8770  1.0395
  222MOL0     H29288   9.522   6.725   3.219 -3.7666 -1.8907  0.1636
  222MOL0     H29289   9.297   6.708   3.303 -0.4572 -0.8018 -0.1595
  222MOL0     H29290   7.982   7.302   1.897  2.7582 -3.1478 -0.9327
  222MOL0     H29291   7.794   7.299   1.756 -0.9304  0.2061 -0.2477
  222MOL0     H29292   7.537   7.103   1.516 -0.0428 -0.7183  0.6435
  222MOL0     H29293   7.407   7.065   1.326  0.1793  3.1695  0.0423
  222MOL0     H29294   6.980   7.168   1.273 -0.8018  0.1415  4.3809
  222MOL0     H29295   6.966   7.015   1.364  0.8580 -2.4184 -0.3497
  222MOL0     H29296   7.052   7.008   1.071 -2.3607 -0.8846 -3.1531
  222MOL0     H29297   7.005   6.880   1.181  2.2158  1.2892  1.8365
  222MOL0     H29298   6.823   6.934   1.027 -0.1402  0.7775 -1.5281
  222MOL0     H29299   6.828   7.093   1.039  4.5554 -2.8766 -2.5895
  222MOL0     H29300   6.726   7.087   1.278  2.7241 -1.3843  2.0869
  222MOL0     H29301   6.624   7.005   1.162  0.0278 -0.7959  0.8411
  222MOL0     H29302   6.781   6.715   1.423 -1.8620 -1.9029  0.0006
  222MOL0     H29303   7.045   7.077   1.540  0.1760  0.1903  0.1824
  222MOL0     H29304   7.186   7.122   1.758  0.1437  0.7777 -1.0123
  223MOL0     O29305   9.315   9.719   8.602  0.1346  0.1186 -0.0195
  223MOL0     C29306   9.258   9.622   8.651  0.5240 -0.4103  0.5289
  223MOL0     O29307   9.305   9.494   8.654  0.0885  0.4688  0.4132
  223MOL0     C29308   9.420   9.471   8.591 -0.4222  0.0367 -0.0782
  223MOL0     C29309   9.409   9.383   8.474  0.2162  0.7422 -0.1928
  223MOL0     C29310   9.520   9.348   8.405 -0.1418  0.0327  0.6565
  223MOL0     C29311   9.641   9.371   8.459 -1.2976  0.3561  0.6979
  223MOL0     O29312   9.749   9.330   8.376  0.0840  0.4306  0.2362
  223MOL0     C29313   9.880   9.336   8.432 -0.2480  0.5925 -0.0575
  223MOL0     C29314   9.980   9.295   8.322 -0.0777  0.2504 -0.6043
  223MOL0     C29315   9.968   9.136   8.309  0.2941  0.0979 -0.4287
  223MOL0     C29316  10.011   9.087   8.168 -0.3695 -0.1224  0.1218
  223MOL0     C29317  10.009   8.938   8.166 -0.3684  0.1476 -0.3547
  223MOL0     C29318   9.869   8.883   8.145 -0.1203 -0.2128  0.0824
  223MOL0     C29319   9.841   8.755   8.221  0.4778  0.2644  1.1765
  223MOL0     C29320   9.692   8.709   8.192 -0.0624  0.3235 -0.2901
  223MOL0     N29321   9.652   8.597   8.288 -0.3312 -0.6513 -0.5888
  223MOL0     C29322   9.701   8.461   8.277 -0.1188 -0.9721 -0.0172
  223MOL0     C29323   9.642   8.396   8.388 -0.0165 -0.1186 -0.9174
  223MOL0     C29324   9.651   8.255   8.437 -0.4497 -0.1171  0.2749
  223MOL0     C29325   9.658   8.151   8.327 -0.4858  0.3798 -0.3412
  223MOL0     C29326   9.680   8.017   8.389  0.2306  0.4476  0.3461
  223MOL0     C29327   9.636   7.896   8.300 -0.1032  0.0293  0.4801
  223MOL0     O29328   9.492   7.883   8.286  0.3766  0.0835 -0.0757
  223MOL0     C29329   9.434   7.773   8.221  0.5110  0.4082  0.7104
  223MOL0     C29330   9.503   7.660   8.175  0.5433  1.0842 -0.1678
  223MOL0     C29331   9.449   7.564   8.090  0.4592 -0.2213 -0.4559
  223MOL0     C29332   9.321   7.584   8.041 -0.7849  0.4658 -0.5872
  223MOL0     C29333   9.272   7.498   7.937  0.9986  0.2635  0.0572
  223MOL0     O29334   9.139   7.467   7.945  0.1303 -0.2346  0.4469
  223MOL0     C29335   9.086   7.374   7.850  0.0218 -0.6884  0.8671
  223MOL0     C29336   9.017   7.264   7.905 -0.3335  1.4080  0.3036
  223MOL0     C29337   8.949   7.169   7.820  0.2160  0.0294 -0.6464
  223MOL0     C29338   8.928   7.200   7.687  0.1710  0.6882  0.3354
  223MOL0     O29339   8.855   7.115   7.610 -0.2363  0.3911  1.1006
  223MOL0     C29340   8.829   7.139   7.473 -0.3395 -0.0677 -0.3673
  223MOL0     C29341   8.799   7.015   7.390  0.5084  0.7572 -0.7042
  223MOL0     C29342   8.918   6.934   7.347 -1.0231  0.0453 -0.1275
  223MOL0     C29343   8.996   6.857   7.465 -0.6949 -0.6774  0.5420
  223MOL0     C29344   9.118   6.925   7.526  0.6248  0.0273  0.4492
  223MOL0     C29345   9.154   6.864   7.659  0.9725  0.6904  0.4219
  223MOL0     C29346   9.234   6.964   7.738 -0.1608  0.5727  0.2548
  223MOL0     C29347   9.283   6.906   7.866 -0.5224  0.1535 -0.6320
  223MOL0    Cl29348   9.373   7.048   7.930 -0.2058  0.0591 -0.1375
  223MOL0     C29349   9.003   7.303   7.631  0.0608  0.3552 -0.7598
  223MOL0     C29350   9.074   7.392   7.711  0.2274 -0.0436  0.3782
  223MOL0     O29351   9.351   7.443   7.863 -0.3233 -0.6680  0.6820
  223MOL0     C29352   9.251   7.693   8.079  0.6780 -0.5407 -0.2590
  223MOL0     C29353   9.302   7.785   8.171  0.4404 -0.5549  0.0542
  223MOL0     N29354   9.565   8.489   8.455 -0.0789 -0.3371 -0.0903
  223MOL0     N29355   9.566   8.603   8.392 -0.6614 -0.6542 -1.1341
  223MOL0     C29356   9.663   9.444   8.575  0.0410  0.1093 -0.1855
  223MOL0     C29357   9.551   9.497   8.642 -0.0516  0.1837  0.6384
  223MOL0     C29358   9.135   9.634   8.724 -0.6435  0.0056  0.0917
  223MOL0     C29359   9.098   9.541   8.829 -0.3424 -0.3948 -0.4694
  223MOL0     C29360   8.968   9.560   8.883  0.4340 -0.3866  0.1361
  223MOL0     C29361   8.883   9.661   8.835 -0.1251 -0.0596 -0.1291
  223MOL0     O29362   8.756   9.676   8.889 -0.0602  0.1417  0.6049
  223MOL0     C29363   8.668   9.565   8.880  0.9352 -0.0782  0.2820
  223MOL0     C29364   8.591   9.567   8.750 -0.1047  1.4688  0.3867
  223MOL0     C29365   8.520   9.692   8.717 -0.7383 -0.1946  0.1955
  223MOL0     C29366   8.497   9.705   8.568 -0.4400 -0.2933 -0.1867
  223MOL0     C29367   8.420   9.834   8.547  0.0588  1.4740 -0.2376
  223MOL0     C29368   8.341   9.923   8.539 -0.9258 -1.2332  0.4194
  223MOL0     C29369   8.926   9.749   8.743 -0.1828  0.4375  0.2711
  223MOL0     C29370   9.058   9.743   8.687  0.0606 -0.0434 -0.5950
  223MOL0     H29371   9.307   9.359   8.446 -0.2950  0.9391  1.4361
  223MOL0     H29372   9.517   9.296   8.310 -0.0228 -0.8453  1.1258
  223MOL0     H29373   9.891   9.264   8.513  1.6742  0.7441 -0.1427
  223MOL0     H29374   9.899   9.438   8.468  0.6382  0.6037 -0.5356
  223MOL0     H29375  10.082   9.330   8.340  0.7128 -1.9177 -0.5182
  223MOL0     H29376   9.946   9.347   8.232  1.1641  2.4639  0.1181
  223MOL0     H29377   9.866   9.113   8.340  0.9137  2.1316  3.7970
  223MOL0     H29378  10.021   9.084   8.389  2.2599  1.8471 -0.5346
  223MOL0     H29379   9.946   9.126   8.089 -0.8642 -2.5048 -0.7240
  223MOL0     H29380  10.113   9.123   8.147  0.1650 -2.3440 -1.4888
  223MOL0     H29381  10.056   8.907   8.260 -0.2453 -2.3825 -1.1800
  223MOL0     H29382  10.075   8.890   8.093 -0.0195 -4.0451  2.3873
  223MOL0     H29383   9.848   8.885   8.038  0.3205  2.0491 -0.0252
  223MOL0     H29384   9.799   8.957   8.185 -0.6043 -0.2954 -0.5925
  223MOL0     H29385   9.914   8.681   8.188 -1.6377 -1.7764  0.8288
  223MOL0     H29386   9.863   8.773   8.327  2.7591  5.8653  0.1027
  223MOL0     H29387   9.678   8.690   8.086 -2.6714 -1.7420  0.2976
  223MOL0     H29388   9.623   8.792   8.213  1.0819  1.2088  0.0949
  223MOL0     H29389   9.772   8.417   8.207 -0.9394  1.0559 -2.2477
  223MOL0     H29390   9.569   8.238   8.508 -0.3692 -4.1125 -0.3928
  223MOL0     H29391   9.746   8.251   8.491 -0.1044  1.0139 -0.2225
  223MOL0     H29392   9.740   8.172   8.257  1.5724  0.7415  2.0508
  223MOL0     H29393   9.560   8.161   8.279 -0.4045  2.7766 -0.1283
  223MOL0     H29394   9.782   8.004   8.427  0.2477 -1.8083 -0.2891
  223MOL0     H29395   9.607   8.015   8.471 -1.3725 -2.5968 -0.9750
  223MOL0     H29396   9.668   7.800   8.342 -3.0923 -1.5215 -0.5036
  223MOL0     H29397   9.684   7.904   8.202  4.6453  0.3186  2.5433
  223MOL0     H29398   9.605   7.635   8.203 -0.3244 -0.7903  1.5528
  223MOL0     H29399   9.513   7.479   8.063 -0.3594 -0.5332 -1.4856
  223MOL0     H29400   9.023   7.247   8.012 -1.2358  1.4296  0.3672
  223MOL0     H29401   8.901   7.085   7.869 -0.5591  1.6507  1.4997
  223MOL0     H29402   8.914   7.190   7.428  1.4488 -0.2243  2.5882
  223MOL0     H29403   8.745   7.209   7.471 -1.4064 -1.2193  1.2448
  223MOL0     H29404   8.740   7.033   7.300 -2.0509 -1.2859  0.4137
  223MOL0     H29405   8.732   6.952   7.450  2.6680 -2.5538 -1.4689
  223MOL0     H29406   8.992   6.993   7.292  0.7459 -0.8877  1.1484
  223MOL0     H29407   8.879   6.866   7.271 -0.4146  2.6031 -2.9043
  223MOL0     H29408   8.918   6.846   7.541 -3.7301 -1.5417 -2.4566
  223MOL0     H29409   9.023   6.754   7.441  2.1801 -0.0524  0.6838
  223MOL0     H29410   9.096   7.029   7.550  0.5554  0.4305 -1.2052
  223MOL0     H29411   9.208   6.923   7.464 -0.2847 -1.7311 -0.9205
  223MOL0     H29412   9.204   6.768   7.645 -0.8416 -0.4250  1.1921
  223MOL0     H29413   9.066   6.846   7.723  0.6884  0.0632 -0.1288
  223MOL0     H29414   9.306   6.995   7.662 -2.4731  4.2765 -0.6543
  223MOL0     H29415   9.186   7.060   7.759  2.7484  1.9404  1.0570
  223MOL0     H29416   9.336   6.816   7.831 -1.9549 -1.7185  1.7012
  223MOL0     H29417   9.200   6.878   7.931  1.0773 -2.1195  0.5633
  223MOL0     H29418   8.995   7.325   7.525  2.0234 -2.6162 -1.6505
  223MOL0     H29419   9.125   7.470   7.656 -0.4227  0.3371  0.3026
  223MOL0     H29420   9.155   7.723   8.038  1.1772  2.3186  0.4155
  223MOL0     H29421   9.246   7.873   8.199  0.8172 -0.0725 -0.6831
  223MOL0     H29422   9.762   9.451   8.618  0.4300  0.0467 -1.0475
  223MOL0     H29423   9.572   9.564   8.725 -1.0922  1.1941  0.1186
  223MOL0     H29424   9.159   9.459   8.867 -0.2837  0.7542  2.1112
  223MOL0     H29425   8.932   9.496   8.963  0.5441 -0.7464 -0.0961
  223MOL0     H29426   8.603   9.569   8.969  0.6683 -0.9383  0.1291
  223MOL0     H29427   8.718   9.469   8.886  0.3575 -0.5378 -1.6204
  223MOL0     H29428   8.665   9.555   8.671  0.4552  0.3038  1.0642
  223MOL0     H29429   8.524   9.481   8.753  2.4576 -0.6491  0.7224
  223MOL0     H29430   8.588   9.774   8.741  0.1503 -1.0921  0.8164
  223MOL0     H29431   8.424   9.704   8.767 -0.0367  1.4547  1.2309
  223MOL0     H29432   8.591   9.715   8.513 -0.6242 -3.3469 -1.2331
  223MOL0     H29433   8.446   9.613   8.537 -1.6637 -0.4071  1.9477
  223MOL0     H29434   8.269  10.002   8.534  1.9048  1.5867  0.8045
  223MOL0     H29435   8.854   9.818   8.701  0.5414  1.0545  0.0195
  223MOL0     H29436   9.101   9.814   8.616  0.6137  2.9510  2.4885
  224MOL0     O29437   4.216   5.557  11.054 -0.1708  0.0800  0.0850
  224MOL0     C29438   4.167   5.663  11.085  0.7998 -0.9765 -0.2035
  224MOL0     O29439   4.224   5.787  11.076 -0.2941  0.0647  0.3413
  224MOL0     C29440   4.356   5.802  11.055 -0.0943 -0.0694  0.0844
  224MOL0     C29441   4.380   5.927  11.003 -0.3014 -0.1506 -0.0301
  224MOL0     C29442   4.514   5.974  10.975 -0.8796  0.2689 -0.1761
  224MOL0     C29443   4.618   5.890  11.008  0.1971  0.1495  0.6339
  224MOL0     O29444   4.748   5.932  10.998  0.1319  0.9925  0.2362
  224MOL0     C29445   4.780   6.062  10.969  0.7749  0.5392 -0.2378
  224MOL0     C29446   4.929   6.096  10.996 -0.2469 -0.4500  0.8118
  224MOL0     C29447   4.971   6.050  11.138 -0.8003  0.4057  0.2454
  224MOL0     C29448   5.110   6.087  11.188  0.0392 -0.5147 -0.7091
  224MOL0     C29449   5.130   5.982  11.311  0.4134  0.1729  0.1106
  224MOL0     C29450   5.253   6.024  11.389  0.7454 -0.0300  0.3452
  224MOL0     C29451   5.285   5.931  11.511  0.0136 -0.0414  0.0440
  224MOL0     C29452   5.411   5.968  11.582 -0.0043 -0.3084  0.5135
  224MOL0     N29453   5.404   6.088  11.664  1.0046 -0.0455 -0.9549
  224MOL0     C29454   5.360   6.085  11.794 -0.4722  0.5779 -0.2077
  224MOL0     C29455   5.383   6.212  11.851  0.6614  0.5130 -0.2734
  224MOL0     C29456   5.357   6.266  11.982 -0.2978 -0.9131  0.2834
  224MOL0     C29457   5.214   6.315  11.971 -0.1144 -0.6468 -0.4510
  224MOL0     C29458   5.153   6.335  12.117  0.7053 -0.0957 -1.2629
  224MOL0     C29459   5.219   6.463  12.182 -1.2176 -0.9970 -0.0257
  224MOL0     O29460   5.168   6.575  12.111 -0.0868 -0.4055 -0.7130
  224MOL0     C29461   5.067   6.661  12.157 -1.2650 -0.4171 -0.1017
  224MOL0     C29462   5.029   6.770  12.072  0.3226 -0.7124 -0.1248
  224MOL0     C29463   4.914   6.850  12.092  0.1496  0.7801  0.5713
  224MOL0     C29464   4.851   6.822  12.218 -0.0448  0.0628 -0.1844
  224MOL0     C29465   4.732   6.897  12.253  0.1216  0.1098  0.5235
  224MOL0     O29466   4.665   6.961  12.146 -0.0531  0.7837  0.2997
  224MOL0     C29467   4.539   7.010  12.186 -0.4087 -0.2397  0.1456
  224MOL0     C29468   4.424   6.933  12.208 -0.6589  0.1892  0.5209
  224MOL0     C29469   4.309   6.986  12.259 -0.6381  0.0702  0.2675
  224MOL0     C29470   4.294   7.123  12.255 -0.5441 -0.3996 -0.4902
  224MOL0     O29471   4.174   7.179  12.292 -0.5093 -0.4902 -0.6773
  224MOL0     C29472   4.058   7.099  12.270 -0.9081  0.2015  0.0460
  224MOL0     C29473   3.938   7.195  12.281  0.0375  0.0965 -0.6822
  224MOL0     C29474   3.804   7.121  12.273  0.2284  0.6340 -0.0087
  224MOL0     C29475   3.686   7.227  12.253 -1.4943 -1.0269 -0.1622
  224MOL0     C29476   3.537   7.191  12.266 -0.6880 -0.4434 -0.2682
  224MOL0     C29477   3.498   7.082  12.169  0.5711 -0.1191 -1.1336
  224MOL0     C29478   3.354   7.097  12.119 -1.1265  0.7417 -0.4508
  224MOL0     C29479   3.335   6.972  12.033  0.2092  0.9060  0.1328
  224MOL0    Cl29480   3.188   6.996  11.955  0.0229 -0.7421 -0.4289
  224MOL0     C29481   4.412   7.210  12.250  0.2867  0.5693  0.3703
  224MOL0     C29482   4.531   7.151  12.203  0.1493  0.4106 -0.6755
  224MOL0     O29483   4.695   6.893  12.370 -0.2065  0.0201 -0.1300
  224MOL0     C29484   4.900   6.723  12.310 -0.1742 -0.9677  0.1502
  224MOL0     C29485   5.009   6.642  12.277  1.0787 -0.5091 -0.4160
  224MOL0     N29486   5.456   6.277  11.755  0.4130  0.6844  0.5442
  224MOL0     N29487   5.478   6.202  11.648 -0.2838 -0.7863 -0.6976
  224MOL0     C29488   4.590   5.759  11.042 -0.5039  0.7112 -0.3559
  224MOL0     C29489   4.464   5.711  11.071 -0.8865  0.0011  0.1356
  224MOL0     C29490   4.034   5.651  11.141 -0.3590  0.0160 -0.1863
  224MOL0     C29491   3.999   5.528  11.197 -0.2039  0.9128 -0.0306
  224MOL0     C29492   3.870   5.519  11.248 -0.2514 -0.0457  0.0312
  224MOL0     C29493   3.771   5.612  11.221  0.3223  0.6207 -0.1277
  224MOL0     O29494   3.637   5.572  11.253 -0.2166 -0.2949 -0.3074
  224MOL0     C29495   3.569   5.546  11.125  0.7872  0.5779 -0.0738
  224MOL0     C29496   3.488   5.415  11.133  0.3253  0.8905  0.5575
  224MOL0     C29497   3.583   5.299  11.180  0.8473  0.3893  0.6435
  224MOL0     C29498   3.496   5.174  11.187  0.3272 -0.1895  0.0864
  224MOL0     C29499   3.383   5.190  11.272 -0.0556  0.3382  0.8325
  224MOL0     C29500   3.287   5.198  11.336 -0.1470 -0.4001 -0.2675
  224MOL0     C29501   3.808   5.727  11.164  1.1066 -0.4316  0.2362
  224MOL0     C29502   3.937   5.759  11.132 -0.4929  0.5907  0.5170
  224MOL0     H29503   4.308   6.002  10.972  0.9442  1.0041 -0.2469
  224MOL0     H29504   4.526   6.078  10.948 -2.3007  0.0737 -1.7162
  224MOL0     H29505   4.728   6.128  11.040  0.8854 -0.1281  0.4762
  224MOL0     H29506   4.760   6.087  10.864  1.0902  0.6095 -0.2815
  224MOL0     H29507   4.945   6.204  10.986 -0.1084 -0.1038  3.8599
  224MOL0     H29508   4.991   6.047  10.921 -0.4619  0.1678  0.2241
  224MOL0     H29509   4.968   5.940  11.136 -2.4591  0.3355  2.3248
  224MOL0     H29510   4.901   6.090  11.212  1.4824  0.7998  2.3083
  224MOL0     H29511   5.178   6.068  11.104 -3.5682 -4.4076 -3.1452
  224MOL0     H29512   5.100   6.194  11.210 -3.1118 -0.9624  0.5116
  224MOL0     H29513   5.139   5.880  11.272 -3.5181 -0.7105  1.0710
  224MOL0     H29514   5.047   5.984  11.382 -0.5308  0.3579 -0.9691
  224MOL0     H29515   5.231   6.124  11.427 -3.8958 -1.0816  1.0195
  224MOL0     H29516   5.339   6.013  11.323  3.8199  0.2373  3.9296
  224MOL0     H29517   5.200   5.917  11.579 -0.4720 -0.9493 -0.7215
  224MOL0     H29518   5.313   5.832  11.473  6.1487  1.4709 -0.2904
  224MOL0     H29519   5.494   5.984  11.513 -0.1753  0.3983  0.4614
  224MOL0     H29520   5.447   5.889  11.648 -0.4422 -0.3830  0.6661
  224MOL0     H29521   5.320   6.001  11.849 -1.3476  2.1905  1.7392
  224MOL0     H29522   5.419   6.355  11.995  0.3183 -1.3372  0.3095
  224MOL0     H29523   5.361   6.197  12.067 -1.9267 -0.9238  0.3807
  224MOL0     H29524   5.157   6.236  11.920  0.4339 -3.0856  2.4317
  224MOL0     H29525   5.201   6.410  11.919  1.2929  0.1921  0.6583
  224MOL0     H29526   5.047   6.362  12.106  1.6973  5.1914 -0.8760
  224MOL0     H29527   5.162   6.249  12.184  0.6265  0.3219 -0.7089
  224MOL0     H29528   5.326   6.455  12.164 -0.7796 -1.1498  2.2780
  224MOL0     H29529   5.197   6.467  12.290  0.0478  4.5693  0.3459
  224MOL0     H29530   5.097   6.783  11.988 -1.0074  2.4386 -0.8523
  224MOL0     H29531   4.876   6.930  12.030 -0.8545  0.9817  1.4214
  224MOL0     H29532   4.432   6.826  12.192 -2.6250  0.0326  0.3731
  224MOL0     H29533   4.233   6.910  12.277  1.1800 -1.5314  1.5425
  224MOL0     H29534   4.056   7.021  12.348 -0.5253  0.4762  0.3365
  224MOL0     H29535   4.058   7.052  12.171 -1.6022  1.4973 -0.5909
  224MOL0     H29536   3.943   7.265  12.197  1.3178 -0.0157 -0.7219
  224MOL0     H29537   3.948   7.258  12.369  3.3076 -1.1290 -0.0473
  224MOL0     H29538   3.795   7.065  12.366  1.3405 -1.6019 -1.1690
  224MOL0     H29539   3.807   7.044  12.196 -0.0698 -1.5489  2.0454
  224MOL0     H29540   3.702   7.305  12.327 -2.4243 -1.9283  1.0204
  224MOL0     H29541   3.702   7.275  12.156  0.1147 -1.5509 -0.1782
  224MOL0     H29542   3.471   7.278  12.255 -0.7493 -0.6112 -1.2418
  224MOL0     H29543   3.525   7.150  12.367  0.3329 -1.0982 -0.4056
  224MOL0     H29544   3.503   6.990  12.228 -3.7893  1.3268  2.0267
  224MOL0     H29545   3.574   7.072  12.091  1.6599 -0.5464 -0.0616
  224MOL0     H29546   3.284   7.084  12.203  1.0742 -0.9045  1.2454
  224MOL0     H29547   3.330   7.180  12.052 -4.7727  0.2381  0.0263
  224MOL0     H29548   3.330   6.884  12.097 -0.8065  1.6366  1.0947
  224MOL0     H29549   3.417   6.969  11.961  1.4298 -1.7367  1.4919
  224MOL0     H29550   4.397   7.318  12.250 -4.2657  0.3328 -4.2864
  224MOL0     H29551   4.621   7.207  12.180 -0.6094  1.1046 -2.0853
  224MOL0     H29552   4.855   6.686  12.402  0.8679 -2.0493  0.2510
  224MOL0     H29553   5.057   6.574  12.347  0.2808 -1.4472 -0.7662
  224MOL0     H29554   4.669   5.687  11.065 -1.1191  0.8226  2.4634
  224MOL0     H29555   4.435   5.608  11.088 -0.3559 -0.7010 -2.7576
  224MOL0     H29556   4.071   5.450  11.218 -0.8361 -0.0017 -1.1467
  224MOL0     H29557   3.840   5.432  11.306 -0.5077  0.0596  0.0547
  224MOL0     H29558   3.641   5.542  11.042  1.6018 -0.7821  0.6610
  224MOL0     H29559   3.496   5.624  11.105 -1.2770 -0.8578  1.3610
  224MOL0     H29560   3.402   5.424  11.200 -2.0332 -2.4773 -1.6981
  224MOL0     H29561   3.452   5.379  11.037 -2.3320  0.7382  1.5406
  224MOL0     H29562   3.616   5.333  11.279 -0.6162  2.0827  0.6031
  224MOL0     H29563   3.667   5.291  11.110  0.3953  2.0886 -0.1594
  224MOL0     H29564   3.468   5.142  11.086 -0.3402  1.0587 -0.1485
  224MOL0     H29565   3.556   5.089  11.220  0.5663 -1.4177 -3.1338
  224MOL0     H29566   3.197   5.207  11.394 -0.8323  0.4829 -1.4163
  224MOL0     H29567   3.730   5.798  11.140  0.9012 -0.7193  0.0452
  224MOL0     H29568   3.973   5.849  11.083  2.5358 -1.1960 -0.7626
  225MOL0     O29569  10.382  10.538   0.288 -0.5941 -0.0959 -0.5346
  225MOL0     C29570  10.360  10.604   0.189  0.1161  0.8371  0.2510
  225MOL0     O29571  10.256  10.693   0.176 -0.9508 -0.2110 -0.0284
  225MOL0     C29572  10.171  10.724   0.279  0.5251  0.3496  0.1043
  225MOL0     C29573  10.140  10.641   0.396 -0.1961 -0.5920  0.7264
  225MOL0     C29574  10.029  10.669   0.478 -0.3407  0.3122  0.2941
  225MOL0     C29575   9.956  10.790   0.460  0.3390 -0.0788 -0.4147
  225MOL0     O29576   9.869  10.836   0.555 -0.6094 -1.1360 -0.2765
  225MOL0     C29577   9.862  10.774   0.686 -0.0293  0.6324  0.2467
  225MOL0     C29578   9.735  10.823   0.759  0.2972 -0.4244 -1.2240
  225MOL0     C29579   9.713  10.749   0.887  0.2419  0.7545  0.5936
  225MOL0     C29580   9.594  10.795   0.969 -0.6836  0.9077  0.0655
  225MOL0     C29581   9.609  10.716   1.103  0.4668  0.1229 -0.3015
  225MOL0     C29582   9.490  10.730   1.201  0.9559  1.0168 -0.1726
  225MOL0     C29583   9.350  10.674   1.156  0.8436 -0.7319  0.1046
  225MOL0     C29584   9.346  10.518   1.147 -0.2907  0.0737  0.0454
  225MOL0     N29585   9.391  10.451   1.268  0.1657 -0.3210 -0.3998
  225MOL0     C29586   9.366  10.485   1.396  0.6541 -0.0394 -1.2697
  225MOL0     C29587   9.443  10.402   1.468 -0.2760  0.1119  1.0390
  225MOL0     C29588   9.454  10.383   1.615 -0.0951  0.0377 -0.6304
  225MOL0     C29589   9.562  10.443   1.688 -0.1384 -1.2423  0.2416
  225MOL0     C29590   9.707  10.406   1.658 -0.7415  0.4271  0.5339
  225MOL0     C29591   9.730  10.257   1.701 -0.0290 -0.0697  0.8476
  225MOL0     O29592   9.861  10.213   1.673 -0.2503 -0.1596  0.1456
  225MOL0     C29593   9.881  10.144   1.554  0.5125  0.2329  0.6547
  225MOL0     C29594  10.012  10.081   1.542  0.0111 -1.1104  0.7102
  225MOL0     C29595  10.039  10.010   1.420 -0.3182 -0.0352  0.5198
  225MOL0     C29596   9.947  10.011   1.310 -0.4521  0.1410 -0.0812
  225MOL0     C29597   9.984   9.942   1.180  0.2728 -0.9425 -0.1265
  225MOL0     O29598  10.114   9.892   1.163 -0.6745 -0.2881 -0.3240
  225MOL0     C29599  10.143   9.820   1.048  0.4984 -1.1579  0.0926
  225MOL0     C29600  10.054   9.762   0.954  0.5381  0.3927  0.3923
  225MOL0     C29601  10.100   9.688   0.845 -0.2217 -0.5632  0.0369
  225MOL0     C29602  10.240   9.665   0.832 -0.3268 -0.6039 -0.0262
  225MOL0     O29603  10.279   9.586   0.728  0.9183 -0.5711 -0.4707
  225MOL0     C29604  10.327   9.455   0.761 -0.0292 -0.0617  0.1766
  225MOL0     C29605  10.299   9.369   0.636  0.8800 -0.4521 -0.0660
  225MOL0     C29606  10.368   9.235   0.647 -0.0648 -0.9630 -0.5164
  225MOL0     C29607  10.312   9.135   0.540 -0.1761 -0.3383 -1.4668
  225MOL0     C29608  10.390   8.999   0.549  0.3922  0.0117  0.2208
  225MOL0     C29609  10.332   8.901   0.444 -0.2901  0.5545  0.4506
  225MOL0     C29610  10.450   8.847   0.366  0.4705 -0.1694  0.3819
  225MOL0     C29611  10.426   8.723   0.280  0.2060 -0.6351  0.1593
  225MOL0    Cl29612  10.587   8.677   0.219 -0.1277 -0.0750 -0.0474
  225MOL0     C29613  10.323   9.694   0.943  0.7742 -0.3904 -0.6150
  225MOL0     C29614  10.279   9.782   1.049  0.1194 -0.5921  0.8266
  225MOL0     O29615   9.885   9.934   1.097 -0.2456 -0.5963 -0.7205
  225MOL0     C29616   9.821  10.067   1.334  0.5695 -0.2805  0.1907
  225MOL0     C29617   9.788  10.122   1.453 -1.2025  0.0878 -0.3688
  225MOL0     N29618   9.512  10.312   1.378 -0.7354  0.0648  0.4635
  225MOL0     N29619   9.481  10.354   1.257 -0.5141 -0.8138 -0.2781
  225MOL0     C29620   9.974  10.870   0.347 -0.5917  0.0249  0.1995
  225MOL0     C29621  10.075  10.832   0.255  0.1073  1.5440  0.1805
  225MOL0     C29622  10.456  10.591   0.079 -0.2373 -0.2705 -0.3375
  225MOL0     C29623  10.585  10.554   0.082 -0.7286  0.3187 -0.2120
  225MOL0     C29624  10.666  10.561  -0.035 -0.2071 -0.3114  0.4502
  225MOL0     C29625  10.630  10.620  -0.155  0.2945 -0.5689 -0.6568
  225MOL0     O29626  10.699  10.617  -0.271  0.7555 -0.8638  0.0659
  225MOL0     C29627  10.850  10.615  -0.274 -0.3942  0.5456  0.9605
  225MOL0     C29628  10.905  10.749  -0.244 -0.2215 -0.0771  0.1169
  225MOL0     C29629  11.052  10.742  -0.251 -0.1024  0.0053  0.1380
  225MOL0     C29630  11.123  10.706  -0.118  0.2199 -0.8703  0.0050
  225MOL0     C29631  11.163  10.566  -0.108  1.3180 -0.3168 -0.3400
  225MOL0     C29632  11.185  10.447  -0.109 -0.3822 -0.8820  0.3633
  225MOL0     C29633  10.496  10.660  -0.155 -0.5175  0.5934  0.1368
  225MOL0     C29634  10.418  10.645  -0.043  1.0013 -0.3705 -0.1751
  225MOL0     H29635  10.209  10.563   0.426  0.1682 -0.4352  0.2963
  225MOL0     H29636  10.011  10.605   0.563  0.2169 -2.0062 -1.2348
  225MOL0     H29637   9.954  10.795   0.742  0.7474 -2.3974  0.2833
  225MOL0     H29638   9.856  10.665   0.682 -1.3527  0.6457  1.3402
  225MOL0     H29639   9.645  10.822   0.695 -1.9902  2.8905  1.5889
  225MOL0     H29640   9.749  10.927   0.788 -1.8936 -0.5565  0.5980
  225MOL0     H29641   9.803  10.756   0.948  0.0767 -1.2977  1.1469
  225MOL0     H29642   9.706  10.645   0.853  1.0715  0.0502  2.4485
  225MOL0     H29643   9.582  10.904   0.978  2.6042  1.7711 -3.2815
  225MOL0     H29644   9.506  10.755   0.918  0.6345 -1.6410 -0.3966
  225MOL0     H29645   9.701  10.744   1.156 -2.0175  0.8177  4.1417
  225MOL0     H29646   9.618  10.610   1.080 -1.3724 -0.4433  1.3109
  225MOL0     H29647   9.479  10.838   1.213  1.8873  1.0512  0.5209
  225MOL0     H29648   9.525  10.689   1.296  2.5726 -0.1545 -1.2006
  225MOL0     H29649   9.269  10.714   1.218  2.1672  1.0691  0.7718
  225MOL0     H29650   9.333  10.718   1.058  2.8915 -1.6320 -0.7187
  225MOL0     H29651   9.407  10.478   1.065  0.2729  1.6654 -0.3513
  225MOL0     H29652   9.244  10.497   1.113 -0.2322  0.2742 -0.2582
  225MOL0     H29653   9.302  10.567   1.426  0.6943 -0.3969 -0.1660
  225MOL0     H29654   9.457  10.277   1.641  1.5821  0.0914 -0.4691
  225MOL0     H29655   9.361  10.426   1.653 -1.1561 -0.7868 -2.1974
  225MOL0     H29656   9.550  10.429   1.796  0.0034 -4.2989 -0.0515
  225MOL0     H29657   9.569  10.551   1.672  1.6878 -1.1314  1.4900
  225MOL0     H29658   9.728  10.430   1.554 -0.3149  1.2166  0.8003
  225MOL0     H29659   9.776  10.460   1.723  0.9262 -0.1677 -0.6780
  225MOL0     H29660   9.648  10.198   1.657 -0.6645  0.5534  1.1753
  225MOL0     H29661   9.717  10.251   1.810 -1.4092 -0.4290  0.6871
  225MOL0     H29662  10.077  10.098   1.628  1.0288 -0.2169 -0.2121
  225MOL0     H29663  10.135   9.968   1.394  0.0105  1.5546 -1.0894
  225MOL0     H29664   9.946   9.774   0.959  0.3022 -1.3005 -0.1822
  225MOL0     H29665  10.038   9.635   0.773  0.9142 -1.3588 -0.3719
  225MOL0     H29666  10.285   9.410   0.852 -1.7922  2.6093  0.8135
  225MOL0     H29667  10.435   9.468   0.764  0.1210  0.0815 -2.8034
  225MOL0     H29668  10.341   9.413   0.545 -1.4232  2.2711  0.0461
  225MOL0     H29669  10.191   9.358   0.623  0.7590  0.2762  0.2939
  225MOL0     H29670  10.375   9.187   0.745 -0.8246 -1.8926 -0.9007
  225MOL0     H29671  10.472   9.256   0.622 -0.3700  0.5299 -0.6276
  225MOL0     H29672  10.204   9.131   0.560 -0.1035  1.1231 -0.6269
  225MOL0     H29673  10.329   9.189   0.447  3.5934  1.5641  0.1175
  225MOL0     H29674  10.386   8.946   0.645  2.0931  1.3555  1.0717
  225MOL0     H29675  10.494   9.016   0.520  0.7948  1.0377  2.1338
  225MOL0     H29676  10.270   8.936   0.361 -0.9555 -3.1942 -0.8711
  225MOL0     H29677  10.284   8.815   0.492 -0.1531  1.0701  1.5391
  225MOL0     H29678  10.493   8.922   0.300  1.7676  1.7991  3.2994
  225MOL0     H29679  10.526   8.821   0.440  0.8716  0.2622  0.1290
  225MOL0     H29680  10.353   8.747   0.202 -0.3577 -0.3524  0.7655
  225MOL0     H29681  10.393   8.632   0.331 -2.7145  0.8086  1.1318
  225MOL0     H29682  10.424   9.659   0.926  2.0243  2.7484 -0.3149
  225MOL0     H29683  10.359   9.813   1.115  1.2145  0.6619 -0.9925
  225MOL0     H29684   9.745  10.068   1.256 -1.6751 -3.8620  2.0554
  225MOL0     H29685   9.682  10.146   1.451 -1.7278 -2.1053 -2.0532
  225MOL0     H29686   9.932  10.968   0.361  0.7083  1.1237 -2.7677
  225MOL0     H29687  10.083  10.897   0.169 -0.3494 -0.2407 -1.2896
  225MOL0     H29688  10.628  10.521   0.176  2.0290  2.4506 -0.6037
  225MOL0     H29689  10.766  10.519  -0.033 -0.4929 -1.1076 -0.8958
  225MOL0     H29690  10.892  10.575  -0.367  0.6336  0.4799  1.4418
  225MOL0     H29691  10.882  10.539  -0.202 -1.6638 -2.0563 -1.0531
  225MOL0     H29692  10.870  10.834  -0.303 -1.5130 -0.8162 -0.2256
  225MOL0     H29693  10.871  10.765  -0.141  3.1229  2.2655  1.0237
  225MOL0     H29694  11.085  10.840  -0.288  1.6699 -0.4396  0.4679
  225MOL0     H29695  11.087  10.664  -0.319 -1.7904 -1.6070  1.0138
  225MOL0     H29696  11.209  10.774  -0.115 -1.5750  1.6487 -1.3605
  225MOL0     H29697  11.057  10.733  -0.035  1.7052 -3.6176  2.2273
  225MOL0     H29698  11.206  10.344  -0.125  0.7395 -1.1525  3.1260
  225MOL0     H29699  10.467  10.705  -0.249  1.0122 -1.9536 -1.6951
  225MOL0     H29700  10.318  10.684  -0.058  0.4968 -1.9737 -1.2213
  226MOL0     O29701   5.814   5.555   7.272  0.3690  0.8212  0.2815
  226MOL0     C29702   5.767   5.497   7.365 -0.3950 -0.5103 -0.2454
  226MOL0     O29703   5.670   5.403   7.362 -0.1755  0.2307  0.2534
  226MOL0     C29704   5.605   5.387   7.247  0.7185 -0.2097  0.6815
  226MOL0     C29705   5.463   5.396   7.239  0.7446  0.7552 -0.0979
  226MOL0     C29706   5.397   5.377   7.114 -0.7227  0.6025 -0.8673
  226MOL0     C29707   5.461   5.347   6.993  0.6059 -0.5483  0.0287
  226MOL0     O29708   5.386   5.317   6.880 -0.0853  0.2197  1.2030
  226MOL0     C29709   5.306   5.435   6.846  0.0296  0.3609  0.0946
  226MOL0     C29710   5.289   5.450   6.692  0.0344  0.5999 -0.0621
  226MOL0     C29711   5.420   5.480   6.636 -0.4293 -0.2891 -0.4452
  226MOL0     C29712   5.408   5.555   6.498  0.1121 -0.2156 -0.8940
  226MOL0     C29713   5.332   5.493   6.389  1.6632 -0.3206  0.6129
  226MOL0     C29714   5.377   5.352   6.361 -0.5533  0.0735  0.6155
  226MOL0     C29715   5.336   5.304   6.228 -0.4383  0.3240  0.0400
  226MOL0     C29716   5.376   5.159   6.184 -0.2517 -0.1516 -0.2169
  226MOL0     N29717   5.315   5.052   6.257  0.6916 -1.5216 -0.3846
  226MOL0     C29718   5.354   4.995   6.370 -0.3686 -0.3807  0.5710
  226MOL0     C29719   5.245   4.920   6.418 -0.8993  0.3737  0.4025
  226MOL0     C29720   5.228   4.843   6.546  0.0504  0.1025  0.2055
  226MOL0     C29721   5.200   4.935   6.668 -0.3566  1.1333  0.1906
  226MOL0     C29722   5.055   4.965   6.678 -0.1600 -0.0578 -0.3495
  226MOL0     C29723   5.004   5.036   6.798  0.6992 -0.4545  0.1259
  226MOL0     O29724   5.048   4.972   6.924 -0.3568 -0.3751  0.1944
  226MOL0     C29725   5.040   5.045   7.034 -0.3345  1.3835  0.4244
  226MOL0     C29726   4.936   5.133   7.070 -0.6558 -0.0283  0.0567
  226MOL0     C29727   4.954   5.211   7.188  0.2636  0.3679  0.3944
  226MOL0     C29728   5.063   5.193   7.276  0.1692 -1.2046  0.1713
  226MOL0     C29729   5.085   5.277   7.394  0.6204  0.8830  0.1684
  226MOL0     O29730   4.986   5.359   7.424 -0.2545 -0.9195  0.0845
  226MOL0     C29731   5.003   5.416   7.544 -0.0364 -0.0876  0.0410
  226MOL0     C29732   4.989   5.344   7.666  0.2704 -0.0726  0.1514
  226MOL0     C29733   5.000   5.406   7.788  0.2379 -0.5822 -0.0288
  226MOL0     C29734   5.026   5.543   7.794  0.6628 -1.1188 -0.4760
  226MOL0     O29735   5.012   5.618   7.908  0.2324 -0.3685  0.2082
  226MOL0     C29736   5.070   5.572   8.034 -0.9598  0.8052  0.0919
  226MOL0     C29737   5.140   5.677   8.112  0.2814 -0.7017  0.4823
  226MOL0     C29738   5.217   5.599   8.227 -0.4326  0.5988 -0.4480
  226MOL0     C29739   5.290   5.703   8.315  0.2161 -0.6649 -0.2429
  226MOL0     C29740   5.354   5.653   8.446 -0.3047  0.4917  0.3569
  226MOL0     C29741   5.435   5.517   8.432  0.4879 -0.9157 -0.1787
  226MOL0     C29742   5.550   5.501   8.534  1.1920  0.5271 -0.9376
  226MOL0     C29743   5.512   5.417   8.648  0.3333 -0.6134 -0.5659
  226MOL0    Cl29744   5.652   5.411   8.756 -0.3789 -0.1906  0.6478
  226MOL0     C29745   5.029   5.614   7.675 -1.2030 -0.4064  0.6562
  226MOL0     C29746   5.020   5.553   7.547 -0.0296  0.0510 -0.0117
  226MOL0     O29747   5.194   5.274   7.439 -0.1130 -0.3369 -0.1542
  226MOL0     C29748   5.149   5.089   7.248  0.2989  0.2283  0.2990
  226MOL0     C29749   5.134   5.013   7.135 -1.0372  0.5798 -0.0493
  226MOL0     N29750   5.151   4.933   6.318  0.5107 -0.0070 -0.6544
  226MOL0     N29751   5.192   5.021   6.231  0.2345 -0.1855 -0.1062
  226MOL0     C29752   5.602   5.339   7.001  0.1376  0.6058 -0.1883
  226MOL0     C29753   5.671   5.351   7.128 -0.4638  0.3474 -0.0178
  226MOL0     C29754   5.799   5.548   7.502  0.2093  0.9837  0.1212
  226MOL0     C29755   5.871   5.668   7.530  0.8885  0.9118  0.0246
  226MOL0     C29756   5.917   5.705   7.659 -0.6543  0.0002 -0.1420
  226MOL0     C29757   5.880   5.619   7.770  0.2128  0.6651  0.3614
  226MOL0     O29758   5.905   5.650   7.906  0.3495 -1.0493 -0.8484
  226MOL0     C29759   5.898   5.546   8.005 -0.3070 -0.0556 -0.5028
  226MOL0     C29760   5.942   5.595   8.144 -0.2730  0.2344 -0.1238
  226MOL0     C29761   5.886   5.524   8.261 -0.2288 -0.5433 -0.2837
  226MOL0     C29762   5.876   5.371   8.248  0.7276 -0.8297 -0.0386
  226MOL0     C29763   5.842   5.322   8.377 -0.5834 -0.2751  0.2587
  226MOL0     C29764   5.820   5.259   8.478  0.3442  0.0719 -0.5186
  226MOL0     C29765   5.810   5.495   7.737 -0.0962 -0.0472  0.3230
  226MOL0     C29766   5.761   5.469   7.615 -0.2998  0.1218  0.0612
  226MOL0     H29767   5.397   5.422   7.321 -0.4076 -1.0231 -0.4027
  226MOL0     H29768   5.289   5.384   7.123 -0.4820  2.7746  1.6060
  226MOL0     H29769   5.343   5.531   6.884 -2.2314  1.1027  0.5320
  226MOL0     H29770   5.205   5.423   6.886 -1.4155  2.4204 -2.6078
  226MOL0     H29771   5.221   5.535   6.685  0.0847  0.6127 -0.3943
  226MOL0     H29772   5.249   5.357   6.649 -0.4032  0.3819  0.7697
  226MOL0     H29773   5.477   5.389   6.614 -1.7237 -1.1785 -0.2424
  226MOL0     H29774   5.485   5.548   6.692  1.4407 -0.1099 -2.6737
  226MOL0     H29775   5.365   5.655   6.504  1.3640  0.3516 -1.1918
  226MOL0     H29776   5.511   5.570   6.467  0.2858  0.4864 -0.0158
  226MOL0     H29777   5.349   5.557   6.303  2.5372  1.7889  2.2681
  226MOL0     H29778   5.227   5.486   6.418  1.3157  2.8003  0.3584
  226MOL0     H29779   5.337   5.292   6.444  0.6437 -0.0573  1.1142
  226MOL0     H29780   5.484   5.338   6.374 -0.4438  1.2823  1.0849
  226MOL0     H29781   5.228   5.306   6.217 -0.5256 -1.7315  0.0529
  226MOL0     H29782   5.377   5.375   6.156 -1.0524 -1.6963 -2.4124
  226MOL0     H29783   5.480   5.126   6.191 -0.4712 -0.5439  2.2298
  226MOL0     H29784   5.349   5.144   6.079  1.0145  0.9072 -0.7188
  226MOL0     H29785   5.448   5.028   6.414 -1.5838  2.5738  1.1983
  226MOL0     H29786   5.329   4.806   6.565  1.1851  1.6413 -2.3212
  226MOL0     H29787   5.155   4.761   6.544 -0.1527  0.2914 -0.1276
  226MOL0     H29788   5.254   5.026   6.639  2.4316 -0.8709 -1.3940
  226MOL0     H29789   5.236   4.899   6.764 -0.6934  0.8707  0.2222
  226MOL0     H29790   5.020   5.025   6.593  0.0111  0.6550  0.0771
  226MOL0     H29791   5.005   4.868   6.674  1.0176 -0.7339  0.8007
  226MOL0     H29792   4.895   5.028   6.789  0.6300 -1.3237  1.3999
  226MOL0     H29793   5.040   5.139   6.793 -1.7962  0.4423 -2.9552
  226MOL0     H29794   4.846   5.139   7.011 -0.4386 -1.9166 -0.5350
  226MOL0     H29795   4.880   5.282   7.223  0.8879  0.2589  2.0101
  226MOL0     H29796   4.972   5.236   7.670  1.0592 -0.3489 -2.3078
  226MOL0     H29797   4.996   5.347   7.878  1.8825  2.5676  2.3285
  226MOL0     H29798   5.143   5.493   8.014 -1.1812  0.9595 -1.4711
  226MOL0     H29799   4.978   5.539   8.083 -0.3416  1.5596  1.8127
  226MOL0     H29800   5.067   5.748   8.150 -2.1804 -2.7100 -0.2100
  226MOL0     H29801   5.215   5.733   8.055 -1.7990  1.5933 -0.1581
  226MOL0     H29802   5.293   5.528   8.191  0.2510  0.4077  1.2906
  226MOL0     H29803   5.146   5.542   8.288 -2.6550  2.4196 -1.1641
  226MOL0     H29804   5.380   5.742   8.265  1.3286 -2.4872  0.2659
  226MOL0     H29805   5.216   5.781   8.338 -0.0239 -1.0880  0.4229
  226MOL0     H29806   5.282   5.634   8.526 -0.7284  3.9495  0.9385
  226MOL0     H29807   5.416   5.734   8.486  0.0976 -0.8220  2.5798
  226MOL0     H29808   5.484   5.520   8.334 -0.4502 -0.4539 -0.6510
  226MOL0     H29809   5.368   5.431   8.433 -1.8990  0.7742  3.4950
  226MOL0     H29810   5.652   5.485   8.499  2.4303  0.9355  2.1203
  226MOL0     H29811   5.566   5.603   8.568  2.1345  0.4647 -1.1605
  226MOL0     H29812   5.490   5.319   8.605 -0.5114 -0.3082 -0.8349
  226MOL0     H29813   5.424   5.447   8.705  1.5648 -2.2900  2.4748
  226MOL0     H29814   5.056   5.719   7.668  0.9973 -1.0203 -2.4814
  226MOL0     H29815   5.004   5.601   7.451 -1.9383  1.5985  1.0075
  226MOL0     H29816   5.232   5.047   7.304  0.0762 -3.7699 -1.9735
  226MOL0     H29817   5.199   4.930   7.110 -3.2340 -0.3736 -3.0739
  226MOL0     H29818   5.650   5.311   6.907  1.5348 -2.5987  1.3199
  226MOL0     H29819   5.774   5.319   7.124  0.5244  1.9051  5.2330
  226MOL0     H29820   5.895   5.729   7.444  2.7395 -0.8674 -0.8046
  226MOL0     H29821   5.969   5.800   7.672  5.1153 -2.9840  1.7406
  226MOL0     H29822   5.956   5.463   7.965 -0.6385 -1.4928  1.8121
  226MOL0     H29823   5.794   5.514   8.016  0.0271 -0.8469  0.5174
  226MOL0     H29824   6.052   5.599   8.150 -0.2982  1.0971 -0.0267
  226MOL0     H29825   5.915   5.700   8.161  0.1623  0.2697  0.3843
  226MOL0     H29826   5.786   5.569   8.264 -0.7899 -1.7933  1.5002
  226MOL0     H29827   5.945   5.547   8.350 -0.6307 -0.0284 -0.1458
  226MOL0     H29828   5.794   5.346   8.180  1.2581 -0.2169 -0.9164
  226MOL0     H29829   5.967   5.321   8.213  0.7321  0.4512 -1.9601
  226MOL0     H29830   5.787   5.209   8.567  1.0581 -1.3376 -1.0133
  226MOL0     H29831   5.776   5.438   7.823 -0.5560  0.2032  0.3090
  226MOL0     H29832   5.705   5.377   7.601  1.8184 -1.3139  0.5305
  227MOL0     O29833   3.923   3.636   1.846 -0.2974 -0.3356  0.1741
  227MOL0     C29834   3.976   3.558   1.923  0.2507  0.8485 -0.3068
  227MOL0     O29835   4.002   3.430   1.899  0.0754 -0.2598  0.4064
  227MOL0     C29836   3.954   3.365   1.788 -1.0670  0.7103  0.4681
  227MOL0     C29837   3.820   3.361   1.759 -0.3264  0.8143 -0.1756
  227MOL0     C29838   3.773   3.306   1.634 -0.4064  0.9938  0.2004
  227MOL0     C29839   3.854   3.231   1.557  1.0987 -0.1761  0.4318
  227MOL0     O29840   3.800   3.174   1.445  0.0168 -0.5018  0.0889
  227MOL0     C29841   3.860   3.201   1.326 -0.5654  1.0782 -0.9838
  227MOL0     C29842   3.766   3.276   1.236 -0.3178 -0.3930  0.4108
  227MOL0     C29843   3.841   3.293   1.103  0.2745 -0.1388 -2.0839
  227MOL0     C29844   3.749   3.366   1.009 -0.0498  0.2515  0.7646
  227MOL0     C29845   3.805   3.346   0.867 -0.0722  0.5042 -1.2294
  227MOL0     C29846   3.759   3.449   0.764 -0.0362  0.7583 -0.5178
  227MOL0     C29847   3.608   3.451   0.737  0.3182 -0.0963 -0.2553
  227MOL0     C29848   3.555   3.315   0.690 -0.0916  0.0383 -0.0302
  227MOL0     N29849   3.612   3.292   0.556  0.5671 -0.4831 -0.1578
  227MOL0     C29850   3.725   3.222   0.527  0.1169  0.3672 -0.0719
  227MOL0     C29851   3.753   3.238   0.398 -0.6506 -0.0970  0.1549
  227MOL0     C29852   3.881   3.203   0.325 -0.3756 -0.7548 -0.8874
  227MOL0     C29853   4.001   3.277   0.389  0.5806  0.6190 -0.0456
  227MOL0     C29854   3.972   3.433   0.405 -0.3704  0.4620  1.0402
  227MOL0     C29855   3.940   3.502   0.266 -1.3087 -0.6029  0.0268
  227MOL0     O29856   4.025   3.444   0.157  1.2805  0.2833 -0.7659
  227MOL0     C29857   4.005   3.484   0.029  0.3512  0.0964 -0.7589
  227MOL0     C29858   3.889   3.533  -0.027  0.8236  0.1860 -0.8184
  227MOL0     C29859   3.883   3.573  -0.153  0.2943  0.3255  1.1949
  227MOL0     C29860   4.002   3.553  -0.235 -0.7337 -1.0245 -0.2352
  227MOL0     C29861   4.013   3.624  -0.361 -0.6262 -0.7690  0.6362
  227MOL0     O29862   4.135   3.616  -0.432 -0.0080  0.2129 -0.2434
  227MOL0     C29863   4.159   3.675  -0.553 -0.1244  0.3234  0.7472
  227MOL0     C29864   4.218   3.606  -0.653  0.1692 -0.2599  0.5903
  227MOL0     C29865   4.230   3.662  -0.784  0.4116 -0.1508 -1.0688
  227MOL0     C29866   4.193   3.800  -0.804  0.0486 -0.2110 -0.2087
  227MOL0     O29867   4.201   3.868  -0.923 -0.3688  0.1861 -0.2302
  227MOL0     C29868   4.332   3.911  -0.966  0.3972  0.1165 -0.5634
  227MOL0     C29869   4.299   4.052  -1.036  0.0653  0.0769 -0.9539
  227MOL0     C29870   4.288   4.030  -1.185  0.1349  0.0654 -0.4497
  227MOL0     C29871   4.317   4.152  -1.278 -0.6092 -0.6664  0.6945
  227MOL0     C29872   4.196   4.245  -1.277  0.1569  0.7796 -0.2255
  227MOL0     C29873   4.201   4.322  -1.401  0.9007 -0.4096  0.3728
  227MOL0     C29874   4.082   4.429  -1.413  0.0307 -0.4235  0.0541
  227MOL0     C29875   4.094   4.497  -1.547  0.1876  0.2001 -0.5815
  227MOL0    Cl29876   4.236   4.609  -1.559  0.0831  0.2925 -0.0078
  227MOL0     C29877   4.147   3.870  -0.694 -0.5158  0.2048 -0.6470
  227MOL0     C29878   4.118   3.809  -0.574 -0.7324  0.1738  0.2289
  227MOL0     O29879   3.916   3.693  -0.394  0.5697  0.3755 -0.5827
  227MOL0     C29880   4.120   3.509  -0.170  0.9002  0.6025  0.6925
  227MOL0     C29881   4.108   3.461  -0.049 -0.1943  0.8697 -0.6073
  227MOL0     N29882   3.653   3.320   0.346 -0.4151 -0.7859 -0.2505
  227MOL0     N29883   3.577   3.351   0.437  0.5994 -0.4099  0.4463
  227MOL0     C29884   3.992   3.226   1.594  0.0020  0.1332 -0.1935
  227MOL0     C29885   4.044   3.284   1.712 -0.3626 -0.1674 -0.4706
  227MOL0     C29886   4.008   3.598   2.066  0.7716  0.6278 -0.2072
  227MOL0     C29887   3.955   3.711   2.129  0.1165  0.6784 -0.0206
  227MOL0     C29888   4.001   3.749   2.256  0.4770 -1.1232 -1.1417
  227MOL0     C29889   4.090   3.666   2.324 -0.9935  0.1499 -0.1756
  227MOL0     O29890   4.141   3.695   2.450  0.0433  0.3802  0.3606
  227MOL0     C29891   4.143   3.819   2.509  0.5334  0.0712 -1.0915
  227MOL0     C29892   4.026   3.811   2.599 -0.1363 -0.4192  0.2484
  227MOL0     C29893   4.017   3.940   2.697  0.1503 -0.2031  0.0827
  227MOL0     C29894   3.889   3.944   2.773 -0.1855  0.0100 -0.8423
  227MOL0     C29895   3.771   3.965   2.692 -1.0164 -0.4327  0.5702
  227MOL0     C29896   3.673   3.984   2.622  0.3860 -0.5996  0.5131
  227MOL0     C29897   4.137   3.549   2.269 -0.1669  0.1968  1.2323
  227MOL0     C29898   4.104   3.514   2.132  0.3376 -0.3605 -0.3772
  227MOL0     H29899   3.754   3.406   1.832  0.5269  0.0199  1.1217
  227MOL0     H29900   3.669   3.302   1.604 -0.6718 -0.6047  1.1864
  227MOL0     H29901   3.878   3.106   1.275 -2.6107 -0.4624  0.9740
  227MOL0     H29902   3.957   3.246   1.349  0.2576 -0.8207 -0.5346
  227MOL0     H29903   3.736   3.371   1.281 -2.2918 -0.2772 -1.0506
  227MOL0     H29904   3.677   3.214   1.224 -2.9103  3.0724  0.3902
  227MOL0     H29905   3.873   3.199   1.057  1.8729  1.2055 -3.9297
  227MOL0     H29906   3.938   3.342   1.110 -0.3468  0.9069  0.4833
  227MOL0     H29907   3.649   3.324   1.023  1.0012 -1.3274  5.2928
  227MOL0     H29908   3.736   3.471   1.036 -4.0954 -0.2352  1.3347
  227MOL0     H29909   3.780   3.244   0.837  0.5465  0.1121 -0.4322
  227MOL0     H29910   3.914   3.350   0.864  0.2045 -2.0570  1.3842
  227MOL0     H29911   3.824   3.431   0.678  1.7913  0.1725  0.9080
  227MOL0     H29912   3.794   3.548   0.797  0.4612  1.0310 -1.7959
  227MOL0     H29913   3.550   3.487   0.822 -0.3097 -0.8006 -0.3808
  227MOL0     H29914   3.599   3.517   0.650 -0.1434 -3.1685 -2.7143
  227MOL0     H29915   3.447   3.317   0.678  0.0607  1.6516 -1.5070
  227MOL0     H29916   3.568   3.245   0.773  1.0198  0.7177  0.4046
  227MOL0     H29917   3.788   3.170   0.598 -3.7808 -4.2453  0.4679
  227MOL0     H29918   3.877   3.226   0.218  1.2546  3.6427 -0.2166
  227MOL0     H29919   3.903   3.097   0.340 -2.4795 -0.9208  2.0083
  227MOL0     H29920   4.074   3.259   0.310  0.7393  2.2541 -0.2991
  227MOL0     H29921   4.034   3.226   0.480  3.0748  2.5396  0.2421
  227MOL0     H29922   3.893   3.459   0.476 -3.1885 -0.4162 -1.5293
  227MOL0     H29923   4.067   3.475   0.440 -0.6099  0.8312  1.2571
  227MOL0     H29924   3.943   3.612   0.263 -2.3251 -0.5695 -2.4698
  227MOL0     H29925   3.835   3.479   0.243 -0.9287 -0.4268 -2.0763
  227MOL0     H29926   3.802   3.531   0.039 -0.0526 -2.8431 -1.9274
  227MOL0     H29927   3.798   3.626  -0.195 -1.0020 -1.9918  0.7263
  227MOL0     H29928   4.255   3.506  -0.633  1.4848  0.0018 -0.4438
  227MOL0     H29929   4.263   3.607  -0.872  0.0436 -0.4845 -1.0050
  227MOL0     H29930   4.381   3.833  -1.025 -1.2460 -0.5683 -1.0787
  227MOL0     H29931   4.395   3.923  -0.878 -0.0186 -0.5013 -0.1769
  227MOL0     H29932   4.387   4.113  -1.015  0.0376 -0.1684 -0.0433
  227MOL0     H29933   4.210   4.103  -0.996 -0.7072 -2.7741  1.3745
  227MOL0     H29934   4.189   3.997  -1.219 -1.5008  2.6942  1.3676
  227MOL0     H29935   4.364   3.957  -1.214 -2.8787 -2.1867 -3.5190
  227MOL0     H29936   4.407   4.204  -1.242 -1.0908  2.3783 -2.0249
  227MOL0     H29937   4.342   4.117  -1.378 -0.8586 -1.6507  0.9682
  227MOL0     H29938   4.199   4.324  -1.201  2.1339  3.6392 -3.0066
  227MOL0     H29939   4.104   4.187  -1.269 -0.1491  1.1800 -0.7782
  227MOL0     H29940   4.202   4.259  -1.491  0.6361 -2.3235  1.6720
  227MOL0     H29941   4.298   4.371  -1.415  2.1211 -2.1792  2.1098
  227MOL0     H29942   3.988   4.377  -1.391 -0.3348 -0.5638 -1.6790
  227MOL0     H29943   4.105   4.501  -1.334  1.1066 -0.7862  0.0867
  227MOL0     H29944   4.001   4.550  -1.569 -0.1466  0.6624  1.6309
  227MOL0     H29945   4.106   4.413  -1.617  0.7246 -1.4740  1.4006
  227MOL0     H29946   4.138   3.978  -0.692 -1.8889  0.1078 -0.6794
  227MOL0     H29947   4.069   3.875  -0.503 -0.9884  1.4811 -1.1213
  227MOL0     H29948   4.217   3.507  -0.218  2.1257  2.1087  2.9661
  227MOL0     H29949   4.205   3.434  -0.007  0.3446  2.1654 -0.9429
  227MOL0     H29950   4.058   3.161   1.537 -1.0052 -0.6754 -0.4777
  227MOL0     H29951   4.152   3.276   1.725 -0.5629 -2.5903  0.1846
  227MOL0     H29952   3.880   3.777   2.088 -1.1338 -0.4117  0.4615
  227MOL0     H29953   3.959   3.836   2.306 -3.8481 -2.0024 -2.8665
  227MOL0     H29954   4.133   3.903   2.439 -1.4648  0.3656 -0.5123
  227MOL0     H29955   4.226   3.834   2.580 -2.6688 -1.6562  3.4786
  227MOL0     H29956   3.934   3.788   2.545 -0.1185 -0.5333  0.2656
  227MOL0     H29957   4.044   3.735   2.675 -0.1158  1.7592  2.5516
  227MOL0     H29958   4.026   4.037   2.647  2.5150 -0.8434 -0.8687
  227MOL0     H29959   4.110   3.940   2.755 -0.5316 -0.0363  1.2116
  227MOL0     H29960   3.880   3.859   2.841  3.0315 -0.0552 -0.3375
  227MOL0     H29961   3.903   4.035   2.832 -1.2922  0.2871 -0.9744
  227MOL0     H29962   3.593   3.986   2.550  0.5613  1.5207  0.3075
  227MOL0     H29963   4.198   3.481   2.329 -0.3251  0.3637  1.5853
  227MOL0     H29964   4.159   3.429   2.095  0.8134 -1.7918  3.2505
  228MOL0     O29965   3.008   5.905   9.545  0.1178  0.0015  1.0426
  228MOL0     C29966   2.913   5.920   9.613  1.1998  0.3195  0.5618
  228MOL0     O29967   2.787   5.947   9.573  0.5436  0.5931  0.8330
  228MOL0     C29968   2.753   5.948   9.438 -0.7604  0.6219  0.5864
  228MOL0     C29969   2.709   6.072   9.390 -0.0587  0.4759  0.4720
  228MOL0     C29970   2.668   6.081   9.259  0.8276 -0.3318  1.4569
  228MOL0     C29971   2.658   5.967   9.176 -0.0971  0.7181 -0.5175
  228MOL0     O29972   2.625   5.989   9.047  0.1043 -0.2997  0.1445
  228MOL0     C29973   2.640   5.903   8.941 -0.6752 -0.2073 -0.1116
  228MOL0     C29974   2.505   5.914   8.878  0.6083  0.7030 -0.2016
  228MOL0     C29975   2.460   6.058   8.848  0.0467  0.7795 -0.2586
  228MOL0     C29976   2.332   6.066   8.764 -0.5886  0.0341 -0.2061
  228MOL0     C29977   2.261   6.188   8.818 -0.1976  0.8661 -0.1459
  228MOL0     C29978   2.139   6.243   8.732  0.5409  1.5362 -0.0746
  228MOL0     C29979   2.178   6.330   8.614  0.2046 -0.4942  0.7786
  228MOL0     C29980   2.062   6.379   8.532 -1.2497  0.7483 -0.0062
  228MOL0     N29981   2.093   6.440   8.400 -0.4960 -0.9805 -0.0574
  228MOL0     C29982   2.116   6.375   8.281 -0.1062  1.0553  0.1995
  228MOL0     C29983   2.128   6.473   8.182  0.7998 -0.1976 -0.4035
  228MOL0     C29984   2.156   6.431   8.040  0.3289 -0.5003 -0.3636
  228MOL0     C29985   2.077   6.320   7.976  0.1586  0.5310 -0.6768
  228MOL0     C29986   2.083   6.323   7.818 -0.2383  0.8646 -1.1800
  228MOL0     C29987   2.005   6.214   7.746 -0.0991  0.0766 -0.3422
  228MOL0     O29988   1.862   6.211   7.777 -0.0229 -0.2956  0.2016
  228MOL0     C29989   1.790   6.115   7.707 -0.1044  0.6504 -0.8847
  228MOL0     C29990   1.845   6.009   7.629 -0.5015  0.4310 -0.4164
  228MOL0     C29991   1.751   5.939   7.550 -0.4261  0.2842  0.1489
  228MOL0     C29992   1.624   5.994   7.521  0.4770 -0.0305  0.0530
  228MOL0     C29993   1.526   5.939   7.429 -0.9920  1.0860  0.2612
  228MOL0     O29994   1.390   5.945   7.443  0.2506  0.3557  0.0196
  228MOL0     C29995   1.295   5.918   7.340 -0.1514 -0.3310 -0.3190
  228MOL0     C29996   1.163   5.910   7.388  0.6556 -0.3148 -0.2968
  228MOL0     C29997   1.051   5.895   7.300  0.0777 -0.2567  1.3866
  228MOL0     C29998   1.072   5.863   7.167  1.3092  0.2260 -0.2035
  228MOL0     O29999   0.968   5.849   7.085  0.2210  0.3842  1.3137
  228MOL0     C30000   0.894   5.968   7.058  0.2829 -0.4853  0.3952
  228MOL0     C30001   0.919   5.991   6.910 -0.0463  0.6804 -0.3441
  228MOL0     C30002   1.038   6.058   6.863  0.0835  1.0938 -0.0739
  228MOL0     C30003   1.030   6.208   6.899  0.7621 -0.0049  0.5608
  228MOL0     C30004   1.160   6.272   6.851  0.1017 -0.0634 -0.8731
  228MOL0     C30005   1.189   6.402   6.934  1.1166 -1.0322 -0.4395
  228MOL0     C30006   1.318   6.461   6.890 -0.0067 -0.8353 -0.6544
  228MOL0     C30007   1.351   6.574   6.985  0.4235  0.1355  0.0862
  228MOL0    Cl30008   1.514   6.629   6.959  0.4878  0.5496 -0.0214
  228MOL0     C30009   1.202   5.865   7.121  0.4989 -0.3904 -0.2410
  228MOL0     C30010   1.317   5.898   7.203 -1.7759 -0.1701  0.3100
  228MOL0     O30011   1.577   5.901   7.328  0.7263 -0.4619  0.3301
  228MOL0     C30012   1.570   6.093   7.609  0.7219  0.1511  0.8172
  228MOL0     C30013   1.655   6.156   7.699  0.6258 -1.1409 -0.7876
  228MOL0     N30014   2.103   6.596   8.248 -0.1669  0.1553  0.5491
  228MOL0     N30015   2.082   6.578   8.374 -0.1025  0.8706 -0.2494
  228MOL0     C30016   2.697   5.839   9.230  0.6247 -0.6736  0.3504
  228MOL0     C30017   2.751   5.831   9.365  0.0247  0.0323 -0.8069
  228MOL0     C30018   2.941   5.915   9.760  0.6012 -0.7743 -0.4594
  228MOL0     C30019   3.046   5.833   9.806  0.0870 -0.7434 -0.2191
  228MOL0     C30020   3.070   5.837   9.949  0.2192  0.7157  0.6714
  228MOL0     C30021   2.996   5.927  10.037  0.0256  0.1514  0.3902
  228MOL0     O30022   3.025   5.946  10.169  1.0861 -0.1002  0.2504
  228MOL0     C30023   3.118   5.855  10.228  1.1889 -0.3298 -0.1600
  228MOL0     C30024   3.115   5.878  10.381 -0.5157  0.3825 -0.1733
  228MOL0     C30025   3.234   5.807  10.445  1.0077 -0.6281  0.3917
  228MOL0     C30026   3.232   5.824  10.594 -0.1195  0.5345  0.2140
  228MOL0     C30027   3.316   5.728  10.661 -1.0033 -0.3188 -0.4765
  228MOL0     C30028   3.384   5.666  10.738  0.0493 -0.3226 -1.0632
  228MOL0     C30029   2.884   5.998   9.982 -0.7960 -0.1889  0.2916
  228MOL0     C30030   2.861   5.994   9.845  0.9397  0.6300  0.4347
  228MOL0     H30031   2.696   6.159   9.454  0.9673  0.5934  0.5382
  228MOL0     H30032   2.626   6.173   9.219 -2.8337 -3.2594 -2.3380
  228MOL0     H30033   2.664   5.799   8.965  0.0405  0.0744  0.4122
  228MOL0     H30034   2.717   5.948   8.877 -0.2152 -1.6339 -0.5965
  228MOL0     H30035   2.432   5.853   8.933  0.1438  1.1629 -0.2976
  228MOL0     H30036   2.503   5.856   8.785 -1.8789 -0.3527  0.4152
  228MOL0     H30037   2.540   6.111   8.796  0.6559 -1.5456 -1.8438
  228MOL0     H30038   2.453   6.113   8.942  2.9177  1.4102 -0.3247
  228MOL0     H30039   2.359   6.082   8.659  1.5687  1.6756  0.5123
  228MOL0     H30040   2.268   5.978   8.776 -0.2459 -0.1733  0.1437
  228MOL0     H30041   2.325   6.277   8.820  1.1947 -0.0997 -0.3796
  228MOL0     H30042   2.235   6.175   8.924  1.3997 -0.7145  0.0951
  228MOL0     H30043   2.060   6.294   8.789 -1.4455 -1.9849  0.6433
  228MOL0     H30044   2.102   6.148   8.693  0.9481  1.3870 -0.1010
  228MOL0     H30045   2.236   6.420   8.636 -0.7392  0.6734 -1.1531
  228MOL0     H30046   2.236   6.252   8.564  2.1118 -0.4761  2.8705
  228MOL0     H30047   2.010   6.461   8.583 -1.1464 -0.5084  2.2417
  228MOL0     H30048   1.993   6.295   8.520  0.8922 -0.7624 -2.7657
  228MOL0     H30049   2.131   6.270   8.259 -1.3705  0.8601  0.1886
  228MOL0     H30050   2.263   6.407   8.046 -0.0604 -3.0543 -2.2348
  228MOL0     H30051   2.139   6.520   7.978  0.9664 -0.0230  0.1232
  228MOL0     H30052   1.972   6.336   8.002  0.1310 -1.4300  0.6112
  228MOL0     H30053   2.097   6.223   8.023  0.7856  1.7681  1.7659
  228MOL0     H30054   2.051   6.423   7.788  1.1286  1.0484 -2.1046
  228MOL0     H30055   2.186   6.307   7.782 -0.2702 -1.7617 -0.3478
  228MOL0     H30056   2.043   6.114   7.768 -4.2399 -2.0543 -1.7864
  228MOL0     H30057   2.030   6.232   7.641 -0.5436  4.3296  0.0975
  228MOL0     H30058   1.951   5.985   7.629 -0.2421  0.9156  3.2812
  228MOL0     H30059   1.783   5.858   7.485 -2.4594 -1.4321  1.1700
  228MOL0     H30060   1.152   5.927   7.495 -0.8035 -1.3832 -0.2410
  228MOL0     H30061   0.948   5.914   7.328 -0.7994  2.7771 -2.8603
  228MOL0     H30062   0.927   6.048   7.126  0.1911 -0.8745  0.9077
  228MOL0     H30063   0.794   5.930   7.081  0.7749 -2.0438  0.0413
  228MOL0     H30064   0.825   6.036   6.876  1.0535  1.0006 -3.3245
  228MOL0     H30065   0.922   5.891   6.866 -0.5589  1.7051 -2.8954
  228MOL0     H30066   1.053   6.046   6.755  1.7133 -0.1094  0.2438
  228MOL0     H30067   1.125   6.012   6.910 -0.7472  0.4542  0.8819
  228MOL0     H30068   0.949   6.256   6.844 -1.0778 -2.7907  0.6542
  228MOL0     H30069   1.008   6.221   7.005 -3.8991 -0.7194 -0.1394
  228MOL0     H30070   1.151   6.294   6.745  0.4956 -0.1739 -0.9328
  228MOL0     H30071   1.251   6.213   6.871  1.5569  1.7299 -1.9275
  228MOL0     H30072   1.180   6.380   7.040  0.1370  2.5818  0.3575
  228MOL0     H30073   1.118   6.483   6.913  2.2321 -0.1474 -0.8643
  228MOL0     H30074   1.402   6.392   6.884 -0.5909 -1.5505 -0.7201
  228MOL0     H30075   1.299   6.490   6.786  0.3243 -3.0196 -1.3705
  228MOL0     H30076   1.342   6.540   7.089 -1.6778  4.9161  1.7620
  228MOL0     H30077   1.281   6.655   6.964  0.9230  0.2373 -1.2541
  228MOL0     H30078   1.227   5.838   7.019  0.8354 -4.6283  0.7701
  228MOL0     H30079   1.414   5.877   7.160 -1.8102  1.3168 -0.5585
  228MOL0     H30080   1.466   6.125   7.603  1.2686  1.8498 -3.2729
  228MOL0     H30081   1.624   6.239   7.761 -0.2817 -2.8582  1.1699
  228MOL0     H30082   2.671   5.746   9.180 -2.0664 -1.5783  3.1025
  228MOL0     H30083   2.759   5.738   9.421  0.7115  1.2048  1.1507
  228MOL0     H30084   3.117   5.772   9.751  0.5826 -2.5417  2.2502
  228MOL0     H30085   3.147   5.772   9.989 -0.7506  0.2495  1.8352
  228MOL0     H30086   3.218   5.872  10.187  0.8603 -2.3533 -1.9440
  228MOL0     H30087   3.084   5.753  10.206 -0.4062  0.6490 -2.7818
  228MOL0     H30088   3.111   5.987  10.391 -0.4256  0.4423 -0.7251
  228MOL0     H30089   3.021   5.852  10.431 -1.0792 -0.7479 -1.7336
  228MOL0     H30090   3.330   5.840  10.405  1.4410 -3.7140 -1.4674
  228MOL0     H30091   3.225   5.699  10.427 -0.5347 -0.4543 -0.0049
  228MOL0     H30092   3.264   5.923  10.626  2.4167 -0.0577 -0.3100
  228MOL0     H30093   3.132   5.811  10.638  0.2298 -3.0068  0.2267
  228MOL0     H30094   3.453   5.609  10.798  1.3975  1.2358 -1.0514
  228MOL0     H30095   2.834   6.072  10.044 -1.2101 -0.7684  0.6606
  228MOL0     H30096   2.781   6.054   9.802  2.4649  0.0361 -3.7207
  229MOL0     O30097   0.337   6.169   0.353  0.4038  0.0123  0.3458
  229MOL0     C30098   0.350   6.277   0.301  0.4571 -0.6687 -0.6941
  229MOL0     O30099   0.259   6.340   0.226  0.1738  0.6356  0.4396
  229MOL0     C30100   0.164   6.272   0.160  0.3177 -0.3206  0.5325
  229MOL0     C30101   0.198   6.171   0.071  0.6696 -0.4759 -0.4196
  229MOL0     C30102   0.088   6.091   0.028 -0.1987 -0.0233 -0.0429
  229MOL0     C30103  -0.049   6.120   0.051 -0.6272 -0.4828  0.2767
  229MOL0     O30104  -0.136   6.030  -0.008  0.1302  0.0616 -0.9250
  229MOL0     C30105  -0.277   6.070  -0.038 -0.3111 -0.1628 -0.0213
  229MOL0     C30106  -0.317   6.010  -0.172  0.1063 -0.1903 -0.2280
  229MOL0     C30107  -0.345   5.866  -0.164  0.3170  0.4175  0.2556
  229MOL0     C30108  -0.360   5.797  -0.303  0.2811 -0.3742 -0.2349
  229MOL0     C30109  -0.475   5.848  -0.390 -0.2608  0.6908 -0.1145
  229MOL0     C30110  -0.620   5.839  -0.331  0.4113  0.1246  0.5548
  229MOL0     C30111  -0.716   5.894  -0.431  0.2394 -0.5290  0.1067
  229MOL0     C30112  -0.731   5.829  -0.569 -0.0019 -0.1683 -1.3663
  229MOL0     N30113  -0.835   5.728  -0.553  0.3411  0.1421 -0.3184
  229MOL0     C30114  -0.818   5.608  -0.487 -0.2715  0.5589 -0.1318
  229MOL0     C30115  -0.900   5.529  -0.555 -0.1929  0.5662  0.2508
  229MOL0     C30116  -0.927   5.379  -0.539 -0.8125  0.1692 -1.4025
  229MOL0     C30117  -0.833   5.292  -0.629  0.5739  0.0316  0.0382
  229MOL0     C30118  -0.696   5.274  -0.581 -0.3757 -0.2201  0.5969
  229MOL0     C30119  -0.600   5.294  -0.694 -0.6720 -0.1776  0.3819
  229MOL0     O30120  -0.624   5.209  -0.804 -1.1679  0.9769 -0.0168
  229MOL0     C30121  -0.527   5.109  -0.825 -0.8259 -0.2798 -0.1840
  229MOL0     C30122  -0.499   5.083  -0.964 -0.6374 -0.1939 -0.0073
  229MOL0     C30123  -0.410   4.986  -1.005  0.4032 -0.2668 -0.0649
  229MOL0     C30124  -0.344   4.916  -0.907 -0.4943 -0.2489 -1.2920
  229MOL0     C30125  -0.255   4.794  -0.934  0.4086 -0.8088  0.4638
  229MOL0     O30126  -0.156   4.771  -0.841 -0.1558 -0.1019  0.4475
  229MOL0     C30127  -0.065   4.669  -0.886  0.1352  0.5585 -0.3724
  229MOL0     C30128  -0.104   4.533  -0.902 -0.4510  0.5699  0.2756
  229MOL0     C30129  -0.008   4.441  -0.927 -0.3428  0.8848 -0.1698
  229MOL0     C30130   0.121   4.473  -0.963 -0.8480  0.5777  0.6172
  229MOL0     O30131   0.209   4.374  -1.012  0.2590 -0.7607 -1.3670
  229MOL0     C30132   0.341   4.402  -1.049 -0.0297 -0.9561  0.2630
  229MOL0     C30133   0.395   4.261  -1.085  0.5679  0.2241  0.1847
  229MOL0     C30134   0.543   4.263  -1.135 -0.1179  0.0303 -0.0134
  229MOL0     C30135   0.593   4.118  -1.142  0.2266 -0.2028  0.2848
  229MOL0     C30136   0.729   4.100  -1.216  0.6718  0.5472  0.0239
  229MOL0     C30137   0.728   4.144  -1.363 -0.1015 -0.5910  1.1201
  229MOL0     C30138   0.825   4.069  -1.449  0.6255 -0.2586 -0.3342
  229MOL0     C30139   0.970   4.104  -1.406 -0.5204 -0.4534  0.1096
  229MOL0    Cl30140   1.072   4.008  -1.521 -0.3162  0.1163  0.2928
  229MOL0     C30141   0.160   4.606  -0.961 -0.4193 -0.5527  0.3429
  229MOL0     C30142   0.067   4.703  -0.915 -0.8470 -0.5211 -0.2018
  229MOL0     O30143  -0.264   4.740  -1.044 -0.3911 -0.0593 -0.1001
  229MOL0     C30144  -0.370   4.944  -0.768 -0.1528  0.0050 -0.1875
  229MOL0     C30145  -0.466   5.032  -0.729 -0.2967  1.3838  0.1263
  229MOL0     N30146  -0.979   5.606  -0.636  0.3124 -0.4879 -0.7611
  229MOL0     N30147  -0.934   5.724  -0.643 -0.0185 -0.5104  0.1522
  229MOL0     C30148  -0.074   6.231   0.135  0.0333 -0.0646  0.4813
  229MOL0     C30149   0.031   6.302   0.190 -0.0093 -0.3419  0.4860
  229MOL0     C30150   0.467   6.356   0.338  0.4918 -0.5540  0.6720
  229MOL0     C30151   0.500   6.471   0.260 -0.2204  0.3081 -1.0358
  229MOL0     C30152   0.614   6.544   0.281 -0.1808 -0.4734  0.0249
  229MOL0     C30153   0.709   6.507   0.373  0.3614 -0.4512 -0.2313
  229MOL0     O30154   0.832   6.572   0.378 -0.0463  0.1175 -0.4798
  229MOL0     C30155   0.878   6.673   0.282  0.5890 -0.4126  0.0372
  229MOL0     C30156   0.834   6.823   0.313  0.4703  0.2483  0.4262
  229MOL0     C30157   0.901   6.922   0.213  0.3019  0.1728  0.3627
  229MOL0     C30158   0.838   7.066   0.210  0.5698  0.2572 -0.1740
  229MOL0     C30159   0.918   7.157   0.127  0.2471 -0.0926  0.1736
  229MOL0     C30160   0.989   7.232   0.069 -0.0948 -0.6096  0.0003
  229MOL0     C30161   0.685   6.384   0.449  0.1846  0.0791  0.4156
  229MOL0     C30162   0.560   6.321   0.441  0.8791  1.5601  0.4347
  229MOL0     H30163   0.298   6.141   0.042  1.1177  1.4750 -1.0162
  229MOL0     H30164   0.115   6.012  -0.042  2.5279  0.9058 -0.1890
  229MOL0     H30165  -0.278   6.179  -0.049  0.5310 -0.1798 -0.3428
  229MOL0     H30166  -0.345   6.036   0.040 -2.2892  2.0855 -0.6529
  229MOL0     H30167  -0.234   6.025  -0.242  0.6788 -0.1177  0.4637
  229MOL0     H30168  -0.412   6.060  -0.193 -1.3431 -2.1768  1.2305
  229MOL0     H30169  -0.425   5.850  -0.092  0.0044 -3.5975 -0.7309
  229MOL0     H30170  -0.263   5.818  -0.109  1.0013  2.4674  1.1071
  229MOL0     H30171  -0.263   5.812  -0.351  0.7686 -1.0192  0.5227
  229MOL0     H30172  -0.381   5.694  -0.271 -1.9829  1.1260  3.8065
  229MOL0     H30173  -0.467   5.786  -0.480 -0.3799 -0.9878  0.9777
  229MOL0     H30174  -0.451   5.950  -0.422 -0.8344  1.0698  0.6411
  229MOL0     H30175  -0.622   5.905  -0.244 -0.1381  1.0584 -0.1368
  229MOL0     H30176  -0.644   5.736  -0.305  1.1125 -0.0549  0.5119
  229MOL0     H30177  -0.815   5.898  -0.384 -0.2270 -1.5980 -0.7181
  229MOL0     H30178  -0.687   5.992  -0.469  0.1391 -0.6693 -0.3514
  229MOL0     H30179  -0.639   5.778  -0.601  0.2657  0.5688 -1.8076
  229MOL0     H30180  -0.775   5.904  -0.635 -1.4866 -1.2011 -1.5876
  229MOL0     H30181  -0.746   5.578  -0.411  2.5507 -3.0964 -3.7369
  229MOL0     H30182  -1.030   5.361  -0.569 -1.0368  0.2167 -0.6818
  229MOL0     H30183  -0.909   5.353  -0.434 -1.3914  0.8721 -1.1198
  229MOL0     H30184  -0.833   5.329  -0.732  0.1430 -1.4715 -0.5332
  229MOL0     H30185  -0.867   5.188  -0.633  3.3502 -0.9738  0.4148
  229MOL0     H30186  -0.675   5.345  -0.501 -2.0485  2.3796 -1.1055
  229MOL0     H30187  -0.687   5.173  -0.541  0.4117  0.5538  2.4990
  229MOL0     H30188  -0.500   5.285  -0.652 -0.7005 -1.2156  0.2562
  229MOL0     H30189  -0.605   5.399  -0.725  0.7365  0.7815  3.1103
  229MOL0     H30190  -0.555   5.142  -1.035 -1.1667  0.6945  1.1072
  229MOL0     H30191  -0.387   4.975  -1.110  0.1324 -0.2425 -0.1259
  229MOL0     H30192  -0.205   4.502  -0.874 -0.7639  2.2015  1.1177
  229MOL0     H30193  -0.023   4.334  -0.917  1.9584  0.5685  0.4868
  229MOL0     H30194   0.379   4.437  -0.953  0.4188 -0.2678 -0.1467
  229MOL0     H30195   0.362   4.468  -1.134  1.7979 -3.7353 -1.6135
  229MOL0     H30196   0.334   4.209  -1.159 -0.8644  1.0867  0.7331
  229MOL0     H30197   0.389   4.202  -0.993 -1.5921 -0.2421 -0.1956
  229MOL0     H30198   0.609   4.315  -1.066  0.1424  0.0029 -0.2404
  229MOL0     H30199   0.536   4.306  -1.236 -0.7873 -1.3918 -0.6021
  229MOL0     H30200   0.600   4.083  -1.039 -1.8145 -1.1027  0.1713
  229MOL0     H30201   0.517   4.052  -1.185  1.8230 -2.9431  1.4452
  229MOL0     H30202   0.748   3.993  -1.224  3.2040  0.8521  0.8305
  229MOL0     H30203   0.805   4.159  -1.163  1.2562  1.9103 -2.2118
  229MOL0     H30204   0.739   4.253  -1.369  0.5159 -0.6112  1.6940
  229MOL0     H30205   0.631   4.128  -1.411 -0.5746 -0.3454  1.9706
  229MOL0     H30206   0.797   3.964  -1.434  3.6542 -1.1496 -0.0624
  229MOL0     H30207   0.812   4.097  -1.554  2.5777  0.9350 -0.3052
  229MOL0     H30208   0.988   4.083  -1.300 -1.3308 -0.2909  0.2840
  229MOL0     H30209   0.990   4.211  -1.408 -3.5796  0.2183  0.4309
  229MOL0     H30210   0.261   4.629  -0.991 -0.8205 -0.5036 -1.0140
  229MOL0     H30211   0.105   4.804  -0.903 -1.6053 -0.3785  1.1766
  229MOL0     H30212  -0.321   4.894  -0.684  0.3457 -0.8890 -0.9957
  229MOL0     H30213  -0.494   5.038  -0.624  0.7027 -2.4411  0.7634
  229MOL0     H30214  -0.173   6.261   0.167 -1.1899 -0.2119 -2.8125
  229MOL0     H30215   0.002   6.371   0.269 -2.3233  0.2299 -0.7676
  229MOL0     H30216   0.432   6.512   0.186 -1.8339 -0.5868 -0.0955
  229MOL0     H30217   0.636   6.629   0.218  0.3731 -3.0755 -3.6758
  229MOL0     H30218   0.850   6.660   0.177  0.4459  1.8662 -0.2495
  229MOL0     H30219   0.986   6.659   0.280  0.9063  1.7531 -1.1268
  229MOL0     H30220   0.726   6.831   0.303  0.3471 -1.2972  0.3987
  229MOL0     H30221   0.877   6.853   0.410  0.0613  1.5082  0.2359
  229MOL0     H30222   0.898   6.884   0.110 -1.3150 -0.1813  0.5197
  229MOL0     H30223   1.007   6.930   0.238  0.1505  1.3000  0.7258
  229MOL0     H30224   0.740   7.065   0.162  0.5403  0.8996 -0.1296
  229MOL0     H30225   0.828   7.111   0.309  2.1389  0.1309  0.0667
  229MOL0     H30226   1.064   7.286   0.016  1.4238 -0.9644  1.6911
  229MOL0     H30227   0.771   6.354   0.508  1.7387 -1.2666 -2.2921
  229MOL0     H30228   0.532   6.239   0.506  2.0479  1.1860  0.4778
  230MOL0     O30229   1.765   5.622   8.069 -0.1143 -0.8728 -1.0989
  230MOL0     C30230   1.731   5.669   7.962  0.3505  0.2322  0.0957
  230MOL0     O30231   1.808   5.680   7.854 -0.3308 -0.0980  0.5491
  230MOL0     C30232   1.939   5.705   7.885 -0.1787  0.0704  0.4804
  230MOL0     C30233   2.030   5.598   7.862  0.6614 -0.4366 -0.8302
  230MOL0     C30234   2.156   5.610   7.904 -0.3480 -0.5648 -0.2116
  230MOL0     C30235   2.206   5.740   7.946  0.1730 -0.6853  0.4650
  230MOL0     O30236   2.338   5.776   7.945  0.1359  1.1206  0.4628
  230MOL0     C30237   2.383   5.759   8.081 -0.1782 -0.4731  0.4033
  230MOL0     C30238   2.533   5.719   8.074  0.1482 -0.4743 -0.0968
  230MOL0     C30239   2.543   5.584   8.010  0.2950 -0.2402  0.6521
  230MOL0     C30240   2.674   5.503   8.025  0.1489  0.1875  0.4409
  230MOL0     C30241   2.795   5.583   7.964  0.8184 -0.0228 -1.1166
  230MOL0     C30242   2.923   5.507   7.963 -0.9821 -0.2987 -0.0218
  230MOL0     C30243   2.933   5.388   7.861  1.3812 -0.1326 -0.2045
  230MOL0     C30244   2.912   5.426   7.722  0.2448 -0.8337  0.1216
  230MOL0     N30245   2.968   5.315   7.633  0.0302 -0.5779  0.5828
  230MOL0     C30246   3.087   5.318   7.579 -0.8523 -0.0892 -0.0806
  230MOL0     C30247   3.106   5.200   7.527 -0.2394 -0.2573 -0.0423
  230MOL0     C30248   3.229   5.158   7.450  0.4660 -0.1751  0.2058
  230MOL0     C30249   3.211   5.211   7.306  0.6893  0.5039 -0.1197
  230MOL0     C30250   3.093   5.144   7.225 -0.8417 -0.0269 -0.5897
  230MOL0     C30251   3.085   5.181   7.075 -0.0480  0.4110 -0.8896
  230MOL0     O30252   3.201   5.154   6.986 -0.4797 -0.3559  0.6211
  230MOL0     C30253   3.305   5.240   6.957  0.3178 -0.4696 -0.0370
  230MOL0     C30254   3.425   5.197   6.898  0.1911  0.4451 -0.2160
  230MOL0     C30255   3.527   5.296   6.881  0.9667  0.6929  0.6645
  230MOL0     C30256   3.519   5.429   6.924 -0.5428 -0.4546 -0.2702
  230MOL0     C30257   3.631   5.526   6.924  0.5494 -0.1746 -0.6720
  230MOL0     O30258   3.747   5.458   6.903  0.2939  0.4147  0.1197
  230MOL0     C30259   3.870   5.513   6.927  0.8351  0.7173 -0.5515
  230MOL0     C30260   3.891   5.616   7.013  0.1818  0.0676 -0.2662
  230MOL0     C30261   4.025   5.666   7.023 -0.8825 -0.8183  0.3083
  230MOL0     C30262   4.132   5.598   6.965 -0.5009  1.0040  0.0790
  230MOL0     O30263   4.262   5.655   6.979 -0.2641 -0.0162 -1.4240
  230MOL0     C30264   4.378   5.582   6.964  0.0736  0.2064  0.7274
  230MOL0     C30265   4.460   5.648   6.847  1.3408 -0.2738  0.1205
  230MOL0     C30266   4.515   5.789   6.883 -0.2633  0.2324 -0.3636
  230MOL0     C30267   4.628   5.823   6.785  0.5685  0.0229 -0.8503
  230MOL0     C30268   4.699   5.956   6.809  0.9034  0.4960 -0.3697
  230MOL0     C30269   4.809   5.989   6.703 -0.6825 -0.2845 -0.1492
  230MOL0     C30270   4.849   6.135   6.733 -0.0163 -0.2469  0.2288
  230MOL0     C30271   5.000   6.171   6.699 -0.4313  0.7569  0.0366
  230MOL0    Cl30272   5.016   6.321   6.620  0.3070 -0.0379 -0.1790
  230MOL0     C30273   4.108   5.485   6.879  0.8031 -0.3979  0.7690
  230MOL0     C30274   3.971   5.437   6.868  1.0231 -0.4374 -0.1464
  230MOL0     O30275   3.612   5.649   6.913 -0.0411  0.6979 -0.7255
  230MOL0     C30276   3.401   5.468   6.991 -0.3579 -0.1869  1.0996
  230MOL0     C30277   3.294   5.373   7.006 -0.1332 -0.2660  0.3539
  230MOL0     N30278   3.002   5.108   7.566 -0.1297  0.1145 -0.4928
  230MOL0     N30279   2.917   5.189   7.624  0.0971  0.3385  0.1300
  230MOL0     C30280   2.122   5.844   7.966 -0.8387  0.9556  0.6684
  230MOL0     C30281   1.990   5.824   7.941  0.3665 -0.2788 -0.4980
  230MOL0     C30282   1.590   5.703   7.960  1.6445 -0.1281 -0.1263
  230MOL0     C30283   1.495   5.675   8.066 -0.4870 -0.6682 -0.2031
  230MOL0     C30284   1.358   5.722   8.055  0.0634 -0.0749  0.1660
  230MOL0     C30285   1.309   5.784   7.941  0.5863  0.5231 -0.0507
  230MOL0     O30286   1.177   5.815   7.909 -0.6655 -0.0166  0.0807
  230MOL0     C30287   1.087   5.700   7.916  0.8631 -0.1762  0.4376
  230MOL0     C30288   1.094   5.603   7.802  0.0782 -0.0300  0.8833
  230MOL0     C30289   1.036   5.671   7.672 -0.4211 -0.3426 -0.1478
  230MOL0     C30290   1.014   5.568   7.572  0.2064 -0.5681  1.3520
  230MOL0     C30291   0.938   5.625   7.454  0.2653  0.2236 -0.1714
  230MOL0     C30292   0.864   5.657   7.369 -0.9628 -0.7872 -0.2571
  230MOL0     C30293   1.401   5.806   7.838  0.3466 -0.9338  0.6380
  230MOL0     C30294   1.537   5.779   7.854 -0.2789  0.9460 -0.4935
  230MOL0     H30295   1.994   5.502   7.828 -0.0989 -0.1323 -0.9171
  230MOL0     H30296   2.219   5.522   7.901  1.3601  0.5918  0.1917
  230MOL0     H30297   2.319   5.690   8.138 -0.4370 -0.5902 -0.0279
  230MOL0     H30298   2.389   5.851   8.140  0.3574 -0.0652 -0.2747
  230MOL0     H30299   2.588   5.715   8.169  2.6520 -2.3301 -1.5001
  230MOL0     H30300   2.583   5.794   8.011 -1.0460  0.2953 -0.1518
  230MOL0     H30301   2.506   5.604   7.909 -2.7298 -0.9646  1.5247
  230MOL0     H30302   2.476   5.522   8.071 -0.2019 -0.8351 -0.4771
  230MOL0     H30303   2.696   5.486   8.131 -0.0172 -1.2722  0.2620
  230MOL0     H30304   2.672   5.404   7.980 -1.6048  0.0330  0.7570
  230MOL0     H30305   2.818   5.665   8.033  1.5223  0.1931 -1.6051
  230MOL0     H30306   2.770   5.618   7.863 -0.7758  2.8149  0.1626
  230MOL0     H30307   2.950   5.459   8.058  0.9654 -0.3587 -0.5513
  230MOL0     H30308   3.001   5.579   7.937 -3.3105  2.0158 -1.0560
  230MOL0     H30309   3.031   5.340   7.869  1.4954  0.4264  3.6188
  230MOL0     H30310   2.859   5.311   7.885 -0.4345  1.0059 -1.7894
  230MOL0     H30311   2.963   5.522   7.709  1.6156 -1.3949  1.0742
  230MOL0     H30312   2.804   5.427   7.705  0.1084 -3.0454  0.5317
  230MOL0     H30313   3.167   5.391   7.582  0.3322 -1.3340 -0.2955
  230MOL0     H30314   3.222   5.049   7.450 -3.3121 -0.0723  0.7751
  230MOL0     H30315   3.318   5.194   7.503  1.1375 -0.2001 -0.8795
  230MOL0     H30316   3.308   5.202   7.255 -0.2365  1.1615 -2.0986
  230MOL0     H30317   3.185   5.317   7.306  2.9137  1.1013 -0.6581
  230MOL0     H30318   3.120   5.038   7.228 -2.5774 -0.4847  0.5523
  230MOL0     H30319   2.995   5.159   7.271  0.7020  0.3964  2.9060
  230MOL0     H30320   3.040   5.280   7.075  3.8309  2.5514  2.9056
  230MOL0     H30321   3.014   5.105   7.042  1.2513 -1.6247  0.7068
  230MOL0     H30322   3.441   5.090   6.886  2.6316  0.5688  1.1277
  230MOL0     H30323   3.618   5.256   6.838 -0.4301 -1.0342 -0.8428
  230MOL0     H30324   3.810   5.669   7.062  1.3896  1.5830  0.1586
  230MOL0     H30325   4.036   5.764   7.069  0.3508  0.0383 -1.6937
  230MOL0     H30326   4.363   5.480   6.926 -1.7038  0.4807  0.5974
  230MOL0     H30327   4.431   5.569   7.058  1.8025 -0.1937 -0.2575
  230MOL0     H30328   4.385   5.663   6.769 -0.6500 -1.2449  1.7470
  230MOL0     H30329   4.542   5.585   6.814  0.7201 -0.3139 -1.4097
  230MOL0     H30330   4.543   5.776   6.988 -1.8711  1.2567  0.2318
  230MOL0     H30331   4.434   5.861   6.875 -0.9189 -0.3539  0.7297
  230MOL0     H30332   4.704   5.744   6.781 -0.7861 -1.2587 -4.2672
  230MOL0     H30333   4.584   5.814   6.686  1.5558 -1.7312 -1.1727
  230MOL0     H30334   4.741   5.953   6.910 -1.1990  1.0409  0.5788
  230MOL0     H30335   4.628   6.039   6.801  0.5761  0.4908  1.8501
  230MOL0     H30336   4.774   5.993   6.599  1.7122  1.6408 -0.9887
  230MOL0     H30337   4.897   5.924   6.702  0.7959  1.4218  3.0924
  230MOL0     H30338   4.795   6.204   6.668 -2.5848 -1.1747  1.2398
  230MOL0     H30339   4.826   6.161   6.837 -2.9994 -0.6394 -0.2353
  230MOL0     H30340   5.050   6.091   6.643  1.8121  1.0097  1.5684
  230MOL0     H30341   5.066   6.173   6.786 -1.0364  2.1666  0.4873
  230MOL0     H30342   4.189   5.431   6.831 -0.9188 -1.6452 -0.8889
  230MOL0     H30343   3.951   5.354   6.802 -0.5038 -1.6064  1.6975
  230MOL0     H30344   3.389   5.574   7.011  1.4120  1.1112 -3.4897
  230MOL0     H30345   3.211   5.404   7.069 -0.7034 -0.9709 -0.0357
  230MOL0     H30346   2.151   5.938   8.013 -4.1660  1.3486  2.2545
  230MOL0     H30347   1.930   5.908   7.974 -1.8616 -1.3987 -1.5230
  230MOL0     H30348   1.521   5.614   8.152 -1.3641 -2.1482 -0.9470
  230MOL0     H30349   1.278   5.693   8.123 -1.0433 -0.3079 -1.1689
  230MOL0     H30350   0.985   5.738   7.929  0.1536 -1.2167 -1.5713
  230MOL0     H30351   1.106   5.645   8.008  0.9842 -2.5383 -0.9157
  230MOL0     H30352   1.193   5.566   7.776  0.3457  0.7663  0.7643
  230MOL0     H30353   1.028   5.520   7.828 -3.3815  2.0194 -0.5971
  230MOL0     H30354   1.097   5.757   7.643  0.4383 -0.8510  0.1202
  230MOL0     H30355   0.939   5.710   7.705  0.1758 -1.0858  2.7780
  230MOL0     H30356   1.106   5.526   7.533 -0.2910 -2.9731  2.6135
  230MOL0     H30357   0.955   5.484   7.609 -0.3746 -1.5628 -1.5517
  230MOL0     H30358   0.810   5.674   7.277 -0.4095 -3.5466 -1.1863
  230MOL0     H30359   1.372   5.845   7.741 -2.5468 -0.3911  1.6236
  230MOL0     H30360   1.606   5.810   7.775  2.0845 -0.4228  0.9042
  231MOL0     O30361   4.213   4.717   1.715 -0.0445 -0.0519  0.4715
  231MOL0     C30362   4.283   4.813   1.737  0.2366  0.0449 -1.0160
  231MOL0     O30363   4.250   4.942   1.701 -0.2299  0.8866  0.5883
  231MOL0     C30364   4.115   4.963   1.659 -0.3314  0.0614  0.0959
  231MOL0     C30365   4.014   4.951   1.756 -0.2865 -0.4144  0.2436
  231MOL0     C30366   3.881   4.968   1.723  0.4700  0.0145 -0.1236
  231MOL0     C30367   3.841   5.024   1.598 -0.4379  0.4441  0.3267
  231MOL0     O30368   3.715   5.063   1.566 -0.1470 -0.1427 -0.0323
  231MOL0     C30369   3.601   4.986   1.627 -0.4882 -0.5698 -0.2323
  231MOL0     C30370   3.467   5.035   1.568  1.0868 -0.2131 -0.8214
  231MOL0     C30371   3.403   5.138   1.672 -0.3219  0.1874 -0.0502
  231MOL0     C30372   3.264   5.175   1.626 -1.7583  0.1500 -0.0197
  231MOL0     C30373   3.198   5.274   1.712  0.7676  0.2419  0.1364
  231MOL0     C30374   3.189   5.233   1.863  0.1138 -0.8857  0.1827
  231MOL0     C30375   3.137   5.352   1.962  0.6721  0.6543 -0.5104
  231MOL0     C30376   3.178   5.324   2.109  0.1498 -0.5712  0.0799
  231MOL0     N30377   3.100   5.402   2.202 -0.5043 -0.6836  0.1990
  231MOL0     C30378   2.965   5.388   2.226  0.8769 -0.9330  0.3784
  231MOL0     C30379   2.930   5.484   2.310  0.0381  0.7477 -0.7812
  231MOL0     C30380   2.793   5.514   2.366  1.0477 -0.0022  0.2456
  231MOL0     C30381   2.754   5.661   2.347  0.3420 -1.1887  0.2873
  231MOL0     C30382   2.644   5.709   2.439 -0.2968 -0.0946 -0.5446
  231MOL0     C30383   2.501   5.688   2.395 -0.2171 -0.0204  0.1191
  231MOL0     O30384   2.476   5.544   2.380 -0.4055 -0.7820 -0.6126
  231MOL0     C30385   2.347   5.507   2.331  0.5582 -0.3467 -0.3923
  231MOL0     C30386   2.315   5.373   2.356 -0.5288  0.7623  0.1939
  231MOL0     C30387   2.194   5.321   2.304 -0.3167  0.1467  0.2627
  231MOL0     C30388   2.106   5.389   2.221 -0.7420  0.5280  0.3672
  231MOL0     C30389   1.984   5.319   2.176  0.1401  0.3867  0.3293
  231MOL0     O30390   1.966   5.192   2.225  0.0040 -0.2328  0.0402
  231MOL0     C30391   1.842   5.141   2.185  0.5649 -0.0849  0.2943
  231MOL0     C30392   1.723   5.207   2.231  0.1608 -0.2022 -0.1050
  231MOL0     C30393   1.599   5.166   2.192  0.1820 -0.7390  0.0995
  231MOL0     C30394   1.588   5.069   2.086  0.6039  0.2611 -0.4024
  231MOL0     O30395   1.463   5.025   2.039  1.3968  0.1501  0.0307
  231MOL0     C30396   1.443   4.988   1.902  1.1012 -0.7354 -0.0893
  231MOL0     C30397   1.365   5.091   1.825  0.1189 -0.4329  0.3709
  231MOL0     C30398   1.318   5.035   1.693  1.2124  0.1383  0.4980
  231MOL0     C30399   1.185   5.086   1.626  1.5030 -0.7749 -0.1374
  231MOL0     C30400   1.184   5.232   1.611  0.0348 -0.1625 -0.0383
  231MOL0     C30401   1.159   5.282   1.467  0.2920 -0.2648 -0.4787
  231MOL0     C30402   1.176   5.433   1.463 -0.3156  0.4647 -0.5577
  231MOL0     C30403   1.165   5.479   1.318 -1.2872 -0.6043  1.2788
  231MOL0    Cl30404   1.013   5.445   1.239 -0.8288 -0.2550 -0.4533
  231MOL0     C30405   1.706   5.001   2.034 -0.2921  0.0043 -0.3421
  231MOL0     C30406   1.836   5.045   2.081  0.3957 -0.0939  0.1887
  231MOL0     O30407   1.915   5.385   2.103  0.8904 -0.1272  0.2210
  231MOL0     C30408   2.134   5.519   2.204  0.5317 -0.4402 -0.0923
  231MOL0     C30409   2.252   5.582   2.259 -0.1655  0.0158  0.3419
  231MOL0     N30410   3.042   5.548   2.350 -0.1311 -0.8599  0.3762
  231MOL0     N30411   3.142   5.509   2.280  0.0966 -0.2740  0.3398
  231MOL0     C30412   3.947   5.057   1.506  0.0909  0.1941 -0.0324
  231MOL0     C30413   4.080   5.027   1.534 -0.9707  0.3188  0.5238
  231MOL0     C30414   4.417   4.788   1.800  0.3344 -0.0451 -0.5700
  231MOL0     C30415   4.516   4.888   1.780  0.1948 -0.4926 -0.0176
  231MOL0     C30416   4.650   4.886   1.841  0.0620 -0.0789  0.7416
  231MOL0     C30417   4.681   4.784   1.928 -0.1178  0.8481 -0.6485
  231MOL0     O30418   4.791   4.753   2.000 -0.3578 -0.7140 -0.7726
  231MOL0     C30419   4.887   4.856   1.980  0.0095 -0.7277  0.2248
  231MOL0     C30420   5.008   4.827   2.052  0.4937 -0.2568 -0.9073
  231MOL0     C30421   5.125   4.901   1.989 -0.2563 -0.5534  0.3877
  231MOL0     C30422   5.246   4.866   2.069  0.4601 -0.3112  0.0532
  231MOL0     C30423   5.364   4.928   2.016  0.5366  0.0349 -1.0848
  231MOL0     C30424   5.442   5.004   1.970 -0.2695  1.8126 -0.3841
  231MOL0     C30425   4.579   4.685   1.954 -0.0048  0.7251  0.0675
  231MOL0     C30426   4.452   4.681   1.888  0.3146 -0.3075  0.6096
  231MOL0     H30427   4.028   4.911   1.856 -1.9508  0.0924  0.7019
  231MOL0     H30428   3.803   4.941   1.794  2.0063 -2.1295  0.8698
  231MOL0     H30429   3.600   5.007   1.735  0.3328 -0.4502 -0.2410
  231MOL0     H30430   3.610   4.878   1.611 -1.1413 -0.7874  0.7345
  231MOL0     H30431   3.402   4.954   1.537  0.9643  0.8013 -3.4412
  231MOL0     H30432   3.498   5.100   1.486  1.9641  0.6445  0.1496
  231MOL0     H30433   3.463   5.229   1.671 -1.9545  1.3559 -2.2802
  231MOL0     H30434   3.394   5.087   1.768 -4.1296  2.3191  0.9452
  231MOL0     H30435   3.259   5.207   1.522 -3.4351  0.1487  0.0261
  231MOL0     H30436   3.199   5.087   1.623 -0.1409 -1.0685 -1.8002
  231MOL0     H30437   3.096   5.296   1.678  1.4564 -1.6486 -3.7055
  231MOL0     H30438   3.258   5.366   1.707  1.2467 -0.1001 -0.6892
  231MOL0     H30439   3.288   5.211   1.904 -0.1435 -2.9718 -0.1839
  231MOL0     H30440   3.123   5.147   1.876 -1.3824  0.2285  0.1924
  231MOL0     H30441   3.183   5.449   1.940  1.0773  0.6319  0.1971
  231MOL0     H30442   3.029   5.367   1.949  0.7844  0.5044 -1.6707
  231MOL0     H30443   3.286   5.335   2.121 -0.2538  2.3434  2.2630
  231MOL0     H30444   3.148   5.220   2.126  0.4913 -0.4833  1.2987
  231MOL0     H30445   2.895   5.324   2.173  0.7149 -0.2806 -0.2152
  231MOL0     H30446   2.791   5.477   2.469  0.9601 -1.1386 -0.1484
  231MOL0     H30447   2.711   5.467   2.311  1.4113  2.2971 -2.5131
  231MOL0     H30448   2.727   5.699   2.248 -0.7329  3.2131  2.0553
  231MOL0     H30449   2.842   5.720   2.372 -0.6601 -0.0907  1.3843
  231MOL0     H30450   2.672   5.674   2.539  0.4185  0.4375 -0.5560
  231MOL0     H30451   2.669   5.815   2.434  1.9049 -0.4488  1.1776
  231MOL0     H30452   2.486   5.739   2.300 -0.2872 -1.4424 -0.6607
  231MOL0     H30453   2.423   5.732   2.458 -1.8230 -3.1049  0.4905
  231MOL0     H30454   2.387   5.303   2.398 -0.2466  0.2778 -1.0549
  231MOL0     H30455   2.172   5.215   2.308  2.9798 -0.5808  3.1972
  231MOL0     H30456   1.735   5.292   2.297 -0.1441  0.4753 -0.9101
  231MOL0     H30457   1.509   5.219   2.220  0.0692 -0.1616 -1.2471
  231MOL0     H30458   1.383   4.897   1.908  0.2040 -0.0761  1.3322
  231MOL0     H30459   1.528   4.960   1.840  1.8742 -2.1239  1.5099
  231MOL0     H30460   1.438   5.171   1.810 -0.0495 -0.4367 -0.4951
  231MOL0     H30461   1.274   5.121   1.879  0.2168 -1.2204  0.9781
  231MOL0     H30462   1.323   4.925   1.692 -1.3315 -0.0311 -0.6192
  231MOL0     H30463   1.388   5.076   1.620 -0.3050  0.5617 -0.7496
  231MOL0     H30464   1.173   5.041   1.527 -0.6196 -0.2736 -0.1696
  231MOL0     H30465   1.101   5.052   1.687  2.6886 -1.9849  0.8807
  231MOL0     H30466   1.276   5.279   1.646  0.4510 -0.0449 -1.2649
  231MOL0     H30467   1.103   5.272   1.673  1.0472 -1.1322  2.0479
  231MOL0     H30468   1.059   5.248   1.440  0.4693 -0.3638 -1.0174
  231MOL0     H30469   1.235   5.234   1.404 -0.1100 -0.6269 -0.6924
  231MOL0     H30470   1.106   5.487   1.529 -0.6222  1.3356 -1.5603
  231MOL0     H30471   1.277   5.460   1.494  0.1983 -0.2772 -1.5342
  231MOL0     H30472   1.240   5.420   1.264 -2.7273 -0.6339 -0.7756
  231MOL0     H30473   1.181   5.587   1.321 -4.4580 -0.0584  2.6681
  231MOL0     H30474   1.702   4.917   1.965  1.4050 -1.6903  1.4891
  231MOL0     H30475   1.929   5.020   2.031  0.7309 -0.7567  1.1224
  231MOL0     H30476   2.061   5.591   2.167  2.5752  2.4145  1.0902
  231MOL0     H30477   2.260   5.690   2.254 -0.0079  0.0911  1.7378
  231MOL0     H30478   3.922   5.100   1.410 -0.5200 -0.3738 -0.1337
  231MOL0     H30479   4.164   5.071   1.480  0.6490  0.0950  2.7159
  231MOL0     H30480   4.493   4.978   1.723 -0.4731 -1.3362 -1.1455
  231MOL0     H30481   4.722   4.963   1.817 -0.1597  0.3367  1.3947
  231MOL0     H30482   4.856   4.958   2.006  1.4793 -0.8914  3.0859
  231MOL0     H30483   4.907   4.853   1.872  0.8657  2.4603  0.1849
  231MOL0     H30484   4.991   4.855   2.157 -1.6450 -2.1768 -0.6759
  231MOL0     H30485   5.037   4.722   2.049 -2.7778 -2.0923  6.8908
  231MOL0     H30486   5.098   5.006   1.973 -1.0971 -1.0295 -1.7382
  231MOL0     H30487   5.139   4.857   1.890  2.1823  0.7282  0.0880
  231MOL0     H30488   5.229   4.864   2.177  2.1771 -1.3579  0.3445
  231MOL0     H30489   5.268   4.759   2.057 -1.6039 -1.2067  3.0615
  231MOL0     H30490   5.509   5.070   1.917  0.1162 -0.1610 -2.5553
  231MOL0     H30491   4.600   4.603   2.022  0.6516 -0.5207 -1.5728
  231MOL0     H30492   4.383   4.599   1.904  0.4382 -0.3658  0.8619
  232MOL0     O30493   5.992   6.553   1.021  0.0644  0.3968 -0.1689
  232MOL0     C30494   5.944   6.613   0.923  1.3190 -0.1340 -0.7608
  232MOL0     O30495   5.996   6.620   0.793  0.1385  0.1032 -0.7321
  232MOL0     C30496   6.100   6.549   0.753  0.1788 -0.3363 -0.5450
  232MOL0     C30497   6.167   6.610   0.657  0.6494 -0.3198  0.0630
  232MOL0     C30498   6.266   6.537   0.593  0.1959  0.1787 -0.0756
  232MOL0     C30499   6.297   6.401   0.633 -0.2993  0.1665  1.2630
  232MOL0     O30500   6.409   6.338   0.582 -0.3900 -0.2105  0.4456
  232MOL0     C30501   6.459   6.218   0.647 -0.4100 -0.9251 -0.2444
  232MOL0     C30502   6.605   6.182   0.589 -0.2135 -0.0292  0.9555
  232MOL0     C30503   6.610   6.182   0.439  0.2559  0.2988  0.3594
  232MOL0     C30504   6.747   6.155   0.385 -1.2334 -0.1749  1.0471
  232MOL0     C30505   6.843   6.050   0.450  0.2752  0.2752  0.2242
  232MOL0     C30506   6.795   5.904   0.441  0.3194 -0.0503 -0.8112
  232MOL0     C30507   6.910   5.809   0.456 -0.6699 -0.3889  0.5711
  232MOL0     C30508   6.988   5.796   0.323 -0.2816 -0.1753 -0.0652
  232MOL0     N30509   7.134   5.810   0.339  0.3254  0.6217 -0.5270
  232MOL0     C30510   7.218   5.707   0.362  0.5408 -0.3510 -0.4629
  232MOL0     C30511   7.348   5.759   0.358 -0.2686  0.2912 -0.1459
  232MOL0     C30512   7.483   5.696   0.369 -0.5467  0.6152 -0.4326
  232MOL0     C30513   7.525   5.699   0.515 -0.0058 -0.2078  0.3131
  232MOL0     C30514   7.634   5.586   0.530  0.2564 -0.8920 -0.5040
  232MOL0     C30515   7.763   5.633   0.461  0.3800  0.1929  1.1505
  232MOL0     O30516   7.860   5.529   0.484  0.6999  0.9771 -0.1054
  232MOL0     C30517   7.987   5.541   0.432 -0.3109 -0.4949 -0.0163
  232MOL0     C30518   8.080   5.450   0.475 -0.3552 -0.7656 -0.1510
  232MOL0     C30519   8.213   5.441   0.430  0.1408 -0.3534  0.1131
  232MOL0     C30520   8.251   5.526   0.323 -0.1223 -0.1375 -0.0475
  232MOL0     C30521   8.377   5.507   0.254  1.0754 -1.5069  0.0172
  232MOL0     O30522   8.385   5.543   0.124  0.7475 -0.2928  0.1505
  232MOL0     C30523   8.505   5.523   0.053 -0.3094  0.6964  0.1814
  232MOL0     C30524   8.519   5.433  -0.059  0.4376 -1.0228  0.1726
  232MOL0     C30525   8.633   5.436  -0.131 -0.7270 -0.6753  0.6846
  232MOL0     C30526   8.749   5.507  -0.088  0.8724  0.3740 -0.6181
  232MOL0     O30527   8.873   5.513  -0.151  0.5915 -0.6018 -0.7056
  232MOL0     C30528   8.902   5.454  -0.278 -0.0737 -1.4889  0.1772
  232MOL0     C30529   8.891   5.554  -0.396  0.6645  0.9220  0.0391
  232MOL0     C30530   9.012   5.644  -0.409 -0.3221 -0.5231  0.4488
  232MOL0     C30531   8.987   5.743  -0.526  0.4675  0.4795  0.3345
  232MOL0     C30532   9.118   5.815  -0.564  0.1446  0.3124 -0.2583
  232MOL0     C30533   9.185   5.907  -0.460  0.8753  0.6205  0.9437
  232MOL0     C30534   9.332   5.903  -0.491  0.3168  0.3205  0.0600
  232MOL0     C30535   9.390   6.044  -0.470 -0.3904  0.2259 -0.7884
  232MOL0    Cl30536   9.340   6.117  -0.316  0.5002  0.3439 -0.0533
  232MOL0     C30537   8.735   5.600   0.019 -0.4958  0.0630  0.0579
  232MOL0     C30538   8.613   5.613   0.087 -0.8809  0.4852  0.5296
  232MOL0     O30539   8.473   5.471   0.329 -0.2102  0.0644 -0.6778
  232MOL0     C30540   8.167   5.632   0.279  0.3408  0.6030 -0.1756
  232MOL0     C30541   8.037   5.635   0.333  0.6578  0.4881 -0.3983
  232MOL0     N30542   7.327   5.892   0.316 -0.5889  0.5550 -0.7514
  232MOL0     N30543   7.204   5.922   0.328 -1.2205 -0.5923 -0.0663
  232MOL0     C30544   6.220   6.337   0.732 -0.4233 -0.0297  0.8312
  232MOL0     C30545   6.120   6.416   0.784  0.5858  0.3318  0.1484
  232MOL0     C30546   5.818   6.670   0.956  0.3549 -0.4033  0.5259
  232MOL0     C30547   5.734   6.681   0.846  0.0670  0.7943  0.1352
  232MOL0     C30548   5.611   6.732   0.865  0.1461  0.3682  0.2838
  232MOL0     C30549   5.562   6.759   0.997 -1.1541 -0.0398  0.0352
  232MOL0     O30550   5.434   6.782   1.034 -0.0156  0.2393  0.4350
  232MOL0     C30551   5.339   6.847   0.944  0.3773  0.0137  0.5419
  232MOL0     C30552   5.203   6.853   1.016 -0.6347 -0.5501 -0.8353
  232MOL0     C30553   5.211   6.946   1.142 -1.1481 -0.0824  0.5542
  232MOL0     C30554   5.071   6.978   1.197  0.0557 -0.7931 -0.2336
  232MOL0     C30555   5.049   6.886   1.314  0.3659 -0.3205 -0.4569
  232MOL0     C30556   5.028   6.813   1.405  0.6673 -0.4758 -0.1885
  232MOL0     C30557   5.658   6.756   1.100  0.1568 -0.2828 -0.1512
  232MOL0     C30558   5.787   6.716   1.085  0.3878  1.4012 -0.4866
  232MOL0     H30559   6.147   6.714   0.631 -0.3547 -0.6226 -0.4467
  232MOL0     H30560   6.327   6.591   0.521  0.1010 -0.6138 -0.7594
  232MOL0     H30561   6.389   6.134   0.637 -1.7755 -0.4628  3.7096
  232MOL0     H30562   6.454   6.219   0.756 -0.5369 -0.5488 -0.2505
  232MOL0     H30563   6.623   6.080   0.622 -3.3303 -1.0016  0.0097
  232MOL0     H30564   6.684   6.250   0.623  1.8993 -1.7892 -0.2053
  232MOL0     H30565   6.577   6.279   0.399  2.1507  0.3452 -1.2587
  232MOL0     H30566   6.537   6.113   0.395  1.4356 -2.1872  2.1002
  232MOL0     H30567   6.753   6.130   0.278 -0.7411 -0.6271  1.1749
  232MOL0     H30568   6.809   6.244   0.401  2.1323 -1.8864 -1.2195
  232MOL0     H30569   6.872   6.085   0.550 -0.4185  0.2706  0.4335
  232MOL0     H30570   6.936   6.054   0.392  0.5175 -0.4994  0.5562
  232MOL0     H30571   6.726   5.894   0.357 -1.5018  0.4015  0.5726
  232MOL0     H30572   6.737   5.889   0.533 -1.7936  0.1535 -2.0421
  232MOL0     H30573   6.978   5.845   0.534 -2.2173 -0.7130  2.1472
  232MOL0     H30574   6.867   5.712   0.482 -1.7103 -0.7420 -2.1273
  232MOL0     H30575   6.960   5.878   0.256 -1.6212 -0.8495 -0.3670
  232MOL0     H30576   6.954   5.707   0.269 -0.6444 -0.6446  0.9076
  232MOL0     H30577   7.181   5.609   0.390  2.6195 -1.2746 -0.7236
  232MOL0     H30578   7.551   5.748   0.302  1.4913 -3.4426 -1.8698
  232MOL0     H30579   7.482   5.590   0.342  4.2472 -0.0194  0.9962
  232MOL0     H30580   7.451   5.664   0.588  0.2332  1.3401  1.3411
  232MOL0     H30581   7.562   5.797   0.547  2.0358 -0.9438  0.3533
  232MOL0     H30582   7.658   5.586   0.637  5.7162  3.0454 -1.3009
  232MOL0     H30583   7.593   5.487   0.506 -1.2358 -1.6388  4.2003
  232MOL0     H30584   7.796   5.732   0.493 -0.7901  1.1127 -0.3569
  232MOL0     H30585   7.759   5.636   0.352 -0.3945 -1.1003  1.1272
  232MOL0     H30586   8.057   5.376   0.551  5.1001 -3.2313 -0.4336
  232MOL0     H30587   8.269   5.364   0.480 -2.0247 -0.5134  2.4736
  232MOL0     H30588   8.433   5.370  -0.084 -0.7952 -0.0740  1.8250
  232MOL0     H30589   8.649   5.362  -0.209  1.4991  0.6830 -0.2578
  232MOL0     H30590   8.832   5.374  -0.306 -0.6515  0.5738 -5.6787
  232MOL0     H30591   8.999   5.403  -0.273  0.5847 -0.2131  0.9143
  232MOL0     H30592   8.795   5.605  -0.389 -0.9987 -2.0771  0.5415
  232MOL0     H30593   8.878   5.500  -0.490 -3.4647  1.3006  0.2444
  232MOL0     H30594   9.102   5.587  -0.435 -1.4487 -1.0425 -2.9742
  232MOL0     H30595   9.029   5.695  -0.315 -1.3575 -2.2780  1.6491
  232MOL0     H30596   8.966   5.678  -0.611  3.4852 -3.5063  2.3055
  232MOL0     H30597   8.902   5.810  -0.510  0.4401  0.6089 -0.3371
  232MOL0     H30598   9.095   5.868  -0.657 -0.0357  2.7802  1.1117
  232MOL0     H30599   9.190   5.738  -0.592 -0.1663  0.2652 -0.9538
  232MOL0     H30600   9.183   5.876  -0.355  0.3418  0.9908  1.0503
  232MOL0     H30601   9.131   6.003  -0.458 -2.1948 -0.8691 -1.1814
  232MOL0     H30602   9.382   5.844  -0.414 -2.4138 -0.0509  1.6535
  232MOL0     H30603   9.354   5.864  -0.591  0.8004  1.0779 -0.1373
  232MOL0     H30604   9.342   6.107  -0.546 -0.7351  1.6782  0.5684
  232MOL0     H30605   9.498   6.038  -0.481 -0.4195  1.2361 -1.8194
  232MOL0     H30606   8.819   5.662   0.048 -0.3462  0.3407 -0.9432
  232MOL0     H30607   8.590   5.691   0.160  1.2314 -0.1308  1.9319
  232MOL0     H30608   8.194   5.691   0.192  0.2077 -0.7679 -1.1856
  232MOL0     H30609   7.979   5.726   0.318  1.1465  1.2713  1.9440
  232MOL0     H30610   6.224   6.232   0.759 -0.5483  0.0766  1.2678
  232MOL0     H30611   6.041   6.382   0.850  0.6833  0.9262  0.5816
  232MOL0     H30612   5.774   6.653   0.749  0.5495 -0.1344  0.5874
  232MOL0     H30613   5.550   6.740   0.776 -0.3374  0.3247  0.6076
  232MOL0     H30614   5.323   6.790   0.852  0.3678  1.3196 -0.2985
  232MOL0     H30615   5.372   6.947   0.915  0.2003 -0.3350 -0.9452
  232MOL0     H30616   5.130   6.896   0.946 -0.0334  5.1004  1.4497
  232MOL0     H30617   5.179   6.754   1.054 -2.5629 -0.1621 -0.9066
  232MOL0     H30618   5.264   7.035   1.107  0.0944 -0.3485  1.6831
  232MOL0     H30619   5.269   6.900   1.222  1.5957 -1.1470 -1.8625
  232MOL0     H30620   5.068   7.086   1.213 -0.4907 -0.7482 -0.6034
  232MOL0     H30621   4.988   6.962   1.128 -2.1174 -0.8042  2.2346
  232MOL0     H30622   5.006   6.738   1.478  1.8945  0.3125  1.0485
  232MOL0     H30623   5.632   6.782   1.202  1.6108 -3.2315  1.1118
  232MOL0     H30624   5.863   6.710   1.163 -0.1169 -1.5643 -0.0941
  233MOL0     O30625   7.707   0.004  11.175  0.0386  0.1286  0.4069
  233MOL0     C30626   7.721  -0.048  11.068 -0.0943 -0.2618  0.5705
  233MOL0     O30627   7.826  -0.030  10.975  0.6022  0.0631  0.4755
  233MOL0     C30628   7.950   0.016  11.008 -0.0383  0.2442 -0.2853
  233MOL0     C30629   8.019   0.089  10.911 -0.1871  0.1500  0.0434
  233MOL0     C30630   8.147   0.127  10.936  0.5530  1.1056  0.3859
  233MOL0     C30631   8.213   0.097  11.055  0.1266 -0.1302  0.3249
  233MOL0     O30632   8.342   0.110  11.088 -0.2185 -0.3177 -0.1550
  233MOL0     C30633   8.439   0.152  10.993 -1.1219  0.9002 -0.3375
  233MOL0     C30634   8.566   0.203  11.058  1.3782 -0.4532  0.0799
  233MOL0     C30635   8.680   0.191  10.965 -0.2523 -0.6603  0.7336
  233MOL0     C30636   8.668   0.262  10.832  0.3738 -0.3412  0.1030
  233MOL0     C30637   8.791   0.234  10.741  0.7591  1.0288  0.2588
  233MOL0     C30638   8.775   0.099  10.663  0.2577  0.3888  0.0459
  233MOL0     C30639   8.893   0.056  10.569  0.6748  0.4490  0.2496
  233MOL0     C30640   9.019   0.021  10.654 -0.2621 -0.6460 -0.4818
  233MOL0     N30641   9.139  -0.029  10.574  0.8152 -0.2541  1.4125
  233MOL0     C30642   9.268  -0.028  10.624  0.4632  0.4046  0.5235
  233MOL0     C30643   9.345  -0.063  10.522 -0.1026  0.1252 -0.0843
  233MOL0     C30644   9.494  -0.068  10.526 -0.3441  0.0541  0.1779
  233MOL0     C30645   9.538  -0.185  10.440  0.3671 -0.6896 -0.5951
  233MOL0     C30646   9.687  -0.173  10.411  0.7614 -1.0918 -0.9243
  233MOL0     C30647   9.741  -0.317  10.429 -0.5933 -0.8615 -0.1613
  233MOL0     O30648   9.884  -0.310  10.409  0.0651 -0.1762  0.0344
  233MOL0     C30649   9.965  -0.424  10.399 -0.1495 -0.2413  0.7746
  233MOL0     C30650  10.104  -0.394  10.378  0.2247 -0.0468 -0.1955
  233MOL0     C30651  10.200  -0.500  10.369  0.8979 -0.3035  0.0185
  233MOL0     C30652  10.153  -0.634  10.373 -0.1773 -0.0864  0.1358
  233MOL0     C30653  10.255  -0.742  10.363 -0.3908 -0.1094  0.3654
  233MOL0     O30654  10.372  -0.712  10.305  0.4004 -0.1370 -0.6639
  233MOL0     C30655  10.467  -0.803  10.319  0.7834 -0.1513 -0.1371
  233MOL0     C30656  10.490  -0.907  10.226  0.5486 -0.7772  0.0168
  233MOL0     C30657  10.590  -1.004  10.246  0.1111 -0.3034 -0.1184
  233MOL0     C30658  10.682  -0.985  10.348 -0.4610  0.5199 -0.0301
  233MOL0     O30659  10.791  -1.064  10.373  0.4395  0.5472  0.3249
  233MOL0     C30660  10.818  -1.192  10.296 -0.2032 -0.2164  0.2207
  233MOL0     C30661  10.970  -1.234  10.295 -0.2073 -0.9136  0.2073
  233MOL0     C30662  11.061  -1.136  10.224  0.0295 -0.1521  0.2971
  233MOL0     C30663  11.211  -1.166  10.270  0.7194  0.2616 -0.0399
  233MOL0     C30664  11.305  -1.049  10.230  0.8151  0.2188 -0.3640
  233MOL0     C30665  11.452  -1.088  10.247 -0.2016 -0.1682  0.5140
  233MOL0     C30666  11.544  -0.970  10.303  0.0320  0.6712 -0.5234
  233MOL0     C30667  11.552  -0.844  10.218  0.2839  0.7294 -0.2456
  233MOL0    Cl30668  11.415  -0.741  10.239  0.2393 -0.0913  0.0898
  233MOL0     C30669  10.671  -0.878  10.440 -0.0262 -1.1506  0.3002
  233MOL0     C30670  10.564  -0.783  10.420 -0.5104  0.1307  0.1186
  233MOL0     O30671  10.216  -0.854  10.392  0.2934  1.1865 -0.7768
  233MOL0     C30672  10.019  -0.665  10.407  0.6025 -0.6289 -0.0297
  233MOL0     C30673   9.916  -0.555  10.408 -0.0053 -0.0422 -0.2497
  233MOL0     N30674   9.264  -0.075  10.407  0.3865  0.4140  0.0546
  233MOL0     N30675   9.139  -0.053  10.440 -0.1347  1.2065  0.0993
  233MOL0     C30676   8.147   0.029  11.159 -0.2766 -0.3431  0.3842
  233MOL0     C30677   8.015  -0.019  11.128 -0.0163  1.1715  0.4680
  233MOL0     C30678   7.596  -0.125  11.032 -0.1976  0.2161  0.5807
  233MOL0     C30679   7.561  -0.147  10.894  0.1342  0.2112  0.5427
  233MOL0     C30680   7.450  -0.229  10.859  0.2613 -0.0281 -0.9571
  233MOL0     C30681   7.368  -0.286  10.958 -0.3618 -0.1315 -0.8261
  233MOL0     O30682   7.258  -0.367  10.941 -0.6205 -0.1701 -0.6739
  233MOL0     C30683   7.232  -0.400  10.802  0.5245  0.3169  0.2591
  233MOL0     C30684   7.120  -0.502  10.786  0.4139  0.0304  0.2792
  233MOL0     C30685   7.082  -0.492  10.638  0.0728  0.7282 -0.2893
  233MOL0     C30686   6.971  -0.586  10.593  0.8484  0.2747 -0.3370
  233MOL0     C30687   6.825  -0.536  10.630 -0.4160  0.5217 -0.0903
  233MOL0     C30688   6.708  -0.510  10.659 -1.6429  0.1605  0.1157
  233MOL0     C30689   7.401  -0.248  11.094  0.8308  1.0441  0.9980
  233MOL0     C30690   7.513  -0.179  11.129  0.2299  0.0518  0.6797
  233MOL0     H30691   7.983   0.115  10.812  0.5894  0.3413 -0.1944
  233MOL0     H30692   8.206   0.163  10.853 -1.3357 -1.9690 -2.5573
  233MOL0     H30693   8.412   0.227  10.917 -1.2561  5.0743  3.4244
  233MOL0     H30694   8.475   0.062  10.943  0.5679  1.6946 -0.5989
  233MOL0     H30695   8.590   0.134  11.140  2.9362  0.2874  0.2755
  233MOL0     H30696   8.560   0.309  11.086 -0.6394 -0.4025 -0.4021
  233MOL0     H30697   8.709   0.088  10.943 -2.3332 -1.5210  1.7247
  233MOL0     H30698   8.765   0.237  11.017 -0.7817  4.7347 -2.4968
  233MOL0     H30699   8.576   0.239  10.776  0.6243 -0.3039 -0.3302
  233MOL0     H30700   8.663   0.370  10.847  0.1412 -0.1724 -1.0436
  233MOL0     H30701   8.874   0.227  10.812  0.8605  0.1577  0.0538
  233MOL0     H30702   8.801   0.312  10.665 -0.3405 -1.2451 -2.3768
  233MOL0     H30703   8.677   0.091  10.615  0.1054 -1.4711  0.5661
  233MOL0     H30704   8.784   0.012  10.730 -0.5014 -0.9791 -1.5514
  233MOL0     H30705   8.856  -0.033  10.516 -0.6988  1.4862 -0.5912
  233MOL0     H30706   8.912   0.129  10.490 -2.6733  0.6653 -0.5082
  233MOL0     H30707   9.006  -0.047  10.739 -0.3295 -0.2506 -0.1752
  233MOL0     H30708   9.047   0.115  10.701 -2.4752  1.1213 -2.4536
  233MOL0     H30709   9.289   0.002  10.726  1.8764 -1.9482  0.9940
  233MOL0     H30710   9.520  -0.080  10.632  2.0045  1.2494 -0.1984
  233MOL0     H30711   9.539   0.028  10.502  2.3239 -0.7414  1.6072
  233MOL0     H30712   9.488  -0.190  10.342  0.5206 -0.9410 -0.6599
  233MOL0     H30713   9.506  -0.275  10.494 -0.5636 -1.8967 -2.9837
  233MOL0     H30714   9.697  -0.144  10.306  0.8790 -2.5103 -1.3205
  233MOL0     H30715   9.732  -0.096  10.476 -1.9290 -0.1731  0.0072
  233MOL0     H30716   9.697  -0.385  10.355 -2.3798  0.0435  0.0202
  233MOL0     H30717   9.725  -0.358  10.529  1.4919  1.6279  1.3468
  233MOL0     H30718  10.140  -0.292  10.386  0.0623  0.1588 -1.7082
  233MOL0     H30719  10.305  -0.473  10.362  0.7774  0.4950  0.9854
  233MOL0     H30720  10.419  -0.919  10.145 -0.5132  1.5140  0.5179
  233MOL0     H30721  10.594  -1.088  10.178 -3.7741 -2.4528  1.9304
  233MOL0     H30722  10.796  -1.185  10.189 -1.1001 -2.3865  0.2150
  233MOL0     H30723  10.765  -1.279  10.337  2.1817 -2.3937 -1.0058
  233MOL0     H30724  10.973  -1.331  10.245  0.9489 -0.0509 -1.4561
  233MOL0     H30725  10.999  -1.246  10.400  4.0090 -2.6107 -0.9682
  233MOL0     H30726  11.024  -1.038  10.255 -0.6225 -0.0286 -0.8368
  233MOL0     H30727  11.054  -1.148  10.116  0.8348 -2.2312  0.4227
  233MOL0     H30728  11.218  -1.181  10.378  2.5577 -0.0817 -0.1636
  233MOL0     H30729  11.239  -1.263  10.227 -1.5924 -0.8554  0.8465
  233MOL0     H30730  11.269  -0.964  10.289  2.5039 -0.0353  1.1343
  233MOL0     H30731  11.285  -1.029  10.125 -0.5219  0.0205 -0.1632
  233MOL0     H30732  11.496  -1.124  10.154  2.3818 -1.3251  2.0377
  233MOL0     H30733  11.466  -1.173  10.315  0.2724 -1.7350 -1.4673
  233MOL0     H30734  11.514  -0.945  10.405 -0.2946  3.1085 -1.1534
  233MOL0     H30735  11.639  -1.022  10.315 -0.8676 -0.4484  2.7620
  233MOL0     H30736  11.563  -0.885  10.118 -1.1517 -0.6239  0.1206
  233MOL0     H30737  11.638  -0.790  10.257  0.2723  0.9714 -0.5531
  233MOL0     H30738  10.744  -0.881  10.519  0.9222 -3.9586 -0.5526
  233MOL0     H30739  10.561  -0.701  10.491 -0.1430 -1.6359  2.2966
  233MOL0     H30740   9.977  -0.765  10.416 -0.4082 -0.4156 -1.8164
  233MOL0     H30741   9.812  -0.586  10.412 -0.6881  0.5879 -5.5774
  233MOL0     H30742   8.192   0.021  11.258  0.1068  1.3213  0.3714
  233MOL0     H30743   7.973  -0.089  11.199  3.1958 -1.2573  0.1894
  233MOL0     H30744   7.615  -0.108  10.808 -1.3352 -2.5139 -1.7874
  233MOL0     H30745   7.443  -0.237  10.751 -1.6937  1.9629 -1.0527
  233MOL0     H30746   7.324  -0.450  10.770 -1.1325 -1.8971 -1.4135
  233MOL0     H30747   7.214  -0.312  10.740  1.9523  0.7942  0.4932
  233MOL0     H30748   7.157  -0.602  10.810  1.5447  0.8502  2.1684
  233MOL0     H30749   7.038  -0.466  10.850 -0.1359  4.2148 -2.4292
  233MOL0     H30750   7.171  -0.518  10.581  0.4221 -3.1051  1.6743
  233MOL0     H30751   7.046  -0.389  10.621 -1.3036  0.2451 -0.4571
  233MOL0     H30752   6.971  -0.602  10.485  3.6922 -3.3540  0.0224
  233MOL0     H30753   6.983  -0.682  10.645 -3.0308  0.8100  1.9429
  233MOL0     H30754   6.604  -0.485  10.668 -1.9055 -1.2505  1.2898
  233MOL0     H30755   7.339  -0.281  11.177  0.2079 -3.4502 -0.9720
  233MOL0     H30756   7.536  -0.174  11.235 -0.3085 -1.0712  0.8653
  234MOL0     O30757   9.617   7.821  10.580 -0.0850  0.1860  0.1614
  234MOL0     C30758   9.515   7.851  10.639  0.4103 -0.6926  0.5491
  234MOL0     O30759   9.495   7.848  10.770 -0.0094  0.4596 -0.9392
  234MOL0     C30760   9.567   7.754  10.844 -0.6863 -0.0997 -0.7525
  234MOL0     C30761   9.586   7.619  10.809 -0.1653 -1.1924  0.5410
  234MOL0     C30762   9.660   7.536  10.879 -0.1024  0.4367  0.4976
  234MOL0     C30763   9.720   7.577  11.003 -0.8723  0.7863 -0.0105
  234MOL0     O30764   9.768   7.489  11.097  0.4087  0.4779 -0.1583
  234MOL0     C30765   9.900   7.503  11.149  0.2050  0.4904  0.3769
  234MOL0     C30766   9.972   7.366  11.147  0.4259  0.3099 -0.3060
  234MOL0     C30767  10.115   7.408  11.178 -0.3302  0.7868  0.3442
  234MOL0     C30768  10.204   7.293  11.132  0.0742  0.9216 -0.4549
  234MOL0     C30769  10.329   7.341  11.067 -0.0625  0.2767  0.1553
  234MOL0     C30770  10.304   7.400  10.924 -0.3578  0.8310 -0.5094
  234MOL0     C30771  10.405   7.500  10.857  0.5982 -0.1243  0.1564
  234MOL0     C30772  10.549   7.481  10.915 -0.3462 -0.7577  0.1862
  234MOL0     N30773  10.646   7.570  10.861  0.2464  0.5595  0.4785
  234MOL0     C30774  10.651   7.702  10.868 -0.3096 -0.1307  0.1332
  234MOL0     C30775  10.760   7.743  10.805  0.5711  0.9301  0.8379
  234MOL0     C30776  10.819   7.887  10.804 -0.7656 -0.2334  0.0973
  234MOL0     C30777  10.763   7.981  10.915 -0.0908 -0.5169 -0.4642
  234MOL0     C30778  10.845   8.104  10.958  0.3517 -0.5524  0.3139
  234MOL0     C30779  10.877   8.191  10.838 -0.1086 -0.2615 -0.3699
  234MOL0     O30780  10.936   8.321  10.877 -0.3496 -0.1429 -0.5014
  234MOL0     C30781  10.960   8.413  10.784 -0.5501  0.6788  0.6161
  234MOL0     C30782  10.922   8.395  10.644  0.0338 -0.0493 -0.6654
  234MOL0     C30783  10.950   8.499  10.565 -0.7614 -0.0778  0.0305
  234MOL0     C30784  11.017   8.615  10.600  0.3491  0.2307 -0.0009
  234MOL0     C30785  11.050   8.722  10.499 -0.3870  0.4187 -0.1326
  234MOL0     O30786  10.995   8.714  10.375 -0.5838  0.4584 -0.4132
  234MOL0     C30787  11.027   8.815  10.278 -0.4856  0.7606  0.6922
  234MOL0     C30788  10.974   8.939  10.278 -0.6301 -0.6209 -0.2080
  234MOL0     C30789  11.012   9.032  10.176 -0.8571 -0.3121  0.3276
  234MOL0     C30790  11.089   8.997  10.063 -0.2845  0.4815  0.5801
  234MOL0     O30791  11.113   9.099   9.969  0.1757  0.8492  0.4196
  234MOL0     C30792  11.242   9.112   9.909  0.5940  0.5859  0.4200
  234MOL0     C30793  11.347   9.152  10.013 -0.9213  0.4282 -0.4049
  234MOL0     C30794  11.315   9.272  10.105 -0.6023 -0.0245 -0.3732
  234MOL0     C30795  11.424   9.300  10.209  0.2056 -0.2079  0.2428
  234MOL0     C30796  11.431   9.216  10.340 -1.2034  0.5184 -0.2978
  234MOL0     C30797  11.330   9.274  10.437  0.5188  0.1083  1.5528
  234MOL0     C30798  11.317   9.193  10.560 -0.3959 -1.3058  0.2729
  234MOL0     C30799  11.241   9.274  10.667 -0.5069  0.5796 -0.2037
  234MOL0    Cl30800  11.325   9.420  10.724  0.3604 -0.0291  0.2503
  234MOL0     C30801  11.132   8.864  10.063  0.6758  0.0052  0.6094
  234MOL0     C30802  11.104   8.776  10.165 -0.1075  0.7844  0.1409
  234MOL0     O30803  11.118   8.810  10.539 -0.8342 -0.5715 -0.9445
  234MOL0     C30804  11.037   8.634  10.740  0.3604  0.5913  0.0595
  234MOL0     C30805  11.009   8.532  10.831  0.0403 -0.4198  0.2349
  234MOL0     N30806  10.815   7.628  10.743  0.5826 -0.3189 -0.1478
  234MOL0     N30807  10.750   7.527  10.784  0.3460 -0.2401 -0.1184
  234MOL0     C30808   9.698   7.710  11.048  0.3666  0.9288 -0.9386
  234MOL0     C30809   9.623   7.797  10.968 -0.4728 -0.6407  0.8921
  234MOL0     C30810   9.394   7.870  10.558 -0.0356 -0.2132 -0.8167
  234MOL0     C30811   9.414   7.905  10.421  0.7565  0.2693  0.5340
  234MOL0     C30812   9.301   7.907  10.335  0.0829 -0.1583 -0.0186
  234MOL0     C30813   9.170   7.888  10.396  0.5327  0.0163 -1.1591
  234MOL0     O30814   9.052   7.879  10.324 -0.0996 -0.1100  0.7337
  234MOL0     C30815   9.037   7.880  10.180 -1.2919  0.7509  0.3429
  234MOL0     C30816   8.898   7.914  10.132  0.2537  0.9824  1.0639
  234MOL0     C30817   8.844   8.057  10.173 -0.1509  0.4047  0.4496
  234MOL0     C30818   8.921   8.193  10.158 -0.1093 -0.5153 -0.4402
  234MOL0     C30819   9.043   8.196  10.238 -0.4854 -0.6219 -0.2978
  234MOL0     C30820   9.138   8.210  10.314  0.1021 -0.6303 -0.4327
  234MOL0     C30821   9.152   7.860  10.530 -0.2508 -0.2449 -0.5053
  234MOL0     C30822   9.266   7.863  10.607 -0.9452 -0.7952 -0.5867
  234MOL0     H30823   9.542   7.578  10.719 -1.5177  1.4285 -0.0972
  234MOL0     H30824   9.640   7.431  10.858 -4.0260  1.1901 -0.1908
  234MOL0     H30825   9.879   7.525  11.254 -0.6886 -1.6278  0.6847
  234MOL0     H30826   9.968   7.570  11.095 -1.1985 -0.4863 -2.8432
  234MOL0     H30827   9.962   7.323  11.047 -2.4150 -0.3190  0.1820
  234MOL0     H30828   9.927   7.290  11.211  0.4344 -1.0086 -1.8209
  234MOL0     H30829  10.136   7.417  11.285 -0.1868  1.2516  0.2787
  234MOL0     H30830  10.150   7.501  11.132  2.1647 -1.7679 -3.4432
  234MOL0     H30831  10.206   7.233  11.223 -0.6071  1.6543  0.0579
  234MOL0     H30832  10.152   7.231  11.058 -2.9569 -1.5835  3.3391
  234MOL0     H30833  10.401   7.259  11.072 -1.1658 -0.8388 -1.4242
  234MOL0     H30834  10.362   7.425  11.130 -1.1606 -0.8575  2.3850
  234MOL0     H30835  10.208   7.454  10.918  1.0417  3.4822 -0.4143
  234MOL0     H30836  10.297   7.312  10.859  3.0271  0.4703 -0.5309
  234MOL0     H30837  10.402   7.485  10.749  1.3172 -3.6751  0.5386
  234MOL0     H30838  10.371   7.603  10.873 -1.1547 -0.5574 -0.4954
  234MOL0     H30839  10.575   7.376  10.895 -0.6429 -0.4404 -2.2099
  234MOL0     H30840  10.543   7.497  11.023  0.7347  0.8915  0.0220
  234MOL0     H30841  10.577   7.763  10.919 -1.1223  0.8522 -2.0811
  234MOL0     H30842  10.800   7.942  10.711 -0.6182  0.0368  0.2258
  234MOL0     H30843  10.927   7.886  10.821 -0.7775  0.8668  0.3432
  234MOL0     H30844  10.756   7.923  11.007  1.0198  0.8822  0.5592
  234MOL0     H30845  10.662   8.013  10.889 -0.7169  1.1284  3.3064
  234MOL0     H30846  10.784   8.158  11.031 -0.5624 -0.3045 -0.6062
  234MOL0     H30847  10.933   8.066  11.011 -0.3639  0.0976  2.0379
  234MOL0     H30848  10.785   8.216  10.785 -0.1750 -1.8792 -1.0923
  234MOL0     H30849  10.942   8.147  10.762 -2.4114 -1.0258 -2.0074
  234MOL0     H30850  10.874   8.310  10.596 -0.4489 -1.9121  2.7867
  234MOL0     H30851  10.939   8.486  10.457 -0.7855 -0.2363  0.0517
  234MOL0     H30852  10.921   8.970  10.368 -2.5838  3.8442 -2.5728
  234MOL0     H30853  10.973   9.133  10.186 -2.8350 -1.0227  0.3812
  234MOL0     H30854  11.223   9.190   9.835  0.9681 -0.4141 -0.7646
  234MOL0     H30855  11.266   9.017   9.861  2.8294  0.4916  1.5799
  234MOL0     H30856  11.440   9.173   9.960 -2.0306  2.3551 -1.7094
  234MOL0     H30857  11.371   9.062  10.070 -1.2161 -0.4434 -1.6240
  234MOL0     H30858  11.223   9.255  10.162 -0.7792  2.5712  0.2519
  234MOL0     H30859  11.295   9.369  10.058  1.6767  0.1507 -1.1068
  234MOL0     H30860  11.516   9.266  10.160 -0.3853 -2.6763  0.6752
  234MOL0     H30861  11.433   9.407  10.231 -0.8458 -0.0262 -0.1524
  234MOL0     H30862  11.533   9.214  10.380 -0.8260 -2.1997 -1.2526
  234MOL0     H30863  11.422   9.108  10.327  1.4819  0.2151 -0.0803
  234MOL0     H30864  11.231   9.278  10.389  1.0610 -1.3533  0.2079
  234MOL0     H30865  11.345   9.381  10.449 -1.4426  1.5427 -4.7913
  234MOL0     H30866  11.270   9.095  10.549  1.3562 -2.2130  0.5942
  234MOL0     H30867  11.423   9.172  10.577 -0.4197 -2.9935 -1.3397
  234MOL0     H30868  11.243   9.206  10.753  4.4111 -0.1350 -0.5682
  234MOL0     H30869  11.142   9.301  10.630 -0.9459 -1.0078 -0.2554
  234MOL0     H30870  11.178   8.821   9.975 -3.4115 -3.6232 -0.1095
  234MOL0     H30871  11.140   8.674  10.158  1.1033  1.2428 -0.6182
  234MOL0     H30872  11.089   8.721  10.779  2.4451 -0.4102 -0.3461
  234MOL0     H30873  11.024   8.547  10.937  4.1180 -1.5837 -0.0129
  234MOL0     H30874   9.722   7.748  11.147 -0.6970  1.9233 -1.0386
  234MOL0     H30875   9.614   7.899  11.003  4.4287 -0.1785  1.4025
  234MOL0     H30876   9.512   7.939  10.388  1.6145 -0.6283  2.0334
  234MOL0     H30877   9.310   7.946  10.234 -1.1644  0.7211  0.1750
  234MOL0     H30878   9.075   7.788  10.135 -2.6577  0.4540 -0.2544
  234MOL0     H30879   9.094   7.964  10.139  1.0505  0.6481  3.0580
  234MOL0     H30880   8.902   7.906  10.023  0.8903 -0.9785  1.2027
  234MOL0     H30881   8.825   7.835  10.155 -2.0383  0.0866 -6.4622
  234MOL0     H30882   8.825   8.039  10.279 -1.6507 -1.4845 -0.0876
  234MOL0     H30883   8.750   8.069  10.118  0.3263 -0.6433 -0.6642
  234MOL0     H30884   8.947   8.217  10.054 -0.8191  0.3590 -0.4319
  234MOL0     H30885   8.852   8.271  10.193 -1.3343 -0.4170 -2.8721
  234MOL0     H30886   9.218   8.215  10.385 -1.4807 -1.9447  1.5533
  234MOL0     H30887   9.048   7.839  10.552 -0.8947 -0.6016 -3.4773
  234MOL0     H30888   9.251   7.848  10.713 -1.4655 -2.0110 -0.8115
  235MOL0     O30889  11.059   3.655   7.675 -0.6029  1.0451  0.0321
  235MOL0     C30890  11.169   3.658   7.739  0.3843 -0.3031 -0.5787
  235MOL0     O30891  11.191   3.584   7.865  0.2313 -0.2605  0.5296
  235MOL0     C30892  11.078   3.546   7.935  0.0624 -0.3538 -0.2994
  235MOL0     C30893  11.074   3.412   7.968 -0.0879 -0.6781  0.5055
  235MOL0     C30894  10.961   3.352   8.018 -0.1712  0.0563  0.5005
  235MOL0     C30895  10.839   3.435   8.043 -0.4981 -0.5491 -0.5949
  235MOL0     O30896  10.733   3.375   8.102 -0.0294  0.4386 -0.1520
  235MOL0     C30897  10.611   3.453   8.090 -0.3229  0.0525 -0.0626
  235MOL0     C30898  10.477   3.386   8.120  0.0716 -0.5424 -0.5700
  235MOL0     C30899  10.467   3.233   8.091  0.6243  0.1326  0.5006
  235MOL0     C30900  10.328   3.184   8.110 -0.2222 -0.1058  0.4560
  235MOL0     C30901  10.296   3.040   8.064  0.9063 -0.3137 -0.1548
  235MOL0     C30902  10.257   3.028   7.911  1.4068 -0.3480 -0.1243
  235MOL0     C30903  10.272   2.882   7.855  0.0213 -0.9131 -0.3869
  235MOL0     C30904  10.302   2.881   7.702 -0.8388 -0.0658 -0.4745
  235MOL0     N30905  10.411   2.968   7.661  0.2087  0.4623  0.5214
  235MOL0     C30906  10.538   2.967   7.719 -0.1821  0.0768  0.3519
  235MOL0     C30907  10.597   3.071   7.665  0.9394  0.2632  0.7137
  235MOL0     C30908  10.728   3.126   7.707  0.3009 -0.0191  0.8984
  235MOL0     C30909  10.785   3.229   7.605 -0.4372  0.0117 -1.2412
  235MOL0     C30910  10.919   3.292   7.657  0.2470 -1.1747 -0.5350
  235MOL0     C30911  11.040   3.196   7.652  0.1812  0.3376  0.4709
  235MOL0     O30912  11.028   3.102   7.757 -0.5102 -0.6644 -0.1743
  235MOL0     C30913  11.138   3.029   7.798  0.4306 -0.0038  0.5480
  235MOL0     C30914  11.147   2.961   7.917  0.5384 -1.0752 -0.1462
  235MOL0     C30915  11.255   2.876   7.950  0.8421  0.2761 -0.7307
  235MOL0     C30916  11.368   2.879   7.867 -0.2298  0.0359 -0.0401
  235MOL0     C30917  11.493   2.806   7.900 -0.2145  0.0035  0.9474
  235MOL0     O30918  11.495   2.742   8.023 -0.5561  0.3925 -0.2260
  235MOL0     C30919  11.613   2.675   8.056  1.2372 -0.3457 -0.1355
  235MOL0     C30920  11.681   2.729   8.166 -0.4792  0.1292 -0.5386
  235MOL0     C30921  11.798   2.663   8.210  0.4147 -0.2373  0.1245
  235MOL0     C30922  11.859   2.562   8.135 -0.6484 -0.5525 -0.1365
  235MOL0     O30923  11.988   2.511   8.156 -0.1884  0.5485 -0.4460
  235MOL0     C30924  12.069   2.572   8.262  0.0792  0.4563  0.8746
  235MOL0     C30925  12.210   2.504   8.243 -0.7825  0.0636 -0.0581
  235MOL0     C30926  12.211   2.361   8.299  0.7624  0.6002  0.1713
  235MOL0     C30927  12.329   2.277   8.234  0.5104 -0.7795  0.0382
  235MOL0     C30928  12.290   2.136   8.223  0.5594  0.2879 -0.1891
  235MOL0     C30929  12.399   2.054   8.155  0.2116 -0.3329  0.3455
  235MOL0     C30930  12.409   2.059   7.996 -0.4032  0.3842 -0.3855
  235MOL0     C30931  12.527   2.001   7.930 -0.4993 -0.0466  0.1869
  235MOL0    Cl30932  12.551   2.061   7.756 -0.2393 -0.1054  0.2574
  235MOL0     C30933  11.785   2.513   8.020 -0.8352  0.0308  0.4115
  235MOL0     C30934  11.658   2.565   7.985 -0.4617  0.0296  0.9312
  235MOL0     O30935  11.586   2.809   7.819 -0.0374 -0.9371  0.8255
  235MOL0     C30936  11.366   2.960   7.753 -0.2830  0.0686 -0.2981
  235MOL0     C30937  11.257   3.031   7.711  0.2275 -0.2807  0.0376
  235MOL0     N30938  10.514   3.135   7.574  0.7530  0.1280 -0.2195
  235MOL0     N30939  10.396   3.073   7.573 -0.3537 -0.4690 -0.3935
  235MOL0     C30940  10.850   3.574   8.021 -0.5530 -0.5525  0.3236
  235MOL0     C30941  10.967   3.620   7.965  0.5665  0.1980 -0.0482
  235MOL0     C30942  11.285   3.733   7.695  0.1665 -1.0969  0.4057
  235MOL0     C30943  11.279   3.807   7.574  0.8152  0.1227 -0.1299
  235MOL0     C30944  11.387   3.875   7.525 -0.2721 -0.9469 -0.3864
  235MOL0     C30945  11.511   3.852   7.582  0.2039 -0.5744  0.4988
  235MOL0     O30946  11.605   3.926   7.509 -0.3619 -0.5021 -0.0643
  235MOL0     C30947  11.742   3.912   7.540  0.0583  0.5029 -0.4339
  235MOL0     C30948  11.821   3.981   7.431 -0.2234 -0.3001 -0.4417
  235MOL0     C30949  11.975   3.964   7.435 -0.3042  0.2522 -0.3995
  235MOL0     C30950  12.045   4.106   7.452 -0.0444  0.9622 -0.1565
  235MOL0     C30951  11.975   4.182   7.564 -0.1401  0.7799  0.2178
  235MOL0     C30952  11.942   4.232   7.666  0.5139 -0.7253 -1.1895
  235MOL0     C30953  11.521   3.799   7.711  0.0727  0.0404  0.5600
  235MOL0     C30954  11.410   3.732   7.766  1.0961 -0.4620  0.6282
  235MOL0     H30955  11.168   3.362   7.947  0.3069  0.2207  0.0478
  235MOL0     H30956  10.949   3.247   8.043 -3.4768  0.5751  1.5994
  235MOL0     H30957  10.618   3.492   7.987  1.7085  3.4101  1.1919
  235MOL0     H30958  10.620   3.545   8.148 -0.8372  0.3532 -0.4477
  235MOL0     H30959  10.396   3.442   8.072  1.3995  2.7855  0.8051
  235MOL0     H30960  10.445   3.394   8.224  3.9075 -1.9504  0.8977
  235MOL0     H30961  10.543   3.173   8.141  2.5028 -0.5494 -2.8657
  235MOL0     H30962  10.491   3.219   7.985  1.5589  3.4757  0.1735
  235MOL0     H30963  10.314   3.183   8.218 -0.4148 -1.0170  0.4325
  235MOL0     H30964  10.248   3.245   8.068 -1.1520 -1.9073 -0.5174
  235MOL0     H30965  10.214   2.995   8.120  0.7423  2.3292  1.9006
  235MOL0     H30966  10.387   2.980   8.078  0.4525 -1.5518 -2.1069
  235MOL0     H30967  10.325   3.102   7.868 -0.5444  0.9679 -1.0487
  235MOL0     H30968  10.157   3.066   7.893  1.8141 -0.1999 -2.3589
  235MOL0     H30969  10.351   2.845   7.921 -0.5859  1.0439  1.5723
  235MOL0     H30970  10.181   2.826   7.878 -0.0280 -1.2250 -1.3095
  235MOL0     H30971  10.211   2.910   7.650 -0.5063  0.2370 -0.8908
  235MOL0     H30972  10.326   2.779   7.669 -2.1847 -0.2535 -0.9003
  235MOL0     H30973  10.583   2.886   7.777 -1.3546 -1.7508 -1.1721
  235MOL0     H30974  10.790   3.039   7.730  0.6741 -0.1411 -0.5313
  235MOL0     H30975  10.719   3.175   7.805 -1.3137  0.7175  0.4105
  235MOL0     H30976  10.723   3.319   7.593  2.2729  2.3922  0.9504
  235MOL0     H30977  10.800   3.187   7.505  0.5732 -0.4697 -0.9034
  235MOL0     H30978  10.951   3.382   7.603  0.4457 -0.9409 -0.0292
  235MOL0     H30979  10.902   3.332   7.757 -1.1539 -4.0240  0.4526
  235MOL0     H30980  11.134   3.252   7.657 -0.5288  1.9766 -2.4543
  235MOL0     H30981  11.031   3.148   7.554 -2.1209 -1.8665  1.6373
  235MOL0     H30982  11.063   2.967   7.985  0.5012  0.9173 -0.2923
  235MOL0     H30983  11.263   2.825   8.045  0.5327  0.4588 -0.6064
  235MOL0     H30984  11.639   2.810   8.224  3.2507  0.2267  2.5004
  235MOL0     H30985  11.836   2.707   8.302 -5.0937  1.8433  1.8633
  235MOL0     H30986  12.033   2.551   8.363  4.5074 -4.7551  1.8488
  235MOL0     H30987  12.080   2.678   8.234 -0.7445 -0.0611 -1.6697
  235MOL0     H30988  12.293   2.551   8.296  1.4363 -2.6755 -0.8840
  235MOL0     H30989  12.227   2.505   8.135 -2.0723 -0.4762 -0.2912
  235MOL0     H30990  12.117   2.312   8.271 -0.5329  1.8844  2.0989
  235MOL0     H30991  12.204   2.352   8.407 -1.8610 -1.4301 -0.0753
  235MOL0     H30992  12.346   2.303   8.129 -3.8583  1.1935 -0.4079
  235MOL0     H30993  12.417   2.292   8.297  0.5254 -2.1245  0.3664
  235MOL0     H30994  12.190   2.108   8.189  0.0955 -0.1521  1.4778
  235MOL0     H30995  12.297   2.102   8.327  0.5341  2.7246  0.6595
  235MOL0     H30996  12.373   1.954   8.193  0.0013  0.0601  1.2529
  235MOL0     H30997  12.498   2.093   8.180  0.7373 -1.7774  0.6220
  235MOL0     H30998  12.317   2.022   7.950  0.5660 -1.6559 -0.7733
  235MOL0     H30999  12.406   2.167   7.976  1.9295  0.2288 -2.0218
  235MOL0     H31000  12.501   1.894   7.925 -0.3095 -0.0843 -0.0068
  235MOL0     H31001  12.615   2.002   7.995 -1.9409  0.5761  2.2385
  235MOL0     H31002  11.816   2.430   7.957  1.8101  1.2845 -0.0615
  235MOL0     H31003  11.591   2.522   7.912  0.2336  1.2238 -0.4511
  235MOL0     H31004  11.459   2.978   7.700  0.0647  0.4827  0.4376
  235MOL0     H31005  11.264   3.090   7.620  2.9337 -0.4016  0.0725
  235MOL0     H31006  10.774   3.650   8.035  1.6096  1.7178  0.6225
  235MOL0     H31007  10.967   3.729   7.970  1.9768  0.1474  2.4532
  235MOL0     H31008  11.195   3.805   7.506  2.3989 -1.6385 -2.1687
  235MOL0     H31009  11.380   3.930   7.433 -1.1954 -2.9978 -1.6172
  235MOL0     H31010  11.752   3.803   7.535 -2.6058  0.1124  1.3044
  235MOL0     H31011  11.768   3.938   7.643  1.0045 -4.2478  0.7737
  235MOL0     H31012  11.781   3.936   7.340  0.2234 -2.0535  0.1927
  235MOL0     H31013  11.788   4.085   7.429  0.5471  0.0101  1.2361
  235MOL0     H31014  12.018   3.915   7.347 -0.3496 -3.5000  1.4752
  235MOL0     H31015  12.009   3.906   7.521 -1.6739  1.7880  1.2464
  235MOL0     H31016  12.148   4.081   7.480 -1.7041 -2.7538  3.8665
  235MOL0     H31017  12.040   4.159   7.357  0.6412  2.0522  0.3975
  235MOL0     H31018  11.898   4.273   7.756 -2.1570 -0.7348 -2.3827
  235MOL0     H31019  11.616   3.789   7.762  0.4434  1.6897  0.2719
  235MOL0     H31020  11.438   3.667   7.848 -2.5282 -2.3149  0.5832
  236MOL0     O31021   4.980   4.735   2.452 -0.0172 -0.0668  0.8270
  236MOL0     C31022   4.867   4.686   2.458 -0.5200 -0.5504  0.8422
  236MOL0     O31023   4.816   4.583   2.383 -0.3761  0.0630  0.5438
  236MOL0     C31024   4.881   4.517   2.283  0.3865  0.5742 -1.1003
  236MOL0     C31025   5.021   4.506   2.266  0.5664  0.0319 -0.0653
  236MOL0     C31026   5.075   4.445   2.153  0.0890  0.1017 -0.6900
  236MOL0     C31027   4.989   4.379   2.059  0.0670 -0.2977  0.2549
  236MOL0     O31028   5.052   4.307   1.951  0.2849  0.1736 -0.4458
  236MOL0     C31029   4.962   4.276   1.842  0.4248 -0.2571  0.0579
  236MOL0     C31030   5.043   4.208   1.732  0.3974 -0.8778 -0.8588
  236MOL0     C31031   4.974   4.214   1.601  1.1191  0.8716  0.5277
  236MOL0     C31032   5.028   4.117   1.490  0.3068 -0.9805  0.6094
  236MOL0     C31033   5.022   4.196   1.351  0.1302  0.2722  0.4576
  236MOL0     C31034   4.881   4.217   1.297 -0.0705  0.3714 -0.2993
  236MOL0     C31035   4.878   4.270   1.150  0.3644  0.0776 -0.1678
  236MOL0     C31036   4.884   4.424   1.129  0.0052  0.0159 -0.3023
  236MOL0     N31037   4.863   4.450   0.989 -0.0339 -0.0722  0.2507
  236MOL0     C31038   4.766   4.535   0.937  0.2207 -0.1503  0.6969
  236MOL0     C31039   4.791   4.535   0.803  0.3102  0.9669  0.4183
  236MOL0     C31040   4.701   4.608   0.700  0.1714 -0.7717  0.2842
  236MOL0     C31041   4.573   4.536   0.678  0.7932  0.2932 -0.6954
  236MOL0     C31042   4.454   4.619   0.617 -1.1349 -0.1432 -1.0995
  236MOL0     C31043   4.475   4.670   0.474  0.2286 -0.2904  0.3943
  236MOL0     O31044   4.564   4.778   0.456 -0.1161  0.0217  0.4259
  236MOL0     C31045   4.614   4.816   0.336  0.1674  0.0665  0.3140
  236MOL0     C31046   4.750   4.833   0.327  0.4895  0.7009  0.0931
  236MOL0     C31047   4.804   4.836   0.197 -0.5152 -0.7761  1.0735
  236MOL0     C31048   4.728   4.857   0.080  0.1013 -0.6465  0.5728
  236MOL0     C31049   4.792   4.874  -0.049 -0.4215  0.0031 -0.0028
  236MOL0     O31050   4.725   4.942  -0.151 -0.2684 -0.0602 -0.4253
  236MOL0     C31051   4.774   4.947  -0.281  0.4063 -0.0899 -0.2308
  236MOL0     C31052   4.684   4.928  -0.389  1.0000 -0.7882  0.3281
  236MOL0     C31053   4.732   4.939  -0.522  0.2248  0.4174 -0.1651
  236MOL0     C31054   4.862   4.980  -0.551 -0.5068 -1.1685 -0.4570
  236MOL0     O31055   4.897   5.006  -0.682 -0.4037 -0.0592 -0.0685
  236MOL0     C31056   5.036   5.008  -0.709  0.4798 -0.6412  0.1422
  236MOL0     C31057   5.079   5.070  -0.838 -0.7236  0.2765  0.2738
  236MOL0     C31058   5.208   4.997  -0.880 -0.5377 -0.0806 -0.2288
  236MOL0     C31059   5.319   5.004  -0.780 -0.0653 -0.8547 -0.3917
  236MOL0     C31060   5.457   4.967  -0.818  0.0255 -0.9830 -0.3448
  236MOL0     C31061   5.466   4.845  -0.904 -0.6180  0.1388 -0.4021
  236MOL0     C31062   5.423   4.718  -0.821  0.0347 -0.2092  0.5470
  236MOL0     C31063   5.444   4.591  -0.905 -0.8428  0.9321  0.2153
  236MOL0    Cl31064   5.623   4.545  -0.910 -0.1435  0.1186  0.2886
  236MOL0     C31065   4.950   4.976  -0.445  0.1725 -0.2350  0.2826
  236MOL0     C31066   4.908   4.964  -0.312 -0.7128  0.0368  1.1786
  236MOL0     O31067   4.903   4.819  -0.062  0.1062 -0.3593 -0.1585
  236MOL0     C31068   4.590   4.869   0.099  0.9958 -0.0765  0.1789
  236MOL0     C31069   4.534   4.841   0.225 -0.3451 -0.2105 -0.2430
  236MOL0     N31070   4.893   4.456   0.775  0.2453  0.5767 -0.7313
  236MOL0     N31071   4.935   4.397   0.883 -0.1544 -0.3945  0.1911
  236MOL0     C31072   4.849   4.386   2.083 -0.6410 -0.1038  0.3628
  236MOL0     C31073   4.796   4.453   2.195  0.3552 -0.3675  0.0487
  236MOL0     C31074   4.767   4.761   2.541 -0.4996 -0.5491 -0.9725
  236MOL0     C31075   4.658   4.685   2.598  0.1224 -0.6576 -0.2681
  236MOL0     C31076   4.588   4.745   2.699 -0.7134  0.6230 -0.2181
  236MOL0     C31077   4.599   4.883   2.727 -0.1223 -0.7296 -0.0532
  236MOL0     O31078   4.528   4.945   2.829 -0.0847  0.3730  0.4680
  236MOL0     C31079   4.405   4.894   2.894 -0.4091  0.1758 -0.1204
  236MOL0     C31080   4.390   4.984   3.019 -0.2329 -0.0722  0.2632
  236MOL0     C31081   4.348   5.132   3.002 -0.3084 -0.3858 -0.4407
  236MOL0     C31082   4.419   5.223   3.111  0.1209 -0.4532 -0.1921
  236MOL0     C31083   4.367   5.363   3.128 -0.5341  0.4163 -0.7036
  236MOL0     C31084   4.341   5.477   3.140  1.3632  1.1271  0.7326
  236MOL0     C31085   4.708   4.953   2.684  0.3625 -0.1457 -0.4538
  236MOL0     C31086   4.799   4.893   2.595 -0.0007  0.9473  0.2562
  236MOL0     H31087   5.107   4.532   2.327 -0.0991 -1.4538  1.6016
  236MOL0     H31088   5.180   4.457   2.128  0.3070 -2.6012 -1.3472
  236MOL0     H31089   4.923   4.370   1.801 -2.1992 -1.0383  0.5439
  236MOL0     H31090   4.877   4.215   1.876  0.0078  1.1106  1.6184
  236MOL0     H31091   5.041   4.101   1.756  1.0425 -1.2851 -2.4797
  236MOL0     H31092   5.139   4.259   1.748 -0.4823  0.1312  1.6982
  236MOL0     H31093   4.981   4.316   1.560  1.7919  1.2888  1.6395
  236MOL0     H31094   4.871   4.181   1.619  2.4701 -3.3478  1.6057
  236MOL0     H31095   5.131   4.094   1.518  0.9558  0.1000 -0.8050
  236MOL0     H31096   4.976   4.021   1.486  2.1322 -2.0214  0.7360
  236MOL0     H31097   5.077   4.124   1.290  0.1869 -0.4796  1.3730
  236MOL0     H31098   5.064   4.297   1.352  0.1756  0.2654 -0.2652
  236MOL0     H31099   4.820   4.274   1.368 -0.3068 -1.6818  1.2632
  236MOL0     H31100   4.828   4.122   1.313 -1.9303  1.6567  1.9359
  236MOL0     H31101   4.954   4.217   1.092 -0.5045  0.7542 -1.9834
  236MOL0     H31102   4.790   4.229   1.099 -2.1775  0.5228  3.4041
  236MOL0     H31103   4.982   4.469   1.151  1.8327 -3.2388 -1.1104
  236MOL0     H31104   4.810   4.463   1.200 -2.2536 -3.6250 -0.4433
  236MOL0     H31105   4.685   4.582   0.993  0.7685  0.4709  0.9821
  236MOL0     H31106   4.745   4.627   0.602  1.7985  1.6179  1.3665
  236MOL0     H31107   4.687   4.706   0.747 -1.3234 -0.8768  0.0839
  236MOL0     H31108   4.532   4.494   0.770  1.1759  1.6379  0.0997
  236MOL0     H31109   4.593   4.446   0.617 -5.0136 -2.6630  1.0648
  236MOL0     H31110   4.363   4.559   0.630 -0.8412 -0.0494  2.3909
  236MOL0     H31111   4.431   4.702   0.684  0.7377 -0.2908 -0.2124
  236MOL0     H31112   4.376   4.699   0.437  0.1500 -1.6845 -0.5649
  236MOL0     H31113   4.507   4.593   0.403  1.3760  0.4497  0.0891
  236MOL0     H31114   4.804   4.830   0.421  2.9712 -0.4080 -1.2488
  236MOL0     H31115   4.912   4.831   0.187 -0.6624 -2.7238  0.1220
  236MOL0     H31116   4.578   4.908  -0.375  0.4655 -1.5173 -3.4736
  236MOL0     H31117   4.662   4.932  -0.606 -1.1322  0.3781  0.9359
  236MOL0     H31118   5.067   4.904  -0.699 -1.2561 -1.4559 -2.0789
  236MOL0     H31119   5.087   5.063  -0.630 -0.6756  1.9827 -0.8202
  236MOL0     H31120   5.097   5.177  -0.825  0.2003  0.3055 -1.0289
  236MOL0     H31121   5.005   5.056  -0.917  0.1932  0.1498 -0.5909
  236MOL0     H31122   5.237   5.026  -0.982  1.1064 -1.9852 -0.3626
  236MOL0     H31123   5.183   4.891  -0.893 -2.0961  0.3067 -0.6023
  236MOL0     H31124   5.322   5.111  -0.757  0.8556 -0.6811 -1.2712
  236MOL0     H31125   5.278   4.955  -0.691  0.4543 -1.0920 -0.2808
  236MOL0     H31126   5.514   4.959  -0.725 -0.6340  0.1399  0.1794
  236MOL0     H31127   5.499   5.047  -0.880  0.6151 -0.7020  0.4022
  236MOL0     H31128   5.566   4.829  -0.944 -0.7418 -0.8195 -0.3495
  236MOL0     H31129   5.402   4.848  -0.992  0.6736 -2.5333 -1.5505
  236MOL0     H31130   5.495   4.713  -0.739  0.5789 -1.8396  0.0147
  236MOL0     H31131   5.323   4.710  -0.778 -1.7766  1.0626 -2.9923
  236MOL0     H31132   5.420   4.619  -1.008  0.8363  0.1613 -0.4161
  236MOL0     H31133   5.389   4.505  -0.865  3.2976 -1.4403  1.3876
  236MOL0     H31134   5.058   4.991  -0.448  0.3759 -1.0063 -4.5689
  236MOL0     H31135   4.972   4.967  -0.225 -1.6522 -0.3073  1.8978
  236MOL0     H31136   4.509   4.889   0.029 -1.5509 -3.1609  1.9561
  236MOL0     H31137   4.426   4.847   0.235 -0.5095 -3.0520  0.4737
  236MOL0     H31138   4.773   4.336   2.024 -1.2103 -0.7165  1.5636
  236MOL0     H31139   4.689   4.462   2.208  0.2283  0.3745 -1.2877
  236MOL0     H31140   4.653   4.579   2.576 -2.5327 -0.5283 -0.6383
  236MOL0     H31141   4.523   4.676   2.752 -1.3968  0.2104 -1.5577
  236MOL0     H31142   4.413   4.789   2.922  2.2695  0.6556  1.2895
  236MOL0     H31143   4.329   4.924   2.821  1.7339  2.1248 -1.6916
  236MOL0     H31144   4.311   4.955   3.090 -2.2284 -2.4813 -2.6777
  236MOL0     H31145   4.483   4.963   3.072  0.9593  0.5024 -1.5219
  236MOL0     H31146   4.240   5.148   2.997 -0.5206  0.3774  3.6414
  236MOL0     H31147   4.399   5.166   2.911  2.1009 -0.4967  0.7752
  236MOL0     H31148   4.413   5.176   3.209  0.7694  1.7461  0.9684
  236MOL0     H31149   4.526   5.235   3.091  0.6214 -0.9470  1.9228
  236MOL0     H31150   4.324   5.583   3.143  2.3456  1.3515 -0.5496
  236MOL0     H31151   4.734   5.045   2.735 -1.7756  2.0052 -2.9737
  236MOL0     H31152   4.898   4.934   2.582  0.4808  0.0787  1.0262
  237MOL0     O31153   2.887   3.780   1.841 -0.2042 -0.0966 -0.4254
  237MOL0     C31154   2.794   3.858   1.831 -0.5172 -0.3000  0.5012
  237MOL0     O31155   2.693   3.895   1.927  0.6793  0.9891 -0.0545
  237MOL0     C31156   2.701   3.840   2.056  0.3499  0.4958  0.0286
  237MOL0     C31157   2.731   3.704   2.089 -0.0780 -0.3034 -0.0555
  237MOL0     C31158   2.723   3.672   2.225 -0.4150 -0.5631 -0.3743
  237MOL0     C31159   2.685   3.756   2.329 -0.6196  0.3581  0.1231
  237MOL0     O31160   2.683   3.728   2.463 -0.6621 -0.2079  0.7839
  237MOL0     C31161   2.733   3.598   2.513  1.1380  0.0801 -0.6767
  237MOL0     C31162   2.718   3.589   2.666  0.4803  0.3193  0.0350
  237MOL0     C31163   2.779   3.454   2.708 -0.1521 -0.3646 -0.0899
  237MOL0     C31164   2.775   3.423   2.855  0.4668 -0.1383 -0.4110
  237MOL0     C31165   2.836   3.292   2.893 -0.2473 -0.5398 -0.9552
  237MOL0     C31166   2.825   3.283   3.047  0.0460 -0.3663 -0.6080
  237MOL0     C31167   2.833   3.136   3.090  0.6925 -0.2333 -0.5384
  237MOL0     C31168   2.782   3.124   3.234 -1.2395 -0.1016 -0.5735
  237MOL0     N31169   2.853   3.021   3.304 -0.2861  0.1310  0.2654
  237MOL0     C31170   2.848   2.891   3.270  0.0545 -0.8957 -0.3467
  237MOL0     C31171   2.899   2.821   3.370 -0.2931  0.3121  0.3711
  237MOL0     C31172   2.929   2.668   3.385  0.5895  0.1655 -0.0698
  237MOL0     C31173   2.927   2.590   3.252  0.4446 -0.3933  0.4267
  237MOL0     C31174   3.046   2.632   3.158 -0.6705 -0.5260 -1.0902
  237MOL0     C31175   3.035   2.563   3.019 -0.7119 -0.0655  0.5720
  237MOL0     O31176   2.917   2.590   2.942  0.0952 -0.0369  0.4885
  237MOL0     C31177   2.882   2.706   2.886 -0.2823  0.3208 -0.0582
  237MOL0     C31178   2.752   2.718   2.842 -0.0001  0.0419 -0.4527
  237MOL0     C31179   2.706   2.830   2.783 -1.2207 -0.4917  0.4467
  237MOL0     C31180   2.802   2.941   2.745  0.2590  0.8192  1.1295
  237MOL0     C31181   2.751   3.046   2.664  0.8122 -0.1228  0.1181
  237MOL0     O31182   2.613   3.056   2.650  0.0792  0.0266  0.0368
  237MOL0     C31183   2.552   3.148   2.566  0.4588  0.3994  0.1701
  237MOL0     C31184   2.610   3.205   2.449 -0.1812 -0.3333  0.0053
  237MOL0     C31185   2.540   3.296   2.369 -0.8455  0.1089  0.3284
  237MOL0     C31186   2.410   3.332   2.415  0.4565 -0.3363  0.5965
  237MOL0     O31187   2.330   3.426   2.355  0.1952  0.6746  0.7576
  237MOL0     C31188   2.387   3.549   2.335  0.1480  0.2683 -0.1420
  237MOL0     C31189   2.284   3.664   2.335  0.6633  0.4820 -0.7155
  237MOL0     C31190   2.242   3.700   2.483 -0.1815 -0.2725 -0.1630
  237MOL0     C31191   2.109   3.775   2.476  0.0895 -0.6108  0.4384
  237MOL0     C31192   2.111   3.902   2.386 -0.8777 -0.2597 -1.3649
  237MOL0     C31193   1.977   3.983   2.402  0.0766  0.4273 -0.5260
  237MOL0     C31194   1.874   3.927   2.304  0.3788 -1.0805  0.4415
  237MOL0     C31195   1.746   3.994   2.333  0.5144  0.0993 -0.5202
  237MOL0    Cl31196   1.754   4.168   2.309 -0.1504  0.4273  0.2883
  237MOL0     C31197   2.340   3.262   2.520 -0.7659 -0.1409 -0.7537
  237MOL0     C31198   2.414   3.173   2.597 -0.3594  0.0845 -0.6342
  237MOL0     O31199   2.831   3.128   2.622 -0.2396 -0.5094  0.0664
  237MOL0     C31200   2.931   2.926   2.783  0.2476  0.4631 -0.3929
  237MOL0     C31201   2.973   2.811   2.857  0.1606 -0.5048 -0.5984
  237MOL0     N31202   2.936   2.913   3.465  0.0092  0.1152  0.1277
  237MOL0     N31203   2.912   3.031   3.426 -0.0829 -0.0786  0.2662
  237MOL0     C31204   2.658   3.888   2.292  0.0667 -0.0160 -1.1376
  237MOL0     C31205   2.660   3.928   2.159  0.1324 -0.1941 -0.4016
  237MOL0     C31206   2.777   3.929   1.706 -0.0334  0.3986 -0.1404
  237MOL0     C31207   2.654   3.964   1.650  0.6927  0.1985 -0.1141
  237MOL0     C31208   2.636   4.038   1.533  0.3410 -0.3829 -0.1909
  237MOL0     C31209   2.751   4.085   1.477 -0.0858  0.2321 -0.8685
  237MOL0     O31210   2.736   4.174   1.359 -0.3728 -0.4173  0.3603
  237MOL0     C31211   2.828   4.279   1.332  0.8129  0.4583  0.6082
  237MOL0     C31212   2.924   4.225   1.240  0.0021  0.1096  1.6391
  237MOL0     C31213   3.022   4.331   1.188 -0.3336  0.8704 -0.0130
  237MOL0     C31214   3.115   4.376   1.292  0.2276 -0.2370  0.2512
  237MOL0     C31215   3.213   4.274   1.324 -0.3309  0.0746  0.3119
  237MOL0     C31216   3.286   4.176   1.355 -0.0557 -0.4545 -0.4549
  237MOL0     C31217   2.877   4.047   1.523  0.2651 -0.7571 -0.2917
  237MOL0     C31218   2.894   3.980   1.643 -0.8202 -0.1508  0.9036
  237MOL0     H31219   2.752   3.637   2.006  4.0220  0.8678 -0.1646
  237MOL0     H31220   2.726   3.566   2.250 -3.5155 -1.2832 -2.5362
  237MOL0     H31221   2.835   3.571   2.482  2.1798 -1.1658  3.2683
  237MOL0     H31222   2.676   3.529   2.450  2.2149 -0.2405 -1.3344
  237MOL0     H31223   2.612   3.594   2.695  0.3350 -0.8332 -0.2286
  237MOL0     H31224   2.763   3.668   2.726  1.3334 -0.9120  1.0702
  237MOL0     H31225   2.883   3.445   2.675 -0.1907  1.6906 -0.9490
  237MOL0     H31226   2.721   3.375   2.660  1.5119 -2.2891  0.9224
  237MOL0     H31227   2.825   3.512   2.894  0.5509 -0.1723 -0.4393
  237MOL0     H31228   2.672   3.430   2.889  0.6931  0.0580  0.2628
  237MOL0     H31229   2.941   3.282   2.864  0.2949 -2.2712  1.2693
  237MOL0     H31230   2.777   3.208   2.856 -3.7416 -0.2707  3.2348
  237MOL0     H31231   2.726   3.318   3.077 -1.7474 -4.3630 -1.1876
  237MOL0     H31232   2.910   3.332   3.096  2.9233 -3.2730 -2.2867
  237MOL0     H31233   2.769   3.076   3.025 -1.8257  0.8681  0.8175
  237MOL0     H31234   2.933   3.091   3.094  0.1285 -1.5416 -0.7159
  237MOL0     H31235   2.673   3.110   3.238 -1.3607  0.2886 -2.0392
  237MOL0     H31236   2.807   3.221   3.278 -1.3288  0.8569 -2.5509
  237MOL0     H31237   2.820   2.857   3.171 -0.4678  0.1909 -0.5843
  237MOL0     H31238   2.842   2.626   3.437 -1.0024  0.6608 -2.1984
  237MOL0     H31239   3.024   2.658   3.438  1.9630  0.4676 -2.3657
  237MOL0     H31240   2.840   2.625   3.195  1.0768 -0.0616 -0.3486
  237MOL0     H31241   2.926   2.483   3.271  1.7068 -0.3749  0.6550
  237MOL0     H31242   3.059   2.740   3.149  0.7872 -0.7040 -1.3567
  237MOL0     H31243   3.143   2.607   3.201 -1.5630 -0.1015  1.3385
  237MOL0     H31244   3.037   2.455   3.031 -1.9458 -0.0619  0.9546
  237MOL0     H31245   3.120   2.588   2.954  0.3567  0.2085  2.0037
  237MOL0     H31246   2.688   2.637   2.876 -0.5320 -0.5817 -2.7673
  237MOL0     H31247   2.603   2.844   2.755 -1.0444  2.6408  1.0413
  237MOL0     H31248   2.713   3.182   2.423 -0.0085 -0.2941  0.6412
  237MOL0     H31249   2.587   3.343   2.283 -0.1913 -1.4134 -0.1851
  237MOL0     H31250   2.444   3.531   2.243 -0.0114 -1.0659  0.0045
  237MOL0     H31251   2.461   3.575   2.411 -2.1323 -0.7948  2.6155
  237MOL0     H31252   2.199   3.630   2.275  1.3903 -0.3515 -1.3144
  237MOL0     H31253   2.324   3.760   2.301  0.0580  1.8167  2.0461
  237MOL0     H31254   2.324   3.755   2.529 -0.4643  1.4539 -1.6291
  237MOL0     H31255   2.223   3.611   2.543  3.8749 -0.1144  1.6881
  237MOL0     H31256   2.025   3.714   2.442 -2.6859  1.6667  2.6522
  237MOL0     H31257   2.088   3.801   2.581 -0.5929  1.8148 -0.2240
  237MOL0     H31258   2.129   3.875   2.281  1.3537 -1.3637 -0.7617
  237MOL0     H31259   2.186   3.967   2.432 -0.9201 -2.2008  1.7665
  237MOL0     H31260   1.987   4.087   2.371 -0.2663  0.3797 -0.8011
  237MOL0     H31261   1.938   3.969   2.503 -3.0548 -0.3754 -1.7365
  237MOL0     H31262   1.896   3.936   2.197 -1.2305 -0.9097  0.1080
  237MOL0     H31263   1.863   3.819   2.316 -2.5803 -0.9266 -0.1347
  237MOL0     H31264   1.717   3.976   2.437  1.5836  0.4363 -0.1464
  237MOL0     H31265   1.666   3.960   2.267  0.3257 -0.7158  0.1110
  237MOL0     H31266   2.244   3.307   2.540  0.4121  2.4489 -0.4859
  237MOL0     H31267   2.368   3.122   2.681 -0.5154 -1.6483 -1.7100
  237MOL0     H31268   3.000   3.000   2.743 -0.5928  0.6429 -1.5653
  237MOL0     H31269   3.073   2.800   2.899 -1.0823 -0.7138  2.6249
  237MOL0     H31270   2.632   3.946   2.380 -0.0926 -2.4385  0.5066
  237MOL0     H31271   2.625   4.026   2.131 -2.7323 -1.0812 -0.2201
  237MOL0     H31272   2.566   3.935   1.707  0.2949  0.5076 -0.5715
  237MOL0     H31273   2.538   4.052   1.489 -0.9356  2.1544  3.0436
  237MOL0     H31274   2.861   4.313   1.431  0.0936 -1.3185  1.5185
  237MOL0     H31275   2.779   4.361   1.279 -1.0573 -1.2828 -0.5233
  237MOL0     H31276   2.981   4.144   1.287 -1.5875 -2.3944 -0.4697
  237MOL0     H31277   2.883   4.179   1.150  0.4267  2.0983  0.3755
  237MOL0     H31278   2.967   4.416   1.146 -0.8446  1.5756  1.9584
  237MOL0     H31279   3.082   4.293   1.105 -1.6315 -0.7798 -0.2458
  237MOL0     H31280   3.176   4.458   1.255 -0.6286  0.2065 -0.2222
  237MOL0     H31281   3.059   4.413   1.378  1.5924 -0.1859  1.1425
  237MOL0     H31282   3.361   4.108   1.389  3.9116  2.3161 -2.8537
  237MOL0     H31283   2.963   4.094   1.476 -2.6138  1.2801 -4.1381
  237MOL0     H31284   2.992   3.951   1.678 -1.7941 -2.0703  2.1979
  238MOL0     O31285   8.564   4.617   8.033 -0.1081 -0.2017  0.3015
  238MOL0     C31286   8.511   4.513   8.075 -0.6525  0.9427  0.1416
  238MOL0     O31287   8.577   4.396   8.118  0.4890  1.0302  1.1305
  238MOL0     C31288   8.711   4.391   8.113  1.4900 -0.3064  0.5975
  238MOL0     C31289   8.790   4.487   8.178 -1.1421 -0.9000 -0.0862
  238MOL0     C31290   8.934   4.467   8.180  0.5783  0.2319 -0.2699
  238MOL0     C31291   8.993   4.353   8.124 -0.4531  0.7817  0.6385
  238MOL0     O31292   9.132   4.341   8.136  0.2880 -0.2979 -0.3348
  238MOL0     C31293   9.212   4.244   8.071  0.1171  0.2208  1.0030
  238MOL0     C31294   9.356   4.296   8.102 -0.0266 -0.0397  0.2802
  238MOL0     C31295   9.466   4.211   8.046 -0.4286  0.0053 -0.2590
  238MOL0     C31296   9.607   4.261   8.085 -0.9313  0.6331  0.3991
  238MOL0     C31297   9.719   4.176   8.024  0.6310  0.7755  0.4418
  238MOL0     C31298   9.856   4.240   8.055  0.1034  0.7749  0.4842
  238MOL0     C31299   9.975   4.170   7.982  0.4221  0.2400  0.4620
  238MOL0     C31300  10.112   4.212   8.051 -1.4378  0.7925  1.1909
  238MOL0     N31301  10.209   4.179   7.945 -0.0236 -0.5804  0.3453
  238MOL0     C31302  10.323   4.254   7.927 -0.2940 -0.1115 -0.1534
  238MOL0     C31303  10.401   4.189   7.833  0.8248  1.4249  0.0147
  238MOL0     C31304  10.540   4.214   7.778  0.8519 -0.2846  0.8055
  238MOL0     C31305  10.628   4.248   7.891  0.7340 -0.0888  0.3572
  238MOL0     C31306  10.650   4.131   7.993 -0.1170  0.3918 -0.0341
  238MOL0     C31307  10.672   3.984   7.941  0.0319 -0.7786  0.0204
  238MOL0     O31308  10.733   3.900   8.042  0.5442 -0.6473 -0.4808
  238MOL0     C31309  10.654   3.870   8.149  0.6717 -0.5239  0.8470
  238MOL0     C31310  10.720   3.802   8.249  0.3523  0.2158  0.1766
  238MOL0     C31311  10.652   3.754   8.362  0.1453  0.6224  0.2499
  238MOL0     C31312  10.515   3.752   8.366  0.4935 -0.5809 -0.4122
  238MOL0     C31313  10.437   3.679   8.470  0.6985  0.3848 -0.6661
  238MOL0     O31314  10.306   3.717   8.491 -1.0797  0.6463  0.7005
  238MOL0     C31315  10.226   3.645   8.581 -1.0286 -0.6452  0.6310
  238MOL0     C31316  10.168   3.519   8.545 -0.5316 -0.1441 -0.2006
  238MOL0     C31317  10.091   3.445   8.641  0.2739 -1.1557  0.0036
  238MOL0     C31318  10.053   3.498   8.771 -1.2802  0.1782  1.0607
  238MOL0     O31319   9.994   3.417   8.866  0.1522 -0.1276 -1.1285
  238MOL0     C31320   9.945   3.473   8.991  0.4028  0.5011 -0.0604
  238MOL0     C31321   9.841   3.380   9.047  0.4220  0.9978 -0.4820
  238MOL0     C31322   9.762   3.429   9.172 -0.8723  0.5733  0.2766
  238MOL0     C31323   9.845   3.495   9.276  1.0381  0.1375 -0.4221
  238MOL0     C31324   9.753   3.521   9.393 -0.3253 -0.4462  0.4896
  238MOL0     C31325   9.831   3.545   9.522  0.2214  0.5622 -0.9140
  238MOL0     C31326   9.736   3.556   9.642 -0.3468 -1.0269  0.4634
  238MOL0     C31327   9.821   3.612   9.764  1.3872  0.5590 -0.0382
  238MOL0    Cl31328   9.711   3.636   9.912 -0.0921 -0.1386  0.0969
  238MOL0     C31329  10.102   3.638   8.791  0.2576  0.1583 -1.2533
  238MOL0     C31330  10.182   3.706   8.697 -0.0833  1.3207 -0.0264
  238MOL0     O31331  10.487   3.582   8.523 -0.6946  0.4939  0.6449
  238MOL0     C31332  10.442   3.812   8.263  0.0603 -1.2174  0.1400
  238MOL0     C31333  10.512   3.875   8.161 -0.0000  0.1218  0.5753
  238MOL0     N31334  10.326   4.074   7.801  0.1709  0.0488 -0.1879
  238MOL0     N31335  10.212   4.068   7.870  0.4693 -0.6788  0.6320
  238MOL0     C31336   8.909   4.268   8.047 -0.4693 -0.2733 -0.1167
  238MOL0     C31337   8.772   4.285   8.044  0.3097 -0.5899 -0.4343
  238MOL0     C31338   8.362   4.517   8.093  0.1008 -0.2519  0.0007
  238MOL0     C31339   8.297   4.435   8.184 -0.0232  0.6620  0.4740
  238MOL0     C31340   8.159   4.447   8.199  0.5222  0.2717  0.7738
  238MOL0     C31341   8.094   4.540   8.127  0.3011  0.8503  0.1312
  238MOL0     O31342   7.958   4.560   8.142 -0.5866 -0.6644 -0.3252
  238MOL0     C31343   7.918   4.678   8.217 -0.7552 -0.1461 -0.2068
  238MOL0     C31344   7.771   4.690   8.261 -0.3782  0.6192 -0.2304
  238MOL0     C31345   7.697   4.779   8.173 -0.1404 -0.5308 -0.0664
  238MOL0     C31346   7.543   4.761   8.181  0.3675 -0.1387  0.5379
  238MOL0     C31347   7.491   4.812   8.311 -0.1118 -0.3821 -0.3736
  238MOL0     C31348   7.463   4.856   8.414 -0.1314  0.2383 -0.3733
  238MOL0     C31349   8.159   4.620   8.035  0.0839  0.3362  0.3839
  238MOL0     C31350   8.293   4.610   8.017  0.3115 -0.0285  0.3000
  238MOL0     H31351   8.750   4.573   8.231 -1.8429 -1.2988  0.0474
  238MOL0     H31352   9.003   4.537   8.226  0.9491  1.1937 -2.2077
  238MOL0     H31353   9.198   4.235   7.963  2.3090 -3.6703  0.8369
  238MOL0     H31354   9.198   4.142   8.107 -0.8115  0.2510  0.7590
  238MOL0     H31355   9.365   4.295   8.211 -5.8528 -4.7433  1.2632
  238MOL0     H31356   9.374   4.393   8.056 -2.8616  0.3806 -0.1443
  238MOL0     H31357   9.458   4.206   7.937 -5.0575  2.8004 -0.3333
  238MOL0     H31358   9.468   4.111   8.090  1.5844  0.0964 -0.0296
  238MOL0     H31359   9.608   4.364   8.048  1.1319  0.2376 -0.7926
  238MOL0     H31360   9.619   4.268   8.193  2.6164 -1.9577  0.3305
  238MOL0     H31361   9.706   4.167   7.915 -0.3023  0.7369  0.5450
  238MOL0     H31362   9.711   4.074   8.065  0.1168  1.6224  2.5643
  238MOL0     H31363   9.873   4.241   8.163 -1.5851  3.8178  0.8341
  238MOL0     H31364   9.863   4.337   8.005  1.6886 -1.2030 -3.5735
  238MOL0     H31365   9.951   4.064   7.973 -3.0466  0.9982 -0.6167
  238MOL0     H31366   9.966   4.204   7.878  1.2697 -1.7223 -0.2990
  238MOL0     H31367  10.139   4.155   8.140  0.9185 -0.9017 -0.4740
  238MOL0     H31368  10.117   4.319   8.072 -0.4116  1.0674 -0.2606
  238MOL0     H31369  10.349   4.345   7.981 -1.9475  0.3202 -0.0427
  238MOL0     H31370  10.530   4.295   7.706 -0.6863 -0.3524  0.8953
  238MOL0     H31371  10.580   4.124   7.730  0.6257  1.0077 -1.9882
  238MOL0     H31372  10.599   4.337   7.947 -1.5326  0.8503 -2.1155
  238MOL0     H31373  10.727   4.275   7.852 -0.4048  3.3889 -0.4102
  238MOL0     H31374  10.734   4.154   8.060 -0.6170 -1.4129  1.2864
  238MOL0     H31375  10.567   4.118   8.063  0.0035 -2.5980 -0.3320
  238MOL0     H31376  10.738   3.985   7.854 -0.6649 -0.8058 -0.5172
  238MOL0     H31377  10.578   3.943   7.903 -0.4225  1.1031 -1.0566
  238MOL0     H31378  10.828   3.793   8.242  0.1916 -0.9577 -1.1716
  238MOL0     H31379  10.711   3.717   8.444  1.6658 -0.6548 -1.3422
  238MOL0     H31380  10.187   3.475   8.448  1.6948 -1.9238  0.9466
  238MOL0     H31381  10.051   3.347   8.617 -1.0994 -0.2546 -1.6193
  238MOL0     H31382   9.903   3.572   8.972 -1.7144 -0.6583 -1.8946
  238MOL0     H31383  10.039   3.483   9.046  2.7650  0.1603 -3.7306
  238MOL0     H31384   9.906   3.295   9.070  2.2257  1.9051 -1.9544
  238MOL0     H31385   9.772   3.342   8.971  0.0377 -1.7361  1.0936
  238MOL0     H31386   9.705   3.355   9.228  2.9687 -1.0660  2.4118
  238MOL0     H31387   9.688   3.503   9.137 -0.4272  2.3370  2.8008
  238MOL0     H31388   9.938   3.444   9.303 -1.1409 -2.7323  2.4356
  238MOL0     H31389   9.872   3.595   9.241  3.9970 -0.2351  0.5032
  238MOL0     H31390   9.688   3.435   9.413  0.2015 -0.7518  0.9172
  238MOL0     H31391   9.677   3.596   9.371 -3.0778 -2.7051  1.6299
  238MOL0     H31392   9.875   3.643   9.501 -1.0761  2.6740  4.4586
  238MOL0     H31393   9.910   3.472   9.538  0.5952  1.4262  1.6088
  238MOL0     H31394   9.663   3.633   9.615  1.6920  0.8084 -0.0549
  238MOL0     H31395   9.690   3.459   9.667  0.8786 -1.3087  1.7517
  238MOL0     H31396   9.860   3.713   9.751 -2.5823  2.8096  3.1579
  238MOL0     H31397   9.902   3.542   9.787 -0.3633 -1.3696  0.5465
  238MOL0     H31398  10.087   3.695   8.882  1.7156  0.6735 -1.3059
  238MOL0     H31399  10.220   3.807   8.699 -0.4694  1.4996 -1.1829
  238MOL0     H31400  10.333   3.813   8.259  0.0336 -1.6663  0.6462
  238MOL0     H31401  10.453   3.918   8.081  0.3457 -1.9637 -0.8972
  238MOL0     H31402   8.950   4.177   8.006 -0.0865  0.2996 -1.0400
  238MOL0     H31403   8.715   4.209   7.991 -1.4481 -0.6460  1.4249
  238MOL0     H31404   8.366   4.372   8.240 -0.4316  0.1254  0.3847
  238MOL0     H31405   8.106   4.374   8.260  1.0794  0.6841  1.7809
  238MOL0     H31406   7.939   4.760   8.148 -1.1785 -0.9111 -1.2714
  238MOL0     H31407   7.985   4.689   8.303  0.4438  0.7456 -1.2244
  238MOL0     H31408   7.725   4.591   8.270  0.2128  0.3485 -0.1107
  238MOL0     H31409   7.767   4.738   8.360  3.4353  1.2326 -0.2406
  238MOL0     H31410   7.726   4.758   8.070  0.9112  2.3380 -0.4324
  238MOL0     H31411   7.733   4.881   8.190  0.6283 -1.0259  1.4354
  238MOL0     H31412   7.498   4.829   8.107  3.7959  3.3545  1.2915
  238MOL0     H31413   7.517   4.656   8.166  3.1326 -0.9189  0.7778
  238MOL0     H31414   7.436   4.896   8.509 -2.7883 -0.6951 -0.6439
  238MOL0     H31415   8.107   4.702   7.987 -0.6409  0.6172  1.6000
  238MOL0     H31416   8.332   4.676   7.940  0.7694  0.2993  0.8105
  239MOL0     O31417   6.881   4.485   5.197 -0.5031 -0.2511 -0.0684
  239MOL0     C31418   6.941   4.580   5.244 -0.6115 -0.0479 -0.2506
  239MOL0     O31419   7.059   4.569   5.320 -0.8807 -0.1689 -0.0913
  239MOL0     C31420   7.095   4.447   5.375 -0.7789  0.0854  0.5121
  239MOL0     C31421   7.002   4.353   5.424 -0.1905 -0.1107  0.2670
  239MOL0     C31422   7.046   4.249   5.500 -0.5314 -0.3442 -0.6237
  239MOL0     C31423   7.181   4.235   5.523 -0.7693 -0.5722  0.2112
  239MOL0     O31424   7.235   4.138   5.602  0.2200  0.1025  0.4543
  239MOL0     C31425   7.157   4.028   5.633 -0.4846  0.6182 -0.4044
  239MOL0     C31426   7.233   3.910   5.690 -0.0370  0.9783  0.3189
  239MOL0     C31427   7.264   3.899   5.839  0.3422  0.6730 -0.4090
  239MOL0     C31428   7.272   4.031   5.912 -0.8661  0.7451 -0.0557
  239MOL0     C31429   7.414   4.097   5.914  0.9250 -0.5780  0.3906
  239MOL0     C31430   7.391   4.254   5.906 -0.1179  0.1307  0.2662
  239MOL0     C31431   7.329   4.321   6.025  0.2410  0.2069  0.1558
  239MOL0     C31432   7.287   4.462   5.994  0.7238  0.2451  0.2170
  239MOL0     N31433   7.139   4.502   6.029 -1.0306 -0.0527  0.5861
  239MOL0     C31434   7.030   4.477   5.954  0.7914  0.3465  0.5649
  239MOL0     C31435   6.924   4.520   6.031 -1.3893 -0.5592  0.3604
  239MOL0     C31436   6.769   4.526   6.017 -0.0976  0.1763 -0.6186
  239MOL0     C31437   6.718   4.636   5.924  0.0217  0.3614  0.1733
  239MOL0     C31438   6.759   4.780   5.970 -0.4667  0.0968  0.2678
  239MOL0     C31439   6.733   4.802   6.115 -0.1162  0.8669 -0.4385
  239MOL0     O31440   6.729   4.938   6.146  0.1337 -0.5119  0.2757
  239MOL0     C31441   6.632   5.013   6.083  0.2560  0.0471  0.3926
  239MOL0     C31442   6.660   5.153   6.074  0.3100  0.2697  0.6010
  239MOL0     C31443   6.561   5.242   6.023 -1.0786  0.1439 -0.6143
  239MOL0     C31444   6.438   5.201   5.981 -0.4123  0.3069  0.1743
  239MOL0     C31445   6.338   5.302   5.944  0.3389  0.2555  1.2212
  239MOL0     O31446   6.386   5.429   5.931 -0.0174  0.4441  0.5204
  239MOL0     C31447   6.309   5.525   5.880 -1.3079 -0.3699 -0.0063
  239MOL0     C31448   6.371   5.618   5.782 -0.2681 -0.5025 -0.2231
  239MOL0     C31449   6.299   5.730   5.734  0.2207  0.9851 -0.1068
  239MOL0     C31450   6.180   5.776   5.799 -0.3975 -0.5125  0.8077
  239MOL0     O31451   6.107   5.882   5.751 -0.0913  0.0151 -0.5522
  239MOL0     C31452   6.168   5.964   5.659  0.4300  0.1472  0.4865
  239MOL0     C31453   6.069   6.068   5.616  0.1329  0.0570 -0.2768
  239MOL0     C31454   6.077   6.193   5.708  0.6687 -0.3115  0.7038
  239MOL0     C31455   5.956   6.274   5.684 -0.1703 -0.8688  0.0226
  239MOL0     C31456   5.939   6.394   5.766  0.0384  0.3527 -0.5491
  239MOL0     C31457   5.849   6.504   5.694  0.6242  0.9896  0.0993
  239MOL0     C31458   5.812   6.608   5.798  0.3161 -0.3052 -0.0918
  239MOL0     C31459   5.736   6.711   5.726 -0.3596  0.3409  0.1784
  239MOL0    Cl31460   5.824   6.784   5.584 -0.0749  0.7188 -0.3639
  239MOL0     C31461   6.124   5.674   5.885 -0.6352  0.1504 -0.9204
  239MOL0     C31462   6.186   5.556   5.941 -0.4262  0.5550  0.4965
  239MOL0     O31463   6.222   5.266   5.918  0.6599  0.9609 -0.2743
  239MOL0     C31464   6.417   5.059   5.991 -0.8119  0.7034 -0.0555
  239MOL0     C31465   6.504   4.967   6.040  0.2335  0.1439 -0.8385
  239MOL0     N31466   6.989   4.573   6.145 -0.2670 -0.1161 -0.2581
  239MOL0     N31467   7.115   4.577   6.133  0.0808  0.0834 -0.2672
  239MOL0     C31468   7.278   4.330   5.472 -0.3690  0.3816 -1.0455
  239MOL0     C31469   7.228   4.443   5.409  0.6690  0.4442 -0.4968
  239MOL0     C31470   6.886   4.717   5.216  0.6184 -0.4143  0.2443
  239MOL0     C31471   6.947   4.822   5.268  0.1549 -0.3941  0.0277
  239MOL0     C31472   6.902   4.951   5.241 -0.3824 -0.8739  0.1141
  239MOL0     C31473   6.789   4.981   5.159  0.0701 -0.0533  0.4856
  239MOL0     O31474   6.755   5.114   5.155 -0.1269  0.0668  0.8996
  239MOL0     C31475   6.614   5.160   5.150 -0.7215 -0.3511  0.3447
  239MOL0     C31476   6.593   5.197   5.000  0.2745 -0.5101 -0.7730
  239MOL0     C31477   6.662   5.337   4.977  0.5587  0.1743 -0.3249
  239MOL0     C31478   6.768   5.317   4.870  0.1421  0.3539 -0.0274
  239MOL0     C31479   6.893   5.241   4.915  0.1976 -0.1512  0.4811
  239MOL0     C31480   6.995   5.177   4.949  0.2066 -0.4633 -1.3225
  239MOL0     C31481   6.719   4.871   5.106  0.0589 -1.0702 -0.1080
  239MOL0     C31482   6.776   4.742   5.127  1.6039 -0.4236 -0.7517
  239MOL0     H31483   6.898   4.377   5.404 -0.2128 -2.2995 -2.9040
  239MOL0     H31484   6.974   4.177   5.538 -0.7406 -0.2105 -0.7679
  239MOL0     H31485   7.128   3.988   5.535  2.0880 -0.5438 -0.7978
  239MOL0     H31486   7.066   4.047   5.691 -0.2445 -0.0304  0.2099
  239MOL0     H31487   7.325   3.916   5.630  0.1933  1.0686  0.6754
  239MOL0     H31488   7.176   3.820   5.663  2.8833 -1.0623  0.3990
  239MOL0     H31489   7.353   3.837   5.856 -1.7663 -2.0538  1.6197
  239MOL0     H31490   7.182   3.846   5.889  1.3987  1.4341  2.3068
  239MOL0     H31491   7.198   4.096   5.865 -3.2606 -1.0154  1.0875
  239MOL0     H31492   7.244   4.014   6.016 -1.8368  0.2661 -0.3873
  239MOL0     H31493   7.474   4.059   5.832 -0.5207 -1.4317 -0.3081
  239MOL0     H31494   7.473   4.071   6.002  0.9377 -0.9456  0.2733
  239MOL0     H31495   7.345   4.278   5.809  2.1568  0.3404 -0.8297
  239MOL0     H31496   7.492   4.292   5.888  2.7612 -6.7378 -1.2286
  239MOL0     H31497   7.237   4.274   6.059  0.9346  0.7753  3.1120
  239MOL0     H31498   7.396   4.322   6.112  1.5073  0.3006 -0.7978
  239MOL0     H31499   7.288   4.489   5.888 -2.2662 -1.3601 -0.3227
  239MOL0     H31500   7.346   4.524   6.062 -1.6340  0.3476  2.2978
  239MOL0     H31501   7.023   4.428   5.857 -3.6187  1.7960 -0.0601
  239MOL0     H31502   6.715   4.531   6.113 -1.7866  1.0456 -1.5628
  239MOL0     H31503   6.724   4.432   5.984 -3.0393  0.6418  1.6138
  239MOL0     H31504   6.610   4.634   5.910  0.0419  0.8265 -0.0446
  239MOL0     H31505   6.763   4.613   5.827 -1.1124  0.9650 -0.5182
  239MOL0     H31506   6.867   4.792   5.958 -0.3720 -0.6654  0.3249
  239MOL0     H31507   6.704   4.836   5.894 -2.0671 -2.1956 -0.3776
  239MOL0     H31508   6.819   4.761   6.168 -1.1044  1.1466  1.5025
  239MOL0     H31509   6.643   4.745   6.142  0.8690  0.1716  1.6280
  239MOL0     H31510   6.755   5.192   6.107  0.8185  1.3865 -1.9506
  239MOL0     H31511   6.583   5.348   6.020 -2.1576  0.4033  0.0232
  239MOL0     H31512   6.476   5.601   5.759  0.5149  2.1042  1.1356
  239MOL0     H31513   6.349   5.764   5.644 -0.8328 -1.6444 -1.7937
  239MOL0     H31514   6.202   5.904   5.574 -0.9775  2.0113 -1.4972
  239MOL0     H31515   6.255   6.012   5.703  0.6569 -1.3105  1.7133
  239MOL0     H31516   5.970   6.024   5.624  0.6564 -1.6854 -2.4642
  239MOL0     H31517   6.080   6.096   5.511 -0.2341  2.3160  0.2295
  239MOL0     H31518   6.166   6.246   5.672 -0.7355  2.2824  0.8614
  239MOL0     H31519   6.089   6.171   5.814 -1.8779  0.1675  1.1509
  239MOL0     H31520   5.966   6.312   5.582 -1.3924 -0.1141  0.1602
  239MOL0     H31521   5.872   6.205   5.694 -1.1382  0.0697 -1.2785
  239MOL0     H31522   6.035   6.440   5.792 -0.9542  2.2724 -0.1584
  239MOL0     H31523   5.911   6.361   5.867  1.9178  1.8589  0.5547
  239MOL0     H31524   5.762   6.462   5.643 -1.6986  0.2904  4.1501
  239MOL0     H31525   5.919   6.543   5.620  0.5855 -1.7213 -1.5042
  239MOL0     H31526   5.747   6.564   5.874 -0.5353 -1.0634 -1.2240
  239MOL0     H31527   5.903   6.652   5.841  0.7834  0.6761 -1.9691
  239MOL0     H31528   5.701   6.778   5.805  0.7805  1.4192 -0.1878
  239MOL0     H31529   5.643   6.666   5.691 -1.4500  0.5167  2.6531
  239MOL0     H31530   6.045   5.720   5.944  0.3083 -0.4282  0.8605
  239MOL0     H31531   6.148   5.492   6.020 -1.0954  1.0957  0.6147
  239MOL0     H31532   6.320   5.014   5.971 -0.4374 -0.0024 -0.2876
  239MOL0     H31533   6.477   4.861   6.043 -3.6065  0.9965  0.0923
  239MOL0     H31534   7.382   4.311   5.495  0.7030  0.3359 -5.0870
  239MOL0     H31535   7.293   4.527   5.385  1.5861  0.2717  1.2550
  239MOL0     H31536   7.044   4.824   5.316 -0.4158 -1.0180  1.2512
  239MOL0     H31537   6.970   5.027   5.276  1.1797 -0.2834 -3.7161
  239MOL0     H31538   6.592   5.249   5.209 -0.6593  1.8538 -2.6970
  239MOL0     H31539   6.542   5.081   5.173 -1.6110 -0.2495 -1.8383
  239MOL0     H31540   6.627   5.121   4.929 -1.8776  0.9282 -3.5690
  239MOL0     H31541   6.486   5.208   4.984  0.3723 -2.1549 -3.0525
  239MOL0     H31542   6.702   5.381   5.069  0.9055  0.4332 -0.5976
  239MOL0     H31543   6.590   5.408   4.936  1.1211  0.5224 -0.7025
  239MOL0     H31544   6.726   5.277   4.778 -0.0424  0.7521 -0.1170
  239MOL0     H31545   6.806   5.413   4.835  2.4937  0.1828  1.7693
  239MOL0     H31546   7.084   5.124   4.973 -0.2386 -0.4458  0.5991
  239MOL0     H31547   6.623   4.887   5.058 -0.4332 -2.1565  0.4664
  239MOL0     H31548   6.728   4.653   5.088 -0.8626  0.7468 -0.5960
  240MOL0     O31549   3.720   7.227   7.165 -0.0706  0.0398  0.3924
  240MOL0     C31550   3.667   7.247   7.051 -0.5412  0.6009 -0.8696
  240MOL0     O31551   3.639   7.152   6.957 -0.9545  0.6543  0.4858
  240MOL0     C31552   3.642   7.023   7.001 -0.0347  0.6145 -0.4714
  240MOL0     C31553   3.524   6.952   7.025  0.9685  0.5911  0.3037
  240MOL0     C31554   3.537   6.824   7.091 -0.6318 -0.5052  0.3436
  240MOL0     C31555   3.662   6.771   7.125  0.3579 -0.1458  0.8772
  240MOL0     O31556   3.683   6.649   7.175  0.2785  0.3477  0.1785
  240MOL0     C31557   3.581   6.581   7.245 -0.0403  0.4410 -0.2978
  240MOL0     C31558   3.509   6.480   7.166  0.5093 -1.3863 -0.4088
  240MOL0     C31559   3.584   6.352   7.146  0.2307  0.1134  0.2439
  240MOL0     C31560   3.556   6.284   7.009  1.1972  0.0968 -0.0041
  240MOL0     C31561   3.602   6.140   6.990  0.3280  0.1643 -0.0493
  240MOL0     C31562   3.582   6.090   6.844 -0.0212  0.2134 -0.3952
  240MOL0     C31563   3.678   5.977   6.806 -0.3536 -0.9692  0.0862
  240MOL0     C31564   3.826   6.021   6.763 -0.3902 -0.0836  0.0877
  240MOL0     N31565   3.829   6.061   6.619 -0.1608  1.3377  0.2726
  240MOL0     C31566   3.823   6.191   6.575  0.5705 -0.4680  1.0670
  240MOL0     C31567   3.816   6.190   6.441 -0.4465  0.8294 -0.1002
  240MOL0     C31568   3.824   6.312   6.352 -0.1281  0.4800  0.0957
  240MOL0     C31569   3.968   6.330   6.305 -0.1562  0.0578 -0.0658
  240MOL0     C31570   4.027   6.203   6.234 -0.7995  0.2767  0.5027
  240MOL0     C31571   3.975   6.194   6.087 -0.3158 -0.3540  0.9994
  240MOL0     O31572   4.047   6.087   6.032  0.0331 -0.5054 -0.4345
  240MOL0     C31573   4.009   5.951   6.047 -0.4311  0.3883 -0.5618
  240MOL0     C31574   3.881   5.896   6.088 -0.3663 -1.3452 -0.4603
  240MOL0     C31575   3.854   5.758   6.077 -0.1087  0.0169 -0.2452
  240MOL0     C31576   3.950   5.669   6.028  0.1534 -0.1660  0.6081
  240MOL0     C31577   3.917   5.527   6.009  1.1041 -0.1318  0.5863
  240MOL0     O31578   3.811   5.478   6.086 -0.2488  0.2400  0.0131
  240MOL0     C31579   3.751   5.351   6.052 -0.1616 -0.6678 -0.0323
  240MOL0     C31580   3.776   5.278   5.926  0.2231 -0.4424 -0.0148
  240MOL0     C31581   3.735   5.149   5.913  0.3257 -0.6180 -0.5277
  240MOL0     C31582   3.664   5.083   6.016  0.3742 -0.7473 -0.7714
  240MOL0     O31583   3.598   4.963   6.014  0.0104  0.2786 -0.2684
  240MOL0     C31584   3.611   4.881   5.904 -0.1030  0.0080  0.0669
  240MOL0     C31585   3.545   4.748   5.913 -0.2935  1.2499  0.5587
  240MOL0     C31586   3.616   4.649   6.008 -0.4350 -0.7315  0.7917
  240MOL0     C31587   3.758   4.599   5.962  0.1753 -0.3320  0.3165
  240MOL0     C31588   3.747   4.472   5.876 -0.0980  0.7269 -0.3381
  240MOL0     C31589   3.870   4.387   5.900 -0.1262 -0.0467  0.4996
  240MOL0     C31590   3.851   4.242   5.869 -0.3575  0.3236 -0.0540
  240MOL0     C31591   3.962   4.152   5.931 -0.2996  0.3937  0.3097
  240MOL0    Cl31592   3.934   3.980   5.883  0.0298 -0.3280  0.1849
  240MOL0     C31593   3.656   5.149   6.138  0.5121  0.7978 -0.9731
  240MOL0     C31594   3.693   5.280   6.161  1.4311  0.0301  0.6182
  240MOL0     O31595   3.980   5.466   5.919 -0.1986  0.2475  0.1608
  240MOL0     C31596   4.075   5.723   5.990  0.1421 -0.5532 -0.6088
  240MOL0     C31597   4.104   5.862   6.005 -1.3194 -0.3982 -0.3802
  240MOL0     N31598   3.803   6.055   6.407 -0.8135  0.0675 -0.2875
  240MOL0     N31599   3.815   5.977   6.511  0.1381  0.8757  0.1818
  240MOL0     C31600   3.773   6.843   7.096 -0.9275 -0.3114 -0.6238
  240MOL0     C31601   3.770   6.964   7.027 -0.3204 -1.1059 -0.0002
  240MOL0     C31602   3.641   7.386   7.027 -0.6457 -0.0552  0.0155
  240MOL0     C31603   3.638   7.432   6.895 -0.2539  0.0362 -0.0525
  240MOL0     C31604   3.627   7.570   6.871  0.3666 -0.7859  0.6505
  240MOL0     C31605   3.609   7.668   6.976  0.5327 -0.6872 -0.4618
  240MOL0     O31606   3.609   7.802   6.941 -0.5342 -0.6731  0.0057
  240MOL0     C31607   3.562   7.908   7.036  0.8316 -0.1014 -0.0503
  240MOL0     C31608   3.410   7.892   7.060  0.9472  0.3687 -0.2046
  240MOL0     C31609   3.350   8.011   7.138  0.6352 -0.2345  0.0796
  240MOL0     C31610   3.202   8.000   7.149  0.2631  1.1077 -0.1016
  240MOL0     C31611   3.137   8.125   7.193  0.5470 -0.0369 -0.4619
  240MOL0     C31612   3.108   8.228   7.246 -0.2818 -0.2094  0.4751
  240MOL0     C31613   3.598   7.617   7.109 -0.4205  0.4078  0.1282
  240MOL0     C31614   3.630   7.477   7.132  0.5780 -0.3964 -0.0563
  240MOL0     H31615   3.431   6.999   6.993  0.9406  1.2627  1.3246
  240MOL0     H31616   3.447   6.763   7.097  0.1512 -1.8542 -1.0478
  240MOL0     H31617   3.499   6.644   7.281 -0.9352  0.0663 -1.5679
  240MOL0     H31618   3.616   6.532   7.336 -1.1771 -1.2620 -0.7396
  240MOL0     H31619   3.480   6.519   7.068 -1.8363 -1.1863  0.2999
  240MOL0     H31620   3.416   6.456   7.219  0.3857 -1.6955 -0.7636
  240MOL0     H31621   3.539   6.284   7.219 -2.7162 -1.3238 -2.6200
  240MOL0     H31622   3.690   6.377   7.158  0.7519 -0.9764 -1.5889
  240MOL0     H31623   3.450   6.277   6.983  1.3257 -4.6576 -0.1396
  240MOL0     H31624   3.607   6.351   6.939  0.0824 -0.8044 -1.7738
  240MOL0     H31625   3.551   6.064   7.051  2.1777 -0.7546  0.4145
  240MOL0     H31626   3.707   6.146   7.019  0.6920 -3.0720 -0.3143
  240MOL0     H31627   3.596   6.173   6.773 -1.9658 -0.1759 -1.3088
  240MOL0     H31628   3.481   6.049   6.835  0.0992  0.1620 -1.8803
  240MOL0     H31629   3.688   5.922   6.900 -0.7194 -0.6647  0.3059
  240MOL0     H31630   3.633   5.922   6.724 -2.0842  1.1982 -0.5133
  240MOL0     H31631   3.896   5.936   6.769  0.9565  0.7451 -2.6155
  240MOL0     H31632   3.862   6.099   6.831  1.8309  0.6746 -1.8556
  240MOL0     H31633   3.837   6.280   6.635  1.0102 -0.7216  1.3501
  240MOL0     H31634   3.793   6.401   6.409  0.9313  1.1533 -0.3426
  240MOL0     H31635   3.758   6.301   6.265  1.3301  2.9118 -1.4372
  240MOL0     H31636   4.034   6.343   6.391 -0.9077 -1.9308  0.8677
  240MOL0     H31637   3.974   6.414   6.236 -1.5997 -2.1112 -3.0575
  240MOL0     H31638   4.135   6.213   6.239 -0.3744 -2.7978 -0.5898
  240MOL0     H31639   4.000   6.115   6.294  0.5147 -1.1505 -0.9214
  240MOL0     H31640   3.996   6.290   6.038 -0.1696  0.4036  2.4867
  240MOL0     H31641   3.869   6.171   6.089 -0.1916 -1.1668 -0.5463
  240MOL0     H31642   3.800   5.953   6.133  1.3188  0.7759  0.0403
  240MOL0     H31643   3.752   5.723   6.091 -0.0874  0.6161  1.6196
  240MOL0     H31644   3.820   5.321   5.836 -0.3941 -2.7347 -1.5074
  240MOL0     H31645   3.735   5.099   5.816  0.6600  2.3334 -2.1912
  240MOL0     H31646   3.718   4.872   5.885  0.1914 -0.6115  1.8575
  240MOL0     H31647   3.565   4.925   5.815  0.6084 -0.7599 -0.7007
  240MOL0     H31648   3.548   4.698   5.816 -1.4732 -1.5386  1.8484
  240MOL0     H31649   3.440   4.769   5.936 -0.9689  1.0683 -2.0711
  240MOL0     H31650   3.557   4.560   6.031 -0.4156 -1.4139 -1.5405
  240MOL0     H31651   3.634   4.710   6.097 -1.8087  2.4600 -0.9336
  240MOL0     H31652   3.818   4.682   5.923 -2.8507  2.7597  1.7848
  240MOL0     H31653   3.803   4.565   6.056 -3.4498  0.2342  2.4320
  240MOL0     H31654   3.739   4.495   5.769  0.7054 -0.0684 -0.5830
  240MOL0     H31655   3.652   4.423   5.898  0.0373  0.3508 -0.5768
  240MOL0     H31656   3.903   4.396   6.004  0.4707  3.4605  0.1156
  240MOL0     H31657   3.941   4.431   5.829 -0.8354 -1.8302 -1.4306
  240MOL0     H31658   3.761   4.210   5.924  1.1597  0.6515  2.8271
  240MOL0     H31659   3.845   4.220   5.762 -0.2538 -0.4065  0.0829
  240MOL0     H31660   3.963   4.171   6.039 -0.5375 -3.0706  1.0551
  240MOL0     H31661   4.061   4.180   5.893  0.4951 -3.9319 -1.3572
  240MOL0     H31662   3.606   5.092   6.216  0.3727  2.6767  0.3952
  240MOL0     H31663   3.698   5.325   6.260 -0.4480  0.3766  0.5803
  240MOL0     H31664   4.150   5.654   5.952  1.1371 -0.4105  1.0036
  240MOL0     H31665   4.196   5.902   5.963 -1.3400  1.4444  1.1998
  240MOL0     H31666   3.867   6.795   7.120 -0.5359  0.3091 -0.8944
  240MOL0     H31667   3.862   7.023   7.025  0.0123 -1.6390 -0.8570
  240MOL0     H31668   3.664   7.362   6.816  3.1307 -2.9146  3.2764
  240MOL0     H31669   3.654   7.619   6.778  0.0838  1.1328  1.5368
  240MOL0     H31670   3.576   8.007   6.991 -1.8341  0.0672 -0.6793
  240MOL0     H31671   3.626   7.913   7.124  1.0310  0.5641 -0.2274
  240MOL0     H31672   3.363   7.878   6.962  1.0615  0.7573 -0.3151
  240MOL0     H31673   3.385   7.802   7.117 -0.1309 -1.7303 -3.6569
  240MOL0     H31674   3.367   8.106   7.088  0.1032 -1.3796 -2.4644
  240MOL0     H31675   3.397   8.001   7.237 -0.0594 -1.9690  0.2767
  240MOL0     H31676   3.143   7.970   7.063  1.1391  2.6786 -1.3055
  240MOL0     H31677   3.185   7.925   7.227  3.7472  1.3604  1.1093
  240MOL0     H31678   3.105   8.331   7.276  1.4079  0.0111  0.0002
  240MOL0     H31679   3.592   7.666   7.206 -0.4888 -0.1363  0.4010
  240MOL0     H31680   3.630   7.446   7.236  1.9720 -0.7327 -0.1364
  241MOL0     O31681  10.832   1.683   0.676 -0.5652  0.1597  0.6547
  241MOL0     C31682  10.877   1.574   0.630 -0.3954 -0.0197  0.7244
  241MOL0     O31683  10.850   1.525   0.508  0.1575 -0.9420  0.2986
  241MOL0     C31684  10.788   1.616   0.420 -1.0656 -0.7244 -0.3472
  241MOL0     C31685  10.650   1.640   0.437 -0.3639  0.3596  0.8825
  241MOL0     C31686  10.591   1.726   0.347  0.7624  0.2597  0.7313
  241MOL0     C31687  10.661   1.805   0.249  0.3289 -0.4312 -0.3148
  241MOL0     O31688  10.590   1.881   0.158  0.2758 -0.0616 -0.6530
  241MOL0     C31689  10.652   1.977   0.067 -0.1840 -1.6601  0.1033
  241MOL0     C31690  10.721   2.095   0.146 -0.3344 -0.6538 -0.0354
  241MOL0     C31691  10.689   2.235   0.098 -0.6593 -0.2642 -0.0113
  241MOL0     C31692  10.804   2.303   0.009  0.7112  0.3759 -0.7316
  241MOL0     C31693  10.803   2.454   0.026  0.0639  0.1787 -0.1220
  241MOL0     C31694  10.658   2.520   0.024 -0.1406  0.1146 -0.0898
  241MOL0     C31695  10.678   2.674   0.044 -0.1893 -0.0377 -0.5262
  241MOL0     C31696  10.556   2.748   0.092  0.1410 -2.1347 -0.3066
  241MOL0     N31697  10.570   2.896   0.077 -0.3051 -0.4067 -0.4847
  241MOL0     C31698  10.644   2.963  -0.015  0.6196 -0.1229 -0.2551
  241MOL0     C31699  10.647   3.087   0.044  0.0250  0.6243 -0.6905
  241MOL0     C31700  10.730   3.202  -0.006  0.0533 -0.3389  0.7922
  241MOL0     C31701  10.876   3.174  -0.030  0.3182 -0.5283  0.9811
  241MOL0     C31702  10.949   3.115   0.086  1.6223 -0.5432 -0.2137
  241MOL0     C31703  11.086   3.057   0.058 -0.2011  0.8051 -0.6948
  241MOL0     O31704  11.067   2.932  -0.007  0.6428  0.1512  0.4227
  241MOL0     C31705  11.174   2.851  -0.027  0.2629  0.6733  0.9924
  241MOL0     C31706  11.308   2.874  -0.016 -0.6649  0.7777 -0.2613
  241MOL0     C31707  11.410   2.776  -0.029  1.1784  0.3580  0.7818
  241MOL0     C31708  11.375   2.648  -0.091  0.2862 -0.2864  0.1938
  241MOL0     C31709  11.472   2.537  -0.117 -0.1247 -0.2536 -0.6126
  241MOL0     O31710  11.415   2.418  -0.137 -0.8556 -1.0345  0.5670
  241MOL0     C31711  11.459   2.315  -0.212  0.3292 -0.5383  1.2197
  241MOL0     C31712  11.591   2.286  -0.248 -0.2671 -0.2108  0.1493
  241MOL0     C31713  11.617   2.171  -0.316 -0.6790  1.2853 -0.6284
  241MOL0     C31714  11.522   2.067  -0.350  0.2823  0.1110  1.2765
  241MOL0     O31715  11.570   1.945  -0.416 -0.1715 -0.3601  0.2991
  241MOL0     C31716  11.470   1.845  -0.451 -0.1492  0.5088 -0.6540
  241MOL0     C31717  11.534   1.717  -0.505  0.3907 -0.6963  1.2788
  241MOL0     C31718  11.435   1.610  -0.533  0.1016 -0.6732 -0.3595
  241MOL0     C31719  11.511   1.471  -0.568 -0.0950 -0.0230 -0.2859
  241MOL0     C31720  11.424   1.353  -0.530  0.3062  0.9721  0.4622
  241MOL0     C31721  11.509   1.225  -0.519  0.1192  0.7620  0.5240
  241MOL0     C31722  11.428   1.104  -0.461  0.3540  0.0931  0.0224
  241MOL0     C31723  11.503   1.000  -0.367 -0.1889  0.1142  0.4654
  241MOL0    Cl31724  11.601   0.916  -0.490 -0.7099  0.6917 -0.0536
  241MOL0     C31725  11.389   2.101  -0.309  0.5340  0.0409  0.4257
  241MOL0     C31726  11.359   2.221  -0.240  0.0279  0.1036  0.5757
  241MOL0     O31727  11.588   2.565  -0.124  0.2492  0.9962  0.7094
  241MOL0     C31728  11.235   2.624  -0.095 -0.0321 -0.2629 -0.0111
  241MOL0     C31729  11.143   2.718  -0.059  0.0312  0.0811 -0.1909
  241MOL0     N31730  10.567   3.093   0.159  0.3464  0.2954  0.6550
  241MOL0     N31731  10.523   2.977   0.179  0.2182  0.1952  0.6465
  241MOL0     C31732  10.801   1.780   0.240  0.6278  0.5239 -0.1323
  241MOL0     C31733  10.865   1.692   0.325 -0.0479  0.4805 -0.4765
  241MOL0     C31734  10.963   1.490   0.716 -0.1325 -0.1189  1.0098
  241MOL0     C31735  10.990   1.356   0.669  0.6875 -0.3877 -0.1474
  241MOL0     C31736  11.085   1.274   0.744  0.1345 -0.3144  0.3885
  241MOL0     C31737  11.138   1.319   0.863  0.7892 -0.5402  1.0553
  241MOL0     O31738  11.230   1.239   0.935  0.4641 -0.0693  0.1714
  241MOL0     C31739  11.234   1.102   0.919  0.6618 -0.6133 -0.7471
  241MOL0     C31740  11.350   1.055   1.001 -1.2713 -0.2818 -1.2913
  241MOL0     C31741  11.387   0.912   0.951  0.2498  0.0823  0.9260
  241MOL0     C31742  11.498   0.848   1.032  0.0487 -0.4279 -0.1512
  241MOL0     C31743  11.625   0.922   1.000  0.6650  0.3980  0.2872
  241MOL0     C31744  11.721   0.983   0.958  0.3383 -0.4282  0.4158
  241MOL0     C31745  11.114   1.450   0.908  1.2309 -0.1592 -0.0362
  241MOL0     C31746  11.036   1.534   0.832 -0.5073 -0.6885 -1.5032
  241MOL0     H31747  10.582   1.584   0.500  0.1127 -0.7792  0.4211
  241MOL0     H31748  10.483   1.720   0.349  0.6530 -0.2289 -2.0417
  241MOL0     H31749  10.570   2.011   0.003  0.4382 -1.2290 -0.4800
  241MOL0     H31750  10.718   1.920   0.000  1.1843 -0.2897  0.2172
  241MOL0     H31751  10.825   2.063   0.133 -0.4535 -1.5380  0.9978
  241MOL0     H31752  10.699   2.088   0.253 -0.7054 -1.5964 -0.1619
  241MOL0     H31753  10.672   2.298   0.186 -2.2524 -1.4556  0.5799
  241MOL0     H31754  10.601   2.244   0.034 -1.5154  1.0982  1.2960
  241MOL0     H31755  10.900   2.263   0.042  0.2772 -0.5604 -0.5822
  241MOL0     H31756  10.776   2.265  -0.090  1.8303  0.7119 -1.1971
  241MOL0     H31757  10.870   2.503  -0.045  1.3297 -1.4485 -0.1101
  241MOL0     H31758  10.856   2.472   0.119  3.4119 -3.7503 -0.9962
  241MOL0     H31759  10.602   2.488   0.112  1.1521 -2.5964 -0.1508
  241MOL0     H31760  10.614   2.493  -0.073  3.8549 -0.3899 -1.9868
  241MOL0     H31761  10.753   2.685   0.124  2.9473 -0.7894 -3.1670
  241MOL0     H31762  10.715   2.723  -0.046  2.1025  1.9568  1.3408
  241MOL0     H31763  10.519   2.722   0.192  1.8192  0.3135  1.0485
  241MOL0     H31764  10.478   2.728   0.018  1.1149 -3.4977 -1.0176
  241MOL0     H31765  10.700   2.927  -0.101  0.9867 -0.4734  0.1295
  241MOL0     H31766  10.730   3.278   0.073  2.9695 -0.2531  0.7892
  241MOL0     H31767  10.690   3.243  -0.099 -3.4000 -0.9891  1.8245
  241MOL0     H31768  10.918   3.271  -0.058 -2.9946  0.3255 -1.6757
  241MOL0     H31769  10.877   3.113  -0.121  0.0166  2.4633 -1.1699
  241MOL0     H31770  10.955   3.194   0.162  0.8915  0.0172 -0.7265
  241MOL0     H31771  10.897   3.032   0.134  3.2716 -1.0153  0.8777
  241MOL0     H31772  11.134   3.030   0.153  0.9809 -1.0452 -1.7435
  241MOL0     H31773  11.150   3.132   0.011 -0.0094  0.2617 -1.3065
  241MOL0     H31774  11.335   2.978   0.002 -1.7257  0.8889  0.8277
  241MOL0     H31775  11.515   2.787  -0.002  1.2404 -1.8105  1.6272
  241MOL0     H31776  11.667   2.361  -0.230  0.9423 -1.2892 -0.3463
  241MOL0     H31777  11.723   2.158  -0.338 -1.0257  1.0470 -2.3181
  241MOL0     H31778  11.401   1.879  -0.529 -2.3890 -0.8115  0.6460
  241MOL0     H31779  11.420   1.824  -0.356 -0.2117 -1.2787 -1.0465
  241MOL0     H31780  11.604   1.678  -0.431  2.1064  0.0985  0.1448
  241MOL0     H31781  11.595   1.746  -0.591 -1.7958  2.3881  0.5928
  241MOL0     H31782  11.374   1.631  -0.621  0.0710  2.0534  0.2217
  241MOL0     H31783  11.367   1.600  -0.448  3.6808 -0.0731  2.8655
  241MOL0     H31784  11.531   1.455  -0.675  2.3261 -2.6603  0.4424
  241MOL0     H31785  11.610   1.453  -0.525 -0.6979  2.6391  2.6113
  241MOL0     H31786  11.347   1.341  -0.607  1.4167  0.8264 -0.6595
  241MOL0     H31787  11.377   1.376  -0.434 -1.1334  2.7252 -0.5856
  241MOL0     H31788  11.591   1.253  -0.451 -1.1687  1.8929  1.6904
  241MOL0     H31789  11.545   1.192  -0.617 -2.3368  2.2508 -0.9696
  241MOL0     H31790  11.346   1.143  -0.401  2.3711  2.9347  1.1677
  241MOL0     H31791  11.381   1.062  -0.550  0.6274  1.7453 -0.9639
  241MOL0     H31792  11.425   0.939  -0.320 -2.5615  2.0084 -0.7730
  241MOL0     H31793  11.561   1.056  -0.292 -0.8002  1.2419  0.1267
  241MOL0     H31794  11.300   2.043  -0.333  1.2750 -1.1670  0.4979
  241MOL0     H31795  11.253   2.232  -0.218 -1.5199 -2.2362 -4.2195
  241MOL0     H31796  11.190   2.528  -0.117 -0.9154  0.0070  0.5200
  241MOL0     H31797  11.038   2.688  -0.059  0.4144 -1.3481 -0.2642
  241MOL0     H31798  10.864   1.819   0.161  0.3225  2.5000  0.5239
  241MOL0     H31799  10.968   1.669   0.299 -0.2773  0.8273 -1.7516
  241MOL0     H31800  10.952   1.317   0.576 -3.5146  1.8430  0.3800
  241MOL0     H31801  11.126   1.183   0.701  2.1407  0.7971 -0.2404
  241MOL0     H31802  11.251   1.079   0.814  0.3570 -1.4968 -0.6150
  241MOL0     H31803  11.142   1.060   0.961  1.2258 -1.5744 -0.4128
  241MOL0     H31804  11.432   1.126   0.995  0.9888 -2.7088 -0.7956
  241MOL0     H31805  11.319   1.053   1.106  0.0560 -0.6845 -0.8868
  241MOL0     H31806  11.421   0.919   0.847  0.2887  0.4412  0.9616
  241MOL0     H31807  11.291   0.861   0.960  0.4933 -0.3009  1.4027
  241MOL0     H31808  11.478   0.869   1.138  0.1725  1.5639 -0.4786
  241MOL0     H31809  11.511   0.742   1.010 -0.0520 -1.1513  2.8520
  241MOL0     H31810  11.798   1.055   0.941  0.6237 -1.1736 -1.7892
  241MOL0     H31811  11.161   1.478   1.002  0.9580 -3.8284  1.3599
  241MOL0     H31812  11.027   1.639   0.858  2.8245 -0.7865  0.6733
  242MOL0     O31813   3.584   1.362   7.809 -0.4091  0.3852 -0.3429
  242MOL0     C31814   3.477   1.371   7.866  0.0767  0.5400 -0.1906
  242MOL0     O31815   3.435   1.478   7.934 -0.0169  0.0572 -0.4693
  242MOL0     C31816   3.527   1.578   7.958  0.3980  0.4135 -0.1457
  242MOL0     C31817   3.498   1.715   7.938 -0.4036  1.1892 -0.7162
  242MOL0     C31818   3.593   1.816   7.958 -0.4867 -0.5591 -0.4124
  242MOL0     C31819   3.711   1.785   8.021 -0.4304  0.7272 -0.3860
  242MOL0     O31820   3.794   1.881   8.069  0.5763  0.1859  0.4054
  242MOL0     C31821   3.810   2.004   7.999 -0.6634  0.5077  0.1260
  242MOL0     C31822   3.950   2.070   8.021 -0.3196 -0.2896  0.7481
  242MOL0     C31823   4.071   1.983   7.994  0.4520 -0.2222 -0.5522
  242MOL0     C31824   4.198   2.042   8.055 -0.1158 -0.4090 -0.0307
  242MOL0     C31825   4.308   1.939   8.038  0.5115  0.7503  0.1222
  242MOL0     C31826   4.438   2.003   8.086 -0.2530 -0.0940  0.8242
  242MOL0     C31827   4.558   1.927   8.025  0.1300  0.7182 -0.5838
  242MOL0     C31828   4.687   2.013   8.037 -0.0238 -0.4254 -0.0431
  242MOL0     N31829   4.804   1.924   8.001 -0.4193 -0.8265  0.8009
  242MOL0     C31830   4.853   1.886   7.874 -0.1153  0.5075 -0.3468
  242MOL0     C31831   4.932   1.785   7.902 -0.1283  0.4286 -0.5423
  242MOL0     C31832   5.001   1.714   7.788  0.0104 -1.0767 -0.0190
  242MOL0     C31833   4.903   1.641   7.692 -1.1424  0.2599  0.7833
  242MOL0     C31834   4.977   1.574   7.568  0.0911  0.0161 -0.6680
  242MOL0     C31835   4.910   1.448   7.530 -0.4854 -0.2903 -0.3755
  242MOL0     O31836   4.915   1.342   7.623 -0.0177 -0.4715 -0.6112
  242MOL0     C31837   4.845   1.226   7.599  0.2849 -0.4574  0.5431
  242MOL0     C31838   4.789   1.193   7.476  1.1484 -0.3159 -0.8614
  242MOL0     C31839   4.741   1.067   7.456 -0.8562  0.7319  0.1222
  242MOL0     C31840   4.738   0.964   7.552  0.2592 -0.0114 -0.5004
  242MOL0     C31841   4.657   0.843   7.528 -0.4677 -0.4871  0.5491
  242MOL0     O31842   4.649   0.755   7.627 -0.2366  0.1427 -0.0686
  242MOL0     C31843   4.601   0.627   7.597  0.5062  0.7649 -0.5930
  242MOL0     C31844   4.461   0.616   7.580 -0.0602  0.1081 -0.4460
  242MOL0     C31845   4.398   0.496   7.547 -1.0964 -0.8980 -0.6147
  242MOL0     C31846   4.486   0.384   7.550 -0.7772  0.4651 -0.0271
  242MOL0     O31847   4.435   0.255   7.529  0.1863 -0.1572 -0.0820
  242MOL0     C31848   4.291   0.245   7.515 -0.5231 -0.1021  0.2553
  242MOL0     C31849   4.237   0.107   7.525  0.0475  0.2540  0.0148
  242MOL0     C31850   4.096   0.105   7.476  1.4937  0.7294  0.2417
  242MOL0     C31851   4.029  -0.027   7.497  0.5459  0.5342 -0.1216
  242MOL0     C31852   3.914  -0.056   7.401  0.0210  0.3929  0.4355
  242MOL0     C31853   3.809   0.052   7.387  0.4626  0.3326 -0.5528
  242MOL0     C31854   3.731   0.062   7.524  1.2851  0.7639  1.2156
  242MOL0     C31855   3.636  -0.056   7.562 -0.5738  0.2653  0.6760
  242MOL0    Cl31856   3.679  -0.125   7.719 -0.0082  0.1218 -0.1606
  242MOL0     C31857   4.621   0.386   7.567 -1.0452 -1.2983  0.5165
  242MOL0     C31858   4.677   0.508   7.592  0.3124  0.2738 -0.3471
  242MOL0     O31859   4.608   0.832   7.417 -0.2492 -0.6142 -0.3159
  242MOL0     C31860   4.785   0.996   7.676 -0.2028 -0.7028  0.1134
  242MOL0     C31861   4.844   1.129   7.696 -0.1073  0.4879  0.1858
  242MOL0     N31862   4.953   1.773   8.036 -0.6546 -0.3605 -1.1327
  242MOL0     N31863   4.871   1.853   8.093 -0.1396 -0.5251  0.4577
  242MOL0     C31864   3.738   1.651   8.056  0.1624 -0.2286 -0.3405
  242MOL0     C31865   3.647   1.555   8.021 -0.3679 -0.1585  0.0142
  242MOL0     C31866   3.405   1.244   7.884  0.6234 -0.1937 -1.1976
  242MOL0     C31867   3.395   1.147   7.782  0.4228 -0.1279 -0.0351
  242MOL0     C31868   3.323   1.036   7.806 -1.0910  1.0542  0.1230
  242MOL0     C31869   3.251   1.011   7.925  0.1796  0.0153 -0.2147
  242MOL0     O31870   3.189   0.896   7.942 -0.7382 -0.7026  0.0611
  242MOL0     C31871   3.071   0.892   7.859  0.1060 -0.3944  0.2076
  242MOL0     C31872   3.020   0.746   7.845  0.2188 -0.4921  0.2797
  242MOL0     C31873   3.101   0.675   7.749 -0.8696  0.0259 -0.1117
  242MOL0     C31874   3.085   0.695   7.606 -0.9424  0.5537 -0.4434
  242MOL0     C31875   3.158   0.806   7.545 -0.1735 -0.1184  0.3085
  242MOL0     C31876   3.217   0.876   7.477 -0.6863  0.0810 -0.6728
  242MOL0     C31877   3.254   1.110   8.020  1.0419 -0.1019 -0.3787
  242MOL0     C31878   3.332   1.223   8.007 -0.1114  0.1065 -0.3917
  242MOL0     H31879   3.399   1.741   7.902 -1.1591 -2.8274 -2.0311
  242MOL0     H31880   3.567   1.915   7.920  1.7199 -0.2687 -1.3551
  242MOL0     H31881   3.726   2.073   8.012 -0.6562  0.7337 -0.9724
  242MOL0     H31882   3.806   1.978   7.893  0.1360  2.0956 -0.3148
  242MOL0     H31883   3.959   2.107   8.124 -1.7121 -1.3602  1.2704
  242MOL0     H31884   3.960   2.163   7.963 -1.9128 -0.2532  0.5002
  242MOL0     H31885   4.069   1.963   7.887  0.9550  0.6634 -0.7385
  242MOL0     H31886   4.052   1.889   8.047 -0.6958 -1.2686 -2.7049
  242MOL0     H31887   4.215   2.140   8.010 -0.4392 -0.4771 -0.3065
  242MOL0     H31888   4.178   2.061   8.161 -0.0044  2.0381 -0.3897
  242MOL0     H31889   4.305   1.922   7.930 -2.0657  1.2766  0.0463
  242MOL0     H31890   4.302   1.843   8.090  1.7081 -0.0400 -1.1128
  242MOL0     H31891   4.441   2.006   8.195 -2.0311  0.2012  0.8925
  242MOL0     H31892   4.456   2.100   8.040  2.0168 -0.8160  0.0349
  242MOL0     H31893   4.574   1.831   8.075 -0.3442 -1.8517 -4.9178
  242MOL0     H31894   4.548   1.896   7.921 -0.6765 -0.5084 -0.1646
  242MOL0     H31895   4.698   2.045   8.141 -0.7301 -0.1927 -0.0325
  242MOL0     H31896   4.676   2.101   7.974 -1.3727 -0.1181  0.5798
  242MOL0     H31897   4.809   1.926   7.784 -3.6108  1.6277  1.6502
  242MOL0     H31898   5.077   1.650   7.836  1.5875  0.6767 -0.0662
  242MOL0     H31899   5.053   1.790   7.731  0.3350 -1.6447 -0.4922
  242MOL0     H31900   4.833   1.718   7.656 -2.8619 -0.9359  1.4281
  242MOL0     H31901   4.849   1.560   7.742  0.5155 -1.9685 -0.8082
  242MOL0     H31902   4.968   1.631   7.475 -1.6330 -0.8518 -1.0640
  242MOL0     H31903   5.084   1.569   7.594  0.8468 -0.7712 -3.5801
  242MOL0     H31904   4.950   1.422   7.432  3.1568 -0.0476  0.9020
  242MOL0     H31905   4.806   1.472   7.507 -0.0718  0.4365 -1.5717
  242MOL0     H31906   4.795   1.259   7.391  0.0562 -0.7897 -1.3230
  242MOL0     H31907   4.707   1.048   7.354  1.8223  1.7840 -1.0406
  242MOL0     H31908   4.393   0.697   7.600 -1.0747 -0.6686 -0.6698
  242MOL0     H31909   4.290   0.505   7.540 -0.9630  1.6951 -0.1839
  242MOL0     H31910   4.266   0.288   7.418 -3.6781  1.1156  1.4695
  242MOL0     H31911   4.241   0.291   7.601  1.5233  1.3481  0.7388
  242MOL0     H31912   4.232   0.079   7.630 -0.4491  0.4655  0.0492
  242MOL0     H31913   4.305   0.036   7.476  0.1140 -0.2701  0.8384
  242MOL0     H31914   4.095   0.124   7.368  3.0485  0.3914  0.1362
  242MOL0     H31915   4.047   0.191   7.524  2.1583  0.2349  1.8629
  242MOL0     H31916   4.099  -0.111   7.495  0.7502  0.7120 -0.3399
  242MOL0     H31917   3.982  -0.021   7.596 -1.4468  0.6536 -1.0294
  242MOL0     H31918   3.874  -0.153   7.430 -0.2576 -0.4554 -2.5260
  242MOL0     H31919   3.967  -0.072   7.307  0.8144 -2.2097  1.2570
  242MOL0     H31920   3.744   0.026   7.303 -0.5774 -1.1819  0.6603
  242MOL0     H31921   3.863   0.146   7.376  3.1754 -1.1367 -0.4910
  242MOL0     H31922   3.805   0.074   7.603  2.0313 -1.6108  0.9349
  242MOL0     H31923   3.668   0.152   7.530 -0.5881 -0.3187 -0.6841
  242MOL0     H31924   3.638  -0.140   7.492 -0.0711 -0.0680  1.0813
  242MOL0     H31925   3.534  -0.017   7.558  0.4025  3.2598  2.1806
  242MOL0     H31926   4.683   0.298   7.570 -0.3312 -0.7860  1.4237
  242MOL0     H31927   4.785   0.526   7.595  0.3068  0.3300  2.4616
  242MOL0     H31928   4.797   0.930   7.761  0.5659 -1.2853 -0.4200
  242MOL0     H31929   4.902   1.145   7.787  0.0836  1.5323 -0.1024
  242MOL0     H31930   3.819   1.622   8.122  0.9035  0.7667 -0.7754
  242MOL0     H31931   3.673   1.450   8.035 -0.6145 -0.2889 -0.4817
  242MOL0     H31932   3.459   1.144   7.695 -0.7217 -0.6172 -0.8839
  242MOL0     H31933   3.326   0.945   7.747 -2.3022 -0.1440  1.8033
  242MOL0     H31934   3.074   0.941   7.761 -3.6896 -0.1473  0.0819
  242MOL0     H31935   2.992   0.947   7.913  1.3200  0.7451  0.8956
  242MOL0     H31936   3.034   0.694   7.940 -1.6881  1.0155  1.4688
  242MOL0     H31937   2.914   0.742   7.819 -0.1741  0.8531  1.5104
  242MOL0     H31938   3.075   0.570   7.766 -1.1823  0.2673  1.0326
  242MOL0     H31939   3.207   0.683   7.777  0.4538 -0.3873 -4.3473
  242MOL0     H31940   3.116   0.598   7.567 -1.5522 -1.8462  4.3950
  242MOL0     H31941   2.981   0.711   7.577 -0.5718  0.8543 -1.6765
  242MOL0     H31942   3.264   0.957   7.425 -2.1359  0.5242 -1.3195
  242MOL0     H31943   3.176   1.090   8.093 -0.6067 -2.2614 -2.5426
  242MOL0     H31944   3.324   1.302   8.081  0.1434  0.2314 -0.4981
  243MOL0     O31945   8.271   3.159   3.645 -0.5644 -0.2044  0.3916
  243MOL0     C31946   8.253   3.231   3.741  0.3403  0.0270 -0.4521
  243MOL0     O31947   8.176   3.347   3.745 -0.5374  0.3213  0.8235
  243MOL0     C31948   8.076   3.382   3.660 -0.1472 -0.4285 -0.2762
  243MOL0     C31949   8.110   3.436   3.535  0.5417  0.7618 -0.5084
  243MOL0     C31950   8.002   3.459   3.446  0.6148 -0.1095  0.1887
  243MOL0     C31951   7.862   3.447   3.490 -0.9573 -0.1913  0.1839
  243MOL0     O31952   7.757   3.484   3.415 -0.8420 -0.3529  0.1232
  243MOL0     C31953   7.755   3.421   3.285 -0.7602  0.1754  0.1622
  243MOL0     C31954   7.627   3.480   3.214 -0.4446  0.0284 -0.1722
  243MOL0     C31955   7.494   3.450   3.281 -0.0349  0.3711 -0.8676
  243MOL0     C31956   7.473   3.306   3.333 -0.3572 -0.0397  0.5353
  243MOL0     C31957   7.333   3.292   3.402  0.6967  0.5584 -0.1727
  243MOL0     C31958   7.291   3.373   3.527 -0.1348  1.0464  0.4703
  243MOL0     C31959   7.233   3.503   3.494  0.4516  0.1930 -0.1186
  243MOL0     C31960   7.168   3.559   3.616  0.5618 -0.3810  0.9633
  243MOL0     N31961   7.260   3.596   3.723 -0.4963 -0.1276  0.2291
  243MOL0     C31962   7.379   3.664   3.717  0.4539 -0.4199  0.0299
  243MOL0     C31963   7.406   3.689   3.845 -0.5975 -0.9362  0.3017
  243MOL0     C31964   7.538   3.740   3.907 -0.1841  0.1679 -0.2790
  243MOL0     C31965   7.647   3.622   3.909  0.6822 -0.0707 -0.3092
  243MOL0     C31966   7.780   3.676   3.919  0.1111 -0.3772 -0.1532
  243MOL0     C31967   7.791   3.756   4.043 -0.5916  0.0246  0.0619
  243MOL0     O31968   7.915   3.826   4.034  0.5433 -0.2985 -0.8878
  243MOL0     C31969   8.015   3.787   4.114 -0.1521 -0.6480 -0.0555
  243MOL0     C31970   8.002   3.776   4.255 -0.0290 -0.2713 -0.4283
  243MOL0     C31971   8.107   3.738   4.333 -0.0071 -0.7629 -0.2859
  243MOL0     C31972   8.230   3.711   4.270  0.0163 -0.6408 -0.3613
  243MOL0     C31973   8.338   3.653   4.354 -0.1976  0.2394 -0.7665
  243MOL0     O31974   8.297   3.591   4.469 -0.3348  0.1900  0.0798
  243MOL0     C31975   8.379   3.495   4.512 -0.3332  0.2806 -0.2658
  243MOL0     C31976   8.320   3.370   4.522  0.2774  0.1868  0.6444
  243MOL0     C31977   8.393   3.269   4.586  0.8634  0.1710  0.1120
  243MOL0     C31978   8.506   3.297   4.660 -0.3558  0.2999  1.1573
  243MOL0     O31979   8.555   3.194   4.739 -0.0148  0.6313 -0.1860
  243MOL0     C31980   8.691   3.205   4.788 -0.1319  0.1725  0.8036
  243MOL0     C31981   8.735   3.062   4.815  0.2697 -0.9279 -0.7426
  243MOL0     C31982   8.863   3.068   4.902  1.1194 -0.2087  0.1489
  243MOL0     C31983   8.941   2.935   4.888  0.4367 -0.7012 -0.9614
  243MOL0     C31984   9.082   2.934   4.960  0.0564  0.4284  0.7055
  243MOL0     C31985   9.182   3.053   4.948 -0.5463 -0.8653 -0.6723
  243MOL0     C31986   9.320   3.017   4.961  0.5558  0.4587 -0.4559
  243MOL0     C31987   9.420   3.127   4.981  0.1172 -0.0206  0.2086
  243MOL0    Cl31988   9.433   3.135   5.152 -0.0584  0.2285  0.1835
  243MOL0     C31989   8.565   3.423   4.644 -0.2247  0.6402  0.0565
  243MOL0     C31990   8.501   3.523   4.580 -0.3255  0.0341  1.1580
  243MOL0     O31991   8.451   3.656   4.311  0.0823 -0.3412  0.5253
  243MOL0     C31992   8.247   3.718   4.132  0.0451 -0.0980  0.5696
  243MOL0     C31993   8.140   3.763   4.059 -0.1575 -0.0481  1.0326
  243MOL0     N31994   7.300   3.650   3.925  0.5448 -0.4717  0.3748
  243MOL0     N31995   7.215   3.586   3.852  0.5266  0.5908 -1.0034
  243MOL0     C31996   7.842   3.396   3.621  0.0723  0.4268 -0.7040
  243MOL0     C31997   7.949   3.367   3.705  0.5977 -0.7018 -0.3896
  243MOL0     C31998   8.333   3.219   3.864  1.3179  0.7697  0.7756
  243MOL0     C31999   8.316   3.290   3.982  0.0007  1.3270  0.1306
  243MOL0     C32000   8.409   3.270   4.092  1.1695 -0.2286 -0.1854
  243MOL0     C32001   8.507   3.176   4.084 -0.8227  0.9293 -0.5721
  243MOL0     O32002   8.588   3.135   4.187  1.0238  0.6177 -0.5776
  243MOL0     C32003   8.583   3.191   4.324  0.3645  0.1924 -0.3555
  243MOL0     C32004   8.718   3.257   4.352 -0.2594  0.4222  0.2212
  243MOL0     C32005   8.813   3.132   4.376 -0.2879  0.4026  0.1581
  243MOL0     C32006   8.963   3.165   4.377 -0.3186  0.9730  0.0164
  243MOL0     C32007   8.987   3.225   4.507  1.3243  0.4569  1.0162
  243MOL0     C32008   8.998   3.264   4.616 -0.4074  0.3697 -0.2864
  243MOL0     C32009   8.524   3.107   3.958 -0.5621 -0.3228  0.7488
  243MOL0     C32010   8.454   3.141   3.849  0.5855 -0.2652  1.1925
  243MOL0     H32011   8.214   3.449   3.507  0.9747  0.2479  0.7517
  243MOL0     H32012   8.010   3.522   3.358 -2.4473  2.1527  1.3732
  243MOL0     H32013   7.751   3.313   3.300  0.4962  0.2666  1.3877
  243MOL0     H32014   7.844   3.444   3.227 -0.1838 -4.3919 -1.1462
  243MOL0     H32015   7.616   3.443   3.112  0.5575  1.3621 -0.7739
  243MOL0     H32016   7.643   3.586   3.197 -1.3735  0.1974 -0.0493
  243MOL0     H32017   7.420   3.458   3.201  0.7910 -4.1975 -2.3827
  243MOL0     H32018   7.483   3.528   3.357  0.6444 -0.6358  0.3091
  243MOL0     H32019   7.483   3.235   3.250 -2.3215 -2.7718  2.4969
  243MOL0     H32020   7.550   3.283   3.408  1.9576 -1.6223 -2.1073
  243MOL0     H32021   7.317   3.189   3.434 -0.0732  0.9143  0.6137
  243MOL0     H32022   7.260   3.315   3.324 -0.8494  0.9891  1.3590
  243MOL0     H32023   7.381   3.388   3.588 -0.3968 -1.4319  1.5627
  243MOL0     H32024   7.220   3.314   3.585  0.1250  0.7898  0.5308
  243MOL0     H32025   7.310   3.573   3.458 -1.5901  0.2675 -5.0727
  243MOL0     H32026   7.165   3.491   3.410  4.7757 -4.7693 -3.5883
  243MOL0     H32027   7.086   3.491   3.641  0.2536 -2.3548 -4.0897
  243MOL0     H32028   7.119   3.652   3.585  0.4941 -1.0820 -1.1881
  243MOL0     H32029   7.446   3.681   3.633 -3.7540 -0.3090 -3.6483
  243MOL0     H32030   7.524   3.800   3.997 -1.4215  0.0954 -0.3989
  243MOL0     H32031   7.568   3.810   3.829 -0.8489  0.5250 -0.2222
  243MOL0     H32032   7.633   3.576   3.810 -0.4638 -1.0873  0.3034
  243MOL0     H32033   7.641   3.549   3.989  1.4561 -1.4472 -1.4548
  243MOL0     H32034   7.860   3.602   3.924  0.7370  0.2275 -0.9772
  243MOL0     H32035   7.799   3.743   3.835  2.1111  0.8830  1.2218
  243MOL0     H32036   7.799   3.682   4.124  0.8968 -0.4571 -0.4908
  243MOL0     H32037   7.714   3.828   4.071 -1.8563 -1.4307  0.5168
  243MOL0     H32038   7.912   3.810   4.304 -0.5596 -1.9596 -0.1494
  243MOL0     H32039   8.101   3.750   4.441  0.8128  3.8449 -0.5500
  243MOL0     H32040   8.218   3.348   4.489  0.6749 -3.8615  1.5821
  243MOL0     H32041   8.351   3.170   4.573  0.0005  0.6315 -0.7389
  243MOL0     H32042   8.679   3.256   4.884  0.5893 -0.6502  1.3448
  243MOL0     H32043   8.764   3.254   4.724 -2.5503  0.6541 -1.8207
  243MOL0     H32044   8.760   3.016   4.719  1.1891 -0.4897 -0.7298
  243MOL0     H32045   8.658   3.004   4.866 -2.6298  1.8906 -1.6544
  243MOL0     H32046   8.850   3.092   5.008  1.0338  2.5386 -0.4108
  243MOL0     H32047   8.928   3.142   4.855  0.2963  0.3825 -0.0908
  243MOL0     H32048   8.877   2.861   4.936 -2.7139  2.9472  1.0234
  243MOL0     H32049   8.949   2.908   4.782 -1.9355 -1.2580 -1.0579
  243MOL0     H32050   9.131   2.841   4.928  0.8088  1.9057 -2.8551
  243MOL0     H32051   9.057   2.910   5.064 -3.1782 -2.7528 -0.5901
  243MOL0     H32052   9.159   3.130   5.022  0.8758 -2.3985  1.4846
  243MOL0     H32053   9.175   3.096   4.848  1.4611 -1.2090 -1.0054
  243MOL0     H32054   9.324   2.940   5.038  1.0981  1.8398  0.9535
  243MOL0     H32055   9.339   2.967   4.865  0.6484  1.0133 -0.7316
  243MOL0     H32056   9.388   3.222   4.935  0.1460  0.0685  0.3722
  243MOL0     H32057   9.516   3.094   4.940  0.0148  2.3554 -2.2589
  243MOL0     H32058   8.664   3.455   4.674 -0.5751  5.7299 -3.0544
  243MOL0     H32059   8.553   3.618   4.575  3.1787 -1.7902  0.3226
  243MOL0     H32060   8.346   3.700   4.090  1.0093  3.5584  0.9188
  243MOL0     H32061   8.152   3.789   3.954 -1.3801  2.5997  1.4583
  243MOL0     H32062   7.742   3.390   3.662  0.2703  2.1531  0.1028
  243MOL0     H32063   7.933   3.334   3.808  1.4036 -0.8724 -0.3122
  243MOL0     H32064   8.239   3.366   3.986  0.8330  2.1898  0.1102
  243MOL0     H32065   8.386   3.324   4.184 -0.1682 -1.8184  0.4572
  243MOL0     H32066   8.563   3.109   4.394 -0.0765  0.5411 -0.0687
  243MOL0     H32067   8.503   3.265   4.332  2.0162  1.9685  0.4799
  243MOL0     H32068   8.756   3.311   4.266  1.2447 -1.4205 -0.3397
  243MOL0     H32069   8.720   3.329   4.434  0.4075  2.0414 -1.1621
  243MOL0     H32070   8.805   3.065   4.290 -1.6248  0.5862  0.1153
  243MOL0     H32071   8.785   3.077   4.466  0.5045 -0.4651 -0.1173
  243MOL0     H32072   9.028   3.078   4.370  0.4783  1.0738  3.8893
  243MOL0     H32073   8.991   3.228   4.292 -0.0177 -0.3610 -0.8868
  243MOL0     H32074   9.009   3.301   4.716 -2.7039 -0.3094  0.2783
  243MOL0     H32075   8.602   3.032   3.966 -0.0632 -0.0716 -1.2316
  243MOL0     H32076   8.486   3.087   3.761  1.1542 -2.6633  2.7749
  244MOL0     O32077   9.497  10.727   5.328  0.1814 -0.0558  1.0519
  244MOL0     C32078   9.616  10.752   5.338 -0.4326 -0.2294  1.4043
  244MOL0     O32079   9.673  10.778   5.457 -0.4604  0.2936 -0.5864
  244MOL0     C32080   9.591  10.758   5.565  0.8255 -0.2558  0.2935
  244MOL0     C32081   9.558  10.874   5.635 -0.2204  0.9024  0.2055
  244MOL0     C32082   9.477  10.864   5.751 -0.4897 -0.1174  0.8176
  244MOL0     C32083   9.437  10.743   5.796 -0.3652  0.7440 -0.7263
  244MOL0     O32084   9.360  10.725   5.902  0.8819 -0.5830  0.1281
  244MOL0     C32085   9.259  10.823   5.928  0.8960 -1.4272 -0.6113
  244MOL0     C32086   9.171  10.777   6.044 -0.0352 -0.0698 -0.0346
  244MOL0     C32087   9.047  10.861   6.038  0.2785  0.5731  0.1562
  244MOL0     C32088   8.941  10.810   6.139 -0.2745 -0.1040  0.2647
  244MOL0     C32089   8.803  10.880   6.111  0.2460  0.2594 -0.8848
  244MOL0     C32090   8.676  10.810   6.164 -1.0845 -0.1414 -0.1794
  244MOL0     C32091   8.642  10.677   6.095  0.2807  0.2072  1.1554
  244MOL0     C32092   8.500  10.615   6.146 -0.4678  0.3594 -0.0023
  244MOL0     N32093   8.484  10.491   6.076 -0.2274  0.1945 -0.1480
  244MOL0     C32094   8.552  10.372   6.087  0.0670 -0.4593 -0.3058
  244MOL0     C32095   8.495  10.299   5.989 -0.4588 -0.0209 -0.2733
  244MOL0     C32096   8.511  10.149   5.960 -1.1418  0.0907  0.0515
  244MOL0     C32097   8.593  10.102   5.836 -0.1302 -0.3558 -0.1377
  244MOL0     C32098   8.622   9.956   5.828 -0.1583 -0.2427  0.0173
  244MOL0     C32099   8.682   9.927   5.681  0.4937  0.0988  0.0041
  244MOL0     O32100   8.759   9.808   5.679 -0.5203 -0.1617  0.4905
  244MOL0     C32101   8.899   9.810   5.700  0.7722  0.1894 -0.1692
  244MOL0     C32102   8.974   9.698   5.694  0.2226 -0.2998 -0.7058
  244MOL0     C32103   9.114   9.691   5.692 -0.6782 -0.5782 -0.1628
  244MOL0     C32104   9.186   9.810   5.701 -0.0142 -0.7518  0.4390
  244MOL0     C32105   9.333   9.806   5.699 -0.2134  0.9451 -0.8697
  244MOL0     O32106   9.397   9.928   5.705  0.3602  0.5054 -0.0392
  244MOL0     C32107   9.533   9.930   5.722  0.7781 -1.1055  0.4154
  244MOL0     C32108   9.610  10.026   5.642  1.2106  0.1591 -0.1422
  244MOL0     C32109   9.749  10.040   5.659 -0.2043  0.5441 -0.2124
  244MOL0     C32110   9.809   9.963   5.765 -0.4002  1.0120 -0.9760
  244MOL0     O32111   9.952   9.961   5.783  0.4493 -0.4456 -1.0098
  244MOL0     C32112  10.040  10.064   5.724  0.3322 -0.2094 -0.7307
  244MOL0     C32113  10.177  10.041   5.775 -0.8286  0.3857 -0.2783
  244MOL0     C32114  10.196  10.071   5.922 -0.4258  0.4994 -0.1524
  244MOL0     C32115  10.344  10.053   5.980 -1.3210  0.5781 -0.6539
  244MOL0     C32116  10.358   9.918   6.042  0.3035  0.5903 -0.3196
  244MOL0     C32117  10.495   9.879   6.098 -0.2059 -0.0474  0.7099
  244MOL0     C32118  10.597   9.799   6.007 -0.0913  0.6263  0.6388
  244MOL0     C32119  10.565   9.659   5.998 -0.8055 -0.1757 -0.8059
  244MOL0    Cl32120  10.672   9.562   5.899 -0.1724 -0.1621  0.1011
  244MOL0     C32121   9.733   9.888   5.856  0.3695  0.5967 -0.3550
  244MOL0     C32122   9.597   9.871   5.829  1.2521  0.5298  0.3476
  244MOL0     O32123   9.390   9.697   5.703  0.6121 -1.4468  0.1361
  244MOL0     C32124   9.106   9.929   5.706 -0.4769 -0.1160  1.0000
  244MOL0     C32125   8.970   9.932   5.698  0.4407 -0.4054 -0.0464
  244MOL0     N32126   8.414  10.379   5.914  0.3132 -0.3267  0.6994
  244MOL0     N32127   8.398  10.491   5.976 -0.5756 -0.1900 -0.2068
  244MOL0     C32128   9.461  10.616   5.726 -0.3898  0.2657  0.5512
  244MOL0     C32129   9.539  10.637   5.612  0.2174 -0.1081  0.2242
  244MOL0     C32130   9.712  10.758   5.218  0.5809 -0.3731 -0.0956
  244MOL0     C32131   9.844  10.807   5.223  1.0662  0.1722  0.2315
  244MOL0     C32132   9.912  10.808   5.104  0.4374  0.5043  1.5441
  244MOL0     C32133   9.867  10.762   4.983  0.1415  0.9520 -1.0427
  244MOL0     O32134   9.932  10.759   4.867  0.3101 -0.8211 -0.0905
  244MOL0     C32135  10.073  10.791   4.865 -0.6156  0.3378 -0.7825
  244MOL0     C32136  10.142  10.767   4.738 -0.4351  1.1070  0.6844
  244MOL0     C32137  10.057  10.812   4.614 -0.5581  0.2974  0.1778
  244MOL0     C32138   9.974  10.685   4.560 -0.3113  0.5581 -0.0207
  244MOL0     C32139   9.914  10.699   4.422  0.1908 -0.2494  1.3213
  244MOL0     C32140   9.844  10.715   4.319 -0.2162  0.8033  0.0660
  244MOL0     C32141   9.738  10.716   4.977 -0.3290  1.2585 -0.1924
  244MOL0     C32142   9.661  10.712   5.098  0.4459 -0.2939 -0.0050
  244MOL0     H32143   9.583  10.973   5.600  1.0427  0.8930  1.0015
  244MOL0     H32144   9.441  10.954   5.801  1.1044  1.1590 -0.2471
  244MOL0     H32145   9.194  10.841   5.842  2.1963  2.6714 -0.9434
  244MOL0     H32146   9.303  10.917   5.961 -1.5892  0.1200 -1.4552
  244MOL0     H32147   9.232  10.778   6.135 -0.0889 -0.5828  0.0056
  244MOL0     H32148   9.139  10.676   6.019  1.7517 -0.5047 -0.7404
  244MOL0     H32149   9.000  10.855   5.940  1.5493 -3.4433 -0.4047
  244MOL0     H32150   9.070  10.966   6.061 -0.3017  0.4882  1.1691
  244MOL0     H32151   8.922  10.703   6.123 -0.6529 -0.0885  0.5942
  244MOL0     H32152   8.969  10.808   6.245  0.3396 -1.3824  0.1026
  244MOL0     H32153   8.799  10.893   6.002  2.7890  2.1796 -0.8430
  244MOL0     H32154   8.801  10.980   6.156 -2.1812 -0.5303  1.0115
  244MOL0     H32155   8.589  10.873   6.145  0.2061  2.2215  1.3708
  244MOL0     H32156   8.673  10.802   6.273 -0.6864  2.1220  0.0325
  244MOL0     H32157   8.636  10.698   5.988  2.1171 -0.0716  0.9548
  244MOL0     H32158   8.715  10.595   6.103  0.3538  0.1429  0.0679
  244MOL0     H32159   8.409  10.676   6.141 -1.5691 -0.9198  2.6732
  244MOL0     H32160   8.508  10.592   6.252 -1.6776  2.2726  0.5593
  244MOL0     H32161   8.611  10.339   6.171  0.0964 -1.8461 -0.8372
  244MOL0     H32162   8.418  10.091   5.964  0.9052 -3.5742 -0.5677
  244MOL0     H32163   8.553  10.105   6.052  0.8757 -0.1053 -0.9104
  244MOL0     H32164   8.688  10.155   5.843 -0.6243  0.4024  1.4148
  244MOL0     H32165   8.532  10.124   5.748 -3.3326 -4.4742  0.7359
  244MOL0     H32166   8.684   9.910   5.906 -0.5066 -0.2026  0.3195
  244MOL0     H32167   8.526   9.908   5.849 -1.5195  2.4919  0.4589
  244MOL0     H32168   8.731  10.021   5.654  0.9818  0.9242  3.3141
  244MOL0     H32169   8.592   9.916   5.620 -1.5781 -1.9945  3.1299
  244MOL0     H32170   8.926   9.601   5.692  0.5316 -0.6395  2.7618
  244MOL0     H32171   9.153   9.590   5.695  1.3443  0.1834  2.2272
  244MOL0     H32172   9.553  10.084   5.570 -0.3283 -2.8712 -1.5690
  244MOL0     H32173   9.817  10.098   5.597  2.0130  0.8493  2.2887
  244MOL0     H32174  10.013  10.168   5.743  2.7065  0.4692 -0.7339
  244MOL0     H32175  10.029  10.051   5.616  0.8476 -1.2164 -0.6806
  244MOL0     H32176  10.239  10.116   5.725  3.6426 -1.8313  1.4143
  244MOL0     H32177  10.206   9.937   5.760 -5.8788 -2.2373  4.4069
  244MOL0     H32178  10.134  10.003   5.981  1.5415 -1.5304 -0.2883
  244MOL0     H32179  10.162  10.173   5.943  3.3998  2.1083 -0.9192
  244MOL0     H32180  10.430  10.068   5.914  1.2008  1.6342  2.6387
  244MOL0     H32181  10.340  10.124   6.063 -4.4594  1.7171 -1.6256
  244MOL0     H32182  10.315   9.840   5.978 -0.2984  2.6105 -2.5186
  244MOL0     H32183  10.296   9.916   6.132 -0.9148 -0.1618 -1.1459
  244MOL0     H32184  10.473   9.814   6.183  0.2750  0.5518  1.3086
  244MOL0     H32185  10.546   9.969   6.134  1.0437 -0.3362 -0.2572
  244MOL0     H32186  10.594   9.842   5.906 -0.0080 -0.8052  0.0038
  244MOL0     H32187  10.700   9.821   6.033 -0.0887 -0.1904  1.3677
  244MOL0     H32188  10.463   9.631   5.971 -0.2904 -1.2906 -1.6907
  244MOL0     H32189  10.582   9.634   6.103 -1.3830  3.5290  0.2980
  244MOL0     H32190   9.787   9.824   5.925 -1.5089  1.1315  1.6874
  244MOL0     H32191   9.548   9.799   5.893 -1.9659  3.1147  1.0666
  244MOL0     H32192   9.165  10.019   5.699  0.3239 -0.6229  1.0903
  244MOL0     H32193   8.937  10.036   5.695  4.1736  0.9138 -0.6865
  244MOL0     H32194   9.431  10.517   5.757 -1.7401  0.4552 -0.0849
  244MOL0     H32195   9.574  10.553   5.552 -0.8730  1.1110 -2.2993
  244MOL0     H32196   9.897  10.824   5.316  0.4202  2.2012  0.2599
  244MOL0     H32197  10.010  10.853   5.104 -0.1296  1.9345 -0.8630
  244MOL0     H32198  10.133  10.746   4.945  2.0653  2.2231 -1.6014
  244MOL0     H32199  10.075  10.898   4.885 -2.2034 -0.0580  2.1433
  244MOL0     H32200  10.236  10.822   4.746  1.0134 -1.1921  0.3749
  244MOL0     H32201  10.167  10.661   4.732  2.1746  1.6326  1.0573
  244MOL0     H32202  10.130  10.836   4.536 -2.5456  0.9239 -1.6044
  244MOL0     H32203   9.987  10.892   4.641 -2.2620 -1.6422  1.8698
  244MOL0     H32204  10.041  10.599   4.565  1.6229  2.0564  1.3671
  244MOL0     H32205   9.902  10.649   4.635 -0.1279 -0.9718 -0.5504
  244MOL0     H32206   9.789  10.724   4.228 -0.3764 -0.3237  0.0405
  244MOL0     H32207   9.703  10.677   4.882  1.6598 -0.7739 -0.1647
  244MOL0     H32208   9.564  10.663   5.103  2.0113 -3.6453 -0.1973
  245MOL0     O32209   5.999   7.915   7.432  0.1292 -0.7993 -0.0630
  245MOL0     C32210   6.036   7.805   7.398 -0.9948  0.0895 -0.2346
  245MOL0     O32211   6.150   7.787   7.327 -0.4203  0.6322  0.3679
  245MOL0     C32212   6.210   7.892   7.254 -0.2667  0.0841 -0.1713
  245MOL0     C32213   6.130   7.979   7.177 -0.3743 -0.2776 -0.2653
  245MOL0     C32214   6.192   8.082   7.103 -1.4677 -0.1108  0.3232
  245MOL0     C32215   6.329   8.090   7.093 -0.5479 -0.1134  0.2510
  245MOL0     O32216   6.358   8.206   7.019  0.5288  0.6145 -0.1009
  245MOL0     C32217   6.496   8.219   6.980 -0.1734  0.1678  0.1961
  245MOL0     C32218   6.514   8.360   6.902 -0.4032 -0.3498 -0.1214
  245MOL0     C32219   6.660   8.406   6.919  0.1801  1.0202 -0.2540
  245MOL0     C32220   6.670   8.486   7.050 -0.3102 -0.0915  0.2751
  245MOL0     C32221   6.824   8.519   7.079  0.1147  0.5168  0.6903
  245MOL0     C32222   6.836   8.627   7.186  0.0371  0.3374  0.7859
  245MOL0     C32223   6.799   8.569   7.318 -0.8976 -0.0749 -0.2398
  245MOL0     C32224   6.817   8.679   7.426 -0.1427  0.6093 -0.1356
  245MOL0     N32225   6.761   8.621   7.544  0.4028 -0.6090 -0.1113
  245MOL0     C32226   6.633   8.571   7.559 -0.8000  0.0125  0.9068
  245MOL0     C32227   6.632   8.551   7.696  0.2292 -1.2620 -0.4916
  245MOL0     C32228   6.510   8.507   7.774 -0.1105  1.0004 -0.1908
  245MOL0     C32229   6.540   8.482   7.918  0.5079  0.2135 -0.7054
  245MOL0     C32230   6.627   8.367   7.951  0.4151  0.6291 -0.0788
  245MOL0     C32231   6.635   8.253   7.848  0.5814 -0.1054  0.2655
  245MOL0     O32232   6.707   8.136   7.874 -0.0903 -0.2837 -0.2654
  245MOL0     C32233   6.846   8.137   7.865  0.9587  0.0051 -0.4729
  245MOL0     C32234   6.915   8.015   7.907 -0.1042 -0.3959  0.8142
  245MOL0     C32235   7.055   8.005   7.923 -0.1289 -0.8608  0.1995
  245MOL0     C32236   7.132   8.111   7.885 -0.3458  0.8108 -0.6629
  245MOL0     C32237   7.279   8.090   7.875 -0.2391  0.9312 -0.2853
  245MOL0     O32238   7.321   7.984   7.961 -0.0478  0.4325  0.1062
  245MOL0     C32239   7.460   7.983   7.970 -0.4951  0.9318 -0.3568
  245MOL0     C32240   7.545   7.962   7.859  0.6079 -0.1084 -0.9717
  245MOL0     C32241   7.680   7.956   7.882  0.3402 -0.4443 -0.7753
  245MOL0     C32242   7.748   7.975   8.002  0.7053 -0.4989  0.6504
  245MOL0     O32243   7.887   7.973   8.020  0.3152 -0.0685  0.4414
  245MOL0     C32244   7.957   8.083   7.949 -0.1940 -0.0901 -0.2391
  245MOL0     C32245   7.977   8.203   8.039  0.6656 -0.5684 -1.0528
  245MOL0     C32246   8.076   8.307   7.988 -0.1919 -0.3768 -0.5469
  245MOL0     C32247   8.063   8.434   8.073 -0.1320 -0.4845  0.4340
  245MOL0     C32248   8.191   8.523   8.047  0.1486  0.6353  0.5927
  245MOL0     C32249   8.218   8.638   8.153  0.3418  0.3507  0.0031
  245MOL0     C32250   8.313   8.750   8.104  0.1043  0.7082 -0.5131
  245MOL0     C32251   8.454   8.695   8.098 -0.1193 -0.0497 -1.1291
  245MOL0    Cl32252   8.583   8.816   8.055 -0.2600  0.4191  0.0682
  245MOL0     C32253   7.659   7.995   8.111 -0.7964  0.2520 -0.0236
  245MOL0     C32254   7.521   7.996   8.098 -0.9153 -0.1430 -0.4067
  245MOL0     O32255   7.358   8.178   7.829  0.0023 -0.4180  0.1063
  245MOL0     C32256   7.071   8.230   7.838  0.3768 -0.4953  0.4896
  245MOL0     C32257   6.925   8.248   7.835 -0.4391 -0.2468  0.8622
  245MOL0     N32258   6.756   8.573   7.750  0.6669  0.1580  0.0734
  245MOL0     N32259   6.832   8.622   7.660 -0.5845 -0.7644 -0.6842
  245MOL0     C32260   6.412   8.001   7.163  0.1276 -0.1765  0.2037
  245MOL0     C32261   6.347   7.893   7.233  0.0082 -0.0423 -0.8700
  245MOL0     C32262   5.975   7.679   7.446  0.3825 -0.3799 -0.8876
  245MOL0     C32263   6.015   7.562   7.400  0.2159  0.2351 -0.7097
  245MOL0     C32264   5.951   7.439   7.423  0.3751 -0.1735 -0.9166
  245MOL0     C32265   5.822   7.443   7.484 -0.5217 -0.2512  0.5246
  245MOL0     O32266   5.755   7.326   7.509  0.2888  0.0028  1.7479
  245MOL0     C32267   5.825   7.207   7.552 -1.0494 -0.5430  0.2095
  245MOL0     C32268   5.916   7.246   7.680 -0.1162 -0.3018  0.3843
  245MOL0     C32269   5.836   7.313   7.794 -0.3061  0.3296  0.9373
  245MOL0     C32270   5.915   7.336   7.923 -0.1405 -0.8434  0.1046
  245MOL0     C32271   5.819   7.359   8.028  0.7470  0.1295 -0.6462
  245MOL0     C32272   5.743   7.389   8.113 -0.1242 -0.1177 -0.2112
  245MOL0     C32273   5.775   7.571   7.535  0.6126  0.1278  1.0914
  245MOL0     C32274   5.851   7.683   7.510  0.2055  0.0108 -0.4160
  245MOL0     H32275   6.021   7.981   7.178 -0.4496  1.1862  3.5539
  245MOL0     H32276   6.134   8.157   7.050  0.0099 -0.2726 -1.6251
  245MOL0     H32277   6.514   8.135   6.912  1.0799  0.4472  0.1628
  245MOL0     H32278   6.553   8.205   7.072  0.6298 -0.9397 -0.4522
  245MOL0     H32279   6.454   8.443   6.939 -2.9312 -0.6677 -3.1615
  245MOL0     H32280   6.497   8.333   6.798  3.0672 -5.3668  0.2268
  245MOL0     H32281   6.687   8.469   6.833 -1.2315 -0.3230 -1.7542
  245MOL0     H32282   6.729   8.321   6.923 -3.0066 -1.8081 -0.6679
  245MOL0     H32283   6.616   8.581   7.039 -1.4120 -0.6345  0.8065
  245MOL0     H32284   6.628   8.426   7.132 -0.6768  2.3051  1.9725
  245MOL0     H32285   6.872   8.561   6.991  2.7252 -0.1518  1.6965
  245MOL0     H32286   6.888   8.434   7.105  1.5371  2.1392  2.9145
  245MOL0     H32287   6.770   8.710   7.157 -0.0339 -0.3765 -1.3153
  245MOL0     H32288   6.941   8.655   7.190  0.1832  0.1158 -0.8374
  245MOL0     H32289   6.695   8.539   7.301 -0.0857 -2.2726 -1.6374
  245MOL0     H32290   6.852   8.478   7.348 -1.8702 -1.2347 -1.9013
  245MOL0     H32291   6.765   8.767   7.387 -1.8778  0.3305  1.4125
  245MOL0     H32292   6.924   8.702   7.435  0.0529 -0.3554  0.1230
  245MOL0     H32293   6.554   8.555   7.488 -1.0651  2.3486  0.6050
  245MOL0     H32294   6.482   8.414   7.723  1.4141  1.4645 -2.0046
  245MOL0     H32295   6.428   8.577   7.758  1.5367  3.3121  0.9454
  245MOL0     H32296   6.440   8.464   7.959  0.1503  2.1745 -0.6356
  245MOL0     H32297   6.576   8.573   7.967 -0.7712 -0.1798  1.0708
  245MOL0     H32298   6.725   8.416   7.959 -0.0395  1.3936  1.1040
  245MOL0     H32299   6.588   8.334   8.047 -0.2326  1.2092 -0.1325
  245MOL0     H32300   6.662   8.289   7.749 -0.2178 -2.4016 -0.8735
  245MOL0     H32301   6.529   8.228   7.837  0.0841  0.6554  2.6154
  245MOL0     H32302   6.876   7.918   7.937  0.1556 -1.0529 -0.8792
  245MOL0     H32303   7.102   7.920   7.971  5.0659  1.1595 -0.5613
  245MOL0     H32304   7.502   7.947   7.761 -2.0175 -0.0174  0.0826
  245MOL0     H32305   7.740   7.931   7.795  3.1315  1.5530  0.4082
  245MOL0     H32306   7.934   8.105   7.844  3.5865  0.0262 -1.1831
  245MOL0     H32307   8.054   8.036   7.933 -0.9068 -1.3590 -1.0796
  245MOL0     H32308   8.001   8.177   8.143 -4.3807  0.0773  0.5492
  245MOL0     H32309   7.880   8.249   8.059  1.9927  1.2408  2.0605
  245MOL0     H32310   8.048   8.334   7.886  1.4922 -1.7332 -1.4327
  245MOL0     H32311   8.178   8.267   7.986  1.0992  2.6870 -2.7027
  245MOL0     H32312   7.979   8.490   8.033  1.8637  1.3042 -1.5075
  245MOL0     H32313   8.051   8.400   8.177  1.4778  1.5327  1.3531
  245MOL0     H32314   8.191   8.551   7.941  0.3608 -1.5590 -0.0305
  245MOL0     H32315   8.279   8.458   8.048  2.5524  3.7089  1.5572
  245MOL0     H32316   8.261   8.600   8.246 -0.7623 -2.9742 -0.7112
  245MOL0     H32317   8.125   8.690   8.177  0.7355  1.0548  0.0334
  245MOL0     H32318   8.282   8.780   8.004 -1.7465 -1.4648 -0.6718
  245MOL0     H32319   8.308   8.838   8.169  2.0303  1.6479 -1.5518
  245MOL0     H32320   8.465   8.599   8.047 -0.6335  0.1806 -1.6926
  245MOL0     H32321   8.487   8.666   8.198 -2.5107  2.3898  0.5119
  245MOL0     H32322   7.699   7.992   8.211 -0.1897 -3.9005 -0.2120
  245MOL0     H32323   7.460   8.030   8.181 -1.2140  0.9281 -1.0425
  245MOL0     H32324   7.130   8.312   7.798 -1.3720  0.4146 -0.3444
  245MOL0     H32325   6.890   8.343   7.796 -0.2258 -1.3002 -2.1767
  245MOL0     H32326   6.520   8.014   7.168 -0.3181  4.7980  2.3575
  245MOL0     H32327   6.411   7.832   7.295  0.0388 -3.5181 -3.9722
  245MOL0     H32328   6.103   7.547   7.339  0.5126 -0.3859 -0.1407
  245MOL0     H32329   5.991   7.341   7.402 -0.8202 -1.0381  0.5805
  245MOL0     H32330   5.878   7.162   7.467 -2.5635 -1.1180 -0.4692
  245MOL0     H32331   5.751   7.131   7.577 -1.7925 -0.8081 -2.5327
  245MOL0     H32332   5.967   7.162   7.729  3.3315  0.8767 -0.8705
  245MOL0     H32333   5.995   7.317   7.651  1.3644 -1.0218  2.4047
  245MOL0     H32334   5.752   7.247   7.817  1.3933 -3.0497 -1.6084
  245MOL0     H32335   5.802   7.412   7.764 -0.3150 -0.0987 -0.5247
  245MOL0     H32336   5.973   7.245   7.940 -0.6579 -1.2078 -0.0321
  245MOL0     H32337   5.981   7.422   7.913 -0.0161 -0.8868  0.5618
  245MOL0     H32338   5.658   7.405   8.176 -1.1588 -1.6352 -1.1516
  245MOL0     H32339   5.682   7.585   7.589 -0.4633 -0.7255 -0.4599
  245MOL0     H32340   5.807   7.781   7.529 -2.7943 -1.7553  2.8289
  246MOL0     O32341   9.706   6.542   1.721  0.0139  0.1767 -0.2515
  246MOL0     C32342   9.625   6.581   1.799 -0.9455 -1.0878 -0.3576
  246MOL0     O32343   9.607   6.709   1.834 -0.1806 -0.3148 -0.6578
  246MOL0     C32344   9.670   6.819   1.786  0.3788  0.6822 -0.0796
  246MOL0     C32345   9.723   6.827   1.649  0.1262  0.0866  0.9118
  246MOL0     C32346   9.779   6.953   1.611 -0.5742  0.0617  0.5243
  246MOL0     C32347   9.786   7.060   1.703  0.2873  0.5996  0.1641
  246MOL0     O32348   9.841   7.173   1.666 -1.1044 -0.8189 -0.8279
  246MOL0     C32349   9.767   7.264   1.576 -0.3264  0.9929  0.2553
  246MOL0     C32350   9.855   7.296   1.456 -0.9069  0.2118 -0.6553
  246MOL0     C32351   9.765   7.382   1.372 -0.3841  0.2122 -0.6176
  246MOL0     C32352   9.856   7.451   1.258 -0.1433 -0.2457 -0.5129
  246MOL0     C32353   9.790   7.417   1.123 -0.2979  0.7187  0.2152
  246MOL0     C32354   9.836   7.482   0.995  1.1161 -0.9756 -0.7356
  246MOL0     C32355   9.800   7.637   0.990 -0.6490 -0.5684  0.1888
  246MOL0     C32356   9.866   7.732   0.893 -0.3646 -0.3932  0.5737
  246MOL0     N32357   9.836   7.687   0.754 -0.0831  0.8308 -0.0334
  246MOL0     C32358   9.931   7.624   0.674 -0.1275  0.1400  0.9812
  246MOL0     C32359   9.872   7.600   0.559  0.6392  0.3472  0.3951
  246MOL0     C32360   9.917   7.524   0.447  0.1703 -0.5145 -0.1455
  246MOL0     C32361   9.892   7.373   0.471  0.2603 -1.0170  0.2739
  246MOL0     C32362   9.930   7.287   0.351  0.2814  0.0286  0.4847
  246MOL0     C32363   9.860   7.148   0.346  0.4147 -0.1690 -0.2254
  246MOL0     O32364   9.895   7.085   0.471  0.1877 -0.2332  0.2528
  246MOL0     C32365   9.818   6.978   0.505 -0.4032  0.2586  0.5902
  246MOL0     C32366   9.766   6.969   0.633 -0.6674  0.0101  1.1181
  246MOL0     C32367   9.686   6.865   0.665  0.8729  0.5281 -0.7310
  246MOL0     C32368   9.630   6.775   0.573 -1.4348 -0.0860 -0.0816
  246MOL0     C32369   9.567   6.654   0.638  0.3840  0.3800 -0.1573
  246MOL0     O32370   9.583   6.630   0.775  0.4870 -0.9396 -0.4184
  246MOL0     C32371   9.488   6.554   0.844 -0.7174 -0.3934  0.0585
  246MOL0     C32372   9.505   6.430   0.897  0.1323  2.1104 -0.2213
  246MOL0     C32373   9.420   6.370   0.987  0.1669 -0.7253  0.8672
  246MOL0     C32374   9.299   6.440   1.019  0.5598 -0.9865  0.1501
  246MOL0     O32375   9.188   6.391   1.080 -0.1350  0.7147 -0.5373
  246MOL0     C32376   9.199   6.256   1.134  0.3299 -0.6048  0.0875
  246MOL0     C32377   9.069   6.228   1.219  0.2280  0.3829  0.0480
  246MOL0     C32378   8.960   6.170   1.131  0.3219 -1.0494  1.3916
  246MOL0     C32379   8.818   6.196   1.190 -0.0715 -0.2007 -0.7085
  246MOL0     C32380   8.804   6.148   1.338 -0.2410 -0.1002 -0.0791
  246MOL0     C32381   8.817   6.006   1.344 -0.7673  0.8504 -0.3948
  246MOL0     C32382   8.793   5.952   1.489 -0.4511  0.3242  0.0567
  246MOL0     C32383   8.765   5.803   1.501 -0.1507  0.3619  0.1759
  246MOL0    Cl32384   8.590   5.772   1.462 -0.6427  0.0331  0.1500
  246MOL0     C32385   9.276   6.575   0.967  0.2352  0.2497  0.4204
  246MOL0     C32386   9.371   6.628   0.884  0.4228  0.2892 -0.3285
  246MOL0     O32387   9.485   6.594   0.572  0.4426 -0.5197 -0.1267
  246MOL0     C32388   9.689   6.782   0.446  0.8780 -0.6449 -0.0271
  246MOL0     C32389   9.783   6.879   0.408  0.0694  0.1111  0.4290
  246MOL0     N32390   9.741   7.638   0.565  0.3914 -0.4201 -0.8760
  246MOL0     N32391   9.715   7.685   0.688 -0.3251 -0.2394  1.1184
  246MOL0     C32392   9.718   7.056   1.817  0.0013 -0.1886  1.3772
  246MOL0     C32393   9.659   6.936   1.864 -0.0820 -0.1324  0.1555
  246MOL0     C32394   9.515   6.493   1.841 -0.4841 -0.3877  0.2415
  246MOL0     C32395   9.426   6.535   1.939  0.3677  0.2188 -0.2843
  246MOL0     C32396   9.336   6.447   1.988  0.1375  0.3865  0.1976
  246MOL0     C32397   9.320   6.321   1.935  0.3116  0.1598  0.0632
  246MOL0     O32398   9.215   6.235   1.967  0.4593  0.0044 -0.3383
  246MOL0     C32399   9.115   6.278   2.060 -0.4915 -0.0674  0.5174
  246MOL0     C32400   9.155   6.248   2.205  0.5186 -0.0952 -0.6368
  246MOL0     C32401   9.200   6.111   2.239  0.1518  0.6029  0.7699
  246MOL0     C32402   9.258   6.088   2.381 -0.2547 -0.4880 -0.0709
  246MOL0     C32403   9.156   6.093   2.487  0.4868  0.3091 -0.3056
  246MOL0     C32404   9.064   6.107   2.559 -0.5418  0.8909 -0.0167
  246MOL0     C32405   9.402   6.279   1.834  0.5555 -1.5181 -0.3490
  246MOL0     C32406   9.502   6.371   1.793 -0.7049  0.8744  0.0267
  246MOL0     H32407   9.722   6.743   1.580 -1.4243  0.6661  0.1996
  246MOL0     H32408   9.792   6.980   1.507 -3.9127 -0.2009 -0.0906
  246MOL0     H32409   9.744   7.357   1.629 -0.2088  1.3615 -0.3438
  246MOL0     H32410   9.681   7.206   1.540  2.0033 -4.3900  2.2112
  246MOL0     H32411   9.890   7.203   1.409  1.1158  1.1257 -1.1110
  246MOL0     H32412   9.941   7.354   1.491 -0.1270 -0.8066 -0.7983
  246MOL0     H32413   9.716   7.454   1.438 -2.7987 -0.7939 -1.2099
  246MOL0     H32414   9.687   7.334   1.313 -1.8925  1.8798 -0.0726
  246MOL0     H32415   9.858   7.558   1.280 -0.6672  0.0190 -1.7241
  246MOL0     H32416   9.961   7.420   1.252  1.2900  4.1709 -1.6790
  246MOL0     H32417   9.682   7.423   1.140 -0.1637 -1.0663  2.0675
  246MOL0     H32418   9.814   7.311   1.117  1.9175  1.2203 -0.5913
  246MOL0     H32419   9.794   7.425   0.912 -0.8357 -1.7156  0.6769
  246MOL0     H32420   9.944   7.486   0.981  0.9860  1.7547 -1.3330
  246MOL0     H32421   9.692   7.659   0.986 -0.5641 -0.3600 -1.6297
  246MOL0     H32422   9.847   7.677   1.081  1.6938  2.2371 -2.0548
  246MOL0     H32423   9.975   7.721   0.900 -0.0254  2.4339  0.6253
  246MOL0     H32424   9.840   7.838   0.899 -2.8488 -0.7757 -1.6808
  246MOL0     H32425  10.031   7.600   0.708  0.2359 -1.1414 -0.8418
  246MOL0     H32426  10.021   7.549   0.427 -0.1430  0.2278 -0.9137
  246MOL0     H32427   9.863   7.552   0.356  1.0401 -0.3111 -0.6118
  246MOL0     H32428   9.786   7.360   0.494  0.3264 -0.1222  1.1304
  246MOL0     H32429   9.942   7.338   0.562  1.3508 -1.5905 -0.5204
  246MOL0     H32430   9.921   7.340   0.256  0.7641  2.2187  1.6015
  246MOL0     H32431  10.036   7.268   0.371  0.0260 -2.2971 -0.1403
  246MOL0     H32432   9.896   7.096   0.257  0.8063 -0.3658  0.0452
  246MOL0     H32433   9.751   7.153   0.333  0.2182  1.0543  1.5946
  246MOL0     H32434   9.799   7.042   0.707 -2.2831  0.2743  1.6048
  246MOL0     H32435   9.643   6.863   0.765  2.7603 -0.1342  0.1142
  246MOL0     H32436   9.596   6.375   0.873 -2.4640 -1.6704 -2.3454
  246MOL0     H32437   9.452   6.269   1.011 -1.0452 -0.8826  1.9542
  246MOL0     H32438   9.282   6.280   1.202 -0.3700  5.6152 -0.6374
  246MOL0     H32439   9.227   6.193   1.050 -1.0560  2.1892 -2.6741
  246MOL0     H32440   9.051   6.324   1.268 -0.4935  0.8888 -1.1734
  246MOL0     H32441   9.089   6.150   1.294  1.1605 -1.3905 -1.9227
  246MOL0     H32442   8.981   6.063   1.126 -0.3751 -1.1814  1.1777
  246MOL0     H32443   8.955   6.219   1.034 -1.2298 -0.1059  1.9104
  246MOL0     H32444   8.797   6.303   1.191 -0.5838 -0.1897 -3.7071
  246MOL0     H32445   8.733   6.149   1.140 -0.1781 -0.0094 -0.7082
  246MOL0     H32446   8.705   6.159   1.383  0.9506 -3.6642  4.0632
  246MOL0     H32447   8.873   6.193   1.410 -1.5309 -1.3484  2.0221
  246MOL0     H32448   8.919   5.985   1.309 -1.1672  1.0332 -1.7473
  246MOL0     H32449   8.740   5.968   1.276  0.7547 -1.8941 -0.7807
  246MOL0     H32450   8.879   5.990   1.543  1.1912  1.7231 -3.2375
  246MOL0     H32451   8.702   5.995   1.533  0.2692 -0.7052  2.7365
  246MOL0     H32452   8.781   5.756   1.599  1.6172 -0.6500 -0.5506
  246MOL0     H32453   8.827   5.747   1.431  0.3770 -0.6521  1.3995
  246MOL0     H32454   9.181   6.622   0.990  0.4783 -0.0677  2.2385
  246MOL0     H32455   9.357   6.728   0.842 -1.2914  0.4667  0.5799
  246MOL0     H32456   9.672   6.700   0.378  2.6946 -1.7025  0.7249
  246MOL0     H32457   9.837   6.863   0.315 -3.1067 -4.4665 -1.0035
  246MOL0     H32458   9.710   7.148   1.874  3.5283  0.5399  0.9639
  246MOL0     H32459   9.597   6.933   1.953  0.0638  1.9711  0.3683
  246MOL0     H32460   9.436   6.633   1.985  1.9013 -0.8106  1.7317
  246MOL0     H32461   9.276   6.480   2.073  0.7482  1.9855  0.0328
  246MOL0     H32462   9.029   6.213   2.043 -1.6901  0.9443  2.4366
  246MOL0     H32463   9.072   6.375   2.033 -1.2109 -0.4335  0.3332
  246MOL0     H32464   9.245   6.307   2.222  1.4750 -0.7660 -2.9425
  246MOL0     H32465   9.066   6.275   2.264 -2.1472 -2.1409 -3.3601
  246MOL0     H32466   9.281   6.084   2.171 -0.0139 -2.1685  1.5749
  246MOL0     H32467   9.123   6.035   2.219  1.5909 -1.2480  1.9973
  246MOL0     H32468   9.301   5.988   2.389 -3.6896 -2.1695 -0.4757
  246MOL0     H32469   9.327   6.164   2.419  3.5380 -2.9244 -1.5567
  246MOL0     H32470   8.980   6.120   2.624 -1.1711 -0.1827 -0.5738
  246MOL0     H32471   9.386   6.184   1.784  3.3711 -1.9142 -0.6361
  246MOL0     H32472   9.549   6.337   1.702  1.4796 -1.3055  1.8223
  247MOL0     O32473   2.387   5.381   8.810  0.2518 -0.7209 -0.7948
  247MOL0     C32474   2.497   5.432   8.798 -0.4544 -0.4569  0.4473
  247MOL0     O32475   2.556   5.466   8.684  0.0991 -0.4514 -0.6789
  247MOL0     C32476   2.480   5.465   8.571  0.8645 -0.2254 -0.1887
  247MOL0     C32477   2.347   5.501   8.560 -0.6570  0.4332 -0.0213
  247MOL0     C32478   2.275   5.490   8.438  1.1522 -0.3376  0.6440
  247MOL0     C32479   2.331   5.444   8.320  0.7170  0.2981  0.0586
  247MOL0     O32480   2.258   5.442   8.205  0.7860  0.2430 -0.1631
  247MOL0     C32481   2.121   5.403   8.209 -0.7851 -0.4782 -0.8017
  247MOL0     C32482   2.093   5.300   8.106 -0.5893 -0.2228  0.1167
  247MOL0     C32483   1.942   5.280   8.091 -0.3148  0.1601  0.3558
  247MOL0     C32484   1.904   5.156   8.019 -0.5010  0.1689  0.8332
  247MOL0     C32485   1.854   5.196   7.878  0.3919  0.4744  0.8829
  247MOL0     C32486   1.704   5.243   7.880 -0.7854  0.4556 -0.3582
  247MOL0     C32487   1.655   5.313   7.752  0.2552 -0.0221  0.6497
  247MOL0     C32488   1.513   5.360   7.755  1.1376  0.5569 -0.0425
  247MOL0     N32489   1.473   5.445   7.638 -1.2135 -0.8019 -0.3298
  247MOL0     C32490   1.368   5.428   7.546 -0.5759  0.7367 -0.1287
  247MOL0     C32491   1.387   5.517   7.446 -0.6772 -0.1581  0.2760
  247MOL0     C32492   1.311   5.526   7.312  0.2501 -0.2648 -0.0124
  247MOL0     C32493   1.312   5.392   7.232  0.6712 -0.0636 -0.1531
  247MOL0     C32494   1.211   5.375   7.124 -0.2397 -0.0410 -0.1896
  247MOL0     C32495   1.189   5.501   7.033  0.3466 -0.0144 -0.6660
  247MOL0     O32496   1.123   5.444   6.922  0.2008  0.2102  0.6075
  247MOL0     C32497   0.985   5.452   6.905  0.0728 -0.6123  0.5220
  247MOL0     C32498   0.930   5.355   6.814 -0.8238 -0.4037 -0.9938
  247MOL0     C32499   0.792   5.344   6.807 -0.3416 -0.2830  0.0150
  247MOL0     C32500   0.703   5.416   6.886 -0.7105 -0.9097  0.0493
  247MOL0     C32501   0.560   5.400   6.872 -0.5825  0.7279 -0.0767
  247MOL0     O32502   0.518   5.289   6.790 -0.4394 -0.0556  0.4893
  247MOL0     C32503   0.384   5.252   6.784  0.0336  0.3017  0.5089
  247MOL0     C32504   0.282   5.355   6.764  0.0761 -0.1631  0.1621
  247MOL0     C32505   0.150   5.325   6.731 -0.3980 -0.2880 -0.8930
  247MOL0     C32506   0.121   5.185   6.720  0.3795  0.3381  0.6971
  247MOL0     O32507  -0.005   5.137   6.689 -0.6020 -0.1802  0.3467
  247MOL0     C32508  -0.078   5.195   6.581 -0.0097  0.5250  0.1946
  247MOL0     C32509  -0.224   5.164   6.586  0.5701  0.8625  0.2012
  247MOL0     C32510  -0.285   5.171   6.719 -0.2916  0.2198  0.1320
  247MOL0     C32511  -0.429   5.201   6.710  0.2967 -0.1724 -0.0262
  247MOL0     C32512  -0.493   5.204   6.853 -0.7074 -0.1592  0.6481
  247MOL0     C32513  -0.644   5.212   6.860 -0.4643 -0.0144  0.7706
  247MOL0     C32514  -0.708   5.087   6.808 -0.0584  0.2934  0.5063
  247MOL0     C32515  -0.861   5.098   6.801  1.1161 -0.2221 -0.2089
  247MOL0    Cl32516  -0.938   5.119   6.960 -0.0009  0.0793  0.0078
  247MOL0     C32517   0.219   5.086   6.733 -0.9614 -0.8637  0.8953
  247MOL0     C32518   0.353   5.111   6.771  0.8789  0.4566  0.1147
  247MOL0     O32519   0.488   5.471   6.944 -0.1283  0.1513 -0.1435
  247MOL0     C32520   0.761   5.519   6.958  0.3992  0.6881 -0.7015
  247MOL0     C32521   0.896   5.543   6.972 -0.3113 -0.2471 -1.3522
  247MOL0     N32522   1.507   5.583   7.470 -0.4929 -0.5367 -0.0832
  247MOL0     N32523   1.553   5.541   7.587 -0.4605  0.5151  0.8405
  247MOL0     C32524   2.465   5.418   8.332 -0.7572  0.4242 -0.0654
  247MOL0     C32525   2.540   5.428   8.449  0.0838  0.1050 -0.2541
  247MOL0     C32526   2.568   5.462   8.922 -0.0796  0.2132  0.1806
  247MOL0     C32527   2.700   5.515   8.917  0.0077 -0.3989  0.3335
  247MOL0     C32528   2.777   5.540   9.033  0.3666  0.2933  0.3793
  247MOL0     C32529   2.734   5.490   9.155 -0.3817 -0.0664 -0.1978
  247MOL0     O32530   2.797   5.522   9.271  0.6433 -0.1474  1.2217
  247MOL0     C32531   2.937   5.558   9.262 -0.7714  0.6251  0.3008
  247MOL0     C32532   2.987   5.550   9.411  0.3302 -0.1968 -0.3412
  247MOL0     C32533   2.954   5.416   9.484  0.3331 -0.2008  0.1897
  247MOL0     C32534   2.931   5.431   9.639  0.0893 -0.2584 -1.1568
  247MOL0     C32535   3.052   5.465   9.718 -0.4110  0.3130 -0.2133
  247MOL0     C32536   3.155   5.472   9.790  0.1609 -0.1959 -0.4071
  247MOL0     C32537   2.612   5.428   9.162  0.7410 -0.2276  1.1408
  247MOL0     C32538   2.526   5.424   9.050  0.6777  0.2925 -0.3445
  247MOL0     H32539   2.297   5.543   8.646  0.4087 -0.8732  1.2882
  247MOL0     H32540   2.168   5.509   8.441  0.3075 -4.1093  0.2722
  247MOL0     H32541   2.063   5.494   8.194 -0.5008  0.4375  2.7566
  247MOL0     H32542   2.091   5.373   8.310  0.3716  2.4704  0.5320
  247MOL0     H32543   2.155   5.211   8.112  2.6673  1.5389 -3.4326
  247MOL0     H32544   2.121   5.344   8.010 -0.7609  1.0346  0.6187
  247MOL0     H32545   1.895   5.364   8.038 -3.5562 -1.1034  0.9500
  247MOL0     H32546   1.903   5.273   8.194  0.2844  1.8713  0.7258
  247MOL0     H32547   1.992   5.092   8.005 -0.2414  0.5951  0.4486
  247MOL0     H32548   1.823   5.101   8.067 -0.2565  0.4704  1.6066
  247MOL0     H32549   1.860   5.116   7.803 -1.5825  1.5174 -0.5052
  247MOL0     H32550   1.918   5.279   7.847 -1.1652  2.0655  1.7465
  247MOL0     H32551   1.700   5.300   7.973  0.6550  0.3091 -0.1897
  247MOL0     H32552   1.648   5.149   7.890  1.1373 -0.8167 -0.8873
  247MOL0     H32553   1.722   5.398   7.738  3.3974 -2.5310 -0.8575
  247MOL0     H32554   1.675   5.244   7.670 -1.6173  0.3693 -0.1970
  247MOL0     H32555   1.496   5.420   7.845  0.7081 -0.4777  0.5848
  247MOL0     H32556   1.440   5.279   7.770  0.8936  0.9913  1.2979
  247MOL0     H32557   1.282   5.361   7.547  1.8772 -2.7082  1.6380
  247MOL0     H32558   1.349   5.603   7.244 -2.1793 -0.1565 -1.4000
  247MOL0     H32559   1.207   5.552   7.333  0.2156 -1.1578  1.0074
  247MOL0     H32560   1.292   5.312   7.304  1.0323 -0.2404 -0.2474
  247MOL0     H32561   1.414   5.374   7.195  0.2273 -0.3871 -1.2764
  247MOL0     H32562   1.242   5.291   7.061  1.3043  0.4693 -0.1342
  247MOL0     H32563   1.116   5.343   7.170  0.4209 -1.3803  0.3266
  247MOL0     H32564   1.277   5.551   6.993  0.1986 -2.0018 -3.8439
  247MOL0     H32565   1.126   5.572   7.087  0.5183 -0.7813  0.5941
  247MOL0     H32566   0.994   5.278   6.772 -1.3875  0.8212 -4.4017
  247MOL0     H32567   0.755   5.266   6.741 -1.2928  0.1206  0.0466
  247MOL0     H32568   0.311   5.459   6.759  0.4093 -0.2713 -0.2306
  247MOL0     H32569   0.075   5.400   6.711 -0.3444 -0.7464 -3.0208
  247MOL0     H32570  -0.032   5.154   6.490  0.5556 -2.0330  1.5107
  247MOL0     H32571  -0.058   5.302   6.577  1.9417  0.1627 -1.3778
  247MOL0     H32572  -0.245   5.073   6.530  1.8251  1.5154 -1.4193
  247MOL0     H32573  -0.275   5.239   6.525 -0.2746  1.9084  2.0917
  247MOL0     H32574  -0.234   5.250   6.776  0.6494 -0.8900  0.8805
  247MOL0     H32575  -0.271   5.067   6.751 -1.9784  0.3216  1.3592
  247MOL0     H32576  -0.437   5.292   6.650 -0.5675 -0.5866 -0.5650
  247MOL0     H32577  -0.478   5.130   6.643 -0.1891 -0.4150  0.5666
  247MOL0     H32578  -0.463   5.302   6.891 -2.6285  2.6812 -4.1402
  247MOL0     H32579  -0.448   5.128   6.917 -0.3307  2.2358  3.4265
  247MOL0     H32580  -0.676   5.287   6.786  3.7579  0.4993 -0.8397
  247MOL0     H32581  -0.678   5.233   6.961 -1.8832  0.9526  0.1179
  247MOL0     H32582  -0.667   5.064   6.710 -3.5580  1.0726 -1.2914
  247MOL0     H32583  -0.690   5.005   6.879 -0.6142  1.1205  1.6328
  247MOL0     H32584  -0.896   5.010   6.747  2.9779 -1.1042 -0.0434
  247MOL0     H32585  -0.891   5.179   6.733 -0.3816 -0.5262  0.0582
  247MOL0     H32586   0.198   4.982   6.709  3.8867 -1.9293  0.1970
  247MOL0     H32587   0.415   5.022   6.779 -0.9733 -0.7141  2.5088
  247MOL0     H32588   0.695   5.592   7.005 -0.3744 -0.9748  0.9124
  247MOL0     H32589   0.936   5.622   7.035  0.5003  0.3996 -2.6386
  247MOL0     H32590   2.508   5.392   8.235  0.9946 -0.7500  0.9599
  247MOL0     H32591   2.642   5.393   8.464 -0.0779 -0.9627 -1.5309
  247MOL0     H32592   2.755   5.552   8.831  1.4363 -0.1993  1.2946
  247MOL0     H32593   2.870   5.592   9.016 -0.3210  1.2705 -0.5152
  247MOL0     H32594   2.955   5.657   9.220  0.3060 -0.5942 -2.3034
  247MOL0     H32595   2.995   5.491   9.198 -0.7097  1.0641 -0.1066
  247MOL0     H32596   3.095   5.562   9.420  0.1278  0.4804  1.8024
  247MOL0     H32597   2.942   5.638   9.459  0.0227  0.5820 -1.9790
  247MOL0     H32598   3.035   5.345   9.464 -1.2446 -1.2159 -3.5665
  247MOL0     H32599   2.873   5.356   9.440  1.3969 -1.0053 -0.7461
  247MOL0     H32600   2.868   5.520   9.645  1.1072  0.3793  0.6238
  247MOL0     H32601   2.877   5.349   9.687  1.3545 -0.7928 -0.6344
  247MOL0     H32602   3.234   5.497   9.858 -0.0888 -0.5830  0.0274
  247MOL0     H32603   2.579   5.409   9.264  2.0304 -1.9587  1.2857
  247MOL0     H32604   2.424   5.392   9.068  0.9046 -1.7720 -2.2522
  248MOL0     O32605   7.792   8.049   1.834  0.0260 -0.3080  0.2506
  248MOL0     C32606   7.880   8.039   1.753 -0.2489  0.2509 -0.5953
  248MOL0     O32607   7.862   8.006   1.626 -0.1392  0.7162 -0.5635
  248MOL0     C32608   7.732   7.989   1.583  0.3723 -0.3575  0.1983
  248MOL0     C32609   7.675   7.877   1.517 -0.5940  1.1044  0.1017
  248MOL0     C32610   7.539   7.869   1.472  1.1041 -0.3764 -0.2119
  248MOL0     C32611   7.457   7.980   1.486 -0.3665 -0.6377 -0.7390
  248MOL0     O32612   7.326   7.976   1.441 -0.7502  0.0195  0.0950
  248MOL0     C32613   7.312   7.973   1.298 -0.4188 -0.5501  0.3056
  248MOL0     C32614   7.297   8.126   1.260  0.4689 -0.5585 -0.0879
  248MOL0     C32615   7.168   8.194   1.298 -0.8793  0.1156 -0.4317
  248MOL0     C32616   7.030   8.117   1.265  0.0408  0.6150 -0.8837
  248MOL0     C32617   6.921   8.204   1.302  0.3014  0.0908  0.0164
  248MOL0     C32618   6.795   8.160   1.222 -0.6996 -0.0953 -1.0445
  248MOL0     C32619   6.667   8.201   1.293  0.3710  0.1042 -0.0474
  248MOL0     C32620   6.623   8.114   1.403 -0.2607  0.0182  0.7479
  248MOL0     N32621   6.593   7.981   1.356 -0.2119  0.1633  0.0217
  248MOL0     C32622   6.472   7.937   1.294  0.2666  0.1886  0.2409
  248MOL0     C32623   6.507   7.806   1.255  0.1973 -1.3677 -0.2886
  248MOL0     C32624   6.422   7.728   1.162  0.7409  0.5002 -0.4634
  248MOL0     C32625   6.289   7.663   1.214 -0.2080 -0.5973  0.6041
  248MOL0     C32626   6.181   7.770   1.222  0.0551  0.3303 -0.7270
  248MOL0     C32627   6.037   7.727   1.240  0.2268 -0.1470  0.4820
  248MOL0     O32628   5.965   7.831   1.303  0.1384 -0.3330 -0.2971
  248MOL0     C32629   5.837   7.812   1.345 -0.0836 -0.5906 -0.1680
  248MOL0     C32630   5.766   7.699   1.307  0.4924 -0.0057  0.6905
  248MOL0     C32631   5.626   7.685   1.340 -0.2072  0.5969 -0.6784
  248MOL0     C32632   5.570   7.785   1.413 -0.1549  0.6868 -0.2169
  248MOL0     C32633   5.424   7.760   1.455  0.0095 -0.3964 -0.4567
  248MOL0     O32634   5.356   7.873   1.493 -0.0837  0.0476 -0.1364
  248MOL0     C32635   5.248   7.876   1.574  0.1741  0.4213 -0.2390
  248MOL0     C32636   5.207   7.765   1.656 -0.8784 -0.0310  0.4535
  248MOL0     C32637   5.100   7.775   1.743 -0.7247 -0.0965  0.3895
  248MOL0     C32638   5.025   7.895   1.751 -1.1530 -1.3757  0.5653
  248MOL0     O32639   4.941   7.905   1.850 -0.2058  0.0246 -0.4134
  248MOL0     C32640   4.840   8.005   1.850  0.4244  0.0462  0.6292
  248MOL0     C32641   4.795   8.030   1.992  0.6279 -0.0896  0.3083
  248MOL0     C32642   4.907   8.060   2.091 -0.1506  0.4502  0.1974
  248MOL0     C32643   4.868   8.047   2.241 -0.4385  0.8350  0.2361
  248MOL0     C32644   4.887   7.899   2.292  0.2718  0.4111 -0.3105
  248MOL0     C32645   4.847   7.772   2.194 -0.5685 -0.6116  0.3000
  248MOL0     C32646   4.899   7.635   2.228  0.0251 -0.8997 -0.1630
  248MOL0     C32647   4.817   7.578   2.352  0.2555 -0.0590 -0.2735
  248MOL0    Cl32648   4.900   7.420   2.379  0.4058  0.0693 -0.0567
  248MOL0     C32649   5.061   8.002   1.669 -0.6967  0.5665  0.4338
  248MOL0     C32650   5.172   7.994   1.583 -0.3757  0.2389 -0.2577
  248MOL0     O32651   5.381   7.645   1.475  0.3252 -0.7595  0.0663
  248MOL0     C32652   5.642   7.893   1.449  0.1328 -0.2395 -0.7733
  248MOL0     C32653   5.780   7.910   1.413 -0.3822 -0.4224 -0.2804
  248MOL0     N32654   6.637   7.774   1.289  0.2676 -0.0604  0.1441
  248MOL0     N32655   6.679   7.873   1.352 -0.0098 -1.0146  0.5772
  248MOL0     C32656   7.518   8.104   1.531  0.7489  1.2300  0.5429
  248MOL0     C32657   7.646   8.106   1.593  0.5381 -0.5387 -0.2676
  248MOL0     C32658   8.020   8.053   1.803 -0.0147  0.5216  1.9970
  248MOL0     C32659   8.131   8.015   1.710 -0.0725 -0.6129  0.2465
  248MOL0     C32660   8.258   8.049   1.749 -1.2453  1.1220  0.4460
  248MOL0     C32661   8.293   8.083   1.877  0.0551 -0.0755  0.0075
  248MOL0     O32662   8.419   8.094   1.910 -0.2669 -1.5324  0.5669
  248MOL0     C32663   8.477   7.974   1.954 -0.2358  0.1118  0.2364
  248MOL0     C32664   8.633   7.974   1.955  0.0173 -0.4783 -0.6198
  248MOL0     C32665   8.699   7.876   2.052  0.2580  0.5974  0.3322
  248MOL0     C32666   8.849   7.861   2.030  0.1834  0.1952 -0.2471
  248MOL0     C32667   8.903   7.781   2.136  0.3690 -0.1456  0.8190
  248MOL0     C32668   8.927   7.714   2.228  0.1533 -0.1827  0.4180
  248MOL0     C32669   8.188   8.110   1.968 -0.9475  0.2214 -0.9926
  248MOL0     C32670   8.054   8.092   1.929  0.7348 -0.3652  0.4103
  248MOL0     H32671   7.732   7.785   1.524 -0.7874  1.0532  1.0917
  248MOL0     H32672   7.496   7.784   1.420  1.3924  1.1769 -3.1722
  248MOL0     H32673   7.225   7.922   1.256  0.5113 -1.0942 -1.0076
  248MOL0     H32674   7.398   7.931   1.246  1.4008  1.5330  1.4348
  248MOL0     H32675   7.288   8.137   1.151 -1.2232  0.0885  0.0846
  248MOL0     H32676   7.382   8.187   1.293 -1.4432  4.3521 -3.1293
  248MOL0     H32677   7.162   8.293   1.252 -4.2049  0.0864 -0.3538
  248MOL0     H32678   7.173   8.217   1.405  0.8823 -1.4234 -0.1383
  248MOL0     H32679   7.025   8.079   1.162  3.6253 -0.4979 -0.7936
  248MOL0     H32680   7.032   8.022   1.319  2.9913  0.1223 -1.6641
  248MOL0     H32681   6.949   8.309   1.289  0.2434  0.2884  1.2865
  248MOL0     H32682   6.901   8.201   1.410  1.6858 -2.1622  0.2743
  248MOL0     H32683   6.800   8.051   1.206  1.1476 -0.0034 -1.3485
  248MOL0     H32684   6.806   8.210   1.126 -3.6844  2.5882 -0.1259
  248MOL0     H32685   6.676   8.302   1.333  0.9214 -0.4820  1.3998
  248MOL0     H32686   6.579   8.201   1.228 -1.1090  1.1451  1.8514
  248MOL0     H32687   6.532   8.155   1.448 -0.8874  1.4866 -1.6624
  248MOL0     H32688   6.705   8.096   1.473  1.7218 -0.8614 -1.6559
  248MOL0     H32689   6.391   8.002   1.265  0.8243  1.6775  1.8524
  248MOL0     H32690   6.482   7.647   1.120  1.1413  0.9162 -0.7007
  248MOL0     H32691   6.404   7.788   1.072 -0.8746 -1.3542 -1.4462
  248MOL0     H32692   6.312   7.624   1.313 -1.3480 -1.0811  0.6921
  248MOL0     H32693   6.267   7.580   1.146  0.9468 -1.5222  1.3153
  248MOL0     H32694   6.212   7.839   1.300  1.3134 -2.0181  0.9821
  248MOL0     H32695   6.189   7.824   1.127  5.4072 -2.0206 -2.0106
  248MOL0     H32696   6.038   7.638   1.304 -3.8149  0.5977  1.8563
  248MOL0     H32697   5.998   7.695   1.143 -1.6942 -1.0894  1.5223
  248MOL0     H32698   5.819   7.634   1.238 -1.2241 -0.2355 -0.4583
  248MOL0     H32699   5.583   7.595   1.299 -2.1842  1.4927 -0.6917
  248MOL0     H32700   5.267   7.675   1.663  0.6673  1.0572  2.2394
  248MOL0     H32701   5.074   7.693   1.809 -3.6812  0.5564  0.1628
  248MOL0     H32702   4.754   7.974   1.790  2.4382 -3.2151 -0.8747
  248MOL0     H32703   4.879   8.101   1.817 -2.5493  0.2539 -2.9455
  248MOL0     H32704   4.727   7.953   2.027  2.1512  0.5244  5.3549
  248MOL0     H32705   4.724   8.112   1.988 -2.2454 -2.4644 -1.6667
  248MOL0     H32706   4.945   8.160   2.068 -0.3657  1.9780  5.2197
  248MOL0     H32707   4.983   7.984   2.072  2.5312  2.8058  0.8430
  248MOL0     H32708   4.918   8.126   2.298 -2.8887  1.9504  0.9889
  248MOL0     H32709   4.764   8.081   2.254 -0.4470  0.6127  0.7716
  248MOL0     H32710   4.838   7.888   2.390 -0.5236  0.9285 -0.6387
  248MOL0     H32711   4.995   7.887   2.308  0.3416  1.8235  0.4483
  248MOL0     H32712   4.872   7.796   2.090 -2.3403  2.9569  0.5598
  248MOL0     H32713   4.739   7.782   2.182 -0.3509 -1.0299 -2.8061
  248MOL0     H32714   4.891   7.574   2.138 -1.8150  2.5609 -2.5651
  248MOL0     H32715   5.003   7.652   2.258  0.0161  0.4490 -0.8564
  248MOL0     H32716   4.711   7.569   2.325  0.2024 -0.0884 -0.0579
  248MOL0     H32717   4.822   7.643   2.440  0.6398  1.2251 -1.2256
  248MOL0     H32718   5.001   8.093   1.667 -2.1294 -0.3445  0.5552
  248MOL0     H32719   5.193   8.072   1.510  1.3404 -1.1365 -1.3038
  248MOL0     H32720   5.599   7.977   1.501  2.7328 -0.1574  1.4410
  248MOL0     H32721   5.834   7.998   1.445 -0.7838 -0.8388  1.6796
  248MOL0     H32722   7.465   8.198   1.521 -3.4379 -0.9123  0.2885
  248MOL0     H32723   7.688   8.199   1.630  1.4983 -0.8429 -0.5464
  248MOL0     H32724   8.109   7.970   1.614 -1.1626 -1.5200  0.9067
  248MOL0     H32725   8.338   8.062   1.677  1.6989  2.5338  3.7202
  248MOL0     H32726   8.437   7.893   1.892  2.2881 -0.2417 -1.0488
  248MOL0     H32727   8.447   7.973   2.059 -1.0210 -0.0201  0.0189
  248MOL0     H32728   8.675   7.955   1.856 -2.1169 -3.5621 -1.1043
  248MOL0     H32729   8.662   8.074   1.987  1.6929  0.2775 -4.0162
  248MOL0     H32730   8.660   7.777   2.026  1.3015 -0.1181  1.3847
  248MOL0     H32731   8.675   7.903   2.155  1.4567  2.3404  0.2000
  248MOL0     H32732   8.864   7.812   1.934 -3.4142 -0.4309 -0.6309
  248MOL0     H32733   8.897   7.959   2.024 -1.3422  0.9243 -1.1139
  248MOL0     H32734   8.932   7.650   2.313 -1.1440  0.4271  0.9723
  248MOL0     H32735   8.215   8.136   2.070 -0.6985 -2.2039 -0.3757
  248MOL0     H32736   7.973   8.120   1.996  2.7308 -0.0114  2.8507
  249MOL0     O32737  11.082   3.271  10.415 -0.0549  1.0001  0.6826
  249MOL0     C32738  11.129   3.247  10.525 -0.2552 -0.1065 -0.0227
  249MOL0     O32739  11.069   3.278  10.645 -0.0652  0.3621 -0.1856
  249MOL0     C32740  10.942   3.306  10.655  0.5693 -1.4266  0.5586
  249MOL0     C32741  10.864   3.247  10.755 -0.9732 -0.0886 -0.2240
  249MOL0     C32742  10.729   3.278  10.768  0.2868  1.0034  1.1019
  249MOL0     C32743  10.666   3.381  10.694 -0.4173 -0.5077  0.5240
  249MOL0     O32744  10.529   3.386  10.704  0.2513 -0.0395 -1.0495
  249MOL0     C32745  10.470   3.499  10.645 -0.7920  0.0968  0.0598
  249MOL0     C32746  10.321   3.491  10.652 -0.7402  0.5397 -0.1654
  249MOL0     C32747  10.278   3.485  10.795 -0.7875  0.7328 -0.6465
  249MOL0     C32748  10.125   3.487  10.800  0.6012  0.2524 -0.2321
  249MOL0     C32749  10.078   3.474  10.941 -0.2479 -0.0074 -0.4304
  249MOL0     C32750   9.931   3.517  10.958  0.8526  0.7029  0.0518
  249MOL0     C32751   9.877   3.537  11.103  0.1941 -0.6741 -1.0312
  249MOL0     C32752   9.724   3.531  11.118 -0.5174 -1.2544 -0.3472
  249MOL0     N32753   9.662   3.407  11.073 -0.2659 -0.1530  0.2447
  249MOL0     C32754   9.593   3.388  10.952  0.4208  1.5033  0.0052
  249MOL0     C32755   9.535   3.260  10.979 -0.0415  0.0942 -0.5185
  249MOL0     C32756   9.440   3.176  10.898  0.0694  0.5393  0.3568
  249MOL0     C32757   9.494   3.049  10.829  0.0601 -1.0200  0.5050
  249MOL0     C32758   9.588   3.077  10.706  0.6832 -0.3286 -0.1721
  249MOL0     C32759   9.511   3.127  10.583 -0.2190 -0.1587 -0.4364
  249MOL0     O32760   9.450   3.255  10.592  0.5321 -0.1088 -0.8801
  249MOL0     C32761   9.332   3.267  10.529  0.2781  0.1500 -0.4847
  249MOL0     C32762   9.330   3.318  10.400  0.0099 -0.9221 -0.5700
  249MOL0     C32763   9.215   3.370  10.349  0.5255  0.0755 -0.4223
  249MOL0     C32764   9.093   3.348  10.408  0.4812 -0.1945  0.4315
  249MOL0     C32765   8.978   3.380  10.332  0.2522 -0.1919 -0.7051
  249MOL0     O32766   8.988   3.403  10.197 -0.3571 -0.0617 -0.1309
  249MOL0     C32767   8.881   3.447  10.121  0.2698  0.4452  0.5306
  249MOL0     C32768   8.744   3.406  10.130 -0.0072 -0.6588 -0.4234
  249MOL0     C32769   8.642   3.455  10.057  0.1030  0.1125 -1.0078
  249MOL0     C32770   8.670   3.540   9.952 -0.7461 -0.0914 -0.0692
  249MOL0     O32771   8.564   3.598   9.884 -0.3108 -0.3903 -0.3770
  249MOL0     C32772   8.576   3.620   9.749 -0.8461  0.0946 -0.2399
  249MOL0     C32773   8.432   3.650   9.702  0.8313  0.2323  0.1145
  249MOL0     C32774   8.379   3.542   9.612 -0.3995  0.2528  0.2366
  249MOL0     C32775   8.229   3.558   9.579 -1.4376 -0.3742  0.5186
  249MOL0     C32776   8.190   3.434   9.488  0.5792  0.2132 -0.3314
  249MOL0     C32777   8.270   3.421   9.358 -0.0903  0.6824  1.2240
  249MOL0     C32778   8.179   3.366   9.251  0.8267 -0.1987 -0.2589
  249MOL0     C32779   8.240   3.372   9.113 -0.3838  0.8598  0.3137
  249MOL0    Cl32780   8.330   3.519   9.075  0.1203  0.1917 -0.1453
  249MOL0     C32781   8.807   3.581   9.939 -0.6110  0.5802  0.2287
  249MOL0     C32782   8.914   3.530  10.022  0.1538 -0.4570  1.1276
  249MOL0     O32783   8.878   3.403  10.395 -1.0181  0.1140 -0.5090
  249MOL0     C32784   9.088   3.282  10.528  0.1563  0.2838  0.3808
  249MOL0     C32785   9.211   3.249  10.594  0.4199 -0.6180  0.8078
  249MOL0     N32786   9.587   3.208  11.104  0.3969 -0.5157  0.5431
  249MOL0     N32787   9.659   3.301  11.156 -0.6673  0.6013  0.7864
  249MOL0     C32788  10.749   3.441  10.601  0.4746  1.1699 -0.7973
  249MOL0     C32789  10.881   3.406  10.570  0.2572  0.0022 -1.5325
  249MOL0     C32790  11.267   3.190  10.530  0.8295  0.5905  0.6099
  249MOL0     C32791  11.312   3.114  10.425 -0.2644  0.4229 -0.2257
  249MOL0     C32792  11.440   3.063  10.429 -0.0437 -0.1268  0.2568
  249MOL0     C32793  11.538   3.093  10.530 -0.3984  0.0321 -0.2133
  249MOL0     O32794  11.664   3.042  10.525 -0.5718  0.0428  0.4941
  249MOL0     C32795  11.765   3.114  10.605 -0.0981  0.8520 -0.0134
  249MOL0     C32796  11.895   3.049  10.556 -0.5285  0.0433 -0.9421
  249MOL0     C32797  12.012   3.120  10.617 -0.1444 -0.5315  0.1281
  249MOL0     C32798  12.145   3.043  10.594 -0.5914 -0.2425  0.1786
  249MOL0     C32799  12.261   3.139  10.593 -0.2103 -0.7229 -0.3276
  249MOL0     C32800  12.356   3.210  10.568  0.0464  0.3326  0.9047
  249MOL0     C32801  11.481   3.172  10.633 -0.3622 -0.4546 -0.1429
  249MOL0     C32802  11.348   3.224  10.623 -0.8895  0.3043 -0.0911
  249MOL0     H32803  10.902   3.164  10.814 -2.1207 -0.8417 -0.4978
  249MOL0     H32804  10.662   3.230  10.838 -1.6831  1.2597 -0.5374
  249MOL0     H32805  10.496   3.509  10.539 -1.3708  1.2646  0.0126
  249MOL0     H32806  10.508   3.582  10.706  0.0562  0.4550 -0.9264
  249MOL0     H32807  10.296   3.400  10.598  3.7302 -0.3898 -1.0901
  249MOL0     H32808  10.277   3.583  10.612 -2.6756  0.5821  1.8363
  249MOL0     H32809  10.315   3.569  10.854  1.2104 -0.9181  0.5934
  249MOL0     H32810  10.329   3.406  10.851  3.2926  2.5721 -1.4399
  249MOL0     H32811  10.091   3.585  10.764  1.7569  0.8535  0.2772
  249MOL0     H32812  10.087   3.401  10.744  0.6413  1.8104 -2.7843
  249MOL0     H32813  10.134   3.547  11.000 -1.6767 -1.1119  2.5145
  249MOL0     H32814  10.089   3.374  10.985 -3.4597 -0.2696  0.0256
  249MOL0     H32815   9.881   3.430  10.915  2.1733 -1.0326  1.8584
  249MOL0     H32816   9.909   3.604  10.895 -1.3013 -0.4829 -0.9560
  249MOL0     H32817   9.912   3.450  11.159  2.2512  1.8618  1.9796
  249MOL0     H32818   9.929   3.628  11.134  3.5104 -1.7928 -2.8392
  249MOL0     H32819   9.703   3.610  11.044  0.5417 -3.1471 -2.8133
  249MOL0     H32820   9.677   3.568  11.210 -1.0807  1.1659 -1.5175
  249MOL0     H32821   9.577   3.453  10.867 -0.7963 -0.7180 -1.5572
  249MOL0     H32822   9.392   3.249  10.833 -3.3292 -3.1960 -1.7589
  249MOL0     H32823   9.366   3.135  10.967  1.8689 -0.7604  1.5997
  249MOL0     H32824   9.420   2.971  10.807  0.6384 -2.1521  2.3634
  249MOL0     H32825   9.554   2.995  10.903  1.2890 -0.8854 -0.3564
  249MOL0     H32826   9.670   3.146  10.728  2.0041 -1.4860 -1.2488
  249MOL0     H32827   9.647   2.987  10.688  0.3526 -0.3218 -1.4053
  249MOL0     H32828   9.439   3.049  10.553  1.4419 -1.6009 -0.9007
  249MOL0     H32829   9.588   3.143  10.506 -2.0728  2.6181 -1.8454
  249MOL0     H32830   9.416   3.331  10.335 -1.3987  1.4616 -2.1402
  249MOL0     H32831   9.206   3.410  10.249 -2.5044 -2.9750 -1.5836
  249MOL0     H32832   8.727   3.334  10.209  2.9534 -1.4328 -0.3979
  249MOL0     H32833   8.539   3.424  10.071  1.1622 -2.3798  2.6252
  249MOL0     H32834   8.614   3.536   9.690 -5.0637 -1.3025 -1.2945
  249MOL0     H32835   8.637   3.711   9.743  1.3957 -1.3764 -0.9571
  249MOL0     H32836   8.429   3.742   9.643  1.5435  1.0440  1.2910
  249MOL0     H32837   8.368   3.673   9.788  0.1365  1.0633 -0.6068
  249MOL0     H32838   8.384   3.448   9.668  3.0876  0.1236 -0.1120
  249MOL0     H32839   8.443   3.536   9.524  0.8943  2.0959  0.9933
  249MOL0     H32840   8.166   3.547   9.668 -1.3918 -0.6431  0.5184
  249MOL0     H32841   8.210   3.658   9.542  2.5220  1.8787  3.6710
  249MOL0     H32842   8.082   3.438   9.472  0.5096  0.0186  0.0736
  249MOL0     H32843   8.213   3.342   9.543 -2.8038 -1.0733 -0.8306
  249MOL0     H32844   8.368   3.372   9.356  0.1975  1.2581 -0.6977
  249MOL0     H32845   8.280   3.525   9.326 -1.3339  0.8129  1.2031
  249MOL0     H32846   8.156   3.261   9.272 -2.1791  0.6869  1.3599
  249MOL0     H32847   8.091   3.431   9.248  0.3211 -0.9050 -1.8924
  249MOL0     H32848   8.161   3.362   9.037  0.8548  2.2431 -1.2589
  249MOL0     H32849   8.318   3.298   9.096  1.8028  3.0575  0.2923
  249MOL0     H32850   8.828   3.655   9.863 -4.4375 -1.1730 -2.8911
  249MOL0     H32851   9.017   3.563  10.010  0.6354 -2.3150 -0.3289
  249MOL0     H32852   8.991   3.252  10.567 -0.7113 -2.1495 -3.0916
  249MOL0     H32853   9.205   3.213  10.696  0.2536 -0.2336  0.9364
  249MOL0     H32854  10.701   3.519  10.542 -0.3838  0.2490 -1.3339
  249MOL0     H32855  10.919   3.458  10.482 -1.7324  2.1051 -1.2553
  249MOL0     H32856  11.238   3.095  10.349 -0.2290 -1.7191  0.2204
  249MOL0     H32857  11.470   2.988  10.356 -1.0169 -0.5441  0.2683
  249MOL0     H32858  11.744   3.094  10.711  2.3541 -1.2252  0.1781
  249MOL0     H32859  11.767   3.223  10.593  0.4796  0.8094 -0.2865
  249MOL0     H32860  11.899   2.950  10.602 -0.3991 -0.3954 -1.8737
  249MOL0     H32861  11.909   3.041  10.448 -2.1917  2.2684 -1.4085
  249MOL0     H32862  12.010   3.157  10.720  2.9780 -1.1897  0.5324
  249MOL0     H32863  12.018   3.215  10.563  0.9880  0.3570  1.7191
  249MOL0     H32864  12.164   2.970  10.674 -0.3848 -0.2493  0.1256
  249MOL0     H32865  12.147   2.999  10.494 -1.1776 -1.4473  0.6669
  249MOL0     H32866  12.443   3.270  10.551 -0.9254  1.4866 -0.1704
  249MOL0     H32867  11.549   3.184  10.716  0.6724 -1.4927 -0.8168
  249MOL0     H32868  11.323   3.298  10.698 -2.3614 -1.3311  1.1412
  250MOL0     O32869   1.179   6.812  10.963 -0.2267  0.6719  0.5567
  250MOL0     C32870   1.240   6.710  10.929  0.9050  0.3694  0.0199
  250MOL0     O32871   1.179   6.601  10.859  0.2399  0.1950 -0.0485
  250MOL0     C32872   1.043   6.586  10.873 -0.6821  0.4704 -0.4589
  250MOL0     C32873   0.998   6.483  10.951  1.7133 -0.1898  0.5128
  250MOL0     C32874   0.857   6.457  10.962  0.8202  0.3780 -0.8538
  250MOL0     C32875   0.763   6.534  10.907 -0.1539 -0.4349  0.2180
  250MOL0     O32876   0.629   6.506  10.931  0.1335 -0.4943 -0.3814
  250MOL0     C32877   0.532   6.587  10.860  0.4763  0.5508  0.9832
  250MOL0     C32878   0.388   6.555  10.914  1.0195  0.8864 -0.5066
  250MOL0     C32879   0.389   6.558  11.070 -0.5525  0.9492 -0.2601
  250MOL0     C32880   0.250   6.565  11.138  0.1870 -0.3869  0.2669
  250MOL0     C32881   0.256   6.565  11.292 -0.2392  0.1393 -0.1130
  250MOL0     C32882   0.108   6.570  11.340 -0.2754 -0.1375 -0.0559
  250MOL0     C32883   0.038   6.706  11.337  0.4559 -0.8029 -0.3918
  250MOL0     C32884  -0.087   6.715  11.424  0.5547  0.3083  0.2998
  250MOL0     N32885  -0.156   6.845  11.392  0.2053  0.5994 -0.1459
  250MOL0     C32886  -0.137   6.973  11.437 -1.5260  1.0297  0.2569
  250MOL0     C32887  -0.229   7.043  11.369 -0.0732  0.0736 -0.1930
  250MOL0     C32888  -0.227   7.200  11.369 -0.0732  0.2953  0.3487
  250MOL0     C32889  -0.183   7.257  11.232 -1.2930 -0.2759  0.8761
  250MOL0     C32890  -0.110   7.393  11.241  0.9571  0.1775 -0.0274
  250MOL0     C32891  -0.074   7.439  11.105 -0.3433 -0.9749 -0.2562
  250MOL0     O32892   0.053   7.374  11.081 -0.1076 -0.0982 -0.7843
  250MOL0     C32893   0.120   7.388  10.964 -1.3095  0.5300 -0.3297
  250MOL0     C32894   0.233   7.302  10.960 -0.4355 -0.0916 -0.0537
  250MOL0     C32895   0.308   7.300  10.840 -0.8144 -0.1685 -0.2210
  250MOL0     C32896   0.273   7.377  10.732  1.2202 -0.3455  0.5191
  250MOL0     C32897   0.344   7.360  10.601  0.4163 -0.1143 -0.3809
  250MOL0     O32898   0.303   7.452  10.503 -0.4649  0.4711 -0.8802
  250MOL0     C32899   0.385   7.483  10.397 -0.0673 -0.4248  0.5394
  250MOL0     C32900   0.329   7.539  10.280 -0.8949  0.2318  0.5906
  250MOL0     C32901   0.421   7.569  10.180 -0.3288  0.0164  0.5294
  250MOL0     C32902   0.560   7.546  10.180  0.8069 -0.7134  0.6100
  250MOL0     O32903   0.637   7.562  10.068  0.1929  0.2287  0.5856
  250MOL0     C32904   0.684   7.690  10.036  0.9470  0.2746 -0.5201
  250MOL0     C32905   0.793   7.725  10.130 -1.7203 -0.4714 -0.7659
  250MOL0     C32906   0.906   7.627  10.120  0.5349 -0.0741  0.0276
  250MOL0     C32907   1.025   7.693  10.188 -0.1648 -0.5133  0.6005
  250MOL0     C32908   1.142   7.592  10.224 -0.5182  0.0696 -0.5463
  250MOL0     C32909   1.255   7.670  10.295 -0.4376 -0.2038  0.4898
  250MOL0     C32910   1.359   7.705  10.193  0.7958 -1.2261  0.5219
  250MOL0     C32911   1.479   7.763  10.266 -0.1137  0.1363 -0.2802
  250MOL0    Cl32912   1.628   7.782  10.149 -0.1710  0.2074 -0.3198
  250MOL0     C32913   0.610   7.488  10.298  0.0600  0.5549 -0.4448
  250MOL0     C32914   0.528   7.456  10.402  1.1387  0.8119 -0.1135
  250MOL0     O32915   0.408   7.259  10.587  0.1350  0.9354  0.9582
  250MOL0     C32916   0.173   7.475  10.742 -0.3564  1.3267 -0.5522
  250MOL0     C32917   0.096   7.474  10.858 -0.5235 -0.0033  0.7746
  250MOL0     N32918  -0.313   6.960  11.294 -0.9698  0.5254  0.4114
  250MOL0     N32919  -0.257   6.841  11.307  0.2103 -0.0672 -0.0676
  250MOL0     C32920   0.812   6.634  10.824 -0.7744  0.2896 -0.0811
  250MOL0     C32921   0.953   6.658  10.803  0.8930 -0.0683 -0.5517
  250MOL0     C32922   1.395   6.712  10.943  1.1320 -0.4469  0.7810
  250MOL0     C32923   1.473   6.609  10.879 -0.4321  0.2796 -0.2594
  250MOL0     C32924   1.616   6.599  10.876 -0.8177 -0.2565 -1.0311
  250MOL0     C32925   1.680   6.687  10.963 -0.1251  0.2786  0.7783
  250MOL0     O32926   1.816   6.685  10.986  0.0249  0.3057  0.1678
  250MOL0     C32927   1.893   6.570  10.957 -0.0105 -0.2045  0.2258
  250MOL0     C32928   2.047   6.579  11.014 -0.0864 -0.6833 -0.1116
  250MOL0     C32929   2.108   6.445  10.975  0.1117  0.2183 -0.1674
  250MOL0     C32930   2.265   6.451  10.988 -0.3951  0.3682 -0.2365
  250MOL0     C32931   2.316   6.468  11.130  0.2562 -0.9785  0.2554
  250MOL0     C32932   2.368   6.465  11.244 -0.2047  0.5331 -0.3359
  250MOL0     C32933   1.606   6.783  11.029 -1.1726  0.2883 -0.9527
  250MOL0     C32934   1.475   6.809  11.016  0.9872 -0.5147 -0.2764
  250MOL0     H32935   1.051   6.408  11.008 -0.3740  0.8505  4.1256
  250MOL0     H32936   0.824   6.383  11.033  0.0528 -1.1372 -2.7236
  250MOL0     H32937   0.521   6.568  10.753 -0.1637  1.9725  0.7707
  250MOL0     H32938   0.559   6.691  10.880  1.0438  0.2430  1.8867
  250MOL0     H32939   0.340   6.463  10.879 -0.1864  0.6477  1.5633
  250MOL0     H32940   0.316   6.633  10.885 -0.7948  0.2443  1.9274
  250MOL0     H32941   0.449   6.641  11.107 -0.6239  0.4941  0.9143
  250MOL0     H32942   0.426   6.457  11.092 -4.4412 -0.4892  0.5532
  250MOL0     H32943   0.200   6.658  11.110 -2.0610 -1.7382 -0.4987
  250MOL0     H32944   0.198   6.481  11.091  0.4422 -0.1944 -0.3721
  250MOL0     H32945   0.305   6.651  11.338  1.4463 -0.8606  0.0387
  250MOL0     H32946   0.311   6.476  11.322  0.6803  0.6144 -0.3711
  250MOL0     H32947   0.105   6.532  11.443 -5.4340 -2.4865 -0.7460
  250MOL0     H32948   0.048   6.488  11.298  2.1991 -2.7239  1.1505
  250MOL0     H32949   0.104   6.792  11.345 -0.5109  0.0966 -1.7192
  250MOL0     H32950   0.014   6.716  11.231  0.1363 -0.4183 -0.2850
  250MOL0     H32951  -0.051   6.713  11.528 -0.8785 -0.6246  0.8048
  250MOL0     H32952  -0.150   6.626  11.415  1.7994 -0.7023  1.1332
  250MOL0     H32953  -0.050   7.004  11.494  0.7041  0.9988 -2.8521
  250MOL0     H32954  -0.157   7.233  11.446  2.6758  2.8604 -2.9005
  250MOL0     H32955  -0.328   7.227  11.403 -0.0634 -0.8457  1.3452
  250MOL0     H32956  -0.272   7.260  11.169  1.2714  1.3990 -3.1532
  250MOL0     H32957  -0.111   7.182  11.197 -2.9115 -3.1074  3.1816
  250MOL0     H32958  -0.173   7.466  11.292  1.9200  1.6849 -0.9156
  250MOL0     H32959  -0.018   7.372  11.296  0.9541  0.5802  0.1341
  250MOL0     H32960  -0.068   7.548  11.103  1.3838 -0.6165 -8.6419
  250MOL0     H32961  -0.136   7.411  11.020  0.1530 -0.2097 -0.8757
  250MOL0     H32962   0.267   7.251  11.049 -1.4976  1.3207  1.2197
  250MOL0     H32963   0.401   7.246  10.826 -1.3876 -0.3733 -4.8117
  250MOL0     H32964   0.222   7.556  10.274 -1.0444 -0.5300  0.8815
  250MOL0     H32965   0.381   7.631  10.101 -2.4553  1.3060  2.5064
  250MOL0     H32966   0.601   7.761  10.043 -0.3564 -1.1456 -1.0360
  250MOL0     H32967   0.712   7.706   9.931 -1.4998  0.8768 -1.1473
  250MOL0     H32968   0.755   7.738  10.232  3.6818  1.1436  1.3854
  250MOL0     H32969   0.831   7.822  10.098 -0.2024 -1.3895 -1.8656
  250MOL0     H32970   0.931   7.594  10.019 -0.1702 -2.0227  0.4437
  250MOL0     H32971   0.873   7.539  10.176 -2.0882  1.3652  0.8777
  250MOL0     H32972   1.064   7.768  10.119  2.2356 -2.6435 -0.5020
  250MOL0     H32973   0.998   7.749  10.278  0.1828  1.3410 -0.3925
  250MOL0     H32974   1.173   7.537  10.135  2.5459 -1.3912  1.2533
  250MOL0     H32975   1.112   7.521  10.302  1.5115  0.1898  0.4112
  250MOL0     H32976   1.306   7.607  10.369  0.7365  0.0828 -0.0365
  250MOL0     H32977   1.216   7.756  10.349  3.1016 -0.2105  3.4423
  250MOL0     H32978   1.392   7.623  10.128  1.1000 -1.3356  0.8180
  250MOL0     H32979   1.318   7.787  10.133 -1.4749 -2.8507 -0.2852
  250MOL0     H32980   1.508   7.704  10.353  0.9345 -2.0402 -2.0045
  250MOL0     H32981   1.452   7.865  10.296 -0.4056 -0.2531  0.8546
  250MOL0     H32982   0.715   7.479  10.321 -0.4759  0.9449  2.5264
  250MOL0     H32983   0.582   7.418  10.488 -0.9035  0.1207  0.9162
  250MOL0     H32984   0.145   7.540  10.660  1.0155  0.3332 -1.8761
  250MOL0     H32985   0.007   7.535  10.845 -0.6917 -0.6108 -1.4506
  250MOL0     H32986   0.743   6.703  10.776 -0.2031  2.7370  2.3776
  250MOL0     H32987   0.987   6.734  10.734  2.1968 -1.6715 -1.7527
  250MOL0     H32988   1.421   6.545  10.809 -2.1504 -1.0458  2.0949
  250MOL0     H32989   1.675   6.523  10.826 -1.7136 -1.1260 -0.7915
  250MOL0     H32990   1.915   6.561  10.850  0.8901 -0.5118  0.4306
  250MOL0     H32991   1.839   6.478  10.980  1.8231 -1.7120 -1.1574
  250MOL0     H32992   2.096   6.667  10.971 -1.4430 -0.0388 -0.3862
  250MOL0     H32993   2.042   6.590  11.122  0.6864 -3.1567  0.2505
  250MOL0     H32994   2.079   6.425  10.872  1.5161 -0.3599 -0.4684
  250MOL0     H32995   2.059   6.375  11.042  0.6158  2.0840  2.3020
  250MOL0     H32996   2.290   6.356  10.940 -0.8785  1.1143 -2.0777
  250MOL0     H32997   2.297   6.538  10.930 -1.6024  1.4859  0.7080
  250MOL0     H32998   2.433   6.463  11.330  2.0892  3.4947 -1.8115
  250MOL0     H32999   1.660   6.851  11.095 -1.7865  0.7255 -0.8880
  250MOL0     H33000   1.422   6.883  11.074 -0.7273 -1.1653 -0.9211
  251MOL0     O33001   4.204   4.139   9.700  0.0491 -0.1438 -0.3115
  251MOL0     C33002   4.206   4.043   9.627 -0.2573 -0.2622  0.6896
  251MOL0     O33003   4.129   3.933   9.627  0.4645  0.1002 -0.3553
  251MOL0     C33004   4.039   3.914   9.723  0.8311  0.2263 -0.0411
  251MOL0     C33005   4.059   3.935   9.859 -0.1066  0.4361  0.1649
  251MOL0     C33006   3.970   3.905   9.956 -0.0180  0.3469 -0.3218
  251MOL0     C33007   3.855   3.839   9.912  0.9666 -0.2705  0.4170
  251MOL0     O33008   3.761   3.809  10.010 -0.6893  0.0420  0.8843
  251MOL0     C33009   3.631   3.744   9.971  0.6072  0.3445 -0.4145
  251MOL0     C33010   3.548   3.727  10.102 -0.0162 -0.1607  0.3686
  251MOL0     C33011   3.450   3.851  10.128  0.6880 -0.1314 -0.5892
  251MOL0     C33012   3.382   3.815  10.264 -1.0356 -0.1727 -0.2965
  251MOL0     C33013   3.280   3.919  10.324 -0.7283 -0.0338  0.2083
  251MOL0     C33014   3.248   3.889  10.475  1.3319 -0.1738  0.7264
  251MOL0     C33015   3.300   3.981  10.580  0.3946 -0.1178  0.0500
  251MOL0     C33016   3.284   3.917  10.718  0.2793 -0.3775 -0.0424
  251MOL0     N33017   3.148   3.946  10.765 -1.2542  0.1738  0.0801
  251MOL0     C33018   3.066   3.838  10.780 -0.4662  0.2974 -0.4001
  251MOL0     C33019   2.947   3.887  10.835  0.0295 -0.1547  0.7579
  251MOL0     C33020   2.808   3.823  10.856 -0.0399 -0.3138  0.1029
  251MOL0     C33021   2.772   3.720  10.746  0.9459 -0.1488  0.0292
  251MOL0     C33022   2.805   3.572  10.801  0.5226  0.4012 -0.3466
  251MOL0     C33023   2.685   3.496  10.880  0.4955  0.8048  0.3519
  251MOL0     O33024   2.653   3.551  11.004  0.2696 -0.0265  0.4277
  251MOL0     C33025   2.539   3.525  11.074 -0.5801  0.2918  0.0554
  251MOL0     C33026   2.480   3.400  11.073  0.9481 -0.0062  1.2568
  251MOL0     C33027   2.370   3.374  11.152 -0.5748 -0.2206 -0.5609
  251MOL0     C33028   2.316   3.468  11.239 -1.3977  0.1879 -1.1579
  251MOL0     C33029   2.197   3.436  11.326 -0.6913 -0.6176 -0.3438
  251MOL0     O33030   2.102   3.347  11.288 -0.3717 -0.2614  0.0283
  251MOL0     C33031   1.992   3.311  11.361 -1.1692 -0.1981 -0.8248
  251MOL0     C33032   1.996   3.294  11.505 -0.6255 -1.1202 -0.4373
  251MOL0     C33033   1.890   3.268  11.579  0.2971  0.5039 -0.0661
  251MOL0     C33034   1.762   3.252  11.517  0.0566 -0.3434  0.5902
  251MOL0     O33035   1.638   3.222  11.579 -0.2429  0.1197 -0.1412
  251MOL0     C33036   1.630   3.217  11.725 -0.0692 -0.4250 -0.0266
  251MOL0     C33037   1.681   3.089  11.788 -0.2224 -0.2141  0.9364
  251MOL0     C33038   1.568   2.977  11.805 -0.7312  0.1604 -0.3027
  251MOL0     C33039   1.629   2.842  11.841  0.4919 -0.3304  0.4726
  251MOL0     C33040   1.520   2.752  11.905 -0.5564  0.4203 -0.0620
  251MOL0     C33041   1.424   2.682  11.800 -0.5856 -0.7766  0.4231
  251MOL0     C33042   1.498   2.583  11.704  1.1903  1.2947 -0.3045
  251MOL0     C33043   1.543   2.450  11.770  0.1208  0.6113  0.0719
  251MOL0    Cl33044   1.614   2.336  11.641 -0.1862  0.2947 -0.1293
  251MOL0     C33045   1.757   3.254  11.382  0.7082  0.2946 -0.0373
  251MOL0     C33046   1.872   3.282  11.302  1.5358 -0.4989  0.9132
  251MOL0     O33047   2.200   3.502  11.431  0.3568  0.4953 -0.8585
  251MOL0     C33048   2.380   3.600  11.240  1.6851  0.9720  0.4812
  251MOL0     C33049   2.483   3.622  11.159  0.4477 -0.6183 -0.2118
  251MOL0     N33050   2.965   4.021  10.851  0.5335  0.4101  1.0892
  251MOL0     N33051   3.084   4.055  10.814  0.9195  0.5257  0.5297
  251MOL0     C33052   3.842   3.803   9.780  0.0630 -0.7598 -0.0501
  251MOL0     C33053   3.937   3.829   9.687  0.4350 -1.1994  0.9507
  251MOL0     C33054   4.316   4.041   9.527  0.3308 -0.6021 -0.0706
  251MOL0     C33055   4.439   4.114   9.547  0.4937  0.3900  0.4169
  251MOL0     C33056   4.537   4.121   9.450  0.5941  0.1722 -0.6637
  251MOL0     C33057   4.514   4.063   9.333 -0.1362 -1.0689  0.7877
  251MOL0     O33058   4.603   4.058   9.232 -0.0498  0.4085  0.0970
  251MOL0     C33059   4.721   4.146   9.235  0.5939  1.2104  0.7776
  251MOL0     C33060   4.775   4.143   9.093 -0.3022 -0.0542  0.5024
  251MOL0     C33061   4.706   4.245   9.002 -0.6385 -0.3778 -0.6351
  251MOL0     C33062   4.577   4.190   8.930 -0.1175 -0.2465  0.8724
  251MOL0     C33063   4.496   4.300   8.866 -0.2019  0.0723 -0.3450
  251MOL0     C33064   4.428   4.386   8.824 -0.1070 -0.8810 -0.1031
  251MOL0     C33065   4.392   4.003   9.302 -0.5489 -0.7609  0.1014
  251MOL0     C33066   4.300   3.988   9.395 -0.1317 -0.4020 -0.2934
  251MOL0     H33067   4.148   3.989   9.891  0.0416  1.9098 -2.4605
  251MOL0     H33068   3.978   3.935  10.060  1.7024  0.4169 -0.4478
  251MOL0     H33069   3.651   3.650   9.919 -0.7584  0.0728 -0.4789
  251MOL0     H33070   3.571   3.798   9.897  2.9394  2.6862 -0.7187
  251MOL0     H33071   3.609   3.705  10.190 -1.7422 -0.5871  1.5114
  251MOL0     H33072   3.494   3.635  10.078  0.2875  0.4706 -3.2083
  251MOL0     H33073   3.383   3.878  10.046  0.5989 -0.7946 -0.7431
  251MOL0     H33074   3.497   3.945  10.158 -2.3037  1.2336  0.1117
  251MOL0     H33075   3.334   3.717  10.256 -3.5187  0.7558  1.6026
  251MOL0     H33076   3.462   3.814  10.338 -3.1127  1.8517  2.1812
  251MOL0     H33077   3.188   3.925  10.265 -0.8379  0.8187  0.4518
  251MOL0     H33078   3.327   4.017  10.316 -1.5806  0.4994  1.4081
  251MOL0     H33079   3.300   3.796  10.500  0.6732 -0.8584 -0.3732
  251MOL0     H33080   3.142   3.865  10.481  1.0624  0.9438  0.6203
  251MOL0     H33081   3.405   4.010  10.565  0.3543 -0.2083 -0.4274
  251MOL0     H33082   3.242   4.074  10.587  0.4430 -0.0893  0.0745
  251MOL0     H33083   3.343   3.980  10.785 -0.4396  2.4703 -1.8848
  251MOL0     H33084   3.312   3.812  10.728 -0.9490 -0.5017  4.6341
  251MOL0     H33085   3.082   3.733  10.762 -1.6636 -0.1042  0.7000
  251MOL0     H33086   2.738   3.906  10.869  0.2845 -0.2212  1.3870
  251MOL0     H33087   2.807   3.779  10.956 -1.4154  0.7162  0.5691
  251MOL0     H33088   2.832   3.749  10.659  0.7057  3.1765  0.8395
  251MOL0     H33089   2.666   3.724  10.721  0.2873 -0.8372  2.4114
  251MOL0     H33090   2.813   3.507  10.713  0.6012 -1.7510  1.1943
  251MOL0     H33091   2.899   3.571  10.856 -0.0149  0.9287  0.5983
  251MOL0     H33092   2.719   3.396  10.907 -3.1080 -0.5011  0.4655
  251MOL0     H33093   2.594   3.485  10.822 -0.1341 -2.9925  1.7764
  251MOL0     H33094   2.524   3.312  11.028 -3.7694 -1.5149 -1.1746
  251MOL0     H33095   2.337   3.271  11.160 -0.8947 -0.1868 -1.3973
  251MOL0     H33096   2.092   3.311  11.552 -2.7227  0.4942  3.8295
  251MOL0     H33097   1.896   3.272  11.687  2.0733 -0.7973 -0.0680
  251MOL0     H33098   1.521   3.218  11.737 -0.2216 -1.8177 -1.0867
  251MOL0     H33099   1.673   3.307  11.770 -3.8396  1.1198  0.9164
  251MOL0     H33100   1.711   3.108  11.891  2.5041 -1.0976  0.3863
  251MOL0     H33101   1.770   3.050  11.737 -1.0556 -3.3288  1.6671
  251MOL0     H33102   1.501   2.970  11.718 -0.2007  1.9553 -0.9050
  251MOL0     H33103   1.512   3.018  11.890 -4.1438 -3.5509 -0.4849
  251MOL0     H33104   1.675   2.797  11.753  3.0511  0.9624  1.0602
  251MOL0     H33105   1.701   2.858  11.922 -1.0811  2.0248  1.5310
  251MOL0     H33106   1.459   2.816  11.970 -1.4805 -0.6427  0.1503
  251MOL0     H33107   1.567   2.676  11.967 -0.7550 -0.2271 -0.6905
  251MOL0     H33108   1.384   2.755  11.728  1.0456  0.6065  0.8418
  251MOL0     H33109   1.350   2.614  11.843  0.5936 -2.8658 -0.6842
  251MOL0     H33110   1.425   2.546  11.632 -1.2694 -3.6563  4.0490
  251MOL0     H33111   1.580   2.625  11.645  0.3937  0.9513 -1.6977
  251MOL0     H33112   1.464   2.400  11.826 -0.0916  1.2062  0.3042
  251MOL0     H33113   1.630   2.473  11.833  0.6946 -2.8832  0.8006
  251MOL0     H33114   1.661   3.230  11.335  0.7485 -1.8695  0.9000
  251MOL0     H33115   1.864   3.283  11.194  0.4033 -1.1788  0.9752
  251MOL0     H33116   2.345   3.678  11.306 -0.4236 -0.0291  0.6416
  251MOL0     H33117   2.511   3.726  11.152 -1.0319 -0.1354  0.6048
  251MOL0     H33118   3.760   3.755   9.727  0.8703 -1.3576 -0.7871
  251MOL0     H33119   3.918   3.794   9.586 -0.4161 -2.5599  1.5587
  251MOL0     H33120   4.439   4.174   9.638  0.7723  1.3132 -0.1835
  251MOL0     H33121   4.629   4.178   9.463 -0.3533  1.9097 -1.3635
  251MOL0     H33122   4.785   4.099   9.311 -1.8705 -1.2813  1.5177
  251MOL0     H33123   4.698   4.250   9.259 -5.2792  0.9809 -2.1689
  251MOL0     H33124   4.876   4.183   9.109 -0.6647 -0.2009  4.0708
  251MOL0     H33125   4.770   4.039   9.058 -1.9294 -0.6942  2.4393
  251MOL0     H33126   4.771   4.299   8.933  0.8010 -1.5327 -0.2307
  251MOL0     H33127   4.677   4.327   9.069  0.8124 -1.1322  0.9940
  251MOL0     H33128   4.612   4.123   8.850 -2.9971  0.6200 -1.3052
  251MOL0     H33129   4.525   4.121   8.997  0.5309  1.7603  3.6183
  251MOL0     H33130   4.360   4.461   8.790  1.0165  0.6534  0.8935
  251MOL0     H33131   4.381   3.950   9.208 -2.4834 -0.1660 -0.0523
  251MOL0     H33132   4.199   3.950   9.382 -0.7499  0.6230  1.1874
  252MOL0     O33133   7.564   6.800   7.241 -0.7096 -0.0691  0.2981
  252MOL0     C33134   7.631   6.882   7.166 -1.3762 -0.7018 -0.0974
  252MOL0     O33135   7.765   6.899   7.164  0.7594  0.0778  0.2628
  252MOL0     C33136   7.840   6.828   7.261 -0.7759  0.3368 -0.2636
  252MOL0     C33137   7.967   6.784   7.222  0.6622  0.3595 -0.1451
  252MOL0     C33138   8.041   6.704   7.304 -0.5283  0.0222 -0.8300
  252MOL0     C33139   8.003   6.658   7.426  0.2153  0.4684  0.5318
  252MOL0     O33140   8.101   6.575   7.487  0.0026  0.4293 -0.5699
  252MOL0     C33141   8.088   6.537   7.620  0.1451 -1.0074  0.6608
  252MOL0     C33142   8.091   6.388   7.649  0.2482  0.2814 -0.0088
  252MOL0     C33143   8.108   6.363   7.799  0.4445 -0.6013 -0.6753
  252MOL0     C33144   8.212   6.440   7.882 -0.7989 -0.3330  1.0695
  252MOL0     C33145   8.242   6.378   8.013 -0.1623  0.4831  0.2257
  252MOL0     C33146   8.298   6.478   8.121 -0.2078 -0.0056  0.2484
  252MOL0     C33147   8.425   6.545   8.071 -0.7620  0.3269 -0.9219
  252MOL0     C33148   8.480   6.631   8.183  0.7982  0.0475 -0.2859
  252MOL0     N33149   8.510   6.556   8.309 -0.0158 -0.0218 -0.6271
  252MOL0     C33150   8.461   6.579   8.432  0.5025  0.6304 -0.5448
  252MOL0     C33151   8.492   6.460   8.495  0.1626  0.0526  0.5804
  252MOL0     C33152   8.467   6.416   8.629  0.7875 -0.9136 -0.7419
  252MOL0     C33153   8.580   6.329   8.680 -0.5291 -0.6481  0.2866
  252MOL0     C33154   8.550   6.281   8.825 -0.9020 -0.2313  0.0454
  252MOL0     C33155   8.422   6.204   8.855  1.5271  0.1843 -1.2196
  252MOL0     O33156   8.406   6.174   8.993 -0.4883 -0.0800  0.4103
  252MOL0     C33157   8.330   6.075   9.041  0.1171 -0.5481 -0.1234
  252MOL0     C33158   8.386   6.019   9.153  0.5447  0.3730  0.1360
  252MOL0     C33159   8.300   5.924   9.230 -0.3100  0.7591 -0.9550
  252MOL0     C33160   8.171   5.885   9.191 -0.7995  0.0513 -0.3060
  252MOL0     C33161   8.084   5.796   9.264  0.3437 -0.1507  0.9086
  252MOL0     O33162   7.943   5.811   9.248 -0.3286 -0.3463  0.6071
  252MOL0     C33163   7.849   5.716   9.300  0.1943 -0.9878 -1.1400
  252MOL0     C33164   7.707   5.751   9.291 -0.5499 -1.5960  0.7255
  252MOL0     C33165   7.606   5.664   9.316  0.0891  0.7485 -0.3462
  252MOL0     C33166   7.642   5.542   9.379 -0.1406 -0.0141  0.2389
  252MOL0     O33167   7.533   5.462   9.402  0.3156  0.0973 -0.3851
  252MOL0     C33168   7.503   5.428   9.540  0.3592  0.8173  0.3812
  252MOL0     C33169   7.357   5.389   9.554 -0.2974  0.3678  0.3888
  252MOL0     C33170   7.254   5.495   9.523 -0.2585 -0.4504 -0.5289
  252MOL0     C33171   7.107   5.456   9.546 -0.6491 -0.4236  0.3996
  252MOL0     C33172   7.010   5.568   9.549  0.0594  0.0567 -0.6315
  252MOL0     C33173   6.875   5.511   9.592 -0.4093  0.2996  0.1429
  252MOL0     C33174   6.767   5.613   9.561 -0.8291 -0.4486  0.6343
  252MOL0     C33175   6.637   5.565   9.632  0.5565  0.2149 -0.4776
  252MOL0    Cl33176   6.491   5.607   9.541 -0.2533  0.0504  0.4103
  252MOL0     C33177   7.780   5.507   9.397  0.6716 -0.2275  0.6382
  252MOL0     C33178   7.879   5.591   9.352  0.4419  0.5363  0.7576
  252MOL0     O33179   8.137   5.719   9.344 -0.1767 -0.4273  0.0005
  252MOL0     C33180   8.131   5.942   9.063 -0.6421 -0.1785  0.5828
  252MOL0     C33181   8.209   6.033   8.992 -0.1956 -0.1997 -0.3434
  252MOL0     N33182   8.579   6.397   8.411  0.4618  0.2844  0.0261
  252MOL0     N33183   8.589   6.452   8.303 -0.6696 -1.0364 -0.5134
  252MOL0     C33184   7.879   6.705   7.468  0.9090 -0.0281  0.0003
  252MOL0     C33185   7.807   6.804   7.393 -0.9508  0.5411 -0.4221
  252MOL0     C33186   7.553   6.946   7.051 -0.2177 -0.1505 -0.1829
  252MOL0     C33187   7.407   6.943   7.060  0.7292  1.4746  0.3625
  252MOL0     C33188   7.331   6.990   6.951 -0.6102 -0.2298  0.0267
  252MOL0     C33189   7.393   7.052   6.843 -0.7407 -0.2346  1.1939
  252MOL0     O33190   7.320   7.100   6.732  0.1332  0.5448 -0.4773
  252MOL0     C33191   7.317   7.243   6.720 -0.1786 -1.4414  0.0210
  252MOL0     C33192   7.376   7.298   6.586  0.0978 -0.6909  0.4101
  252MOL0     C33193   7.368   7.457   6.587 -0.1220 -0.0209  0.3189
  252MOL0     C33194   7.222   7.517   6.564 -0.4855  1.0363  0.2782
  252MOL0     C33195   7.146   7.529   6.682 -0.1039  0.3278 -0.6433
  252MOL0     C33196   7.083   7.549   6.790 -0.0704 -0.7576 -0.5266
  252MOL0     C33197   7.536   7.075   6.838  0.2756  0.6698 -0.8718
  252MOL0     C33198   7.609   7.006   6.935 -0.0377  0.2289  0.0974
  252MOL0     H33199   8.009   6.819   7.129 -3.0151  2.0723 -1.3400
  252MOL0     H33200   8.137   6.675   7.262 -1.3054  0.0040 -2.7031
  252MOL0     H33201   7.992   6.569   7.660 -0.3255 -0.7937 -0.5699
  252MOL0     H33202   8.164   6.592   7.676  0.9863 -3.0237  1.5647
  252MOL0     H33203   8.176   6.338   7.600  2.2109  2.2349  1.2325
  252MOL0     H33204   8.007   6.341   7.597 -1.4475  2.9711  0.1154
  252MOL0     H33205   8.127   6.256   7.812 -3.9480 -1.6342 -1.0591
  252MOL0     H33206   8.005   6.376   7.833  0.7137 -1.1937  0.4566
  252MOL0     H33207   8.302   6.444   7.819 -1.3068  0.3928  0.3685
  252MOL0     H33208   8.171   6.541   7.896 -0.1168 -0.0053  0.8016
  252MOL0     H33209   8.313   6.296   7.999 -0.9319 -0.7980  3.0581
  252MOL0     H33210   8.148   6.338   8.053 -0.4315  1.5406  0.6882
  252MOL0     H33211   8.313   6.415   8.209 -1.0360 -0.3574  0.1511
  252MOL0     H33212   8.229   6.562   8.138  0.6389  1.0948 -1.4500
  252MOL0     H33213   8.507   6.476   8.047  0.9002  2.1358 -0.7915
  252MOL0     H33214   8.411   6.610   7.983 -2.3491  4.1406  1.8639
  252MOL0     H33215   8.410   6.711   8.208 -1.2858 -2.3347  2.2118
  252MOL0     H33216   8.573   6.667   8.137  0.5963  3.5622  1.6935
  252MOL0     H33217   8.419   6.665   8.484  2.4278 -0.0431  2.3646
  252MOL0     H33218   8.367   6.372   8.624  0.2845  0.1501 -0.2953
  252MOL0     H33219   8.455   6.508   8.687 -3.1528 -0.3649 -2.1556
  252MOL0     H33220   8.669   6.392   8.689  0.2181 -1.6412  0.1104
  252MOL0     H33221   8.598   6.249   8.607 -1.8427  1.9817 -3.2162
  252MOL0     H33222   8.627   6.209   8.855 -0.3379  1.1989  2.2671
  252MOL0     H33223   8.557   6.371   8.885 -3.5787  3.3410 -4.3312
  252MOL0     H33224   8.433   6.113   8.794 -2.8516 -1.5107  0.1225
  252MOL0     H33225   8.327   6.247   8.825  0.0336 -1.1308  1.2864
  252MOL0     H33226   8.489   6.037   9.182  0.2050  0.7333  1.1781
  252MOL0     H33227   8.338   5.878   9.320  1.9163  0.3666 -2.0153
  252MOL0     H33228   7.689   5.853   9.260 -1.3329 -1.0139  2.8960
  252MOL0     H33229   7.499   5.671   9.297  0.0709 -1.3749 -1.2372
  252MOL0     H33230   7.529   5.502   9.616 -2.1753  1.0017  1.1691
  252MOL0     H33231   7.562   5.339   9.559  2.1940  1.2605 -2.5872
  252MOL0     H33232   7.339   5.353   9.655  0.3588 -2.4725 -0.4041
  252MOL0     H33233   7.337   5.305   9.486  2.2272 -0.1521  0.1959
  252MOL0     H33234   7.272   5.537   9.424  5.0457  0.4638  0.4979
  252MOL0     H33235   7.290   5.571   9.593 -0.5310 -0.9956  0.2283
  252MOL0     H33236   7.077   5.395   9.461  0.2194  0.6014 -0.6809
  252MOL0     H33237   7.097   5.400   9.640  2.2458  0.6370  1.4790
  252MOL0     H33238   7.016   5.610   9.449  4.8092  5.1633  1.2901
  252MOL0     H33239   7.035   5.650   9.617  2.6752 -0.6698 -0.6038
  252MOL0     H33240   6.886   5.484   9.697 -3.2722  0.0983  0.4673
  252MOL0     H33241   6.867   5.414   9.542  1.1760 -1.1133  2.4408
  252MOL0     H33242   6.801   5.708   9.603 -4.0725 -0.0190  2.6717
  252MOL0     H33243   6.760   5.623   9.453  1.4974  0.7170  0.5387
  252MOL0     H33244   6.616   5.611   9.729 -3.6121  1.2750 -1.6950
  252MOL0     H33245   6.635   5.456   9.644  2.0207  0.2369  0.2332
  252MOL0     H33246   7.813   5.411   9.434  1.0672 -0.5779 -0.5805
  252MOL0     H33247   7.983   5.566   9.372  0.8827  1.6487 -0.0386
  252MOL0     H33248   8.035   5.905   9.027 -0.2329 -2.8692  1.9754
  252MOL0     H33249   8.165   6.076   8.903 -1.1588  0.4924  0.4480
  252MOL0     H33250   7.842   6.678   7.567 -2.4653  2.3505 -0.4109
  252MOL0     H33251   7.717   6.829   7.449 -0.9307 -3.5280  1.8270
  252MOL0     H33252   7.360   6.894   7.144  1.2231 -0.5439 -0.4706
  252MOL0     H33253   7.223   6.981   6.946 -0.4258 -2.7287 -3.5002
  252MOL0     H33254   7.376   7.294   6.798  1.5498  1.4646 -2.9390
  252MOL0     H33255   7.212   7.272   6.730  0.5050  2.8894 -2.9051
  252MOL0     H33256   7.481   7.270   6.573  0.2326 -0.1040  0.2350
  252MOL0     H33257   7.319   7.272   6.497 -0.3921  3.5732 -0.7486
  252MOL0     H33258   7.431   7.488   6.503  1.9764 -3.4313  0.4516
  252MOL0     H33259   7.414   7.491   6.680 -0.2265 -1.5016  0.9263
  252MOL0     H33260   7.237   7.612   6.513  2.4761  0.3641 -0.3130
  252MOL0     H33261   7.168   7.453   6.494 -1.1548  1.3376  0.5177
  252MOL0     H33262   7.022   7.555   6.877 -0.8262  1.6609 -1.1316
  252MOL0     H33263   7.587   7.118   6.752 -1.0984 -1.5453 -2.9375
  252MOL0     H33264   7.717   7.010   6.920  0.2484  2.0339  2.1243
  253MOL0     O33265   4.245   9.183   1.461 -0.2028  0.2179 -0.6778
  253MOL0     C33266   4.203   9.081   1.521 -1.1704 -0.0995  0.2825
  253MOL0     O33267   4.112   8.986   1.477  0.8344 -0.1138  0.3751
  253MOL0     C33268   4.054   9.015   1.353  0.4167 -2.1086 -1.7113
  253MOL0     C33269   4.055   8.926   1.252  0.8247 -0.5367 -0.5093
  253MOL0     C33270   3.989   8.962   1.130 -0.4441 -0.1464  0.1882
  253MOL0     C33271   3.933   9.091   1.107  0.0150 -0.0189  0.7229
  253MOL0     O33272   3.891   9.133   0.980  0.3457 -0.3782  0.3145
  253MOL0     C33273   3.796   9.239   0.959 -0.1474  0.0051  1.0380
  253MOL0     C33274   3.706   9.205   0.833 -0.0965 -0.2289 -0.7251
  253MOL0     C33275   3.568   9.151   0.888  0.5551 -0.0598  0.6898
  253MOL0     C33276   3.457   9.150   0.779  0.1810 -1.2485 -1.0295
  253MOL0     C33277   3.409   9.299   0.761  0.1110 -0.4338 -0.2628
  253MOL0     C33278   3.326   9.314   0.636 -0.4607 -0.3954 -0.7218
  253MOL0     C33279   3.283   9.456   0.615  0.0096 -0.4616 -0.3196
  253MOL0     C33280   3.390   9.559   0.609  0.0397  0.0910  0.1627
  253MOL0     N33281   3.344   9.688   0.559 -0.7706 -1.1529 -0.1712
  253MOL0     C33282   3.234   9.753   0.588 -1.2108 -0.1207 -0.0802
  253MOL0     C33283   3.227   9.850   0.490 -1.3125  0.4251  0.3891
  253MOL0     C33284   3.127   9.957   0.486 -0.5726 -0.8773 -0.0730
  253MOL0     C33285   2.990   9.901   0.418 -0.1370  0.5821  0.7342
  253MOL0     C33286   3.004   9.893   0.264  0.2071  0.5768  1.1192
  253MOL0     C33287   2.877   9.842   0.199  0.0496  2.0792 -0.4031
  253MOL0     O33288   2.875   9.842   0.061  0.6988  0.0931 -0.3421
  253MOL0     C33289   2.848   9.960  -0.005 -0.5859  0.7290  1.2957
  253MOL0     C33290   2.865   9.960  -0.152 -0.0925 -0.6633 -1.4871
  253MOL0     C33291   2.840  10.079  -0.222 -0.1250 -0.4540 -0.6828
  253MOL0     C33292   2.804  10.201  -0.158 -0.0605  0.7868 -0.1760
  253MOL0     C33293   2.799  10.332  -0.227  0.5702 -0.4032  0.6585
  253MOL0     O33294   2.766  10.319  -0.356 -0.0753 -0.0170  0.7449
  253MOL0     C33295   2.750  10.431  -0.437 -0.2283 -0.0436 -0.0689
  253MOL0     C33296   2.650  10.524  -0.410 -0.7918 -1.0744 -0.5559
  253MOL0     C33297   2.606  10.618  -0.504 -0.0328  1.0819 -0.9130
  253MOL0     C33298   2.668  10.615  -0.632  0.8094  0.1211  1.1067
  253MOL0     O33299   2.636  10.685  -0.747 -0.4891  0.3893  0.4264
  253MOL0     C33300   2.555  10.795  -0.721  0.1719  0.1476 -0.3719
  253MOL0     C33301   2.520  10.861  -0.856  0.7999 -0.8826  0.4918
  253MOL0     C33302   2.416  10.759  -0.916 -0.1004  0.5142  0.0831
  253MOL0     C33303   2.360  10.802  -1.055 -0.4486  0.1511 -0.2535
  253MOL0     C33304   2.241  10.704  -1.083  0.1125  0.4563  0.6351
  253MOL0     C33305   2.179  10.727  -1.226 -0.0926 -0.1087  0.6479
  253MOL0     C33306   2.075  10.620  -1.258 -0.3002 -0.0053  0.6950
  253MOL0     C33307   1.958  10.607  -1.170 -0.7233  0.4730 -0.8649
  253MOL0    Cl33308   1.878  10.765  -1.129  0.0519 -0.6625  0.1417
  253MOL0     C33309   2.777  10.527  -0.656  0.4989  0.3039  0.3428
  253MOL0     C33310   2.816  10.430  -0.569 -0.5447 -0.1031  0.2032
  253MOL0     O33311   2.811  10.433  -0.164  0.7544  0.2928 -0.6821
  253MOL0     C33312   2.785  10.197  -0.011  0.4321 -0.7132  0.3395
  253MOL0     C33313   2.827  10.083   0.059  0.7459 -0.0825  0.6351
  253MOL0     N33314   3.338   9.838   0.410  0.0501 -0.2683 -0.4912
  253MOL0     N33315   3.404   9.742   0.451  0.0618 -0.3766 -0.1814
  253MOL0     C33316   3.931   9.180   1.218 -0.5908  0.0790 -1.0594
  253MOL0     C33317   3.986   9.142   1.345  0.3192 -0.3062  1.2263
  253MOL0     C33318   4.237   9.075   1.660  0.4916  0.4239  0.6228
  253MOL0     C33319   4.332   9.160   1.713  0.2300  0.2102  0.8648
  253MOL0     C33320   4.380   9.141   1.839 -0.5006 -0.7000 -0.2409
  253MOL0     C33321   4.333   9.042   1.931 -0.3758 -0.3130 -0.5175
  253MOL0     O33322   4.406   9.026   2.052  0.3701  0.1591  0.6046
  253MOL0     C33323   4.339   8.970   2.171  0.0741  0.5989 -0.1064
  253MOL0     C33324   4.382   8.822   2.173  0.3034 -0.1034 -1.1348
  253MOL0     C33325   4.539   8.796   2.156  0.3550  0.2740  0.8072
  253MOL0     C33326   4.625   8.867   2.260 -0.0934  0.1187 -0.0609
  253MOL0     C33327   4.598   8.822   2.400  0.4947 -1.2171  0.8611
  253MOL0     C33328   4.576   8.766   2.503  0.3352 -0.8064  0.5066
  253MOL0     C33329   4.229   8.955   1.876 -0.1684  0.3430 -0.6495
  253MOL0     C33330   4.189   8.964   1.745  0.1004  0.2457  0.4172
  253MOL0     H33331   4.119   8.839   1.267  1.3060  0.4108  5.8844
  253MOL0     H33332   3.978   8.890   1.050 -1.3909 -0.3645  0.5065
  253MOL0     H33333   3.864   9.322   0.936  1.0093 -1.0531  0.4961
  253MOL0     H33334   3.731   9.259   1.044 -0.0709 -5.0205  2.6191
  253MOL0     H33335   3.760   9.134   0.769 -0.7917 -0.0609 -1.5178
  253MOL0     H33336   3.692   9.302   0.786 -1.7506  0.5424  1.2255
  253MOL0     H33337   3.519   9.210   0.967  0.2993 -1.4960  1.6395
  253MOL0     H33338   3.580   9.051   0.930 -0.7065  0.0807  1.4475
  253MOL0     H33339   3.492   9.113   0.682 -2.3968  0.9096 -2.9374
  253MOL0     H33340   3.364   9.096   0.796  0.1303 -0.7425  0.3805
  253MOL0     H33341   3.490   9.373   0.758  1.3048 -1.4815  2.6299
  253MOL0     H33342   3.349   9.330   0.847  0.8835 -0.3299  0.2465
  253MOL0     H33343   3.247   9.240   0.646 -1.7898  1.1089  0.4276
  253MOL0     H33344   3.396   9.279   0.559  0.3131 -2.0662  0.6622
  253MOL0     H33345   3.246   9.459   0.512  0.6524  0.0096 -0.5421
  253MOL0     H33346   3.207   9.481   0.691  1.6900  1.4773  0.8362
  253MOL0     H33347   3.469   9.522   0.544 -0.1910 -2.4805  1.2243
  253MOL0     H33348   3.448   9.576   0.700  0.5757 -1.6142  0.1624
  253MOL0     H33349   3.166   9.741   0.671 -0.8736  0.8348  0.3440
  253MOL0     H33350   3.165  10.043   0.431 -1.0937  3.1892  5.1967
  253MOL0     H33351   3.106  10.007   0.581 -2.5599  2.4604 -2.0905
  253MOL0     H33352   2.902   9.963   0.438  0.3032  2.1760 -1.7876
  253MOL0     H33353   2.971   9.800   0.456 -0.3964  0.2158 -0.3364
  253MOL0     H33354   3.046   9.986   0.223  2.1154 -0.7014  0.0025
  253MOL0     H33355   3.081   9.823   0.228 -1.3191 -0.4083 -0.3660
  253MOL0     H33356   2.781   9.873   0.240 -0.9218 -0.6041 -0.4709
  253MOL0     H33357   2.878   9.736   0.226  0.8291  2.0101 -0.6747
  253MOL0     H33358   2.889   9.860  -0.186  2.5251 -1.3542  1.8642
  253MOL0     H33359   2.838  10.073  -0.330  1.6527 -2.4266 -0.6584
  253MOL0     H33360   2.610  10.530  -0.309  0.5230  0.3777 -0.0792
  253MOL0     H33361   2.540  10.694  -0.463  0.5117 -0.1831  2.6490
  253MOL0     H33362   2.617  10.867  -0.666  2.4235 -0.5259 -1.8731
  253MOL0     H33363   2.466  10.776  -0.661 -0.4218  2.7782 -0.3078
  253MOL0     H33364   2.606  10.874  -0.923 -0.2632  1.6105 -0.4642
  253MOL0     H33365   2.467  10.956  -0.851 -1.6395 -2.0049 -1.8595
  253MOL0     H33366   2.333  10.745  -0.846  0.0191  0.4279  0.2072
  253MOL0     H33367   2.464  10.661  -0.923  1.1048  1.1719 -1.6094
  253MOL0     H33368   2.314  10.901  -1.048 -1.9100 -0.5799  1.3203
  253MOL0     H33369   2.426  10.801  -1.142 -2.3261  2.6912 -1.8507
  253MOL0     H33370   2.173  10.705  -0.997 -0.0879  2.9783  0.5420
  253MOL0     H33371   2.277  10.601  -1.077  0.1933  0.2797 -1.9057
  253MOL0     H33372   2.268  10.715  -1.288  0.4382 -3.8363  1.8609
  253MOL0     H33373   2.132  10.825  -1.238  1.9739  1.0159  1.1863
  253MOL0     H33374   2.044  10.623  -1.363  2.2710 -4.7095 -0.5162
  253MOL0     H33375   2.132  10.529  -1.279 -1.5250 -0.5367 -0.4585
  253MOL0     H33376   1.992  10.554  -1.081  3.5485  1.5203 -1.6581
  253MOL0     H33377   1.885  10.538  -1.213  1.9668 -3.1676 -0.0190
  253MOL0     H33378   2.829  10.522  -0.751  0.8402  1.5909  0.4478
  253MOL0     H33379   2.871  10.342  -0.599  0.3927  0.4325  0.3234
  253MOL0     H33380   2.765  10.284   0.050 -0.4131 -0.7693  0.1436
  253MOL0     H33381   2.823  10.101   0.166 -2.9337  0.9934  0.4646
  253MOL0     H33382   3.899   9.283   1.209  0.3261  0.6816  1.6053
  253MOL0     H33383   3.994   9.222   1.418  0.9856  0.6482  0.1465
  253MOL0     H33384   4.382   9.231   1.647  2.5645 -3.5321 -1.8338
  253MOL0     H33385   4.461   9.211   1.856 -3.3853  3.5938 -2.2338
  253MOL0     H33386   4.231   8.982   2.180  0.0591 -0.2439  1.0737
  253MOL0     H33387   4.377   9.026   2.257  2.9874 -1.1470 -0.1099
  253MOL0     H33388   4.344   8.770   2.262 -0.7309  0.9889 -0.9088
  253MOL0     H33389   4.327   8.777   2.091  0.3281  3.7209 -3.5280
  253MOL0     H33390   4.555   8.840   2.057  2.0621  3.6380  2.3772
  253MOL0     H33391   4.565   8.690   2.146  2.7621  1.0368 -3.0436
  253MOL0     H33392   4.730   8.846   2.236  0.6413  1.0903  2.0738
  253MOL0     H33393   4.622   8.976   2.251 -2.3112  0.1701  0.7740
  253MOL0     H33394   4.557   8.713   2.594  1.5705 -1.1712  0.5767
  253MOL0     H33395   4.202   8.883   1.953 -1.3699  1.8803  0.4331
  253MOL0     H33396   4.123   8.892   1.697  1.6509 -0.4631 -0.7537
  254MOL0     O33397  11.132   1.576   1.741 -0.2571 -0.2337  0.2892
  254MOL0     C33398  11.160   1.457   1.746 -0.1419  0.6127  0.0310
  254MOL0     O33399  11.082   1.340   1.729  0.0197 -0.5693 -0.1194
  254MOL0     C33400  10.944   1.346   1.724 -0.1182 -0.6039 -0.8421
  254MOL0     C33401  10.862   1.449   1.775 -0.0204  0.1578  0.2083
  254MOL0     C33402  10.716   1.447   1.779 -0.5024  0.4734  0.4133
  254MOL0     C33403  10.649   1.339   1.709 -0.0772 -0.3382  0.0923
  254MOL0     O33404  10.515   1.333   1.699 -0.0312 -0.5911 -0.0646
  254MOL0     C33405  10.462   1.447   1.614 -0.7651  0.5727 -1.0240
  254MOL0     C33406  10.374   1.540   1.702 -0.7533  0.3998 -0.4580
  254MOL0     C33407  10.279   1.622   1.628  0.1650  0.3572  0.3600
  254MOL0     C33408  10.347   1.731   1.551  0.1420  0.0096  0.9242
  254MOL0     C33409  10.237   1.815   1.488  0.6296  0.1629 -0.3350
  254MOL0     C33410  10.282   1.928   1.397 -0.3570  0.3602  0.2147
  254MOL0     C33411  10.365   2.037   1.453  1.0219 -0.3157 -0.1639
  254MOL0     C33412  10.282   2.152   1.518 -0.6013 -0.1126  0.7428
  254MOL0     N33413  10.379   2.259   1.558  0.0818 -0.3089 -0.9075
  254MOL0     C33414  10.492   2.242   1.629 -0.3641  0.2660 -0.3144
  254MOL0     C33415  10.543   2.365   1.646 -0.2797  0.9161  1.1453
  254MOL0     C33416  10.660   2.394   1.738 -0.7044 -0.8585 -0.0734
  254MOL0     C33417  10.782   2.444   1.655 -0.1486 -0.0064  0.1347
  254MOL0     C33418  10.900   2.473   1.749  0.7421  0.1219  0.0851
  254MOL0     C33419  10.948   2.348   1.818  0.3300  0.5456 -0.6217
  254MOL0     O33420  11.075   2.388   1.861 -1.1881 -0.5118  0.3208
  254MOL0     C33421  11.169   2.288   1.890 -1.3638  0.4841 -0.3703
  254MOL0     C33422  11.128   2.159   1.935  0.3342 -0.8427 -0.3692
  254MOL0     C33423  11.233   2.063   1.950  0.0183 -1.0287  0.9360
  254MOL0     C33424  11.368   2.100   1.935 -0.6058 -0.0440  0.0566
  254MOL0     C33425  11.470   1.993   1.958  0.0555  0.5232  1.0192
  254MOL0     O33426  11.598   2.016   1.907  0.0384 -0.7584 -0.6607
  254MOL0     C33427  11.692   1.923   1.938 -0.3021  0.6617  0.4562
  254MOL0     C33428  11.716   1.823   1.841 -0.2943 -0.2383  0.5404
  254MOL0     C33429  11.817   1.728   1.857  0.2477 -0.1160  0.3695
  254MOL0     C33430  11.893   1.728   1.976  0.3595  0.1095  0.2976
  254MOL0     O33431  11.998   1.649   2.006 -0.6940 -0.0899 -0.5315
  254MOL0     C33432  12.006   1.517   1.945 -0.0166 -0.3457 -0.3611
  254MOL0     C33433  12.113   1.420   2.001 -0.2901  0.5127 -0.3389
  254MOL0     C33434  12.256   1.452   1.953 -0.4857 -0.2259  0.9121
  254MOL0     C33435  12.381   1.373   2.009 -0.1095 -0.6351  0.2458
  254MOL0     C33436  12.507   1.395   1.925 -0.8529 -0.2364 -0.8414
  254MOL0     C33437  12.637   1.378   2.013  0.1409  0.3964  0.1615
  254MOL0     C33438  12.655   1.476   2.133 -0.7418 -0.4892 -0.3129
  254MOL0     C33439  12.698   1.624   2.099 -0.0548 -0.0356  0.1061
  254MOL0    Cl33440  12.572   1.704   2.007 -0.1758 -0.0111 -0.0478
  254MOL0     C33441  11.862   1.822   2.074 -0.7019  0.2364 -0.6544
  254MOL0     C33442  11.767   1.918   2.057  0.1711  0.1869 -0.5352
  254MOL0     O33443  11.432   1.889   2.020  0.2128  0.4272  0.0066
  254MOL0     C33444  11.407   2.225   1.886 -0.3577  0.8746  0.5575
  254MOL0     C33445  11.299   2.320   1.883 -1.0456 -0.4422  0.1523
  254MOL0     N33446  10.463   2.452   1.570 -0.7320 -0.0511  0.1524
  254MOL0     N33447  10.373   2.385   1.515  0.6607 -0.4453 -0.4439
  254MOL0     C33448  10.729   1.236   1.656  0.6795 -0.1165  0.8583
  254MOL0     C33449  10.868   1.236   1.667 -0.2412  0.1248 -0.5726
  254MOL0     C33450  11.299   1.427   1.764 -0.1577 -0.1562  0.5420
  254MOL0     C33451  11.351   1.316   1.689  0.6335  0.0553  0.6721
  254MOL0     C33452  11.487   1.283   1.689 -0.2399 -0.1769 -0.4014
  254MOL0     C33453  11.575   1.359   1.768 -0.2186  0.6887 -0.5778
  254MOL0     O33454  11.707   1.336   1.793  0.5296 -0.3783  0.7636
  254MOL0     C33455  11.769   1.230   1.717  0.1922  0.8237  0.6007
  254MOL0     C33456  11.921   1.233   1.729  0.0184 -0.5933 -0.3604
  254MOL0     C33457  11.992   1.145   1.620  0.3117 -0.0690  0.2421
  254MOL0     C33458  12.142   1.120   1.654 -0.0588 -0.6408  0.7503
  254MOL0     C33459  12.215   1.040   1.543 -0.8648 -0.0814 -0.4913
  254MOL0     C33460  12.291   0.985   1.465 -0.5374  0.5926 -1.3580
  254MOL0     C33461  11.526   1.472   1.833 -0.2297 -1.0211 -0.5851
  254MOL0     C33462  11.388   1.504   1.835  0.0668 -0.1906 -0.4628
  254MOL0     H33463  10.897   1.543   1.816 -1.9137  0.0450  2.2783
  254MOL0     H33464  10.663   1.523   1.835 -2.1094  0.3411 -0.8165
  254MOL0     H33465  10.401   1.418   1.528  1.8328 -2.4738 -2.0499
  254MOL0     H33466  10.538   1.503   1.558 -0.3653 -1.3036 -2.4420
  254MOL0     H33467  10.436   1.587   1.779 -2.9140 -0.0642  1.6673
  254MOL0     H33468  10.314   1.471   1.761 -1.0973 -0.0550 -1.3248
  254MOL0     H33469  10.210   1.667   1.700  0.7850 -0.7067  1.6645
  254MOL0     H33470  10.218   1.551   1.572 -3.0387  0.1533  3.6869
  254MOL0     H33471  10.406   1.790   1.622 -0.3327  1.2602  0.3020
  254MOL0     H33472  10.420   1.694   1.479  3.5162  4.3801  1.6716
  254MOL0     H33473  10.189   1.859   1.576  1.5455 -2.3544  1.5474
  254MOL0     H33474  10.164   1.755   1.432 -0.6347 -0.8149  2.1976
  254MOL0     H33475  10.190   1.961   1.348 -2.1867 -1.2308  2.3465
  254MOL0     H33476  10.337   1.876   1.318 -2.2548 -0.8950 -0.3662
  254MOL0     H33477  10.426   1.991   1.531 -0.7203 -2.4018  0.0841
  254MOL0     H33478  10.424   2.086   1.376 -0.3851  1.4979 -0.1516
  254MOL0     H33479  10.218   2.122   1.602 -2.3403 -0.0736 -0.5179
  254MOL0     H33480  10.214   2.207   1.453 -0.8406 -0.7340  0.4623
  254MOL0     H33481  10.523   2.154   1.684  0.0935  1.0399  0.7059
  254MOL0     H33482  10.694   2.303   1.787  2.2359  1.2190  2.1269
  254MOL0     H33483  10.627   2.461   1.819 -2.4163 -2.0412  0.2682
  254MOL0     H33484  10.757   2.537   1.603  0.4374  1.1318  1.8150
  254MOL0     H33485  10.807   2.365   1.583 -1.0769 -1.2494  1.1303
  254MOL0     H33486  10.979   2.518   1.689  1.3144 -1.3400 -0.2948
  254MOL0     H33487  10.869   2.551   1.819 -1.5912 -0.1622 -0.5364
  254MOL0     H33488  10.932   2.249   1.773 -1.1603  0.6246 -0.3068
  254MOL0     H33489  10.885   2.344   1.907 -0.8086  0.1062 -1.4111
  254MOL0     H33490  11.025   2.130   1.954 -0.0810 -0.2157 -1.5374
  254MOL0     H33491  11.207   1.970   1.998 -0.0217 -0.6669  1.6351
  254MOL0     H33492  11.657   1.819   1.751  1.1084  1.8259 -0.5580
  254MOL0     H33493  11.820   1.645   1.786  0.4453 -1.0166  1.3955
  254MOL0     H33494  12.034   1.521   1.840  1.1154 -0.7192 -0.0956
  254MOL0     H33495  11.906   1.480   1.966  0.7567 -1.4058  1.8517
  254MOL0     H33496  12.095   1.317   1.970  1.1199  0.0034  0.4035
  254MOL0     H33497  12.113   1.416   2.111 -1.0817 -1.0205 -0.3666
  254MOL0     H33498  12.264   1.555   1.990  0.6793  0.7288 -1.7365
  254MOL0     H33499  12.245   1.441   1.844 -3.8863 -0.1742  1.1446
  254MOL0     H33500  12.384   1.392   2.117  0.6309 -2.3093  0.5588
  254MOL0     H33501  12.371   1.265   1.992  2.5151 -0.6240 -2.0757
  254MOL0     H33502  12.497   1.495   1.884  1.8012  1.1148  1.4876
  254MOL0     H33503  12.502   1.316   1.849  1.1963 -1.7618  0.4613
  254MOL0     H33504  12.728   1.382   1.952 -0.7978  2.0862 -1.2160
  254MOL0     H33505  12.624   1.276   2.052 -1.1700  0.2397 -0.6324
  254MOL0     H33506  12.568   1.473   2.199 -0.2454 -1.3375  0.3228
  254MOL0     H33507  12.740   1.439   2.191  0.2272  2.5564  0.3743
  254MOL0     H33508  12.793   1.632   2.045 -0.3825 -1.5271 -0.7678
  254MOL0     H33509  12.720   1.671   2.195 -1.4720 -1.7680  1.3604
  254MOL0     H33510  11.927   1.843   2.159 -1.0645 -1.8596  0.2005
  254MOL0     H33511  11.754   2.002   2.124 -1.1075  0.9052 -1.6389
  254MOL0     H33512  11.510   2.255   1.870  1.5710 -4.0183  1.8327
  254MOL0     H33513  11.313   2.423   1.852 -1.8254  1.3107  4.7343
  254MOL0     H33514  10.685   1.144   1.619  2.9282 -0.2323 -1.9706
  254MOL0     H33515  10.934   1.166   1.615 -0.3585  0.5306 -1.2710
  254MOL0     H33516  11.284   1.255   1.628 -0.2914  2.1097 -0.5103
  254MOL0     H33517  11.515   1.192   1.637 -5.0382 -1.6292 -1.0051
  254MOL0     H33518  11.752   1.268   1.616 -0.3312 -0.6752  0.1007
  254MOL0     H33519  11.730   1.131   1.740 -0.9608  1.1431  0.0569
  254MOL0     H33520  11.951   1.339   1.732 -0.0666 -0.5646  2.2084
  254MOL0     H33521  11.944   1.193   1.828  0.0981  1.7465  0.6541
  254MOL0     H33522  11.996   1.182   1.517  0.1531 -0.4997  0.0766
  254MOL0     H33523  11.937   1.050   1.612  2.6280 -1.6638  1.9877
  254MOL0     H33524  12.191   1.213   1.685  2.2529 -0.6711 -2.2829
  254MOL0     H33525  12.142   1.053   1.740  0.9871 -2.1856 -0.3838
  254MOL0     H33526  12.359   0.935   1.398  0.2018 -2.4467  1.4431
  254MOL0     H33527  11.583   1.539   1.897 -1.8446 -0.5243  0.3982
  254MOL0     H33528  11.354   1.586   1.896  2.4312 -0.4731  1.3732
  255MOL0     O33529   6.263   0.893  10.428 -0.0953 -0.4544 -0.4575
  255MOL0     C33530   6.253   0.827  10.335  0.5717  0.0268 -0.8683
  255MOL0     O33531   6.320   0.835  10.219 -0.9708 -1.3532  0.4747
  255MOL0     C33532   6.377   0.956  10.194  0.2099  0.4342  1.4513
  255MOL0     C33533   6.509   0.974  10.224 -0.5794 -0.0506  0.4529
  255MOL0     C33534   6.587   1.085  10.182  1.1010  0.2935 -0.3517
  255MOL0     C33535   6.522   1.190  10.108 -0.1352  0.1900  0.3264
  255MOL0     O33536   6.608   1.283  10.053  0.4485 -0.5861  0.7626
  255MOL0     C33537   6.558   1.378   9.949 -1.1598  0.5902 -0.1809
  255MOL0     C33538   6.683   1.437   9.880 -0.0293  0.8043  0.0017
  255MOL0     C33539   6.748   1.540   9.975  0.1643  0.0673  0.3472
  255MOL0     C33540   6.899   1.545   9.956  0.0326 -0.0330  0.0860
  255MOL0     C33541   6.965   1.685   9.969  0.1677  0.6138  0.0119
  255MOL0     C33542   6.921   1.775  10.082 -0.1200  0.0338  0.7711
  255MOL0     C33543   6.988   1.908  10.049  0.9237  0.5491 -0.2159
  255MOL0     C33544   7.112   1.937  10.135 -0.1648  0.0473  0.3633
  255MOL0     N33545   7.179   2.064  10.101  0.3846  0.7261 -0.6420
  255MOL0     C33546   7.255   2.087   9.992 -0.1421 -0.0973  0.4203
  255MOL0     C33547   7.309   2.216  10.005 -0.1375  0.7343 -0.2330
  255MOL0     C33548   7.395   2.283   9.907 -0.0671 -0.3954  0.4681
  255MOL0     C33549   7.339   2.294   9.760  0.1947  0.2556 -0.4645
  255MOL0     C33550   7.226   2.388   9.757  0.3543 -0.1916 -0.3713
  255MOL0     C33551   7.177   2.421   9.616 -0.5834  0.7528  0.5779
  255MOL0     O33552   7.056   2.492   9.637  0.0844  0.9207 -0.3471
  255MOL0     C33553   6.980   2.523   9.532  0.1270 -0.1522  0.5170
  255MOL0     C33554   7.014   2.527   9.394 -0.2510  0.4604  1.0749
  255MOL0     C33555   6.923   2.546   9.288  0.9174  1.0854  0.3054
  255MOL0     C33556   6.787   2.570   9.334  0.3681 -0.4761 -0.1386
  255MOL0     C33557   6.684   2.603   9.236 -0.4468 -0.5001  0.5598
  255MOL0     O33558   6.566   2.664   9.277 -0.4886 -0.6336  0.5443
  255MOL0     C33559   6.466   2.680   9.181 -0.0108  0.3776  0.6035
  255MOL0     C33560   6.479   2.764   9.068  0.2393  0.1242 -0.2290
  255MOL0     C33561   6.369   2.805   8.986 -0.3863 -0.2029  0.9683
  255MOL0     C33562   6.242   2.754   9.012  0.1447 -0.1930 -0.5879
  255MOL0     O33563   6.123   2.772   8.936 -0.2323 -0.4304  0.4938
  255MOL0     C33564   6.076   2.649   8.871 -0.7767 -0.1376  0.4397
  255MOL0     C33565   6.141   2.637   8.724  0.2021  0.7471 -0.6315
  255MOL0     C33566   6.061   2.718   8.620  0.4716  0.7337 -0.0713
  255MOL0     C33567   6.133   2.706   8.485  0.1494  0.3631  0.0123
  255MOL0     C33568   6.068   2.804   8.377  0.7445 -0.2844 -0.7960
  255MOL0     C33569   5.932   2.771   8.312 -0.4600 -0.0520  0.0402
  255MOL0     C33570   5.951   2.655   8.215  0.1525 -0.1712 -0.6695
  255MOL0     C33571   5.852   2.548   8.237 -0.2102 -0.0941 -0.5703
  255MOL0    Cl33572   5.694   2.596   8.148  0.2400  0.0308 -0.2381
  255MOL0     C33573   6.231   2.666   9.118  0.9875 -0.1028 -1.2071
  255MOL0     C33574   6.335   2.634   9.207  0.0532  0.0261 -0.3867
  255MOL0     O33575   6.709   2.557   9.124  0.8776 -0.1312  0.0656
  255MOL0     C33576   6.753   2.568   9.471  0.0526 -0.5176  0.9919
  255MOL0     C33577   6.852   2.544   9.564 -0.1812  0.7180  0.1513
  255MOL0     N33578   7.266   2.271  10.130  0.1580 -0.0143 -0.4763
  255MOL0     N33579   7.181   2.177  10.180  0.0079 -0.0433 -0.5680
  255MOL0     C33580   6.385   1.167  10.081 -0.1279 -0.0585  0.4356
  255MOL0     C33581   6.309   1.054  10.118  0.2992 -0.2327  0.6088
  255MOL0     C33582   6.140   0.724  10.342 -0.5759 -0.0914  0.2004
  255MOL0     C33583   6.068   0.685  10.458 -0.2209 -0.4343  0.2471
  255MOL0     C33584   5.972   0.588  10.462 -0.3107  0.3208 -0.4089
  255MOL0     C33585   5.946   0.520  10.339 -0.2230 -0.9078 -0.9367
  255MOL0     O33586   5.854   0.417  10.316  0.4590 -0.2063  0.1179
  255MOL0     C33587   5.792   0.364  10.430  0.2892  0.4286  0.1426
  255MOL0     C33588   5.708   0.247  10.391 -0.6505 -0.1491 -0.1994
  255MOL0     C33589   5.629   0.201  10.519  0.2655  0.1234  0.0104
  255MOL0     C33590   5.598   0.055  10.508  0.2559  0.6763  0.0932
  255MOL0     C33591   5.492   0.030  10.608 -0.4175  0.1914  1.3262
  255MOL0     C33592   5.411  -0.009  10.683  0.3692 -0.1990 -1.1392
  255MOL0     C33593   6.005   0.564  10.223 -0.2818 -0.2561  0.3088
  255MOL0     C33594   6.090   0.670  10.221 -0.6926  0.3354 -0.0028
  255MOL0     H33595   6.547   0.894  10.287  0.1684  1.8544  2.5429
  255MOL0     H33596   6.694   1.100  10.188  1.0417  2.1462 -2.4948
  255MOL0     H33597   6.482   1.448   9.984 -1.6450 -0.6616  1.3890
  255MOL0     H33598   6.511   1.316   9.872  0.4821 -1.2411  0.1869
  255MOL0     H33599   6.662   1.477   9.781  0.7099  3.5144  0.8446
  255MOL0     H33600   6.760   1.361   9.868 -0.2967  0.3953  0.8086
  255MOL0     H33601   6.721   1.521  10.079 -3.9328  3.3663  0.1517
  255MOL0     H33602   6.709   1.637   9.943 -0.4192  0.1977  1.3854
  255MOL0     H33603   6.938   1.477  10.032 -3.6715  0.9758  3.1820
  255MOL0     H33604   6.917   1.516   9.852  1.1713  2.1115 -0.3792
  255MOL0     H33605   6.937   1.728   9.872 -0.8835 -2.5440 -1.2028
  255MOL0     H33606   7.074   1.683   9.969  0.1672  0.5972  0.1755
  255MOL0     H33607   6.974   1.740  10.171  0.7763  1.2310  0.7297
  255MOL0     H33608   6.815   1.789  10.107 -0.1103  0.2114  0.7146
  255MOL0     H33609   7.006   1.919   9.942 -3.1013  0.5667 -1.0503
  255MOL0     H33610   6.915   1.983  10.081  1.0376  0.2622  0.7524
  255MOL0     H33611   7.177   1.851  10.118  0.7500  0.8211 -0.1397
  255MOL0     H33612   7.079   1.945  10.238  0.1092  0.7117  0.4053
  255MOL0     H33613   7.271   2.025   9.904 -1.3538 -1.1744  0.9224
  255MOL0     H33614   7.481   2.215   9.901  0.2622 -0.0709  1.3548
  255MOL0     H33615   7.437   2.379   9.938  0.4208  1.2112 -4.3097
  255MOL0     H33616   7.302   2.196   9.731 -1.1249  1.3653 -2.8401
  255MOL0     H33617   7.419   2.324   9.692  0.6358 -1.6205 -0.8133
  255MOL0     H33618   7.132   2.350   9.798  1.1027 -0.8823  0.7677
  255MOL0     H33619   7.252   2.479   9.812 -2.5173  1.8509 -2.0759
  255MOL0     H33620   7.160   2.326   9.565 -1.9801  2.3805 -2.1943
  255MOL0     H33621   7.257   2.477   9.567  1.2756 -0.1145  2.4308
  255MOL0     H33622   7.110   2.501   9.353 -0.5472 -0.0845  0.7212
  255MOL0     H33623   6.946   2.538   9.183  1.1608  0.8351  0.3780
  255MOL0     H33624   6.567   2.825   9.048 -1.5062  3.3414  1.0174
  255MOL0     H33625   6.386   2.878   8.907 -0.6137 -1.4424 -0.2717
  255MOL0     H33626   5.967   2.664   8.864 -0.6300  0.4284 -1.1374
  255MOL0     H33627   6.114   2.561   8.924  1.6671 -0.2225 -1.2891
  255MOL0     H33628   6.151   2.532   8.694  0.0913  0.6831 -0.4424
  255MOL0     H33629   6.243   2.673   8.741  0.3851 -0.2194  0.4547
  255MOL0     H33630   6.050   2.821   8.654 -2.2684 -0.2069  2.2667
  255MOL0     H33631   5.960   2.679   8.608 -0.7568  3.9131 -0.9611
  255MOL0     H33632   6.240   2.722   8.496  0.4655  0.9527 -3.0280
  255MOL0     H33633   6.136   2.599   8.464  0.0860  0.1728  0.9483
  255MOL0     H33634   6.149   2.815   8.304  3.3471 -1.2386  1.7474
  255MOL0     H33635   6.053   2.896   8.435  2.5216 -0.5457  0.1467
  255MOL0     H33636   5.895   2.851   8.247  3.7179 -0.1197 -2.8420
  255MOL0     H33637   5.856   2.763   8.390  0.8959  1.2060  1.5597
  255MOL0     H33638   5.946   2.690   8.111 -2.7689 -0.8518 -0.8643
  255MOL0     H33639   6.053   2.624   8.237 -0.3915 -2.1165 -0.6647
  255MOL0     H33640   5.840   2.526   8.343 -4.7736  1.1272 -0.6152
  255MOL0     H33641   5.897   2.457   8.194 -0.2796  0.4504 -1.8567
  255MOL0     H33642   6.128   2.640   9.138  0.9807  1.5413  1.3580
  255MOL0     H33643   6.323   2.590   9.305  0.5853  1.0089  0.1299
  255MOL0     H33644   6.646   2.577   9.492  0.1381 -0.2498  1.3348
  255MOL0     H33645   6.829   2.534   9.669  0.6325  2.7219  0.5735
  255MOL0     H33646   6.341   1.248  10.025 -2.9236 -1.1319  0.9050
  255MOL0     H33647   6.208   1.035  10.085 -0.2596  2.6415  0.4209
  255MOL0     H33648   6.091   0.739  10.549 -1.5755  2.9896 -1.2364
  255MOL0     H33649   5.911   0.572  10.551  1.6922 -0.1393  0.9460
  255MOL0     H33650   5.733   0.443  10.478  0.5380 -1.6622  4.3860
  255MOL0     H33651   5.862   0.321  10.502  0.8520 -1.2548 -1.3747
  255MOL0     H33652   5.633   0.267  10.314 -3.3611  1.5977  2.6847
  255MOL0     H33653   5.774   0.169  10.350  0.7897  1.6533 -1.4523
  255MOL0     H33654   5.549   0.275  10.522 -0.3277 -0.5159  2.7264
  255MOL0     H33655   5.690   0.203  10.610  1.7637  0.4086 -0.9652
  255MOL0     H33656   5.551   0.014  10.418  2.6186 -3.6199  0.5608
  255MOL0     H33657   5.695   0.007  10.523  0.2355  0.7201  0.3769
  255MOL0     H33658   5.349  -0.036  10.766  0.3177  2.0291 -0.3831
  255MOL0     H33659   5.972   0.521  10.129 -0.2729 -2.2154  1.1494
  255MOL0     H33660   6.114   0.721  10.127 -0.3859  0.6344  0.2348
  256MOL0     O33661   2.619   2.941   4.651  0.1316 -0.8622 -0.1284
  256MOL0     C33662   2.606   2.917   4.532  0.8647 -0.7057  0.3644
  256MOL0     O33663   2.706   2.922   4.440  0.6777 -0.4590  0.0758
  256MOL0     C33664   2.831   2.948   4.490 -0.7714 -0.7892  0.5436
  256MOL0     C33665   2.929   2.854   4.460 -0.3717 -0.8697  0.5860
  256MOL0     C33666   3.059   2.871   4.488 -0.6834  0.5290  1.0586
  256MOL0     C33667   3.104   2.984   4.560  0.1735 -0.4298 -0.3110
  256MOL0     O33668   3.236   2.990   4.600  0.2575  0.7462  0.8594
  256MOL0     C33669   3.291   3.082   4.692 -0.5822 -0.2407  0.2561
  256MOL0     C33670   3.439   3.104   4.653  0.0746  0.0270  0.1059
  256MOL0     C33671   3.517   3.179   4.763  0.4476  1.1194  0.4360
  256MOL0     C33672   3.654   3.200   4.712  0.1952  0.5476  0.8279
  256MOL0     C33673   3.723   3.308   4.802 -1.2188  1.3981  0.3848
  256MOL0     C33674   3.795   3.231   4.918 -0.2940  1.2395 -0.0749
  256MOL0     C33675   3.921   3.310   4.964  0.1702  0.9530 -0.2648
  256MOL0     C33676   3.987   3.215   5.068 -0.0682 -0.4403 -0.0304
  256MOL0     N33677   4.111   3.273   5.119  0.4673 -0.2903  0.7194
  256MOL0     C33678   4.225   3.291   5.044  0.6897  0.0217  0.6681
  256MOL0     C33679   4.318   3.346   5.121  1.3769 -0.4563 -0.9182
  256MOL0     C33680   4.454   3.385   5.088 -0.5667 -0.0627  0.2530
  256MOL0     C33681   4.454   3.516   5.006  0.1763 -0.1986 -0.4161
  256MOL0     C33682   4.388   3.508   4.873 -0.4211  0.1024  1.0450
  256MOL0     C33683   4.448   3.408   4.774  0.3929  0.2789 -0.6023
  256MOL0     O33684   4.587   3.416   4.751  0.1096 -0.3279 -0.0061
  256MOL0     C33685   4.654   3.306   4.724  1.0975  0.5736 -0.2019
  256MOL0     C33686   4.795   3.328   4.704 -0.1554 -0.1931  0.6017
  256MOL0     C33687   4.891   3.230   4.697  0.8335  0.3571  0.3530
  256MOL0     C33688   4.846   3.103   4.718 -0.6322  1.4827 -0.0783
  256MOL0     C33689   4.942   2.988   4.726 -0.4534  0.5906 -0.2599
  256MOL0     O33690   5.073   3.010   4.695  0.5099 -0.0890  0.2755
  256MOL0     C33691   5.156   2.912   4.660 -0.1168 -0.5603 -0.3902
  256MOL0     C33692   5.127   2.786   4.617 -0.0900  0.5218  0.2332
  256MOL0     C33693   5.227   2.694   4.581  0.2570 -0.4955  0.3482
  256MOL0     C33694   5.359   2.736   4.566 -0.2015 -0.2566 -0.6503
  256MOL0     O33695   5.452   2.654   4.507 -0.5035  0.0441 -0.9622
  256MOL0     C33696   5.489   2.551   4.597 -0.3049  0.1521 -0.4976
  256MOL0     C33697   5.643   2.513   4.590 -0.0670  0.8243  0.3681
  256MOL0     C33698   5.684   2.364   4.625  0.6109 -0.2073  0.0474
  256MOL0     C33699   5.676   2.326   4.771  0.1192 -0.3291  0.6186
  256MOL0     C33700   5.709   2.186   4.811 -0.3902 -1.2887  0.5530
  256MOL0     C33701   5.683   2.163   4.971 -0.4019 -1.1068  0.7680
  256MOL0     C33702   5.695   2.021   5.011  0.3783  0.9370 -0.0741
  256MOL0     C33703   5.597   1.985   5.115 -0.1987 -0.1456 -0.1210
  256MOL0    Cl33704   5.417   1.984   5.059  0.3187  0.0181  0.0485
  256MOL0     C33705   5.392   2.865   4.600  1.1900 -1.0070 -0.2172
  256MOL0     C33706   5.290   2.947   4.652  0.3127 -0.4297 -1.2009
  256MOL0     O33707   4.893   2.881   4.761  0.3278 -0.1015  0.4193
  256MOL0     C33708   4.705   3.074   4.719  0.1573 -0.9344  0.3348
  256MOL0     C33709   4.607   3.177   4.719  0.0161  0.2485 -0.8552
  256MOL0     N33710   4.258   3.362   5.248 -1.0076  0.3477 -0.6203
  256MOL0     N33711   4.129   3.331   5.240 -0.5294  0.6391  0.1400
  256MOL0     C33712   3.008   3.082   4.592 -0.6375  0.7838 -0.7037
  256MOL0     C33713   2.873   3.064   4.554 -0.4850  1.4888  0.1553
  256MOL0     C33714   2.468   2.884   4.483 -1.2305  0.7690 -0.0000
  256MOL0     C33715   2.371   2.852   4.576  0.3324  0.7471 -0.0345
  256MOL0     C33716   2.261   2.768   4.538  0.0612  0.5674  0.3657
  256MOL0     C33717   2.243   2.726   4.402 -0.7377 -0.6145  0.3431
  256MOL0     O33718   2.140   2.644   4.354 -0.3354 -0.8252  0.0535
  256MOL0     C33719   2.088   2.545   4.447 -0.0635  1.0185 -0.5595
  256MOL0     C33720   1.975   2.600   4.537  0.8030  0.8087 -0.5053
  256MOL0     C33721   1.846   2.521   4.505 -0.0581  0.5294 -0.1153
  256MOL0     C33722   1.789   2.541   4.359  0.4290  0.6303  0.0359
  256MOL0     C33723   1.686   2.425   4.330  0.2302 -0.0206  0.2984
  256MOL0     C33724   1.593   2.345   4.312 -0.6665  0.0785  0.4466
  256MOL0     C33725   2.340   2.781   4.313  0.8422  1.0838  0.0978
  256MOL0     C33726   2.452   2.845   4.346 -0.5108 -0.5572  0.4627
  256MOL0     H33727   2.909   2.768   4.397  0.7794  0.6793 -2.0803
  256MOL0     H33728   3.132   2.804   4.445 -1.3781  2.0820 -3.0296
  256MOL0     H33729   3.279   3.043   4.794  3.7875 -0.1405  1.0089
  256MOL0     H33730   3.227   3.171   4.686  0.3411  0.3713 -1.0960
  256MOL0     H33731   3.429   3.163   4.562  0.2503  0.4721  0.3745
  256MOL0     H33732   3.494   3.013   4.626  0.6612  1.0872 -2.5439
  256MOL0     H33733   3.517   3.123   4.856  3.8645  0.7774  0.3462
  256MOL0     H33734   3.458   3.268   4.786 -1.4032  0.5601 -1.7234
  256MOL0     H33735   3.712   3.108   4.716 -1.4047 -0.5053  0.8840
  256MOL0     H33736   3.645   3.230   4.607 -0.2715 -1.6440  0.1845
  256MOL0     H33737   3.658   3.384   4.845 -0.9463  0.4056  2.7042
  256MOL0     H33738   3.812   3.351   4.754  0.8002 -0.8681  1.7990
  256MOL0     H33739   3.837   3.137   4.880 -0.4079  0.6304  1.2559
  256MOL0     H33740   3.720   3.203   4.993  0.7121  0.4285  0.6554
  256MOL0     H33741   3.984   3.317   4.875 -1.3193 -0.0393 -1.4463
  256MOL0     H33742   3.907   3.411   5.003 -0.4840  0.0574  1.9582
  256MOL0     H33743   4.004   3.118   5.021 -2.5543  0.3385 -2.8696
  256MOL0     H33744   3.925   3.195   5.155 -1.8133  1.6570 -0.6866
  256MOL0     H33745   4.231   3.261   4.940  1.0757 -1.7369  1.1553
  256MOL0     H33746   4.515   3.308   5.041 -1.7525 -0.4517 -0.6891
  256MOL0     H33747   4.506   3.404   5.183 -4.5060  0.0437  2.6111
  256MOL0     H33748   4.554   3.560   5.001  1.2092 -2.4485 -0.9542
  256MOL0     H33749   4.405   3.595   5.064  3.3995 -1.2338  4.2763
  256MOL0     H33750   4.279   3.496   4.877 -0.6485  1.6251  0.2424
  256MOL0     H33751   4.382   3.603   4.819 -1.4052  0.8381  2.3849
  256MOL0     H33752   4.408   3.416   4.673  0.8548  0.5174 -0.7721
  256MOL0     H33753   4.414   3.309   4.806 -0.4201  0.1487 -1.8202
  256MOL0     H33754   4.838   3.427   4.692 -1.4455  0.6520  2.3661
  256MOL0     H33755   4.993   3.266   4.696  1.2084 -0.4305 -3.0746
  256MOL0     H33756   5.031   2.735   4.620 -0.3636  0.6674 -2.7331
  256MOL0     H33757   5.207   2.592   4.548  0.7203 -0.9625  1.4521
  256MOL0     H33758   5.433   2.461   4.570 -1.4987  1.2506 -1.8266
  256MOL0     H33759   5.470   2.579   4.702 -0.2584  2.7985 -1.1153
  256MOL0     H33760   5.711   2.583   4.638  1.7888 -1.6680  1.6043
  256MOL0     H33761   5.657   2.519   4.481 -2.3363 -0.5691 -0.0638
  256MOL0     H33762   5.786   2.359   4.586  0.9287  1.9268  0.4507
  256MOL0     H33763   5.621   2.289   4.577  0.3151  1.5049 -2.3874
  256MOL0     H33764   5.726   2.408   4.823 -0.2501  0.2953  0.0059
  256MOL0     H33765   5.575   2.344   4.809 -0.5113 -0.2698 -1.0219
  256MOL0     H33766   5.808   2.171   4.768 -1.3524 -1.5020 -1.6899
  256MOL0     H33767   5.643   2.119   4.755 -0.4592 -0.5213 -0.3082
  256MOL0     H33768   5.582   2.201   4.989  0.4824  1.4361  0.7615
  256MOL0     H33769   5.752   2.228   5.025 -0.3809 -1.1588  0.8036
  256MOL0     H33770   5.666   1.959   4.925 -0.6849 -1.9871  2.2193
  256MOL0     H33771   5.797   1.993   5.036 -0.9733 -1.8322  3.0788
  256MOL0     H33772   5.625   2.058   5.192  0.9489  2.4755 -2.8001
  256MOL0     H33773   5.611   1.880   5.142 -0.7366 -0.6543 -1.7422
  256MOL0     H33774   5.495   2.897   4.605  1.7095 -2.7574  1.1030
  256MOL0     H33775   5.310   3.046   4.691 -0.8075 -1.1025  1.2702
  256MOL0     H33776   4.670   2.971   4.719  1.0951 -1.2662  0.7076
  256MOL0     H33777   4.505   3.143   4.732 -0.1583 -0.2993 -3.2230
  256MOL0     H33778   3.021   3.167   4.657 -2.3563 -1.3953  2.8076
  256MOL0     H33779   2.802   3.139   4.585 -1.2449  1.5344 -1.5863
  256MOL0     H33780   2.381   2.886   4.678 -3.7603  0.4151  0.6637
  256MOL0     H33781   2.195   2.742   4.621 -0.0417  0.4196  0.2397
  256MOL0     H33782   2.164   2.508   4.516 -2.3431 -1.8351  0.6340
  256MOL0     H33783   2.050   2.459   4.392 -0.3101 -0.6500  2.0336
  256MOL0     H33784   1.992   2.603   4.645 -2.7886  2.0888  0.1627
  256MOL0     H33785   1.967   2.707   4.516 -0.6091  1.8045  3.9532
  256MOL0     H33786   1.767   2.548   4.575  0.0264 -2.0400  1.1146
  256MOL0     H33787   1.873   2.417   4.527 -1.5800  0.3190  0.8951
  256MOL0     H33788   1.739   2.638   4.351 -2.3442 -0.5524  1.5898
  256MOL0     H33789   1.871   2.541   4.287  0.7748  2.3637  0.3963
  256MOL0     H33790   1.524   2.266   4.290 -0.4256  0.1851 -0.8077
  256MOL0     H33791   2.312   2.758   4.210 -2.8041  0.1467  1.1302
  256MOL0     H33792   2.528   2.853   4.269 -0.3160  1.0644  0.7952
  257MOL0     O33793   2.368   9.066   5.715  0.5163  0.0835 -0.0889
  257MOL0     C33794   2.467   8.998   5.752  0.4500  0.5275 -0.8327
  257MOL0     O33795   2.575   9.042   5.833  0.1205 -0.2306  0.3075
  257MOL0     C33796   2.601   9.176   5.853 -0.5460 -0.1199 -0.4020
  257MOL0     C33797   2.545   9.292   5.784 -0.3855 -0.6020 -0.1123
  257MOL0     C33798   2.569   9.431   5.807 -0.8663 -0.1155 -0.7869
  257MOL0     C33799   2.656   9.447   5.917  1.4348 -0.1397 -0.5810
  257MOL0     O33800   2.690   9.565   5.966  0.2705  0.0691  0.0478
  257MOL0     C33801   2.611   9.689   5.932  0.6530  0.1856 -0.1449
  257MOL0     C33802   2.684   9.777   5.828 -0.9312  0.1725 -0.4267
  257MOL0     C33803   2.829   9.822   5.867 -0.0621 -0.5003  0.1859
  257MOL0     C33804   2.940   9.713   5.866  0.2369  0.5190  0.1176
  257MOL0     C33805   3.079   9.753   5.841 -0.3997 -0.4506  0.4545
  257MOL0     C33806   3.152   9.621   5.810 -0.0407 -0.0890 -0.0967
  257MOL0     C33807   3.146   9.572   5.665 -0.2071 -0.7322 -0.3082
  257MOL0     C33808   3.247   9.459   5.645  0.6125 -0.0411  0.3252
  257MOL0     N33809   3.200   9.330   5.689  0.2638  0.2459  0.7565
  257MOL0     C33810   3.104   9.296   5.780 -0.0014 -0.0540  0.2285
  257MOL0     C33811   3.103   9.161   5.779 -0.0212 -0.2134  0.5118
  257MOL0     C33812   3.011   9.072   5.854 -0.3281 -0.0813  0.5871
  257MOL0     C33813   3.087   9.002   5.966 -0.7780 -0.3417  0.4057
  257MOL0     C33814   3.002   8.937   6.060 -0.4621  0.3781 -1.3157
  257MOL0     C33815   2.985   8.785   6.037 -0.2151 -0.5078 -0.2085
  257MOL0     O33816   2.944   8.760   5.897 -0.4259 -0.1081 -0.9274
  257MOL0     C33817   2.906   8.624   5.867 -0.6244  0.1823 -0.5051
  257MOL0     C33818   2.930   8.500   5.944  0.7881 -0.1015 -0.0975
  257MOL0     C33819   2.897   8.373   5.901  0.1335 -0.1543  0.1273
  257MOL0     C33820   2.824   8.355   5.783 -1.3227  0.9322  0.2079
  257MOL0     C33821   2.781   8.224   5.735  0.6947 -0.9127  0.1045
  257MOL0     O33822   2.719   8.222   5.616 -0.6199 -0.0814 -0.0607
  257MOL0     C33823   2.676   8.111   5.563  0.7833 -0.1666 -0.4326
  257MOL0     C33824   2.718   8.081   5.435  0.3762  0.9030  0.0204
  257MOL0     C33825   2.666   7.964   5.373 -0.3488  0.3683  0.3582
  257MOL0     C33826   2.584   7.876   5.435  0.4088  0.2529 -0.4504
  257MOL0     O33827   2.547   7.752   5.389  0.0855 -0.6394 -0.6310
  257MOL0     C33828   2.659   7.679   5.327 -0.9186 -0.6926  0.0193
  257MOL0     C33829   2.611   7.537   5.297  0.0054  0.7986  0.0043
  257MOL0     C33830   2.559   7.449   5.416  0.2202 -0.0364 -0.0131
  257MOL0     C33831   2.405   7.465   5.436 -0.2247  0.0862  0.7398
  257MOL0     C33832   2.361   7.369   5.547 -0.4095  0.4467  0.5119
  257MOL0     C33833   2.228   7.304   5.515  0.0507  0.9187  0.4081
  257MOL0     C33834   2.171   7.209   5.622  0.4475 -0.3105 -0.1120
  257MOL0     C33835   2.074   7.281   5.719  0.5191 -0.9797  0.0966
  257MOL0    Cl33836   1.933   7.330   5.629 -0.1834  0.3637 -0.0025
  257MOL0     C33837   2.528   7.918   5.565  0.3918 -0.0953 -0.0415
  257MOL0     C33838   2.572   8.031   5.629  0.4994  0.3508  0.3033
  257MOL0     O33839   2.796   8.130   5.811  0.7944  0.3219 -0.0907
  257MOL0     C33840   2.804   8.474   5.706  0.3674  0.5292  0.3218
  257MOL0     C33841   2.839   8.602   5.748  0.1550  0.2940 -0.6551
  257MOL0     N33842   3.176   9.117   5.676  0.2409  0.6128  0.7784
  257MOL0     N33843   3.237   9.217   5.617  0.7115  0.1691 -0.3741
  257MOL0     C33844   2.705   9.336   5.997 -0.6540 -0.1244  1.2560
  257MOL0     C33845   2.674   9.207   5.962 -1.1670  0.4062  0.2827
  257MOL0     C33846   2.462   8.852   5.733 -0.2033 -0.0022  1.0859
  257MOL0     C33847   2.395   8.797   5.620 -0.4964  0.2617  0.5745
  257MOL0     C33848   2.376   8.664   5.607 -0.3579  0.5274 -0.1351
  257MOL0     C33849   2.446   8.574   5.693 -0.1352 -0.3528 -0.3344
  257MOL0     O33850   2.449   8.435   5.680  0.6529 -0.5413 -0.3841
  257MOL0     C33851   2.392   8.375   5.566 -0.3201  0.0308 -0.4274
  257MOL0     C33852   2.461   8.391   5.427  0.8813  0.3535 -0.2763
  257MOL0     C33853   2.374   8.341   5.307 -0.5552 -0.4915  0.1566
  257MOL0     C33854   2.249   8.431   5.276 -0.5990  0.9785  0.4937
  257MOL0     C33855   2.156   8.359   5.185  0.3433 -0.5791  0.2952
  257MOL0     C33856   2.067   8.316   5.113 -0.8483 -1.0503 -0.5050
  257MOL0     C33857   2.515   8.622   5.802 -0.3782  0.1710 -0.0094
  257MOL0     C33858   2.520   8.759   5.822  0.2496 -1.8108 -0.3090
  257MOL0     H33859   2.483   9.274   5.697  1.8243 -0.6625 -1.7685
  257MOL0     H33860   2.536   9.516   5.747 -0.7158  1.9523  1.8781
  257MOL0     H33861   2.602   9.762   6.013 -2.1176  2.0728 -1.9947
  257MOL0     H33862   2.509   9.671   5.896  1.1663 -1.9832 -0.6752
  257MOL0     H33863   2.620   9.866   5.821 -0.0583  1.0710  2.0703
  257MOL0     H33864   2.692   9.717   5.737  1.6453 -0.4350  0.1295
  257MOL0     H33865   2.812   9.860   5.968 -0.1424  1.3004 -0.4699
  257MOL0     H33866   2.852   9.907   5.801 -2.0083 -1.2064 -1.4910
  257MOL0     H33867   2.936   9.671   5.967  0.3373  0.2981  0.0306
  257MOL0     H33868   2.920   9.635   5.792  0.6828 -1.0089  1.5534
  257MOL0     H33869   3.122   9.808   5.925  0.1799  1.9874 -1.3156
  257MOL0     H33870   3.090   9.834   5.767 -1.0931  3.2224  4.0276
  257MOL0     H33871   3.117   9.539   5.874  0.0794 -1.6108 -1.8599
  257MOL0     H33872   3.255   9.638   5.845  0.2057  0.3640 -1.0153
  257MOL0     H33873   3.047   9.546   5.627  0.3189 -1.1058 -1.4951
  257MOL0     H33874   3.193   9.644   5.598  0.2402 -4.0511 -3.9479
  257MOL0     H33875   3.341   9.480   5.697  0.4976 -2.8936  1.8895
  257MOL0     H33876   3.261   9.458   5.536 -1.4470 -3.0437 -0.0047
  257MOL0     H33877   3.050   9.358   5.852  2.8391  2.3393  0.5049
  257MOL0     H33878   2.980   8.988   5.791  0.6024 -0.2187  0.2955
  257MOL0     H33879   2.928   9.127   5.900 -0.7517  1.2392 -1.6127
  257MOL0     H33880   3.154   9.064   6.026  0.3656 -0.9949 -0.1714
  257MOL0     H33881   3.163   8.933   5.928  2.1700  2.3446  0.9864
  257MOL0     H33882   3.040   8.961   6.160 -1.9439  2.1370 -1.1194
  257MOL0     H33883   2.902   8.981   6.055  1.2273  4.5784 -2.3743
  257MOL0     H33884   2.908   8.741   6.102 -1.8295  1.3397 -0.7678
  257MOL0     H33885   3.082   8.736   6.047 -0.6669 -1.3415  0.2678
  257MOL0     H33886   2.982   8.513   6.038 -1.4961 -1.7811  1.5463
  257MOL0     H33887   2.921   8.295   5.971  0.0830  0.5698  0.9676
  257MOL0     H33888   2.775   8.142   5.366 -0.5000  0.0709 -1.5067
  257MOL0     H33889   2.693   7.950   5.269 -3.2506  2.8614 -0.8774
  257MOL0     H33890   2.745   7.693   5.393 -2.9191  1.3416  2.4397
  257MOL0     H33891   2.683   7.732   5.234 -4.0951 -1.0252 -1.1302
  257MOL0     H33892   2.696   7.482   5.255  0.6938  0.2157  2.0391
  257MOL0     H33893   2.532   7.544   5.222  0.2381  5.6308 -0.0994
  257MOL0     H33894   2.623   7.469   5.503  0.0099 -0.1267  0.1640
  257MOL0     H33895   2.584   7.346   5.388  1.4280  0.6079 -1.4415
  257MOL0     H33896   2.393   7.565   5.478 -0.2168 -0.1037  1.2027
  257MOL0     H33897   2.355   7.445   5.341 -2.3243 -1.9331  2.1467
  257MOL0     H33898   2.360   7.427   5.639  0.6020  0.3589  0.5812
  257MOL0     H33899   2.433   7.288   5.561 -1.8306 -1.2331 -1.1233
  257MOL0     H33900   2.247   7.243   5.426 -0.1899  0.3385  0.7475
  257MOL0     H33901   2.152   7.374   5.480  0.4471  0.7224 -0.8798
  257MOL0     H33902   2.119   7.132   5.565  0.2417  1.2232 -2.1136
  257MOL0     H33903   2.248   7.150   5.673 -0.0732 -2.2769 -1.4766
  257MOL0     H33904   2.125   7.371   5.755  1.2385 -0.9186 -1.0410
  257MOL0     H33905   2.039   7.215   5.799 -1.5719 -0.1864 -0.0881
  257MOL0     H33906   2.461   7.849   5.616  0.5117  0.1534  0.4509
  257MOL0     H33907   2.539   8.051   5.731  0.2560  0.9044  0.1191
  257MOL0     H33908   2.754   8.466   5.610 -2.0083  1.9821  1.3413
  257MOL0     H33909   2.814   8.686   5.685 -1.9836  0.2149  0.0303
  257MOL0     H33910   2.774   9.359   6.078  0.0201  3.6244 -0.1850
  257MOL0     H33911   2.717   9.133   6.029  0.0916  0.5968 -0.2864
  257MOL0     H33912   2.350   8.876   5.561 -1.7548 -2.6062 -2.6502
  257MOL0     H33913   2.325   8.622   5.521 -2.9005 -0.7865  1.8859
  257MOL0     H33914   2.288   8.408   5.566 -0.5791 -0.6741  1.4780
  257MOL0     H33915   2.397   8.266   5.574 -1.8953  0.0614  1.7365
  257MOL0     H33916   2.502   8.491   5.413  0.3101  0.4360 -1.4616
  257MOL0     H33917   2.560   8.343   5.435  0.0711 -1.4463 -0.5796
  257MOL0     H33918   2.331   8.245   5.337 -2.9382  0.0784 -1.2271
  257MOL0     H33919   2.440   8.325   5.221 -1.0573 -0.1890 -0.2874
  257MOL0     H33920   2.208   8.453   5.376  2.8751 -1.0123  2.5502
  257MOL0     H33921   2.280   8.523   5.226  1.7132  0.9730  1.7746
  257MOL0     H33922   1.980   8.306   5.051 -2.2183  3.0998  0.3980
  257MOL0     H33923   2.575   8.550   5.857  2.3222  1.8451 -0.5724
  257MOL0     H33924   2.576   8.799   5.906 -0.7796  2.5662 -1.4229
  258MOL0     O33925   4.269   2.665  10.174 -0.0259 -0.0698  0.4526
  258MOL0     C33926   4.268   2.556  10.233  0.2708  0.1455  0.0368
  258MOL0     O33927   4.362   2.464  10.216  0.1364  0.6199  0.6084
  258MOL0     C33928   4.474   2.475  10.138  0.6867  0.7038 -0.2995
  258MOL0     C33929   4.491   2.542  10.006 -0.5901  0.3348 -0.5656
  258MOL0     C33930   4.623   2.542   9.960  0.1771  2.3949 -0.9253
  258MOL0     C33931   4.726   2.467  10.021  0.4245 -0.6802  0.3040
  258MOL0     O33932   4.845   2.471   9.957  1.0129  0.0437 -0.0429
  258MOL0     C33933   4.968   2.517  10.021  0.3907 -0.1032  0.5723
  258MOL0     C33934   5.016   2.663   9.995  0.6388  0.2216  1.3191
  258MOL0     C33935   4.986   2.714   9.861 -0.5821 -0.1796  0.8006
  258MOL0     C33936   5.055   2.838   9.824 -0.6308  0.4332 -0.4187
  258MOL0     C33937   5.069   2.869   9.675  0.3595 -0.0602 -0.1362
  258MOL0     C33938   5.134   3.006   9.660  0.6384 -0.4225 -0.2224
  258MOL0     C33939   5.220   3.005   9.529 -0.0517 -0.0663  0.2105
  258MOL0     C33940   5.271   3.145   9.497 -0.2186 -0.0702  0.4492
  258MOL0     N33941   5.339   3.167   9.366  0.5044 -0.2115 -0.2335
  258MOL0     C33942   5.319   3.083   9.252  0.2616 -0.9628 -0.2580
  258MOL0     C33943   5.391   3.153   9.165  0.2025  0.1428  0.2601
  258MOL0     C33944   5.420   3.106   9.030 -0.0449  0.0912  0.2452
  258MOL0     C33945   5.298   3.154   8.948 -0.4654  0.5478  0.0814
  258MOL0     C33946   5.335   3.196   8.799 -0.6641  0.2097 -0.0824
  258MOL0     C33947   5.404   3.334   8.790 -0.3733  0.4627  0.1243
  258MOL0     O33948   5.462   3.350   8.658  0.0023  0.5172  0.0308
  258MOL0     C33949   5.505   3.474   8.621 -0.1333  1.0368 -0.2747
  258MOL0     C33950   5.504   3.589   8.698  0.5459 -0.1110 -0.2918
  258MOL0     C33951   5.568   3.699   8.656 -0.3989 -0.7299 -0.8843
  258MOL0     C33952   5.645   3.697   8.535  0.4525  0.3850 -0.0138
  258MOL0     C33953   5.725   3.819   8.493 -0.1427  0.4915 -0.7166
  258MOL0     O33954   5.842   3.799   8.432  0.1424 -0.3863  0.1328
  258MOL0     C33955   5.913   3.902   8.385 -0.2415 -0.8964  0.1100
  258MOL0     C33956   5.984   3.872   8.271 -0.2509  1.0430  0.4810
  258MOL0     C33957   6.069   3.971   8.214  0.6878  0.2561 -0.5376
  258MOL0     C33958   6.093   4.095   8.273  1.1347 -0.0608 -0.6098
  258MOL0     O33959   6.185   4.180   8.216 -0.1673 -0.3633  0.8857
  258MOL0     C33960   6.175   4.323   8.226  0.1442  0.3548  0.7812
  258MOL0     C33961   6.043   4.368   8.150  0.5302  0.5204  0.0307
  258MOL0     C33962   6.015   4.522   8.157 -0.1344  0.5250  0.0892
  258MOL0     C33963   5.876   4.554   8.104 -0.6812 -0.1957 -0.7515
  258MOL0     C33964   5.766   4.516   8.201  0.8396  0.6133 -0.2939
  258MOL0     C33965   5.638   4.587   8.156 -0.4596  0.3815  0.2868
  258MOL0     C33966   5.530   4.573   8.258 -0.1465  0.2639  0.9761
  258MOL0     C33967   5.398   4.649   8.227  0.8187 -0.0422  0.1346
  258MOL0    Cl33968   5.329   4.593   8.068 -0.0571  0.2443  0.2012
  258MOL0     C33969   6.027   4.121   8.391  0.2351  0.1369  0.4083
  258MOL0     C33970   5.936   4.030   8.449 -0.6984 -0.4151  0.5087
  258MOL0     O33971   5.668   3.931   8.503 -0.1118  0.7172 -0.4332
  258MOL0     C33972   5.641   3.583   8.454 -0.1904  0.3303 -0.0649
  258MOL0     C33973   5.569   3.468   8.499 -0.3314 -0.0390  0.9005
  258MOL0     N33974   5.434   3.275   9.215  0.0226  0.0363 -0.2088
  258MOL0     N33975   5.400   3.291   9.338  0.1723 -0.3745  0.2895
  258MOL0     C33976   4.708   2.406  10.139 -0.0342  0.0581  1.1484
  258MOL0     C33977   4.577   2.410  10.200 -0.5085  0.3865  0.4418
  258MOL0     C33978   4.150   2.496  10.314  0.2443  0.3988 -0.4457
  258MOL0     C33979   4.056   2.581  10.381 -0.0881 -0.3216  0.2433
  258MOL0     C33980   3.943   2.532  10.455 -0.1387 -0.8733  0.2166
  258MOL0     C33981   3.920   2.395  10.459 -0.2412 -0.3924 -0.4167
  258MOL0     O33982   3.808   2.334  10.519 -0.6695  0.3991  0.8406
  258MOL0     C33983   3.723   2.403  10.602  0.1261  0.4844 -0.4776
  258MOL0     C33984   3.610   2.310  10.637 -0.4119  0.7622  0.3420
  258MOL0     C33985   3.500   2.373  10.722  0.6772 -0.9596 -1.3761
  258MOL0     C33986   3.395   2.455  10.650  0.3433 -0.8921 -0.6419
  258MOL0     C33987   3.289   2.510  10.737 -0.3553  0.2833 -0.4721
  258MOL0     C33988   3.205   2.547  10.808 -0.1214  0.4228  0.3788
  258MOL0     C33989   4.010   2.314  10.385 -0.8612  0.6146 -0.6157
  258MOL0     C33990   4.126   2.359  10.324  0.7495  0.4434 -0.5673
  258MOL0     H33991   4.417   2.599   9.951  0.7912  0.2457 -2.6171
  258MOL0     H33992   4.638   2.573   9.857 -0.5448 -0.9312 -2.1639
  258MOL0     H33993   5.043   2.447   9.983  1.0551  1.8852 -2.0989
  258MOL0     H33994   4.956   2.527  10.130  1.4432  3.2551  0.5020
  258MOL0     H33995   5.124   2.667  10.016  0.8914 -1.2664  0.4839
  258MOL0     H33996   4.965   2.737  10.056  0.8734  1.5993 -0.1086
  258MOL0     H33997   4.877   2.723   9.851 -0.5450 -0.6158 -0.1121
  258MOL0     H33998   5.026   2.635   9.797 -0.0888 -1.2471  2.3582
  258MOL0     H33999   5.006   2.928   9.862  0.0155  1.2322 -1.4224
  258MOL0     H34000   5.152   2.837   9.876 -1.6968  0.6792  1.6783
  258MOL0     H34001   4.975   2.863   9.621  0.3145 -1.9918  0.0841
  258MOL0     H34002   5.136   2.784   9.653  0.0218 -0.9925  2.0629
  258MOL0     H34003   5.196   3.031   9.748 -2.1464 -0.0319  1.7520
  258MOL0     H34004   5.054   3.080   9.657  0.6264 -0.3322  1.3105
  258MOL0     H34005   5.301   2.931   9.524  0.6459  0.6886  0.2129
  258MOL0     H34006   5.152   2.986   9.446  0.8010 -0.5731 -0.4014
  258MOL0     H34007   5.343   3.180   9.571  0.8640 -1.5670  0.1570
  258MOL0     H34008   5.186   3.213   9.502 -0.1988 -0.1305  3.0059
  258MOL0     H34009   5.267   2.990   9.228 -4.0169  1.8995 -3.5327
  258MOL0     H34010   5.438   2.998   9.023 -0.9446 -0.0522 -0.0039
  258MOL0     H34011   5.501   3.160   8.981  0.0196  0.7251  1.0160
  258MOL0     H34012   5.247   3.238   8.996  1.1515  1.1077  0.8679
  258MOL0     H34013   5.226   3.071   8.947 -1.3455  1.2401  1.8161
  258MOL0     H34014   5.389   3.122   8.738 -3.0642 -1.5843 -0.1750
  258MOL0     H34015   5.240   3.215   8.748 -0.8622 -1.4155 -0.3934
  258MOL0     H34016   5.479   3.336   8.870 -0.9247 -2.1170  0.8037
  258MOL0     H34017   5.332   3.415   8.805 -2.3455 -0.9985 -0.9651
  258MOL0     H34018   5.458   3.593   8.796  1.6858 -2.1662  0.3858
  258MOL0     H34019   5.585   3.792   8.709 -2.5273 -0.6353 -0.2804
  258MOL0     H34020   5.968   3.773   8.231 -1.7767  1.4228  0.0767
  258MOL0     H34021   6.106   3.945   8.115 -1.9732  1.4540 -1.9380
  258MOL0     H34022   6.263   4.359   8.172 -2.0753  3.9869 -0.7654
  258MOL0     H34023   6.173   4.368   8.326  0.1960  0.5188  0.7079
  258MOL0     H34024   5.951   4.329   8.194  1.2201 -1.1289  0.0507
  258MOL0     H34025   6.052   4.337   8.045  0.6016 -0.6776  0.3833
  258MOL0     H34026   6.093   4.571   8.098  2.8889 -4.4584 -0.5892
  258MOL0     H34027   6.019   4.565   8.258 -1.7955  2.6411 -0.6587
  258MOL0     H34028   5.867   4.657   8.069  1.2846 -0.7536 -3.2288
  258MOL0     H34029   5.864   4.485   8.020  2.4611 -0.1870 -1.3451
  258MOL0     H34030   5.793   4.538   8.305 -0.5798 -2.9034  0.9765
  258MOL0     H34031   5.751   4.409   8.187 -0.6701  0.8282 -0.4830
  258MOL0     H34032   5.610   4.541   8.062 -0.9363 -1.4266  1.2699
  258MOL0     H34033   5.672   4.688   8.129  0.9799 -0.2815 -0.5027
  258MOL0     H34034   5.515   4.465   8.268 -0.2956  0.0313 -1.2494
  258MOL0     H34035   5.577   4.603   8.352  0.8286 -0.3012  0.6836
  258MOL0     H34036   5.409   4.758   8.228  1.4608 -0.0030  3.7134
  258MOL0     H34037   5.334   4.622   8.312  0.3138  0.8450  0.0540
  258MOL0     H34038   6.036   4.218   8.439 -0.4474  0.9548 -1.0260
  258MOL0     H34039   5.888   4.058   8.542 -0.2203  0.1465  0.5904
  258MOL0     H34040   5.693   3.604   8.362 -0.1119  2.0333  0.3250
  258MOL0     H34041   5.580   3.373   8.448  1.9491  1.6982 -2.2139
  258MOL0     H34042   4.792   2.362  10.193  0.7701  3.0441  2.5590
  258MOL0     H34043   4.559   2.349  10.288 -2.0071 -1.2982 -0.9299
  258MOL0     H34044   4.070   2.687  10.363  3.1192 -0.6277  0.3709
  258MOL0     H34045   3.882   2.607  10.504  0.7790  0.5947 -0.8028
  258MOL0     H34046   3.691   2.486  10.538  1.3843 -1.3281 -3.7361
  258MOL0     H34047   3.771   2.438  10.694 -3.9295  3.5482  0.7124
  258MOL0     H34048   3.560   2.258  10.555  1.0409  0.1484 -0.1936
  258MOL0     H34049   3.653   2.232  10.701 -2.1284 -1.9792 -1.6420
  258MOL0     H34050   3.546   2.443  10.792 -2.8437  1.0645 -0.8173
  258MOL0     H34051   3.455   2.290  10.778  0.8797  0.1420  0.5117
  258MOL0     H34052   3.447   2.537  10.601 -1.8095  3.0307  2.9794
  258MOL0     H34053   3.341   2.382  10.587  2.9804 -1.9980 -1.7833
  258MOL0     H34054   3.132   2.576  10.880  0.5388  0.5785  1.0022
  258MOL0     H34055   3.993   2.207  10.371  3.2707 -0.1275 -1.2064
  258MOL0     H34056   4.187   2.289  10.268 -0.9908 -0.7544 -1.0190
  259MOL0     O34057   9.444   1.727  10.936  0.0701  0.3745  0.1962
  259MOL0     C34058   9.349   1.782  11.006  0.8102 -0.2515 -0.4093
  259MOL0     O34059   9.348   1.789  11.143 -0.3080 -0.0208  1.1858
  259MOL0     C34060   9.468   1.746  11.210  0.0818  0.4872 -0.0982
  259MOL0     C34061   9.498   1.824  11.325 -0.3358 -0.1580 -0.3129
  259MOL0     C34062   9.609   1.800  11.403 -0.5300  0.1369  0.0366
  259MOL0     C34063   9.697   1.686  11.370 -0.4243  0.7265 -0.5841
  259MOL0     O34064   9.800   1.666  11.466  0.2698  0.4442  0.4616
  259MOL0     C34065   9.809   1.539  11.520 -0.4025 -0.2007  0.6250
  259MOL0     C34066   9.932   1.543  11.609  0.6630 -0.7276  0.7599
  259MOL0     C34067  10.054   1.538  11.519 -0.3499 -0.2774 -0.6935
  259MOL0     C34068  10.170   1.503  11.613  1.1418  0.6148  0.5816
  259MOL0     C34069  10.302   1.531  11.540  0.3542  1.0300 -0.5493
  259MOL0     C34070  10.410   1.446  11.600 -0.4385 -0.5817  0.0234
  259MOL0     C34071  10.543   1.480  11.528 -0.4901 -0.1929  0.5666
  259MOL0     C34072  10.591   1.365  11.421  0.4793  0.2319  0.2990
  259MOL0     N34073  10.503   1.345  11.305  0.5962 -0.4683 -0.3499
  259MOL0     C34074  10.380   1.274  11.316  1.0554  0.6137  0.0550
  259MOL0     C34075  10.329   1.301  11.195  0.2149 -0.4554  0.0989
  259MOL0     C34076  10.188   1.273  11.152  0.4008  0.6032  0.3703
  259MOL0     C34077  10.113   1.406  11.125 -0.1324 -0.3461  0.8530
  259MOL0     C34078   9.997   1.387  11.013 -1.0071 -0.2366  1.2626
  259MOL0     C34079   9.910   1.510  11.007 -0.7237  0.0386 -0.7833
  259MOL0     O34080   9.779   1.479  10.950 -0.0670 -0.4665 -0.4732
  259MOL0     C34081   9.763   1.498  10.816 -0.1480  0.8952  0.1835
  259MOL0     C34082   9.851   1.528  10.706 -0.5214  0.7548 -0.4602
  259MOL0     C34083   9.808   1.546  10.575  0.7077  0.2002 -0.1436
  259MOL0     C34084   9.673   1.523  10.539  0.3066 -0.3858  0.4858
  259MOL0     C34085   9.636   1.545  10.389 -0.0078  0.6966 -0.0667
  259MOL0     O34086   9.731   1.559  10.296 -0.1360 -0.5264  0.3965
  259MOL0     C34087   9.701   1.602  10.171 -0.2095 -0.0120 -1.4764
  259MOL0     C34088   9.697   1.739  10.145 -0.4076  0.1999 -0.4629
  259MOL0     C34089   9.685   1.795  10.017 -0.0091  0.0302 -0.6324
  259MOL0     C34090   9.682   1.711   9.902  0.5412  0.1769 -0.1476
  259MOL0     O34091   9.687   1.748   9.768 -0.2595  0.2570 -0.4866
  259MOL0     C34092   9.621   1.874   9.738 -0.9655  0.2769 -0.3584
  259MOL0     C34093   9.705   1.975   9.649  0.6139  0.1821 -0.8867
  259MOL0     C34094   9.850   1.980   9.701 -0.6771  0.3872 -0.6881
  259MOL0     C34095   9.947   2.064   9.617 -0.3878  0.1702 -0.4275
  259MOL0     C34096  10.093   2.043   9.662  0.6852 -0.7370  0.0437
  259MOL0     C34097  10.186   2.137   9.598 -0.2051 -0.3962  0.0536
  259MOL0     C34098  10.330   2.126   9.656 -0.3231 -0.7705  0.6079
  259MOL0     C34099  10.433   2.224   9.591 -0.2041 -0.7451 -0.2009
  259MOL0    Cl34100  10.362   2.384   9.567  0.6114 -0.2490 -0.0186
  259MOL0     C34101   9.682   1.571   9.928 -0.2786  0.2931 -0.7024
  259MOL0     C34102   9.694   1.520  10.057 -0.0955  0.3448  0.0342
  259MOL0     O34103   9.522   1.522  10.360  0.9503 -0.3024  0.5244
  259MOL0     C34104   9.576   1.500  10.640 -0.2332 -0.2554  0.1689
  259MOL0     C34105   9.622   1.491  10.777  0.0078  0.4536  0.0918
  259MOL0     N34106  10.418   1.370  11.112  0.1669  0.3660  0.0442
  259MOL0     N34107  10.527   1.391  11.184  0.4081 -0.7228  0.4442
  259MOL0     C34108   9.667   1.617  11.264  0.4026  1.0138  0.4401
  259MOL0     C34109   9.560   1.651  11.179 -0.5847 -0.4266  0.4924
  259MOL0     C34110   9.240   1.843  10.920 -0.5841 -0.3557  0.0431
  259MOL0     C34111   9.228   1.830  10.781 -0.4164 -0.5749 -0.7398
  259MOL0     C34112   9.123   1.893  10.716 -0.9115 -0.3838 -0.2416
  259MOL0     C34113   9.029   1.975  10.785 -0.3936 -0.2329  1.1107
  259MOL0     O34114   8.936   2.056  10.716  0.5161 -0.1629  0.0226
  259MOL0     C34115   8.956   2.102  10.581  0.6368 -0.7524  1.5943
  259MOL0     C34116   9.078   2.188  10.566 -0.1032  0.5847 -0.2192
  259MOL0     C34117   9.084   2.302  10.670 -0.5620  0.0205 -0.0392
  259MOL0     C34118   9.227   2.351  10.705  0.0140  0.1642  0.2098
  259MOL0     C34119   9.314   2.254  10.764  0.4554 -0.4505  0.6716
  259MOL0     C34120   9.368   2.158  10.810 -0.5273 -0.3990 -0.4489
  259MOL0     C34121   9.034   1.979  10.921  0.2150  0.0656 -0.4593
  259MOL0     C34122   9.144   1.915  10.986 -0.4480 -0.2484  0.0211
  259MOL0     H34123   9.428   1.901  11.357  0.3401  0.9235 -1.3547
  259MOL0     H34124   9.636   1.865  11.486 -1.4884  1.1563 -0.4222
  259MOL0     H34125   9.832   1.462  11.446  1.9570  2.1277 -1.2295
  259MOL0     H34126   9.720   1.517  11.581 -1.5053 -0.1538 -0.9159
  259MOL0     H34127   9.929   1.463  11.684  5.1108 -1.0977  0.7943
  259MOL0     H34128   9.928   1.634  11.670  0.4148  0.0643 -0.4120
  259MOL0     H34129  10.077   1.630  11.465  3.8336 -1.3060 -0.9859
  259MOL0     H34130  10.043   1.459  11.444  1.2193 -0.6602 -0.5596
  259MOL0     H34131  10.162   1.565  11.703 -0.2604  1.9928 -0.4243
  259MOL0     H34132  10.165   1.400  11.650  1.0053 -0.9654 -3.3881
  259MOL0     H34133  10.331   1.635  11.562  1.3986  0.2583  2.0743
  259MOL0     H34134  10.292   1.514  11.432  0.4886  1.2296 -0.5950
  259MOL0     H34135  10.382   1.341  11.588 -1.0091 -0.2036 -2.5981
  259MOL0     H34136  10.422   1.473  11.705  1.5994 -0.1699 -0.2706
  259MOL0     H34137  10.549   1.584  11.496 -1.3715 -0.2298  0.2549
  259MOL0     H34138  10.620   1.482  11.606  0.0968 -0.6564  0.0097
  259MOL0     H34139  10.599   1.270  11.474 -0.9286 -0.8416 -1.2990
  259MOL0     H34140  10.686   1.394  11.375  0.2646 -0.1948 -0.4433
  259MOL0     H34141  10.346   1.208  11.395 -1.9885  0.3625 -1.3187
  259MOL0     H34142  10.128   1.219  11.226 -1.6558 -0.6568 -2.0931
  259MOL0     H34143  10.196   1.212  11.062  3.2359 -0.6301  1.3570
  259MOL0     H34144  10.184   1.481  11.091  0.2153 -0.4177  1.3987
  259MOL0     H34145  10.065   1.442  11.217 -0.1460 -0.9095  1.0714
  259MOL0     H34146  10.033   1.360  10.914 -0.1542 -0.9854  1.7568
  259MOL0     H34147   9.937   1.306  11.058 -3.1364  2.0117  2.7257
  259MOL0     H34148   9.955   1.598  10.960 -1.9739  1.2041  0.1303
  259MOL0     H34149   9.894   1.534  11.113  1.0903 -2.6000  0.2094
  259MOL0     H34150   9.955   1.544  10.729 -0.0461 -1.8051 -0.5826
  259MOL0     H34151   9.873   1.576  10.493 -0.8625  0.1508 -1.4692
  259MOL0     H34152   9.707   1.814  10.224 -2.8200  2.1251 -1.8280
  259MOL0     H34153   9.678   1.902   9.996  0.2910  0.3822  0.9159
  259MOL0     H34154   9.601   1.939   9.824  0.6225  1.2221 -0.6707
  259MOL0     H34155   9.521   1.860   9.696 -0.6619  2.1847 -1.8532
  259MOL0     H34156   9.660   2.075   9.647  1.3953  0.5305 -1.5817
  259MOL0     H34157   9.709   1.938   9.546 -0.1416 -0.9202 -0.5434
  259MOL0     H34158   9.893   1.880   9.694 -1.8220 -0.0469 -1.6593
  259MOL0     H34159   9.858   2.015   9.805 -2.9902  1.1150 -0.7130
  259MOL0     H34160   9.935   2.031   9.514 -1.6688 -1.6819  0.2737
  259MOL0     H34161   9.920   2.169   9.634 -0.7287 -0.1166  0.9595
  259MOL0     H34162  10.123   1.942   9.632  1.3889  0.0149 -1.9873
  259MOL0     H34163  10.113   2.045   9.769 -0.5202 -2.3653  0.3380
  259MOL0     H34164  10.153   2.241   9.607 -1.6135 -0.9595  2.1130
  259MOL0     H34165  10.185   2.118   9.490  0.0189 -0.3088  0.0338
  259MOL0     H34166  10.316   2.151   9.762  0.8913  1.3294  0.3353
  259MOL0     H34167  10.379   2.029   9.645  3.4015  1.0387 -0.4653
  259MOL0     H34168  10.477   2.189   9.497  3.7117  1.7097  0.5000
  259MOL0     H34169  10.518   2.228   9.660 -0.6847 -4.1592  0.7835
  259MOL0     H34170   9.682   1.496   9.850  0.8145 -1.4344  0.8862
  259MOL0     H34171   9.701   1.414  10.075  1.4000  0.2549 -0.9755
  259MOL0     H34172   9.481   1.473  10.595  1.1754 -2.2294 -1.8682
  259MOL0     H34173   9.544   1.486  10.853  0.9706 -0.4995  1.0517
  259MOL0     H34174   9.721   1.525  11.243 -2.4124 -1.0056  1.4274
  259MOL0     H34175   9.538   1.590  11.091 -1.6298 -0.2947  0.6539
  259MOL0     H34176   9.296   1.759  10.733  1.3209  0.7599 -0.3382
  259MOL0     H34177   9.112   1.884  10.608 -2.8406 -1.6177  0.0056
  259MOL0     H34178   8.870   2.162  10.550  0.4352 -0.7149  2.2054
  259MOL0     H34179   8.943   2.014  10.517 -1.3943  0.6641 -0.0724
  259MOL0     H34180   9.167   2.126  10.566  0.1299  0.8991 -1.4061
  259MOL0     H34181   9.062   2.251  10.478  0.2924  2.6099  1.0852
  259MOL0     H34182   9.045   2.259  10.763 -1.8750 -1.0560 -1.0406
  259MOL0     H34183   9.014   2.385  10.655 -2.5986 -1.1399  2.2897
  259MOL0     H34184   9.274   2.396  10.617 -1.9889  0.1488 -0.9204
  259MOL0     H34185   9.196   2.433  10.771 -0.3053  0.4505 -0.2948
  259MOL0     H34186   9.413   2.072  10.855 -1.5974 -1.4248 -1.2914
  259MOL0     H34187   8.959   2.039  10.972  0.9094  0.6071 -0.0606
  259MOL0     H34188   9.142   1.892  11.092 -0.4616 -3.9914 -0.6553
  260MOL0     O34189   2.613   6.194   4.783  0.5832 -0.0004  0.3997
  260MOL0     C34190   2.590   6.197   4.906  0.6592 -0.3516 -0.0947
  260MOL0     O34191   2.579   6.094   4.992 -0.0201  0.7237 -0.2757
  260MOL0     C34192   2.664   5.987   4.977  0.5313  0.7411 -0.1341
  260MOL0     C34193   2.796   6.000   4.931 -0.9611 -0.1615 -0.3970
  260MOL0     C34194   2.878   5.893   4.922 -0.3613 -0.2716 -0.4362
  260MOL0     C34195   2.836   5.767   4.952 -0.6909 -0.0307  1.1525
  260MOL0     O34196   2.923   5.654   4.954 -0.8420 -0.2741  0.0556
  260MOL0     C34197   3.057   5.675   5.010 -0.8796  0.0901 -0.0615
  260MOL0     C34198   3.149   5.550   5.017 -0.2992  0.5260  0.3720
  260MOL0     C34199   3.109   5.466   5.140 -0.3214 -0.5009  0.1023
  260MOL0     C34200   3.187   5.341   5.164  0.6904 -0.1717 -0.5776
  260MOL0     C34201   3.333   5.358   5.157  0.3787 -0.1506  1.0681
  260MOL0     C34202   3.401   5.229   5.205  0.4733  0.6529  0.2640
  260MOL0     C34203   3.520   5.178   5.120  0.4445 -0.2683  0.4931
  260MOL0     C34204   3.585   5.060   5.192  0.0154 -0.5482 -0.5537
  260MOL0     N34205   3.700   5.018   5.103 -0.2440 -0.9407 -0.5707
  260MOL0     C34206   3.693   4.922   5.010 -0.3859  0.4597  1.0221
  260MOL0     C34207   3.814   4.917   4.941 -0.1016 -0.4964  0.2252
  260MOL0     C34208   3.856   4.826   4.833  0.9340 -0.5319 -0.4665
  260MOL0     C34209   3.814   4.679   4.874 -0.0020 -0.6976 -0.0885
  260MOL0     C34210   3.897   4.643   5.000  0.1247 -1.0858  0.1494
  260MOL0     C34211   3.889   4.497   5.043  0.7840  0.0186 -0.7148
  260MOL0     O34212   3.751   4.462   5.082  0.0061  0.2174  0.6867
  260MOL0     C34213   3.673   4.379   5.006  0.1844  0.7096  0.0430
  260MOL0     C34214   3.559   4.416   4.948 -0.3726  0.1247 -0.1105
  260MOL0     C34215   3.490   4.335   4.860  0.1529  1.0678  0.1514
  260MOL0     C34216   3.538   4.210   4.812 -0.1850 -0.0473  0.6764
  260MOL0     C34217   3.467   4.127   4.710 -0.2770  0.2016  0.2260
  260MOL0     O34218   3.344   4.168   4.660  1.0085  1.1247 -0.6723
  260MOL0     C34219   3.250   4.074   4.605 -0.3310  0.2373  0.3236
  260MOL0     C34220   3.154   4.113   4.508  0.4369 -0.6808  0.0833
  260MOL0     C34221   3.047   4.032   4.473 -0.1420  0.0686 -0.0467
  260MOL0     C34222   3.032   3.903   4.522 -0.5161 -1.0179  0.0268
  260MOL0     O34223   2.942   3.812   4.484 -0.1339  0.4247 -0.8119
  260MOL0     C34224   2.807   3.862   4.452 -0.7345 -0.0165  0.9164
  260MOL0     C34225   2.787   3.874   4.305  0.0493  0.0824  0.0563
  260MOL0     C34226   2.704   4.001   4.262  0.2344  0.2477  0.5157
  260MOL0     C34227   2.562   4.002   4.322 -1.3083 -0.5215  0.1695
  260MOL0     C34228   2.498   4.140   4.323 -1.1155  0.6231 -0.6910
  260MOL0     C34229   2.393   4.163   4.429  0.0250  0.0686  0.4599
  260MOL0     C34230   2.307   4.284   4.382  0.5080 -0.1875 -0.1789
  260MOL0     C34231   2.184   4.279   4.463 -0.2399  0.1338  0.1033
  260MOL0    Cl34232   2.060   4.173   4.393  0.1072 -0.3087 -0.0678
  260MOL0     C34233   3.134   3.859   4.602 -0.0503  0.2084  1.4829
  260MOL0     C34234   3.234   3.944   4.653 -0.3626  0.3833  0.0873
  260MOL0     O34235   3.526   4.023   4.681 -0.0733 -0.3386  0.0190
  260MOL0     C34236   3.659   4.174   4.870 -0.2394 -0.4616 -0.2813
  260MOL0     C34237   3.722   4.248   4.971  0.6548  0.1864 -0.0326
  260MOL0     N34238   3.882   5.024   4.993  0.2862 -0.5649 -0.7268
  260MOL0     N34239   3.808   5.087   5.082 -0.5045  0.1228 -0.8182
  260MOL0     C34240   2.704   5.747   5.002 -0.1780  0.3852  0.2231
  260MOL0     C34241   2.629   5.863   5.023 -0.0684 -0.3893 -0.1352
  260MOL0     C34242   2.580   6.336   4.969 -0.5634  0.1979  0.7037
  260MOL0     C34243   2.595   6.453   4.892 -0.5792  0.1905  0.5496
  260MOL0     C34244   2.595   6.575   4.947  0.1678  0.0905  0.3244
  260MOL0     C34245   2.578   6.590   5.078 -0.2146  0.2059 -0.2581
  260MOL0     O34246   2.579   6.717   5.117  0.5398 -0.1317 -0.2564
  260MOL0     C34247   2.535   6.751   5.254  0.7746 -0.3228  0.2257
  260MOL0     C34248   2.526   6.899   5.269 -0.9993  0.2366 -0.5728
  260MOL0     C34249   2.498   6.940   5.419 -0.1800 -0.0910  0.0396
  260MOL0     C34250   2.352   6.888   5.466 -1.0081  0.4020  0.1989
  260MOL0     C34251   2.338   6.880   5.615 -0.3472 -0.5388 -0.2101
  260MOL0     C34252   2.313   6.854   5.734 -0.5104  0.8691 -0.1890
  260MOL0     C34253   2.569   6.477   5.161 -0.7912 -0.0205  0.2256
  260MOL0     C34254   2.568   6.351   5.107 -0.1686  0.8806 -0.8371
  260MOL0     H34255   2.832   6.094   4.892  2.6884 -1.5255 -0.7225
  260MOL0     H34256   2.979   5.922   4.892  0.2425  1.0827  2.5977
  260MOL0     H34257   3.054   5.734   5.101 -0.2887  1.2069 -0.7513
  260MOL0     H34258   3.112   5.746   4.948 -0.3955 -0.1285  0.1112
  260MOL0     H34259   3.252   5.585   5.030 -0.0211  0.4148 -1.2949
  260MOL0     H34260   3.156   5.499   4.921 -2.1812 -3.4008  2.0917
  260MOL0     H34261   3.003   5.441   5.137 -0.3625 -0.3914  0.5899
  260MOL0     H34262   3.127   5.523   5.231  2.0569 -0.4758 -0.3254
  260MOL0     H34263   3.168   5.305   5.266  1.8626  1.1006  0.1369
  260MOL0     H34264   3.152   5.260   5.100 -0.4296 -1.3434  1.4031
  260MOL0     H34265   3.378   5.438   5.215  2.7668 -1.1296  0.6761
  260MOL0     H34266   3.368   5.379   5.055  4.5347 -0.3401  2.3147
  260MOL0     H34267   3.331   5.146   5.189  2.5285 -1.3354  1.0995
  260MOL0     H34268   3.424   5.227   5.312 -0.7825 -4.0904  0.6742
  260MOL0     H34269   3.492   5.162   5.016 -1.4217  1.0336  0.7499
  260MOL0     H34270   3.592   5.260   5.128  0.0424  0.0997  0.3154
  260MOL0     H34271   3.519   4.974   5.205  0.9659 -1.4351 -1.3724
  260MOL0     H34272   3.629   5.083   5.289 -0.2370 -0.0443 -0.5570
  260MOL0     H34273   3.606   4.860   4.993  0.3812 -0.3852  0.0769
  260MOL0     H34274   3.961   4.825   4.803  1.2305 -0.7638  0.5216
  260MOL0     H34275   3.810   4.857   4.739 -1.5312 -2.2037  0.0715
  260MOL0     H34276   3.847   4.615   4.792  1.0801  0.6143 -0.7193
  260MOL0     H34277   3.709   4.663   4.898  0.1620  1.5047  2.6609
  260MOL0     H34278   3.996   4.681   4.973 -1.6718  3.1611 -1.2279
  260MOL0     H34279   3.858   4.706   5.081 -0.9631 -1.4579 -0.0662
  260MOL0     H34280   3.957   4.475   5.125 -0.6734  1.9476  1.1350
  260MOL0     H34281   3.904   4.430   4.958 -0.1270 -1.2211  0.0723
  260MOL0     H34282   3.513   4.509   4.979 -1.5239 -1.1376  2.2606
  260MOL0     H34283   3.392   4.362   4.821  0.3072  0.9561 -0.3317
  260MOL0     H34284   3.164   4.206   4.454  0.0657 -0.4774  0.3564
  260MOL0     H34285   2.978   4.075   4.401  1.6910 -1.7496 -3.1499
  260MOL0     H34286   2.795   3.958   4.503 -0.4647  0.4617  0.0921
  260MOL0     H34287   2.730   3.794   4.491 -3.0981  0.8490 -1.8832
  260MOL0     H34288   2.739   3.781   4.273  0.9200 -0.0467 -0.8962
  260MOL0     H34289   2.885   3.881   4.256 -0.1082  0.7051 -0.1782
  260MOL0     H34290   2.689   4.005   4.153 -4.6250  1.4734  0.9804
  260MOL0     H34291   2.761   4.086   4.300  1.9028  0.0574 -1.3601
  260MOL0     H34292   2.499   3.928   4.271  0.9057 -2.8056  0.5342
  260MOL0     H34293   2.556   3.950   4.418  1.6002 -1.0845  0.1379
  260MOL0     H34294   2.445   4.169   4.232 -1.9763  2.8203  0.4216
  260MOL0     H34295   2.581   4.211   4.331  0.2628 -0.9623 -0.4588
  260MOL0     H34296   2.440   4.167   4.528 -0.9143 -0.5679  0.9491
  260MOL0     H34297   2.336   4.070   4.424 -2.3121  1.4919 -2.2421
  260MOL0     H34298   2.361   4.378   4.401  0.1490 -0.1425  0.6417
  260MOL0     H34299   2.284   4.289   4.275 -0.5672  0.5333  0.0729
  260MOL0     H34300   2.135   4.377   4.463 -0.5247  0.0390 -1.9800
  260MOL0     H34301   2.225   4.272   4.564  3.5138 -2.1842 -1.3655
  260MOL0     H34302   3.120   3.762   4.648  0.1099  0.6956  2.6058
  260MOL0     H34303   3.303   3.900   4.724 -0.6722  0.5174  0.4757
  260MOL0     H34304   3.715   4.083   4.851  1.3877 -0.0432  2.0236
  260MOL0     H34305   3.803   4.210   5.033  2.2751  3.3310 -0.0574
  260MOL0     H34306   2.676   5.645   5.027 -2.1202  0.4601 -1.3726
  260MOL0     H34307   2.528   5.865   5.063 -0.2897  2.3371 -0.5987
  260MOL0     H34308   2.610   6.447   4.784  1.3889  0.0879  0.7900
  260MOL0     H34309   2.597   6.667   4.889 -0.6238 -1.4335 -2.2674
  260MOL0     H34310   2.597   6.700   5.328  1.5880 -1.2090 -1.0192
  260MOL0     H34311   2.433   6.714   5.270  0.8314  0.0826  1.6587
  260MOL0     H34312   2.622   6.941   5.238 -1.2797 -1.2916 -3.9882
  260MOL0     H34313   2.453   6.948   5.205 -1.5462  0.0131 -0.1245
  260MOL0     H34314   2.505   7.049   5.428  0.1067  0.1248 -2.2175
  260MOL0     H34315   2.575   6.889   5.477  2.4693 -1.2055 -4.0135
  260MOL0     H34316   2.269   6.946   5.425 -1.9352 -1.8749 -1.3867
  260MOL0     H34317   2.335   6.789   5.423  1.1993  0.4733 -1.0328
  260MOL0     H34318   2.271   6.835   5.831  0.1696  0.5104  0.0418
  260MOL0     H34319   2.572   6.485   5.269 -0.2530 -4.1659  0.6889
  260MOL0     H34320   2.569   6.267   5.176  3.5134 -0.0712 -1.8343
  261MOL0     O34321   2.671   5.568   7.421  0.5957  0.0295  0.3098
  261MOL0     C34322   2.798   5.554   7.395  0.2856 -0.1087  0.2020
  261MOL0     O34323   2.848   5.455   7.320  0.0129  0.0426  0.1550
  261MOL0     C34324   2.752   5.372   7.264 -0.5415  0.1141 -0.5138
  261MOL0     C34325   2.663   5.415   7.165  0.4257  0.3891  0.1886
  261MOL0     C34326   2.600   5.315   7.092 -0.4069  0.3292  1.1708
  261MOL0     C34327   2.603   5.179   7.136  0.3381 -0.0899  0.6604
  261MOL0     O34328   2.524   5.079   7.086 -1.1236  0.5016  0.7306
  261MOL0     C34329   2.455   5.089   6.959  0.8423 -0.1668 -0.1207
  261MOL0     C34330   2.552   5.058   6.845 -0.3936 -0.8265 -0.4903
  261MOL0     C34331   2.593   4.919   6.840  0.3888 -0.0350 -0.6202
  261MOL0     C34332   2.689   4.895   6.715 -0.7260  0.1825 -1.0686
  261MOL0     C34333   2.836   4.956   6.743  0.2135  0.1679  0.4696
  261MOL0     C34334   2.902   4.979   6.610 -0.3683 -0.4355  0.0236
  261MOL0     C34335   3.048   5.018   6.628  0.1373 -0.8342 -0.3482
  261MOL0     C34336   3.133   4.908   6.701  0.1521 -0.0185 -0.0889
  261MOL0     N34337   3.150   4.788   6.615 -0.1665  0.5197 -0.2301
  261MOL0     C34338   3.086   4.668   6.656  0.0906  0.6228 -0.0313
  261MOL0     C34339   3.168   4.571   6.609 -0.1985  0.2937 -1.0106
  261MOL0     C34340   3.157   4.423   6.659 -0.6909 -0.1348 -0.1956
  261MOL0     C34341   3.057   4.334   6.577 -0.2496 -0.6111 -0.7817
  261MOL0     C34342   3.069   4.359   6.425 -0.3526 -0.1187 -0.8177
  261MOL0     C34343   2.965   4.294   6.334  0.3552 -0.8873  0.2400
  261MOL0     O34344   2.836   4.316   6.389 -0.6344  1.0842 -0.0800
  261MOL0     C34345   2.721   4.284   6.326 -0.5135  0.1085 -0.4482
  261MOL0     C34346   2.599   4.289   6.400 -0.1415 -0.2874  0.1624
  261MOL0     C34347   2.478   4.250   6.347  0.1997  0.6077  0.0079
  261MOL0     C34348   2.478   4.198   6.217  0.1438 -0.2740 -0.1075
  261MOL0     C34349   2.356   4.128   6.164 -0.0758 -0.3849 -0.8583
  261MOL0     O34350   2.360   4.076   6.036 -0.4550  0.5089  0.9519
  261MOL0     C34351   2.256   3.994   5.999 -0.2633  0.7030 -0.1435
  261MOL0     C34352   2.247   3.859   6.042 -0.4571 -0.7737  0.4924
  261MOL0     C34353   2.144   3.775   6.011  0.2244  0.0593  1.0228
  261MOL0     C34354   2.034   3.828   5.939  0.1538 -0.1392  0.1766
  261MOL0     O34355   1.917   3.761   5.909 -0.1837  0.2557  0.5735
  261MOL0     C34356   1.917   3.619   5.897 -0.0413 -0.4252 -0.7477
  261MOL0     C34357   1.873   3.544   6.029  1.1146  0.0217  0.5753
  261MOL0     C34358   1.723   3.566   6.069 -0.7419  0.3695  0.2206
  261MOL0     C34359   1.686   3.709   6.104  0.4174  1.5724 -0.1261
  261MOL0     C34360   1.574   3.732   6.203 -0.1659 -0.1410  0.5914
  261MOL0     C34361   1.438   3.679   6.163 -0.1683 -0.3336  0.1792
  261MOL0     C34362   1.317   3.708   6.259 -0.1149 -0.6143 -0.5021
  261MOL0     C34363   1.182   3.683   6.189 -0.5505  0.1784 -0.4386
  261MOL0    Cl34364   1.050   3.703   6.306 -0.2435  0.3069  0.0485
  261MOL0     C34365   2.032   3.963   5.904 -1.1078 -0.1913 -1.1449
  261MOL0     C34366   2.141   4.044   5.935 -0.1856  0.0801  0.7038
  261MOL0     O34367   2.260   4.123   6.237  0.1535 -0.2337  0.2018
  261MOL0     C34368   2.595   4.190   6.148 -0.3004 -0.8000  1.4184
  261MOL0     C34369   2.714   4.232   6.195 -0.0670  0.3380 -0.1835
  261MOL0     N34370   3.271   4.625   6.534  0.2813 -0.4817 -0.7392
  261MOL0     N34371   3.267   4.751   6.554 -0.6097  0.5372 -0.0765
  261MOL0     C34372   2.693   5.140   7.239 -0.0915  0.4057  0.3217
  261MOL0     C34373   2.759   5.242   7.298  0.6392 -0.2691 -0.0668
  261MOL0     C34374   2.885   5.648   7.459 -0.8390 -0.1453  0.1244
  261MOL0     C34375   3.023   5.640   7.437 -0.6069  0.5172  0.5146
  261MOL0     C34376   3.118   5.709   7.512 -0.1559 -0.1331 -0.0246
  261MOL0     C34377   3.068   5.818   7.587 -1.0059 -0.4574 -0.3415
  261MOL0     O34378   3.160   5.880   7.667  0.5861 -0.2363  0.6856
  261MOL0     C34379   3.118   5.992   7.747  0.8642  0.1220  0.1686
  261MOL0     C34380   3.068   5.932   7.879 -0.6595 -0.1005  1.2150
  261MOL0     C34381   2.975   6.024   7.946 -0.0649 -1.1014 -0.4926
  261MOL0     C34382   3.000   6.001   8.087 -0.4903  0.3275  0.4589
  261MOL0     C34383   2.940   6.110   8.163  0.0521  0.0594 -0.1034
  261MOL0     C34384   2.898   6.206   8.222  0.1686  1.0648  0.1891
  261MOL0     C34385   2.930   5.831   7.606  0.5233 -0.6420 -1.4984
  261MOL0     C34386   2.839   5.749   7.537  0.8974  0.6400 -1.0079
  261MOL0     H34387   2.648   5.520   7.145  3.7885  0.7936 -0.9166
  261MOL0     H34388   2.539   5.355   7.011  2.3260 -0.6651 -1.5792
  261MOL0     H34389   2.414   5.188   6.941  3.5234  0.8355 -1.4106
  261MOL0     H34390   2.374   5.017   6.948  0.8031 -0.2687  0.8166
  261MOL0     H34391   2.639   5.122   6.864 -1.3383 -0.6525  4.6994
  261MOL0     H34392   2.500   5.079   6.752 -2.6827 -0.4295  0.8064
  261MOL0     H34393   2.503   4.858   6.847  0.5474 -0.2477 -0.4040
  261MOL0     H34394   2.647   4.899   6.933  2.5006  0.3532 -1.7083
  261MOL0     H34395   2.702   4.787   6.700  0.8181 -0.3361  2.8303
  261MOL0     H34396   2.649   4.946   6.627 -3.0628 -2.1583 -1.4806
  261MOL0     H34397   2.895   4.889   6.806  0.3086  0.0787  0.2869
  261MOL0     H34398   2.833   5.045   6.806 -1.3436  0.4702  0.0002
  261MOL0     H34399   2.857   5.061   6.553 -3.2249 -0.8674  1.4683
  261MOL0     H34400   2.896   4.891   6.545  4.6314 -0.4142 -0.8240
  261MOL0     H34401   3.095   5.040   6.532  3.2201 -2.5263  0.6341
  261MOL0     H34402   3.053   5.118   6.673  0.1212 -0.2176 -1.6775
  261MOL0     H34403   3.092   4.885   6.800  0.0395  0.5984  0.0139
  261MOL0     H34404   3.233   4.949   6.720 -0.7677  2.8807 -0.9243
  261MOL0     H34405   2.999   4.668   6.721 -1.3237 -1.1770 -1.8379
  261MOL0     H34406   3.127   4.430   6.764  2.2367  0.5497  0.6746
  261MOL0     H34407   3.253   4.371   6.647  0.6086  2.4844 -2.0532
  261MOL0     H34408   2.953   4.354   6.603 -0.0440 -1.8879  1.2859
  261MOL0     H34409   3.071   4.231   6.613 -3.7342 -0.5526  1.1458
  261MOL0     H34410   3.073   4.464   6.395 -3.2106 -0.7408 -4.0976
  261MOL0     H34411   3.167   4.317   6.400  0.2764  1.9398 -2.1385
  261MOL0     H34412   3.000   4.194   6.306  2.7290 -0.6997  2.2156
  261MOL0     H34413   2.969   4.349   6.239  1.8581  0.6477  1.1274
  261MOL0     H34414   2.610   4.333   6.499  0.0249 -0.6901  0.3213
  261MOL0     H34415   2.385   4.241   6.402 -0.6475  2.2213 -1.0464
  261MOL0     H34416   2.326   3.810   6.099  1.0112 -1.0682 -1.6759
  261MOL0     H34417   2.133   3.676   6.055 -0.2388  1.2605  3.7967
  261MOL0     H34418   2.011   3.586   5.852 -0.8565 -1.5562 -1.6798
  261MOL0     H34419   1.841   3.596   5.822 -0.5090 -0.4741 -0.2615
  261MOL0     H34420   1.933   3.565   6.117  4.0090 -0.8370 -1.0831
  261MOL0     H34421   1.887   3.441   5.996  0.8396  1.1582 -3.7323
  261MOL0     H34422   1.723   3.505   6.160 -2.3693  0.9112  0.6217
  261MOL0     H34423   1.650   3.526   5.998  1.0982 -1.6838 -0.6414
  261MOL0     H34424   1.770   3.758   6.154  1.2786 -3.2514  4.0273
  261MOL0     H34425   1.667   3.750   6.005  3.1747 -2.0381 -2.4428
  261MOL0     H34426   1.561   3.835   6.236 -2.4241 -0.3815  0.6414
  261MOL0     H34427   1.610   3.668   6.283  2.3239 -1.6541 -1.5746
  261MOL0     H34428   1.435   3.570   6.160 -2.5371 -0.5787  4.0911
  261MOL0     H34429   1.410   3.718   6.064  1.9736  0.6781 -0.0787
  261MOL0     H34430   1.320   3.641   6.345  1.9960  0.7640  0.5955
  261MOL0     H34431   1.314   3.815   6.282  1.1848  0.1355 -3.3398
  261MOL0     H34432   1.185   3.578   6.157 -0.5707 -0.8518  2.6591
  261MOL0     H34433   1.154   3.748   6.105  0.2532  0.1242 -0.7519
  261MOL0     H34434   1.942   4.017   5.876 -0.7521  0.6639 -0.6775
  261MOL0     H34435   2.142   4.150   5.912  1.7181  0.0006  0.2846
  261MOL0     H34436   2.588   4.135   6.055  0.1121  1.6757 -0.1757
  261MOL0     H34437   2.811   4.221   6.148  1.1471 -2.2095  2.5781
  261MOL0     H34438   2.693   5.032   7.248 -0.8683  0.1227 -2.2110
  261MOL0     H34439   2.828   5.220   7.380 -1.3755 -1.0331  1.5119
  261MOL0     H34440   3.069   5.562   7.376  1.8976  1.5123  1.0000
  261MOL0     H34441   3.225   5.699   7.497  0.4642  4.0509  0.5793
  261MOL0     H34442   3.049   6.059   7.696  1.3440 -0.8752 -1.9104
  261MOL0     H34443   3.206   6.056   7.763  0.8787  0.8268 -2.3097
  261MOL0     H34444   3.009   5.843   7.853 -2.4654  1.4362 -0.1578
  261MOL0     H34445   3.156   5.899   7.935  3.0581 -1.8162 -4.7074
  261MOL0     H34446   2.871   6.004   7.917 -0.9313  0.0749  1.5602
  261MOL0     H34447   3.003   6.125   7.913  0.7940 -1.9948 -2.6912
  261MOL0     H34448   2.951   5.908   8.117 -1.6193  0.9529  0.6067
  261MOL0     H34449   3.106   6.002   8.111 -0.0945  3.3531 -0.9427
  261MOL0     H34450   2.841   6.289   8.258  0.1291  1.1288 -0.0197
  261MOL0     H34451   2.882   5.899   7.676 -0.0724 -0.5682 -1.9694
  261MOL0     H34452   2.732   5.748   7.553  0.9598  1.3559 -0.5058
  262MOL0     O34453   8.373   8.346   8.594  0.9445  0.0247 -0.0648
  262MOL0     C34454   8.455   8.421   8.636 -0.0832  0.4947  0.2177
  262MOL0     O34455   8.463   8.552   8.617 -0.2325 -0.6248 -0.4285
  262MOL0     C34456   8.358   8.643   8.585 -0.4170 -0.1819  1.0458
  262MOL0     C34457   8.216   8.603   8.575 -0.4842  1.0029  1.3429
  262MOL0     C34458   8.120   8.687   8.525 -0.2217 -0.0994  0.0912
  262MOL0     C34459   8.157   8.810   8.472 -0.3641 -0.1218 -0.3390
  262MOL0     O34460   8.061   8.886   8.415  0.7618 -0.4197 -0.4839
  262MOL0     C34461   7.966   8.938   8.516 -0.4393  0.1821 -0.5683
  262MOL0     C34462   7.923   9.079   8.477 -0.2897  0.2791  0.5753
  262MOL0     C34463   7.839   9.101   8.344  0.3039 -0.1157  0.0737
  262MOL0     C34464   7.860   9.248   8.281  0.4395  0.0331 -0.1711
  262MOL0     C34465   7.802   9.274   8.137 -0.4649 -0.6472  0.1597
  262MOL0     C34466   7.654   9.261   8.136  0.0186 -0.3366 -0.5453
  262MOL0     C34467   7.601   9.277   7.996  0.0351 -0.7872 -1.1823
  262MOL0     C34468   7.638   9.415   7.939 -0.5536 -0.4995 -0.4187
  262MOL0     N34469   7.608   9.533   8.028 -0.2724  0.3283  0.3521
  262MOL0     C34470   7.502   9.627   8.012  0.1096  0.6202  0.0406
  262MOL0     C34471   7.521   9.724   8.096 -0.7601 -0.7900  0.3212
  262MOL0     C34472   7.442   9.849   8.121 -0.1716  0.1900  0.3068
  262MOL0     C34473   7.518   9.964   8.050 -0.7472  0.3678  0.1959
  262MOL0     C34474   7.433  10.070   7.987 -0.3064 -0.2366 -0.0433
  262MOL0     C34475   7.523  10.184   7.948  1.3798 -0.7814  0.9011
  262MOL0     O34476   7.440  10.293   7.905 -0.2612 -0.5279 -0.6311
  262MOL0     C34477   7.382  10.306   7.784 -0.5650  0.5225  0.2169
  262MOL0     C34478   7.415  10.222   7.674  0.4526 -0.5509 -0.6659
  262MOL0     C34479   7.350  10.230   7.550 -0.5148  1.0426  0.1689
  262MOL0     C34480   7.256  10.329   7.526  0.3420 -0.5216 -0.2984
  262MOL0     C34481   7.187  10.350   7.402 -0.5407 -0.0078 -0.1101
  262MOL0     O34482   7.114  10.459   7.386  0.0581 -0.7599 -0.4245
  262MOL0     C34483   7.044  10.473   7.273  0.1046 -0.0702  0.0888
  262MOL0     C34484   7.071  10.555   7.160  0.4141 -0.4328  0.3732
  262MOL0     C34485   7.000  10.552   7.039 -0.0903 -0.3732 -0.9788
  262MOL0     C34486   6.885  10.471   7.035 -0.4677 -0.0856  0.1807
  262MOL0     O34487   6.829  10.471   6.914  0.1068  0.5042  0.4372
  262MOL0     C34488   6.702  10.406   6.895  0.2372  0.4362 -0.0126
  262MOL0     C34489   6.708  10.263   6.863  0.3944 -0.1059  0.2666
  262MOL0     C34490   6.570  10.232   6.788  0.1331  0.6194  0.3588
  262MOL0     C34491   6.578  10.251   6.636  0.3373 -1.0731  0.0469
  262MOL0     C34492   6.459  10.194   6.563  0.5560 -0.3755 -0.7473
  262MOL0     C34493   6.330  10.264   6.608  0.4517  0.5051  0.1462
  262MOL0     C34494   6.202  10.189   6.544 -0.2768 -0.0892 -1.6841
  262MOL0     C34495   6.190  10.199   6.393 -0.3447 -0.2512 -0.0957
  262MOL0    Cl34496   6.072  10.078   6.344  0.0089 -0.0421  0.0333
  262MOL0     C34497   6.855  10.390   7.141  0.6835  0.0177  0.6768
  262MOL0     C34498   6.928  10.397   7.265 -0.3469  0.5304  0.1390
  262MOL0     O34499   7.205  10.265   7.320 -0.1085  0.3849 -0.7269
  262MOL0     C34500   7.233  10.419   7.629 -0.3223  0.1658 -0.0670
  262MOL0     C34501   7.291  10.404   7.759  0.7559  0.3934 -0.0967
  262MOL0     N34502   7.651   9.709   8.146 -0.3778  0.6592 -0.0293
  262MOL0     N34503   7.701   9.590   8.106  0.0070 -0.0476 -0.2403
  262MOL0     C34504   8.294   8.851   8.466 -1.1025 -0.2565 -0.5203
  262MOL0     C34505   8.396   8.772   8.526 -0.4200 -0.1156 -0.3489
  262MOL0     C34506   8.558   8.358   8.729  0.2561  0.0371  0.0070
  262MOL0     C34507   8.609   8.223   8.723  0.1867  0.7562 -0.0398
  262MOL0     C34508   8.719   8.181   8.805  0.4183  0.1462 -0.9132
  262MOL0     C34509   8.760   8.263   8.912  0.9841 -1.5465  0.4248
  262MOL0     O34510   8.879   8.246   8.977 -0.3415 -0.1704  0.7500
  262MOL0     C34511   8.957   8.130   8.966  0.2728  1.2632  0.0956
  262MOL0     C34512   9.089   8.146   8.878  0.1054 -0.5209  0.7102
  262MOL0     C34513   9.193   8.241   8.948 -0.2800 -0.9442 -0.6623
  262MOL0     C34514   9.179   8.383   8.893 -0.5550  0.3896  0.7268
  262MOL0     C34515   9.222   8.395   8.758 -1.0305  0.3753  0.2381
  262MOL0     C34516   9.257   8.418   8.646 -0.1995  0.7153  0.0863
  262MOL0     C34517   8.702   8.389   8.919 -0.8531 -1.1840 -0.3194
  262MOL0     C34518   8.615   8.437   8.824 -0.5101  0.0305 -0.0613
  262MOL0     H34519   8.200   8.500   8.603  1.0078  0.1126 -0.8245
  262MOL0     H34520   8.015   8.659   8.521 -0.1547 -0.2323 -3.4798
  262MOL0     H34521   8.013   8.957   8.612 -1.9705  1.5755 -0.0484
  262MOL0     H34522   7.885   8.866   8.534  0.2722  0.1184  3.0123
  262MOL0     H34523   8.016   9.133   8.460 -0.5341 -0.0694 -2.3641
  262MOL0     H34524   7.866   9.132   8.555  0.7935  2.8884 -0.3074
  262MOL0     H34525   7.734   9.079   8.368  0.6408 -1.2073  0.6039
  262MOL0     H34526   7.884   9.038   8.267  0.1411  1.1142 -1.0783
  262MOL0     H34527   7.811   9.322   8.345 -0.1170  0.9023 -1.5636
  262MOL0     H34528   7.965   9.281   8.283  0.2473  1.2182 -3.3434
  262MOL0     H34529   7.850   9.208   8.063  1.5790  2.3330 -1.3825
  262MOL0     H34530   7.845   9.369   8.105 -0.8034 -0.3532  0.5704
  262MOL0     H34531   7.605   9.339   8.195  0.8364 -0.9203  0.9767
  262MOL0     H34532   7.636   9.162   8.178  0.5685  0.1366  0.8844
  262MOL0     H34533   7.652   9.204   7.932  2.0247  2.4543 -3.5846
  262MOL0     H34534   7.493   9.279   7.984  0.1814  1.5904 -2.5830
  262MOL0     H34535   7.585   9.423   7.844  1.1997 -3.4854 -1.7602
  262MOL0     H34536   7.743   9.411   7.908 -1.0678 -0.6036 -2.2434
  262MOL0     H34537   7.419   9.614   7.944  1.4687  1.9997 -1.9937
  262MOL0     H34538   7.454   9.866   8.228 -1.2147 -1.4105  0.7193
  262MOL0     H34539   7.339   9.830   8.090 -0.8492  4.4675 -0.7108
  262MOL0     H34540   7.577   9.920   7.969 -0.8139 -2.6642  1.6538
  262MOL0     H34541   7.590  10.008   8.120  0.2293 -0.8207 -0.0213
  262MOL0     H34542   7.408  10.025   7.891 -3.1966  2.7611 -0.8869
  262MOL0     H34543   7.342  10.098   8.041  0.7504  0.8425  1.2437
  262MOL0     H34544   7.596  10.142   7.878  0.1770 -2.8894  0.8014
  262MOL0     H34545   7.584  10.212   8.034 -2.1303 -0.6581  3.5761
  262MOL0     H34546   7.489  10.148   7.704  0.1464  0.6698  3.7685
  262MOL0     H34547   7.356  10.146   7.481 -1.6804  1.1873 -0.1333
  262MOL0     H34548   7.164  10.612   7.166  2.8519 -4.2399  2.8639
  262MOL0     H34549   7.035  10.612   6.956 -0.5947 -0.6829 -1.4301
  262MOL0     H34550   6.667  10.456   6.804  5.5801 -1.5475 -3.6425
  262MOL0     H34551   6.647  10.437   6.984  0.5360 -0.1590  0.3779
  262MOL0     H34552   6.721  10.228   6.965 -0.6216  4.5166  2.2460
  262MOL0     H34553   6.796  10.242   6.801  0.3226 -0.3695  0.2557
  262MOL0     H34554   6.490  10.286   6.839 -0.0407 -0.1878  0.9663
  262MOL0     H34555   6.558  10.124   6.802  1.2417  0.4347  0.0419
  262MOL0     H34556   6.581  10.356   6.606  0.9864 -1.7376 -2.4455
  262MOL0     H34557   6.663  10.205   6.585  0.1522  0.8300 -2.1654
  262MOL0     H34558   6.446  10.092   6.598  1.0968 -0.0952  0.3276
  262MOL0     H34559   6.472  10.194   6.455 -3.1318  0.4774 -1.3210
  262MOL0     H34560   6.341  10.368   6.578 -1.5497  0.4331 -1.0106
  262MOL0     H34561   6.323  10.258   6.717  1.5440 -0.1586  0.2000
  262MOL0     H34562   6.204  10.086   6.581 -4.2895  0.0267 -0.6234
  262MOL0     H34563   6.111  10.221   6.595 -1.0307 -3.6758 -0.5062
  262MOL0     H34564   6.277  10.176   6.331 -2.1748 -3.4043 -1.7745
  262MOL0     H34565   6.156  10.298   6.361  0.0361 -0.1561 -0.2099
  262MOL0     H34566   6.769  10.325   7.148 -1.7647  2.4407 -3.2016
  262MOL0     H34567   6.912  10.340   7.356 -0.2324 -0.8091 -0.6644
  262MOL0     H34568   7.168  10.505   7.624  2.5375  2.4106 -2.4016
  262MOL0     H34569   7.260  10.484   7.825  0.8288  2.1657 -2.0898
  262MOL0     H34570   8.328   8.941   8.417  1.2726 -0.6853  0.2148
  262MOL0     H34571   8.500   8.801   8.523 -1.0710  2.5211 -0.9816
  262MOL0     H34572   8.570   8.147   8.656  1.3089 -1.9262  2.1463
  262MOL0     H34573   8.769   8.086   8.788  1.3890  0.1277  1.6343
  262MOL0     H34574   8.891   8.048   8.936  0.2763  0.6005  1.7624
  262MOL0     H34575   8.992   8.113   9.068 -1.1216  0.0194  0.4129
  262MOL0     H34576   9.125   8.042   8.878 -0.5514 -0.8083  2.8774
  262MOL0     H34577   9.069   8.181   8.777  2.4411  0.8547  0.6463
  262MOL0     H34578   9.294   8.201   8.932  0.6422  1.0331 -0.0257
  262MOL0     H34579   9.182   8.240   9.056 -0.7130 -1.7198 -0.7071
  262MOL0     H34580   9.073   8.411   8.893 -0.8015 -0.2195  3.6125
  262MOL0     H34581   9.244   8.448   8.952  1.6797 -2.6149  1.7972
  262MOL0     H34582   9.307   8.455   8.559 -1.6477 -1.4813 -1.7646
  262MOL0     H34583   8.747   8.456   8.993 -1.2098 -0.3438 -0.8477
  262MOL0     H34584   8.611   8.543   8.799  2.2863  0.4302  0.8620
  263MOL0     O34585   9.704   9.263   3.090 -0.2915 -0.6421 -0.3215
  263MOL0     C34586   9.610   9.331   3.127 -0.3122 -0.7177  0.2474
  263MOL0     O34587   9.503   9.292   3.206  0.1318  0.7611  0.1747
  263MOL0     C34588   9.498   9.148   3.215 -0.4777 -0.0087 -0.7020
  263MOL0     C34589   9.561   9.081   3.320 -0.1910 -0.0553 -0.3936
  263MOL0     C34590   9.534   8.947   3.355 -0.8468 -0.7463  0.1767
  263MOL0     C34591   9.451   8.876   3.261 -0.3047 -0.4521 -0.6244
  263MOL0     O34592   9.414   8.744   3.274  0.5691  0.5335  0.0563
  263MOL0     C34593   9.521   8.656   3.270  0.2730 -0.2626  0.2756
  263MOL0     C34594   9.520   8.579   3.134  0.0551 -0.3217 -0.6549
  263MOL0     C34595   9.622   8.463   3.145  0.8276  0.7038 -0.8518
  263MOL0     C34596   9.627   8.391   3.010  0.1268  0.8527 -0.8284
  263MOL0     C34597   9.750   8.311   3.008 -0.3683 -1.0544  0.6135
  263MOL0     C34598   9.875   8.397   2.971 -0.3764  0.1394 -1.0997
  263MOL0     C34599  10.007   8.316   2.981 -0.2152 -1.0421 -0.4009
  263MOL0     C34600  10.129   8.384   2.921  0.1188 -0.4469  1.0515
  263MOL0     N34601  10.112   8.427   2.782  0.0852 -0.8069  0.6217
  263MOL0     C34602  10.078   8.557   2.743 -0.7830  0.5920  0.4721
  263MOL0     C34603  10.069   8.546   2.606  0.4701 -0.5381 -0.2865
  263MOL0     C34604  10.009   8.638   2.503  0.3791  0.1204 -0.1304
  263MOL0     C34605  10.062   8.618   2.372  0.1946 -0.3277 -0.0934
  263MOL0     C34606   9.999   8.709   2.269 -0.3088 -0.3605  0.7832
  263MOL0     C34607   9.847   8.693   2.224 -0.5603  0.5298  0.4576
  263MOL0     O34608   9.805   8.809   2.145  0.2233 -0.7955  0.4205
  263MOL0     C34609   9.671   8.818   2.130 -0.0183 -0.9552  1.1211
  263MOL0     C34610   9.630   8.918   2.041 -0.5274  0.0659  0.2376
  263MOL0     C34611   9.499   8.941   2.007  0.5388  0.0709 -0.0548
  263MOL0     C34612   9.401   8.849   2.055  0.1163 -0.0065  0.2854
  263MOL0     C34613   9.265   8.883   2.031  0.0649  0.1258  0.3215
  263MOL0     O34614   9.188   8.779   1.995  1.0403 -0.4255  0.6307
  263MOL0     C34615   9.048   8.799   1.986  0.2815  0.1287 -0.3446
  263MOL0     C34616   8.977   8.881   2.076 -0.0194 -0.9975 -0.0469
  263MOL0     C34617   8.841   8.903   2.061 -0.5326 -0.6109  0.4271
  263MOL0     C34618   8.770   8.834   1.956  0.5833  0.3322  0.8626
  263MOL0     O34619   8.631   8.847   1.939  0.9827  0.2225  0.1912
  263MOL0     C34620   8.551   8.950   1.996  0.2114  0.6297 -0.5667
  263MOL0     C34621   8.406   8.929   1.955  0.2587 -0.1389  0.2050
  263MOL0     C34622   8.364   8.987   1.819  0.0567  0.2770  0.3379
  263MOL0     C34623   8.216   8.985   1.810 -0.6732  0.9072 -0.3174
  263MOL0     C34624   8.165   9.004   1.665  0.2230 -0.1635 -0.0726
  263MOL0     C34625   8.212   9.141   1.608  0.6177 -0.4514 -0.2773
  263MOL0     C34626   8.146   9.257   1.686  0.4406  0.2230  0.3213
  263MOL0     C34627   8.009   9.285   1.626 -0.4906  0.5700  0.1510
  263MOL0    Cl34628   7.913   9.409   1.723  0.0405  0.3673 -0.3966
  263MOL0     C34629   8.837   8.746   1.874  0.2629 -0.6558 -0.4313
  263MOL0     C34630   8.978   8.740   1.880  1.1521  0.4706 -0.6636
  263MOL0     O34631   9.233   9.002   2.037  0.8324 -1.0936  0.8047
  263MOL0     C34632   9.431   8.757   2.161 -0.4723  0.1672  0.1096
  263MOL0     C34633   9.576   8.737   2.185  0.9628 -0.7961  0.2645
  263MOL0     N34634  10.120   8.420   2.573  0.2274 -0.8998 -0.6025
  263MOL0     N34635  10.131   8.349   2.676 -0.6592 -0.3756 -0.0561
  263MOL0     C34636   9.405   8.942   3.149 -0.1581 -0.3106 -0.0140
  263MOL0     C34637   9.415   9.078   3.135  0.9636 -0.3057 -0.8910
  263MOL0     C34638   9.614   9.482   3.102  0.2751 -0.4325  1.1098
  263MOL0     C34639   9.539   9.563   3.187 -0.3345  0.0620  0.9128
  263MOL0     C34640   9.530   9.702   3.161 -0.2955 -0.7551 -0.7393
  263MOL0     C34641   9.589   9.760   3.053 -0.2605  0.2140 -0.1660
  263MOL0     O34642   9.585   9.896   3.047  1.3744 -0.7474  0.5284
  263MOL0     C34643   9.628   9.974   2.928 -0.5684  0.6512  0.0384
  263MOL0     C34644   9.609  10.124   2.962  0.6986 -0.4930  0.1515
  263MOL0     C34645   9.678  10.228   2.864 -0.5428 -0.2826 -0.6187
  263MOL0     C34646   9.634  10.249   2.715  0.4317  0.5138 -0.0752
  263MOL0     C34647   9.650  10.130   2.636  0.3937  0.8914  1.3734
  263MOL0     C34648   9.675  10.035   2.565  0.7705  0.0335 -0.2396
  263MOL0     C34649   9.658   9.679   2.966 -0.7191 -0.5740 -0.2193
  263MOL0     C34650   9.670   9.538   2.988  0.0684  0.3937 -0.0001
  263MOL0     H34651   9.629   9.136   3.384  1.8613 -2.4131 -0.3928
  263MOL0     H34652   9.571   8.902   3.447 -0.2007  0.5351  0.5613
  263MOL0     H34653   9.530   8.588   3.356  2.7712 -0.7522 -0.3091
  263MOL0     H34654   9.617   8.709   3.275 -0.4055  0.9057  2.8338
  263MOL0     H34655   9.546   8.654   3.058  1.1001  0.9451  0.8635
  263MOL0     H34656   9.426   8.527   3.113  0.2597 -0.8062 -0.3849
  263MOL0     H34657   9.607   8.390   3.224  3.5548  0.3655 -0.5442
  263MOL0     H34658   9.715   8.508   3.181  0.2614  1.1211  0.1302
  263MOL0     H34659   9.531   8.340   3.019  0.6718 -0.0226  0.2050
  263MOL0     H34660   9.624   8.455   2.921 -0.9303 -0.6240 -1.8961
  263MOL0     H34661   9.756   8.239   2.927  0.7951 -2.2756  1.7331
  263MOL0     H34662   9.772   8.256   3.101 -1.0779 -3.4156 -0.5410
  263MOL0     H34663   9.873   8.480   3.042 -0.6712 -0.2656 -0.6237
  263MOL0     H34664   9.870   8.435   2.869  0.2542 -2.0067 -1.9906
  263MOL0     H34665  10.030   8.292   3.086  0.3717 -2.6198 -0.8659
  263MOL0     H34666   9.998   8.224   2.924 -0.8518 -1.4197  0.2854
  263MOL0     H34667  10.227   8.335   2.927 -0.2994 -1.1660  2.4576
  263MOL0     H34668  10.141   8.478   2.975  3.0274 -0.8062  1.2146
  263MOL0     H34669  10.066   8.642   2.810 -0.3530 -0.3241  1.7463
  263MOL0     H34670  10.018   8.743   2.531 -2.7056  0.2787  0.6204
  263MOL0     H34671   9.905   8.606   2.498 -0.4942  2.3458  1.9365
  263MOL0     H34672  10.036   8.513   2.353  0.1602 -0.2372 -0.5510
  263MOL0     H34673  10.171   8.620   2.370  0.5644 -5.3744  0.1274
  263MOL0     H34674  10.017   8.812   2.300 -0.8765 -0.2408  0.7183
  263MOL0     H34675  10.067   8.691   2.185  0.6982  0.0885  1.4863
  263MOL0     H34676   9.792   8.672   2.315 -2.4534 -0.6649 -0.8962
  263MOL0     H34677   9.825   8.612   2.153  0.0204  0.1751  0.6724
  263MOL0     H34678   9.714   8.985   2.024  0.1025 -1.2306 -2.2013
  263MOL0     H34679   9.467   9.028   1.950 -0.8554  0.8069  1.7321
  263MOL0     H34680   9.021   8.936   2.159  1.5896  2.2345 -2.7908
  263MOL0     H34681   8.786   8.974   2.121 -0.4887 -0.5937  0.4468
  263MOL0     H34682   8.588   9.051   1.975  0.2213  0.6637 -0.3898
  263MOL0     H34683   8.550   8.949   2.106 -1.5592 -0.5925 -0.5600
  263MOL0     H34684   8.343   8.978   2.030 -2.6544 -0.1810 -2.0253
  263MOL0     H34685   8.376   8.825   1.967 -1.0919  0.3968  1.8616
  263MOL0     H34686   8.415   8.940   1.735  2.7958  1.5706  1.1661
  263MOL0     H34687   8.395   9.091   1.833 -2.2068  0.7949  2.0709
  263MOL0     H34688   8.163   8.891   1.830 -0.0849  0.4326 -0.9529
  263MOL0     H34689   8.183   9.055   1.887  1.0509  3.2244 -1.5754
  263MOL0     H34690   8.057   8.989   1.668  0.2180 -0.2756 -0.6738
  263MOL0     H34691   8.211   8.915   1.620 -1.3715 -0.8509 -0.3982
  263MOL0     H34692   8.189   9.152   1.502 -1.0242  0.3903  0.1334
  263MOL0     H34693   8.321   9.151   1.613  0.5180  0.0292  1.5298
  263MOL0     H34694   8.136   9.230   1.792  1.7383  2.4193  1.0843
  263MOL0     H34695   8.198   9.353   1.679  0.9643  0.0029  1.0600
  263MOL0     H34696   7.956   9.190   1.633  1.2212 -0.2963  2.8949
  263MOL0     H34697   8.012   9.318   1.521 -0.5664 -1.7233 -0.6258
  263MOL0     H34698   8.791   8.680   1.801  1.7609  0.3885 -2.4010
  263MOL0     H34699   9.031   8.674   1.812 -0.5761 -1.1965 -0.4671
  263MOL0     H34700   9.355   8.691   2.202  1.3907 -1.4933  1.1251
  263MOL0     H34701   9.591   8.660   2.259 -0.5856 -0.3897  1.0538
  263MOL0     H34702   9.356   8.870   3.084  1.4319 -1.8045  0.3455
  263MOL0     H34703   9.364   9.147   3.068  0.4301  2.9771  2.5442
  263MOL0     H34704   9.489   9.517   3.272 -0.2129 -1.8976 -0.0152
  263MOL0     H34705   9.475   9.770   3.226  0.6790  1.0432 -1.7030
  263MOL0     H34706   9.588   9.955   2.829  1.3255  0.1410 -0.6736
  263MOL0     H34707   9.735   9.955   2.911 -0.2905  1.6141  0.5868
  263MOL0     H34708   9.502  10.144   2.952  0.4009 -1.1274  1.8203
  263MOL0     H34709   9.638  10.153   3.063  0.3648  3.1830 -0.6723
  263MOL0     H34710   9.785  10.209   2.857 -0.4881 -2.1574  2.9740
  263MOL0     H34711   9.665  10.326   2.910 -1.2009 -0.2643 -0.8347
  263MOL0     H34712   9.527  10.273   2.719 -1.0351 -4.6473 -0.4890
  263MOL0     H34713   9.689  10.329   2.665  1.7624 -0.9089 -0.9950
  263MOL0     H34714   9.693   9.947   2.507  1.1337  0.4605 -0.7786
  263MOL0     H34715   9.708   9.721   2.879  1.0917 -0.6772  0.7213
  263MOL0     H34716   9.726   9.476   2.918  1.9580  0.7306  1.1448
  264MOL0     O34717   4.052   1.827   9.328  0.2122  0.1815  0.1148
  264MOL0     C34718   4.118   1.918   9.280 -0.3813  0.0501  0.0216
  264MOL0     O34719   4.073   2.047   9.255 -0.2009  0.6712 -0.2683
  264MOL0     C34720   3.958   2.083   9.322  0.4912 -0.1455  0.2527
  264MOL0     C34721   3.830   2.105   9.257 -0.5481 -0.1006  0.1774
  264MOL0     C34722   3.725   2.172   9.320  0.4814  0.4710 -0.2258
  264MOL0     C34723   3.736   2.222   9.452  0.5174  0.9922  0.6834
  264MOL0     O34724   3.621   2.266   9.503  0.3202 -0.7647  0.2495
  264MOL0     C34725   3.538   2.180   9.576  1.3649 -0.4290  0.0533
  264MOL0     C34726   3.422   2.125   9.497  0.3436 -0.1788 -0.3198
  264MOL0     C34727   3.296   2.211   9.474 -0.2145 -0.4008  0.1750
  264MOL0     C34728   3.203   2.132   9.375  0.0314 -0.6265  0.2075
  264MOL0     C34729   3.098   2.228   9.322  0.5726 -0.1564  0.6590
  264MOL0     C34730   3.018   2.150   9.203  0.1964  0.0994 -0.0480
  264MOL0     C34731   3.088   2.136   9.065  0.0353  0.0945  0.0778
  264MOL0     C34732   3.047   2.002   9.001 -0.2805  1.1210  1.1457
  264MOL0     N34733   2.912   2.003   8.946 -0.4190  0.6575 -0.2950
  264MOL0     C34734   2.799   1.949   9.010  0.1899 -0.6177  1.0086
  264MOL0     C34735   2.705   1.978   8.914  0.2095  0.0714 -0.7567
  264MOL0     C34736   2.565   1.918   8.920  0.4229  0.4564  0.6690
  264MOL0     C34737   2.451   2.004   8.987 -0.0928 -0.5865  0.2061
  264MOL0     C34738   2.303   1.956   8.971 -0.3452  0.5880 -0.3418
  264MOL0     C34739   2.230   2.025   8.857 -0.7058 -0.5545 -0.3196
  264MOL0     O34740   2.096   1.967   8.863 -0.2205  0.4356 -0.0621
  264MOL0     C34741   1.991   2.051   8.826 -0.5173  0.8773 -0.0096
  264MOL0     C34742   2.002   2.186   8.862  0.6525 -0.1744 -1.0295
  264MOL0     C34743   1.916   2.275   8.805 -0.7247 -0.1596 -1.2804
  264MOL0     C34744   1.814   2.245   8.708 -0.6676 -0.2301  0.0249
  264MOL0     C34745   1.727   2.355   8.655  0.7823 -0.2689 -1.6092
  264MOL0     O34746   1.737   2.480   8.723  0.2229  0.6962 -0.0688
  264MOL0     C34747   1.669   2.579   8.647 -0.4720  1.1380 -0.2696
  264MOL0     C34748   1.527   2.601   8.643 -0.5474  0.4662  0.0937
  264MOL0     C34749   1.472   2.714   8.572  1.0062  0.3082  0.7016
  264MOL0     C34750   1.561   2.797   8.497 -0.0456  0.1780  0.4068
  264MOL0     O34751   1.503   2.912   8.462 -0.3844 -0.7191  0.8300
  264MOL0     C34752   1.563   2.994   8.369  0.1909  0.3956 -0.6939
  264MOL0     C34753   1.479   3.112   8.362 -0.0919 -0.8032  0.1058
  264MOL0     C34754   1.502   3.184   8.228 -0.1949  0.4004 -0.0711
  264MOL0     C34755   1.637   3.263   8.232  0.6441  0.0991 -0.3430
  264MOL0     C34756   1.663   3.342   8.097  0.2231  0.0756 -0.1359
  264MOL0     C34757   1.573   3.460   8.083  0.9666  0.1702 -0.1921
  264MOL0     C34758   1.628   3.550   7.972 -0.4036 -0.9913 -0.1089
  264MOL0     C34759   1.521   3.663   7.933 -0.5080 -0.0512  0.6463
  264MOL0    Cl34760   1.501   3.766   8.079 -0.0372  0.4077 -0.1421
  264MOL0     C34761   1.693   2.751   8.477  0.2525  0.7426 -0.1238
  264MOL0     C34762   1.752   2.660   8.567  0.8117  0.0490  0.4608
  264MOL0     O34763   1.651   2.327   8.558 -0.1716 -0.5713 -0.1956
  264MOL0     C34764   1.798   2.110   8.678 -0.2414  0.9023  0.5563
  264MOL0     C34765   1.890   2.018   8.732  1.1157  0.1111  0.3168
  264MOL0     N34766   2.754   2.058   8.810  0.2702  0.5727 -0.5673
  264MOL0     N34767   2.883   2.067   8.820 -0.5375  0.4239 -0.2224
  264MOL0     C34768   3.860   2.208   9.515 -0.0108  0.7322  0.6361
  264MOL0     C34769   3.966   2.140   9.448 -0.1881  0.8760  0.2846
  264MOL0     C34770   4.254   1.893   9.237  0.0372  0.5256  0.8657
  264MOL0     C34771   4.315   1.765   9.213  0.6293 -0.4207  0.8643
  264MOL0     C34772   4.445   1.750   9.159  0.7997  0.8784 -0.0997
  264MOL0     C34773   4.528   1.865   9.136 -0.0689  0.1654  0.5604
  264MOL0     O34774   4.652   1.856   9.072  0.0198  0.6872  0.5913
  264MOL0     C34775   4.645   1.830   8.934  0.0320  1.0213 -0.3345
  264MOL0     C34776   4.741   1.715   8.885 -0.0086  0.4393 -0.5969
  264MOL0     C34777   4.720   1.576   8.965 -0.8971  0.1835  0.2935
  264MOL0     C34778   4.798   1.464   8.891 -0.3952  0.9525 -0.1586
  264MOL0     C34779   4.785   1.339   8.975  0.4370  0.3098 -0.2849
  264MOL0     C34780   4.738   1.248   9.046 -0.9171 -0.5842  0.0977
  264MOL0     C34781   4.465   1.990   9.158  1.2808 -0.7742  0.0284
  264MOL0     C34782   4.338   2.006   9.215  0.2935 -0.0129  0.2553
  264MOL0     H34783   3.819   2.073   9.153 -1.6623 -0.8203  0.4982
  264MOL0     H34784   3.624   2.173   9.281  0.2215 -4.1907 -0.1841
  264MOL0     H34785   3.492   2.232   9.660  0.6198  0.8299 -1.0946
  264MOL0     H34786   3.602   2.104   9.623  2.2524  1.2464  1.6722
  264MOL0     H34787   3.394   2.035   9.552 -0.9009  1.0740  1.1805
  264MOL0     H34788   3.462   2.100   9.398  0.7251 -1.6825  0.1879
  264MOL0     H34789   3.323   2.305   9.425 -0.7596 -0.5477 -0.4189
  264MOL0     H34790   3.243   2.224   9.569 -1.3425 -2.7213 -0.0668
  264MOL0     H34791   3.264   2.097   9.291 -0.9027 -2.8610  0.3577
  264MOL0     H34792   3.156   2.046   9.424 -0.3660 -2.9029 -3.7389
  264MOL0     H34793   3.149   2.315   9.281  2.3444 -0.2070  2.5517
  264MOL0     H34794   3.031   2.258   9.403 -0.2722 -1.7659  0.6037
  264MOL0     H34795   2.925   2.207   9.189  2.4830  4.2159 -0.2820
  264MOL0     H34796   3.005   2.053   9.250  1.0650  0.5184  1.1083
  264MOL0     H34797   3.053   2.216   8.999  0.7276  1.5569  1.4254
  264MOL0     H34798   3.195   2.148   9.084  0.4856 -1.6038 -1.1078
  264MOL0     H34799   3.064   1.918   9.070  1.6616 -0.7010 -1.3256
  264MOL0     H34800   3.116   1.966   8.924 -1.0248 -3.4444  2.2836
  264MOL0     H34801   2.791   1.881   9.094 -2.3608 -0.4115  1.0041
  264MOL0     H34802   2.572   1.813   8.951 -2.5071 -0.7035 -2.0527
  264MOL0     H34803   2.543   1.907   8.813 -0.6180 -1.5913  1.0430
  264MOL0     H34804   2.468   2.106   8.952 -1.8560 -1.2864 -3.0890
  264MOL0     H34805   2.471   1.986   9.094 -2.0717 -3.1968  0.2461
  264MOL0     H34806   2.307   1.849   8.952  2.0358  0.3467  1.0782
  264MOL0     H34807   2.247   1.965   9.064 -3.0148  2.6412 -1.9830
  264MOL0     H34808   2.294   1.999   8.773 -0.1773  1.2696 -0.5370
  264MOL0     H34809   2.236   2.134   8.846  0.9845 -0.7196 -1.4990
  264MOL0     H34810   2.073   2.221   8.936  0.4319 -0.4669 -0.6756
  264MOL0     H34811   1.958   2.372   8.829  0.0869 -1.3633  3.1456
  264MOL0     H34812   1.459   2.552   8.712  1.0790  0.4848  1.7891
  264MOL0     H34813   1.372   2.753   8.591  0.6670  1.1969 -2.3610
  264MOL0     H34814   1.582   2.946   8.272 -0.0659 -1.8871  0.3084
  264MOL0     H34815   1.650   3.036   8.419 -1.3255  0.7873  1.7663
  264MOL0     H34816   1.495   3.184   8.443  2.5985 -0.2777 -0.8027
  264MOL0     H34817   1.376   3.077   8.348 -0.0436  0.0340 -3.2354
  264MOL0     H34818   1.426   3.263   8.217  0.0099  0.5515 -0.4086
  264MOL0     H34819   1.498   3.104   8.154 -0.2428 -0.6069  1.0028
  264MOL0     H34820   1.646   3.322   8.324 -0.8113 -0.0549 -0.0785
  264MOL0     H34821   1.721   3.194   8.239  1.2350  0.9381  1.4103
  264MOL0     H34822   1.651   3.269   8.017 -0.6730  2.7354 -2.6221
  264MOL0     H34823   1.764   3.382   8.099 -0.0289  0.7227  0.0358
  264MOL0     H34824   1.557   3.518   8.175  3.5621  0.8034 -0.0692
  264MOL0     H34825   1.477   3.415   8.056 -0.2504  1.6426  1.4448
  264MOL0     H34826   1.716   3.604   8.007 -2.2216  0.9925  1.6771
  264MOL0     H34827   1.652   3.479   7.892 -1.5627 -1.5077 -0.0172
  264MOL0     H34828   1.423   3.624   7.902  0.1828  0.4876 -2.6022
  264MOL0     H34829   1.557   3.729   7.854 -2.8111 -0.6189 -1.0008
  264MOL0     H34830   1.752   2.808   8.406 -1.2742  1.2489 -1.0348
  264MOL0     H34831   1.856   2.634   8.548  0.3011  0.0856 -2.9676
  264MOL0     H34832   1.713   2.073   8.622  0.6588  2.0672 -1.6995
  264MOL0     H34833   1.883   1.914   8.704  0.3322  0.5950 -1.4120
  264MOL0     H34834   3.875   2.238   9.618  1.8661  1.3983  0.2024
  264MOL0     H34835   4.064   2.141   9.495 -0.8724  3.0215  1.8175
  264MOL0     H34836   4.249   1.678   9.214  0.2967 -0.2134 -0.4625
  264MOL0     H34837   4.488   1.660   9.116 -0.0776  1.4979 -2.4105
  264MOL0     H34838   4.685   1.921   8.888  1.0427  1.0611  0.6024
  264MOL0     H34839   4.539   1.814   8.912 -0.8353 -2.5989  4.6945
  264MOL0     H34840   4.725   1.703   8.777  3.3412 -3.2542 -0.9118
  264MOL0     H34841   4.843   1.749   8.904  0.2586 -1.4277  1.8675
  264MOL0     H34842   4.614   1.549   8.966 -0.7734 -0.3804 -0.6180
  264MOL0     H34843   4.760   1.578   9.067  3.8579 -1.0933 -1.3188
  264MOL0     H34844   4.766   1.435   8.791  0.7603 -0.3462 -0.1825
  264MOL0     H34845   4.908   1.466   8.897 -0.3108 -1.9111  0.2839
  264MOL0     H34846   4.705   1.168   9.107 -1.2997  1.5301  2.8551
  264MOL0     H34847   4.520   2.073   9.116 -0.1924  0.0051 -0.4356
  264MOL0     H34848   4.308   2.109   9.234  0.0358  0.2109 -1.2456
  265MOL0     O34849   3.247   3.350   4.309 -0.1348 -1.0080 -0.6426
  265MOL0     C34850   3.209   3.392   4.415 -0.6168 -1.0374 -0.0105
  265MOL0     O34851   3.078   3.390   4.457 -0.3592 -0.5010  0.1672
  265MOL0     C34852   2.984   3.394   4.354 -0.0666 -0.0648 -0.2821
  265MOL0     C34853   2.958   3.270   4.285  0.6646 -0.0527 -0.6667
  265MOL0     C34854   2.858   3.259   4.196  0.2398  0.9414  0.4432
  265MOL0     C34855   2.784   3.364   4.162  0.7520 -0.6326  0.1998
  265MOL0     O34856   2.687   3.357   4.059  0.2367 -0.2083  0.0853
  265MOL0     C34857   2.735   3.368   3.924  0.7544  0.4439 -0.0802
  265MOL0     C34858   2.798   3.494   3.879 -0.4324 -0.0745 -0.0051
  265MOL0     C34859   2.691   3.601   3.884  0.0420  0.1083  0.0057
  265MOL0     C34860   2.737   3.735   3.817 -1.0660  0.3865  1.3502
  265MOL0     C34861   2.634   3.844   3.800  0.5805 -1.0707 -1.1231
  265MOL0     C34862   2.516   3.796   3.720 -0.3676  0.2363 -0.0515
  265MOL0     C34863   2.386   3.780   3.797 -0.3507  0.0112 -0.0722
  265MOL0     C34864   2.288   3.905   3.790  0.1564 -0.8006 -0.6472
  265MOL0     N34865   2.181   3.875   3.884  0.1275 -0.0481 -0.0942
  265MOL0     C34866   2.107   3.962   3.957 -0.5647  0.2623 -0.5813
  265MOL0     C34867   2.015   3.897   4.029  0.1306 -0.4314 -0.3512
  265MOL0     C34868   1.902   3.945   4.125  0.9376 -0.0403 -0.0145
  265MOL0     C34869   1.760   3.905   4.073 -0.1818 -0.2837  0.3798
  265MOL0     C34870   1.652   3.951   4.180 -0.1555 -0.4739 -0.4378
  265MOL0     C34871   1.517   3.997   4.112  0.6447 -0.2225  0.3211
  265MOL0     O34872   1.448   4.066   4.214 -0.5566 -0.0838  0.1054
  265MOL0     C34873   1.368   4.176   4.173  0.7974 -0.1388 -0.6051
  265MOL0     C34874   1.312   4.183   4.051 -0.1277  0.3786 -0.1051
  265MOL0     C34875   1.223   4.283   4.014 -0.4529 -0.2824  0.3461
  265MOL0     C34876   1.196   4.391   4.101  0.8652 -0.1418 -0.5489
  265MOL0     C34877   1.100   4.492   4.049 -0.8297 -1.0415  0.2227
  265MOL0     O34878   1.083   4.618   4.118  0.4725 -0.6462  0.2463
  265MOL0     C34879   0.960   4.677   4.075  0.2797  0.0500 -0.3183
  265MOL0     C34880   0.840   4.632   4.134 -0.2168 -0.1102  0.4058
  265MOL0     C34881   0.713   4.676   4.085 -0.3249  0.3190  0.2478
  265MOL0     C34882   0.712   4.761   3.973  0.2339 -1.0114 -0.4133
  265MOL0     O34883   0.583   4.792   3.924 -0.4372 -0.2320  0.1406
  265MOL0     C34884   0.583   4.850   3.791  0.4291  0.2089  0.5307
  265MOL0     C34885   0.590   5.003   3.781 -0.5618 -0.2129  0.0793
  265MOL0     C34886   0.577   5.062   3.645 -0.4192  0.5592 -0.1578
  265MOL0     C34887   0.694   5.019   3.560 -0.6440  0.2731  0.0377
  265MOL0     C34888   0.689   5.098   3.428 -0.1989  0.5957  0.5593
  265MOL0     C34889   0.664   5.255   3.440  0.0586 -0.5246 -0.2046
  265MOL0     C34890   0.711   5.310   3.302 -0.1981 -1.5353 -0.0618
  265MOL0     C34891   0.706   5.469   3.293 -0.4361  0.3191 -0.9183
  265MOL0    Cl34892   0.535   5.539   3.325  0.0491  0.2445  0.1231
  265MOL0     C34893   0.831   4.810   3.916  0.0504  0.0415  0.0942
  265MOL0     C34894   0.954   4.770   3.973 -0.7565  0.1703  0.3746
  265MOL0     O34895   1.029   4.455   3.952  0.4354  0.1809  0.0597
  265MOL0     C34896   1.249   4.390   4.225  0.4537 -0.2253 -1.2881
  265MOL0     C34897   1.333   4.286   4.258  0.4964 -0.1913  0.4749
  265MOL0     N34898   2.007   3.771   3.977  0.0777  0.0383  0.0693
  265MOL0     N34899   2.108   3.766   3.888 -0.8192 -0.1863 -0.6532
  265MOL0     C34900   2.801   3.488   4.239  0.3759 -0.2574 -0.0407
  265MOL0     C34901   2.891   3.503   4.340  0.1879 -0.1027  0.1493
  265MOL0     C34902   3.304   3.440   4.522 -0.5323  0.2523 -0.4618
  265MOL0     C34903   3.270   3.493   4.652  0.2601  0.0403  0.4179
  265MOL0     C34904   3.358   3.550   4.733  0.4549  0.0547 -0.2108
  265MOL0     C34905   3.489   3.560   4.698  0.7060 -0.5078 -0.2152
  265MOL0     O34906   3.576   3.615   4.783 -0.2721 -0.4268 -0.6702
  265MOL0     C34907   3.639   3.740   4.748  0.7283 -0.0474 -0.0805
  265MOL0     C34908   3.792   3.730   4.719  1.5412  0.3013  1.1223
  265MOL0     C34909   3.879   3.671   4.828 -0.1588  0.3950  0.8849
  265MOL0     C34910   3.896   3.772   4.949 -0.2483 -0.8283 -0.4360
  265MOL0     C34911   3.999   3.750   5.044 -0.6645  0.2181  0.1193
  265MOL0     C34912   4.088   3.724   5.119  0.8729  0.3824  0.3458
  265MOL0     C34913   3.539   3.490   4.584  0.1463 -0.7380  0.6470
  265MOL0     C34914   3.443   3.432   4.489 -0.1091 -0.1519 -0.3549
  265MOL0     H34915   3.022   3.182   4.289  0.7548 -0.1199 -2.4813
  265MOL0     H34916   2.848   3.160   4.151 -2.7542  0.6628  1.4905
  265MOL0     H34917   2.647   3.346   3.864 -1.0446  2.4239  1.6680
  265MOL0     H34918   2.806   3.290   3.893  1.5636  2.0950 -2.7494
  265MOL0     H34919   2.829   3.484   3.775 -2.7830  3.6740 -1.2915
  265MOL0     H34920   2.882   3.519   3.945 -0.8768 -0.8146  0.8721
  265MOL0     H34921   2.671   3.633   3.986 -1.3368 -1.2742  0.2042
  265MOL0     H34922   2.599   3.559   3.841  0.8026 -1.7350  0.0959
  265MOL0     H34923   2.805   3.790   3.882 -1.8474  1.5735  1.2062
  265MOL0     H34924   2.787   3.712   3.722  0.6881 -1.2432  2.5947
  265MOL0     H34925   2.681   3.938   3.769 -0.8699  1.3637  3.1488
  265MOL0     H34926   2.587   3.866   3.896 -0.6637 -0.8670 -1.7555
  265MOL0     H34927   2.541   3.697   3.681 -3.6674 -0.1988 -1.4128
  265MOL0     H34928   2.510   3.862   3.633  0.4611  1.7831  1.0228
  265MOL0     H34929   2.345   3.690   3.750  1.7890 -0.8234 -0.4796
  265MOL0     H34930   2.403   3.754   3.902  1.3888  2.6982  0.4257
  265MOL0     H34931   2.252   3.922   3.688 -1.2579 -2.1016 -0.4049
  265MOL0     H34932   2.333   3.992   3.838 -1.9686 -0.6831  1.2905
  265MOL0     H34933   2.108   4.069   3.974  0.0396 -0.0035  1.3110
  265MOL0     H34934   1.905   4.054   4.136  1.9074  0.2472 -2.4375
  265MOL0     H34935   1.915   3.904   4.225 -0.0724  1.6283  0.8492
  265MOL0     H34936   1.765   3.800   4.044  4.1123 -0.8178  2.3842
  265MOL0     H34937   1.737   3.956   3.978 -0.4465 -2.8634 -1.0251
  265MOL0     H34938   1.634   3.879   4.261 -1.3237 -0.7458 -0.9132
  265MOL0     H34939   1.704   4.037   4.224  2.1092 -1.0610 -1.8527
  265MOL0     H34940   1.456   3.911   4.079 -1.4303 -0.6058  4.5406
  265MOL0     H34941   1.543   4.052   4.021 -2.9522  2.5085  0.6954
  265MOL0     H34942   1.326   4.103   3.978  0.2113  1.7842 -1.6562
  265MOL0     H34943   1.170   4.273   3.920  0.6915 -0.2247 -0.3198
  265MOL0     H34944   0.848   4.563   4.217 -0.0956 -3.3712 -2.1034
  265MOL0     H34945   0.617   4.652   4.128 -0.9728  1.9141 -0.2408
  265MOL0     H34946   0.489   4.815   3.746 -0.0466 -0.0278  1.6613
  265MOL0     H34947   0.656   4.800   3.729  0.2480 -1.5525  1.6732
  265MOL0     H34948   0.691   5.022   3.819 -0.7890 -2.0588  1.8487
  265MOL0     H34949   0.521   5.048   3.854  0.5188  0.6776  0.5717
  265MOL0     H34950   0.578   5.171   3.655  0.8459  0.5456  0.1523
  265MOL0     H34951   0.484   5.033   3.595 -0.0084  0.1413 -0.7095
  265MOL0     H34952   0.786   5.042   3.615 -0.6081 -1.2705  0.6544
  265MOL0     H34953   0.702   4.911   3.546  0.2312  0.3958 -0.5312
  265MOL0     H34954   0.611   5.062   3.360 -1.0997  2.4595  0.5466
  265MOL0     H34955   0.787   5.086   3.380 -0.6060 -1.4182  0.1312
  265MOL0     H34956   0.727   5.291   3.522  2.0659 -0.4400 -1.7089
  265MOL0     H34957   0.563   5.288   3.463 -0.3321 -0.7731 -1.4714
  265MOL0     H34958   0.813   5.274   3.283  0.6610 -0.4151  2.0357
  265MOL0     H34959   0.646   5.277   3.220  0.4811  2.5551 -2.5283
  265MOL0     H34960   0.748   5.504   3.199  1.7012 -6.4395 -3.0462
  265MOL0     H34961   0.773   5.501   3.373  2.1875 -0.5411 -2.6550
  265MOL0     H34962   0.839   4.884   3.837  0.5363 -0.1484 -0.0374
  265MOL0     H34963   1.049   4.802   3.932 -0.6336  1.1467  1.3890
  265MOL0     H34964   1.226   4.459   4.305  0.9291 -2.4811  0.9431
  265MOL0     H34965   1.374   4.278   4.358 -3.3768 -4.5107  2.0724
  265MOL0     H34966   2.748   3.570   4.192  1.2318 -0.7322 -1.9230
  265MOL0     H34967   2.921   3.593   4.393  0.6040  0.4671 -1.0140
  265MOL0     H34968   3.168   3.507   4.685 -0.2623 -1.1844 -0.6222
  265MOL0     H34969   3.316   3.602   4.819 -0.3921 -2.1559  0.7944
  265MOL0     H34970   3.631   3.807   4.835  0.8351 -0.1731  0.0281
  265MOL0     H34971   3.588   3.798   4.670  1.7109 -0.8539 -1.3465
  265MOL0     H34972   3.806   3.676   4.624  3.2264 -2.4755  2.7919
  265MOL0     H34973   3.829   3.832   4.705  0.4941  0.3592 -2.1592
  265MOL0     H34974   3.978   3.656   4.784 -0.4108  1.6410 -0.1714
  265MOL0     H34975   3.843   3.572   4.856  0.0650  0.1856  0.4381
  265MOL0     H34976   3.908   3.873   4.908 -0.0288 -0.5875  0.2066
  265MOL0     H34977   3.802   3.780   5.003 -0.1676  0.0449 -0.4062
  265MOL0     H34978   4.163   3.689   5.188  0.9949  0.0539  0.0488
  265MOL0     H34979   3.644   3.494   4.555  1.1319  0.3306  3.8411
  265MOL0     H34980   3.478   3.370   4.408  0.7815 -0.5572  0.3218
  266MOL0     O34981   9.079   5.395   7.248 -0.4071  0.0377 -0.3694
  266MOL0     C34982   8.965   5.347   7.263  0.9137 -0.4161  0.2394
  266MOL0     O34983   8.876   5.304   7.163  0.3632  0.1598 -0.4877
  266MOL0     C34984   8.943   5.299   7.033  0.5021 -0.5952  0.2505
  266MOL0     C34985   9.007   5.191   6.991  0.4119 -0.1735  0.3788
  266MOL0     C34986   9.052   5.183   6.865  0.3161 -0.4222  0.3496
  266MOL0     C34987   9.038   5.288   6.772  0.8199 -0.2784  0.2767
  266MOL0     O34988   9.076   5.270   6.646 -0.4395 -0.5771  0.0432
  266MOL0     C34989   9.062   5.375   6.550  0.0925 -0.3968  0.0813
  266MOL0     C34990   9.153   5.337   6.430  0.1141 -0.3312  1.2484
  266MOL0     C34991   9.134   5.192   6.373  0.6694  0.4167 -0.1730
  266MOL0     C34992   9.225   5.157   6.250 -0.9567 -0.8968  0.3040
  266MOL0     C34993   9.207   5.016   6.201  0.4082  1.0893  1.1462
  266MOL0     C34994   9.313   4.982   6.097 -0.3323 -0.4775 -0.1652
  266MOL0     C34995   9.292   4.835   6.043 -0.0291 -0.4703  0.2925
  266MOL0     C34996   9.319   4.718   6.136 -0.3755  0.5745  0.2050
  266MOL0     N34997   9.451   4.727   6.197  0.0556 -1.3950 -0.3809
  266MOL0     C34998   9.557   4.662   6.141 -0.2352 -0.5397 -1.0674
  266MOL0     C34999   9.660   4.696   6.228 -1.0271 -0.0516 -0.2308
  266MOL0     C35000   9.791   4.642   6.202 -0.4410 -0.5534  0.3707
  266MOL0     C35001   9.906   4.746   6.222  0.2975 -0.0125  0.4325
  266MOL0     C35002   9.901   4.862   6.120 -0.7512 -0.7889 -0.2924
  266MOL0     C35003   9.994   4.982   6.143  0.6080 -0.7313  0.6054
  266MOL0     O35004  10.127   4.949   6.099 -0.0117  0.1119 -0.3657
  266MOL0     C35005  10.228   4.931   6.187 -0.2637  0.0505 -0.2533
  266MOL0     C35006  10.350   4.874   6.145  1.8982 -0.0470  0.7246
  266MOL0     C35007  10.458   4.861   6.222  0.6073  0.5130 -0.7047
  266MOL0     C35008  10.447   4.910   6.359  0.1030  0.9066  0.8050
  266MOL0     C35009  10.580   4.903   6.435  0.1463 -0.5115  0.0389
  266MOL0     O35010  10.675   4.844   6.377 -1.2944  0.1648  0.1728
  266MOL0     C35011  10.793   4.815   6.446 -0.1269  0.9659 -0.5601
  266MOL0     C35012  10.812   4.782   6.581 -0.3119  0.4631 -0.1526
  266MOL0     C35013  10.934   4.747   6.639 -0.0251  0.4502 -0.2570
  266MOL0     C35014  11.049   4.745   6.558  0.0613  0.3886 -0.5907
  266MOL0     O35015  11.173   4.723   6.603 -0.3871 -0.4694 -0.4476
  266MOL0     C35016  11.208   4.736   6.742 -0.0859  0.5378  0.1338
  266MOL0     C35017  11.350   4.738   6.769  0.6793  0.0355  0.1882
  266MOL0     C35018  11.421   4.598   6.753  0.0742  0.5256 -0.4317
  266MOL0     C35019  11.456   4.566   6.610 -0.1667 -0.8695 -0.6950
  266MOL0     C35020  11.534   4.432   6.587  0.1843  0.0260 -0.6909
  266MOL0     C35021  11.684   4.432   6.636 -0.0584 -0.1949 -0.3638
  266MOL0     C35022  11.783   4.526   6.552  0.2056  0.0792 -0.3029
  266MOL0     C35023  11.783   4.492   6.401 -0.0098 -1.0686  0.1963
  266MOL0    Cl35024  11.753   4.330   6.345  0.1870  0.2691 -0.1074
  266MOL0     C35025  11.035   4.771   6.421  1.5149  0.0298  0.6158
  266MOL0     C35026  10.900   4.799   6.370  0.2510  0.8908 -0.6668
  266MOL0     O35027  10.588   4.970   6.534  0.5233  1.1348 -0.3026
  266MOL0     C35028  10.326   4.954   6.413 -0.5123  0.4328  1.2283
  266MOL0     C35029  10.213   4.964   6.331 -0.7395 -0.9096  0.3104
  266MOL0     N35030   9.614   4.783   6.323 -0.1282 -0.5985  0.2025
  266MOL0     N35031   9.487   4.799   6.313  0.0187 -0.5497 -0.4975
  266MOL0     C35032   8.976   5.403   6.820 -0.9488  0.5741 -0.9182
  266MOL0     C35033   8.923   5.413   6.947  0.8553  0.5806  0.5822
  266MOL0     C35034   8.911   5.375   7.399 -0.2530 -0.1610 -1.6853
  266MOL0     C35035   8.981   5.437   7.505  0.3276 -1.2751  0.0873
  266MOL0     C35036   8.927   5.441   7.636  0.0776  0.5071 -0.5141
  266MOL0     C35037   8.797   5.400   7.656  1.5869  0.2167 -0.4111
  266MOL0     O35038   8.756   5.410   7.790  0.2595 -0.8816  0.5746
  266MOL0     C35039   8.621   5.395   7.834 -0.3154 -0.9744 -0.2011
  266MOL0     C35040   8.576   5.506   7.923 -0.8283 -0.5769 -1.1598
  266MOL0     C35041   8.435   5.492   7.992 -0.0530  0.3315  0.7597
  266MOL0     C35042   8.401   5.621   8.067  0.3114 -0.2585 -0.1456
  266MOL0     C35043   8.485   5.612   8.187  0.5750  0.1876 -0.2804
  266MOL0     C35044   8.571   5.598   8.273 -0.2630 -0.4494 -0.4622
  266MOL0     C35045   8.724   5.344   7.557  0.6300  0.0177 -0.3119
  266MOL0     C35046   8.781   5.333   7.432  0.2592 -0.2194  0.0392
  266MOL0     H35047   9.029   5.112   7.063 -2.1209 -0.1883  1.2329
  266MOL0     H35048   9.105   5.098   6.823  0.1591  0.5688 -1.9791
  266MOL0     H35049   9.088   5.471   6.596 -1.9098 -1.0480  2.8515
  266MOL0     H35050   8.960   5.391   6.515  0.3268  3.1292  0.6932
  266MOL0     H35051   9.253   5.336   6.475  0.9497 -2.1047 -0.4746
  266MOL0     H35052   9.162   5.416   6.355 -1.5528 -0.4505  0.8784
  266MOL0     H35053   9.035   5.175   6.329  1.6930  0.1536 -2.5466
  266MOL0     H35054   9.149   5.115   6.449  1.9223  0.4187 -0.4009
  266MOL0     H35055   9.193   5.227   6.172 -0.3194  0.9951  1.7005
  266MOL0     H35056   9.327   5.186   6.274 -0.7810  0.8129 -2.1491
  266MOL0     H35057   9.105   5.001   6.164  0.8924  1.1508 -0.2862
  266MOL0     H35058   9.215   4.947   6.286  2.3485  0.8541  0.8179
  266MOL0     H35059   9.414   4.997   6.137 -0.2385  0.6240 -0.7783
  266MOL0     H35060   9.318   5.052   6.013 -0.2462  1.9969  1.7901
  266MOL0     H35061   9.185   4.826   6.025 -0.1284 -0.5580  0.9147
  266MOL0     H35062   9.358   4.834   5.955 -0.3419 -0.1605  0.0500
  266MOL0     H35063   9.311   4.635   6.064 -1.3147 -0.7803  1.7941
  266MOL0     H35064   9.243   4.713   6.214  1.0146  1.4665  1.6738
  266MOL0     H35065   9.556   4.590   6.060  4.2308 -1.8440 -0.2255
  266MOL0     H35066   9.801   4.605   6.100  3.0874  0.4686  0.2090
  266MOL0     H35067   9.817   4.557   6.266  1.5450  1.0052  1.7635
  266MOL0     H35068  10.001   4.695   6.208 -0.1541 -0.9501  0.6900
  266MOL0     H35069   9.912   4.781   6.326 -0.1040 -0.5158  0.6295
  266MOL0     H35070   9.908   4.824   6.018 -1.8270  1.4368 -1.2572
  266MOL0     H35071   9.799   4.900   6.119 -0.4173  0.1200 -0.5467
  266MOL0     H35072   9.980   5.009   6.248 -0.2082 -0.5644  0.4653
  266MOL0     H35073   9.955   5.063   6.081 -1.2238 -2.3693 -0.5278
  266MOL0     H35074  10.347   4.859   6.037  0.0096 -0.0557  0.7575
  266MOL0     H35075  10.548   4.830   6.170  0.8779 -0.9645  0.5673
  266MOL0     H35076  10.735   4.796   6.656  1.1967 -0.5403  1.6523
  266MOL0     H35077  10.951   4.732   6.745  2.1235  4.2100  0.0833
  266MOL0     H35078  11.173   4.646   6.793  2.8731 -0.9123 -0.1656
  266MOL0     H35079  11.170   4.827   6.789  2.8566  1.7422  0.3755
  266MOL0     H35080  11.369   4.780   6.868  1.8513 -0.5637  0.2389
  266MOL0     H35081  11.385   4.808   6.692 -3.5690  0.1295 -1.9738
  266MOL0     H35082  11.373   4.511   6.801  1.6534 -0.1149  0.0362
  266MOL0     H35083  11.518   4.600   6.804  0.0050 -4.9737  0.5782
  266MOL0     H35084  11.366   4.549   6.550  1.0951  1.2144 -3.3364
  266MOL0     H35085  11.512   4.650   6.571 -1.5904  0.2792 -0.3708
  266MOL0     H35086  11.531   4.403   6.482 -1.5780 -1.7345 -0.2230
  266MOL0     H35087  11.489   4.347   6.641  1.4208 -2.2517 -3.0178
  266MOL0     H35088  11.720   4.329   6.641  0.5410  0.0561  3.1565
  266MOL0     H35089  11.694   4.459   6.742  0.4976 -3.2261  0.4583
  266MOL0     H35090  11.758   4.631   6.572 -0.7783 -0.0708 -0.6856
  266MOL0     H35091  11.884   4.506   6.589  0.7470 -0.9084 -2.2022
  266MOL0     H35092  11.881   4.526   6.364 -0.4625  1.1486  0.9190
  266MOL0     H35093  11.706   4.552   6.352  0.4637 -0.9037 -0.3674
  266MOL0     H35094  11.125   4.778   6.360  1.1442  1.8115  0.1942
  266MOL0     H35095  10.889   4.811   6.262 -1.7821 -0.0453 -0.6076
  266MOL0     H35096  10.313   4.976   6.519 -1.4296 -1.0477  1.4623
  266MOL0     H35097  10.127   5.014   6.374  0.5736  3.9990 -2.0570
  266MOL0     H35098   8.947   5.478   6.747  0.0196  0.9403 -0.9411
  266MOL0     H35099   8.863   5.491   6.992 -0.4298 -0.7935  1.3346
  266MOL0     H35100   9.078   5.482   7.489 -0.6116  2.0721  2.6806
  266MOL0     H35101   8.981   5.482   7.720  0.2200 -0.1559 -0.2772
  266MOL0     H35102   8.606   5.305   7.894  1.0679  0.5259  2.5674
  266MOL0     H35103   8.554   5.393   7.747 -0.7033  3.2911 -0.2462
  266MOL0     H35104   8.658   5.510   7.996 -1.0772 -0.0510 -0.9070
  266MOL0     H35105   8.567   5.601   7.871  0.0216  0.1868  0.0307
  266MOL0     H35106   8.435   5.407   8.060  3.8075 -0.4742 -0.0270
  266MOL0     H35107   8.357   5.461   7.921  0.7591  0.1967 -0.0870
  266MOL0     H35108   8.428   5.710   8.009  0.1609 -0.3181 -0.3061
  266MOL0     H35109   8.297   5.642   8.095  0.5033  1.2207 -0.4397
  266MOL0     H35110   8.657   5.588   8.336 -1.1725 -0.0903  0.8688
  266MOL0     H35111   8.628   5.297   7.576  0.6017  1.1343  3.0478
  266MOL0     H35112   8.712   5.302   7.354  0.4712 -0.2593 -0.1305
  267MOL0     O35113   6.965  10.217   6.171 -0.3017 -0.5176 -0.3468
  267MOL0     C35114   6.872  10.153   6.214  0.1539  0.8952  0.1498
  267MOL0     O35115   6.884  10.045   6.298  0.0558 -0.8251 -1.0388
  267MOL0     C35116   7.015  10.000   6.321 -0.1380  0.1953  0.3879
  267MOL0     C35117   7.058   9.964   6.447 -0.5656 -1.1560 -0.2261
  267MOL0     C35118   7.176   9.895   6.473 -0.2723  0.7823 -0.7509
  267MOL0     C35119   7.252   9.846   6.372 -0.4366  0.0674 -0.3049
  267MOL0     O35120   7.377   9.782   6.385  0.6389  0.4549  0.4578
  267MOL0     C35121   7.430   9.756   6.516  0.7698  0.1131  0.6908
  267MOL0     C35122   7.485   9.880   6.578  0.4365 -0.1403 -0.5473
  267MOL0     C35123   7.634   9.899   6.536  0.5279  0.1839  0.2442
  267MOL0     C35124   7.673   9.908   6.391 -0.0436  0.5929  0.3289
  267MOL0     C35125   7.598   9.998   6.299 -0.1618  0.3689 -0.5090
  267MOL0     C35126   7.612  10.146   6.334  0.3407 -0.9195 -0.2667
  267MOL0     C35127   7.580  10.233   6.209 -0.1279 -0.3539  0.2885
  267MOL0     C35128   7.441  10.220   6.142  0.2923  1.1298  0.1528
  267MOL0     N35129   7.350  10.295   6.223 -0.2056 -0.6990  0.6623
  267MOL0     C35130   7.283  10.255   6.335 -0.2055  0.1314 -0.0081
  267MOL0     C35131   7.209  10.359   6.376  1.1698  1.0463  0.0976
  267MOL0     C35132   7.119  10.340   6.497 -0.1915  0.2302 -0.6913
  267MOL0     C35133   7.210  10.312   6.619 -0.5648  0.2594  0.1571
  267MOL0     C35134   7.129  10.258   6.730 -0.3929  0.7715 -0.3759
  267MOL0     C35135   7.212  10.228   6.855 -0.4186  1.0284  0.1927
  267MOL0     O35136   7.278  10.105   6.834 -0.1342 -0.3897 -0.4080
  267MOL0     C35137   7.280  10.021   6.948 -0.0888 -0.4776  0.5128
  267MOL0     C35138   7.320  10.057   7.079 -0.3977 -0.4521  1.2358
  267MOL0     C35139   7.339   9.969   7.190 -0.6430  0.9680 -0.3054
  267MOL0     C35140   7.323   9.829   7.164  0.1878 -0.1792 -0.1958
  267MOL0     C35141   7.375   9.730   7.264 -0.0948 -0.2888 -0.4870
  267MOL0     O35142   7.344   9.598   7.243  0.4008  0.2803 -0.1200
  267MOL0     C35143   7.383   9.482   7.319 -0.5989 -1.1839  0.6074
  267MOL0     C35144   7.311   9.365   7.303  0.3568 -0.3944 -0.3316
  267MOL0     C35145   7.339   9.261   7.396  0.8085  0.2631  0.1518
  267MOL0     C35146   7.439   9.279   7.498  1.2883 -0.0407 -0.4788
  267MOL0     O35147   7.465   9.177   7.583 -0.3899  0.6319  0.2592
  267MOL0     C35148   7.360   9.108   7.649 -0.1140 -0.1230  0.2212
  267MOL0     C35149   7.430   9.041   7.762  0.2874 -0.5701  0.5028
  267MOL0     C35150   7.531   8.931   7.711  0.3394 -0.0894 -0.0415
  267MOL0     C35151   7.671   8.994   7.690 -0.2615 -0.3437 -0.3187
  267MOL0     C35152   7.793   8.911   7.723 -0.0926  0.1525  0.0043
  267MOL0     C35153   7.789   8.773   7.663 -0.7598  0.7393  0.3609
  267MOL0     C35154   7.884   8.679   7.715  0.0951  0.0309 -0.2437
  267MOL0     C35155   7.925   8.554   7.628  0.2304 -0.3769 -0.3059
  267MOL0    Cl35156   8.017   8.609   7.490 -0.1663  0.7099  0.0801
  267MOL0     C35157   7.521   9.386   7.503 -0.0997 -0.4776  0.3092
  267MOL0     C35158   7.496   9.490   7.410  0.3538  0.2856  0.7775
  267MOL0     O35159   7.427   9.777   7.360 -0.0223  0.6238  0.2594
  267MOL0     C35160   7.280   9.789   7.039  0.0217 -0.1112  0.4948
  267MOL0     C35161   7.259   9.878   6.933 -0.7127 -1.1890 -0.4054
  267MOL0     N35162   7.235  10.459   6.286 -0.6228 -0.5354 -0.5576
  267MOL0     N35163   7.316  10.422   6.200  0.1781  0.0787 -0.5929
  267MOL0     C35164   7.220   9.882   6.246  0.5534  0.1351  0.0257
  267MOL0     C35165   7.105   9.963   6.217 -0.8147  0.5513 -0.3912
  267MOL0     C35166   6.731  10.183   6.160  0.0308 -0.1661 -0.3429
  267MOL0     C35167   6.680  10.318   6.148  0.5092  0.4092 -0.2259
  267MOL0     C35168   6.546  10.353   6.120 -0.7191 -0.3688  0.1544
  267MOL0     C35169   6.455  10.248   6.100 -0.7821 -0.2232 -0.0766
  267MOL0     O35170   6.322  10.257   6.069 -0.6950  0.8566  0.5200
  267MOL0     C35171   6.308  10.332   5.950  0.0127 -0.4219  0.1352
  267MOL0     C35172   6.168  10.320   5.901 -0.7008 -0.7115 -0.6128
  267MOL0     C35173   6.146  10.388   5.760  0.7663  0.0328  1.3079
  267MOL0     C35174   5.999  10.372   5.712 -0.3949 -0.2093  0.6880
  267MOL0     C35175   5.902  10.459   5.773 -0.8423  0.6828  0.2464
  267MOL0     C35176   5.814  10.543   5.802  0.9235 -0.6006 -0.1067
  267MOL0     C35177   6.504  10.114   6.116 -0.3795 -0.1199 -0.1402
  267MOL0     C35178   6.639  10.083   6.134  0.0413 -0.5770  0.0731
  267MOL0     H35179   6.997   9.995   6.531 -1.2759  0.1170 -1.1988
  267MOL0     H35180   7.199   9.858   6.572 -3.0740 -0.9954 -0.6766
  267MOL0     H35181   7.507   9.680   6.503  0.6718  0.1475 -0.1332
  267MOL0     H35182   7.360   9.705   6.582  0.7949 -0.8103  0.0225
  267MOL0     H35183   7.473   9.870   6.686  0.6083  2.8912 -0.1334
  267MOL0     H35184   7.436   9.971   6.541  3.5442  1.2491 -1.5681
  267MOL0     H35185   7.694   9.830   6.596  1.9126  1.1487  0.0266
  267MOL0     H35186   7.673   9.989   6.584 -1.9413  0.9574  0.9508
  267MOL0     H35187   7.778   9.938   6.398 -0.0289  0.9192 -0.9348
  267MOL0     H35188   7.671   9.810   6.342  0.3510  0.5104  0.4715
  267MOL0     H35189   7.494   9.967   6.288 -0.4244  0.8049  0.5695
  267MOL0     H35190   7.641   9.987   6.200  0.8179  0.7756 -0.1409
  267MOL0     H35191   7.714  10.169   6.365 -0.3236 -2.0507  3.2969
  267MOL0     H35192   7.556  10.194   6.415 -0.8065  3.2738 -3.2033
  267MOL0     H35193   7.591  10.337   6.242 -4.6900 -0.1765  1.9689
  267MOL0     H35194   7.655  10.228   6.130  0.7179 -0.7997  1.0993
  267MOL0     H35195   7.420  10.113   6.137  2.7765  0.6042 -0.7598
  267MOL0     H35196   7.442  10.260   6.040  1.1068 -0.3179 -0.4352
  267MOL0     H35197   7.291  10.163   6.391 -0.8786  0.2890  0.3553
  267MOL0     H35198   7.043  10.262   6.482  0.8584 -1.9813  3.6869
  267MOL0     H35199   7.073  10.438   6.511 -2.3095 -0.6719 -1.0285
  267MOL0     H35200   7.250  10.404   6.663 -1.9403  0.2919  1.4129
  267MOL0     H35201   7.287  10.237   6.600 -0.1944  1.4860 -3.9315
  267MOL0     H35202   7.053  10.333   6.753 -0.2716  0.9296 -0.4871
  267MOL0     H35203   7.075  10.175   6.684 -1.5882  0.6780  1.1032
  267MOL0     H35204   7.141  10.227   6.937 -1.7316  2.6859 -0.8492
  267MOL0     H35205   7.285  10.308   6.866  0.8192 -0.3065  2.3402
  267MOL0     H35206   7.339  10.163   7.097 -1.4023  0.1629 -1.0529
  267MOL0     H35207   7.396  10.005   7.275  1.0540 -1.4367 -0.3154
  267MOL0     H35208   7.243   9.350   7.220  1.5605 -1.3936 -1.1830
  267MOL0     H35209   7.298   9.168   7.358  0.3498  1.0573 -1.3850
  267MOL0     H35210   7.313   9.035   7.582 -0.6345 -0.1810  0.6450
  267MOL0     H35211   7.285   9.171   7.696  0.9060 -1.6476  4.2617
  267MOL0     H35212   7.356   8.988   7.823 -1.8161 -2.3105 -3.2170
  267MOL0     H35213   7.466   9.119   7.829 -2.3807  0.0998  1.2952
  267MOL0     H35214   7.489   8.877   7.626  0.0765  1.4163 -0.9080
  267MOL0     H35215   7.535   8.872   7.803 -2.9381  1.2419  1.1185
  267MOL0     H35216   7.681   9.033   7.588  0.5106  0.1087 -0.0771
  267MOL0     H35217   7.678   9.080   7.757 -0.5016  2.3291 -3.4494
  267MOL0     H35218   7.798   8.900   7.831 -0.3090 -0.0021 -0.0005
  267MOL0     H35219   7.884   8.963   7.692 -0.5999  0.0937 -1.7078
  267MOL0     H35220   7.823   8.776   7.559  4.5103 -2.0291  1.6473
  267MOL0     H35221   7.688   8.731   7.655 -1.0555  1.6857 -1.4063
  267MOL0     H35222   7.980   8.729   7.730 -0.2523  0.6980 -0.1948
  267MOL0     H35223   7.840   8.642   7.809  0.3478  0.4848  0.0617
  267MOL0     H35224   7.838   8.490   7.609 -0.9807  0.8276  0.9509
  267MOL0     H35225   7.991   8.489   7.686  0.3773 -1.2723 -1.4412
  267MOL0     H35226   7.599   9.384   7.579 -0.5712 -1.4140  0.7887
  267MOL0     H35227   7.558   9.578   7.420  0.1288  0.5219  0.1325
  267MOL0     H35228   7.250   9.691   7.002  0.9692  0.0306 -0.7091
  267MOL0     H35229   7.229   9.838   6.837  1.0396  1.4116 -2.1428
  267MOL0     H35230   7.302   9.872   6.175  1.1765  2.6357  0.2994
  267MOL0     H35231   7.100   9.984   6.111 -1.3386  0.6561 -0.3493
  267MOL0     H35232   6.742  10.403   6.173  2.7357 -0.4023 -2.5144
  267MOL0     H35233   6.510  10.453   6.100 -3.1579 -1.7136 -3.1955
  267MOL0     H35234   6.382  10.296   5.878  0.3925 -1.7781  1.1692
  267MOL0     H35235   6.323  10.437   5.976  0.6687 -0.5138  0.1412
  267MOL0     H35236   6.144  10.214   5.893  2.1735 -1.5749  0.7120
  267MOL0     H35237   6.100  10.371   5.969 -0.6368 -2.0978  0.5379
  267MOL0     H35238   6.208  10.337   5.686 -0.3434 -1.0769  1.0984
  267MOL0     H35239   6.175  10.494   5.763 -1.2186  0.6480  0.6244
  267MOL0     H35240   6.004  10.404   5.607  2.2544 -0.4538  0.6958
  267MOL0     H35241   5.969  10.267   5.704 -3.8600  0.7635 -1.3299
  267MOL0     H35242   5.760  10.630   5.835  3.0936  1.0136 -0.6367
  267MOL0     H35243   6.436  10.029   6.110  0.4435 -1.0083  1.9652
  267MOL0     H35244   6.680   9.982   6.130 -0.0526 -0.5774 -1.1721
  268MOL0     O35245   7.133   2.363   9.074  0.2997 -0.0278  0.0551
  268MOL0     C35246   7.192   2.286   9.005 -0.8725  0.3634  0.9663
  268MOL0     O35247   7.141   2.184   8.927  0.2536 -0.2898 -0.2171
  268MOL0     C35248   7.008   2.150   8.957  0.4731 -0.5339  0.0345
  268MOL0     C35249   6.974   2.096   9.078 -0.3523  0.0914 -0.1080
  268MOL0     C35250   6.842   2.056   9.112 -0.0165  0.8476  0.5554
  268MOL0     C35251   6.739   2.069   9.015 -1.1850  0.2149  0.4424
  268MOL0     O35252   6.610   2.037   9.030  0.5402 -0.3125  0.8328
  268MOL0     C35253   6.566   1.982   9.154 -0.2922  0.5364  0.5027
  268MOL0     C35254   6.422   1.932   9.127  0.3541  0.3931 -0.1329
  268MOL0     C35255   6.341   1.901   9.255  0.0600  0.1448  0.3216
  268MOL0     C35256   6.192   1.911   9.223  0.0969 -0.9802 -0.3100
  268MOL0     C35257   6.126   1.805   9.128 -0.0213  0.2725 -0.6124
  268MOL0     C35258   6.139   1.654   9.184  0.2095  0.3168  0.2549
  268MOL0     C35259   6.099   1.646   9.333 -0.2249  0.4421 -0.5868
  268MOL0     C35260   5.959   1.698   9.356 -0.2691 -0.3635  0.3166
  268MOL0     N35261   5.854   1.615   9.294  0.0811 -0.6146 -0.3029
  268MOL0     C35262   5.795   1.516   9.364  0.4163  0.3849  0.4696
  268MOL0     C35263   5.702   1.474   9.270  0.3794 -0.4416  0.2804
  268MOL0     C35264   5.595   1.358   9.277 -0.1582 -0.2530 -0.0904
  268MOL0     C35265   5.464   1.411   9.344 -0.4119 -0.9450  0.2166
  268MOL0     C35266   5.349   1.321   9.360  0.6129 -1.1079 -1.2756
  268MOL0     C35267   5.406   1.193   9.430  0.1240  1.1294 -0.3925
  268MOL0     O35268   5.485   1.107   9.350 -0.0511 -0.3510 -0.1375
  268MOL0     C35269   5.534   0.992   9.401 -0.5852  0.1186  0.6584
  268MOL0     C35270   5.564   0.971   9.538 -0.3037  0.2180 -0.3661
  268MOL0     C35271   5.637   0.858   9.589  0.6485 -0.2368  0.9584
  268MOL0     C35272   5.677   0.764   9.493 -0.3687  0.1763  0.1928
  268MOL0     C35273   5.731   0.639   9.542 -0.5932 -0.1007  0.3061
  268MOL0     O35274   5.764   0.527   9.463 -0.3191  0.1409  0.3730
  268MOL0     C35275   5.750   0.405   9.521  0.2005  0.8986 -0.9084
  268MOL0     C35276   5.645   0.363   9.606  0.1890 -0.8274  0.3576
  268MOL0     C35277   5.643   0.235   9.648  0.3467  0.2920  0.0897
  268MOL0     C35278   5.737   0.141   9.618  0.1465  0.6388  0.2654
  268MOL0     O35279   5.725   0.018   9.667 -0.1773  0.2078  0.1020
  268MOL0     C35280   5.837  -0.064   9.650 -0.1987 -0.5672  1.4214
  268MOL0     C35281   5.800  -0.207   9.668 -0.5825  0.6160 -0.6138
  268MOL0     C35282   5.917  -0.310   9.684 -0.0468 -0.1739  0.0201
  268MOL0     C35283   5.863  -0.454   9.693 -0.0733 -0.1932  0.4420
  268MOL0     C35284   5.957  -0.571   9.705  0.3153  0.3729 -0.9538
  268MOL0     C35285   5.990  -0.656   9.579  1.0361 -0.8516 -1.0300
  268MOL0     C35286   6.091  -0.579   9.500  0.2468 -0.1063  0.8426
  268MOL0     C35287   6.157  -0.686   9.398  0.9945 -0.0571 -0.5137
  268MOL0    Cl35288   6.266  -0.770   9.501 -0.4356 -0.3435  0.0338
  268MOL0     C35289   5.829   0.176   9.518 -1.0234  0.2169  0.2644
  268MOL0     C35290   5.839   0.309   9.474 -1.0855 -0.8403  0.5998
  268MOL0     O35291   5.774   0.650   9.655 -0.0541 -0.5795 -0.8484
  268MOL0     C35292   5.655   0.779   9.363 -0.1284 -0.0776  0.1045
  268MOL0     C35293   5.588   0.891   9.314  0.7895 -0.1519  0.0805
  268MOL0     N35294   5.723   1.536   9.150 -0.6748  0.0524 -0.1896
  268MOL0     N35295   5.806   1.635   9.168 -0.1015 -0.3156 -0.0631
  268MOL0     C35296   6.776   2.121   8.890 -0.2491 -0.5410  0.0179
  268MOL0     C35297   6.906   2.167   8.865  0.0931  0.2645  1.3180
  268MOL0     C35298   7.335   2.315   8.977 -0.9333  0.3644 -0.3902
  268MOL0     C35299   7.429   2.210   8.977  0.2820  0.8480 -0.0454
  268MOL0     C35300   7.559   2.223   8.955 -0.5313  0.2961  0.3550
  268MOL0     C35301   7.608   2.354   8.940 -0.5694 -0.7007  0.0088
  268MOL0     O35302   7.739   2.391   8.943 -0.4071 -0.5235 -0.0192
  268MOL0     C35303   7.836   2.294   8.966 -0.2751 -0.9550  0.2865
  268MOL0     C35304   7.978   2.358   8.988  0.0359  0.7134 -0.1032
  268MOL0     C35305   8.069   2.251   9.023 -0.3482  0.4708  0.1444
  268MOL0     C35306   8.206   2.299   9.080 -0.0500  0.1824 -0.0262
  268MOL0     C35307   8.280   2.201   9.158  0.2370 -0.0468  0.4058
  268MOL0     C35308   8.316   2.111   9.231 -0.3996  0.7311 -0.3853
  268MOL0     C35309   7.526   2.465   8.934 -0.1309  0.0979 -0.3704
  268MOL0     C35310   7.382   2.445   8.958 -0.8646 -0.1221 -0.1888
  268MOL0     H35311   7.053   2.078   9.152 -0.3996 -0.2911 -0.1464
  268MOL0     H35312   6.824   2.012   9.210 -1.0216  2.1834  0.9922
  268MOL0     H35313   6.565   2.060   9.230  0.4026 -0.4573  1.5543
  268MOL0     H35314   6.625   1.893   9.176  1.8222  1.3980 -1.3313
  268MOL0     H35315   6.433   1.840   9.069 -0.8502  0.2778 -0.1963
  268MOL0     H35316   6.371   1.998   9.056  1.8947  0.7181 -0.9849
  268MOL0     H35317   6.372   1.969   9.334 -1.5470 -0.2423  1.3181
  268MOL0     H35318   6.359   1.801   9.296  1.3727 -0.6218 -1.8985
  268MOL0     H35319   6.136   1.908   9.317  1.5458 -2.4937  0.5608
  268MOL0     H35320   6.165   2.009   9.183  0.6659 -0.2885  0.9377
  268MOL0     H35321   6.173   1.807   9.029 -1.2543  0.8627 -1.2090
  268MOL0     H35322   6.018   1.825   9.118 -0.5455 -1.4493  1.0257
  268MOL0     H35323   6.244   1.628   9.168  0.5534  0.7455  1.6454
  268MOL0     H35324   6.087   1.579   9.124  2.1168  0.9435 -2.3598
  268MOL0     H35325   6.090   1.542   9.368 -1.8855  1.3025  1.8250
  268MOL0     H35326   6.164   1.705   9.398 -1.2617  0.7850  0.1592
  268MOL0     H35327   5.944   1.798   9.316 -0.9527 -1.5614 -2.6425
  268MOL0     H35328   5.938   1.710   9.463 -0.5215  0.5862  0.1670
  268MOL0     H35329   5.814   1.489   9.468 -0.0266 -0.2226  0.3982
  268MOL0     H35330   5.644   1.292   9.349  0.9524  0.9143  0.2760
  268MOL0     H35331   5.576   1.307   9.183 -1.4109 -1.5382  0.8147
  268MOL0     H35332   5.428   1.489   9.276 -2.7531 -1.0677  1.2208
  268MOL0     H35333   5.498   1.464   9.434 -3.2308  0.2489  0.7171
  268MOL0     H35334   5.269   1.365   9.421  2.9401  0.7638  0.6376
  268MOL0     H35335   5.301   1.291   9.267 -0.0962 -2.6506 -0.4556
  268MOL0     H35336   5.329   1.131   9.478  1.2098 -0.3161 -0.4530
  268MOL0     H35337   5.468   1.222   9.515 -1.7081  2.2124  0.6670
  268MOL0     H35338   5.555   1.052   9.611  0.5064  1.0668 -1.1682
  268MOL0     H35339   5.649   0.861   9.697 -0.4723 -2.0943  1.1684
  268MOL0     H35340   5.567   0.435   9.630 -0.0276 -1.7148  2.5873
  268MOL0     H35341   5.561   0.214   9.716 -1.0838 -3.9981 -2.5492
  268MOL0     H35342   5.914  -0.040   9.723  0.6947  1.4367 -0.0912
  268MOL0     H35343   5.880  -0.065   9.550 -4.8830  2.5419 -1.0119
  268MOL0     H35344   5.745  -0.236   9.578  3.0074  0.9277 -3.1153
  268MOL0     H35345   5.741  -0.227   9.759  3.6147  0.5593  2.4001
  268MOL0     H35346   5.981  -0.293   9.771  1.5491 -3.0257 -0.4792
  268MOL0     H35347   5.979  -0.312   9.594 -2.0232 -1.4641 -1.3932
  268MOL0     H35348   5.799  -0.463   9.781  1.1252 -0.3213  1.3168
  268MOL0     H35349   5.803  -0.471   9.603  1.6640  3.5384 -1.6616
  268MOL0     H35350   5.894  -0.629   9.773  2.5278 -0.2382  0.7000
  268MOL0     H35351   6.055  -0.561   9.753  0.9470  2.3202 -2.5240
  268MOL0     H35352   5.901  -0.669   9.517  0.3250 -0.7832 -0.0353
  268MOL0     H35353   6.037  -0.749   9.612  1.6835  0.0721  0.8354
  268MOL0     H35354   6.042  -0.500   9.442 -0.7054 -0.3126  1.3462
  268MOL0     H35355   6.170  -0.515   9.540  0.8181 -0.1013 -0.2596
  268MOL0     H35356   6.201  -0.627   9.318  1.2842 -0.5974 -0.7550
  268MOL0     H35357   6.079  -0.753   9.360  1.8413 -1.2775 -0.1545
  268MOL0     H35358   5.896   0.109   9.467  0.6610  1.8690  0.1912
  268MOL0     H35359   5.906   0.334   9.392 -2.9051 -0.1079 -0.7243
  268MOL0     H35360   5.681   0.709   9.284 -0.1105  0.5257 -0.4378
  268MOL0     H35361   5.565   0.900   9.209  2.2744  0.1156 -0.2450
  268MOL0     H35362   6.709   2.139   8.807  0.6393  1.0433 -0.4089
  268MOL0     H35363   6.936   2.219   8.775  2.6782 -1.2226  1.2206
  268MOL0     H35364   7.394   2.111   9.005 -3.1646  2.9569  4.4850
  268MOL0     H35365   7.617   2.132   8.968  1.5605  1.6824  1.2256
  268MOL0     H35366   7.852   2.212   8.895 -1.2603 -3.4153  2.7004
  268MOL0     H35367   7.798   2.241   9.054 -1.8196 -1.7525 -0.8038
  268MOL0     H35368   8.011   2.395   8.891  0.9194 -0.3499 -0.2273
  268MOL0     H35369   7.973   2.429   9.072 -0.5395 -1.6568  1.9916
  268MOL0     H35370   8.099   2.186   8.940 -0.1015  1.1299 -0.2905
  268MOL0     H35371   8.030   2.187   9.103  1.1356 -2.8890 -1.5882
  268MOL0     H35372   8.265   2.331   8.994 -0.1029 -3.6103 -1.6754
  268MOL0     H35373   8.191   2.390   9.139 -1.4024  0.4670 -0.7689
  268MOL0     H35374   8.349   2.046   9.310 -1.5166  0.1462 -0.3767
  268MOL0     H35375   7.577   2.559   8.918  0.1111  0.2175  1.0360
  268MOL0     H35376   7.317   2.532   8.962  0.6744  1.0237  1.4774
  269MOL0     O35377   5.440   6.142   1.162 -0.5798 -0.5441  0.2264
  269MOL0     C35378   5.476   6.244   1.098  0.1913  0.3154  0.3368
  269MOL0     O35379   5.407   6.365   1.093  0.6542  0.4982  0.7616
  269MOL0     C35380   5.276   6.380   1.128  0.3113  0.2790  0.1963
  269MOL0     C35381   5.182   6.285   1.102  0.1079  0.4271 -0.9164
  269MOL0     C35382   5.048   6.302   1.137 -0.7590 -0.0153 -0.0106
  269MOL0     C35383   5.008   6.422   1.195  0.0147  0.1881  0.1653
  269MOL0     O35384   4.872   6.416   1.215 -0.3338 -0.2476  0.0510
  269MOL0     C35385   4.794   6.404   1.095  0.1247  0.1699  0.5434
  269MOL0     C35386   4.674   6.485   1.110  0.3604 -1.1227  0.5836
  269MOL0     C35387   4.566   6.473   0.998 -0.2504 -0.6838 -0.5198
  269MOL0     C35388   4.427   6.480   1.062 -0.0932 -0.3324 -0.2811
  269MOL0     C35389   4.311   6.472   0.963 -0.4697 -0.1637  0.0126
  269MOL0     C35390   4.204   6.558   1.034 -0.3138 -0.7779  0.1855
  269MOL0     C35391   4.067   6.554   0.955 -1.3504  0.5717  0.3864
  269MOL0     C35392   4.089   6.604   0.808  0.0646 -0.2526 -0.1753
  269MOL0     N35393   3.954   6.640   0.762  0.9260 -0.8316  1.7766
  269MOL0     C35394   3.859   6.551   0.732 -0.1104 -0.7424  0.0578
  269MOL0     C35395   3.766   6.623   0.667 -0.5253 -0.4001 -0.5072
  269MOL0     C35396   3.646   6.568   0.603  0.5895 -0.6604 -0.5390
  269MOL0     C35397   3.534   6.666   0.534 -0.4470 -0.7316  0.5517
  269MOL0     C35398   3.431   6.592   0.451  0.5564  0.0510  0.5176
  269MOL0     C35399   3.318   6.688   0.407 -0.1600  0.3978 -0.2119
  269MOL0     O35400   3.253   6.629   0.294  0.4567 -0.5189  0.6750
  269MOL0     C35401   3.162   6.694   0.213  0.3607  0.6422 -0.2325
  269MOL0     C35402   3.106   6.822   0.248 -0.9222  0.1154  0.2214
  269MOL0     C35403   3.018   6.892   0.164 -0.5338  0.4924  0.2085
  269MOL0     C35404   2.972   6.825   0.051  0.8178  0.4191  0.2536
  269MOL0     C35405   2.871   6.889  -0.043  0.3604  0.3472  0.4044
  269MOL0     O35406   2.840   7.020  -0.024 -0.1467  0.3769 -0.4893
  269MOL0     C35407   2.753   7.077  -0.112  0.4203 -0.3803 -0.5485
  269MOL0     C35408   2.790   7.112  -0.242  0.0088 -0.3547  0.0559
  269MOL0     C35409   2.708   7.199  -0.320  0.6713  1.1003  0.3803
  269MOL0     C35410   2.594   7.267  -0.273  0.1964  0.2783  0.0708
  269MOL0     O35411   2.525   7.369  -0.335 -0.2229  0.2005  0.0899
  269MOL0     C35412   2.507   7.358  -0.472  0.2173 -0.7071 -0.6909
  269MOL0     C35413   2.364   7.405  -0.500 -0.5861 -0.2070 -0.2127
  269MOL0     C35414   2.261   7.314  -0.449  0.2952 -0.6938 -0.8766
  269MOL0     C35415   2.122   7.320  -0.513  0.7835 -0.1615  0.4140
  269MOL0     C35416   2.015   7.269  -0.417  0.2480  0.2110 -0.4195
  269MOL0     C35417   1.875   7.320  -0.456  1.2332 -0.7342 -0.0815
  269MOL0     C35418   1.855   7.459  -0.406  1.0594 -0.1688  0.6398
  269MOL0     C35419   1.704   7.475  -0.379 -0.1286 -0.2637 -0.2547
  269MOL0    Cl35420   1.620   7.433  -0.531  0.3596  0.3990  0.4267
  269MOL0     C35421   2.560   7.235  -0.135  0.4403 -0.4240  0.1623
  269MOL0     C35422   2.629   7.136  -0.054 -0.0779 -0.0762  0.2626
  269MOL0     O35423   2.819   6.810  -0.127 -0.5363 -0.0405  0.2659
  269MOL0     C35424   3.014   6.694   0.032  0.5608  0.9941 -0.7983
  269MOL0     C35425   3.102   6.623   0.105 -0.3193 -0.0892  0.1366
  269MOL0     N35426   3.792   6.756   0.680  0.0147 -0.7396  0.1705
  269MOL0     N35427   3.912   6.765   0.745  0.1296 -0.7629 -0.2321
  269MOL0     C35428   5.104   6.527   1.215  0.7395 -0.0364 -0.8183
  269MOL0     C35429   5.233   6.511   1.176  0.0758  0.2696  0.5685
  269MOL0     C35430   5.593   6.225   1.005  0.1281 -1.6955  0.1377
  269MOL0     C35431   5.656   6.331   0.945  1.1780  0.3028  0.3086
  269MOL0     C35432   5.755   6.308   0.848  0.4495  1.0476 -0.2731
  269MOL0     C35433   5.800   6.175   0.814  0.2139 -0.8035 -0.1450
  269MOL0     O35434   5.902   6.172   0.719  0.1460 -0.4907 -0.2133
  269MOL0     C35435   5.962   6.053   0.676 -0.3772 -0.7499 -0.2084
  269MOL0     C35436   5.892   5.968   0.565  0.1491 -0.1728 -1.2219
  269MOL0     C35437   5.855   6.046   0.445  0.4101  0.7193  0.0595
  269MOL0     C35438   5.805   5.954   0.341 -0.2627  0.8842 -0.2953
  269MOL0     C35439   5.803   6.009   0.205 -0.4633  1.4431 -0.1457
  269MOL0     C35440   5.805   6.039   0.092 -0.2943 -0.2056 -0.1740
  269MOL0     C35441   5.723   6.069   0.867 -0.1843  1.0621 -0.0816
  269MOL0     C35442   5.617   6.095   0.960  0.6840 -0.1082 -0.1194
  269MOL0     H35443   5.206   6.185   1.067  1.4422 -1.9031  5.3287
  269MOL0     H35444   4.986   6.215   1.116 -2.7151  1.2504  0.2282
  269MOL0     H35445   4.778   6.298   1.074 -0.7347  0.3406  0.3018
  269MOL0     H35446   4.848   6.446   1.009  0.8569  1.3179  1.5276
  269MOL0     H35447   4.696   6.592   1.124  2.1215 -1.6470  2.3245
  269MOL0     H35448   4.619   6.454   1.200  1.6686  1.1501  2.3009
  269MOL0     H35449   4.567   6.379   0.942  0.5649 -1.4979  0.8207
  269MOL0     H35450   4.590   6.543   0.917  1.8290 -3.2305 -2.3139
  269MOL0     H35451   4.415   6.387   1.118 -1.5141 -1.1454 -1.8468
  269MOL0     H35452   4.416   6.577   1.112 -0.6163  0.6525 -2.1870
  269MOL0     H35453   4.286   6.366   0.957 -2.9555 -0.0329  4.1013
  269MOL0     H35454   4.346   6.523   0.873 -2.5667  4.4658  1.4927
  269MOL0     H35455   4.235   6.658   1.065 -1.6786 -1.7449  5.6025
  269MOL0     H35456   4.178   6.520   1.133 -0.4626  1.9283  1.2750
  269MOL0     H35457   4.032   6.451   0.944  0.2456  0.1744 -1.8041
  269MOL0     H35458   3.986   6.608   1.006 -0.1036  1.3412  1.6417
  269MOL0     H35459   4.126   6.523   0.744 -4.5015 -1.4275 -1.7172
  269MOL0     H35460   4.159   6.688   0.799 -0.6901  0.2026 -3.0117
  269MOL0     H35461   3.859   6.443   0.739 -1.1077 -0.6530  2.2019
  269MOL0     H35462   3.595   6.509   0.680 -1.8266  0.7607 -0.9594
  269MOL0     H35463   3.677   6.495   0.528 -1.9391  0.2334 -2.5794
  269MOL0     H35464   3.589   6.733   0.468 -1.8293 -1.2786 -1.2208
  269MOL0     H35465   3.480   6.710   0.618  1.1684 -3.3293  3.1639
  269MOL0     H35466   3.459   6.549   0.354 -2.6330  0.0762 -0.5118
  269MOL0     H35467   3.393   6.504   0.505 -0.6125  0.4547  0.3779
  269MOL0     H35468   3.356   6.788   0.384 -3.1553  1.8851  0.8357
  269MOL0     H35469   3.251   6.698   0.492  1.3803  2.7210  0.8134
  269MOL0     H35470   3.123   6.870   0.343 -2.7913  0.4916  0.4114
  269MOL0     H35471   2.980   6.990   0.188 -0.1172  0.6561  0.2157
  269MOL0     H35472   2.878   7.073  -0.293 -1.1219  1.4658 -3.6389
  269MOL0     H35473   2.734   7.210  -0.425 -0.3935  0.9289  0.0841
  269MOL0     H35474   2.516   7.254  -0.506  0.8054  0.0737 -3.1717
  269MOL0     H35475   2.575   7.424  -0.527 -0.0329  0.7812  0.7195
  269MOL0     H35476   2.359   7.400  -0.609 -0.8441 -1.0178 -0.1706
  269MOL0     H35477   2.342   7.507  -0.468 -2.1322 -0.7114  0.4582
  269MOL0     H35478   2.253   7.335  -0.342 -4.2238 -2.4061 -0.6424
  269MOL0     H35479   2.293   7.210  -0.462 -0.9496 -1.1063 -0.7153
  269MOL0     H35480   2.095   7.423  -0.539  0.6703 -0.5999 -1.2690
  269MOL0     H35481   2.122   7.265  -0.607  1.6557  0.9213 -0.2456
  269MOL0     H35482   2.037   7.294  -0.313 -2.0668 -0.8810  0.4003
  269MOL0     H35483   2.026   7.161  -0.427  1.4050  0.4543 -2.1658
  269MOL0     H35484   1.801   7.252  -0.412  1.2393 -0.5096  0.2795
  269MOL0     H35485   1.860   7.312  -0.564  0.3329  1.2753 -0.1428
  269MOL0     H35486   1.904   7.481  -0.311 -0.5502  0.6034  1.3375
  269MOL0     H35487   1.883   7.539  -0.475  0.2132  1.2251  1.8531
  269MOL0     H35488   1.685   7.574  -0.337 -2.8988 -0.7975 -0.0564
  269MOL0     H35489   1.667   7.409  -0.300  2.0129  0.3776  1.3566
  269MOL0     H35490   2.482   7.294  -0.088 -0.6980 -0.7399 -1.2449
  269MOL0     H35491   2.602   7.123   0.050 -2.3870 -1.6605 -0.4503
  269MOL0     H35492   2.992   6.639  -0.059  2.8039 -2.4975  0.5915
  269MOL0     H35493   3.136   6.527   0.070  0.7485  0.4933 -0.4619
  269MOL0     H35494   5.069   6.623   1.253 -0.7226 -0.5456 -0.8071
  269MOL0     H35495   5.299   6.597   1.173 -3.3023  3.0409 -0.4582
  269MOL0     H35496   5.632   6.433   0.974 -0.4518 -0.2447  1.0150
  269MOL0     H35497   5.802   6.398   0.810  0.2965  1.4267  0.4251
  269MOL0     H35498   5.956   5.989   0.765  1.1573  0.2091  0.6208
  269MOL0     H35499   6.068   6.068   0.651 -0.8483  2.3348 -0.7935
  269MOL0     H35500   5.948   5.876   0.545  2.3241  0.5671  0.9007
  269MOL0     H35501   5.796   5.932   0.603  0.0413 -2.0456 -3.0732
  269MOL0     H35502   5.939   6.107   0.410  0.5365  1.4112  1.4825
  269MOL0     H35503   5.766   6.110   0.453 -0.9125 -0.9744 -0.5514
  269MOL0     H35504   5.885   5.879   0.341  0.7497  1.9280  0.0287
  269MOL0     H35505   5.710   5.914   0.376  0.0563 -0.0407 -0.4646
  269MOL0     H35506   5.785   6.073  -0.008  2.3324 -1.1086 -1.1146
  269MOL0     H35507   5.734   5.968   0.827 -1.9050  0.9851 -0.4112
  269MOL0     H35508   5.560   6.004   0.974  1.1553 -0.4098 -0.1506
  270MOL0     O35509   4.402   8.346   8.797 -0.0173 -0.6084  0.1327
  270MOL0     C35510   4.300   8.379   8.743  0.6494 -0.1551  0.1840
  270MOL0     O35511   4.250   8.508   8.738  0.3448  0.0587 -0.0086
  270MOL0     C35512   4.322   8.619   8.784 -0.1918 -0.2762  0.0281
  270MOL0     C35513   4.434   8.633   8.872  1.4283 -0.2278  0.5273
  270MOL0     C35514   4.488   8.753   8.910  0.3184 -0.2045  0.7148
  270MOL0     C35515   4.434   8.870   8.871  0.5823 -0.0130  0.2136
  270MOL0     O35516   4.467   8.998   8.908 -0.3883  0.7609  0.5510
  270MOL0     C35517   4.600   9.015   8.980  0.1897  0.3166 -0.0284
  270MOL0     C35518   4.650   9.171   9.019  0.1750 -0.7213 -0.0773
  270MOL0     C35519   4.798   9.155   9.052  0.0385 -1.1184  0.2592
  270MOL0     C35520   4.864   9.280   9.092  0.2242 -0.2333 -0.0149
  270MOL0     C35521   4.991   9.273   9.177 -0.9256  0.4931 -1.1138
  270MOL0     C35522   5.110   9.254   9.090  0.7121  0.0987 -0.2357
  270MOL0     C35523   5.232   9.241   9.179  0.4340 -0.0557 -0.0146
  270MOL0     C35524   5.295   9.378   9.216  0.0729 -0.6628  0.0362
  270MOL0     N35525   5.358   9.444   9.110  0.0894 -0.6138 -0.5524
  270MOL0     C35526   5.316   9.565   9.059  0.2329  0.1673 -0.5785
  270MOL0     C35527   5.423   9.604   8.975  0.7355  1.1074  0.4750
  270MOL0     C35528   5.425   9.738   8.907  0.2558  0.3343 -0.0791
  270MOL0     C35529   5.324   9.732   8.798  0.2980  0.5098 -0.7391
  270MOL0     C35530   5.319   9.852   8.709  0.8961  0.1849 -1.5556
  270MOL0     C35531   5.246   9.827   8.578 -0.4542  1.0142  0.6581
  270MOL0     O35532   5.331   9.859   8.470  0.6374 -0.6584  0.0146
  270MOL0     C35533   5.288   9.841   8.345 -0.5983  0.5176 -0.8653
  270MOL0     C35534   5.377   9.849   8.247 -0.6756  0.4177  0.5481
  270MOL0     C35535   5.339   9.839   8.102 -0.7210  0.0810 -0.4703
  270MOL0     C35536   5.206   9.814   8.068 -0.1717  1.1653 -0.3603
  270MOL0     C35537   5.162   9.801   7.930 -1.2998 -0.4093  0.4799
  270MOL0     O35538   5.257   9.766   7.839 -0.0462 -0.0729 -0.0056
  270MOL0     C35539   5.218   9.775   7.708  0.1606  0.1440 -0.4501
  270MOL0     C35540   5.104   9.721   7.655  0.0612 -0.3533 -0.9027
  270MOL0     C35541   5.093   9.701   7.518 -0.1535 -0.1414 -0.0958
  270MOL0     C35542   5.195   9.743   7.435 -0.2907 -0.5382  0.4905
  270MOL0     O35543   5.174   9.714   7.300 -0.2569 -0.0624  0.0620
  270MOL0     C35544   5.285   9.692   7.212  0.2653  0.2586  0.4211
  270MOL0     C35545   5.273   9.557   7.143  0.2374 -0.3953 -0.6279
  270MOL0     C35546   5.170   9.551   7.029  0.4558  0.2556 -0.4959
  270MOL0     C35547   5.159   9.428   6.929 -0.2576 -0.0347  0.6603
  270MOL0     C35548   5.068   9.458   6.803  0.0259 -0.1679 -0.6664
  270MOL0     C35549   5.125   9.563   6.709 -0.3182  0.8415 -0.4416
  270MOL0     C35550   5.073   9.553   6.562  0.9037 -0.2114 -0.8997
  270MOL0     C35551   5.141   9.441   6.471  0.2689 -0.6450 -1.0066
  270MOL0    Cl35552   5.105   9.494   6.304 -0.0704  0.4823  0.4234
  270MOL0     C35553   5.312   9.802   7.487  0.2586 -0.3089  0.4240
  270MOL0     C35554   5.322   9.806   7.624 -0.2415 -0.4110 -0.9645
  270MOL0     O35555   5.045   9.797   7.915 -0.3636 -0.2355  0.3775
  270MOL0     C35556   5.110   9.813   8.174 -0.6794  0.7375 -0.2426
  270MOL0     C35557   5.152   9.814   8.311  0.6040 -1.1741  0.0595
  270MOL0     N35558   5.526   9.514   8.992  0.1732  0.1774  0.8918
  270MOL0     N35559   5.488   9.422   9.068 -0.1001  0.0421 -0.4850
  270MOL0     C35560   4.323   8.858   8.784  0.6115  0.7074 -0.3000
  270MOL0     C35561   4.269   8.740   8.739 -0.1591  0.4526 -0.1318
  270MOL0     C35562   4.201   8.280   8.720  0.9615  0.1435 -0.3206
  270MOL0     C35563   4.237   8.146   8.716 -1.1028  0.0288  0.3538
  270MOL0     C35564   4.146   8.050   8.684  0.1576  0.4921  1.2445
  270MOL0     C35565   4.013   8.078   8.653 -0.1474  0.4043 -0.7370
  270MOL0     O35566   3.921   7.992   8.621  0.7829  0.1985  1.0989
  270MOL0     C35567   3.876   7.899   8.726 -0.0745  0.8865 -0.0981
  270MOL0     C35568   3.732   7.871   8.705  0.3241 -1.8725  0.3625
  270MOL0     C35569   3.648   7.997   8.672  1.1614  0.8364  0.2583
  270MOL0     C35570   3.498   7.981   8.697 -1.2851 -0.1006  0.4610
  270MOL0     C35571   3.458   7.968   8.832 -0.4413 -0.4040 -0.2715
  270MOL0     C35572   3.406   7.959   8.942  0.0464 -1.1923  0.3015
  270MOL0     C35573   3.979   8.210   8.652 -0.0272  0.4912 -0.6954
  270MOL0     C35574   4.065   8.305   8.683  0.0533 -1.1531  0.5660
  270MOL0     H35575   4.478   8.542   8.912 -0.6354 -0.3085  2.9029
  270MOL0     H35576   4.562   8.747   8.990  0.5835 -0.2639  0.4645
  270MOL0     H35577   4.673   8.971   8.912  1.2886  1.3400  0.4640
  270MOL0     H35578   4.608   8.963   9.076 -0.8679 -0.0274 -0.1107
  270MOL0     H35579   4.600   9.212   9.107 -2.6550  1.5972 -2.5512
  270MOL0     H35580   4.643   9.242   8.936  0.1307  0.8948  1.2591
  270MOL0     H35581   4.863   9.131   8.968 -0.7071 -0.2000 -0.6006
  270MOL0     H35582   4.805   9.086   9.137  1.3951 -3.2268 -1.4451
  270MOL0     H35583   4.889   9.332   8.999  2.6735 -1.3636 -0.0771
  270MOL0     H35584   4.788   9.326   9.155 -2.1379  0.3261 -3.0585
  270MOL0     H35585   4.983   9.195   9.253 -1.3559  1.5112 -0.0931
  270MOL0     H35586   5.003   9.366   9.233  2.4766  0.3164 -1.2927
  270MOL0     H35587   5.129   9.334   9.018  1.2605  0.4735  0.3111
  270MOL0     H35588   5.110   9.161   9.033 -1.5814  1.1308 -2.0290
  270MOL0     H35589   5.201   9.186   9.269 -1.7251  0.5408 -0.3332
  270MOL0     H35590   5.310   9.187   9.124  0.3100 -0.7521  0.4873
  270MOL0     H35591   5.381   9.362   9.282  0.4979 -2.5991 -0.9185
  270MOL0     H35592   5.235   9.459   9.258  1.2276 -0.0307  0.5187
  270MOL0     H35593   5.222   9.616   9.077  1.3944  1.4263  2.6426
  270MOL0     H35594   5.523   9.755   8.861 -0.8834  0.3441 -2.6252
  270MOL0     H35595   5.401   9.822   8.973 -0.6473 -0.3204  0.4546
  270MOL0     H35596   5.223   9.734   8.841 -0.6658  0.8943 -2.8892
  270MOL0     H35597   5.335   9.633   8.753 -0.1282 -0.2165  0.7042
  270MOL0     H35598   5.272   9.942   8.750  0.8619  1.4359 -4.1680
  270MOL0     H35599   5.418   9.886   8.678  0.3008  2.4491 -1.1421
  270MOL0     H35600   5.147   9.873   8.577 -0.8622  0.1873  1.2594
  270MOL0     H35601   5.233   9.718   8.569 -2.2682  0.7462  4.5377
  270MOL0     H35602   5.479   9.883   8.261 -0.0467 -1.6752  1.4732
  270MOL0     H35603   5.411   9.863   8.024 -1.8944  2.9525 -0.8022
  270MOL0     H35604   5.016   9.694   7.714  1.0841  1.6652  1.7733
  270MOL0     H35605   5.002   9.659   7.475 -1.2971 -0.4126  2.3985
  270MOL0     H35606   5.380   9.696   7.265  1.0668 -1.0561 -0.8458
  270MOL0     H35607   5.297   9.760   7.127  3.2556 -2.1483 -1.2904
  270MOL0     H35608   5.266   9.476   7.217 -2.0562 -0.7798 -1.1785
  270MOL0     H35609   5.369   9.539   7.094  1.1956  2.0106  0.2362
  270MOL0     H35610   5.168   9.643   6.971 -1.2216 -0.2124 -1.2341
  270MOL0     H35611   5.073   9.558   7.078 -0.6713 -2.8718 -1.9683
  270MOL0     H35612   5.259   9.399   6.895  1.2828  1.9758  3.1411
  270MOL0     H35613   5.119   9.341   6.982  2.3043 -1.0620  1.0357
  270MOL0     H35614   4.973   9.493   6.844  0.1396  2.1354 -2.1413
  270MOL0     H35615   5.056   9.363   6.750  3.0712 -2.2045  1.9024
  270MOL0     H35616   5.233   9.544   6.708 -0.4890 -0.2310  0.2343
  270MOL0     H35617   5.115   9.666   6.744  5.5970  0.7685  2.8288
  270MOL0     H35618   4.967   9.528   6.574  1.0699 -0.2358  0.6753
  270MOL0     H35619   5.081   9.651   6.512 -1.7819  0.5515 -0.0524
  270MOL0     H35620   5.095   9.343   6.487  1.6657 -1.2550 -0.6245
  270MOL0     H35621   5.248   9.435   6.488  0.0668  0.4340  0.8583
  270MOL0     H35622   5.394   9.834   7.423  0.3872  1.1172  1.2664
  270MOL0     H35623   5.405   9.851   7.676 -1.7832  2.0419 -0.4758
  270MOL0     H35624   5.005   9.795   8.153 -1.4648  0.3945  3.2993
  270MOL0     H35625   5.076   9.797   8.387  0.9991 -3.0647  0.0881
  270MOL0     H35626   4.271   8.949   8.754  1.6965  0.8317 -1.9091
  270MOL0     H35627   4.171   8.750   8.692  0.4365  1.2524 -1.2534
  270MOL0     H35628   4.337   8.121   8.753 -0.4136  2.8713  0.6588
  270MOL0     H35629   4.174   7.946   8.674  1.8603  1.0727 -0.9294
  270MOL0     H35630   3.898   7.943   8.824 -0.0319  1.3901 -0.3282
  270MOL0     H35631   3.936   7.808   8.721 -2.1227 -0.5194 -0.6251
  270MOL0     H35632   3.708   7.784   8.643  1.8555 -0.6600 -2.1147
  270MOL0     H35633   3.695   7.850   8.806  0.1325  1.8850  1.2201
  270MOL0     H35634   3.651   8.015   8.564 -2.6755 -1.5280 -0.4189
  270MOL0     H35635   3.678   8.077   8.740  0.2453 -0.1129  1.8567
  270MOL0     H35636   3.438   8.066   8.660  2.2013  2.5515  0.4048
  270MOL0     H35637   3.461   7.893   8.643 -0.8758 -0.0353  0.0647
  270MOL0     H35638   3.359   7.948   9.038  3.1596 -0.3024  2.0695
  270MOL0     H35639   3.878   8.235   8.622  0.0377 -1.2837 -2.6202
  270MOL0     H35640   4.031   8.407   8.669  0.1986 -1.4663 -2.7886
  271MOL0     O35641  10.753  11.297   0.202  0.1989 -0.4251 -0.0178
  271MOL0     C35642  10.752  11.187   0.260 -1.2616  0.5855 -0.2749
  271MOL0     O35643  10.668  11.081   0.234  1.4177  0.4813 -0.9505
  271MOL0     C35644  10.550  11.102   0.167  0.2483 -0.3646  0.4677
  271MOL0     C35645  10.444  11.192   0.204 -1.1969  0.0449  0.5367
  271MOL0     C35646  10.329  11.200   0.132 -0.0854  0.6242 -0.0439
  271MOL0     C35647  10.310  11.131   0.021  1.0982 -0.0502  0.4503
  271MOL0     O35648  10.210  11.145  -0.067 -0.4015  0.2137  0.0207
  271MOL0     C35649  10.101  11.206  -0.012 -0.0913  0.0748  0.1463
  271MOL0     C35650  10.002  11.188  -0.135 -0.7014  0.2976 -0.8335
  271MOL0     C35651  10.053  11.298  -0.243 -0.0405  1.1060 -1.0505
  271MOL0     C35652  10.188  11.272  -0.313 -0.3299  0.9578  0.7108
  271MOL0     C35653  10.216  11.362  -0.436  0.1984 -0.4418 -0.2695
  271MOL0     C35654  10.259  11.500  -0.384  0.3840 -0.8559 -0.1372
  271MOL0     C35655  10.361  11.573  -0.480 -1.1325  0.0880 -0.3304
  271MOL0     C35656  10.481  11.616  -0.400 -1.1120 -0.0643 -0.7719
  271MOL0     N35657  10.552  11.496  -0.367 -0.0267 -0.3091  1.0139
  271MOL0     C35658  10.556  11.428  -0.252  0.3071  0.0159  0.7449
  271MOL0     C35659  10.665  11.337  -0.268  0.6524 -0.7852 -0.7439
  271MOL0     C35660  10.703  11.239  -0.160 -0.4986  0.2522  0.0506
  271MOL0     C35661  10.848  11.262  -0.116  0.4572  0.2274 -0.6721
  271MOL0     C35662  10.899  11.120  -0.077 -0.4296 -0.1659 -0.0658
  271MOL0     C35663  11.044  11.134  -0.035  0.8939  0.0555  0.0243
  271MOL0     O35664  11.083  11.023   0.040 -0.0442  0.1808 -0.1669
  271MOL0     C35665  11.209  11.007   0.064 -0.0891 -0.1060 -0.0883
  271MOL0     C35666  11.248  10.963   0.196  0.1236 -0.3417 -0.3033
  271MOL0     C35667  11.380  10.943   0.231 -0.2531  0.8258  0.0017
  271MOL0     C35668  11.480  10.961   0.134 -0.4118 -0.6410  0.1222
  271MOL0     C35669  11.622  10.932   0.164 -0.1529 -0.6749 -0.5164
  271MOL0     O35670  11.656  10.890   0.289  0.0683 -0.2636  0.1511
  271MOL0     C35671  11.786  10.861   0.316 -0.4537  0.1952 -0.1134
  271MOL0     C35672  11.850  10.922   0.424 -0.7313 -0.5975  1.3868
  271MOL0     C35673  11.983  10.902   0.460 -0.0551  0.6566 -0.7190
  271MOL0     C35674  12.059  10.825   0.376  0.1314 -0.4034  0.2196
  271MOL0     O35675  12.190  10.800   0.387 -0.0360 -0.0180 -0.5922
  271MOL0     C35676  12.262  10.884   0.480 -0.1928  0.4587  0.0868
  271MOL0     C35677  12.405  10.841   0.499 -0.1522  0.1312 -0.5890
  271MOL0     C35678  12.471  10.935   0.597  0.8269 -0.0724 -0.8960
  271MOL0     C35679  12.625  10.918   0.579 -0.2514 -0.0116 -0.8361
  271MOL0     C35680  12.706  10.994   0.679 -0.2242 -0.5967 -0.0043
  271MOL0     C35681  12.661  11.147   0.686 -1.7834 -0.0376  1.2436
  271MOL0     C35682  12.770  11.240   0.744  0.4657  0.1528  0.0133
  271MOL0     C35683  12.739  11.295   0.883 -0.0305 -0.7402 -0.7502
  271MOL0    Cl35684  12.740  11.151   0.998  0.1987 -0.0098  0.1304
  271MOL0     C35685  11.991  10.755   0.276 -0.0796  0.1095  0.0985
  271MOL0     C35686  11.854  10.768   0.246  0.3886  0.0952 -0.2333
  271MOL0     O35687  11.706  10.962   0.081 -0.9791 -0.0198  0.0459
  271MOL0     C35688  11.442  10.996   0.002  0.0242  0.1133 -0.0007
  271MOL0     C35689  11.314  11.018  -0.033  0.1081  0.1086  0.4627
  271MOL0     N35690  10.717  11.346  -0.398  0.1865  0.3597  0.0825
  271MOL0     N35691  10.637  11.437  -0.453 -0.1750 -0.4150 -0.2142
  271MOL0     C35692  10.409  11.043  -0.022 -1.4706 -0.3630  0.0582
  271MOL0     C35693  10.532  11.020   0.048  0.5131  0.3354 -0.1931
  271MOL0     C35694  10.861  11.171   0.359 -0.0280  1.0992  0.7089
  271MOL0     C35695  10.928  11.276   0.415  0.5459  0.3636  0.3435
  271MOL0     C35696  11.026  11.265   0.505 -0.1628 -0.6120  0.6928
  271MOL0     C35697  11.048  11.135   0.559  0.2986 -1.2606  0.4667
  271MOL0     O35698  11.141  11.104   0.652 -0.8028 -0.0445 -0.2510
  271MOL0     C35699  11.206  11.211   0.724 -0.3173  0.6754  0.0016
  271MOL0     C35700  11.121  11.297   0.822  0.4904  0.4578  0.3755
  271MOL0     C35701  11.216  11.352   0.927  0.2517 -0.1349 -0.0529
  271MOL0     C35702  11.139  11.431   1.029 -0.4429  1.2449  0.3292
  271MOL0     C35703  11.049  11.351   1.112 -0.3616  0.7455 -0.6975
  271MOL0     C35704  10.978  11.288   1.194 -0.1155  0.1280  0.7201
  271MOL0     C35705  10.975  11.028   0.510  0.8010  0.9109 -0.1399
  271MOL0     C35706  10.881  11.041   0.416  0.2330  0.7519 -0.6997
  271MOL0     H35707  10.457  11.248   0.296 -0.2805 -0.1789  0.5532
  271MOL0     H35708  10.265  11.272   0.183  0.8687 -0.4924  2.9926
  271MOL0     H35709  10.111  11.310   0.019  0.3602  0.0694  0.0316
  271MOL0     H35710  10.070  11.148   0.075  1.8878  1.9528  2.2300
  271MOL0     H35711   9.911  11.206  -0.078  0.0356 -0.3547  0.6075
  271MOL0     H35712   9.989  11.084  -0.169 -1.1044  0.6028 -1.6306
  271MOL0     H35713  10.057  11.392  -0.188 -3.4846  3.3885 -4.1661
  271MOL0     H35714   9.963  11.311  -0.304 -1.2613  3.4860  1.0262
  271MOL0     H35715  10.264  11.289  -0.236 -1.3078  2.7996  1.3218
  271MOL0     H35716  10.192  11.168  -0.348  2.0268  1.2692 -0.0710
  271MOL0     H35717  10.133  11.375  -0.506  0.3846 -0.0120 -0.4132
  271MOL0     H35718  10.296  11.315  -0.493 -0.6591 -0.1568 -1.7837
  271MOL0     H35719  10.284  11.501  -0.278  2.9320  1.0430 -0.6637
  271MOL0     H35720  10.168  11.562  -0.388  0.9785  0.0008 -0.7884
  271MOL0     H35721  10.390  11.514  -0.567 -0.6874 -2.2687  1.3159
  271MOL0     H35722  10.315  11.669  -0.507  0.7661  0.9474 -0.7234
  271MOL0     H35723  10.457  11.665  -0.305  2.4106  2.3619 -0.9174
  271MOL0     H35724  10.551  11.682  -0.453 -0.2939  0.9818  1.4581
  271MOL0     H35725  10.491  11.449  -0.168 -3.2215  1.4450 -2.0772
  271MOL0     H35726  10.696  11.140  -0.206  1.3138 -0.4241  1.1332
  271MOL0     H35727  10.641  11.234  -0.069  0.9699 -1.7000  1.0278
  271MOL0     H35728  10.871  11.329  -0.033 -2.6824  0.5701  0.0181
  271MOL0     H35729  10.900  11.305  -0.202  3.0031 -1.6432 -0.2129
  271MOL0     H35730  10.838  11.081   0.004 -1.3271  1.7715  0.2570
  271MOL0     H35731  10.890  11.074  -0.176  2.3578 -0.4301 -0.2806
  271MOL0     H35732  11.055  11.225   0.024  2.4187  0.3668 -0.6742
  271MOL0     H35733  11.108  11.145  -0.124 -1.2695  1.7428 -1.4205
  271MOL0     H35734  11.176  10.951   0.276 -0.5453 -0.4423 -0.9066
  271MOL0     H35735  11.403  10.911   0.332  0.2387  1.1297 -0.0057
  271MOL0     H35736  11.778  10.992   0.463  1.1930  3.7323 -1.9609
  271MOL0     H35737  12.009  10.934   0.561 -3.0477 -1.9329  1.0825
  271MOL0     H35738  12.215  10.895   0.579 -1.2006 -3.1564  0.1364
  271MOL0     H35739  12.265  10.988   0.446 -1.8336  1.2081  2.0091
  271MOL0     H35740  12.452  10.849   0.401 -0.8762  0.6149 -0.9098
  271MOL0     H35741  12.413  10.737   0.530  2.4069  0.5855  0.4941
  271MOL0     H35742  12.455  10.912   0.703  1.9789  3.6770  0.2418
  271MOL0     H35743  12.447  11.038   0.571  1.2165  0.1391 -0.4308
  271MOL0     H35744  12.663  10.818   0.600  2.5694  0.7510 -1.8695
  271MOL0     H35745  12.649  10.949   0.477 -0.5202  0.9176 -0.6317
  271MOL0     H35746  12.807  10.993   0.636 -1.7600 -2.7823 -4.1322
  271MOL0     H35747  12.706  10.950   0.779 -0.7730  1.5458  0.9901
  271MOL0     H35748  12.567  11.168   0.738 -2.1398 -1.0842  1.0471
  271MOL0     H35749  12.650  11.189   0.585 -0.7700 -0.5593  0.9098
  271MOL0     H35750  12.868  11.193   0.759  0.2945 -0.2781 -0.1876
  271MOL0     H35751  12.790  11.324   0.677 -0.3218  1.6080  1.5155
  271MOL0     H35752  12.643  11.346   0.894  2.1898  3.6991  0.3639
  271MOL0     H35753  12.816  11.365   0.917  1.3987 -1.9030 -1.4992
  271MOL0     H35754  12.041  10.691   0.204 -2.2370 -1.6267  0.0209
  271MOL0     H35755  11.808  10.715   0.163  0.7234  1.7641 -1.5322
  271MOL0     H35756  11.526  10.991  -0.066  0.0572 -0.0486  0.0525
  271MOL0     H35757  11.307  11.062  -0.132 -0.5257 -0.9399  0.0235
  271MOL0     H35758  10.379  10.985  -0.108  0.2602  0.7258 -1.3566
  271MOL0     H35759  10.610  10.948   0.024  1.5700  1.6618 -0.8468
  271MOL0     H35760  10.915  11.384   0.403  0.2126  0.8039  3.8162
  271MOL0     H35761  11.070  11.363   0.525  4.3299 -2.2873  0.0227
  271MOL0     H35762  11.268  11.271   0.657 -1.5868 -0.1391 -2.0001
  271MOL0     H35763  11.276  11.155   0.787 -1.7116  2.4445  3.3476
  271MOL0     H35764  11.088  11.392   0.777  0.7589  0.7373  0.7688
  271MOL0     H35765  11.040  11.237   0.865  0.6795  0.1582  0.3095
  271MOL0     H35766  11.281  11.425   0.880 -0.2223  0.6681  0.5233
  271MOL0     H35767  11.283  11.276   0.970  1.0326  0.2639 -0.5448
  271MOL0     H35768  11.205  11.483   1.098  2.6128 -1.3166 -0.3973
  271MOL0     H35769  11.089  11.512   0.975 -0.6095 -0.2187 -1.8660
  271MOL0     H35770  10.925  11.225   1.263  1.7166 -2.1504  0.1845
  271MOL0     H35771  10.983  10.931   0.559  0.5785  2.0801  2.3577
  271MOL0     H35772  10.813  10.963   0.386 -0.0099  1.5568 -2.3329
  272MOL0     O35773   4.560   3.599   3.440  0.5929 -0.2000 -0.1188
  272MOL0     C35774   4.639   3.660   3.370 -0.0400 -0.1265 -0.0940
  272MOL0     O35775   4.700   3.618   3.259 -0.0681  0.6938 -0.0241
  272MOL0     C35776   4.657   3.500   3.209 -0.6406 -1.3702 -0.3256
  272MOL0     C35777   4.704   3.374   3.263  1.2360  0.6487  0.9089
  272MOL0     C35778   4.690   3.252   3.195  0.2755  0.6315 -0.3986
  272MOL0     C35779   4.612   3.246   3.076 -0.3166 -0.3837 -0.1509
  272MOL0     O35780   4.599   3.138   2.992 -0.2452 -0.4433 -0.1778
  272MOL0     C35781   4.596   3.012   3.044 -0.4971  0.9457  0.7234
  272MOL0     C35782   4.542   2.917   2.936  0.0434  0.6033 -1.2073
  272MOL0     C35783   4.627   2.905   2.808  0.9080 -0.7116  0.1853
  272MOL0     C35784   4.581   2.786   2.723 -0.0630 -1.4540  0.8226
  272MOL0     C35785   4.684   2.733   2.619 -0.9988 -0.5042  0.3445
  272MOL0     C35786   4.746   2.846   2.531  0.2835  0.0332 -0.5613
  272MOL0     C35787   4.825   2.800   2.418  0.2979  0.6089  0.2667
  272MOL0     C35788   4.883   2.910   2.323 -0.4955  0.3395  0.2557
  272MOL0     N35789   4.971   2.844   2.218 -0.1282 -0.9541 -0.6375
  272MOL0     C35790   5.078   2.775   2.266 -1.2953  0.1486 -0.4255
  272MOL0     C35791   5.121   2.706   2.165 -1.1087  0.1935 -0.8736
  272MOL0     C35792   5.239   2.611   2.157  0.6483 -0.0748 -0.6168
  272MOL0     C35793   5.365   2.700   2.183  0.6513 -0.3908  0.0913
  272MOL0     C35794   5.365   2.819   2.085 -0.1147  0.1879  0.3690
  272MOL0     C35795   5.482   2.912   2.110 -0.2727  0.3890 -0.0346
  272MOL0     O35796   5.609   2.845   2.073  0.8602 -0.1216 -0.2181
  272MOL0     C35797   5.724   2.912   2.107  0.8891  0.1326  0.3226
  272MOL0     C35798   5.823   2.829   2.159 -0.0245 -0.1052  0.2267
  272MOL0     C35799   5.948   2.883   2.176  0.9662  0.3153 -0.4442
  272MOL0     C35800   5.973   3.022   2.159  0.3947  0.2100  0.6670
  272MOL0     C35801   6.117   3.056   2.149  0.5237  0.1279  0.3826
  272MOL0     O35802   6.213   2.977   2.191  0.0945 -0.2114  0.3024
  272MOL0     C35803   6.339   3.018   2.173 -0.0592 -0.2659 -1.0250
  272MOL0     C35804   6.416   3.070   2.283 -0.3751  0.0693  0.1152
  272MOL0     C35805   6.548   3.124   2.258  0.3884 -0.3292  0.6343
  272MOL0     C35806   6.603   3.114   2.125 -0.4727  0.2163 -0.6473
  272MOL0     O35807   6.729   3.159   2.101 -0.6676 -0.1008 -0.1641
  272MOL0     C35808   6.764   3.290   2.126 -0.3339  0.6846 -0.7555
  272MOL0     C35809   6.682   3.398   2.049  0.0463  0.2150 -0.8871
  272MOL0     C35810   6.729   3.533   2.094 -0.5522 -0.0544 -0.4891
  272MOL0     C35811   6.875   3.571   2.065  0.5005 -0.4733 -0.3699
  272MOL0     C35812   6.895   3.574   1.907  0.0758  1.2572 -0.1627
  272MOL0     C35813   7.012   3.661   1.870 -0.4135  0.8058 -0.2981
  272MOL0     C35814   6.988   3.814   1.888 -0.4408 -0.1622 -0.4640
  272MOL0     C35815   7.117   3.881   1.848 -0.1351 -0.3375 -0.1551
  272MOL0    Cl35816   7.101   4.060   1.880 -0.3209  0.5549 -0.1073
  272MOL0     C35817   6.531   3.049   2.023 -0.2936  0.1790 -0.4167
  272MOL0     C35818   6.405   3.004   2.051 -0.4147  0.5493 -0.7247
  272MOL0     O35819   6.130   3.171   2.112 -0.1821 -0.1099 -0.4366
  272MOL0     C35820   5.861   3.114   2.125 -0.1179  0.8035  0.5471
  272MOL0     C35821   5.739   3.057   2.094 -0.0933  0.1760  0.5717
  272MOL0     N35822   5.028   2.711   2.064  0.1844 -0.8007  0.8301
  272MOL0     N35823   4.936   2.797   2.100 -0.5412 -0.4851 -0.6526
  272MOL0     C35824   4.552   3.369   3.038  0.5389 -0.8259  0.0512
  272MOL0     C35825   4.580   3.499   3.099  0.3261  0.4035  0.5727
  272MOL0     C35826   4.679   3.795   3.420 -0.2248  0.5494 -0.9203
  272MOL0     C35827   4.671   3.829   3.559 -0.8887  0.3128 -0.3802
  272MOL0     C35828   4.720   3.953   3.603  0.3193 -0.0077 -0.6884
  272MOL0     C35829   4.789   4.039   3.521  0.7135 -0.8125  0.2092
  272MOL0     O35830   4.851   4.143   3.578  0.7778 -0.7924 -0.2634
  272MOL0     C35831   4.937   4.229   3.495  0.2205 -0.0579 -0.6695
  272MOL0     C35832   5.086   4.189   3.492 -0.1169  0.6936  0.3085
  272MOL0     C35833   5.162   4.210   3.617 -0.7199 -0.1556 -0.2920
  272MOL0     C35834   5.263   4.106   3.639 -0.6333  1.2386 -0.4122
  272MOL0     C35835   5.377   4.116   3.544  1.1676  0.6631  0.5828
  272MOL0     C35836   5.468   4.145   3.463  0.2370  0.7548 -0.1536
  272MOL0     C35837   4.797   3.999   3.381  0.5666 -0.6838 -0.4863
  272MOL0     C35838   4.746   3.883   3.328 -0.6910 -0.2557  0.3883
  272MOL0     H35839   4.775   3.380   3.346  0.9412 -1.7002  1.4122
  272MOL0     H35840   4.750   3.170   3.232 -0.1953  0.6615  0.4534
  272MOL0     H35841   4.536   3.003   3.136 -0.5564 -0.5285  0.5604
  272MOL0     H35842   4.698   2.985   3.073 -0.7261 -0.2742  0.4222
  272MOL0     H35843   4.449   2.972   2.918 -0.7398  0.2208  1.2895
  272MOL0     H35844   4.509   2.825   2.984  0.7373 -0.2075 -2.2547
  272MOL0     H35845   4.729   2.888   2.844  0.4742  1.4918  2.7991
  272MOL0     H35846   4.629   2.995   2.747 -2.9780 -0.6005 -0.0159
  272MOL0     H35847   4.531   2.708   2.782  1.3913 -2.2808  0.9967
  272MOL0     H35848   4.503   2.823   2.655  3.2289 -0.0985 -2.5342
  272MOL0     H35849   4.635   2.668   2.546  1.6740 -0.0977 -1.9890
  272MOL0     H35850   4.770   2.699   2.679  2.1381  0.0071 -3.4684
  272MOL0     H35851   4.791   2.926   2.592 -2.0586  1.5255 -0.6669
  272MOL0     H35852   4.655   2.888   2.487 -1.4721  0.9950  3.5136
  272MOL0     H35853   4.904   2.736   2.459 -0.2034 -1.1394 -1.3232
  272MOL0     H35854   4.770   2.741   2.344 -0.4864  1.8356 -0.1634
  272MOL0     H35855   4.941   2.988   2.374  1.0906 -1.9872  2.2342
  272MOL0     H35856   4.805   2.955   2.260  1.2624 -0.1890 -2.4719
  272MOL0     H35857   5.135   2.777   2.359 -1.3049  0.4402 -0.4249
  272MOL0     H35858   5.230   2.568   2.056 -0.6915  1.8657 -1.3867
  272MOL0     H35859   5.236   2.531   2.232 -1.4754  0.3304 -0.2033
  272MOL0     H35860   5.452   2.633   2.179  1.6499  0.8775 -0.2069
  272MOL0     H35861   5.354   2.740   2.285 -0.7150  2.5123 -1.0718
  272MOL0     H35862   5.363   2.777   1.984  1.7370  1.0689 -0.0634
  272MOL0     H35863   5.281   2.885   2.111 -2.2608 -1.7670 -1.2016
  272MOL0     H35864   5.480   2.945   2.214  1.5719 -0.4111  0.2887
  272MOL0     H35865   5.458   2.997   2.046 -1.1917  0.0741 -0.1289
  272MOL0     H35866   5.803   2.724   2.173  3.4150 -0.9563 -0.5076
  272MOL0     H35867   6.016   2.809   2.218  1.6864  2.1150  1.7729
  272MOL0     H35868   6.374   3.073   2.384  2.1651 -0.0180  1.2624
  272MOL0     H35869   6.617   3.166   2.331  3.3671 -1.1590 -1.4983
  272MOL0     H35870   6.872   3.294   2.113  0.1540 -0.5109  2.0618
  272MOL0     H35871   6.749   3.309   2.233 -1.0282 -1.2181 -0.4648
  272MOL0     H35872   6.576   3.391   2.075  0.6016 -1.2508  1.2188
  272MOL0     H35873   6.684   3.394   1.940  0.1049  1.4653 -0.9468
  272MOL0     H35874   6.710   3.535   2.202  2.3661 -1.8466  0.1564
  272MOL0     H35875   6.674   3.617   2.050  1.9083  2.3949  0.7250
  272MOL0     H35876   6.880   3.676   2.096  1.4234  0.2380 -2.7050
  272MOL0     H35877   6.950   3.515   2.121  2.3597 -0.2502 -2.5120
  272MOL0     H35878   6.809   3.623   1.861  0.4200  2.3915  0.3673
  272MOL0     H35879   6.928   3.477   1.868  4.1526  2.2324  0.4572
  272MOL0     H35880   7.038   3.640   1.766  0.8161 -1.8827  0.4536
  272MOL0     H35881   7.090   3.636   1.943 -0.6424  2.0092  0.3877
  272MOL0     H35882   6.907   3.844   1.821 -1.1565 -0.5508  0.2060
  272MOL0     H35883   6.982   3.832   1.996 -0.1353 -0.8187 -0.3317
  272MOL0     H35884   7.145   3.878   1.742  0.2561  1.5730 -0.1452
  272MOL0     H35885   7.202   3.836   1.901 -0.1084  0.2599  0.3248
  272MOL0     H35886   6.569   3.031   1.923  1.4656 -0.6960  0.3515
  272MOL0     H35887   6.348   2.967   1.966 -0.0638  0.7286 -1.0421
  272MOL0     H35888   5.887   3.218   2.106  3.4143 -0.6050 -4.1620
  272MOL0     H35889   5.667   3.129   2.056 -1.4934 -0.8243  1.2412
  272MOL0     H35890   4.493   3.376   2.946 -0.8203 -1.8895  0.8144
  272MOL0     H35891   4.565   3.587   3.037 -0.4672 -1.2803 -1.7248
  272MOL0     H35892   4.632   3.758   3.630  0.0114  1.7022  1.5878
  272MOL0     H35893   4.716   3.983   3.707  0.5750  1.0025 -0.9610
  272MOL0     H35894   4.932   4.325   3.548 -3.6681 -1.1601  1.3605
  272MOL0     H35895   4.890   4.240   3.397 -1.4380 -1.9879 -0.1395
  272MOL0     H35896   5.098   4.084   3.466  1.8712  0.7121  1.0061
  272MOL0     H35897   5.137   4.246   3.413 -0.3984 -0.6842 -0.9054
  272MOL0     H35898   5.099   4.216   3.706  0.4863 -1.4786  0.6758
  272MOL0     H35899   5.209   4.309   3.617 -0.0103 -0.4520 -2.1328
  272MOL0     H35900   5.312   4.117   3.736 -0.7333 -2.5760  0.2186
  272MOL0     H35901   5.232   4.001   3.636 -0.3854  1.1258 -4.0324
  272MOL0     H35902   5.553   4.176   3.405  0.0894  1.4394 -0.0086
  272MOL0     H35903   4.867   4.050   3.314  0.7571  1.0486  0.9481
  272MOL0     H35904   4.771   3.859   3.226  1.0336 -0.9286  0.9402
  273MOL0     O35905  10.434  11.302   2.011  0.0413 -0.2578 -0.1805
  273MOL0     C35906  10.528  11.257   1.945 -0.1353  0.9337 -0.1575
  273MOL0     O35907  10.595  11.149   1.981  1.0093  0.7497  0.6210
  273MOL0     C35908  10.556  11.067   2.085  0.3793  0.6347  0.9326
  273MOL0     C35909  10.424  11.021   2.100 -0.3621  0.5758  0.0298
  273MOL0     C35910  10.378  10.948   2.205 -0.5866  1.4355  1.2710
  273MOL0     C35911  10.469  10.917   2.302 -0.8306 -0.4424 -0.6879
  273MOL0     O35912  10.440  10.847   2.415 -0.6373 -0.7231 -0.2534
  273MOL0     C35913  10.457  10.704   2.402  0.0540 -0.1584  0.5283
  273MOL0     C35914  10.318  10.642   2.368  0.2386  0.0662 -0.3514
  273MOL0     C35915  10.318  10.498   2.400  0.8421  1.0433  0.0702
  273MOL0     C35916  10.336  10.458   2.547 -0.1254  0.3952  0.1631
  273MOL0     C35917  10.262  10.338   2.606  0.7329 -0.4565  0.0436
  273MOL0     C35918  10.107  10.332   2.597 -0.2612 -1.1032 -0.4526
  273MOL0     C35919  10.055  10.234   2.710  0.1871 -0.5074 -0.3126
  273MOL0     C35920  10.078  10.081   2.686 -0.1809 -0.7480  0.0010
  273MOL0     N35921  10.021  10.012   2.796 -0.2931  0.0070 -0.8335
  273MOL0     C35922  10.058  10.038   2.932 -0.2937  0.0331 -0.4220
  273MOL0     C35923  10.005   9.933   2.988  0.4638 -0.8827 -0.1316
  273MOL0     C35924  10.015   9.925   3.140 -0.4396 -0.0300 -0.2924
  273MOL0     C35925   9.910   9.832   3.199 -0.7100  0.3585  0.2295
  273MOL0     C35926   9.954   9.798   3.350  0.0707 -1.6446  0.1889
  273MOL0     C35927   9.868   9.681   3.389  0.2887  0.5711 -0.9807
  273MOL0     O35928   9.925   9.618   3.508  1.2651  0.7016 -0.1972
  273MOL0     C35929   9.859   9.515   3.576 -0.4230 -0.9314 -0.0764
  273MOL0     C35930   9.745   9.462   3.516 -0.2198  1.9015  0.2386
  273MOL0     C35931   9.678   9.360   3.588 -0.5749 -0.1576  0.5076
  273MOL0     C35932   9.734   9.304   3.706 -0.0682 -0.5230  0.5490
  273MOL0     C35933   9.665   9.203   3.793 -0.0775 -0.9437  0.2217
  273MOL0     O35934   9.691   9.197   3.931 -0.1220  0.1343 -0.7618
  273MOL0     C35935   9.605   9.126   4.017 -0.6359 -0.4570  0.0431
  273MOL0     C35936   9.520   9.208   4.097  0.6366 -0.0312  0.1597
  273MOL0     C35937   9.430   9.146   4.189 -0.0841 -0.1490  0.6526
  273MOL0     C35938   9.413   9.015   4.177  1.2331 -0.1363 -0.1263
  273MOL0     O35939   9.307   8.976   4.252 -0.3933 -0.1805 -0.6367
  273MOL0     C35940   9.329   8.869   4.352  0.5079  0.3492  0.3672
  273MOL0     C35941   9.385   8.919   4.483  0.1787  0.3503  0.1153
  273MOL0     C35942   9.304   9.002   4.572  0.1559  0.5807 -0.2738
  273MOL0     C35943   9.373   9.036   4.705  0.4490  0.4887 -0.5280
  273MOL0     C35944   9.278   9.109   4.805  0.0661  0.0438 -0.0461
  273MOL0     C35945   9.344   9.165   4.935 -0.6583  0.0330 -0.5753
  273MOL0     C35946   9.400   9.066   5.044  0.2778  0.2225 -0.9683
  273MOL0     C35947   9.302   9.037   5.159 -0.4105  0.3197  0.9340
  273MOL0    Cl35948   9.353   8.908   5.254  0.1501 -0.2105  0.1548
  273MOL0     C35949   9.496   8.928   4.101 -0.3259  0.0562 -0.1714
  273MOL0     C35950   9.588   8.987   4.012  0.5326 -0.5054 -0.3526
  273MOL0     O35951   9.575   9.141   3.732  0.4255  0.6632  0.4910
  273MOL0     C35952   9.844   9.358   3.762 -0.0780  0.4752  0.0411
  273MOL0     C35953   9.908   9.469   3.697 -0.0835 -0.3173 -0.4047
  273MOL0     N35954   9.951   9.840   2.900  1.0063 -0.6124 -0.2879
  273MOL0     N35955   9.965   9.884   2.786 -0.0029 -0.1254 -0.0930
  273MOL0     C35956  10.606  10.953   2.286 -0.6415  0.2055  0.6080
  273MOL0     C35957  10.644  11.035   2.184 -0.0794  0.0358 -0.0401
  273MOL0     C35958  10.555  11.321   1.818  0.5032  0.4719 -0.2672
  273MOL0     C35959  10.601  11.247   1.708  0.4533 -0.2326 -0.1960
  273MOL0     C35960  10.622  11.301   1.583 -0.0489 -0.1183 -0.5880
  273MOL0     C35961  10.595  11.442   1.558 -0.3357 -0.4118  0.5475
  273MOL0     O35962  10.606  11.503   1.431  0.2430  0.2014 -0.3961
  273MOL0     C35963  10.628  11.429   1.311  0.1744  1.1171 -0.2666
  273MOL0     C35964  10.666  11.529   1.204  0.0959  0.3172  0.5705
  273MOL0     C35965  10.551  11.582   1.134 -0.0983  0.0497  0.5255
  273MOL0     C35966  10.545  11.737   1.140 -0.0437 -0.0157 -0.1834
  273MOL0     C35967  10.645  11.809   1.057 -0.5217 -0.2934 -0.2833
  273MOL0     C35968  10.729  11.871   1.000 -1.0797 -0.5830  0.0288
  273MOL0     C35969  10.557  11.519   1.668  1.2878 -0.1403 -0.5129
  273MOL0     C35970  10.547  11.456   1.795  0.4758  0.1343 -0.1189
  273MOL0     H35971  10.373  11.049   2.009  3.2611  0.5684 -2.2026
  273MOL0     H35972  10.272  10.924   2.203 -0.4944  0.5582 -3.0449
  273MOL0     H35973  10.489  10.663   2.498  1.5577  1.9775  1.0354
  273MOL0     H35974  10.527  10.677   2.323 -1.0785 -0.5482 -0.3668
  273MOL0     H35975  10.294  10.643   2.262 -1.7021  0.4789  0.0656
  273MOL0     H35976  10.235  10.690   2.420  0.2946  1.5611 -1.5511
  273MOL0     H35977  10.398  10.448   2.345  0.6586 -3.3943  3.3119
  273MOL0     H35978  10.226  10.449   2.367 -0.5656  1.4976  2.9335
  273MOL0     H35979  10.438  10.420   2.564 -0.3778  0.2324  1.4340
  273MOL0     H35980  10.324  10.547   2.610 -0.5214 -0.3979  1.2456
  273MOL0     H35981  10.283  10.334   2.714 -1.7366  0.8452  0.6530
  273MOL0     H35982  10.298  10.246   2.560 -0.6171 -0.3487 -1.3234
  273MOL0     H35983  10.083  10.307   2.493  2.9098  3.1951 -2.5350
  273MOL0     H35984  10.074  10.434   2.620  6.2560  1.2162  0.8292
  273MOL0     H35985  10.104  10.262   2.804  1.9895  0.6603 -1.5498
  273MOL0     H35986   9.947  10.245   2.725  0.2070 -0.8378  0.1114
  273MOL0     H35987  10.186  10.061   2.684  0.4013  2.0324 -1.1623
  273MOL0     H35988  10.034  10.058   2.589  2.0657  1.5296 -1.6938
  273MOL0     H35989  10.123  10.117   2.970  2.1801 -0.3821 -3.3633
  273MOL0     H35990   9.998  10.027   3.176  0.4367 -0.4663  1.5090
  273MOL0     H35991  10.115   9.893   3.173  0.9633  4.4722  0.5912
  273MOL0     H35992   9.907   9.742   3.136 -3.1007 -2.2662  3.6856
  273MOL0     H35993   9.810   9.876   3.196 -0.8702  0.3615 -5.4743
  273MOL0     H35994  10.061   9.785   3.367 -0.0507  0.4840  3.6396
  273MOL0     H35995   9.920   9.884   3.410 -0.9901 -1.3775 -0.7613
  273MOL0     H35996   9.856   9.600   3.317 -2.1726  2.0448 -2.3775
  273MOL0     H35997   9.768   9.717   3.415  0.0160 -0.8509  0.0830
  273MOL0     H35998   9.706   9.490   3.419 -1.0438  3.7468  1.0546
  273MOL0     H35999   9.588   9.307   3.559 -0.0169 -1.7210  1.4696
  273MOL0     H36000   9.521   9.316   4.096  3.3934  0.0338 -2.1780
  273MOL0     H36001   9.359   9.203   4.247 -1.6701 -1.2683 -0.0985
  273MOL0     H36002   9.398   8.801   4.300 -0.1980 -1.0366  1.1813
  273MOL0     H36003   9.229   8.828   4.369  1.2641 -1.2904  1.1215
  273MOL0     H36004   9.477   8.977   4.470 -1.0386  3.7447  4.2087
  273MOL0     H36005   9.419   8.823   4.524  1.0408  0.4396 -0.3797
  273MOL0     H36006   9.208   8.960   4.604 -0.4485  2.0361 -0.0841
  273MOL0     H36007   9.277   9.096   4.523  0.6621  0.9025  0.0574
  273MOL0     H36008   9.399   8.942   4.754  2.1273  0.4657 -1.3869
  273MOL0     H36009   9.461   9.102   4.701 -2.1973  4.8613  3.5395
  273MOL0     H36010   9.205   9.030   4.821 -0.0441 -0.3185 -2.0818
  273MOL0     H36011   9.227   9.190   4.752 -0.8457 -0.1614  0.5017
  273MOL0     H36012   9.275   9.234   4.983 -2.1770 -0.4385 -1.9940
  273MOL0     H36013   9.426   9.227   4.898 -2.6527  1.4582 -2.9347
  273MOL0     H36014   9.430   8.973   4.995  1.6851  0.6986 -1.0578
  273MOL0     H36015   9.493   9.105   5.087 -0.3372  0.3543  0.2869
  273MOL0     H36016   9.204   9.026   5.112 -0.7836  1.8780  1.2798
  273MOL0     H36017   9.309   9.129   5.218  2.6064  1.0456 -0.3119
  273MOL0     H36018   9.478   8.822   4.089 -1.3836 -0.0660  2.0784
  273MOL0     H36019   9.647   8.918   3.953  0.1886  0.0088 -1.3254
  273MOL0     H36020   9.882   9.333   3.861 -0.0983  4.1587  1.1460
  273MOL0     H36021   9.992   9.514   3.750 -2.8694  1.6178  2.7210
  273MOL0     H36022  10.674  10.922   2.364  0.5033  1.2176  0.0529
  273MOL0     H36023  10.751  11.050   2.186  0.7169 -4.2855  0.2946
  273MOL0     H36024  10.608  11.139   1.714 -0.8202 -0.4666 -2.0364
  273MOL0     H36025  10.653  11.241   1.498  3.0944 -2.4969  1.9816
  273MOL0     H36026  10.533  11.382   1.282 -0.0066 -0.5024  2.6359
  273MOL0     H36027  10.701  11.348   1.320 -0.1875  0.5182 -2.2497
  273MOL0     H36028  10.732  11.601   1.254  2.3101 -2.0868  1.3402
  273MOL0     H36029  10.730  11.484   1.128  2.6992  3.2444  0.8375
  273MOL0     H36030  10.460  11.554   1.189  0.1770 -4.4472 -0.8721
  273MOL0     H36031  10.542  11.544   1.032  0.3402 -0.2604  0.5996
  273MOL0     H36032  10.448  11.766   1.098 -0.4828 -4.6939 -3.1231
  273MOL0     H36033  10.548  11.772   1.244  0.5746  0.5689 -0.3929
  273MOL0     H36034  10.783  11.936   0.934 -0.4169  1.2173  2.2048
  273MOL0     H36035  10.543  11.627   1.669 -4.1537 -0.5853  0.5565
  273MOL0     H36036  10.510  11.507   1.884 -1.7908 -4.8958  2.2128
  274MOL0     O36037   7.825  10.206   7.175  0.1000  0.5156 -0.5163
  274MOL0     C36038   7.792  10.240   7.289  0.5916 -0.6507 -0.3620
  274MOL0     O36039   7.774  10.367   7.329  0.0624  0.0254 -0.0149
  274MOL0     C36040   7.674  10.437   7.259  0.0876 -0.5187  0.1977
  274MOL0     C36041   7.700  10.558   7.187  1.2662  0.5822 -0.3624
  274MOL0     C36042   7.600  10.637   7.128  0.8758  0.3311 -0.0312
  274MOL0     C36043   7.464  10.585   7.119  0.2662  2.0103  0.9430
  274MOL0     O36044   7.358  10.639   7.050 -1.0200 -0.2018 -0.0060
  274MOL0     C36045   7.380  10.735   6.951 -0.1133  0.3452  0.3659
  274MOL0     C36046   7.318  10.866   6.994  0.2035 -0.4392 -0.7650
  274MOL0     C36047   7.240  10.931   6.881  0.9044 -0.4364  0.3844
  274MOL0     C36048   7.186  11.082   6.917  0.8676  0.7060  0.4356
  274MOL0     C36049   7.224  11.194   6.820  0.9738  0.4635  0.5055
  274MOL0     C36050   7.146  11.178   6.688  0.6182  0.1723  0.3436
  274MOL0     C36051   7.174  11.297   6.600  0.1582  0.4228  0.1793
  274MOL0     C36052   7.095  11.416   6.640  0.3119  0.7762  0.4974
  274MOL0     N36053   7.115  11.526   6.544 -0.5058  0.4023  0.3957
  274MOL0     C36054   7.165  11.643   6.576  0.3314  0.4240 -0.2615
  274MOL0     C36055   7.208  11.700   6.460 -0.1334 -0.5244 -0.2212
  274MOL0     C36056   7.268  11.836   6.435  0.8239  0.2249 -0.1062
  274MOL0     C36057   7.413  11.834   6.476 -0.0041 -0.3183  0.3919
  274MOL0     C36058   7.504  11.732   6.404  0.5040 -0.2582  0.2246
  274MOL0     C36059   7.652  11.749   6.446  0.0459  0.0852 -0.4061
  274MOL0     O36060   7.650  11.694   6.584 -0.6761 -0.4411 -0.3727
  274MOL0     C36061   7.712  11.578   6.621  0.2599 -0.6705 -0.6429
  274MOL0     C36062   7.824  11.568   6.710  0.1004 -0.1837  0.7865
  274MOL0     C36063   7.885  11.448   6.738 -0.2098  0.3134  0.6959
  274MOL0     C36064   7.847  11.327   6.676  0.1630 -0.7007  0.3006
  274MOL0     C36065   7.908  11.195   6.702 -0.1422  0.2640  0.0834
  274MOL0     O36066   7.846  11.079   6.665 -0.5275  0.0451  0.6893
  274MOL0     C36067   7.877  10.951   6.716  0.8110 -0.9192 -0.8927
  274MOL0     C36068   7.761  10.880   6.767 -0.0579  0.4934 -0.0024
  274MOL0     C36069   7.790  10.757   6.833  0.0936 -0.8463  0.5738
  274MOL0     C36070   7.919  10.714   6.857  0.3751 -0.1256  0.4506
  274MOL0     O36071   7.927  10.600   6.935 -0.6708  0.1327  0.0586
  274MOL0     C36072   8.053  10.535   6.952  0.1249 -0.1214  0.4167
  274MOL0     C36073   8.027  10.416   7.044 -0.7043  0.0396  0.0086
  274MOL0     C36074   8.161  10.342   7.071  0.2243  0.4559  0.0842
  274MOL0     C36075   8.154  10.256   7.203  0.1267 -0.2420  0.3386
  274MOL0     C36076   8.292  10.215   7.251  0.4979  0.1103  0.9428
  274MOL0     C36077   8.301  10.174   7.398  0.1856 -0.3501 -0.0126
  274MOL0     C36078   8.437  10.118   7.430 -0.6743  0.5183  0.8528
  274MOL0     C36079   8.437  10.079   7.573 -0.1408 -0.5311  0.3095
  274MOL0    Cl36080   8.582   9.991   7.620  0.3214 -0.1420  0.0615
  274MOL0     C36081   8.027  10.785   6.818  0.4115 -1.3283 -0.5742
  274MOL0     C36082   8.008  10.904   6.739 -0.4284  0.6780  0.5819
  274MOL0     O36083   8.006  11.193   6.779  0.5019 -0.1033  0.1554
  274MOL0     C36084   7.738  11.341   6.584 -1.1934  0.8382  1.0368
  274MOL0     C36085   7.668  11.457   6.558  0.7163  0.5637 -0.0032
  274MOL0     N36086   7.171  11.615   6.358 -0.7015 -0.7059 -0.5184
  274MOL0     N36087   7.125  11.507   6.409  0.0980  0.7461 -0.3547
  274MOL0     C36088   7.441  10.459   7.179  0.7775 -0.3860  0.4835
  274MOL0     C36089   7.544  10.385   7.244  0.6131  0.3542  0.2832
  274MOL0     C36090   7.779  10.142   7.402  0.2837 -0.8123  0.2036
  274MOL0     C36091   7.707  10.019   7.386 -0.1881  0.4482  0.3831
  274MOL0     C36092   7.685   9.938   7.497 -0.0493 -0.7218  0.2825
  274MOL0     C36093   7.720   9.978   7.624 -1.2468 -0.0553 -0.1646
  274MOL0     O36094   7.701   9.888   7.725  0.7147  0.0917  0.4647
  274MOL0     C36095   7.807   9.854   7.819  0.2225 -0.4030  0.3851
  274MOL0     C36096   7.918   9.786   7.740 -0.3294  0.6917 -0.2206
  274MOL0     C36097   7.859   9.651   7.717 -1.1275  0.0264 -0.3209
  274MOL0     C36098   7.967   9.569   7.654 -0.5681 -0.1499 -0.4397
  274MOL0     C36099   7.929   9.437   7.615  0.2633  0.6995  0.4504
  274MOL0     C36100   7.897   9.324   7.571 -0.2582 -0.2911  0.4503
  274MOL0     C36101   7.801  10.091   7.636  0.0958 -0.4086  0.2527
  274MOL0     C36102   7.827  10.176   7.530  0.6864 -0.5446  0.9618
  274MOL0     H36103   7.805  10.586   7.186  2.1202 -1.9485  2.3208
  274MOL0     H36104   7.634  10.727   7.079  0.0234 -0.2090 -1.6666
  274MOL0     H36105   7.335  10.697   6.859  0.4571  2.1556 -0.7177
  274MOL0     H36106   7.486  10.753   6.929  0.4255 -1.1875  1.5657
  274MOL0     H36107   7.396  10.932   7.033 -1.7413 -0.2913  3.5369
  274MOL0     H36108   7.243  10.832   7.066  0.7514 -2.5177 -1.1114
  274MOL0     H36109   7.155  10.863   6.866  0.8744 -0.7132  1.6461
  274MOL0     H36110   7.302  10.940   6.792  1.1488 -0.4485  0.5491
  274MOL0     H36111   7.078  11.074   6.932  1.0712 -0.9420  1.2625
  274MOL0     H36112   7.226  11.109   7.015  1.6555  1.7707 -0.1532
  274MOL0     H36113   7.326  11.173   6.785  0.1492 -1.2061 -1.0685
  274MOL0     H36114   7.215  11.293   6.866 -0.6302  1.2518 -1.3913
  274MOL0     H36115   7.039  11.168   6.710  0.6167 -0.8434 -0.0316
  274MOL0     H36116   7.175  11.091   6.628  1.5733  1.5027 -1.2147
  274MOL0     H36117   7.280  11.323   6.608 -0.1863  1.4395  1.8533
  274MOL0     H36118   7.166  11.271   6.494  2.3566 -0.4334  0.1699
  274MOL0     H36119   7.128  11.457   6.735  0.3890  1.4650  0.1803
  274MOL0     H36120   6.988  11.392   6.639  1.0391 -3.2394  0.7988
  274MOL0     H36121   7.184  11.688   6.673  0.6041  2.3027 -1.1433
  274MOL0     H36122   7.204  11.903   6.493  0.2240 -0.4935  0.0722
  274MOL0     H36123   7.250  11.880   6.336  2.2675  2.0746  0.3793
  274MOL0     H36124   7.411  11.814   6.584 -4.9913 -0.8673  0.4502
  274MOL0     H36125   7.461  11.931   6.462  1.7334 -0.8656  2.0569
  274MOL0     H36126   7.464  11.632   6.428 -1.6662  0.9696  2.1374
  274MOL0     H36127   7.497  11.755   6.298 -1.0934  0.7722  0.5136
  274MOL0     H36128   7.682  11.854   6.448  1.7610 -0.3531 -1.3165
  274MOL0     H36129   7.723  11.696   6.381  1.9077  2.5195 -0.4892
  274MOL0     H36130   7.851  11.665   6.750 -1.5848  1.2018 -1.2278
  274MOL0     H36131   7.971  11.448   6.804  0.4895  0.8314 -0.1894
  274MOL0     H36132   7.664  10.927   6.760  1.9371  4.8794 -3.0006
  274MOL0     H36133   7.720  10.688   6.880  0.7551 -2.2561 -0.4504
  274MOL0     H36134   8.128  10.605   6.989 -0.0796  1.0116 -1.2036
  274MOL0     H36135   8.091  10.503   6.854  0.1133  0.6794  0.1409
  274MOL0     H36136   7.964  10.341   6.994  1.7401 -2.4095  0.3505
  274MOL0     H36137   7.972  10.441   7.135  1.6741  1.9591  1.0365
  274MOL0     H36138   8.241  10.417   7.071 -0.1112  0.8197 -0.4066
  274MOL0     H36139   8.190  10.273   6.991  0.5856 -0.9720  1.4101
  274MOL0     H36140   8.105  10.315   7.281 -1.7654 -1.4165  0.1022
  274MOL0     H36141   8.097  10.164   7.186  2.2372 -1.6123  0.3133
  274MOL0     H36142   8.348  10.308   7.245  0.4108  0.1162 -3.2960
  274MOL0     H36143   8.328  10.135   7.185 -3.0173 -2.0172  1.3163
  274MOL0     H36144   8.215  10.107   7.406 -1.4544  0.5411 -5.6936
  274MOL0     H36145   8.267  10.257   7.460 -2.6073 -0.0027 -1.8186
  274MOL0     H36146   8.465  10.030   7.372 -3.3505 -0.9521  1.5937
  274MOL0     H36147   8.513  10.195   7.416  0.2827 -0.2667  1.6252
  274MOL0     H36148   8.357  10.006   7.591  1.3440 -1.8594  1.8200
  274MOL0     H36149   8.406  10.156   7.644 -1.6467 -2.8456  2.3370
  274MOL0     H36150   8.128  10.759   6.848  0.2738  0.4027  1.6680
  274MOL0     H36151   8.096  10.963   6.717  2.2749 -2.7744  1.2466
  274MOL0     H36152   7.712  11.249   6.533 -1.9775  1.6617 -0.0905
  274MOL0     H36153   7.578  11.446   6.498  0.2410  0.5588  0.6959
  274MOL0     H36154   7.335  10.432   7.178  0.2152  1.4523  2.3978
  274MOL0     H36155   7.514  10.287   7.278 -1.2067  0.4577 -0.9379
  274MOL0     H36156   7.659   9.982   7.296 -0.4705 -0.0597  0.7346
  274MOL0     H36157   7.628   9.846   7.484 -0.6392 -0.0005 -3.3231
  274MOL0     H36158   7.769   9.796   7.904 -3.4990 -0.4073 -1.1034
  274MOL0     H36159   7.836   9.953   7.854 -2.0069  0.8069 -1.0193
  274MOL0     H36160   7.934   9.837   7.644  2.2996 -1.3279 -0.9808
  274MOL0     H36161   8.014   9.785   7.791  1.2943  3.1300 -2.8914
  274MOL0     H36162   7.774   9.655   7.649 -0.1677 -3.4400 -1.9121
  274MOL0     H36163   7.831   9.607   7.813 -1.8484 -1.5071 -1.2053
  274MOL0     H36164   8.013   9.611   7.564 -0.4262 -1.5305 -1.0378
  274MOL0     H36165   8.047   9.557   7.726 -0.6108  0.2893 -0.3124
  274MOL0     H36166   7.859   9.236   7.523 -1.8996  0.4092  0.4016
  274MOL0     H36167   7.842  10.112   7.734  0.3960 -0.5521  0.1598
  274MOL0     H36168   7.880  10.268   7.552  1.9755 -1.8480  3.6836
  275MOL0     O36169   9.007   5.576   0.965  0.1405 -0.5392 -0.2204
  275MOL0     C36170   8.979   5.552   1.081  0.4668 -0.1375 -1.0238
  275MOL0     O36171   8.864   5.615   1.148 -0.9591 -0.3597  0.0456
  275MOL0     C36172   8.797   5.708   1.077  0.0381 -0.3704 -0.9815
  275MOL0     C36173   8.854   5.821   1.013  0.0788  0.5815  0.0329
  275MOL0     C36174   8.756   5.916   0.968  0.2785  0.8576 -0.3573
  275MOL0     C36175   8.614   5.908   0.980 -0.3248 -0.5133  0.0773
  275MOL0     O36176   8.521   5.987   0.923 -0.1093  0.2690  0.2868
  275MOL0     C36177   8.562   6.063   0.816  0.1806 -0.2267  0.5459
  275MOL0     C36178   8.431   6.136   0.765  0.5164 -0.2376  0.1747
  275MOL0     C36179   8.344   6.190   0.876  0.3679  0.6832  0.2799
  275MOL0     C36180   8.244   6.289   0.822  1.2533  0.5181 -0.6264
  275MOL0     C36181   8.145   6.318   0.944 -0.7851  0.3203  0.8131
  275MOL0     C36182   8.033   6.412   0.891 -0.5047  0.4855 -0.2534
  275MOL0     C36183   7.919   6.403   1.007 -0.7618 -0.3426  0.3564
  275MOL0     C36184   7.847   6.268   1.001  0.4023  0.8523  0.0051
  275MOL0     N36185   7.813   6.232   1.142 -0.2791 -0.4386  0.6853
  275MOL0     C36186   7.687   6.258   1.202 -0.0424  0.7544 -0.6473
  275MOL0     C36187   7.705   6.228   1.333 -0.7367 -0.4519 -0.7953
  275MOL0     C36188   7.596   6.212   1.450 -0.3614  0.2323  0.9774
  275MOL0     C36189   7.651   6.220   1.597 -0.9739 -0.0150 -0.1216
  275MOL0     C36190   7.659   6.360   1.643 -0.3508 -0.0351  0.0367
  275MOL0     C36191   7.717   6.461   1.542 -0.2128  0.1413  0.1843
  275MOL0     O36192   7.723   6.600   1.583 -0.0923  0.0252  0.6039
  275MOL0     C36193   7.796   6.644   1.691  0.6791  0.6544  0.4394
  275MOL0     C36194   7.776   6.768   1.755 -0.1533  0.4144  0.7077
  275MOL0     C36195   7.862   6.805   1.855 -0.0929  0.5559  0.3300
  275MOL0     C36196   7.971   6.726   1.897  0.2754 -0.1139 -0.0939
  275MOL0     C36197   8.044   6.767   2.017  0.0394  0.8516 -0.0198
  275MOL0     O36198   8.096   6.665   2.085  0.7889 -0.5472  0.0436
  275MOL0     C36199   8.215   6.680   2.158  0.6009  0.7736 -0.1206
  275MOL0     C36200   8.224   6.638   2.289 -0.8774  0.3062 -0.1168
  275MOL0     C36201   8.345   6.657   2.367  0.3275  0.2693  0.5327
  275MOL0     C36202   8.460   6.718   2.316  0.8912  0.4844  0.2658
  275MOL0     O36203   8.561   6.745   2.406  0.0089  0.3273  0.1163
  275MOL0     C36204   8.687   6.763   2.334  0.2887 -0.0015 -0.3484
  275MOL0     C36205   8.801   6.776   2.439  0.4473 -0.3928 -0.3305
  275MOL0     C36206   8.833   6.633   2.495 -0.7044 -0.2996 -0.5996
  275MOL0     C36207   8.960   6.628   2.593  0.4742 -0.3369 -1.0481
  275MOL0     C36208   8.973   6.490   2.665  0.1373  0.0299 -0.5364
  275MOL0     C36209   9.071   6.488   2.783  0.2768 -0.7362  0.6568
  275MOL0     C36210   9.203   6.560   2.766  0.0698 -0.6253  0.3598
  275MOL0     C36211   9.279   6.527   2.644  0.4550 -0.2109 -0.6547
  275MOL0    Cl36212   9.414   6.647   2.643 -0.0854 -0.3470 -0.3553
  275MOL0     C36213   8.451   6.747   2.177 -0.2450 -0.9153 -0.5779
  275MOL0     C36214   8.336   6.734   2.100  0.8660  0.0281  0.2052
  275MOL0     O36215   8.074   6.888   2.032  0.1155 -0.2449 -0.9256
  275MOL0     C36216   7.993   6.612   1.830 -0.6035 -0.0426  0.2934
  275MOL0     C36217   7.911   6.569   1.727  0.3219  1.0235 -0.5161
  275MOL0     N36218   7.829   6.181   1.347 -1.0516 -0.5037 -0.1645
  275MOL0     N36219   7.897   6.190   1.241 -0.0165 -0.4494  0.1760
  275MOL0     C36220   8.568   5.797   1.046  0.3522  0.2415  0.8307
  275MOL0     C36221   8.655   5.699   1.097  0.0225 -0.9897 -0.4814
  275MOL0     C36222   9.045   5.434   1.146 -0.2732 -0.1683  0.0921
  275MOL0     C36223   9.148   5.355   1.076 -0.2489 -0.2335  0.0241
  275MOL0     C36224   9.200   5.241   1.136  0.0132  0.7291 -0.8186
  275MOL0     C36225   9.157   5.205   1.271  0.7420 -1.0102 -0.0490
  275MOL0     O36226   9.203   5.099   1.348  0.2387  0.5770 -0.2555
  275MOL0     C36227   9.285   4.997   1.284 -0.1731  0.4185  0.2057
  275MOL0     C36228   9.288   4.887   1.393 -0.1224  0.2958 -0.6347
  275MOL0     C36229   9.418   4.882   1.476  0.3637  0.4713  0.4619
  275MOL0     C36230   9.409   4.798   1.593 -0.3625  0.9311  0.0264
  275MOL0     C36231   9.395   4.657   1.562 -1.3728  0.1048 -0.2471
  275MOL0     C36232   9.378   4.541   1.541 -0.3902  0.2003 -0.3046
  275MOL0     C36233   9.063   5.296   1.331  0.2165  0.6552 -0.3607
  275MOL0     C36234   9.011   5.416   1.279  0.2530 -0.5004 -0.2376
  275MOL0     H36235   8.962   5.829   1.009  0.3609 -0.6886  2.8458
  275MOL0     H36236   8.796   6.013   0.940 -0.5768  2.1262  2.4412
  275MOL0     H36237   8.599   6.007   0.730  0.3166 -0.3980  0.7146
  275MOL0     H36238   8.632   6.141   0.847  1.5577 -0.6277 -1.3907
  275MOL0     H36239   8.382   6.065   0.698 -0.0867 -1.2603  1.6406
  275MOL0     H36240   8.480   6.217   0.710  0.3095 -0.3162 -0.1242
  275MOL0     H36241   8.395   6.239   0.960 -0.5195 -0.5126  1.5577
  275MOL0     H36242   8.293   6.107   0.926 -2.2988  2.3083  0.4582
  275MOL0     H36243   8.299   6.377   0.787  0.8377 -0.1238 -3.1391
  275MOL0     H36244   8.184   6.242   0.743 -2.6471  1.4871  1.5426
  275MOL0     H36245   8.196   6.368   1.027 -0.8253  0.1487  0.9419
  275MOL0     H36246   8.108   6.222   0.981  0.5348 -1.2088 -1.4932
  275MOL0     H36247   7.985   6.381   0.798 -1.1068  1.7056 -0.3721
  275MOL0     H36248   8.068   6.516   0.883 -1.3156  0.7875 -0.0127
  275MOL0     H36249   7.959   6.433   1.105 -1.6385  0.3709  0.5117
  275MOL0     H36250   7.851   6.487   0.992 -0.0197  0.0475 -1.0225
  275MOL0     H36251   7.904   6.188   0.952  1.6055  1.9113 -0.3900
  275MOL0     H36252   7.758   6.259   0.938  0.1767 -2.3055  0.6045
  275MOL0     H36253   7.597   6.301   1.158 -0.1456 -1.2932 -2.6392
  275MOL0     H36254   7.545   6.116   1.442 -2.3563  1.3077  0.1970
  275MOL0     H36255   7.516   6.284   1.434 -1.6003 -1.5034 -1.0946
  275MOL0     H36256   7.754   6.184   1.593 -1.8228 -3.0397  1.7214
  275MOL0     H36257   7.595   6.160   1.670  0.4477 -2.2080 -0.7268
  275MOL0     H36258   7.558   6.391   1.671 -2.7593 -4.1897 -2.9413
  275MOL0     H36259   7.716   6.363   1.736  1.3951 -1.8473 -0.9007
  275MOL0     H36260   7.646   6.463   1.459  0.4151 -1.4601 -0.4263
  275MOL0     H36261   7.813   6.427   1.501 -0.8926  0.4554 -1.7757
  275MOL0     H36262   7.691   6.828   1.724 -0.2759 -0.7294 -1.3470
  275MOL0     H36263   7.853   6.899   1.910  0.5924  1.0620 -0.3917
  275MOL0     H36264   8.144   6.601   2.352  1.2475  2.3589  4.2290
  275MOL0     H36265   8.348   6.639   2.474 -3.0253  0.8888  0.8463
  275MOL0     H36266   8.681   6.863   2.289  0.8680  1.3572  2.3710
  275MOL0     H36267   8.707   6.679   2.267  1.8871  1.0128 -1.2380
  275MOL0     H36268   8.763   6.844   2.516 -3.5815 -0.2960 -2.1749
  275MOL0     H36269   8.892   6.821   2.398  0.3463  0.4430  0.3341
  275MOL0     H36270   8.838   6.567   2.408 -0.9352  0.4975 -1.2297
  275MOL0     H36271   8.745   6.604   2.553 -0.4876  1.5845  0.7806
  275MOL0     H36272   9.049   6.639   2.531  0.7788  2.9085 -0.2248
  275MOL0     H36273   8.955   6.706   2.670 -2.4303 -2.2689  0.9699
  275MOL0     H36274   9.022   6.421   2.594  0.5190 -0.0493 -0.1994
  275MOL0     H36275   8.880   6.445   2.700  1.1511 -1.0106  0.9471
  275MOL0     H36276   9.096   6.389   2.822  2.2677 -0.1599  0.9269
  275MOL0     H36277   9.023   6.540   2.866  0.8832  1.4956 -0.3173
  275MOL0     H36278   9.185   6.667   2.779 -2.3406 -0.7815 -1.2546
  275MOL0     H36279   9.275   6.533   2.845  3.5368  2.2413 -1.5341
  275MOL0     H36280   9.217   6.534   2.555  1.8749  1.0239 -1.5954
  275MOL0     H36281   9.327   6.430   2.663  1.9671  0.9107  1.7756
  275MOL0     H36282   8.531   6.799   2.126 -1.0527  0.5032 -0.4660
  275MOL0     H36283   8.330   6.761   1.995  3.3412 -0.4296 -0.1157
  275MOL0     H36284   8.074   6.541   1.843  1.3208  1.1872 -3.4360
  275MOL0     H36285   7.939   6.480   1.673 -0.0325  1.5174 -1.5334
  275MOL0     H36286   8.460   5.794   1.054  0.0863 -0.3130 -1.9190
  275MOL0     H36287   8.629   5.628   1.175  3.4151 -0.5953  1.1585
  275MOL0     H36288   9.193   5.378   0.980  4.1048 -0.4954  1.7931
  275MOL0     H36289   9.276   5.182   1.086 -0.7779  2.0840 -3.8520
  275MOL0     H36290   9.385   5.039   1.269 -1.0273  1.8864 -1.9762
  275MOL0     H36291   9.237   4.957   1.194  0.3203  1.5638 -0.5903
  275MOL0     H36292   9.212   4.915   1.466  0.0812 -0.3300 -0.1732
  275MOL0     H36293   9.258   4.797   1.338 -4.5107  1.3588 -0.3695
  275MOL0     H36294   9.433   4.983   1.514  1.6081 -0.1573  1.7273
  275MOL0     H36295   9.500   4.842   1.416  1.3670  0.1849  1.9864
  275MOL0     H36296   9.505   4.803   1.644  0.3299 -0.2335 -1.1234
  275MOL0     H36297   9.335   4.838   1.663  0.2572  1.6840  0.2700
  275MOL0     H36298   9.366   4.435   1.544 -0.6407  0.2416  0.3012
  275MOL0     H36299   9.035   5.278   1.434  1.2750 -1.5697 -0.4049
  275MOL0     H36300   8.935   5.473   1.333 -0.7875 -2.4605  0.4576
  276MOL0     O36301  11.216   0.962   6.553 -0.1542  0.0679  0.0696
  276MOL0     C36302  11.121   0.943   6.481 -0.1843 -0.6657  0.5986
  276MOL0     O36303  10.993   0.924   6.517  0.0852 -0.1559  0.6755
  276MOL0     C36304  10.955   0.915   6.646  0.9536 -0.5948 -0.7385
  276MOL0     C36305  10.857   0.821   6.653 -0.5417 -0.3920 -0.0105
  276MOL0     C36306  10.799   0.801   6.780 -0.9017 -0.0713  0.3403
  276MOL0     C36307  10.830   0.879   6.894  0.6039 -0.7481 -0.3462
  276MOL0     O36308  10.772   0.873   7.019 -0.2599  0.3870  0.3150
  276MOL0     C36309  10.673   0.777   7.060 -0.4951  1.3027 -0.7110
  276MOL0     C36310  10.669   0.753   7.214  0.3340  0.8864  1.1040
  276MOL0     C36311  10.523   0.715   7.257  0.7062  0.0486 -1.0007
  276MOL0     C36312  10.443   0.838   7.266  0.1170 -0.1648 -1.6232
  276MOL0     C36313  10.323   0.834   7.363 -0.0596  0.6643  0.7243
  276MOL0     C36314  10.243   0.958   7.360  0.2544 -0.2676  1.0634
  276MOL0     C36315  10.163   0.963   7.493  0.0883 -0.1625 -0.5838
  276MOL0     C36316  10.051   1.068   7.486 -0.5138  0.0092  0.5041
  276MOL0     N36317   9.927   1.010   7.414 -0.2839 -0.3729 -0.1247
  276MOL0     C36318   9.822   0.959   7.479  0.1021 -0.2545 -0.2676
  276MOL0     C36319   9.742   0.916   7.385 -0.6477  0.2194 -0.0359
  276MOL0     C36320   9.608   0.847   7.410  0.5402 -0.2896 -0.1899
  276MOL0     C36321   9.500   0.953   7.439 -0.3481 -0.2323 -0.0406
  276MOL0     C36322   9.436   1.013   7.305 -0.4838 -0.1039 -0.7330
  276MOL0     C36323   9.346   0.903   7.247  0.1875 -0.4413  0.6207
  276MOL0     O36324   9.236   0.911   7.329  0.3122 -0.2129 -0.8416
  276MOL0     C36325   9.182   0.804   7.396  0.2376  0.5132  0.1822
  276MOL0     C36326   9.230   0.665   7.382  0.7097 -0.1949  0.7628
  276MOL0     C36327   9.178   0.561   7.454  0.9785  0.5267  0.4637
  276MOL0     C36328   9.065   0.582   7.530 -0.8880 -0.6144  0.2309
  276MOL0     C36329   8.996   0.461   7.591  0.3009 -0.8664  1.1467
  276MOL0     O36330   8.879   0.476   7.665  0.7039 -0.1779  0.5316
  276MOL0     C36331   8.831   0.357   7.715  0.3602  0.6383 -0.6974
  276MOL0     C36332   8.743   0.278   7.638  0.2962  0.0787  0.3288
  276MOL0     C36333   8.680   0.168   7.693  0.2552  0.4409  0.2243
  276MOL0     C36334   8.702   0.132   7.831  0.7657 -0.8157 -0.2562
  276MOL0     O36335   8.648   0.018   7.896 -0.7088 -0.6595 -0.6500
  276MOL0     C36336   8.527  -0.050   7.847 -0.1406 -0.0982  0.0317
  276MOL0     C36337   8.565  -0.165   7.756 -0.0921 -0.3497  1.0140
  276MOL0     C36338   8.444  -0.269   7.760  0.5435  0.3000  0.1526
  276MOL0     C36339   8.438  -0.364   7.637 -0.0055  0.3796  0.7169
  276MOL0     C36340   8.421  -0.288   7.498  0.0916  0.1555 -0.1962
  276MOL0     C36341   8.278  -0.247   7.481 -0.5096  0.4506 -0.0415
  276MOL0     C36342   8.234  -0.213   7.337 -0.7505 -0.3895 -0.8286
  276MOL0     C36343   8.094  -0.156   7.328 -0.3086  0.2531 -1.3789
  276MOL0    Cl36344   7.992  -0.269   7.415 -0.1695  0.1317 -0.5428
  276MOL0     C36345   8.780   0.223   7.905 -0.2695  0.3830 -0.0697
  276MOL0     C36346   8.849   0.323   7.851 -0.1176  0.3039  0.1908
  276MOL0     O36347   9.051   0.355   7.572  0.7615  1.1913  0.4503
  276MOL0     C36348   9.008   0.711   7.546 -0.3093  0.2854 -0.4229
  276MOL0     C36349   9.069   0.820   7.482  0.0369  0.9744 -0.7473
  276MOL0     N36350   9.791   0.953   7.264  0.6248 -0.0186  0.4306
  276MOL0     N36351   9.904   1.005   7.278 -0.1723 -0.0942 -0.2051
  276MOL0     C36352  10.936   0.967   6.887 -0.2655 -0.4307  0.1663
  276MOL0     C36353  10.989   0.989   6.760 -0.6608  0.5803 -0.4616
  276MOL0     C36354  11.141   0.926   6.335 -0.0170 -0.2000 -0.3631
  276MOL0     C36355  11.275   0.934   6.279  0.0768  0.5099  0.1780
  276MOL0     C36356  11.289   0.923   6.138  0.3295  0.3315 -0.9063
  276MOL0     C36357  11.186   0.889   6.057 -0.2145  1.0535  0.1238
  276MOL0     O36358  11.214   0.845   5.934  0.0325  0.2196  0.5670
  276MOL0     C36359  11.232   0.944   5.828  0.1196 -0.0786 -0.0024
  276MOL0     C36360  11.111   1.037   5.784 -1.2782 -1.0404  0.0800
  276MOL0     C36361  10.991   0.958   5.740 -0.3014 -0.4272 -0.4753
  276MOL0     C36362  10.989   0.866   5.618  0.3334 -0.0695 -0.6495
  276MOL0     C36363  11.079   0.918   5.522  0.1298  0.4870  0.6514
  276MOL0     C36364  11.151   0.967   5.438  1.0773 -1.7434  0.2333
  276MOL0     C36365  11.058   0.873   6.104  0.5588 -0.2121  0.4863
  276MOL0     C36366  11.031   0.906   6.239 -0.1226  0.6822  0.0502
  276MOL0     H36367  10.827   0.772   6.561  0.7716  2.3862 -2.0407
  276MOL0     H36368  10.716   0.732   6.792 -2.1044  1.0927 -0.9084
  276MOL0     H36369  10.706   0.685   7.011 -2.0364  0.9422 -1.1195
  276MOL0     H36370  10.571   0.795   7.026 -1.8453 -1.3949  1.5342
  276MOL0     H36371  10.704   0.850   7.250  3.3902  1.7137 -3.3645
  276MOL0     H36372  10.733   0.669   7.242 -0.4548  0.1301  0.6785
  276MOL0     H36373  10.528   0.659   7.350  0.9223  0.3726 -0.8159
  276MOL0     H36374  10.484   0.644   7.184  0.3207 -2.0540  1.1428
  276MOL0     H36375  10.499   0.928   7.293 -2.2512  0.4876  1.7359
  276MOL0     H36376  10.428   0.855   7.159 -1.1585 -0.8257 -1.5666
  276MOL0     H36377  10.373   0.823   7.460  0.7301  0.3257  0.2825
  276MOL0     H36378  10.254   0.749   7.371  2.7131 -1.9688 -1.2861
  276MOL0     H36379  10.174   0.953   7.275 -0.6893  1.5488  1.6743
  276MOL0     H36380  10.297   1.052   7.349 -1.8066  1.2620  2.9506
  276MOL0     H36381  10.130   0.863   7.523 -0.3334  0.6257  1.7702
  276MOL0     H36382  10.224   0.981   7.582 -1.4908  0.4901  0.4062
  276MOL0     H36383  10.105   1.150   7.439  0.5483  0.2601  2.0769
  276MOL0     H36384  10.020   1.110   7.582 -2.0325 -1.2588  0.6176
  276MOL0     H36385   9.800   0.941   7.583 -4.6786  3.2521 -0.3463
  276MOL0     H36386   9.611   0.799   7.508 -1.7930 -1.5351 -0.6475
  276MOL0     H36387   9.581   0.779   7.329 -2.8733 -0.4341  0.9272
  276MOL0     H36388   9.534   1.037   7.501  0.8324 -1.3888  0.9067
  276MOL0     H36389   9.416   0.910   7.494 -0.9457  0.3462 -0.4737
  276MOL0     H36390   9.374   1.098   7.335  0.8600 -0.2011  2.8509
  276MOL0     H36391   9.512   1.035   7.229  0.7741 -1.7438 -0.0134
  276MOL0     H36392   9.390   0.804   7.235  3.4359  0.9354  0.1640
  276MOL0     H36393   9.318   0.932   7.145 -3.9479 -0.3950  1.5631
  276MOL0     H36394   9.313   0.640   7.317  2.3846  2.3539  1.7333
  276MOL0     H36395   9.219   0.462   7.438 -1.5481 -0.9956  2.5348
  276MOL0     H36396   8.737   0.295   7.531  1.0833  0.4161  0.3236
  276MOL0     H36397   8.611   0.096   7.648  0.7784 -0.8054  1.3398
  276MOL0     H36398   8.465   0.027   7.799 -0.9318  1.3525  3.1175
  276MOL0     H36399   8.456  -0.094   7.916 -1.7671  2.3705  0.0626
  276MOL0     H36400   8.658  -0.212   7.790 -2.0668 -1.9872  4.6950
  276MOL0     H36401   8.574  -0.123   7.655 -3.6412  3.6710  2.0714
  276MOL0     H36402   8.351  -0.211   7.752  1.1088  1.0612 -1.1996
  276MOL0     H36403   8.443  -0.320   7.857  0.1307  1.0406  0.5541
  276MOL0     H36404   8.531  -0.420   7.638 -0.7188 -1.0917 -2.7973
  276MOL0     H36405   8.358  -0.438   7.647 -2.0958  1.3795 -4.9970
  276MOL0     H36406   8.448  -0.367   7.429 -2.1044 -1.4380  0.6361
  276MOL0     H36407   8.490  -0.206   7.477 -4.2684  3.8372 -2.0261
  276MOL0     H36408   8.254  -0.160   7.543 -1.0859  0.4808 -0.3015
  276MOL0     H36409   8.217  -0.332   7.513 -0.5015  1.2279  2.2991
  276MOL0     H36410   8.292  -0.128   7.301 -3.0196  2.7619  2.1910
  276MOL0     H36411   8.247  -0.302   7.275  1.6284  0.2727 -1.3663
  276MOL0     H36412   8.056  -0.135   7.228 -0.1250 -0.1333 -1.5317
  276MOL0     H36413   8.084  -0.070   7.394  1.5882 -2.0878  2.2905
  276MOL0     H36414   8.796   0.213   8.012 -1.8348 -0.7495  0.0936
  276MOL0     H36415   8.905   0.388   7.918 -0.7705 -0.0981  1.1547
  276MOL0     H36416   8.922   0.734   7.608 -1.4779 -0.1368 -1.8316
  276MOL0     H36417   9.020   0.915   7.499 -2.4263 -0.2685 -0.4221
  276MOL0     H36418  10.946   1.020   6.982 -2.6585 -0.6660  0.6233
  276MOL0     H36419  11.070   1.058   6.738 -1.8479  2.1790  0.0120
  276MOL0     H36420  11.371   0.956   6.323  0.6386 -0.4687 -0.5238
  276MOL0     H36421  11.387   0.930   6.091  0.3696 -0.2436 -0.9181
  276MOL0     H36422  11.264   0.890   5.738 -0.3680 -1.5923  0.6988
  276MOL0     H36423  11.309   1.014   5.861  0.1250 -0.9080  1.8182
  276MOL0     H36424  11.094   1.105   5.868 -2.6420  0.6779 -1.5053
  276MOL0     H36425  11.150   1.103   5.706 -0.1593 -2.8032 -0.9287
  276MOL0     H36426  10.912   1.033   5.727 -0.1924 -0.5645 -2.2794
  276MOL0     H36427  10.967   0.901   5.830 -0.0843  0.4233  0.1342
  276MOL0     H36428  11.020   0.763   5.637  1.5829  0.5888  1.1185
  276MOL0     H36429  10.887   0.858   5.579 -1.2825 -3.3776  3.5687
  276MOL0     H36430  11.191   1.021   5.354  0.0767  0.4904  1.1289
  276MOL0     H36431  10.980   0.829   6.043  0.9903 -1.7822  1.0180
  276MOL0     H36432  10.933   0.900   6.285 -0.1482 -0.3786 -0.1212
  277MOL0     O36433   8.376   2.464  10.933  1.0434  0.3804 -0.3226
  277MOL0     C36434   8.325   2.381  11.004  0.1267 -0.9186  0.3737
  277MOL0     O36435   8.286   2.418  11.127 -0.2358  0.0110 -0.4433
  277MOL0     C36436   8.295   2.551  11.170 -0.3611  0.2073 -0.7502
  277MOL0     C36437   8.422   2.603  11.216  0.4134  0.8052  0.3258
  277MOL0     C36438   8.440   2.728  11.266  0.1952  0.1958  0.0649
  277MOL0     C36439   8.322   2.798  11.289  0.3891 -0.1768 -0.4738
  277MOL0     O36440   8.313   2.928  11.339 -0.3417  0.6677 -0.2145
  277MOL0     C36441   8.431   3.010  11.326  0.3463 -0.4217 -0.0675
  277MOL0     C36442   8.389   3.147  11.376  0.0364  0.1548 -0.2466
  277MOL0     C36443   8.347   3.156  11.526 -0.2393  0.6308 -0.1456
  277MOL0     C36444   8.480   3.119  11.609  0.5255 -0.1733 -0.2692
  277MOL0     C36445   8.441   3.132  11.752 -0.2683 -0.3348 -0.4464
  277MOL0     C36446   8.539   3.069  11.848 -0.2458 -0.7407 -0.7587
  277MOL0     C36447   8.528   2.918  11.868  0.1859  0.7452 -0.1492
  277MOL0     C36448   8.616   2.853  11.983  0.0311 -0.8630  0.3112
  277MOL0     N36449   8.593   2.906  12.122  0.0299 -0.2136  1.3683
  277MOL0     C36450   8.685   2.976  12.201  0.1834  0.3999 -0.6054
  277MOL0     C36451   8.615   2.993  12.313 -0.6720  0.0946 -0.3390
  277MOL0     C36452   8.659   3.064  12.441  1.0056 -0.0713 -0.3586
  277MOL0     C36453   8.751   2.970  12.518 -0.6678 -1.3119 -0.4032
  277MOL0     C36454   8.807   3.027  12.655  0.5781 -0.1974  0.1288
  277MOL0     C36455   8.889   3.153  12.628 -0.2957 -1.3384  0.6048
  277MOL0     O36456   8.980   3.181  12.743  0.5143  0.4868  0.1626
  277MOL0     C36457   8.932   3.245  12.855 -0.5181 -0.3909  0.0165
  277MOL0     C36458   8.986   3.224  12.981 -0.3739 -0.1456  0.1473
  277MOL0     C36459   8.937   3.279  13.096 -0.2526 -0.4029  0.1925
  277MOL0     C36460   8.832   3.373  13.079  0.4142 -0.4383 -0.2086
  277MOL0     C36461   8.785   3.448  13.206 -0.0392  0.2830  0.6971
  277MOL0     O36462   8.827   3.400  13.324 -0.5451 -0.4803 -0.2777
  277MOL0     C36463   8.798   3.475  13.438  0.7274 -0.9848  0.7027
  277MOL0     C36464   8.857   3.596  13.467 -0.1082  0.1200  0.3144
  277MOL0     C36465   8.872   3.648  13.586 -0.4000 -0.0834 -0.3567
  277MOL0     C36466   8.811   3.590  13.698  0.7157  0.3122  1.1389
  277MOL0     O36467   8.829   3.646  13.824 -0.2112 -0.3181 -0.0755
  277MOL0     C36468   8.747   3.601  13.934 -0.1132 -0.0582 -0.6545
  277MOL0     C36469   8.761   3.716  14.040 -1.4163 -0.2212 -0.8213
  277MOL0     C36470   8.654   3.703  14.154  0.3149 -0.5914  0.4193
  277MOL0     C36471   8.664   3.803  14.275 -0.6248  0.0901  0.3135
  277MOL0     C36472   8.599   3.760  14.401 -0.0546  0.5792  0.1948
  277MOL0     C36473   8.597   3.878  14.498  0.7902  0.4364  0.2106
  277MOL0     C36474   8.574   3.831  14.637 -0.1579 -0.1044  0.8290
  277MOL0     C36475   8.591   3.940  14.731  0.1071  0.6669  0.5321
  277MOL0    Cl36476   8.631   3.896  14.910  0.1304  0.0788  0.3630
  277MOL0     C36477   8.744   3.469  13.672 -0.7676  0.6321 -0.3678
  277MOL0     C36478   8.740   3.411  13.550 -0.1312  0.4216  0.5966
  277MOL0     O36479   8.707   3.539  13.195 -0.2144 -0.3156 -0.4077
  277MOL0     C36480   8.787   3.407  12.953 -0.1909 -0.2899 -0.4359
  277MOL0     C36481   8.839   3.346  12.841  0.7127  0.2462  0.0048
  277MOL0     N36482   8.484   2.951  12.289 -0.0155 -0.2167 -0.7387
  277MOL0     N36483   8.468   2.904  12.173 -0.1755  0.4969  0.2075
  277MOL0     C36484   8.198   2.737  11.273  0.1273  0.5265  0.1510
  277MOL0     C36485   8.181   2.618  11.208 -0.5354 -0.3715  1.2156
  277MOL0     C36486   8.304   2.243  10.964  0.0695 -0.6197 -0.3292
  277MOL0     C36487   8.307   2.214  10.829 -0.2446 -1.7389  0.2202
  277MOL0     C36488   8.288   2.090  10.784 -0.5264  0.7752 -0.3510
  277MOL0     C36489   8.277   1.982  10.876 -0.1815  0.3163 -0.1775
  277MOL0     O36490   8.249   1.852  10.842  0.2809  0.2324 -0.4333
  277MOL0     C36491   8.196   1.819  10.711 -0.5697 -0.6559 -0.6609
  277MOL0     C36492   8.143   1.677  10.705  0.7139 -0.6828 -0.3630
  277MOL0     C36493   8.051   1.653  10.584 -0.2288 -0.2211 -0.9550
  277MOL0     C36494   8.011   1.520  10.544  0.7942  0.1399 -0.7360
  277MOL0     C36495   7.943   1.449  10.653  0.7572 -0.5663  0.5249
  277MOL0     C36496   7.894   1.374  10.735 -0.4256  0.3859  0.3886
  277MOL0     C36497   8.264   2.009  11.017  0.6318 -0.2683 -0.3381
  277MOL0     C36498   8.277   2.140  11.065  0.2057  0.2156  0.5660
  277MOL0     H36499   8.509   2.545  11.188 -1.3434 -0.9671 -1.8742
  277MOL0     H36500   8.542   2.752  11.294  0.6419 -1.1350 -0.3532
  277MOL0     H36501   8.465   3.009  11.223  1.0482  2.4930  0.0608
  277MOL0     H36502   8.517   2.970  11.381  1.0233 -0.0390 -0.8382
  277MOL0     H36503   8.307   3.190  11.317  1.6688  2.6432 -0.8394
  277MOL0     H36504   8.464   3.222  11.350  2.2073 -2.5342 -2.4837
  277MOL0     H36505   8.276   3.075  11.543  0.3238  0.0371 -0.5617
  277MOL0     H36506   8.297   3.249  11.553 -4.8312 -1.6686  0.3431
  277MOL0     H36507   8.517   3.018  11.593  3.7902  1.0085 -0.9224
  277MOL0     H36508   8.551   3.195  11.575  1.7445 -0.1893  2.1075
  277MOL0     H36509   8.341   3.106  11.786  0.8263 -2.5196  1.4051
  277MOL0     H36510   8.454   3.236  11.783  1.4068 -1.1615  1.9884
  277MOL0     H36511   8.531   3.129  11.939  0.2692  1.3246 -2.0067
  277MOL0     H36512   8.640   3.094  11.814 -0.1963  0.7860  0.4057
  277MOL0     H36513   8.427   2.881  11.888  0.5218 -1.9407 -2.7930
  277MOL0     H36514   8.549   2.870  11.772  0.2041  0.9335 -0.2417
  277MOL0     H36515   8.722   2.853  11.955 -0.2233 -1.7513 -0.7382
  277MOL0     H36516   8.576   2.751  11.993 -4.9503  0.6109 -1.3676
  277MOL0     H36517   8.790   2.998  12.187 -0.0683  3.0003  0.7993
  277MOL0     H36518   8.568   3.094  12.494  0.1709  1.5366 -2.5678
  277MOL0     H36519   8.718   3.150  12.409 -1.9874  2.2621 -0.0847
  277MOL0     H36520   8.834   2.942  12.453  0.9167 -0.2837  1.0662
  277MOL0     H36521   8.683   2.890  12.547  0.8065 -0.9646  5.4040
  277MOL0     H36522   8.723   3.053  12.721  0.5707  2.3792 -0.7950
  277MOL0     H36523   8.871   2.958  12.711  3.6258  2.8335  0.6918
  277MOL0     H36524   8.828   3.236  12.591  1.7619  0.4871  1.1315
  277MOL0     H36525   8.960   3.135  12.547  0.3689  0.3274  0.7830
  277MOL0     H36526   9.067   3.152  12.978  0.2457  0.5800 -1.2959
  277MOL0     H36527   8.965   3.248  13.196  0.6305 -1.4566 -0.3610
  277MOL0     H36528   8.909   3.656  13.394 -0.2166  0.6270  0.6537
  277MOL0     H36529   8.934   3.736  13.593  0.8217 -1.0126  1.1012
  277MOL0     H36530   8.790   3.513  13.982 -1.2766  0.4449  1.4280
  277MOL0     H36531   8.647   3.592  13.893  0.1884  1.2666 -1.7467
  277MOL0     H36532   8.779   3.816  14.000  2.5788 -0.0159  1.0434
  277MOL0     H36533   8.853   3.688  14.091 -1.1182  2.3063  0.1789
  277MOL0     H36534   8.637   3.602  14.192 -2.2735 -0.3169  0.1780
  277MOL0     H36535   8.552   3.727  14.121  0.5291 -0.5754 -0.2537
  277MOL0     H36536   8.767   3.834  14.299 -0.2833 -0.5401 -0.3137
  277MOL0     H36537   8.603   3.883  14.232 -1.3403 -1.8139 -2.4971
  277MOL0     H36538   8.658   3.677  14.443  0.2096  0.2556 -0.7902
  277MOL0     H36539   8.499   3.716  14.397 -0.9261  2.5532 -1.8685
  277MOL0     H36540   8.520   3.954  14.481 -1.0159  0.6526  6.5346
  277MOL0     H36541   8.699   3.917  14.491  0.8717  0.3430  0.8102
  277MOL0     H36542   8.476   3.783  14.647  0.6245 -1.6684  1.4227
  277MOL0     H36543   8.641   3.748  14.662  0.4347  0.6933  2.0126
  277MOL0     H36544   8.498   3.998  14.734  0.3172  1.7070 -4.3049
  277MOL0     H36545   8.669   4.010  14.703  0.7554 -0.3982 -0.4365
  277MOL0     H36546   8.683   3.430  13.753 -1.5462  0.8170 -0.8598
  277MOL0     H36547   8.702   3.310  13.543  0.7958 -0.0621  2.0541
  277MOL0     H36548   8.730   3.496  12.928  2.8250  2.8025  2.6264
  277MOL0     H36549   8.798   3.368  12.743  0.6446 -1.2080 -0.3034
  277MOL0     H36550   8.105   2.784  11.302 -0.6638 -0.9823  0.1503
  277MOL0     H36551   8.089   2.562  11.219 -0.3187 -0.8267  0.7478
  277MOL0     H36552   8.317   2.292  10.754 -1.4808 -1.4939  0.2869
  277MOL0     H36553   8.297   2.065  10.679  0.6499 -0.2811 -0.0284
  277MOL0     H36554   8.266   1.829  10.627 -0.6244 -1.4892 -0.8091
  277MOL0     H36555   8.119   1.893  10.687 -1.2070 -1.1892 -0.2902
  277MOL0     H36556   8.233   1.621  10.677  1.4623  1.1202 -1.7507
  277MOL0     H36557   8.093   1.648  10.798  2.7433 -0.9711  0.7079
  277MOL0     H36558   8.100   1.711  10.505  2.1875  0.3826  0.8624
  277MOL0     H36559   7.963   1.717  10.601 -0.3106  0.5168 -3.6696
  277MOL0     H36560   7.956   1.524  10.450 -1.4000  0.9779  0.4957
  277MOL0     H36561   8.108   1.474  10.525  1.4888 -0.0747  2.6133
  277MOL0     H36562   7.847   1.316  10.812 -0.4056  1.0385  0.8993
  277MOL0     H36563   8.231   1.943  11.096 -3.7919  2.1704  0.1862
  277MOL0     H36564   8.261   2.169  11.169  0.0386  4.6562 -0.4995
  278MOL0     O36565   7.353   9.189   3.752  0.2856 -0.1029  0.1151
  278MOL0     C36566   7.368   9.272   3.662 -0.1181 -0.7183 -0.1673
  278MOL0     O36567   7.491   9.304   3.602 -0.2709  0.2780  0.1208
  278MOL0     C36568   7.614   9.291   3.662 -0.5382  0.6389  0.4194
  278MOL0     C36569   7.711   9.376   3.619 -1.1051 -0.1657  0.3157
  278MOL0     C36570   7.841   9.358   3.666 -0.8369 -0.6655 -0.2860
  278MOL0     C36571   7.889   9.249   3.730 -0.1172  0.8473  0.0580
  278MOL0     O36572   8.021   9.236   3.772  0.5906  0.5136 -0.0453
  278MOL0     C36573   8.121   9.205   3.678  0.2110  0.5537  1.1052
  278MOL0     C36574   8.162   9.318   3.589  0.8562 -0.0735  1.5084
  278MOL0     C36575   8.237   9.428   3.663 -0.8866  0.1149  0.7958
  278MOL0     C36576   8.272   9.553   3.585 -0.2908  0.3587 -0.5074
  278MOL0     C36577   8.370   9.648   3.655  0.4290  0.0392 -0.1248
  278MOL0     C36578   8.337   9.677   3.811  0.6591  0.3403  0.0120
  278MOL0     C36579   8.444   9.769   3.879  0.5260 -0.7146 -0.4886
  278MOL0     C36580   8.410   9.807   4.025 -0.0982  0.1065  0.3673
  278MOL0     N36581   8.530   9.836   4.110 -0.2035 -0.1645 -0.0779
  278MOL0     C36582   8.629   9.916   4.078 -0.7935 -0.4533  0.8988
  278MOL0     C36583   8.702   9.917   4.193  0.6076 -0.0027 -0.9584
  278MOL0     C36584   8.834   9.982   4.206 -0.9256  0.6620  0.1903
  278MOL0     C36585   8.953   9.916   4.133 -0.2562  0.0838  0.5832
  278MOL0     C36586   9.089   9.963   4.174  0.1254 -0.3984 -0.9625
  278MOL0     C36587   9.196   9.919   4.077 -0.2375 -0.6952 -0.7239
  278MOL0     O36588   9.294  10.034   4.072  0.9584 -0.6039 -0.1198
  278MOL0     C36589   9.382  10.031   3.968 -0.6785 -0.0237 -0.7985
  278MOL0     C36590   9.413   9.912   3.894 -0.4452  0.1755  0.3386
  278MOL0     C36591   9.509   9.918   3.795 -0.2044  0.6470  0.5716
  278MOL0     C36592   9.564  10.042   3.760 -0.6861  0.7049 -0.6468
  278MOL0     C36593   9.658  10.056   3.642 -1.0168 -0.3401 -0.0517
  278MOL0     O36594   9.706  10.172   3.621 -0.1639 -1.0528 -0.0257
  278MOL0     C36595   9.786  10.199   3.513  0.3085 -0.5352 -0.1844
  278MOL0     C36596   9.773  10.149   3.381 -0.3443  1.1626 -0.3470
  278MOL0     C36597   9.851  10.206   3.282 -0.6988 -0.1542  0.4328
  278MOL0     C36598   9.928  10.319   3.312 -1.4244 -0.1790  0.9542
  278MOL0     O36599   9.990  10.403   3.213 -0.1319  0.7587  0.2155
  278MOL0     C36600   9.948  10.538   3.215 -0.9298  0.8119  0.4661
  278MOL0     C36601   9.991  10.590   3.084  0.7849  0.3948  0.1050
  278MOL0     C36602   9.885  10.565   2.977 -0.0330 -0.4712 -0.0438
  278MOL0     C36603   9.931  10.605   2.840 -0.6970  0.4852 -1.1817
  278MOL0     C36604   9.938  10.757   2.819  1.1464 -0.3957 -0.2032
  278MOL0     C36605   9.972  10.798   2.682  0.2273 -0.4503 -0.1279
  278MOL0     C36606  10.002  10.947   2.655  0.1700 -0.6816 -0.4792
  278MOL0     C36607  10.099  10.979   2.541  0.5778  0.3249  0.1031
  278MOL0    Cl36608  10.063  10.887   2.393  0.4315  0.7027 -0.2751
  278MOL0     C36609   9.944  10.360   3.444 -0.4292 -0.4445  0.1331
  278MOL0     C36610   9.875  10.302   3.547 -0.2405  0.0983  0.4563
  278MOL0     O36611   9.665   9.958   3.572 -0.5538 -0.1647 -0.1386
  278MOL0     C36612   9.520  10.161   3.825 -0.3790 -0.3220 -0.0188
  278MOL0     C36613   9.441  10.147   3.941 -0.9484 -0.1942 -0.1395
  278MOL0     N36614   8.639   9.843   4.288 -0.4629  0.3277 -0.3965
  278MOL0     N36615   8.530   9.797   4.234  0.6399  0.0781  0.1784
  278MOL0     C36616   7.787   9.163   3.782 -0.4794  0.3778 -0.2480
  278MOL0     C36617   7.652   9.176   3.738  0.2917 -0.2453  0.2173
  278MOL0     C36618   7.255   9.340   3.597 -0.1810 -0.7058 -0.1547
  278MOL0     C36619   7.272   9.409   3.475 -0.5755  0.5857 -0.2526
  278MOL0     C36620   7.162   9.458   3.407  0.3149  0.4530 -0.3698
  278MOL0     C36621   7.030   9.448   3.460  0.7125 -0.9570 -0.0130
  278MOL0     O36622   6.915   9.477   3.389  0.5179  1.4506 -0.0675
  278MOL0     C36623   6.927   9.493   3.249  0.2098  0.7603 -0.1713
  278MOL0     C36624   6.787   9.514   3.183 -0.0485  0.6650 -0.2348
  278MOL0     C36625   6.736   9.384   3.127 -0.3565  0.0400 -0.0154
  278MOL0     C36626   6.612   9.394   3.044  0.2154 -0.2395  0.3367
  278MOL0     C36627   6.503   9.397   3.140 -0.3610 -0.5831 -0.4099
  278MOL0     C36628   6.408   9.432   3.209 -0.1838  0.0868 -0.1903
  278MOL0     C36629   7.027   9.386   3.590 -0.4437 -0.3698  1.4960
  278MOL0     C36630   7.131   9.327   3.650  0.8432 -0.4265  0.2832
  278MOL0     H36631   7.697   9.468   3.563  2.8389 -0.4203 -1.3524
  278MOL0     H36632   7.910   9.441   3.653 -0.2586 -1.1558 -0.4027
  278MOL0     H36633   8.077   9.132   3.610 -1.5478  0.2618  2.4751
  278MOL0     H36634   8.209   9.162   3.727  0.3230  2.2548  2.4589
  278MOL0     H36635   8.062   9.348   3.555  1.6299 -0.4117 -1.2344
  278MOL0     H36636   8.211   9.287   3.497  0.2062  0.6417  0.9055
  278MOL0     H36637   8.326   9.394   3.716 -0.8040 -0.9095  0.0293
  278MOL0     H36638   8.161   9.450   3.739 -2.1325 -1.1610 -0.0269
  278MOL0     H36639   8.307   9.531   3.484  0.5404  3.5876 -1.0391
  278MOL0     H36640   8.180   9.608   3.565  0.8269  2.4820 -0.0525
  278MOL0     H36641   8.378   9.744   3.603 -2.1775  0.9496  0.9386
  278MOL0     H36642   8.464   9.592   3.658 -1.5445 -3.5449  0.7158
  278MOL0     H36643   8.335   9.580   3.862  0.2307  0.3334 -0.0181
  278MOL0     H36644   8.249   9.739   3.828  0.7220  0.8772 -1.5037
  278MOL0     H36645   8.535   9.708   3.881  0.0485 -1.4069  0.9202
  278MOL0     H36646   8.466   9.865   3.830 -1.3120 -0.5349 -1.0186
  278MOL0     H36647   8.359   9.723   4.072  1.1969 -0.2838  1.1298
  278MOL0     H36648   8.341   9.892   4.022 -1.2179 -0.7849  0.1564
  278MOL0     H36649   8.666   9.970   3.991  0.5701 -1.9088  0.5286
  278MOL0     H36650   8.863   9.992   4.310  4.1846 -1.6573 -0.7208
  278MOL0     H36651   8.815  10.083   4.168 -2.9018  1.2532  2.5096
  278MOL0     H36652   8.932   9.943   4.029 -0.1092  2.3414  1.1096
  278MOL0     H36653   8.945   9.806   4.135 -0.4275  0.1068  2.1378
  278MOL0     H36654   9.097  10.071   4.190  0.3409 -0.4214 -0.9167
  278MOL0     H36655   9.098   9.908   4.268 -0.0187 -1.1288 -1.3726
  278MOL0     H36656   9.162   9.889   3.977  1.0483 -2.1050 -0.7809
  278MOL0     H36657   9.242   9.830   4.122  0.6702 -1.4983 -3.0703
  278MOL0     H36658   9.374   9.817   3.928 -0.7168  0.3361  0.4746
  278MOL0     H36659   9.547   9.839   3.732  0.0299  2.3940 -1.6122
  278MOL0     H36660   9.706  10.066   3.364  1.4542 -0.4023 -0.0722
  278MOL0     H36661   9.851  10.194   3.174  3.5313  0.3203  0.2388
  278MOL0     H36662  10.008  10.593   3.288 -0.7147  0.3594  0.6372
  278MOL0     H36663   9.842  10.551   3.236 -0.7661 -1.9721  3.8162
  278MOL0     H36664  10.087  10.546   3.054  0.9559  1.1066 -0.4234
  278MOL0     H36665   9.998  10.698   3.097 -2.9325  0.9251 -1.1521
  278MOL0     H36666   9.787  10.610   2.998 -0.8155 -1.0113 -2.3328
  278MOL0     H36667   9.868  10.458   2.964  1.4986 -0.9326  1.3797
  278MOL0     H36668  10.028  10.560   2.820 -1.5858 -1.2072 -1.9036
  278MOL0     H36669   9.864  10.566   2.763 -1.4739 -0.8211  0.1178
  278MOL0     H36670  10.015  10.795   2.887  2.5954 -0.1872 -1.8638
  278MOL0     H36671   9.845  10.807   2.846 -0.4049 -1.7907 -2.5214
  278MOL0     H36672   9.896  10.758   2.615 -0.0964 -0.1066  0.0317
  278MOL0     H36673  10.068  10.755   2.649  1.8036  0.4086  2.9835
  278MOL0     H36674   9.913  11.008   2.642  0.3221  0.9560  4.3138
  278MOL0     H36675  10.045  10.988   2.746 -0.8593 -0.8705  0.1017
  278MOL0     H36676  10.200  10.944   2.566  0.5335 -0.5593 -0.8752
  278MOL0     H36677  10.096  11.086   2.519 -1.3494  0.1848 -0.4728
  278MOL0     H36678  10.007  10.442   3.477 -0.3765  0.3867 -1.8858
  278MOL0     H36679   9.883  10.343   3.647  3.0202  2.4535 -0.6131
  278MOL0     H36680   9.552  10.254   3.778  1.7483 -0.8040  0.4045
  278MOL0     H36681   9.417  10.231   4.005  3.0255  0.2743  0.9739
  278MOL0     H36682   7.823   9.084   3.848  0.7044  1.0039 -0.1222
  278MOL0     H36683   7.576   9.104   3.767 -0.9186  1.0794  0.4696
  278MOL0     H36684   7.371   9.424   3.434 -0.4146 -2.7491 -1.3773
  278MOL0     H36685   7.179   9.523   3.322 -1.8839  1.3623 -0.1711
  278MOL0     H36686   6.966   9.403   3.201  0.1570  0.1193  0.9399
  278MOL0     H36687   6.993   9.573   3.216  1.8620 -0.8208 -0.8687
  278MOL0     H36688   6.715   9.570   3.243  0.5875  3.0416 -1.5547
  278MOL0     H36689   6.816   9.578   3.099  0.5564  0.4762 -0.1741
  278MOL0     H36690   6.724   9.316   3.212 -0.6066  0.8331  0.5972
  278MOL0     H36691   6.806   9.345   3.053  1.7495  1.0944  1.3131
  278MOL0     H36692   6.617   9.481   2.978  0.8232 -0.7494 -0.2969
  278MOL0     H36693   6.591   9.309   2.979 -0.4669 -0.1382  0.4101
  278MOL0     H36694   6.337   9.470   3.279  2.6128  2.4906  1.5896
  278MOL0     H36695   6.932   9.385   3.642 -1.7407  0.2569 -0.7184
  278MOL0     H36696   7.109   9.284   3.747 -1.2491  0.9145  0.4696
  279MOL0     O36697   3.634   5.983   9.809 -0.0450 -0.1585 -0.0391
  279MOL0     C36698   3.527   5.963   9.760  0.9602 -0.4367 -0.3904
  279MOL0     O36699   3.426   5.882   9.811  0.3472 -0.8607  0.7899
  279MOL0     C36700   3.453   5.790   9.903 -0.2915 -0.3050 -0.7984
  279MOL0     C36701   3.490   5.654   9.870  0.2724  0.4539  0.6206
  279MOL0     C36702   3.522   5.562   9.965 -0.3663  0.3495 -0.1286
  279MOL0     C36703   3.490   5.588  10.100  0.3880  0.2092  0.0272
  279MOL0     O36704   3.507   5.494  10.195 -0.6792 -0.4059  0.8824
  279MOL0     C36705   3.637   5.496  10.263  1.0711 -0.9393  0.2211
  279MOL0     C36706   3.722   5.369  10.246  0.0934  0.3454  0.1025
  279MOL0     C36707   3.857   5.370  10.325 -0.2919 -0.2407  0.4113
  279MOL0     C36708   3.932   5.236  10.290 -1.6801 -0.1162 -0.5559
  279MOL0     C36709   4.042   5.254  10.179 -0.0824 -0.0830 -0.0561
  279MOL0     C36710   4.161   5.352  10.215 -1.0735 -0.4395 -0.6045
  279MOL0     C36711   4.238   5.365  10.084 -1.0496 -0.5216 -1.0190
  279MOL0     C36712   4.362   5.452  10.107  0.6067  0.2779 -0.8562
  279MOL0     N36713   4.461   5.450  10.001  0.7610 -0.0949 -0.4884
  279MOL0     C36714   4.423   5.457   9.866  0.6074 -0.4722  0.3418
  279MOL0     C36715   4.541   5.434   9.801 -0.4073  0.1974 -1.1513
  279MOL0     C36716   4.572   5.437   9.658 -0.1403  0.0307  0.9082
  279MOL0     C36717   4.452   5.416   9.562 -0.6696  0.5991 -0.1747
  279MOL0     C36718   4.500   5.399   9.417 -0.4868 -0.5323  0.2369
  279MOL0     C36719   4.520   5.530   9.336 -0.4807  1.9301 -0.0184
  279MOL0     O36720   4.623   5.595   9.409 -0.4040  0.1466 -0.4333
  279MOL0     C36721   4.724   5.662   9.338 -0.1796 -0.2687 -0.4915
  279MOL0     C36722   4.841   5.706   9.414 -0.2238  0.9477  0.7353
  279MOL0     C36723   4.935   5.786   9.359  0.0749  0.6177 -0.3720
  279MOL0     C36724   4.918   5.840   9.230  0.1798 -0.1568 -0.2532
  279MOL0     C36725   5.018   5.938   9.178 -0.3497 -1.1541  0.9952
  279MOL0     O36726   5.103   5.997   9.267 -0.0466  0.1060  0.0651
  279MOL0     C36727   5.191   6.090   9.223 -0.1610  0.9461  0.2531
  279MOL0     C36728   5.293   6.060   9.135  0.4509 -0.1224 -0.7476
  279MOL0     C36729   5.387   6.161   9.101 -0.1844 -0.3928 -0.2175
  279MOL0     C36730   5.361   6.295   9.150 -0.6393  0.4028 -0.3219
  279MOL0     O36731   5.434   6.409   9.115  0.7672  0.0963  0.0459
  279MOL0     C36732   5.545   6.409   9.017  0.3721 -0.7261 -0.9664
  279MOL0     C36733   5.631   6.541   9.019 -0.7982  0.1528  0.0792
  279MOL0     C36734   5.628   6.612   9.165 -0.8087 -0.0350 -0.0760
  279MOL0     C36735   5.698   6.751   9.157 -0.2463  0.1074  0.7555
  279MOL0     C36736   5.734   6.807   9.276  0.0393  0.1326 -0.2661
  279MOL0     C36737   5.867   6.892   9.272  0.9458 -0.9245  0.1555
  279MOL0     C36738   5.844   7.023   9.193  0.2261 -0.4242  0.4265
  279MOL0     C36739   5.961   7.123   9.200  0.1539  0.6624 -0.7831
  279MOL0    Cl36740   6.064   7.122   9.357  0.2012  0.3905  0.1583
  279MOL0     C36741   5.269   6.312   9.246  0.9403  0.0607 -0.7658
  279MOL0     C36742   5.179   6.211   9.289  0.5166 -0.7987 -0.2231
  279MOL0     O36743   5.030   5.933   9.050  0.3486  0.4503 -0.3752
  279MOL0     C36744   4.809   5.804   9.161  0.4237  0.6058  0.6277
  279MOL0     C36745   4.710   5.718   9.213  0.2159 -0.5332  0.0688
  279MOL0     N36746   4.643   5.424   9.904 -0.3634  0.2987 -0.5976
  279MOL0     N36747   4.593   5.429  10.026 -0.5445 -0.7272  0.5855
  279MOL0     C36748   3.433   5.716  10.122  0.2184  0.8726 -0.2882
  279MOL0     C36749   3.420   5.816  10.028  0.7369 -0.5621  0.0151
  279MOL0     C36750   3.488   6.060   9.643 -0.1013  0.7456  0.0747
  279MOL0     C36751   3.578   6.167   9.614  0.9389  0.1976 -0.5192
  279MOL0     C36752   3.548   6.261   9.510 -0.3391  0.0339 -0.1399
  279MOL0     C36753   3.423   6.250   9.444  0.0042  0.1697  0.1891
  279MOL0     O36754   3.368   6.335   9.355 -0.1568  0.0781 -0.2851
  279MOL0     C36755   3.417   6.466   9.341  0.3502  0.6254 -0.0802
  279MOL0     C36756   3.364   6.548   9.448  0.6134  0.5629 -0.2315
  279MOL0     C36757   3.219   6.518   9.509 -0.9196  1.1449  0.1767
  279MOL0     C36758   3.151   6.622   9.593  0.0162  0.0435 -0.3120
  279MOL0     C36759   3.153   6.756   9.535 -0.7230 -0.6818 -1.5489
  279MOL0     C36760   3.170   6.867   9.515  0.4809  0.8091 -0.1662
  279MOL0     C36761   3.349   6.138   9.468  0.2941  1.3073  0.3424
  279MOL0     C36762   3.374   6.049   9.568  0.4049  0.5805 -0.6373
  279MOL0     H36763   3.518   5.627   9.768 -1.0343 -3.5166  1.1733
  279MOL0     H36764   3.588   5.479   9.941  2.5601  1.1669  3.9543
  279MOL0     H36765   3.607   5.509  10.367  3.9397  0.0941  1.0278
  279MOL0     H36766   3.689   5.591  10.250  0.7362 -0.9027 -0.9896
  279MOL0     H36767   3.741   5.360  10.139  2.1085  3.5376  0.0575
  279MOL0     H36768   3.662   5.280  10.268  0.0437  0.7274  1.6677
  279MOL0     H36769   3.835   5.372  10.432  1.3029 -1.8513  0.8083
  279MOL0     H36770   3.919   5.457  10.302  1.6614 -0.7146  3.2719
  279MOL0     H36771   3.978   5.182  10.373 -0.3983 -1.0483 -1.8244
  279MOL0     H36772   3.862   5.156  10.264  1.2603 -2.8247 -0.7579
  279MOL0     H36773   3.994   5.300  10.092  1.1649  4.8675  1.5416
  279MOL0     H36774   4.079   5.155  10.154  1.2914  0.8008 -1.7557
  279MOL0     H36775   4.224   5.298  10.287  0.9928  2.4011 -0.1310
  279MOL0     H36776   4.122   5.445  10.257  1.3040 -0.8653  2.9539
  279MOL0     H36777   4.273   5.265  10.054 -4.0323 -1.6367 -1.1177
  279MOL0     H36778   4.168   5.404  10.010  0.4891  3.1691 -0.7480
  279MOL0     H36779   4.400   5.419  10.204 -0.4095  0.8116 -0.2576
  279MOL0     H36780   4.326   5.554  10.120  0.1056 -0.0089  0.0716
  279MOL0     H36781   4.321   5.453   9.829  0.0952 -1.8828  1.8025
  279MOL0     H36782   4.651   5.363   9.637  1.4703  1.4739  1.6559
  279MOL0     H36783   4.613   5.536   9.639 -1.8231  0.4620 -0.7818
  279MOL0     H36784   4.385   5.502   9.559  1.0718  2.0254 -0.0159
  279MOL0     H36785   4.397   5.332   9.604  0.0727  1.7967  3.5111
  279MOL0     H36786   4.592   5.340   9.423 -1.0082 -1.3162  0.7141
  279MOL0     H36787   4.420   5.348   9.362 -1.2370  0.8081  0.0603
  279MOL0     H36788   4.429   5.590   9.333 -1.8004 -0.0254 -1.8741
  279MOL0     H36789   4.539   5.496   9.234 -1.3176 -2.6197  1.1109
  279MOL0     H36790   4.843   5.666   9.514 -0.3313  1.4865  0.9599
  279MOL0     H36791   5.024   5.799   9.420  0.7140  1.2172 -1.3955
  279MOL0     H36792   5.315   5.953   9.142  0.3018 -0.1043  4.8480
  279MOL0     H36793   5.471   6.133   9.039  0.3609  1.7659 -0.5466
  279MOL0     H36794   5.512   6.379   8.917  2.4341 -1.3965 -1.5045
  279MOL0     H36795   5.602   6.323   9.054 -1.2225 -1.2264  0.4233
  279MOL0     H36796   5.585   6.613   8.951 -0.5511 -0.6010 -0.9029
  279MOL0     H36797   5.734   6.511   9.001  0.4320  1.1859  4.2646
  279MOL0     H36798   5.671   6.544   9.239  0.6238  1.3790  0.4577
  279MOL0     H36799   5.527   6.636   9.197  1.3992  2.6747  6.4966
  279MOL0     H36800   5.778   6.746   9.082 -2.7909 -0.0183 -2.1733
  279MOL0     H36801   5.634   6.816   9.098  0.0266 -1.1171 -0.9823
  279MOL0     H36802   5.748   6.724   9.346 -0.1264  0.1449 -0.2180
  279MOL0     H36803   5.650   6.867   9.310 -0.2219 -0.9945  1.1559
  279MOL0     H36804   5.952   6.841   9.226  2.2065  1.4925 -0.3272
  279MOL0     H36805   5.893   6.908   9.377  0.2475 -0.1538  0.2182
  279MOL0     H36806   5.823   6.996   9.089  0.8356  1.0915 -0.1174
  279MOL0     H36807   5.758   7.075   9.237 -0.4728  2.2770 -3.6308
  279MOL0     H36808   5.940   7.228   9.178  4.8328  1.8246 -0.7714
  279MOL0     H36809   6.033   7.097   9.122  1.5465 -1.9442  1.2182
  279MOL0     H36810   5.248   6.408   9.292 -2.2491 -1.6517  1.7779
  279MOL0     H36811   5.104   6.240   9.362  1.2773  0.9939 -0.0938
  279MOL0     H36812   4.787   5.857   9.069 -0.9639  3.4968  2.4674
  279MOL0     H36813   4.630   5.681   9.150 -0.6890  0.0168  0.8846
  279MOL0     H36814   3.409   5.744  10.224 -2.1648  0.3235 -0.6591
  279MOL0     H36815   3.393   5.917  10.057  1.8540 -0.5367  1.0038
  279MOL0     H36816   3.669   6.183   9.670  1.5817 -1.6759 -0.9687
  279MOL0     H36817   3.612   6.348   9.520  1.4167 -1.3555  1.3744
  279MOL0     H36818   3.387   6.502   9.242  1.4674 -1.4947 -1.2586
  279MOL0     H36819   3.526   6.466   9.341  0.4185 -0.7897  2.5655
  279MOL0     H36820   3.435   6.550   9.530  0.2937 -0.7818  0.0869
  279MOL0     H36821   3.362   6.649   9.403 -0.0979  0.0548 -1.4073
  279MOL0     H36822   3.221   6.426   9.569  1.9483  0.8235 -0.2574
  279MOL0     H36823   3.149   6.501   9.427  0.8227  2.3852 -1.6645
  279MOL0     H36824   3.050   6.589   9.623  0.3820  1.4604  2.9135
  279MOL0     H36825   3.199   6.638   9.690 -2.2876  2.1557  0.6073
  279MOL0     H36826   3.188   6.968   9.483 -1.3551  0.9484 -0.9173
  279MOL0     H36827   3.257   6.130   9.411 -0.1639  0.4668  1.1637
  279MOL0     H36828   3.300   5.970   9.577  1.8649 -0.9031 -1.1983
  280MOL0     O36829   6.715   5.182   9.930  0.7050 -0.5261  0.4673
  280MOL0     C36830   6.744   5.097   9.842  0.4415  0.1496 -0.6642
  280MOL0     O36831   6.650   5.015   9.778 -0.4979 -0.3957  0.1215
  280MOL0     C36832   6.521   5.015   9.825 -0.3212  0.6495 -0.6027
  280MOL0     C36833   6.475   4.896   9.898  0.0179 -0.1648 -0.0391
  280MOL0     C36834   6.350   4.880   9.939  0.3760 -0.4812 -0.2616
  280MOL0     C36835   6.255   4.987   9.922 -0.3106  0.0842  0.1027
  280MOL0     O36836   6.133   5.002   9.982  0.4972  0.4253  0.6902
  280MOL0     C36837   6.137   5.099  10.089 -0.5255  0.4308  0.8454
  280MOL0     C36838   6.060   5.038  10.204 -0.1565 -0.3991  0.8249
  280MOL0     C36839   5.911   5.005  10.168 -0.2815  0.8637 -0.0498
  280MOL0     C36840   5.839   4.924  10.278 -0.7821 -0.3332 -0.7045
  280MOL0     C36841   5.714   4.864  10.220  0.7362 -0.5825 -0.3782
  280MOL0     C36842   5.606   4.969  10.177  0.7607  0.0911 -0.9862
  280MOL0     C36843   5.476   4.901  10.111 -0.0762  0.6984 -0.3540
  280MOL0     C36844   5.353   4.997  10.112 -0.0043 -0.2608  0.0157
  280MOL0     N36845   5.337   5.074   9.981 -0.4248 -0.0363 -0.9785
  280MOL0     C36846   5.423   5.167   9.937 -0.3041 -1.5434 -0.3989
  280MOL0     C36847   5.371   5.207   9.814 -0.0002 -0.1482 -0.2747
  280MOL0     C36848   5.429   5.306   9.723 -0.2482 -0.0126 -0.0279
  280MOL0     C36849   5.326   5.393   9.650  0.1214  0.6481  0.5898
  280MOL0     C36850   5.381   5.513   9.583  0.1782 -0.7391  0.4833
  280MOL0     C36851   5.272   5.560   9.492 -0.0961 -0.1257 -0.9707
  280MOL0     O36852   5.318   5.676   9.412  0.3387 -0.2034 -0.0462
  280MOL0     C36853   5.310   5.797   9.465 -0.4052 -0.0300  0.0522
  280MOL0     C36854   5.250   5.842   9.584 -0.7356 -0.0568 -0.0613
  280MOL0     C36855   5.272   5.973   9.640 -0.1220  0.5173  0.1974
  280MOL0     C36856   5.366   6.059   9.586 -0.0237  0.7492 -1.6897
  280MOL0     C36857   5.394   6.187   9.658 -0.4990  0.0764  1.3110
  280MOL0     O36858   5.442   6.288   9.575  0.2245 -0.3757 -0.0766
  280MOL0     C36859   5.498   6.399   9.628  0.4160  0.4741  0.2821
  280MOL0     C36860   5.472   6.522   9.568  0.0732 -0.4217  0.0134
  280MOL0     C36861   5.535   6.644   9.614 -0.3005 -0.2442  0.1549
  280MOL0     C36862   5.643   6.636   9.710  1.0063  0.0574 -1.4953
  280MOL0     O36863   5.723   6.740   9.748 -1.0807  0.5584  0.2197
  280MOL0     C36864   5.721   6.868   9.688  0.1664  0.5784  0.9094
  280MOL0     C36865   5.828   6.949   9.759 -0.3457  0.2655 -0.4500
  280MOL0     C36866   5.830   7.076   9.685 -0.4087  0.0244 -1.2663
  280MOL0     C36867   5.936   7.174   9.731 -0.0228  0.6348 -0.4001
  280MOL0     C36868   5.925   7.319   9.683  0.7173  0.4439 -0.7977
  280MOL0     C36869   6.056   7.400   9.705  0.5077  0.4533 -0.6245
  280MOL0     C36870   6.186   7.335   9.654 -0.5548  0.1826 -0.4032
  280MOL0     C36871   6.292   7.430   9.665  0.2801 -0.4977 -0.5026
  280MOL0    Cl36872   6.436   7.330   9.653  0.2326  0.4047 -0.3280
  280MOL0     C36873   5.667   6.507   9.774 -0.0985 -0.0240  0.1631
  280MOL0     C36874   5.603   6.397   9.725 -0.8540 -0.8342  0.8608
  280MOL0     O36875   5.382   6.188   9.776  0.0421 -0.4422  0.3827
  280MOL0     C36876   5.432   6.018   9.467 -0.2523 -0.0104  0.5698
  280MOL0     C36877   5.407   5.884   9.412 -0.5353  0.7394 -0.9492
  280MOL0     N36878   5.249   5.136   9.797  0.3835 -0.7974  0.1283
  280MOL0     N36879   5.229   5.066   9.900  0.0677  0.6579 -0.6579
  280MOL0     C36880   6.301   5.100   9.845 -0.2719 -0.5332 -0.4946
  280MOL0     C36881   6.426   5.111   9.798 -0.1763 -0.3396 -0.2044
  280MOL0     C36882   6.885   5.079   9.814 -0.3754  0.0259 -0.0188
  280MOL0     C36883   6.983   5.168   9.868 -0.4722  0.9493  0.4678
  280MOL0     C36884   7.124   5.162   9.847  0.1597 -0.6365 -0.6018
  280MOL0     C36885   7.174   5.069   9.758 -0.1906  0.7193 -1.4224
  280MOL0     O36886   7.308   5.070   9.718  0.3597 -0.1261 -0.1272
  280MOL0     C36887   7.416   5.078   9.826  0.2636 -0.3672  1.0647
  280MOL0     C36888   7.547   5.072   9.748  0.1174  0.2500  0.4231
  280MOL0     C36889   7.664   5.082   9.839  1.0145  0.6035 -1.1236
  280MOL0     C36890   7.791   5.123   9.765  0.9548 -0.0542 -0.1471
  280MOL0     C36891   7.785   5.268   9.748  0.2655  0.3316 -0.1597
  280MOL0     C36892   7.804   5.386   9.730  1.1575 -0.3129  1.3991
  280MOL0     C36893   7.076   4.972   9.704 -0.2767 -0.2041  0.1027
  280MOL0     C36894   6.939   4.976   9.727 -0.4564 -0.4306  0.0019
  280MOL0     H36895   6.551   4.825   9.929  0.5880  0.5329  0.2032
  280MOL0     H36896   6.314   4.789   9.986 -2.8288  0.2891 -0.9559
  280MOL0     H36897   6.081   5.185  10.051 -1.3927 -0.8398 -0.8836
  280MOL0     H36898   6.237   5.123  10.127 -1.4084  3.7219  1.4808
  280MOL0     H36899   6.059   5.107  10.288  3.1286 -1.1370  1.5906
  280MOL0     H36900   6.105   4.943  10.236  2.4269  0.1760 -0.7586
  280MOL0     H36901   5.918   4.956  10.070  1.2391 -0.8126  0.8321
  280MOL0     H36902   5.854   5.096  10.145 -1.1102  0.1718 -0.8077
  280MOL0     H36903   5.910   4.850  10.316  0.9316  1.8872  0.7118
  280MOL0     H36904   5.805   4.987  10.361 -1.0843 -1.3615 -0.0351
  280MOL0     H36905   5.672   4.789  10.287  1.2739 -0.5514 -0.0048
  280MOL0     H36906   5.745   4.811  10.129  0.3668  1.2988 -1.6707
  280MOL0     H36907   5.648   5.045  10.112  3.9115 -2.8026 -2.6832
  280MOL0     H36908   5.575   5.003  10.276  0.6146 -1.9137 -0.2944
  280MOL0     H36909   5.505   4.866  10.011 -2.0918 -0.9533 -0.4406
  280MOL0     H36910   5.447   4.819  10.178  1.1020 -1.2758 -2.1057
  280MOL0     H36911   5.365   5.060  10.200  0.6511  0.0548 -0.2990
  280MOL0     H36912   5.266   4.934  10.135 -0.0154  0.3024  1.6748
  280MOL0     H36913   5.512   5.215   9.975 -0.1648  0.0645 -2.5790
  280MOL0     H36914   5.476   5.250   9.641 -0.4453 -0.0930 -0.0850
  280MOL0     H36915   5.497   5.376   9.774 -0.4457  0.0982  0.0823
  280MOL0     H36916   5.262   5.422   9.734  0.0615 -2.9344  1.9611
  280MOL0     H36917   5.262   5.327   9.591 -2.7114 -0.0997  4.1309
  280MOL0     H36918   5.403   5.596   9.651  0.3692 -0.8178  0.5188
  280MOL0     H36919   5.470   5.491   9.522 -0.2968 -4.7426  0.9861
  280MOL0     H36920   5.183   5.580   9.552 -0.8642  0.5822 -2.2871
  280MOL0     H36921   5.247   5.479   9.423  1.9865  0.9611 -3.1205
  280MOL0     H36922   5.190   5.776   9.646  2.3010 -2.0825  0.9581
  280MOL0     H36923   5.213   6.001   9.727 -2.1021 -5.8671  1.4414
  280MOL0     H36924   5.387   6.532   9.501 -0.2029 -0.1818  0.3905
  280MOL0     H36925   5.509   6.740   9.571  2.9193 -0.0993 -1.7622
  280MOL0     H36926   5.622   6.914   9.682 -0.0066  0.1738  0.6512
  280MOL0     H36927   5.745   6.856   9.582 -0.6602  2.2081  0.4956
  280MOL0     H36928   5.924   6.900   9.744 -1.1793 -1.3591 -0.7670
  280MOL0     H36929   5.798   6.968   9.863  1.6941 -0.0485  0.2323
  280MOL0     H36930   5.733   7.123   9.699 -0.7409 -0.7537 -0.9139
  280MOL0     H36931   5.830   7.058   9.577 -0.8097  0.7027 -1.3862
  280MOL0     H36932   5.937   7.176   9.840 -0.0667  0.8266 -0.4025
  280MOL0     H36933   6.035   7.137   9.703  1.1001  1.9884  1.5261
  280MOL0     H36934   5.844   7.381   9.723  3.4326  5.2251 -1.9570
  280MOL0     H36935   5.905   7.302   9.577 -0.8125 -2.4570 -0.1546
  280MOL0     H36936   6.054   7.418   9.813 -3.1812  1.2425 -0.6765
  280MOL0     H36937   6.043   7.498   9.658 -2.7015 -0.8255 -2.7357
  280MOL0     H36938   6.216   7.246   9.710 -1.7867  0.0590  0.0930
  280MOL0     H36939   6.172   7.301   9.551 -1.9104 -2.4504  0.5493
  280MOL0     H36940   6.300   7.462   9.770  2.0036 -1.9517 -0.1477
  280MOL0     H36941   6.291   7.514   9.595  1.1388  0.5855  0.7384
  280MOL0     H36942   5.734   6.494   9.858  1.6055  3.4772 -0.4630
  280MOL0     H36943   5.636   6.300   9.762  0.1916 -1.4181 -1.4081
  280MOL0     H36944   5.502   6.089   9.425 -1.1723  1.1113  0.8952
  280MOL0     H36945   5.467   5.856   9.326  0.3893  3.0695 -1.1477
  280MOL0     H36946   6.234   5.184   9.838  1.1189  0.8906  1.8908
  280MOL0     H36947   6.456   5.198   9.740  1.9351  1.0362  2.7364
  280MOL0     H36948   6.956   5.238   9.946  0.6008 -0.8647  2.5725
  280MOL0     H36949   7.184   5.235   9.900  0.3495 -2.5669  2.0140
  280MOL0     H36950   7.413   4.995   9.897 -1.4919 -3.8449 -2.6560
  280MOL0     H36951   7.414   5.173   9.880  1.8368  1.9180 -2.4794
  280MOL0     H36952   7.548   4.974   9.698  3.4260 -0.1969  1.1214
  280MOL0     H36953   7.550   5.150   9.671 -1.8072 -0.8485 -0.8299
  280MOL0     H36954   7.674   4.987   9.893  2.8366  2.1509  1.4719
  280MOL0     H36955   7.638   5.156   9.915 -2.6444 -3.2278  1.8607
  280MOL0     H36956   7.876   5.093   9.827  1.7355  0.1647 -1.0895
  280MOL0     H36957   7.798   5.072   9.668  0.9995  0.0773 -0.2125
  280MOL0     H36958   7.792   5.490   9.709 -0.0194 -1.0388 -2.0878
  280MOL0     H36959   7.114   4.903   9.628  0.4218  2.1137 -1.7914
  280MOL0     H36960   6.879   4.899   9.680  0.8926 -2.7313  1.8674
  281MOL0     O36961   2.177  11.047   7.493  0.2608 -0.3304  0.2849
  281MOL0     C36962   2.109  11.052   7.391 -0.9472  0.1212  0.4462
  281MOL0     O36963   2.145  11.008   7.270  0.1017 -0.4111 -0.0398
  281MOL0     C36964   2.284  10.978   7.255 -0.1249  0.3493  0.0401
  281MOL0     C36965   2.316  10.865   7.176  0.8410 -0.1086  0.1362
  281MOL0     C36966   2.441  10.830   7.133 -1.0869 -0.2431 -0.5332
  281MOL0     C36967   2.537  10.929   7.154 -0.1344 -0.0010  0.3252
  281MOL0     O36968   2.658  10.911   7.097 -0.0998  0.2937  0.4201
  281MOL0     C36969   2.774  10.923   7.174  0.4504 -0.8957  0.1575
  281MOL0     C36970   2.891  10.908   7.074 -0.3129 -0.5986 -0.4891
  281MOL0     C36971   3.027  10.907   7.142  0.4643  0.2641 -0.4132
  281MOL0     C36972   3.161  10.903   7.057  0.4294  0.2629 -0.4369
  281MOL0     C36973   3.182  10.795   6.959 -0.0453  0.5441 -0.3829
  281MOL0     C36974   3.314  10.795   6.874 -0.4519  0.2428  0.1178
  281MOL0     C36975   3.436  10.763   6.958 -0.3282  0.8528 -0.5664
  281MOL0     C36976   3.490  10.615   6.960  0.3353 -0.0849 -0.6483
  281MOL0     N36977   3.446  10.561   7.097 -0.1644 -0.7350  1.1312
  281MOL0     C36978   3.348  10.465   7.110  0.0334 -0.8717 -0.0630
  281MOL0     C36979   3.337  10.450   7.238 -0.0008  0.2683 -0.0437
  281MOL0     C36980   3.236  10.367   7.307 -0.2710  0.0076  0.0375
  281MOL0     C36981   3.092  10.416   7.283  0.1171 -1.3485  0.0831
  281MOL0     C36982   3.000  10.364   7.397  0.1013  0.1390 -0.7366
  281MOL0     C36983   2.871  10.443   7.416  1.3446 -0.0085  0.8208
  281MOL0     O36984   2.806  10.410   7.292  0.2155 -1.0088 -0.3703
  281MOL0     C36985   2.670  10.441   7.278 -0.9142  0.7469  0.5311
  281MOL0     C36986   2.587  10.524   7.356 -0.5061  0.3676  0.4483
  281MOL0     C36987   2.456  10.545   7.344 -0.6013 -0.3179 -0.4119
  281MOL0     C36988   2.384  10.467   7.245  0.3305 -0.1912 -0.4036
  281MOL0     C36989   2.234  10.481   7.231 -0.8653  0.4808 -0.1372
  281MOL0     O36990   2.178  10.534   7.340 -0.1710 -0.3856 -0.4337
  281MOL0     C36991   2.053  10.583   7.353  0.5847  0.6249 -0.4786
  281MOL0     C36992   2.027  10.684   7.445  0.0907  0.0203  0.3306
  281MOL0     C36993   1.894  10.726   7.464  0.1506 -0.4984  1.0338
  281MOL0     C36994   1.784  10.680   7.386 -0.3552 -0.5593  0.2088
  281MOL0     O36995   1.661  10.745   7.406 -0.2003  0.0896  0.4522
  281MOL0     C36996   1.555  10.719   7.314  0.4030 -1.0417  0.2382
  281MOL0     C36997   1.434  10.813   7.343 -0.7325 -0.2471 -0.5391
  281MOL0     C36998   1.353  10.865   7.225  0.2418 -0.1424  0.8729
  281MOL0     C36999   1.232  10.951   7.260  0.6896  0.1558 -0.2255
  281MOL0     C37000   1.130  10.870   7.335  0.2745 -0.5388 -0.5053
  281MOL0     C37001   0.989  10.921   7.313 -0.8893 -1.0253  0.1975
  281MOL0     C37002   0.964  11.074   7.342  0.6563  0.7984  0.9016
  281MOL0     C37003   0.821  11.101   7.313 -0.0163  1.3454 -1.2432
  281MOL0    Cl37004   0.798  11.098   7.133 -0.1554 -0.1983 -0.0058
  281MOL0     C37005   1.810  10.578   7.299  0.2860 -0.0245  0.1722
  281MOL0     C37006   1.941  10.523   7.291  0.3517 -0.3984 -0.1684
  281MOL0     O37007   2.180  10.451   7.125 -0.4020  0.0896  0.8949
  281MOL0     C37008   2.456  10.388   7.158  0.2318  0.3721 -0.5076
  281MOL0     C37009   2.602  10.373   7.173  0.1789 -0.9304 -0.1925
  281MOL0     N37010   3.449  10.515   7.298 -0.8653 -0.7037 -0.3331
  281MOL0     N37011   3.517  10.581   7.207 -0.4613 -0.2842 -0.1770
  281MOL0     C37012   2.510  11.050   7.233  0.4367  0.1092 -0.5475
  281MOL0     C37013   2.387  11.075   7.284  0.5301 -1.3901 -0.3358
  281MOL0     C37014   1.972  11.088   7.408  0.3796  0.2705  0.7118
  281MOL0     C37015   1.874  11.051   7.315  0.1691  0.1340 -0.7705
  281MOL0     C37016   1.746  11.100   7.319 -0.3505 -0.3229 -0.6110
  281MOL0     C37017   1.705  11.166   7.428  1.0041 -0.8834 -0.5963
  281MOL0     O37018   1.565  11.191   7.422  0.2320  0.0670 -0.3542
  281MOL0     C37019   1.507  11.293   7.505  0.8556  0.8081  0.4222
  281MOL0     C37020   1.476  11.245   7.650 -0.0320  0.0210  0.2852
  281MOL0     C37021   1.368  11.143   7.668  0.0489  0.0622  0.2940
  281MOL0     C37022   1.223  11.207   7.680  0.3425  0.3182  0.7180
  281MOL0     C37023   1.120  11.101   7.701  0.0986  0.8742  0.3105
  281MOL0     C37024   1.026  11.037   7.739 -0.2774  0.0759  0.0157
  281MOL0     C37025   1.794  11.204   7.530 -0.7464  0.0235  0.3123
  281MOL0     C37026   1.928  11.157   7.525  1.0607  0.8855 -0.1429
  281MOL0     H37027   2.235  10.801   7.145 -0.8810  1.6323  0.8460
  281MOL0     H37028   2.463  10.732   7.092 -1.6889 -0.3653 -0.5716
  281MOL0     H37029   2.768  10.842   7.247  3.3745 -1.0982  0.2819
  281MOL0     H37030   2.776  11.025   7.214  3.2507  0.4430 -2.9322
  281MOL0     H37031   2.882  11.004   7.023 -0.0002  0.9892  2.2414
  281MOL0     H37032   2.875  10.820   7.011  0.8293 -0.2178 -1.3481
  281MOL0     H37033   3.032  10.819   7.207 -1.7770 -1.0306 -1.8619
  281MOL0     H37034   3.025  10.988   7.216 -0.3133  0.1479 -0.3071
  281MOL0     H37035   3.178  10.998   7.005 -0.2368 -0.5457 -2.2155
  281MOL0     H37036   3.240  10.911   7.132  2.2483  0.4189 -2.2690
  281MOL0     H37037   3.094  10.791   6.894 -0.2499 -2.2896 -0.0428
  281MOL0     H37038   3.182  10.700   7.013  5.3708  0.5959  0.2706
  281MOL0     H37039   3.332  10.896   6.836 -0.1879 -0.5793 -2.1606
  281MOL0     H37040   3.298  10.728   6.788 -2.1419  2.6356 -1.5658
  281MOL0     H37041   3.519  10.827   6.927 -1.0852  0.3214 -4.1550
  281MOL0     H37042   3.421  10.796   7.062  2.0644  1.4108 -0.3483
  281MOL0     H37043   3.595  10.605   6.934  0.4986  0.1969 -0.1243
  281MOL0     H37044   3.438  10.565   6.878 -1.2244 -2.4283  1.6143
  281MOL0     H37045   3.283  10.438   7.027 -0.8088  3.8399 -1.2319
  281MOL0     H37046   3.256  10.370   7.415 -1.5747 -1.9569  0.3866
  281MOL0     H37047   3.244  10.263   7.275 -1.3428  0.2036 -0.9330
  281MOL0     H37048   3.064  10.384   7.183  1.9744  0.4975 -1.1095
  281MOL0     H37049   3.091  10.526   7.283 -2.4374 -1.3062  0.7894
  281MOL0     H37050   2.974  10.259   7.387  0.4739 -0.0209 -0.0621
  281MOL0     H37051   3.055  10.388   7.489  1.5384 -0.0882 -1.5047
  281MOL0     H37052   2.895  10.550   7.425  3.6005 -0.5991  2.9873
  281MOL0     H37053   2.812  10.411   7.502 -2.7988  2.5642 -0.7308
  281MOL0     H37054   2.634  10.576   7.439 -2.2922  1.3598  0.8852
  281MOL0     H37055   2.408  10.610   7.415  0.8321 -0.7226  0.9840
  281MOL0     H37056   2.107  10.725   7.506  0.9696 -1.1051 -0.0379
  281MOL0     H37057   1.871  10.804   7.535 -1.4153 -1.0488  1.1596
  281MOL0     H37058   1.524  10.615   7.322  2.8885 -1.9588 -1.2005
  281MOL0     H37059   1.599  10.729   7.214  2.2788  3.0884  1.2753
  281MOL0     H37060   1.485  10.899   7.387 -1.1684  0.4543 -1.3606
  281MOL0     H37061   1.370  10.760   7.414  2.5579 -3.5636  0.2518
  281MOL0     H37062   1.324  10.785   7.157  0.7302  1.1826 -0.9822
  281MOL0     H37063   1.424  10.930   7.172  0.9133 -0.8221  0.9279
  281MOL0     H37064   1.267  11.037   7.319  3.2238 -1.2032  0.4207
  281MOL0     H37065   1.191  10.990   7.167 -0.5607  1.8935  0.9980
  281MOL0     H37066   1.158  10.875   7.440  2.1624 -3.1289 -0.7786
  281MOL0     H37067   1.127  10.767   7.297 -2.0320 -0.0903 -1.7691
  281MOL0     H37068   0.916  10.869   7.376  0.5740 -1.2783  1.7403
  281MOL0     H37069   0.949  10.903   7.213  1.5960  2.0371 -1.5312
  281MOL0     H37070   0.988  11.097   7.446 -0.4635 -0.4251  1.4488
  281MOL0     H37071   1.026  11.140   7.280  1.0601 -0.1231  0.3125
  281MOL0     H37072   0.794  11.202   7.346 -0.4675  0.9438 -0.3589
  281MOL0     H37073   0.750  11.026   7.350  1.9985 -0.1301 -0.1376
  281MOL0     H37074   1.728  10.533   7.244 -0.6182  1.9895 -0.2192
  281MOL0     H37075   1.955  10.439   7.223  3.0388  1.4008 -2.0036
  281MOL0     H37076   2.405  10.333   7.080  1.5487 -1.1339 -0.3538
  281MOL0     H37077   2.654  10.306   7.105 -0.8232 -0.7159 -1.2062
  281MOL0     H37078   2.592  11.121   7.239 -0.5359  1.3583 -1.5815
  281MOL0     H37079   2.380  11.175   7.325  0.6207 -1.2302 -0.7055
  281MOL0     H37080   1.907  10.989   7.233 -1.3950 -2.0712  0.1549
  281MOL0     H37081   1.673  11.076   7.243  0.8725  0.4145 -2.0818
  281MOL0     H37082   1.411  11.316   7.458  1.6832  0.2911 -1.6627
  281MOL0     H37083   1.563  11.387   7.508  1.9495  0.2217 -0.7589
  281MOL0     H37084   1.563  11.209   7.706 -0.9073  1.3622  2.6531
  281MOL0     H37085   1.440  11.335   7.700  0.1641 -0.1101  0.6674
  281MOL0     H37086   1.384  11.079   7.756  0.6693 -0.2661 -0.0529
  281MOL0     H37087   1.362  11.080   7.579  2.2915 -0.2157  0.2767
  281MOL0     H37088   1.219  11.290   7.752  1.9740  0.9840  0.0846
  281MOL0     H37089   1.195  11.239   7.579  0.3515  0.9228  0.9005
  281MOL0     H37090   0.940  10.985   7.774 -1.8046  1.8650 -0.9048
  281MOL0     H37091   1.765  11.267   7.614  2.3826 -0.8043  2.1881
  281MOL0     H37092   1.997  11.188   7.603 -0.6489  0.9419  1.4285
  282MOL0     O37093   3.138   9.518   8.408  0.0758 -0.6322 -0.4915
  282MOL0     C37094   3.154   9.634   8.369 -0.3751  0.5307  0.2130
  282MOL0     O37095   3.267   9.691   8.334  0.0324  0.1794 -0.1207
  282MOL0     C37096   3.384   9.622   8.375  0.1480 -0.5691  0.5545
  282MOL0     C37097   3.425   9.601   8.512 -0.4445  0.5350 -0.2620
  282MOL0     C37098   3.551   9.549   8.548 -0.1319  0.8957 -0.3969
  282MOL0     C37099   3.638   9.510   8.444 -0.3984 -0.0174 -0.0125
  282MOL0     O37100   3.750   9.441   8.492 -0.1537 -0.3654  0.8494
  282MOL0     C37101   3.796   9.333   8.410  0.3241  0.8378  0.0153
  282MOL0     C37102   3.926   9.369   8.334 -0.1043  0.1731 -0.3656
  282MOL0     C37103   4.044   9.390   8.424  0.2317  0.2303 -0.4659
  282MOL0     C37104   4.166   9.445   8.345 -0.1604 -0.5818 -0.6978
  282MOL0     C37105   4.293   9.465   8.436  0.5193 -0.1428  0.1363
  282MOL0     C37106   4.368   9.340   8.474 -0.3077  0.3080 -0.5772
  282MOL0     C37107   4.500   9.377   8.543  0.2303  0.8382 -1.4310
  282MOL0     C37108   4.578   9.256   8.584 -0.3361 -0.0538 -0.0274
  282MOL0     N37109   4.705   9.297   8.640  0.2566 -0.5544 -0.4173
  282MOL0     C37110   4.788   9.400   8.596 -0.9807  0.5062  0.2944
  282MOL0     C37111   4.916   9.375   8.648 -0.3190  0.0360 -0.8094
  282MOL0     C37112   5.035   9.465   8.621  0.2461 -0.8619 -0.2122
  282MOL0     C37113   5.162   9.402   8.569  0.6816 -0.7742  0.2709
  282MOL0     C37114   5.222   9.313   8.677  0.2974  0.1896  0.3109
  282MOL0     C37115   5.362   9.279   8.629 -0.3300 -0.2726  0.2399
  282MOL0     O37116   5.400   9.185   8.731 -0.2281  0.0870  0.2727
  282MOL0     C37117   5.532   9.155   8.721 -0.4236 -0.3562  0.5443
  282MOL0     C37118   5.616   9.165   8.618  0.0943 -1.2412  0.5607
  282MOL0     C37119   5.755   9.168   8.635  0.0945  0.2649  0.7115
  282MOL0     C37120   5.819   9.154   8.757  0.8945 -0.1288 -0.7526
  282MOL0     C37121   5.961   9.152   8.792 -0.1512 -0.8126  0.3979
  282MOL0     O37122   6.012   9.093   8.901  0.3547  0.3619 -0.7653
  282MOL0     C37123   6.132   9.141   8.946 -0.0318  0.1409  0.1905
  282MOL0     C37124   6.121   9.246   9.031 -0.2151  0.2284  0.3181
  282MOL0     C37125   6.240   9.307   9.079 -0.3372  0.2369 -0.4893
  282MOL0     C37126   6.371   9.272   9.041 -0.1241  0.8708  0.2951
  282MOL0     O37127   6.473   9.329   9.113  0.6036 -0.4675 -0.3781
  282MOL0     C37128   6.592   9.258   9.144 -0.0945 -0.6093  0.2713
  282MOL0     C37129   6.683   9.358   9.213  0.7776 -0.3819 -0.4062
  282MOL0     C37130   6.636   9.382   9.357 -1.2970 -0.2646 -0.1877
  282MOL0     C37131   6.720   9.482   9.439 -0.7426  0.3036 -0.2249
  282MOL0     C37132   6.650   9.496   9.574 -0.9082 -0.2245 -0.6842
  282MOL0     C37133   6.711   9.608   9.660  0.0991 -0.5662  0.4608
  282MOL0     C37134   6.846   9.575   9.725 -0.1210 -0.5007 -0.4637
  282MOL0     C37135   6.871   9.667   9.836  0.3887 -0.7581 -0.3065
  282MOL0    Cl37136   6.879   9.826   9.769 -0.1133 -0.1979 -0.0077
  282MOL0     C37137   6.384   9.174   8.943  1.7239 -0.8104  1.0462
  282MOL0     C37138   6.259   9.113   8.896  0.0041 -0.6493  0.1132
  282MOL0     O37139   6.025   9.212   8.707  1.0874 -0.2827  0.5209
  282MOL0     C37140   5.733   9.138   8.863  0.0714 -0.0536 -0.0361
  282MOL0     C37141   5.596   9.144   8.847 -0.4479 -0.3810 -0.3539
  282MOL0     N37142   4.902   9.268   8.737 -0.4932 -0.7563 -0.5569
  282MOL0     N37143   4.779   9.225   8.730  0.1048  0.9962 -0.8175
  282MOL0     C37144   3.602   9.540   8.308 -0.0938  0.7048 -0.4095
  282MOL0     C37145   3.474   9.592   8.274 -1.0405 -0.4842 -0.1930
  282MOL0     C37146   3.032   9.702   8.314  0.2119 -0.3395 -0.0584
  282MOL0     C37147   3.032   9.849   8.295  0.1592  0.1094  0.7363
  282MOL0     C37148   2.913   9.905   8.253 -0.1960  0.3865 -1.0921
  282MOL0     C37149   2.802   9.828   8.218  0.2433 -0.5620  0.4083
  282MOL0     O37150   2.684   9.866   8.155  0.7165  0.2497 -0.0478
  282MOL0     C37151   2.636  10.003   8.173  0.0261  0.3232  0.2669
  282MOL0     C37152   2.487   9.994   8.217 -0.7031  0.1316  0.0275
  282MOL0     C37153   2.426  10.130   8.160 -0.9897 -0.5499 -1.0554
  282MOL0     C37154   2.298  10.171   8.219 -0.0372  0.3828 -0.3620
  282MOL0     C37155   2.200  10.070   8.180 -0.0763 -0.2856 -0.5018
  282MOL0     C37156   2.119   9.982   8.148 -0.2661  0.4445 -0.4178
  282MOL0     C37157   2.802   9.696   8.239 -0.2499 -0.0308 -0.1527
  282MOL0     C37158   2.917   9.635   8.289 -0.2527  0.0037  0.8544
  282MOL0     H37159   3.364   9.626   8.598  0.5777  3.3169 -0.2678
  282MOL0     H37160   3.581   9.524   8.650 -5.1351 -0.8945  0.9266
  282MOL0     H37161   3.717   9.295   8.344  1.4574  0.0089 -0.9106
  282MOL0     H37162   3.828   9.255   8.480  0.3370  2.0374  1.3775
  282MOL0     H37163   3.906   9.450   8.263 -0.4790  1.1848  0.8517
  282MOL0     H37164   3.940   9.279   8.274 -0.7508 -0.7131  0.7524
  282MOL0     H37165   4.062   9.301   8.485  0.2974  0.5683  0.0212
  282MOL0     H37166   4.028   9.471   8.497  0.5134 -0.9509  0.9471
  282MOL0     H37167   4.189   9.382   8.259  0.0851 -2.2833  0.5754
  282MOL0     H37168   4.129   9.542   8.308 -1.4678  0.4083  2.8333
  282MOL0     H37169   4.260   9.508   8.531 -1.7639 -0.5594 -0.3915
  282MOL0     H37170   4.360   9.531   8.381 -1.4383  0.5304 -1.5912
  282MOL0     H37171   4.381   9.278   8.385 -0.0852 -1.2676  0.5144
  282MOL0     H37172   4.302   9.274   8.531  0.0377 -0.7304 -1.3478
  282MOL0     H37173   4.553   9.440   8.471  1.9344 -0.4434 -1.3689
  282MOL0     H37174   4.482   9.431   8.635 -0.5125 -1.6158 -0.0340
  282MOL0     H37175   4.603   9.191   8.499 -2.6617 -0.1555 -0.6827
  282MOL0     H37176   4.529   9.190   8.656  1.1773 -0.7342  0.4204
  282MOL0     H37177   4.752   9.453   8.508  1.8728 -1.9362 -2.6156
  282MOL0     H37178   5.056   9.533   8.704 -1.1742 -1.1974  0.4529
  282MOL0     H37179   5.000   9.540   8.549  1.0025  1.2488  1.5143
  282MOL0     H37180   5.225   9.482   8.529 -1.8862  1.5921  0.6060
  282MOL0     H37181   5.145   9.337   8.483  2.2688  1.2494 -1.6800
  282MOL0     H37182   5.221   9.376   8.766  1.2992  1.1341 -0.3178
  282MOL0     H37183   5.154   9.228   8.689 -0.9287  0.7062 -2.2185
  282MOL0     H37184   5.421   9.371   8.634 -1.0378  0.1852  0.3599
  282MOL0     H37185   5.362   9.239   8.527 -1.6725 -2.1105  0.9068
  282MOL0     H37186   5.573   9.183   8.520  0.9865 -1.4529  0.1288
  282MOL0     H37187   5.827   9.177   8.554 -1.1645  3.6302 -0.1837
  282MOL0     H37188   6.026   9.295   9.051  0.3436  1.5236 -0.1098
  282MOL0     H37189   6.236   9.373   9.165 -0.6413 -0.0017 -0.3203
  282MOL0     H37190   6.634   9.210   9.055  1.8433 -0.8939  1.2984
  282MOL0     H37191   6.561   9.178   9.212  0.1541  0.9970  2.4072
  282MOL0     H37192   6.698   9.449   9.154  3.9240  0.3720  1.3354
  282MOL0     H37193   6.785   9.317   9.219  0.4938 -0.8952  3.0025
  282MOL0     H37194   6.625   9.286   9.406  1.9366 -0.3989  0.5402
  282MOL0     H37195   6.539   9.433   9.355 -0.5399  1.2417 -0.9125
  282MOL0     H37196   6.815   9.431   9.460 -1.3950 -0.3615  1.2412
  282MOL0     H37197   6.739   9.579   9.390  0.5845  1.1433  1.8322
  282MOL0     H37198   6.648   9.401   9.628  2.6382 -1.8068 -2.9285
  282MOL0     H37199   6.549   9.530   9.552 -0.1026  0.8354 -3.1371
  282MOL0     H37200   6.647   9.652   9.737  1.2676  0.9486  0.6175
  282MOL0     H37201   6.716   9.697   9.596 -2.1749 -0.7493 -0.0425
  282MOL0     H37202   6.847   9.474   9.767 -0.8090  0.9000  3.2433
  282MOL0     H37203   6.925   9.585   9.650  0.7776 -4.6961 -0.3487
  282MOL0     H37204   6.962   9.638   9.888 -1.9294 -2.2024  3.3511
  282MOL0     H37205   6.794   9.656   9.913 -0.1965  1.0249 -0.5674
  282MOL0     H37206   6.482   9.135   8.917  1.7937 -0.2898  0.5116
  282MOL0     H37207   6.271   9.050   8.808 -1.3317  0.7223 -1.1085
  282MOL0     H37208   5.765   9.107   8.962 -1.4135  0.4231  0.6167
  282MOL0     H37209   5.538   9.130   8.937  0.8924 -1.4734  0.3841
  282MOL0     H37210   3.675   9.515   8.232 -0.4972 -2.4537  0.1247
  282MOL0     H37211   3.441   9.609   8.172 -1.7672  3.0759  0.5108
  282MOL0     H37212   3.115   9.915   8.318  1.0388 -0.8055  0.2826
  282MOL0     H37213   2.912  10.014   8.248  0.1460  0.5962  1.9030
  282MOL0     H37214   2.655  10.056   8.079 -1.2175  0.9444  0.3594
  282MOL0     H37215   2.688  10.049   8.257  0.5959 -1.8564  1.1769
  282MOL0     H37216   2.430   9.913   8.170 -4.1847  2.2490  0.2961
  282MOL0     H37217   2.464   9.982   8.323 -0.5794 -2.7695 -0.1764
  282MOL0     H37218   2.433  10.131   8.051 -0.6155 -0.0491 -1.0267
  282MOL0     H37219   2.492  10.210   8.194 -0.0375 -1.3893 -0.8836
  282MOL0     H37220   2.300  10.180   8.328 -0.7509  2.8996 -0.4830
  282MOL0     H37221   2.276  10.270   8.179 -1.2847 -0.2658 -1.3636
  282MOL0     H37222   2.046   9.903   8.140 -0.5874  0.4553  1.7432
  282MOL0     H37223   2.715   9.636   8.214  0.7394 -1.7403  0.3863
  282MOL0     H37224   2.912   9.529   8.313 -2.0753 -0.7082 -2.1294
  283MOL0     O37225   5.168   4.139   3.167 -0.3541  0.9029 -0.5640
  283MOL0     C37226   5.161   4.070   3.068 -0.6490 -1.1636 -1.1937
  283MOL0     O37227   5.116   3.942   3.059  0.1038 -0.0972 -0.2867
  283MOL0     C37228   5.112   3.858   3.167 -0.2737  0.0006 -0.4842
  283MOL0     C37229   5.025   3.755   3.146  0.1592  0.8986  0.8201
  283MOL0     C37230   5.005   3.655   3.236  0.2892  0.4337 -0.3880
  283MOL0     C37231   5.053   3.665   3.366  0.6746  0.3075 -0.7255
  283MOL0     O37232   5.015   3.562   3.449 -1.0979  0.0055 -0.7029
  283MOL0     C37233   5.027   3.586   3.586  0.4394  0.7942 -0.5304
  283MOL0     C37234   5.055   3.444   3.649  0.2877 -0.3936 -1.2538
  283MOL0     C37235   4.938   3.348   3.644 -0.7377 -0.2781  0.1344
  283MOL0     C37236   4.825   3.396   3.741  0.7284  0.1604  0.4957
  283MOL0     C37237   4.715   3.288   3.754 -0.0733 -0.2519  0.9432
  283MOL0     C37238   4.657   3.240   3.625 -0.4328 -0.1802 -0.1335
  283MOL0     C37239   4.573   3.113   3.648 -0.4157 -0.2470  0.3697
  283MOL0     C37240   4.501   3.092   3.525 -0.1553 -0.2021 -0.2578
  283MOL0     N37241   4.424   2.962   3.517 -0.6395  0.2556  0.8774
  283MOL0     C37242   4.321   2.942   3.614 -0.3892 -0.2203  1.2928
  283MOL0     C37243   4.274   2.821   3.558  0.3834  0.0300 -0.4048
  283MOL0     C37244   4.156   2.740   3.610  0.9427  0.2312  0.0277
  283MOL0     C37245   4.139   2.735   3.769  0.1670  0.2614  0.9025
  283MOL0     C37246   4.273   2.678   3.827  0.3390 -0.5410  0.9694
  283MOL0     C37247   4.254   2.656   3.981  0.3204 -0.5259 -0.2151
  283MOL0     O37248   4.369   2.583   4.025 -0.4173  0.1332 -0.0461
  283MOL0     C37249   4.490   2.626   4.015 -0.8828  0.3054  0.4563
  283MOL0     C37250   4.596   2.533   4.034 -0.7328 -0.0041  0.0492
  283MOL0     C37251   4.730   2.564   4.010 -0.3153  0.0364  0.8813
  283MOL0     C37252   4.777   2.697   3.982 -0.1663  0.3628  0.3501
  283MOL0     C37253   4.913   2.726   3.948  0.4033 -0.2013 -0.2333
  283MOL0     O37254   4.997   2.614   3.953 -0.2456  0.5266 -0.6344
  283MOL0     C37255   5.135   2.640   3.937  0.6049  0.0352  0.2225
  283MOL0     C37256   5.216   2.617   4.048 -0.2907  0.1207 -0.2529
  283MOL0     C37257   5.352   2.647   4.037  0.9275 -0.2164  0.6005
  283MOL0     C37258   5.412   2.676   3.910  0.2323  0.2586  0.8470
  283MOL0     O37259   5.548   2.715   3.915 -0.4148  0.8037 -0.0607
  283MOL0     C37260   5.595   2.817   3.821 -0.1058  0.7016  0.4104
  283MOL0     C37261   5.744   2.825   3.862  0.3350 -0.1675 -0.1552
  283MOL0     C37262   5.790   2.963   3.814  1.4031  0.2721  0.2433
  283MOL0     C37263   5.940   2.989   3.843  0.3133 -0.2623  0.4716
  283MOL0     C37264   6.045   2.891   3.800 -0.3265 -0.2249 -0.2568
  283MOL0     C37265   6.191   2.947   3.786 -0.0130  0.7155 -0.4765
  283MOL0     C37266   6.276   2.839   3.717 -0.0186 -1.4353 -0.1095
  283MOL0     C37267   6.417   2.898   3.703  0.8030 -0.0811 -1.2933
  283MOL0    Cl37268   6.409   3.023   3.574 -0.0310  0.1174 -0.0567
  283MOL0     C37269   5.330   2.679   3.788  0.1023  0.7292 -0.1822
  283MOL0     C37270   5.193   2.666   3.809  0.0915  0.0095 -0.7348
  283MOL0     O37271   4.934   2.838   3.906 -1.1516 -0.9795 -0.9065
  283MOL0     C37272   4.673   2.789   3.980 -0.6224 -0.4602 -0.1025
  283MOL0     C37273   4.537   2.759   3.994 -0.9298  0.3078 -0.0126
  283MOL0     N37274   4.348   2.782   3.448  0.6703  0.2376  0.0884
  283MOL0     N37275   4.451   2.864   3.426  0.4738 -0.1269  0.4909
  283MOL0     C37276   5.136   3.774   3.390 -0.6899 -0.5495  0.2940
  283MOL0     C37277   5.173   3.870   3.299 -0.7704  0.1171  1.5376
  283MOL0     C37278   5.200   4.126   2.938  0.1879 -0.7840 -0.4286
  283MOL0     C37279   5.212   4.044   2.826 -0.4443 -0.1146 -0.1396
  283MOL0     C37280   5.251   4.109   2.705 -0.0881  0.5140 -0.5043
  283MOL0     C37281   5.269   4.249   2.696  0.3007 -0.4205  0.5571
  283MOL0     O37282   5.314   4.312   2.580  0.2677  0.9465 -0.4670
  283MOL0     C37283   5.310   4.256   2.451 -0.3092 -0.4000 -0.0829
  283MOL0     C37284   5.457   4.218   2.432 -0.9236 -0.4475 -0.7413
  283MOL0     C37285   5.499   4.130   2.309  0.5262  0.0709 -0.0478
  283MOL0     C37286   5.454   4.185   2.171 -0.1182  0.8700 -0.5492
  283MOL0     C37287   5.534   4.312   2.143  0.5543  0.2758  0.3924
  283MOL0     C37288   5.604   4.410   2.143  0.0173 -0.2339 -0.5990
  283MOL0     C37289   5.247   4.323   2.802  0.2257  0.6816  0.4612
  283MOL0     C37290   5.216   4.264   2.928 -0.5096  0.1358  0.2466
  283MOL0     H37291   5.001   3.745   3.041  1.9571  0.8541  0.3860
  283MOL0     H37292   4.940   3.572   3.213 -1.9023  1.0448  2.8920
  283MOL0     H37293   4.927   3.619   3.617 -0.4948 -1.0561 -1.3879
  283MOL0     H37294   5.093   3.669   3.613  2.1055  0.0819 -2.1893
  283MOL0     H37295   5.088   3.441   3.753  0.3638  0.9481 -1.2295
  283MOL0     H37296   5.136   3.401   3.589  2.7247  1.8922  0.2089
  283MOL0     H37297   4.969   3.243   3.658 -0.3728 -0.0239  1.4216
  283MOL0     H37298   4.897   3.360   3.544  0.3193 -0.5077 -0.3350
  283MOL0     H37299   4.852   3.411   3.846  0.4864 -2.1328  0.9422
  283MOL0     H37300   4.779   3.491   3.714 -3.1890 -1.7613 -0.4406
  283MOL0     H37301   4.633   3.334   3.810 -1.1130  1.0068 -1.4525
  283MOL0     H37302   4.754   3.201   3.808 -0.2749 -0.6326  0.4902
  283MOL0     H37303   4.725   3.220   3.542  1.3574 -2.7195  1.7858
  283MOL0     H37304   4.608   3.329   3.586  0.0902  0.2633  0.2021
  283MOL0     H37305   4.628   3.024   3.679 -3.7428 -4.1783 -3.7236
  283MOL0     H37306   4.497   3.139   3.723 -2.2400  5.0952 -2.7750
  283MOL0     H37307   4.560   3.108   3.434  0.3513 -1.8159 -0.2325
  283MOL0     H37308   4.436   3.179   3.511  1.8877  1.4980  0.2538
  283MOL0     H37309   4.293   3.001   3.701 -1.9064 -0.5910  1.0853
  283MOL0     H37310   4.151   2.644   3.558 -1.5960  0.6148 -0.5895
  283MOL0     H37311   4.072   2.795   3.566 -1.8052 -3.1386  0.5550
  283MOL0     H37312   4.055   2.667   3.787 -0.1754  0.2795 -0.5006
  283MOL0     H37313   4.109   2.827   3.820 -0.9271 -0.1109  0.9753
  283MOL0     H37314   4.292   2.579   3.785  0.1929 -1.6897  3.4241
  283MOL0     H37315   4.347   2.756   3.813 -0.7631  0.5647  1.1337
  283MOL0     H37316   4.165   2.600   4.014  0.7776 -1.6963 -0.9043
  283MOL0     H37317   4.245   2.752   4.032 -2.3572 -1.5485  1.4871
  283MOL0     H37318   4.573   2.431   4.063  0.7310 -0.3173  0.1619
  283MOL0     H37319   4.808   2.489   4.024  0.9678  0.4523 -2.9019
  283MOL0     H37320   5.174   2.596   4.145  4.0385  0.4830  1.9486
  283MOL0     H37321   5.411   2.643   4.128  0.1780 -2.0103  1.0554
  283MOL0     H37322   5.539   2.904   3.854 -4.2055 -2.8797  4.1610
  283MOL0     H37323   5.598   2.791   3.714  0.8786  1.5597  0.2134
  283MOL0     H37324   5.806   2.742   3.827  3.0396  0.8368  1.9130
  283MOL0     H37325   5.756   2.820   3.971 -1.4889 -0.0056  0.0779
  283MOL0     H37326   5.724   3.038   3.857  0.2845  0.4784 -1.6920
  283MOL0     H37327   5.769   2.951   3.707  1.5979  1.0334  0.1137
  283MOL0     H37328   5.967   3.084   3.796  1.0070 -1.1735 -1.0421
  283MOL0     H37329   5.936   3.006   3.951  1.1710  1.4951  0.2720
  283MOL0     H37330   6.010   2.851   3.704 -1.2866  3.0209 -1.3972
  283MOL0     H37331   6.032   2.813   3.875  1.7180  0.1897  0.5886
  283MOL0     H37332   6.224   2.988   3.882 -2.1517  0.4132  0.4521
  283MOL0     H37333   6.185   3.035   3.721 -1.7401  0.7953 -0.2621
  283MOL0     H37334   6.289   2.743   3.769 -0.6027 -0.7027  1.4604
  283MOL0     H37335   6.241   2.817   3.616  0.4627 -3.9075  0.1886
  283MOL0     H37336   6.487   2.817   3.682  1.3580 -0.1230  0.5160
  283MOL0     H37337   6.457   2.948   3.792  0.2114 -0.7556 -0.6381
  283MOL0     H37338   5.371   2.700   3.690  1.0712  1.9643  0.4534
  283MOL0     H37339   5.119   2.673   3.731 -0.7557  3.3401  0.1701
  283MOL0     H37340   4.696   2.895   3.970  1.6629 -1.1176 -4.2993
  283MOL0     H37341   4.454   2.828   3.985 -0.3182  0.9269 -1.1817
  283MOL0     H37342   5.179   3.794   3.488  2.5148 -5.0200  0.1312
  283MOL0     H37343   5.242   3.952   3.315  1.8041 -1.6614  0.1225
  283MOL0     H37344   5.206   3.935   2.824  1.1174 -0.2136 -1.1068
  283MOL0     H37345   5.283   4.056   2.616  2.1372  1.0239 -0.0570
  283MOL0     H37346   5.280   4.333   2.379  3.1902  2.4046  1.1594
  283MOL0     H37347   5.240   4.172   2.444  0.4402 -0.9235 -1.9950
  283MOL0     H37348   5.516   4.310   2.437  3.3748 -2.9943  3.6699
  283MOL0     H37349   5.503   4.179   2.523 -3.1877  3.1669  2.2352
  283MOL0     H37350   5.457   4.031   2.328  0.7805  0.1566  1.0545
  283MOL0     H37351   5.608   4.116   2.310  0.3995 -1.0777 -0.5476
  283MOL0     H37352   5.471   4.110   2.094  0.4747 -0.1893  0.5774
  283MOL0     H37353   5.347   4.210   2.165 -0.4061 -0.3151 -0.4937
  283MOL0     H37354   5.660   4.500   2.130 -0.5525  0.2717  0.3476
  283MOL0     H37355   5.272   4.427   2.784  4.2576 -0.2788 -0.6521
  283MOL0     H37356   5.189   4.332   3.008  0.8205  1.6581 -0.5640
  284MOL0     O37357  10.327   3.198   9.461  0.5190 -0.1056  0.3556
  284MOL0     C37358  10.220   3.168   9.399 -0.2175  0.3458 -0.4700
  284MOL0     O37359  10.109   3.114   9.453  0.3865  0.3880 -0.4469
  284MOL0     C37360  10.052   3.164   9.568  0.2453 -0.3326  0.1773
  284MOL0     C37361   9.920   3.185   9.569 -0.9685  0.7384 -0.1279
  284MOL0     C37362   9.851   3.228   9.682  0.2288  0.2263  0.3580
  284MOL0     C37363   9.909   3.249   9.804 -1.1515  0.5019 -0.9698
  284MOL0     O37364   9.835   3.283   9.907 -0.3605  0.0886 -0.1656
  284MOL0     C37365   9.898   3.342  10.023 -0.4438  0.4744  0.3087
  284MOL0     C37366   9.782   3.356  10.114  0.1820  1.2471 -0.0126
  284MOL0     C37367   9.818   3.413  10.251  1.2485  0.6739 -0.8205
  284MOL0     C37368   9.718   3.364  10.355 -0.6349 -0.4273 -0.2839
  284MOL0     C37369   9.751   3.447  10.485 -0.1282 -0.1015  0.5659
  284MOL0     C37370   9.670   3.567  10.486  0.6849 -0.2244 -0.1067
  284MOL0     C37371   9.711   3.654  10.607 -0.0852 -0.0079  0.5860
  284MOL0     C37372   9.615   3.766  10.619 -1.2705  0.3716  0.6944
  284MOL0     N37373   9.505   3.726  10.695  0.4254  0.0106  0.3282
  284MOL0     C37374   9.394   3.667  10.639 -0.6084 -0.4490  0.1897
  284MOL0     C37375   9.307   3.644  10.741 -0.4399 -0.2900 -0.3451
  284MOL0     C37376   9.167   3.588  10.720 -1.1916 -0.8115  0.6235
  284MOL0     C37377   9.067   3.649  10.821  0.2876  0.3123  0.2904
  284MOL0     C37378   8.925   3.604  10.814  0.1208  0.0619  0.2254
  284MOL0     C37379   8.854   3.624  10.677 -0.7975  0.4150  0.0028
  284MOL0     O37380   8.711   3.658  10.691 -0.2954 -0.7412 -0.4872
  284MOL0     C37381   8.656   3.700  10.577  0.1148 -0.5004  0.2855
  284MOL0     C37382   8.624   3.618  10.479 -0.5536 -0.5595 -0.4268
  284MOL0     C37383   8.560   3.673  10.365  0.7237 -0.0731 -0.2051
  284MOL0     C37384   8.534   3.812  10.353  0.0491  0.1446  1.0830
  284MOL0     C37385   8.484   3.871  10.231  0.5213 -0.9170 -1.0616
  284MOL0     O37386   8.543   3.989  10.194  0.3169 -0.6934 -0.3135
  284MOL0     C37387   8.523   4.039  10.068 -0.5106  0.5458 -0.2186
  284MOL0     C37388   8.556   3.953   9.958 -0.4539 -0.4932 -0.4354
  284MOL0     C37389   8.556   4.002   9.819  1.0686  0.3569  0.5396
  284MOL0     C37390   8.529   4.137   9.795  0.4112  0.9384 -0.4872
  284MOL0     O37391   8.525   4.183   9.669  0.1482 -0.2045 -0.4867
  284MOL0     C37392   8.587   4.121   9.556 -0.5593 -0.2201  0.0499
  284MOL0     C37393   8.598   4.219   9.431 -0.0384  0.0908 -0.8297
  284MOL0     C37394   8.666   4.349   9.464 -0.0885 -0.1209  0.0709
  284MOL0     C37395   8.654   4.461   9.350 -0.6771  0.8288 -0.3267
  284MOL0     C37396   8.749   4.566   9.374 -0.3948 -0.4237 -0.0365
  284MOL0     C37397   8.742   4.671   9.264  0.7602  0.1606  0.2084
  284MOL0     C37398   8.851   4.767   9.282 -0.4174  0.3815 -0.2614
  284MOL0     C37399   8.851   4.869   9.168 -0.0929  0.1865  0.9695
  284MOL0    Cl37400   8.970   4.993   9.206 -0.3639  0.6355  0.2828
  284MOL0     C37401   8.492   4.217   9.905  0.4212 -0.1281  0.5512
  284MOL0     C37402   8.484   4.174  10.040  0.0074 -0.3716  0.6837
  284MOL0     O37403   8.386   3.818  10.172 -0.1910  0.0166  0.4960
  284MOL0     C37404   8.563   3.897  10.465  1.2025  0.1113 -0.0585
  284MOL0     C37405   8.622   3.838  10.578  0.7867  0.2934  0.5941
  284MOL0     N37406   9.367   3.676  10.862  0.1668 -0.0170 -0.1757
  284MOL0     N37407   9.488   3.726  10.835  0.2383  0.2295 -0.0641
  284MOL0     C37408  10.048   3.223   9.814 -0.3116 -0.0102  0.3023
  284MOL0     C37409  10.119   3.183   9.691 -1.0697  0.4397  1.3303
  284MOL0     C37410  10.228   3.159   9.253 -0.8865  0.3947 -0.1709
  284MOL0     C37411  10.322   3.234   9.187  0.2514  0.3396  0.7070
  284MOL0     C37412  10.358   3.201   9.059  0.7532 -0.6883 -0.3410
  284MOL0     C37413  10.283   3.119   8.983 -0.2590  0.8114  1.3379
  284MOL0     O37414  10.300   3.092   8.844  0.3638  0.1216  0.2899
  284MOL0     C37415  10.354   3.206   8.762  0.6652 -0.4023  0.5381
  284MOL0     C37416  10.387   3.162   8.609 -0.1054 -0.3988  0.0688
  284MOL0     C37417  10.484   3.040   8.625  0.6391 -0.3167 -0.1723
  284MOL0     C37418  10.506   2.987   8.490 -0.4487  0.5679  0.2300
  284MOL0     C37419  10.388   2.924   8.432 -0.3902 -0.2311 -0.6617
  284MOL0     C37420  10.296   2.860   8.391  0.1059 -1.1850  0.0365
  284MOL0     C37421  10.185   3.046   9.048 -0.0922  0.7063 -0.8601
  284MOL0     C37422  10.157   3.062   9.185 -0.8671  1.6647  0.5040
  284MOL0     H37423   9.870   3.167   9.475  3.7825 -0.1482 -2.7977
  284MOL0     H37424   9.743   3.240   9.671  0.7095  3.4278 -2.3157
  284MOL0     H37425   9.951   3.431   9.986 -0.9873 -0.3015 -2.5667
  284MOL0     H37426   9.973   3.276  10.067 -1.4139 -0.4010  0.6658
  284MOL0     H37427   9.735   3.257  10.120 -1.8478  2.2410  2.1081
  284MOL0     H37428   9.707   3.415  10.060 -0.2100 -0.4440 -1.4142
  284MOL0     H37429   9.822   3.522  10.259 -0.2182  0.5827  2.9004
  284MOL0     H37430   9.917   3.373  10.276 -0.7123 -4.3052  0.2087
  284MOL0     H37431   9.613   3.369  10.325 -0.9516 -0.2359  0.8201
  284MOL0     H37432   9.745   3.263  10.384  1.8715  0.5475  1.0831
  284MOL0     H37433   9.860   3.459  10.496 -0.0878 -0.8543  1.1000
  284MOL0     H37434   9.729   3.380  10.568 -0.3435  0.6412  1.1186
  284MOL0     H37435   9.567   3.535  10.500  0.6261 -0.5895 -1.2529
  284MOL0     H37436   9.682   3.614  10.388 -0.9442  0.3076 -0.0777
  284MOL0     H37437   9.710   3.599  10.702  0.0341  0.6195  0.9534
  284MOL0     H37438   9.816   3.680  10.590 -0.4577  0.0297 -2.2155
  284MOL0     H37439   9.591   3.794  10.516  2.3489  1.2386 -0.0620
  284MOL0     H37440   9.662   3.855  10.664 -0.0860 -0.5478  1.3279
  284MOL0     H37441   9.371   3.657  10.533  0.4595  0.8010 -0.1963
  284MOL0     H37442   9.173   3.479  10.726  1.5433 -0.7749 -0.4293
  284MOL0     H37443   9.134   3.618  10.620 -0.3730  2.2880  1.1752
  284MOL0     H37444   9.070   3.758  10.809  1.6633  0.1606 -1.1200
  284MOL0     H37445   9.086   3.615  10.924 -0.5984  0.4913  0.5238
  284MOL0     H37446   8.913   3.500  10.843 -3.0123  0.6402  1.4537
  284MOL0     H37447   8.866   3.652  10.893 -1.1685  1.1673 -1.3263
  284MOL0     H37448   8.878   3.538  10.614  2.3915  1.1353  0.0455
  284MOL0     H37449   8.901   3.713  10.633 -1.8833  1.6800  1.3030
  284MOL0     H37450   8.653   3.514  10.469  0.4600 -0.3063 -0.2471
  284MOL0     H37451   8.549   3.602  10.284  1.7668  0.5403 -0.9134
  284MOL0     H37452   8.592   3.852   9.971 -0.2497 -0.2533  0.9624
  284MOL0     H37453   8.567   3.926   9.742 -1.7808 -0.6138  0.9555
  284MOL0     H37454   8.524   4.039   9.521  0.2912 -0.2752 -1.4513
  284MOL0     H37455   8.687   4.080   9.575  1.6065  2.7450 -3.5944
  284MOL0     H37456   8.497   4.243   9.395 -0.3992 -0.1362  0.0017
  284MOL0     H37457   8.652   4.169   9.351  1.7639  0.1584  0.2976
  284MOL0     H37458   8.767   4.329   9.501  0.7784  6.2909  2.4116
  284MOL0     H37459   8.606   4.384   9.549  0.0217 -1.4874  0.7329
  284MOL0     H37460   8.663   4.405   9.256  2.0648 -0.6714  0.7033
  284MOL0     H37461   8.555   4.507   9.354 -0.1661  1.8784  1.4305
  284MOL0     H37462   8.855   4.542   9.374  1.6823  6.2583 -3.4634
  284MOL0     H37463   8.733   4.604   9.475  1.8604  1.2289 -0.2300
  284MOL0     H37464   8.650   4.730   9.274 -0.4233 -2.0342  4.1016
  284MOL0     H37465   8.736   4.633   9.162  2.3245  0.7515 -0.1438
  284MOL0     H37466   8.850   4.821   9.377 -3.6485 -0.9630  0.6039
  284MOL0     H37467   8.947   4.715   9.280 -0.2727  0.6236  0.1531
  284MOL0     H37468   8.751   4.911   9.153  1.3300  3.2119 -1.4190
  284MOL0     H37469   8.875   4.823   9.072  3.0212  2.3020  0.5849
  284MOL0     H37470   8.484   4.322   9.881  2.4407 -0.0460  0.1015
  284MOL0     H37471   8.471   4.249  10.117 -1.4878  1.9009 -1.6100
  284MOL0     H37472   8.550   4.004  10.464  0.5054  0.1501  2.9793
  284MOL0     H37473   8.641   3.884  10.675 -2.4823  0.6597  1.1771
  284MOL0     H37474  10.101   3.239   9.907 -2.2529 -3.5261  2.2265
  284MOL0     H37475  10.227   3.171   9.699 -1.0181  0.2567  0.4847
  284MOL0     H37476  10.379   3.311   9.239  0.7059  2.4137 -2.5977
  284MOL0     H37477  10.446   3.249   9.017 -0.5433  2.7743  0.5259
  284MOL0     H37478  10.441   3.246   8.813  0.8675 -0.4467  0.2311
  284MOL0     H37479  10.290   3.295   8.761  1.1511 -0.0491  0.3383
  284MOL0     H37480  10.298   3.135   8.553 -0.0020  0.6756 -0.6408
  284MOL0     H37481  10.453   3.241   8.572 -0.1126  0.9582  2.7021
  284MOL0     H37482  10.441   2.960   8.686  2.0191 -1.6295 -0.9021
  284MOL0     H37483  10.586   3.063   8.658 -0.4543 -0.0566  3.5665
  284MOL0     H37484  10.544   3.063   8.421 -2.1142 -0.1361 -1.5516
  284MOL0     H37485  10.583   2.909   8.493  0.5051  1.1045 -3.8857
  284MOL0     H37486  10.207   2.811   8.357 -1.0206  0.6125  0.2669
  284MOL0     H37487  10.141   2.970   8.984 -0.2250  0.2788 -0.2816
  284MOL0     H37488  10.099   2.980   9.227  2.4846 -4.4698 -4.8543
  285MOL0     O37489   3.019   8.067   5.221  0.1712 -0.9111  0.3995
  285MOL0     C37490   3.124   8.014   5.241  0.0128  0.3797 -0.2742
  285MOL0     O37491   3.211   7.971   5.151 -0.7133 -0.1273 -0.4065
  285MOL0     C37492   3.191   7.968   5.017 -0.2797 -0.5744  0.0807
  285MOL0     C37493   3.073   7.919   4.963  0.1008  0.0297 -0.2004
  285MOL0     C37494   3.068   7.891   4.821 -0.9032 -0.6989 -0.5818
  285MOL0     C37495   3.183   7.894   4.742 -0.1736  0.2599  0.0489
  285MOL0     O37496   3.173   7.854   4.611  0.1764  0.3253  0.5501
  285MOL0     C37497   3.304   7.848   4.541  0.0928 -0.3236  1.1419
  285MOL0     C37498   3.326   7.980   4.455  0.0092  0.0476 -0.2722
  285MOL0     C37499   3.407   7.960   4.330  2.0167  0.7613 -0.1778
  285MOL0     C37500   3.378   8.082   4.235 -0.1795 -0.3810 -0.5542
  285MOL0     C37501   3.229   8.102   4.204 -0.5189 -0.2902  0.2015
  285MOL0     C37502   3.202   8.134   4.059  0.1165 -0.0435  0.2070
  285MOL0     C37503   3.208   8.290   4.043 -0.1311  1.2607  0.1975
  285MOL0     C37504   3.250   8.306   3.895  0.1544  0.1950 -0.5563
  285MOL0     N37505   3.150   8.277   3.794  0.6227  0.0491 -0.1361
  285MOL0     C37506   3.056   8.366   3.760 -0.3283 -0.6114  0.7508
  285MOL0     C37507   3.019   8.328   3.640 -0.3156 -0.1567 -0.6262
  285MOL0     C37508   2.926   8.402   3.541 -0.6376  0.4691 -0.0535
  285MOL0     C37509   2.979   8.546   3.502  0.2128  0.3255  0.5410
  285MOL0     C37510   2.888   8.646   3.573 -0.8407 -0.7769  0.4033
  285MOL0     C37511   2.949   8.787   3.580 -0.4670 -0.2837 -0.5944
  285MOL0     O37512   2.948   8.836   3.443  0.1479 -0.6220 -0.0469
  285MOL0     C37513   2.953   8.973   3.439  0.1493 -0.1121 -0.2128
  285MOL0     C37514   3.010   9.065   3.526  0.1554 -0.3498  0.4151
  285MOL0     C37515   3.004   9.200   3.509 -0.0217  0.2796  0.0987
  285MOL0     C37516   2.958   9.257   3.387  0.0133 -0.3322  0.2116
  285MOL0     C37517   2.956   9.399   3.347  0.2992 -0.1465 -1.2398
  285MOL0     O37518   2.879   9.428   3.238  0.2176 -0.3187  0.3270
  285MOL0     C37519   2.898   9.539   3.153 -0.3428 -0.6881 -0.1833
  285MOL0     C37520   2.787   9.565   3.077 -0.7794 -0.1953 -0.1692
  285MOL0     C37521   2.791   9.661   2.984  0.5372 -0.0137 -0.1176
  285MOL0     C37522   2.898   9.733   2.947  0.9601 -0.7665 -0.1434
  285MOL0     O37523   2.881   9.831   2.862  0.2036 -0.5294 -0.1184
  285MOL0     C37524   2.988   9.928   2.831 -0.4043  1.0922 -0.4047
  285MOL0     C37525   2.998  10.045   2.925  1.2036 -0.6562  0.8176
  285MOL0     C37526   3.126  10.117   2.890 -0.3704  0.3050 -0.3792
  285MOL0     C37527   3.149  10.247   2.957  0.0180  0.0560 -1.3980
  285MOL0     C37528   3.255  10.330   2.897 -0.4635  0.3416  0.1634
  285MOL0     C37529   3.325  10.432   2.971 -1.0747  0.6196 -0.2925
  285MOL0     C37530   3.229  10.522   3.043 -0.5114  0.6427  1.1282
  285MOL0     C37531   3.301  10.654   3.089 -0.0875  0.6774 -0.1202
  285MOL0    Cl37532   3.173  10.750   3.170  0.4275  0.2635  0.4246
  285MOL0     C37533   3.008   9.706   3.024 -0.7350 -1.0123 -0.6624
  285MOL0     C37534   3.017   9.603   3.116 -0.3518  0.0863 -0.7596
  285MOL0     O37535   3.026   9.480   3.410  0.5952  0.0640  0.2457
  285MOL0     C37536   2.908   9.169   3.293  0.2444  0.5481 -0.6509
  285MOL0     C37537   2.904   9.025   3.319 -0.2978 -0.9900  0.3318
  285MOL0     N37538   3.077   8.205   3.606  0.6719 -0.1872 -0.0847
  285MOL0     N37539   3.163   8.180   3.701  0.0394 -0.6677  0.1966
  285MOL0     C37540   3.306   7.939   4.806  1.0009  0.2751  0.7874
  285MOL0     C37541   3.305   7.983   4.940 -0.2630  0.1113 -0.0234
  285MOL0     C37542   3.182   8.034   5.381 -0.3176  0.2604 -1.6615
  285MOL0     C37543   3.312   8.003   5.421 -0.3728  0.4686 -0.7060
  285MOL0     C37544   3.363   8.023   5.549  0.4944 -0.2265 -0.7430
  285MOL0     C37545   3.279   8.063   5.651  0.4268  0.7547  0.2378
  285MOL0     O37546   3.323   8.063   5.782 -0.0250 -0.0719  0.0904
  285MOL0     C37547   3.254   8.129   5.884  0.3863  0.1691  0.4354
  285MOL0     C37548   3.340   8.197   5.987  0.6510 -0.2089 -0.1357
  285MOL0     C37549   3.253   8.235   6.103  0.0580 -0.1966  0.3597
  285MOL0     C37550   3.344   8.308   6.198  0.1948 -0.0538  0.5713
  285MOL0     C37551   3.275   8.342   6.329 -0.4877  0.3745  1.0070
  285MOL0     C37552   3.233   8.376   6.442  0.1971 -0.8557 -0.1695
  285MOL0     C37553   3.142   8.095   5.615  0.4577  0.3275  0.8065
  285MOL0     C37554   3.102   8.088   5.478  0.0517 -0.6995 -0.5783
  285MOL0     H37555   2.989   7.891   5.026  0.6128 -3.7253 -0.9875
  285MOL0     H37556   2.980   7.845   4.778  0.4910 -1.1397 -3.1800
  285MOL0     H37557   3.291   7.767   4.468 -1.4517  0.5776  0.3664
  285MOL0     H37558   3.392   7.813   4.596  1.3606 -1.3982 -1.4099
  285MOL0     H37559   3.374   8.056   4.517 -0.2446  2.0134 -2.3360
  285MOL0     H37560   3.220   8.002   4.445 -0.2004 -1.2210 -1.0713
  285MOL0     H37561   3.385   7.867   4.276 -0.9731 -0.6706  3.1092
  285MOL0     H37562   3.510   7.978   4.360  1.6397 -0.0812  1.7832
  285MOL0     H37563   3.408   8.174   4.286  2.9169 -0.9657 -1.0998
  285MOL0     H37564   3.451   8.048   4.161  1.4708 -0.5895  1.0746
  285MOL0     H37565   3.174   8.173   4.267  1.5946 -1.1054  3.1402
  285MOL0     H37566   3.183   8.002   4.208 -1.6462 -0.3131 -5.3366
  285MOL0     H37567   3.106   8.098   4.021  0.0822  0.7972 -0.5394
  285MOL0     H37568   3.278   8.081   4.000  2.4969 -0.3069  3.2611
  285MOL0     H37569   3.113   8.337   4.068 -0.9368 -0.4629  0.5582
  285MOL0     H37570   3.294   8.319   4.104  0.9052  0.4536 -0.8397
  285MOL0     H37571   3.344   8.251   3.891  0.7764  1.2175 -0.4917
  285MOL0     H37572   3.294   8.402   3.867  0.2911  0.3698  0.2369
  285MOL0     H37573   3.045   8.464   3.805 -1.3495  0.5281 -1.8198
  285MOL0     H37574   2.824   8.408   3.582 -0.2612 -0.2132  1.0357
  285MOL0     H37575   2.924   8.344   3.449 -0.4415  2.5446 -1.4414
  285MOL0     H37576   2.970   8.571   3.395 -2.7679 -0.3891  0.5366
  285MOL0     H37577   3.084   8.549   3.534 -0.5184 -2.1696  3.6020
  285MOL0     H37578   2.797   8.653   3.513 -0.0493 -0.7605 -0.8335
  285MOL0     H37579   2.863   8.609   3.673 -1.5224 -2.3521 -0.3070
  285MOL0     H37580   3.052   8.785   3.618  0.3082  2.9521 -2.1980
  285MOL0     H37581   2.877   8.842   3.640  0.5012 -1.4417  1.7566
  285MOL0     H37582   3.057   9.025   3.615  1.0345  0.9434  0.5494
  285MOL0     H37583   3.028   9.262   3.594  6.0086 -0.0004 -0.9874
  285MOL0     H37584   2.693   9.512   3.083  0.2413 -1.9888  0.9669
  285MOL0     H37585   2.697   9.679   2.933  1.3875  0.0647 -1.7416
  285MOL0     H37586   2.965   9.956   2.728 -0.1112 -0.9722 -1.0801
  285MOL0     H37587   3.078   9.866   2.822  0.0748  2.0773 -5.1341
  285MOL0     H37588   2.981  10.018   3.029  2.1956 -5.0105  0.0483
  285MOL0     H37589   2.924  10.121   2.899  1.1781 -1.8031 -3.2211
  285MOL0     H37590   3.110  10.148   2.787 -0.1052  1.4526 -0.0854
  285MOL0     H37591   3.215  10.057   2.911  0.6497  1.7983 -0.2700
  285MOL0     H37592   3.053  10.299   2.967 -0.9726 -1.8791  0.0691
  285MOL0     H37593   3.167  10.234   3.064 -1.5653 -0.6140 -1.1856
  285MOL0     H37594   3.204  10.376   2.812  1.4876 -1.2887 -2.0270
  285MOL0     H37595   3.318  10.253   2.851 -5.9148 -3.9219 -1.3481
  285MOL0     H37596   3.382  10.491   2.899  0.9384  1.6575  2.0259
  285MOL0     H37597   3.401  10.387   3.036 -2.3372 -1.4460 -0.1345
  285MOL0     H37598   3.145  10.551   2.979 -2.7529 -0.4800  3.3870
  285MOL0     H37599   3.186  10.469   3.128 -2.4704 -0.2172 -0.3040
  285MOL0     H37600   3.335  10.704   2.998 -1.2324  0.3314 -0.7567
  285MOL0     H37601   3.385  10.637   3.156  0.4670  0.1995 -0.9211
  285MOL0     H37602   3.098   9.756   2.990 -1.4134 -0.8180 -2.2482
  285MOL0     H37603   3.107   9.583   3.174 -0.9328 -1.6913 -0.3999
  285MOL0     H37604   2.867   9.200   3.198 -1.8413 -1.7678 -0.5804
  285MOL0     H37605   2.870   8.960   3.239  4.0740 -1.3349 -1.5146
  285MOL0     H37606   3.395   7.961   4.748  1.6566 -1.3333  1.1272
  285MOL0     H37607   3.394   8.019   4.991 -1.9583  0.5749  2.7516
  285MOL0     H37608   3.372   7.962   5.341 -0.3912 -1.0902  0.0449
  285MOL0     H37609   3.462   7.983   5.568  0.8223  1.5127  1.7906
  285MOL0     H37610   3.191   8.054   5.933  2.1084 -1.8820 -0.3651
  285MOL0     H37611   3.191   8.207   5.840 -2.1020 -1.9459  0.0352
  285MOL0     H37612   3.417   8.125   6.017  0.7162 -0.7074 -1.4434
  285MOL0     H37613   3.393   8.284   5.946 -0.4321 -0.1427 -1.4641
  285MOL0     H37614   3.207   8.149   6.152 -2.1794 -1.0281 -2.8657
  285MOL0     H37615   3.168   8.298   6.074 -0.8229 -0.4518  2.1977
  285MOL0     H37616   3.413   8.230   6.230  1.7796  1.7146  1.7331
  285MOL0     H37617   3.390   8.390   6.143 -1.8703 -0.6695 -2.2687
  285MOL0     H37618   3.204   8.412   6.539  2.3093 -0.5771  0.4063
  285MOL0     H37619   3.060   8.123   5.680 -2.1626 -2.6727 -0.9207
  285MOL0     H37620   3.007   8.131   5.450  0.3499  0.9020  0.6935
  286MOL0     O37621   0.711   7.162   0.963  0.0612 -0.4843  0.4006
  286MOL0     C37622   0.803   7.208   1.027 -0.3428  0.4578 -0.8501
  286MOL0     O37623   0.859   7.335   1.015  0.3870  0.6271 -0.4451
  286MOL0     C37624   0.822   7.432   0.917 -0.6391  0.7156 -0.4943
  286MOL0     C37625   0.913   7.534   0.912  0.9331 -0.3441  0.4553
  286MOL0     C37626   0.884   7.648   0.831 -0.0532 -0.1893  0.4354
  286MOL0     C37627   0.777   7.658   0.742  0.3814 -0.1496  0.2933
  286MOL0     O37628   0.736   7.760   0.651  0.0566 -0.2732  0.3709
  286MOL0     C37629   0.837   7.861   0.625  0.7032  0.0964 -0.2030
  286MOL0     C37630   0.780   7.960   0.519  0.7938 -0.4111 -0.8126
  286MOL0     C37631   0.877   8.079   0.489 -0.3218 -0.2659  0.9349
  286MOL0     C37632   0.869   8.139   0.350  0.1272 -0.6649  0.1938
  286MOL0     C37633   0.778   8.269   0.346  0.6140  1.2633 -0.1118
  286MOL0     C37634   0.756   8.339   0.204  0.5388  0.2537 -0.0473
  286MOL0     C37635   0.671   8.464   0.232  0.3014 -0.3646  0.1184
  286MOL0     C37636   0.693   8.576   0.127  0.4012  0.9145 -0.3284
  286MOL0     N37637   0.607   8.549   0.016 -0.4852 -0.4194 -0.3811
  286MOL0     C37638   0.623   8.453  -0.076 -0.2307  0.4158  0.3129
  286MOL0     C37639   0.498   8.434  -0.140  0.6895 -0.4807  0.1663
  286MOL0     C37640   0.472   8.334  -0.258 -0.1781 -0.4193 -0.1529
  286MOL0     C37641   0.403   8.213  -0.209 -0.9532  0.4640  0.0876
  286MOL0     C37642   0.489   8.111  -0.126 -0.0625  0.3323  0.8260
  286MOL0     C37643   0.395   8.004  -0.081  0.2885  0.1252 -1.0824
  286MOL0     O37644   0.474   7.895  -0.023  0.7788 -0.9452 -0.5038
  286MOL0     C37645   0.433   7.800   0.069 -0.3317 -0.0186 -0.4703
  286MOL0     C37646   0.534   7.707   0.111  0.7264  1.1230  1.0783
  286MOL0     C37647   0.515   7.613   0.205  0.6679  0.0346 -0.3168
  286MOL0     C37648   0.387   7.616   0.271 -0.0625  0.2794  0.6002
  286MOL0     C37649   0.348   7.530   0.387 -0.5479  0.5891 -0.4007
  286MOL0     O37650   0.438   7.437   0.414  0.1892 -0.0684  0.3750
  286MOL0     C37651   0.407   7.343   0.502 -0.3934 -0.9172 -1.2029
  286MOL0     C37652   0.519   7.301   0.582  0.4923 -0.0359 -0.2569
  286MOL0     C37653   0.505   7.187   0.666 -0.2696  1.0359  0.2362
  286MOL0     C37654   0.389   7.101   0.667  0.0711 -0.1539  0.9337
  286MOL0     O37655   0.372   6.990   0.751 -0.4579  0.6425 -0.2800
  286MOL0     C37656   0.450   6.975   0.865 -0.2121 -0.0460 -1.0534
  286MOL0     C37657   0.475   6.835   0.921 -0.4875 -0.3640 -1.0417
  286MOL0     C37658   0.572   6.748   0.833 -0.0502  0.2532  0.1325
  286MOL0     C37659   0.611   6.614   0.894 -0.3760  0.4284  0.2207
  286MOL0     C37660   0.726   6.535   0.820  0.6726 -0.0751  0.6077
  286MOL0     C37661   0.863   6.615   0.818  0.9730 -0.5049  0.2764
  286MOL0     C37662   0.989   6.519   0.814 -0.5806 -0.3158  0.3494
  286MOL0     C37663   1.119   6.605   0.833  0.0733  0.8159  0.1250
  286MOL0    Cl37664   1.112   6.683   1.010 -0.3549 -0.9983  0.2361
  286MOL0     C37665   0.290   7.139   0.583 -0.4749 -0.4155  0.8719
  286MOL0     C37666   0.304   7.249   0.500  1.2043 -0.5565  0.4121
  286MOL0     O37667   0.245   7.557   0.451  0.4892  0.0590  0.3914
  286MOL0     C37668   0.281   7.691   0.214 -0.1803 -0.1211  0.0953
  286MOL0     C37669   0.304   7.783   0.114  0.0332 -0.9198  0.7711
  286MOL0     N37670   0.414   8.536  -0.091  0.3974 -0.3179  0.4341
  286MOL0     N37671   0.486   8.599  -0.009 -0.1685 -0.1321 -0.5388
  286MOL0     C37672   0.697   7.544   0.737  0.3816 -0.2137 -0.6312
  286MOL0     C37673   0.718   7.434   0.832 -0.7723 -0.2366  0.0447
  286MOL0     C37674   0.869   7.117   1.126 -0.5252 -0.7164 -1.2522
  286MOL0     C37675   0.944   7.175   1.230  0.1456  0.1719  0.2360
  286MOL0     C37676   1.005   7.092   1.331 -0.9428 -0.4817 -0.2079
  286MOL0     C37677   0.979   6.953   1.336 -0.0214 -0.1853  0.0191
  286MOL0     O37678   1.026   6.877   1.431 -0.7144 -0.0308  0.4838
  286MOL0     C37679   1.112   6.927   1.544  0.4340 -0.2394 -0.1460
  286MOL0     C37680   1.107   6.832   1.669 -0.4363 -0.2521  0.3481
  286MOL0     C37681   1.221   6.841   1.766 -0.1905  0.1047 -0.7546
  286MOL0     C37682   1.241   6.979   1.827 -0.4825  0.4610  0.3611
  286MOL0     C37683   1.303   6.971   1.958 -0.3042 -1.0376  1.2649
  286MOL0     C37684   1.359   6.960   2.061 -0.1763  0.0353  0.1683
  286MOL0     C37685   0.906   6.900   1.228  0.1920 -0.5629 -0.5294
  286MOL0     C37686   0.860   6.983   1.126  0.8355  0.4505  0.6796
  286MOL0     H37687   0.995   7.527   0.983  2.4324 -3.4634 -1.3677
  286MOL0     H37688   0.949   7.735   0.835 -0.3793  0.1866 -1.5076
  286MOL0     H37689   0.920   7.821   0.566  0.9078 -0.6319  0.5638
  286MOL0     H37690   0.879   7.901   0.718 -1.5356 -1.7144  1.7343
  286MOL0     H37691   0.685   8.005   0.552  0.9054  0.0453 -1.0988
  286MOL0     H37692   0.766   7.903   0.427  2.1301 -1.5852 -0.3123
  286MOL0     H37693   0.976   8.034   0.491 -1.0549 -2.3973 -2.6639
  286MOL0     H37694   0.865   8.154   0.568 -1.1720 -0.5957  1.1438
  286MOL0     H37695   0.971   8.169   0.325 -0.1351 -0.5256 -0.7525
  286MOL0     H37696   0.855   8.069   0.268 -1.8485  1.0120 -1.0049
  286MOL0     H37697   0.822   8.349   0.405 -3.1576  3.4173  0.1020
  286MOL0     H37698   0.683   8.237   0.392  1.0625  1.4874  1.0125
  286MOL0     H37699   0.713   8.265   0.135  4.3470 -1.3829 -0.9508
  286MOL0     H37700   0.849   8.359   0.151 -1.9518  2.0425 -4.1595
  286MOL0     H37701   0.565   8.443   0.244  0.4792 -0.1539  2.5674
  286MOL0     H37702   0.706   8.491   0.333  1.5828  1.0826 -0.6583
  286MOL0     H37703   0.800   8.581   0.105  0.3514  1.6086 -0.4401
  286MOL0     H37704   0.680   8.675   0.173  1.1881  0.2911  1.3301
  286MOL0     H37705   0.715   8.401  -0.102 -0.3267  1.0695 -1.4587
  286MOL0     H37706   0.565   8.323  -0.315  0.0896  1.7633 -0.2211
  286MOL0     H37707   0.399   8.392  -0.316  0.2133  1.0137  0.7488
  286MOL0     H37708   0.388   8.155  -0.301  0.9598  1.8653 -1.1684
  286MOL0     H37709   0.312   8.243  -0.156 -1.8720 -2.6863  0.5482
  286MOL0     H37710   0.563   8.056  -0.185  1.9585 -0.6260  3.9961
  286MOL0     H37711   0.540   8.160  -0.042 -0.2513  2.1347 -0.0656
  286MOL0     H37712   0.324   7.963  -0.153 -2.8667 -0.9326  2.3022
  286MOL0     H37713   0.331   8.044  -0.002  0.2952 -0.5013 -0.7472
  286MOL0     H37714   0.626   7.726   0.057 -0.9210 -0.0338 -2.4179
  286MOL0     H37715   0.586   7.538   0.240  3.8440  2.1397 -1.7801
  286MOL0     H37716   0.600   7.367   0.610  0.4141  0.5237 -1.2785
  286MOL0     H37717   0.585   7.157   0.732 -1.3607  1.8647  2.0174
  286MOL0     H37718   0.407   7.038   0.943 -1.6709 -1.9332 -0.2386
  286MOL0     H37719   0.550   7.017   0.852 -1.0392  3.2345  1.6284
  286MOL0     H37720   0.383   6.780   0.942 -0.1601 -1.4209 -2.2500
  286MOL0     H37721   0.529   6.851   1.015 -0.0195  0.6296 -1.4713
  286MOL0     H37722   0.665   6.802   0.812  0.6497 -1.5174 -1.6628
  286MOL0     H37723   0.529   6.716   0.737  1.0908 -2.2598  0.3855
  286MOL0     H37724   0.644   6.649   0.992  0.7148 -1.3803  0.5475
  286MOL0     H37725   0.524   6.550   0.913 -0.7707  0.9218  0.0854
  286MOL0     H37726   0.702   6.505   0.717  3.9267  0.8810 -0.5580
  286MOL0     H37727   0.733   6.440   0.874 -3.5078 -1.5147 -1.0065
  286MOL0     H37728   0.869   6.682   0.905  1.6853 -1.4759  0.9913
  286MOL0     H37729   0.863   6.677   0.728 -2.2917 -1.7612 -0.7468
  286MOL0     H37730   0.974   6.446   0.894  1.4120 -0.5598  0.5733
  286MOL0     H37731   0.988   6.467   0.718 -2.8074 -1.2187  0.8102
  286MOL0     H37732   1.131   6.684   0.759 -1.9259  0.8361 -0.2274
  286MOL0     H37733   1.208   6.542   0.825 -1.0140 -1.0224  1.5103
  286MOL0     H37734   0.196   7.086   0.578 -1.0304  0.6420 -0.5444
  286MOL0     H37735   0.225   7.260   0.426  0.6964  0.1375  1.0450
  286MOL0     H37736   0.181   7.687   0.256 -1.2742  1.1976 -2.2179
  286MOL0     H37737   0.221   7.840   0.074 -1.4035 -2.7146  1.1059
  286MOL0     H37738   0.611   7.544   0.672 -0.1434 -0.5745  0.0532
  286MOL0     H37739   0.656   7.345   0.836  1.3816 -1.8611 -0.8485
  286MOL0     H37740   0.976   7.278   1.236  0.0303  0.3624 -1.8157
  286MOL0     H37741   1.071   7.137   1.405 -1.3214 -1.1341  0.5334
  286MOL0     H37742   1.086   7.028   1.577 -3.2222 -0.5193 -1.7059
  286MOL0     H37743   1.219   6.930   1.519  0.1504  0.8558 -1.3659
  286MOL0     H37744   1.012   6.848   1.722 -1.7271  0.2738 -1.9775
  286MOL0     H37745   1.104   6.736   1.617 -1.3009  1.0915 -2.2515
  286MOL0     H37746   1.315   6.804   1.725  0.8430  0.4881  1.1978
  286MOL0     H37747   1.195   6.773   1.848  0.7074  0.8505  0.1703
  286MOL0     H37748   1.288   7.044   1.752  1.0346  1.6062  2.2271
  286MOL0     H37749   1.142   7.025   1.841 -1.8628 -2.1078 -0.3171
  286MOL0     H37750   1.412   6.942   2.152 -1.3228  1.3605  1.1305
  286MOL0     H37751   0.900   6.792   1.220  4.0792 -1.1780  1.9465
  286MOL0     H37752   0.805   6.929   1.049  1.0696 -4.6131  3.5820
  287MOL0     O37753   5.909  10.068   9.807 -0.0075  0.1062  0.3351
  287MOL0     C37754   5.997  10.149   9.843  0.5003 -0.0072  0.8468
  287MOL0     O37755   6.069  10.215   9.744 -0.6498 -0.6758 -0.0955
  287MOL0     C37756   6.069  10.190   9.601 -0.8159 -0.6240  0.2285
  287MOL0     C37757   6.127  10.290   9.523 -0.1286  0.1424  0.5556
  287MOL0     C37758   6.118  10.286   9.384  0.1147 -0.2537 -0.6590
  287MOL0     C37759   6.050  10.184   9.312  0.5642 -0.2090  0.1640
  287MOL0     O37760   6.063  10.193   9.176  0.6594 -0.2922  1.4275
  287MOL0     C37761   5.960  10.133   9.096 -0.0943 -0.4040  0.2787
  287MOL0     C37762   5.980  10.172   8.952 -0.0751  0.7319 -0.9482
  287MOL0     C37763   5.938  10.321   8.933 -0.0920  0.1220  1.1138
  287MOL0     C37764   5.930  10.344   8.775  0.2139  0.5605 -0.3889
  287MOL0     C37765   6.064  10.306   8.709  0.1526  1.4947 -0.1272
  287MOL0     C37766   6.194  10.374   8.763  0.4669 -0.9809 -0.0067
  287MOL0     C37767   6.180  10.525   8.747 -0.1668  0.6075 -0.4704
  287MOL0     C37768   6.301  10.611   8.807  0.5114 -0.5499 -0.3126
  287MOL0     N37769   6.316  10.579   8.952  1.4203 -0.5470 -0.0729
  287MOL0     C37770   6.404  10.495   9.008 -0.1626 -0.2006 -0.3131
  287MOL0     C37771   6.348  10.441   9.115 -0.1838  0.4171 -0.1970
  287MOL0     C37772   6.399  10.320   9.189  0.2884  0.4064  0.1630
  287MOL0     C37773   6.451  10.364   9.329  1.0166 -0.0114  0.6627
  287MOL0     C37774   6.541  10.258   9.392  0.2196 -0.6083  0.7501
  287MOL0     C37775   6.684  10.282   9.348 -0.4111 -0.3207  0.5778
  287MOL0     O37776   6.746  10.152   9.341 -0.0640 -0.1613 -0.0364
  287MOL0     C37777   6.874  10.150   9.383  1.1062  0.4792 -0.5021
  287MOL0     C37778   6.922  10.059   9.487  0.5334  0.2870  0.3130
  287MOL0     C37779   7.047  10.063   9.535 -0.2878 -0.4916  0.2505
  287MOL0     C37780   7.145  10.150   9.483 -0.1986 -1.0616  0.4924
  287MOL0     C37781   7.292  10.158   9.540  1.1019 -0.3489  0.6651
  287MOL0     O37782   7.363  10.272   9.542 -0.1426  0.1715 -0.6596
  287MOL0     C37783   7.481  10.264   9.611 -0.8572  0.2544  0.3451
  287MOL0     C37784   7.595  10.261   9.527 -0.2604 -0.4128  0.2558
  287MOL0     C37785   7.723  10.251   9.579 -0.2020  0.1590  0.2287
  287MOL0     C37786   7.735  10.232   9.711 -0.0492 -0.5866  1.1936
  287MOL0     O37787   7.865  10.229   9.750  0.6142  0.0500 -0.2078
  287MOL0     C37788   7.883  10.222   9.893  0.2837 -0.0895  0.6591
  287MOL0     C37789   8.033  10.216   9.912  0.5534 -0.2078  0.5029
  287MOL0     C37790   8.099  10.111   9.826  0.4664 -0.5526  0.0949
  287MOL0     C37791   8.249  10.085   9.870  0.7636  0.1770 -0.2931
  287MOL0     C37792   8.310   9.961   9.792  0.3346  0.6138 -0.2604
  287MOL0     C37793   8.335   9.977   9.641  0.2858 -0.1876 -0.5723
  287MOL0     C37794   8.354   9.841   9.554  0.1077  0.2515 -0.3745
  287MOL0     C37795   8.451   9.742   9.617  0.2263  0.1665 -0.3188
  287MOL0    Cl37796   8.623   9.822   9.627 -0.2928 -0.1439 -0.3290
  287MOL0     C37797   7.625  10.223   9.792 -0.0487 -0.2625 -0.5136
  287MOL0     C37798   7.500  10.249   9.745 -0.1222 -0.4952 -0.2085
  287MOL0     O37799   7.323  10.046   9.569  0.5711 -0.2050 -0.6292
  287MOL0     C37800   7.108  10.233   9.376  0.4722 -1.5799 -0.3231
  287MOL0     C37801   6.969  10.231   9.329 -0.1924 -0.8689 -0.3543
  287MOL0     N37802   6.224  10.493   9.127 -0.2876 -0.5131  0.4149
  287MOL0     N37803   6.214  10.584   9.043  0.3785 -0.9719 -0.3533
  287MOL0     C37804   5.998  10.086   9.385 -0.6213  0.0938 -0.3680
  287MOL0     C37805   6.001  10.090   9.527 -0.0889 -0.4943  0.4789
  287MOL0     C37806   6.020  10.201   9.973 -0.1965 -0.2608  0.0140
  287MOL0     C37807   6.115  10.294  10.002 -0.3456 -0.6232 -0.1405
  287MOL0     C37808   6.140  10.358  10.130 -0.0934  0.1065 -0.1945
  287MOL0     C37809   6.063  10.307  10.236  0.0968  0.7645  0.5390
  287MOL0     O37810   6.091  10.362  10.360 -0.5984  0.1954  0.8254
  287MOL0     C37811   5.997  10.347  10.464  0.6195  0.7199 -0.7966
  287MOL0     C37812   6.020  10.229  10.554 -0.0267 -0.2164 -0.1899
  287MOL0     C37813   6.147  10.244  10.640 -0.5931  0.1850 -0.0255
  287MOL0     C37814   6.151  10.103  10.713 -0.0175 -0.0792  0.5744
  287MOL0     C37815   6.039  10.090  10.803  0.4011 -0.4074  0.1644
  287MOL0     C37816   5.943  10.094  10.876 -0.1107  0.2372 -0.4953
  287MOL0     C37817   5.963  10.210  10.207  1.3102 -0.1082  0.1478
  287MOL0     C37818   5.942  10.159  10.079 -0.5722  0.6591  0.6234
  287MOL0     H37819   6.194  10.361   9.571  1.0754 -0.9158  0.5063
  287MOL0     H37820   6.156  10.370   9.327 -0.4910  1.5537  1.4436
  287MOL0     H37821   5.862  10.171   9.126 -2.0622 -2.5625 -2.7879
  287MOL0     H37822   5.965  10.024   9.104  0.2636 -0.3254  1.2705
  287MOL0     H37823   5.914  10.108   8.892 -0.7276  0.7680 -0.2789
  287MOL0     H37824   6.083  10.142   8.929 -1.1211 -3.4253 -1.0146
  287MOL0     H37825   6.006  10.390   8.984 -0.0863  0.5620  0.5259
  287MOL0     H37826   5.838  10.328   8.977  0.1137  1.4704  1.3940
  287MOL0     H37827   5.846  10.281   8.743  1.5176 -1.1510 -0.5721
  287MOL0     H37828   5.892  10.446   8.763 -0.1085  0.3353 -1.4347
  287MOL0     H37829   6.060  10.335   8.604 -3.1056  0.8493 -0.2692
  287MOL0     H37830   6.071  10.197   8.707 -2.0075  1.3124  0.0802
  287MOL0     H37831   6.284  10.342   8.709  2.1550  1.3740  1.2343
  287MOL0     H37832   6.212  10.336   8.865  1.5866 -0.3148  0.0659
  287MOL0     H37833   6.174  10.557   8.643  0.0717  1.8745 -0.1040
  287MOL0     H37834   6.088  10.555   8.797 -0.0176 -0.6182  0.5998
  287MOL0     H37835   6.283  10.718   8.794 -0.2197 -0.9696 -3.4993
  287MOL0     H37836   6.392  10.585   8.752 -0.4970 -1.4984 -1.6225
  287MOL0     H37837   6.504  10.474   8.969 -0.2760 -2.4792  0.5027
  287MOL0     H37838   6.472  10.264   9.129  1.6814 -0.3441  2.4146
  287MOL0     H37839   6.323  10.243   9.205  0.2365  0.7174  1.5331
  287MOL0     H37840   6.368  10.355   9.400 -0.2550 -0.3125 -0.8097
  287MOL0     H37841   6.490  10.466   9.332 -1.6501  1.0938  0.4263
  287MOL0     H37842   6.541  10.276   9.500 -1.1292 -1.2528  0.8832
  287MOL0     H37843   6.506  10.158   9.364  0.8753  0.0721 -3.0298
  287MOL0     H37844   6.739  10.344   9.418  0.5051  0.9273 -1.1773
  287MOL0     H37845   6.688  10.323   9.247  2.1025 -2.0592 -0.1129
  287MOL0     H37846   6.857   9.993   9.544 -1.7627  2.3428  0.2216
  287MOL0     H37847   7.079   9.997   9.614  0.7657  1.1499  1.2592
  287MOL0     H37848   7.588  10.267   9.419  0.6023 -0.1131  0.2107
  287MOL0     H37849   7.808  10.245   9.513 -1.2761  0.2234 -1.2130
  287MOL0     H37850   7.839  10.129   9.932  2.0322 -0.9696  0.6181
  287MOL0     H37851   7.846  10.314   9.940  0.0622 -1.9115  4.4738
  287MOL0     H37852   8.059  10.190  10.015  1.9738  0.0150  0.2197
  287MOL0     H37853   8.071  10.317   9.894  1.9050 -0.3745  2.1455
  287MOL0     H37854   8.105  10.136   9.719 -2.6974 -0.3163 -0.1196
  287MOL0     H37855   8.050  10.014   9.836 -1.0236  0.0195 -1.2254
  287MOL0     H37856   8.308  10.175   9.851 -1.0239  1.4699 -0.0011
  287MOL0     H37857   8.258  10.067   9.977  1.9237  1.1389 -0.2113
  287MOL0     H37858   8.251   9.877   9.828  1.5491 -1.5339 -2.8921
  287MOL0     H37859   8.406   9.945   9.843  0.1806  1.5214  0.3390
  287MOL0     H37860   8.423  10.042   9.639 -1.2584  2.0790  0.4882
  287MOL0     H37861   8.250  10.034   9.602 -0.4286  1.4207  2.9501
  287MOL0     H37862   8.255   9.801   9.533 -0.4039  1.9225 -1.3586
  287MOL0     H37863   8.400   9.869   9.459  0.2966  1.0008 -0.0762
  287MOL0     H37864   8.455   9.651   9.558  0.5055  1.1263 -1.8297
  287MOL0     H37865   8.413   9.716   9.717  1.1901 -0.0918 -0.0111
  287MOL0     H37866   7.627  10.210   9.899 -1.2249  0.9065 -0.3162
  287MOL0     H37867   7.419  10.264   9.815  0.5925  2.2717  0.1309
  287MOL0     H37868   7.178  10.296   9.322 -1.1467  0.3328 -0.2951
  287MOL0     H37869   6.942  10.296   9.246 -2.8596 -0.8256  0.4267
  287MOL0     H37870   5.944  10.004   9.338 -0.5864 -0.4299  0.4813
  287MOL0     H37871   5.957  10.002   9.573  3.4187 -1.9328  1.4427
  287MOL0     H37872   6.187  10.318   9.924 -0.8588 -4.3246 -1.9624
  287MOL0     H37873   6.208  10.441  10.144 -0.2523  0.5366 -1.7428
  287MOL0     H37874   5.896  10.334  10.424  1.0549 -4.7820 -0.8216
  287MOL0     H37875   5.994  10.437  10.527 -2.2005  0.2964 -0.2068
  287MOL0     H37876   5.931  10.233  10.617  1.3574  0.2785  1.8092
  287MOL0     H37877   6.032  10.138  10.495  4.3507  1.3262 -2.1240
  287MOL0     H37878   6.134  10.324  10.713 -0.0704  0.6973 -0.4925
  287MOL0     H37879   6.240  10.254  10.583 -1.0836 -3.7646 -1.8627
  287MOL0     H37880   6.152  10.015  10.648 -0.8090  0.4823 -0.1983
  287MOL0     H37881   6.238  10.105  10.780 -1.2477  3.2404  2.3102
  287MOL0     H37882   5.856  10.103  10.939  0.8241  0.5603  0.7935
  287MOL0     H37883   5.917  10.157  10.290  2.0085  1.1688  1.3952
  287MOL0     H37884   5.868  10.082  10.059  2.6350 -2.4889 -0.0421
  288MOL0     O37885   7.116   3.359  10.346  0.4165 -0.7571 -0.8893
  288MOL0     C37886   7.176   3.325  10.246  0.3845 -0.3275 -1.2281
  288MOL0     O37887   7.235   3.208  10.228 -1.0950 -0.2629 -0.4908
  288MOL0     C37888   7.243   3.119  10.329 -0.4331  0.7378  0.2536
  288MOL0     C37889   7.141   3.059  10.403  1.5386  0.0551 -0.8118
  288MOL0     C37890   7.182   2.965  10.502 -0.0391  0.7948 -1.4852
  288MOL0     C37891   7.314   2.925  10.522 -0.1468  0.1714  0.2641
  288MOL0     O37892   7.326   2.835  10.631 -0.9141  0.6456 -0.2548
  288MOL0     C37893   7.430   2.854  10.728  0.2041 -0.7091 -0.2360
  288MOL0     C37894   7.559   2.779  10.694  0.2695 -0.7588  0.5640
  288MOL0     C37895   7.542   2.644  10.625 -0.8272 -0.9895  0.8174
  288MOL0     C37896   7.470   2.543  10.716 -0.0640 -0.2989 -0.2982
  288MOL0     C37897   7.499   2.395  10.678  0.5793 -0.0164  0.3522
  288MOL0     C37898   7.452   2.350  10.537  0.9606 -0.5539 -0.3591
  288MOL0     C37899   7.526   2.219  10.507  0.3396  0.1780 -0.1040
  288MOL0     C37900   7.472   2.176  10.370 -0.1460 -0.2130  0.0863
  288MOL0     N37901   7.516   2.039  10.334 -0.0434 -0.1470  0.6533
  288MOL0     C37902   7.492   1.921  10.408 -1.0080  0.7903 -0.0280
  288MOL0     C37903   7.541   1.821  10.324 -0.3141  0.1599  0.5130
  288MOL0     C37904   7.531   1.681  10.363  0.0890 -1.0262  0.3238
  288MOL0     C37905   7.653   1.647  10.457  0.8956 -0.1489 -0.0335
  288MOL0     C37906   7.612   1.660  10.607  0.1758 -0.8219 -0.9611
  288MOL0     C37907   7.544   1.541  10.666  0.0885  0.2759 -0.6537
  288MOL0     O37908   7.449   1.482  10.578 -0.1466  0.0311  0.4987
  288MOL0     C37909   7.389   1.367  10.618 -0.4450  0.3714  0.0577
  288MOL0     C37910   7.452   1.251  10.595 -0.0167 -0.3472  0.6092
  288MOL0     C37911   7.389   1.130  10.628 -0.6328 -0.1761  0.1192
  288MOL0     C37912   7.255   1.121  10.676 -0.4098 -0.5628 -0.7052
  288MOL0     C37913   7.201   0.984  10.686  0.3257  0.6699  0.5268
  288MOL0     O37914   7.067   0.980  10.732 -0.4275  0.0580  0.5243
  288MOL0     C37915   7.011   0.860  10.745  0.0996  0.6589  0.2372
  288MOL0     C37916   6.925   0.818  10.652  0.3012 -0.3201 -0.3655
  288MOL0     C37917   6.849   0.699  10.668  0.1520  0.5294  0.4286
  288MOL0     C37918   6.876   0.625  10.781 -0.0437  0.0631  0.1781
  288MOL0     O37919   6.804   0.514  10.799 -0.3193  0.3464 -0.6296
  288MOL0     C37920   6.672   0.517  10.859 -0.0478 -0.2686 -0.3242
  288MOL0     C37921   6.648   0.381  10.930  0.3435  0.6570 -0.5218
  288MOL0     C37922   6.640   0.257  10.831  0.2942 -0.0068 -0.3071
  288MOL0     C37923   6.632   0.120  10.898 -0.3567 -0.2885 -0.1309
  288MOL0     C37924   6.710  -0.002  10.828  0.4977 -0.3261  0.2416
  288MOL0     C37925   6.667  -0.016  10.681 -0.0598  0.4457  0.8581
  288MOL0     C37926   6.717  -0.155  10.628  0.0365 -0.1330 -1.1349
  288MOL0     C37927   6.628  -0.222  10.522  0.3324 -0.3148 -0.3380
  288MOL0    Cl37928   6.600  -0.107  10.386  0.3101 -0.0530 -0.1079
  288MOL0     C37929   6.974   0.656  10.878  0.5295  0.3570  0.6621
  288MOL0     C37930   7.031   0.783  10.858 -0.4356 -0.4877 -0.0343
  288MOL0     O37931   7.262   0.886  10.641 -0.3959  0.5465 -0.2481
  288MOL0     C37932   7.191   1.237  10.713 -0.4068  0.0394 -0.2275
  288MOL0     C37933   7.264   1.358  10.685 -0.2870 -0.6563 -0.2788
  288MOL0     N37934   7.585   1.877  10.208  0.0743  0.1690 -0.1987
  288MOL0     N37935   7.558   2.003  10.207 -0.2516  0.3725 -0.0211
  288MOL0     C37936   7.419   2.980  10.454  0.6106  0.2718 -0.6911
  288MOL0     C37937   7.382   3.077  10.357 -0.1193 -0.0723  0.4785
  288MOL0     C37938   7.194   3.436  10.142 -0.0474  0.0211  1.0997
  288MOL0     C37939   7.214   3.400  10.017 -0.8158  0.1724  0.9925
  288MOL0     C37940   7.225   3.497   9.914  1.2592  0.1550  0.5464
  288MOL0     C37941   7.216   3.632   9.944  0.3454 -1.1312 -0.7786
  288MOL0     O37942   7.225   3.714   9.830 -0.4506  0.7387  0.0843
  288MOL0     C37943   7.210   3.855   9.852  0.1589 -0.5984 -0.3964
  288MOL0     C37944   7.195   3.912   9.709 -0.9375  0.7500  0.4036
  288MOL0     C37945   7.131   4.048   9.726 -0.0600 -0.3369 -0.2837
  288MOL0     C37946   7.148   4.135   9.608  0.3519 -0.0112  0.5416
  288MOL0     C37947   7.054   4.088   9.506 -1.0758  0.0098  0.5940
  288MOL0     C37948   6.998   4.051   9.402 -0.7383  0.2010 -0.0708
  288MOL0     C37949   7.188   3.674  10.081 -0.1105 -0.0416 -0.7756
  288MOL0     C37950   7.180   3.573  10.176  0.1163 -0.2593  0.4629
  288MOL0     H37951   7.037   3.087  10.396  1.4505  0.5992  1.5773
  288MOL0     H37952   7.123   2.930  10.586  3.0594 -2.5448 -0.4563
  288MOL0     H37953   7.401   2.820  10.827  2.9909 -1.5803  0.3591
  288MOL0     H37954   7.448   2.962  10.725 -1.4265 -0.4317 -1.3292
  288MOL0     H37955   7.616   2.752  10.783  0.2327 -2.4266  0.1160
  288MOL0     H37956   7.628   2.848  10.643  0.5089 -1.2283  0.2444
  288MOL0     H37957   7.642   2.605  10.603 -0.8905 -0.3910 -0.6831
  288MOL0     H37958   7.483   2.650  10.533 -1.7204  2.3271  1.4925
  288MOL0     H37959   7.502   2.570  10.817 -0.2591  0.0880 -0.3364
  288MOL0     H37960   7.364   2.570  10.711  0.0339  0.4860  1.2257
  288MOL0     H37961   7.450   2.335  10.755 -1.2092 -0.3022 -0.9314
  288MOL0     H37962   7.608   2.388  10.682  0.7939 -0.3492 -3.1390
  288MOL0     H37963   7.483   2.429  10.469  2.2410 -0.6381  0.0788
  288MOL0     H37964   7.345   2.329  10.537  0.6322  0.7295  2.1161
  288MOL0     H37965   7.636   2.224  10.508  0.3746  0.0449 -1.3902
  288MOL0     H37966   7.503   2.138  10.577  1.4935 -1.7091 -1.7908
  288MOL0     H37967   7.475   2.254  10.293 -4.3590 -1.1922 -1.3818
  288MOL0     H37968   7.364   2.159  10.375 -0.4732  1.2575 -1.2381
  288MOL0     H37969   7.467   1.916  10.513  2.9995 -2.0240  1.0522
  288MOL0     H37970   7.541   1.614  10.277  2.8208  3.4275 -3.3344
  288MOL0     H37971   7.436   1.673  10.415  1.3781 -2.2815  2.6570
  288MOL0     H37972   7.731   1.719  10.433 -0.8379  1.0084 -2.6128
  288MOL0     H37973   7.673   1.542  10.433  0.2959 -0.3195  0.1967
  288MOL0     H37974   7.701   1.678  10.668  0.3211  2.2559 -1.9207
  288MOL0     H37975   7.550   1.749  10.624  0.9027 -0.0425 -2.1849
  288MOL0     H37976   7.487   1.574  10.753  0.5210 -0.0474 -0.2369
  288MOL0     H37977   7.615   1.465  10.704  0.0915  0.8405  0.5257
  288MOL0     H37978   7.551   1.257  10.551 -0.2790 -0.6308 -0.0424
  288MOL0     H37979   7.444   1.038  10.613  2.1830  0.7382  3.4973
  288MOL0     H37980   6.912   0.872  10.559  2.1291 -0.7887 -0.9484
  288MOL0     H37981   6.774   0.665  10.597  1.0641  0.3002 -0.4446
  288MOL0     H37982   6.593   0.539  10.788  0.9942  1.8231 -0.9077
  288MOL0     H37983   6.675   0.596  10.935  4.2365  1.1879 -1.7005
  288MOL0     H37984   6.551   0.399  10.976  0.9730  1.4065  0.5512
  288MOL0     H37985   6.719   0.374  11.013 -0.2448 -0.6733 -0.1149
  288MOL0     H37986   6.732   0.266  10.773  0.8762 -2.8269  0.0254
  288MOL0     H37987   6.562   0.276  10.756 -0.0576 -2.3504 -0.6197
  288MOL0     H37988   6.653   0.133  11.005 -0.1177 -0.2128 -0.1861
  288MOL0     H37989   6.526   0.096  10.901  0.3015 -4.1682 -1.5433
  288MOL0     H37990   6.698  -0.096  10.882  1.3447  2.0614  5.2039
  288MOL0     H37991   6.818   0.014  10.836  0.8658 -3.1223  2.1051
  288MOL0     H37992   6.713   0.063  10.621  0.5556 -0.8195 -0.4214
  288MOL0     H37993   6.559  -0.004  10.667  0.0877 -0.3173 -1.2765
  288MOL0     H37994   6.820  -0.160  10.592 -0.0968  0.8485 -1.6998
  288MOL0     H37995   6.724  -0.219  10.716  0.5992  1.7179  0.2529
  288MOL0     H37996   6.546  -0.253  10.588  2.7014 -1.0002  2.4726
  288MOL0     H37997   6.678  -0.308  10.476  2.6783  0.6916  0.1893
  288MOL0     H37998   6.987   0.593  10.965  1.4695 -0.4334 -0.0275
  288MOL0     H37999   7.091   0.824  10.939 -0.9757 -3.1339  1.8185
  288MOL0     H38000   7.091   1.235  10.755 -0.7815 -0.3055 -1.1128
  288MOL0     H38001   7.208   1.446  10.717 -2.0369 -1.9161  0.2897
  288MOL0     H38002   7.521   2.950  10.475 -0.1856 -2.5646 -0.4166
  288MOL0     H38003   7.458   3.132  10.302  0.9539 -1.7833  0.1762
  288MOL0     H38004   7.218   3.292  10.005 -2.2122 -0.0155  1.9303
  288MOL0     H38005   7.238   3.480   9.807 -1.7690  0.0182  0.1122
  288MOL0     H38006   7.306   3.894   9.887  0.8092 -2.4333 -0.0092
  288MOL0     H38007   7.132   3.884   9.923  1.3243 -0.3326  0.8265
  288MOL0     H38008   7.294   3.914   9.661 -0.5093 -0.4615  1.1759
  288MOL0     H38009   7.129   3.845   9.654  0.0454  1.3999 -1.6847
  288MOL0     H38010   7.196   4.104   9.793 -0.2005  0.2196 -0.6125
  288MOL0     H38011   7.028   4.048   9.762 -0.0453  0.3666 -0.2311
  288MOL0     H38012   7.135   4.243   9.624  0.4345  0.2543 -1.0173
  288MOL0     H38013   7.251   4.130   9.570  0.4555  0.4061  0.7606
  288MOL0     H38014   6.942   4.020   9.316 -1.3554 -0.2442  0.4750
  288MOL0     H38015   7.191   3.775  10.119 -1.7317 -0.5852  0.9515
  288MOL0     H38016   7.147   3.599  10.276  0.9765  2.7900  0.0313
  289MOL0     O38017   3.321   9.253   4.294  0.1856  0.9535 -0.2586
  289MOL0     C38018   3.316   9.217   4.176 -0.3621 -0.1139 -0.5658
  289MOL0     O38019   3.410   9.122   4.112 -0.1387 -0.7433 -0.2064
  289MOL0     C38020   3.492   9.047   4.191 -0.0604 -0.7280 -0.4847
  289MOL0     C38021   3.621   9.030   4.148  0.6963 -0.0426  0.8465
  289MOL0     C38022   3.704   8.931   4.214  0.5989 -0.1529 -0.1141
  289MOL0     C38023   3.650   8.867   4.330  1.1165 -0.1534 -0.8783
  289MOL0     O38024   3.719   8.780   4.411  0.3096 -0.7822 -0.2688
  289MOL0     C38025   3.819   8.829   4.502  0.6756 -0.5427  0.1820
  289MOL0     C38026   3.920   8.726   4.533  0.7561 -1.5667 -0.7208
  289MOL0     C38027   4.008   8.697   4.412  0.2814  0.3689  0.0583
  289MOL0     C38028   4.121   8.606   4.458 -0.7513  0.1077 -0.4790
  289MOL0     C38029   4.237   8.669   4.549 -0.6146  0.4990 -1.1543
  289MOL0     C38030   4.350   8.569   4.584 -0.3987  0.7703 -0.5833
  289MOL0     C38031   4.318   8.426   4.633 -0.6050 -0.1152  0.9196
  289MOL0     C38032   4.237   8.425   4.758 -0.0922  0.5900 -0.6889
  289MOL0     N38033   4.246   8.283   4.812  0.2924 -0.6984 -0.8532
  289MOL0     C38034   4.274   8.247   4.938  1.3018  0.2482 -0.6956
  289MOL0     C38035   4.240   8.112   4.951 -0.3526  0.0920  0.5905
  289MOL0     C38036   4.262   8.030   5.083 -0.1012  0.5190  1.0225
  289MOL0     C38037   4.385   8.061   5.182 -0.1375  0.2920  0.4271
  289MOL0     C38038   4.338   8.043   5.329 -0.1129  0.1468 -0.5496
  289MOL0     C38039   4.373   7.912   5.388  0.2061  0.8807  0.3072
  289MOL0     O38040   4.515   7.916   5.383 -0.0856  0.3318  0.2322
  289MOL0     C38041   4.581   7.801   5.413  0.5232  0.4893  0.0173
  289MOL0     C38042   4.523   7.696   5.476  1.1559 -0.2872  0.1852
  289MOL0     C38043   4.580   7.572   5.501  0.2842 -0.6714 -1.5844
  289MOL0     C38044   4.711   7.552   5.460 -0.7232  0.5299  0.2669
  289MOL0     C38045   4.763   7.417   5.470  0.1470 -0.6513  0.2932
  289MOL0     O38046   4.688   7.322   5.537  0.0548 -0.3332 -0.1333
  289MOL0     C38047   4.715   7.187   5.532  0.6074  0.7219  0.4226
  289MOL0     C38048   4.811   7.124   5.441  0.6900  0.2580 -0.2937
  289MOL0     C38049   4.833   6.978   5.458  0.1403  0.2786 -0.3782
  289MOL0     C38050   4.761   6.899   5.542 -0.7812 -0.0995 -0.4470
  289MOL0     O38051   4.762   6.764   5.554 -0.0999  0.0587 -0.1989
  289MOL0     C38052   4.855   6.692   5.475  0.9232  0.2829 -0.7742
  289MOL0     C38053   4.831   6.547   5.487 -0.8563  0.4213  0.9671
  289MOL0     C38054   4.684   6.506   5.434 -0.3112 -1.0447 -1.1892
  289MOL0     C38055   4.664   6.527   5.286 -0.5729 -0.7042  0.1546
  289MOL0     C38056   4.533   6.470   5.232 -0.6183 -0.1654  1.2311
  289MOL0     C38057   4.402   6.489   5.305 -0.0260 -0.5607 -0.6721
  289MOL0     C38058   4.283   6.427   5.239  0.7310 -0.0350 -0.1304
  289MOL0     C38059   4.198   6.356   5.339 -0.6461  0.0262  0.3787
  289MOL0    Cl38060   4.276   6.204   5.412  0.1446 -0.0256  0.0628
  289MOL0     C38061   4.675   6.962   5.629 -0.6912 -0.2465 -0.3266
  289MOL0     C38062   4.659   7.106   5.627  0.3964 -0.1670 -0.2348
  289MOL0     O38063   4.874   7.401   5.417  0.3841 -0.5614  0.0756
  289MOL0     C38064   4.783   7.660   5.401  0.6321  0.5652  1.1255
  289MOL0     C38065   4.715   7.786   5.370 -0.6009  1.2404 -0.0140
  289MOL0     N38066   4.178   8.086   4.831  0.4676 -0.4763 -0.2370
  289MOL0     N38067   4.173   8.183   4.753  0.4970 -0.0335  0.5344
  289MOL0     C38068   3.512   8.897   4.366 -0.3441 -0.3959  0.4318
  289MOL0     C38069   3.432   8.977   4.291 -0.0295  0.4739 -1.6775
  289MOL0     C38070   3.218   9.289   4.085  0.0524  0.3541 -0.1413
  289MOL0     C38071   3.107   9.350   4.141  0.7728 -0.7673  0.2002
  289MOL0     C38072   3.018   9.423   4.056  0.4049  0.1008  0.2069
  289MOL0     C38073   3.039   9.426   3.920  0.5947 -1.1958  0.2648
  289MOL0     O38074   2.945   9.487   3.842  0.3676  0.2618 -0.2433
  289MOL0     C38075   2.961   9.630   3.811 -0.4105  0.0762  0.2140
  289MOL0     C38076   2.895   9.736   3.895 -0.0487  0.6253 -1.3694
  289MOL0     C38077   2.742   9.742   3.864  0.4519 -0.4291  1.3315
  289MOL0     C38078   2.653   9.800   3.982  0.3097  0.4856  0.0129
  289MOL0     C38079   2.699   9.931   4.029  0.5793  0.1599 -0.3105
  289MOL0     C38080   2.736  10.046   4.057  0.1699 -0.1354  0.6188
  289MOL0     C38081   3.152   9.376   3.864 -1.1655  0.2468  0.5347
  289MOL0     C38082   3.241   9.287   3.945  0.2029 -0.5579 -0.1894
  289MOL0     H38083   3.673   9.083   4.068  2.2037  0.0150  1.8306
  289MOL0     H38084   3.800   8.909   4.168 -0.1465 -1.7333 -0.9922
  289MOL0     H38085   3.768   8.858   4.595  1.8759  1.2268  0.3329
  289MOL0     H38086   3.873   8.921   4.477 -1.5166  1.0724  1.0151
  289MOL0     H38087   3.886   8.629   4.571 -1.2831  0.1638  2.3188
  289MOL0     H38088   3.977   8.768   4.617 -1.1227 -2.8365  1.3234
  289MOL0     H38089   4.052   8.788   4.370  3.0318 -0.9110 -0.0404
  289MOL0     H38090   3.945   8.640   4.343  3.5376 -1.0171 -2.0403
  289MOL0     H38091   4.080   8.524   4.518 -0.1278  0.2445  0.1469
  289MOL0     H38092   4.179   8.572   4.372 -2.8418 -0.2122 -1.8427
  289MOL0     H38093   4.206   8.724   4.638  0.5279 -0.8776  0.1535
  289MOL0     H38094   4.277   8.740   4.477  0.7757  2.3953  1.3415
  289MOL0     H38095   4.410   8.618   4.661 -1.1787  1.4716 -0.4068
  289MOL0     H38096   4.413   8.538   4.501 -0.2395 -2.2974  0.5517
  289MOL0     H38097   4.264   8.378   4.551 -0.7084  0.2345  0.7818
  289MOL0     H38098   4.414   8.385   4.666  0.1931  0.2228 -0.8730
  289MOL0     H38099   4.132   8.455   4.751  0.3489  1.9955 -1.6862
  289MOL0     H38100   4.269   8.492   4.839 -1.9041  0.4799  0.1769
  289MOL0     H38101   4.319   8.309   5.014 -2.3083  4.1352 -1.4060
  289MOL0     H38102   4.265   7.925   5.052  0.7667  0.7269  0.3489
  289MOL0     H38103   4.170   8.051   5.138 -1.1336 -0.0351 -0.4247
  289MOL0     H38104   4.423   8.163   5.179 -1.0198  0.8150  3.5308
  289MOL0     H38105   4.475   8.006   5.152 -0.2902  0.0923  0.3248
  289MOL0     H38106   4.391   8.121   5.385  3.0667  0.7838 -4.0601
  289MOL0     H38107   4.229   8.056   5.327 -0.3097 -0.9800 -4.2584
  289MOL0     H38108   4.333   7.825   5.336  0.4639  0.4788  0.7743
  289MOL0     H38109   4.332   7.919   5.490 -0.8946  0.2940 -0.0781
  289MOL0     H38110   4.426   7.701   5.523 -0.6173 -1.6395 -2.9967
  289MOL0     H38111   4.515   7.493   5.539  2.3446 -2.6224 -1.8761
  289MOL0     H38112   4.851   7.182   5.359 -0.6787 -0.1122 -1.2532
  289MOL0     H38113   4.896   6.929   5.384  1.5269  2.4556 -0.7568
  289MOL0     H38114   4.959   6.717   5.501  0.3258  0.4245  1.7696
  289MOL0     H38115   4.827   6.709   5.371 -3.2200  0.4371  0.1965
  289MOL0     H38116   4.830   6.525   5.594 -0.9200 -0.4061  0.8021
  289MOL0     H38117   4.913   6.494   5.438 -0.8189  1.0608  0.3208
  289MOL0     H38118   4.617   6.561   5.500  1.1807  1.8630 -1.9507
  289MOL0     H38119   4.658   6.403   5.462  1.4268 -0.9033  1.2221
  289MOL0     H38120   4.661   6.635   5.265 -1.4923 -1.2113 -2.7812
  289MOL0     H38121   4.734   6.468   5.227 -1.6776 -1.0751 -0.8406
  289MOL0     H38122   4.558   6.365   5.212  1.5945  0.4942  0.2314
  289MOL0     H38123   4.515   6.500   5.129  0.5068 -3.0963  0.0639
  289MOL0     H38124   4.396   6.597   5.319 -0.2054 -0.5817 -0.5813
  289MOL0     H38125   4.431   6.456   5.405  2.8876 -1.5043 -1.7246
  289MOL0     H38126   4.220   6.502   5.191  3.3958  0.8396 -2.5389
  289MOL0     H38127   4.320   6.352   5.168  4.2718 -0.4921  1.9597
  289MOL0     H38128   4.111   6.312   5.290 -0.5763  3.0015 -2.8617
  289MOL0     H38129   4.167   6.421   5.420  0.0200  0.7607  0.0554
  289MOL0     H38130   4.613   6.895   5.688 -1.9833  2.1248  1.1693
  289MOL0     H38131   4.579   7.146   5.689  1.1078  2.9737 -1.1737
  289MOL0     H38132   4.886   7.651   5.368  0.4809  1.0042  0.5344
  289MOL0     H38133   4.770   7.870   5.328  0.8917 -0.2894 -1.2790
  289MOL0     H38134   3.458   8.836   4.437 -2.2068 -0.0256 -0.5844
  289MOL0     H38135   3.329   8.988   4.322 -0.2587 -0.1542 -2.1925
  289MOL0     H38136   3.084   9.350   4.247 -0.3063 -4.2458  0.0959
  289MOL0     H38137   2.931   9.474   4.096  1.6631  2.2268  0.3712
  289MOL0     H38138   2.933   9.647   3.707 -2.4879  0.2164  0.7620
  289MOL0     H38139   3.068   9.652   3.822 -0.2172 -0.2170 -0.9863
  289MOL0     H38140   2.904   9.722   4.003 -1.3709  0.3316 -1.2751
  289MOL0     H38141   2.931   9.836   3.870  0.4077  0.7888 -0.1581
  289MOL0     H38142   2.722   9.641   3.827  3.8259 -1.1096  1.0403
  289MOL0     H38143   2.738   9.810   3.778  2.5431 -3.8654 -1.7682
  289MOL0     H38144   2.545   9.798   3.963 -0.1923  2.8567  1.9834
  289MOL0     H38145   2.656   9.733   4.068 -0.3214  0.0264 -0.3093
  289MOL0     H38146   2.767  10.144   4.087 -0.6851  0.7951 -1.3619
  289MOL0     H38147   3.167   9.399   3.759 -2.7850  1.9957  0.6222
  289MOL0     H38148   3.330   9.241   3.904 -1.3322 -1.6507 -2.4809
  290MOL0     O38149   8.806  10.107   0.734 -0.1635  0.6851  0.6065
  290MOL0     C38150   8.921  10.123   0.775 -0.9949  0.1750  0.1476
  290MOL0     O38151   8.970  10.244   0.838 -0.4464  0.1439 -0.2695
  290MOL0     C38152   8.897  10.351   0.870  0.1430  1.1648  0.1236
  290MOL0     C38153   8.970  10.454   0.924  0.7087  0.5281 -0.4841
  290MOL0     C38154   8.916  10.572   0.967 -0.1167 -0.5067 -0.8066
  290MOL0     C38155   8.781  10.597   0.938 -0.2103 -0.3981  0.0633
  290MOL0     O38156   8.745  10.724   0.974  0.8673 -0.9718  0.2646
  290MOL0     C38157   8.607  10.741   1.015 -0.2288 -1.0372 -0.2364
  290MOL0     C38158   8.626  10.865   1.090  0.0190  0.1489  0.4911
  290MOL0     C38159   8.485  10.922   1.135  0.8447  0.5532  0.2991
  290MOL0     C38160   8.496  11.052   1.201 -0.0120 -0.8054  0.5751
  290MOL0     C38161   8.492  11.156   1.088  0.3585  0.2968 -0.4392
  290MOL0     C38162   8.543  11.292   1.141  1.1786  0.1506 -0.7475
  290MOL0     C38163   8.570  11.390   1.030  1.0112 -0.0612 -0.6353
  290MOL0     C38164   8.695  11.376   0.945 -0.7207 -0.4102  0.4815
  290MOL0     N38165   8.722  11.506   0.869  0.2455 -0.7395  0.3793
  290MOL0     C38166   8.747  11.624   0.934  0.4043 -0.2995 -0.4366
  290MOL0     C38167   8.748  11.716   0.838 -0.3255  0.7326  0.8002
  290MOL0     C38168   8.808  11.854   0.847  0.2733 -0.3758 -0.0966
  290MOL0     C38169   8.923  11.906   0.756 -0.3685  0.3546  0.8903
  290MOL0     C38170   8.910  12.051   0.704 -0.6789  0.6589  0.5642
  290MOL0     C38171   8.840  12.068   0.563 -0.0973  0.0924 -0.8101
  290MOL0     O38172   8.890  12.185   0.500 -0.4697  0.6726 -0.2211
  290MOL0     C38173   8.838  12.307   0.516 -0.3782 -0.2295 -0.4302
  290MOL0     C38174   8.894  12.405   0.432 -0.2735 -0.0120 -0.0489
  290MOL0     C38175   8.853  12.537   0.434  0.1899 -0.8811 -0.8289
  290MOL0     C38176   8.737  12.573   0.516  0.0508  0.2354  0.1142
  290MOL0     C38177   8.695  12.719   0.518 -0.5850  0.7811 -0.7194
  290MOL0     O38178   8.733  12.788   0.407  0.1619 -1.2474 -1.2304
  290MOL0     C38179   8.723  12.924   0.413 -0.1656  1.1312 -0.4704
  290MOL0     C38180   8.836  13.003   0.423  0.1925  0.6157  0.4966
  290MOL0     C38181   8.821  13.139   0.429  0.6226  0.9133  0.0686
  290MOL0     C38182   8.702  13.210   0.416  0.8199 -0.0482  0.2054
  290MOL0     O38183   8.675  13.345   0.419  0.2969 -0.3809  0.1768
  290MOL0     C38184   8.774  13.435   0.462 -0.1623  0.6746 -0.9454
  290MOL0     C38185   8.845  13.489   0.341 -0.8473  0.8059 -0.6267
  290MOL0     C38186   8.955  13.586   0.389 -0.1110  0.1717  0.0370
  290MOL0     C38187   9.013  13.667   0.272  0.0315 -0.6228 -0.6243
  290MOL0     C38188   9.108  13.600   0.173  0.0315  0.2573 -0.2333
  290MOL0     C38189   9.134  13.699   0.050 -1.0438  0.6002  0.0771
  290MOL0     C38190   9.250  13.644  -0.039  0.1182 -1.3344  0.0073
  290MOL0     C38191   9.211  13.521  -0.115 -1.0712 -0.6038  0.3877
  290MOL0    Cl38192   9.038  13.495  -0.150  0.3950 -0.0880  0.0178
  290MOL0     C38193   8.588  13.130   0.393  0.5331  0.4718  0.1337
  290MOL0     C38194   8.601  12.989   0.404  0.4824 -0.1321 -0.2958
  290MOL0     O38195   8.640  12.758   0.612  0.4757  0.0687 -0.1965
  290MOL0     C38196   8.684  12.473   0.599 -0.9125  0.4587  0.0442
  290MOL0     C38197   8.733  12.343   0.599 -0.1770 -0.0322  0.0047
  290MOL0     N38198   8.714  11.663   0.712  0.5831 -0.2072 -0.4298
  290MOL0     N38199   8.694  11.536   0.734  0.4340 -0.1451  0.2081
  290MOL0     C38200   8.702  10.493   0.890  1.0425  0.2727  0.9452
  290MOL0     C38201   8.759  10.370   0.853 -0.0442 -0.1591  1.0067
  290MOL0     C38202   9.020  10.011   0.763  0.2555 -0.5740 -0.2566
  290MOL0     C38203   9.131  10.021   0.842 -0.4501 -0.1986 -0.0380
  290MOL0     C38204   9.232   9.934   0.821  0.5861  1.0751 -0.8760
  290MOL0     C38205   9.222   9.835   0.722 -0.1638  0.0938 -0.7593
  290MOL0     O38206   9.338   9.752   0.693  0.3243 -0.3226  0.2671
  290MOL0     C38207   9.329   9.616   0.645 -0.2581 -0.4680  0.3292
  290MOL0     C38208   9.460   9.547   0.675  0.1915  0.1757  0.2404
  290MOL0     C38209   9.485   9.520   0.830  0.0809  0.5402  0.2563
  290MOL0     C38210   9.616   9.441   0.863  0.4260 -0.6613 -0.6266
  290MOL0     C38211   9.649   9.331   0.771 -0.1277  0.3888  0.6293
  290MOL0     C38212   9.682   9.246   0.691 -0.7549  0.0618  0.2382
  290MOL0     C38213   9.097   9.804   0.668  0.1179 -0.4083  0.0612
  290MOL0     C38214   8.995   9.898   0.682  0.1589 -0.0034  0.4717
  290MOL0     H38215   9.073  10.423   0.942 -0.2465 -1.2653  2.5511
  290MOL0     H38216   8.977  10.658   0.993 -1.4692  1.7245 -4.2326
  290MOL0     H38217   8.560  10.664   1.077  0.6736 -0.3990  1.2896
  290MOL0     H38218   8.545  10.756   0.926 -2.9585 -3.8263  1.0015
  290MOL0     H38219   8.680  10.933   1.025 -0.3838  1.1270  1.1646
  290MOL0     H38220   8.695  10.851   1.174  1.8804  1.6771 -0.7264
  290MOL0     H38221   8.447  10.855   1.213  1.6100 -1.5165 -1.0029
  290MOL0     H38222   8.415  10.924   1.051  1.6210  1.0168 -0.3525
  290MOL0     H38223   8.416  11.071   1.273 -0.0442 -0.2496  0.4005
  290MOL0     H38224   8.587  11.047   1.261  0.5684 -1.4028 -0.3349
  290MOL0     H38225   8.389  11.152   1.051 -0.7614  1.2763  2.3189
  290MOL0     H38226   8.560  11.121   1.010  1.5654 -3.4590  1.9712
  290MOL0     H38227   8.627  11.287   1.210  1.9619 -0.8943 -1.7517
  290MOL0     H38228   8.456  11.330   1.197 -0.5072 -3.0444 -0.9711
  290MOL0     H38229   8.479  11.397   0.970  1.6615  2.5091 -1.4266
  290MOL0     H38230   8.574  11.489   1.077 -0.7300  0.8514 -2.2787
  290MOL0     H38231   8.681  11.302   0.866 -1.3404  0.6663 -0.4417
  290MOL0     H38232   8.779  11.345   1.009 -1.5261 -2.5468  0.5774
  290MOL0     H38233   8.786  11.636   1.035  0.0766 -1.8528 -0.0978
  290MOL0     H38234   8.829  11.863   0.954  1.7914 -0.0162 -0.3945
  290MOL0     H38235   8.724  11.924   0.842 -0.9359 -1.4945  2.5279
  290MOL0     H38236   8.927  11.851   0.662  0.5286 -0.4373  1.3733
  290MOL0     H38237   9.018  11.897   0.810 -1.7508  1.1933  3.6692
  290MOL0     H38238   8.873  12.125   0.776 -0.8218  0.1640  0.9975
  290MOL0     H38239   9.013  12.072   0.675 -0.4542  0.3643  1.1568
  290MOL0     H38240   8.731  12.062   0.566 -0.2042  1.7322 -0.7454
  290MOL0     H38241   8.865  11.994   0.486 -0.1150 -0.0293 -0.7000
  290MOL0     H38242   8.980  12.373   0.375  0.8400  3.9375 -0.8888
  290MOL0     H38243   8.895  12.607   0.362 -1.1616  0.1306 -0.6653
  290MOL0     H38244   8.928  12.946   0.423 -1.3598 -2.2050 -1.9737
  290MOL0     H38245   8.917  13.188   0.441  1.0517  0.1670 -0.2613
  290MOL0     H38246   8.844  13.384   0.529 -0.4108 -1.7920 -2.4207
  290MOL0     H38247   8.725  13.522   0.505  2.0589  1.4614  0.1228
  290MOL0     H38248   8.771  13.531   0.272 -1.4221 -1.4908 -1.4649
  290MOL0     H38249   8.886  13.404   0.287 -3.7944 -1.4215  0.3864
  290MOL0     H38250   9.034  13.522   0.429  1.1230 -1.0678 -3.9203
  290MOL0     H38251   8.913  13.657   0.461 -2.6273  1.0914 -2.1465
  290MOL0     H38252   8.929  13.707   0.214  0.4235  0.6724 -0.3190
  290MOL0     H38253   9.060  13.757   0.311  0.3360 -0.3492 -1.5833
  290MOL0     H38254   9.055  13.513   0.132 -0.3152 -1.1997  3.0048
  290MOL0     H38255   9.195  13.564   0.228 -0.5826 -2.0098 -0.6356
  290MOL0     H38256   9.156  13.796   0.094 -0.4115 -0.4731  2.2932
  290MOL0     H38257   9.049  13.727  -0.014  0.7925  0.9914 -2.3159
  290MOL0     H38258   9.277  13.725  -0.107  1.9876 -0.9885  1.0974
  290MOL0     H38259   9.341  13.641   0.021  1.6119  2.9532 -1.6675
  290MOL0     H38260   9.257  13.441  -0.057 -0.6891 -0.2283  0.6088
  290MOL0     H38261   9.262  13.529  -0.212 -1.3993  4.4787  0.3566
  290MOL0     H38262   8.487  13.169   0.391  0.4681  0.2716 -0.5495
  290MOL0     H38263   8.522  12.917   0.387  0.6261 -0.1162 -1.0851
  290MOL0     H38264   8.599  12.511   0.654 -0.2411  0.8250  0.8332
  290MOL0     H38265   8.677  12.268   0.655  1.1774 -1.1816 -0.1182
  290MOL0     H38266   8.599  10.489   0.855  2.4400  1.7032 -4.2063
  290MOL0     H38267   8.702  10.297   0.795 -2.6546  3.7689 -1.8987
  290MOL0     H38268   9.150  10.098   0.917  3.9592  1.0660 -2.0830
  290MOL0     H38269   9.326   9.953   0.872  0.8858 -1.0887 -0.5666
  290MOL0     H38270   9.318   9.610   0.537  2.2591 -3.1770  0.0955
  290MOL0     H38271   9.252   9.551   0.688 -0.4451 -1.9472 -2.0770
  290MOL0     H38272   9.460   9.454   0.617  0.1909 -0.5563  1.3647
  290MOL0     H38273   9.541   9.612   0.641  1.7348 -2.0607 -0.6016
  290MOL0     H38274   9.408   9.454   0.871  1.0564 -0.1184  1.0949
  290MOL0     H38275   9.479   9.613   0.888 -0.0571  0.0887  0.9817
  290MOL0     H38276   9.685   9.526   0.858 -5.2245  4.5735 -0.7040
  290MOL0     H38277   9.619   9.404   0.966  4.6469 -0.3809 -0.4502
  290MOL0     H38278   9.716   9.173   0.620  0.8565  0.9113  0.1167
  290MOL0     H38279   9.091   9.739   0.582  2.3570 -1.1232  0.3656
  290MOL0     H38280   8.901   9.889   0.630  0.8023  1.0877 -0.9505
  291MOL0     O38281  10.642   0.194   4.971 -0.2061 -0.2812 -0.2515
  291MOL0     C38282  10.542   0.244   5.034  1.0905 -0.2752  0.7111
  291MOL0     O38283  10.428   0.305   4.984  0.1317  0.7091  0.2626
  291MOL0     C38284  10.425   0.328   4.842 -0.0919  0.1222 -0.6080
  291MOL0     C38285  10.332   0.259   4.768  1.0526 -0.4230  0.8308
  291MOL0     C38286  10.336   0.273   4.623 -0.0640  0.1793 -0.6051
  291MOL0     C38287  10.432   0.350   4.560  0.8209  0.2067  0.5413
  291MOL0     O38288  10.418   0.380   4.425 -0.0014 -0.4665 -0.0549
  291MOL0     C38289  10.359   0.503   4.397 -0.2689 -1.1030 -0.2149
  291MOL0     C38290  10.331   0.519   4.241 -0.4324  0.0472 -0.0223
  291MOL0     C38291  10.271   0.658   4.221  0.0526  0.8954 -0.8838
  291MOL0     C38292  10.207   0.663   4.072 -0.6957  0.0719  1.0235
  291MOL0     C38293  10.065   0.597   4.067 -0.2354  0.0429 -0.8159
  291MOL0     C38294   9.944   0.683   4.110 -0.5904  0.1738  0.0850
  291MOL0     C38295   9.914   0.803   4.014  0.3925  0.1314 -0.2519
  291MOL0     C38296   9.811   0.910   4.064 -0.3902  0.3443  0.2179
  291MOL0     N38297   9.830   1.046   4.000  0.3640 -0.2811 -0.4166
  291MOL0     C38298   9.735   1.108   3.925 -0.2055  0.3251  0.6785
  291MOL0     C38299   9.773   1.235   3.899  0.0631  0.7753 -0.5711
  291MOL0     C38300   9.687   1.351   3.832 -1.2733 -0.1434 -0.0668
  291MOL0     C38301   9.684   1.478   3.906  0.1707  0.0606 -0.7845
  291MOL0     C38302   9.638   1.596   3.813  0.1677 -0.4924  0.0721
  291MOL0     C38303   9.624   1.733   3.901 -0.0206  0.2693  0.5714
  291MOL0     O38304   9.579   1.841   3.812  0.2961 -0.3225  0.1072
  291MOL0     C38305   9.449   1.848   3.776  0.4905 -0.7442 -0.0469
  291MOL0     C38306   9.341   1.760   3.805 -0.6054  1.0949  0.6925
  291MOL0     C38307   9.214   1.774   3.757  0.3176 -0.3569 -0.1079
  291MOL0     C38308   9.183   1.882   3.666  0.5729 -0.0353 -0.9503
  291MOL0     C38309   9.045   1.902   3.617 -0.0606 -0.2185  0.2961
  291MOL0     O38310   9.041   1.969   3.496 -0.0546 -0.2161  0.1266
  291MOL0     C38311   8.933   1.947   3.414 -0.3418  0.4846 -0.2447
  291MOL0     C38312   8.821   2.030   3.421 -0.7017 -0.5912  0.9091
  291MOL0     C38313   8.713   1.990   3.339  0.1947 -0.6844 -0.0460
  291MOL0     C38314   8.726   1.888   3.252 -0.6838 -0.3068 -0.3928
  291MOL0     O38315   8.620   1.864   3.165 -0.3597  0.2006 -0.6592
  291MOL0     C38316   8.557   1.744   3.196  0.1966 -0.0414 -0.9905
  291MOL0     C38317   8.423   1.717   3.109  0.0736  0.2859 -0.2032
  291MOL0     C38318   8.335   1.605   3.145 -0.4866  1.5255  0.2694
  291MOL0     C38319   8.253   1.545   3.030 -0.9711 -0.1074  0.3453
  291MOL0     C38320   8.176   1.418   3.068  0.1490  0.3406 -0.3117
  291MOL0     C38321   8.064   1.439   3.171 -0.2934  0.2298 -0.0380
  291MOL0     C38322   7.994   1.312   3.231  0.2618 -0.1288 -0.7142
  291MOL0     C38323   7.884   1.267   3.140  0.3512  0.5760 -0.1125
  291MOL0    Cl38324   7.815   1.109   3.187  0.3166 -0.6509 -0.0859
  291MOL0     C38325   8.837   1.801   3.247  0.8689 -0.8161  0.1436
  291MOL0     C38326   8.944   1.830   3.333 -0.6505 -0.1759 -1.2808
  291MOL0     O38327   8.959   1.863   3.689 -0.0320 -0.6969  0.3233
  291MOL0     C38328   9.289   1.964   3.631 -0.3593 -0.2450 -0.0725
  291MOL0     C38329   9.415   1.948   3.692  0.1174  0.7440 -0.3058
  291MOL0     N38330   9.899   1.244   3.961 -0.9418 -0.3558 -0.0815
  291MOL0     N38331   9.934   1.135   4.017 -1.0103 -0.3403 -0.1679
  291MOL0     C38332  10.532   0.409   4.640 -0.4496  0.1341 -0.7547
  291MOL0     C38333  10.528   0.389   4.778 -0.8811 -0.6379 -0.2197
  291MOL0     C38334  10.535   0.212   5.173  0.8835 -0.4295  0.5346
  291MOL0     C38335  10.639   0.157   5.244  0.5498  0.0171  0.2770
  291MOL0     C38336  10.621   0.120   5.381 -0.2162 -0.4760  0.2586
  291MOL0     C38337  10.501   0.137   5.443 -0.2697  0.8037 -0.7636
  291MOL0     O38338  10.460   0.109   5.570 -0.5422  1.2739 -0.5832
  291MOL0     C38339  10.556   0.048   5.667  0.2016  0.5363 -0.3152
  291MOL0     C38340  10.515   0.067   5.813  0.4773 -0.7286 -0.1270
  291MOL0     C38341  10.421  -0.039   5.871  0.0465  0.6024 -0.8628
  291MOL0     C38342  10.280  -0.021   5.842  0.1260 -0.1096 -0.4077
  291MOL0     C38343  10.204  -0.084   5.952 -0.1564  0.5850  1.3609
  291MOL0     C38344  10.135  -0.145   6.031  0.3924 -0.4375  0.5468
  291MOL0     C38345  10.400   0.186   5.369  0.6202 -0.1249 -0.1352
  291MOL0     C38346  10.410   0.215   5.235  0.6522  0.0795 -0.7328
  291MOL0     H38347  10.259   0.200   4.821  0.8295  0.1505  1.1763
  291MOL0     H38348  10.255   0.233   4.562 -0.5503 -0.6532  0.5651
  291MOL0     H38349  10.421   0.586   4.435 -3.2974  2.5170 -2.4853
  291MOL0     H38350  10.267   0.533   4.447 -1.0565 -0.8387 -1.7749
  291MOL0     H38351  10.254   0.444   4.218 -0.7373 -0.1957  1.6470
  291MOL0     H38352  10.420   0.506   4.180  0.5095  1.2976  1.0319
  291MOL0     H38353  10.353   0.730   4.234  0.3589  0.5048 -0.6493
  291MOL0     H38354  10.207   0.690   4.304  1.2346 -0.2763  0.5361
  291MOL0     H38355  10.219   0.767   4.042  3.2413 -0.1431  1.3609
  291MOL0     H38356  10.261   0.601   3.999 -1.6500 -1.5298  1.6176
  291MOL0     H38357  10.064   0.496   4.109 -0.7858 -0.4364 -1.9374
  291MOL0     H38358  10.033   0.578   3.964 -0.1579  1.6821 -1.1675
  291MOL0     H38359   9.965   0.713   4.214 -0.7971  0.4869  0.0363
  291MOL0     H38360   9.860   0.614   4.097 -2.4090  2.0185  1.3722
  291MOL0     H38361  10.012   0.850   4.000  0.8469  0.0613  2.2026
  291MOL0     H38362   9.878   0.766   3.918  1.1100  0.1126 -0.5236
  291MOL0     H38363   9.844   0.933   4.166 -1.4494  1.2608  0.3865
  291MOL0     H38364   9.707   0.877   4.052  0.7889 -3.6184 -0.4753
  291MOL0     H38365   9.645   1.055   3.895  0.8384 -0.2897 -1.5501
  291MOL0     H38366   9.585   1.319   3.810 -1.8185  1.0314  0.6607
  291MOL0     H38367   9.731   1.363   3.733 -1.0697  1.5993  0.1944
  291MOL0     H38368   9.784   1.493   3.948 -1.2052  1.2743  2.3747
  291MOL0     H38369   9.612   1.470   3.988  2.5109  2.1367  1.6849
  291MOL0     H38370   9.712   1.601   3.732 -1.1062 -0.5842 -1.1238
  291MOL0     H38371   9.542   1.563   3.775 -0.8710  0.1218  2.0071
  291MOL0     H38372   9.724   1.767   3.928  0.7725 -1.2261 -0.3199
  291MOL0     H38373   9.565   1.719   3.992 -0.6834 -2.3696 -0.1563
  291MOL0     H38374   9.348   1.682   3.880 -1.7612 -0.2761 -0.5723
  291MOL0     H38375   9.137   1.708   3.797 -1.0406  0.9467 -0.4956
  291MOL0     H38376   8.825   2.114   3.490  0.1135 -0.1981  0.4014
  291MOL0     H38377   8.620   2.045   3.334  0.5349 -0.1024 -0.0463
  291MOL0     H38378   8.533   1.744   3.302 -1.0875 -0.9366 -1.2571
  291MOL0     H38379   8.614   1.654   3.172 -2.9532 -3.0553  1.8099
  291MOL0     H38380   8.460   1.695   3.009  1.5583 -1.5944  0.6842
  291MOL0     H38381   8.368   1.812   3.105 -0.4406 -0.0200 -0.4945
  291MOL0     H38382   8.277   1.622   3.236  1.8431  3.4193  1.5554
  291MOL0     H38383   8.403   1.528   3.183  0.5347  2.3539  0.1913
  291MOL0     H38384   8.192   1.618   2.974 -3.0917 -0.4843  2.0314
  291MOL0     H38385   8.321   1.509   2.952 -1.0484  0.0285  0.2135
  291MOL0     H38386   8.246   1.342   3.103 -1.6085 -0.6188  1.2878
  291MOL0     H38387   8.121   1.381   2.981  0.8927  3.7475 -2.4265
  291MOL0     H38388   7.987   1.507   3.133 -0.0764  1.8199  2.1445
  291MOL0     H38389   8.098   1.510   3.247  1.6338  0.5824 -1.1664
  291MOL0     H38390   8.068   1.233   3.239  0.5611  0.2301  0.1737
  291MOL0     H38391   7.956   1.338   3.330  1.9095  0.1764 -0.1469
  291MOL0     H38392   7.915   1.254   3.035 -2.7513 -1.0285 -0.9525
  291MOL0     H38393   7.800   1.336   3.129 -1.2961 -1.2670  0.2044
  291MOL0     H38394   8.836   1.717   3.179 -1.9893  1.0494 -2.3665
  291MOL0     H38395   9.036   1.774   3.343 -1.8673 -1.9098  1.2511
  291MOL0     H38396   9.264   2.041   3.558 -1.8051 -1.8710 -1.3862
  291MOL0     H38397   9.497   2.018   3.675  0.4708  0.7908  1.4167
  291MOL0     H38398  10.618   0.462   4.600  3.1209 -4.6793 -0.3911
  291MOL0     H38399  10.607   0.445   4.827 -3.3112  1.2721  1.7847
  291MOL0     H38400  10.733   0.142   5.192  0.5353 -1.3778  0.6190
  291MOL0     H38401  10.709   0.079   5.431 -0.8547  0.0727  1.9041
  291MOL0     H38402  10.653   0.096   5.653  0.1951  1.2835  1.8806
  291MOL0     H38403  10.587  -0.055   5.644  4.3244  1.5038  0.2152
  291MOL0     H38404  10.605   0.077   5.874  0.6795 -0.6824 -0.4314
  291MOL0     H38405  10.459   0.159   5.825 -0.2618 -1.2825  0.8435
  291MOL0     H38406  10.432  -0.011   5.977  1.6950 -2.5859 -0.0863
  291MOL0     H38407  10.460  -0.139   5.851 -0.7250 -0.1370  1.1173
  291MOL0     H38408  10.254   0.085   5.841 -1.7958 -0.4759  1.5889
  291MOL0     H38409  10.239  -0.070   5.753  1.1492 -3.3656  0.7692
  291MOL0     H38410  10.074  -0.183   6.110 -2.4875  3.2061  0.3310
  291MOL0     H38411  10.300   0.206   5.406  0.9368  1.5551 -0.0893
  291MOL0     H38412  10.319   0.238   5.181  0.7377  2.7270  0.0946
  292MOL0     O38413   5.484   1.405  11.135  0.2040  0.0280 -0.2405
  292MOL0     C38414   5.485   1.491  11.042 -0.0448 -0.7395 -0.7618
  292MOL0     O38415   5.392   1.492  10.937  0.0332 -0.4713  0.3359
  292MOL0     C38416   5.301   1.401  10.927  1.0103 -0.1083  0.1557
  292MOL0     C38417   5.275   1.361  10.799 -0.2489  0.6434  0.0305
  292MOL0     C38418   5.177   1.265  10.767 -0.0922  0.1647 -0.1849
  292MOL0     C38419   5.109   1.201  10.869  0.6241 -1.3592 -0.3595
  292MOL0     O38420   5.013   1.110  10.842  1.2873  0.1791 -0.6164
  292MOL0     C38421   5.056   0.975  10.841 -0.5948  0.7636  0.2533
  292MOL0     C38422   5.147   0.938  10.722 -0.2492 -0.4261  0.8150
  292MOL0     C38423   5.156   0.788  10.709 -0.2067  0.3622  0.3239
  292MOL0     C38424   5.300   0.733  10.699 -0.2600 -0.3501 -0.2532
  292MOL0     C38425   5.299   0.581  10.659  0.7481 -0.4046  0.5915
  292MOL0     C38426   5.253   0.504  10.783  0.9066  0.6501  0.1001
  292MOL0     C38427   5.269   0.353  10.752  0.5081  0.6186 -0.0814
  292MOL0     C38428   5.140   0.303  10.695 -0.0941  0.0260  0.4457
  292MOL0     N38429   5.058   0.235  10.793  0.8896 -0.3687  0.6133
  292MOL0     C38430   4.981   0.283  10.891  0.4443  0.0555  0.1689
  292MOL0     C38431   4.938   0.183  10.974 -0.2118  0.8618 -0.0673
  292MOL0     C38432   4.855   0.180  11.104  0.5118 -0.1009 -0.5369
  292MOL0     C38433   4.844   0.310  11.184 -0.6486 -0.3965  0.9675
  292MOL0     C38434   4.949   0.339  11.293  0.3495 -0.6044 -0.7092
  292MOL0     C38435   4.921   0.467  11.374 -1.0441 -0.0880 -0.5470
  292MOL0     O38436   5.048   0.513  11.423  0.4427 -0.3408  0.3180
  292MOL0     C38437   5.019   0.577  11.540  0.7530  0.2745  1.0397
  292MOL0     C38438   5.022   0.498  11.652  0.3899 -1.0501 -1.3786
  292MOL0     C38439   4.988   0.553  11.780  0.8071  0.6483 -0.0157
  292MOL0     C38440   4.948   0.690  11.789 -0.2155 -0.6405  0.8850
  292MOL0     C38441   4.912   0.748  11.917  0.4574 -0.3478  0.0637
  292MOL0     O38442   4.892   0.667  12.023 -0.0515 -0.3715 -0.1164
  292MOL0     C38443   4.820   0.703  12.135  0.8607  1.1389 -0.3474
  292MOL0     C38444   4.708   0.785  12.135 -0.2297  0.8579 -0.7606
  292MOL0     C38445   4.638   0.824  12.253  0.6356  0.7164 -0.1451
  292MOL0     C38446   4.670   0.763  12.376 -0.5542  0.7306  0.8877
  292MOL0     O38447   4.598   0.793  12.484  0.7204 -0.9553 -0.0559
  292MOL0     C38448   4.555   0.678  12.565 -0.2216  0.0473  0.2886
  292MOL0     C38449   4.409   0.714  12.602  0.1399  0.3811 -0.0512
  292MOL0     C38450   4.397   0.842  12.679  1.5698  1.2179 -0.4308
  292MOL0     C38451   4.259   0.871  12.728  0.2421  0.1798 -0.4587
  292MOL0     C38452   4.246   0.984  12.825 -0.2647  0.2662 -0.7844
  292MOL0     C38453   4.106   1.000  12.894  0.1473 -0.0737 -0.9078
  292MOL0     C38454   3.987   1.045  12.802 -0.5015 -0.0162 -0.1442
  292MOL0     C38455   3.853   1.065  12.879  0.2525  0.4995  0.4151
  292MOL0    Cl38456   3.723   1.071  12.753  0.0712 -0.4181 -0.1698
  292MOL0     C38457   4.772   0.667  12.376  0.9935  0.2755 -0.6465
  292MOL0     C38458   4.851   0.649  12.263  0.2434 -0.5974  0.4978
  292MOL0     O38459   4.887   0.873  11.922  0.2780 -0.1271 -0.8209
  292MOL0     C38460   4.935   0.765  11.673  0.7499 -0.5338  0.2244
  292MOL0     C38461   4.966   0.710  11.545  0.8170  0.2308 -0.4638
  292MOL0     N38462   4.992   0.068  10.909  0.0131 -0.2540 -0.5849
  292MOL0     N38463   5.057   0.102  10.803 -0.1059  0.1129  0.0458
  292MOL0     C38464   5.126   1.242  10.997  0.8467  0.5000  0.3091
  292MOL0     C38465   5.222   1.337  11.029  0.8895  0.2663 -0.1174
  292MOL0     C38466   5.593   1.595  11.034  0.8267  0.6345 -0.2341
  292MOL0     C38467   5.604   1.674  10.912 -0.6128  0.1079 -0.1012
  292MOL0     C38468   5.687   1.789  10.905  0.8046 -0.4006 -0.4939
  292MOL0     C38469   5.756   1.824  11.020  0.1445 -0.8606  0.1282
  292MOL0     O38470   5.820   1.946  11.027 -0.5413 -0.7400 -0.1866
  292MOL0     C38471   5.954   1.944  11.073 -0.2000 -0.4696  0.0598
  292MOL0     C38472   6.028   2.070  11.034  0.1500  0.8860 -0.4822
  292MOL0     C38473   6.059   2.063  10.880  0.2951  0.6493  0.0732
  292MOL0     C38474   6.085   2.207  10.821  0.2759 -0.0134  0.0417
  292MOL0     C38475   5.955   2.273  10.796  1.3237 -0.6022  0.1479
  292MOL0     C38476   5.841   2.327  10.789 -0.4278 -0.1930  0.4313
  292MOL0     C38477   5.742   1.754  11.138  0.0927  0.7954  0.3043
  292MOL0     C38478   5.663   1.638  11.141  0.5250 -0.5767  0.1289
  292MOL0     H38479   5.334   1.397  10.715 -0.7921 -0.8743 -1.0350
  292MOL0     H38480   5.165   1.227  10.666  1.3591  0.8799 -0.6500
  292MOL0     H38481   4.969   0.912  10.823 -1.1574  1.9687 -1.4371
  292MOL0     H38482   5.090   0.952  10.943 -0.8819  4.3661  1.3157
  292MOL0     H38483   5.248   0.968  10.748  1.6738 -0.9626 -4.6246
  292MOL0     H38484   5.102   0.983  10.633  1.5047  0.7886  0.4984
  292MOL0     H38485   5.099   0.759  10.620  0.7457  0.3745 -0.3137
  292MOL0     H38486   5.120   0.743  10.802  0.8716 -0.6372  0.2921
  292MOL0     H38487   5.350   0.788  10.618 -0.1167 -3.0515 -2.1612
  292MOL0     H38488   5.368   0.745  10.784  0.6539 -0.6731 -0.9201
  292MOL0     H38489   5.402   0.553  10.635  1.7463  1.5957  2.2776
  292MOL0     H38490   5.234   0.572  10.570  1.0596  1.6758  0.1131
  292MOL0     H38491   5.146   0.521  10.803  0.0956 -4.1202  0.8753
  292MOL0     H38492   5.306   0.520  10.877  1.6194 -1.4569  0.0976
  292MOL0     H38493   5.345   0.327  10.678 -0.8639 -0.7518 -1.0814
  292MOL0     H38494   5.299   0.295  10.840  2.5526  0.8825 -0.5584
  292MOL0     H38495   5.161   0.226  10.619 -2.5290 -0.5781  0.3126
  292MOL0     H38496   5.077   0.384  10.659 -2.9175 -1.7063  1.1875
  292MOL0     H38497   4.952   0.387  10.907  1.1265  0.2105  0.4341
  292MOL0     H38498   4.908   0.114  11.173 -1.7462 -0.8810  0.5542
  292MOL0     H38499   4.758   0.133  11.087  1.0858 -1.7462  0.4965
  292MOL0     H38500   4.744   0.309  11.229 -1.1060  1.0594  0.0501
  292MOL0     H38501   4.833   0.396  11.117  0.5065  1.7160  3.2941
  292MOL0     H38502   4.955   0.262  11.371  0.7678  0.6640  0.5722
  292MOL0     H38503   5.051   0.349  11.253  1.6807  0.7352  2.5396
  292MOL0     H38504   4.856   0.438  11.457 -0.8291 -0.8327 -0.6355
  292MOL0     H38505   4.876   0.539  11.305 -1.4065  1.6465  1.3822
  292MOL0     H38506   5.053   0.396  11.631 -3.2437 -3.1689  2.1001
  292MOL0     H38507   5.002   0.490  11.867 -2.1014 -2.5204 -1.5786
  292MOL0     H38508   4.655   0.826  12.050  3.2774  1.5699 -2.8321
  292MOL0     H38509   4.551   0.888  12.251  0.2393  0.3138  2.0020
  292MOL0     H38510   4.608   0.657  12.659  0.7464  0.0253 -0.2414
  292MOL0     H38511   4.565   0.584  12.511  2.2485  1.8517 -2.7437
  292MOL0     H38512   4.368   0.627  12.654  1.9103 -0.5478 -0.1330
  292MOL0     H38513   4.349   0.727  12.512 -2.0825  0.2693  1.3336
  292MOL0     H38514   4.432   0.930  12.624 -1.4829  1.3702 -2.3931
  292MOL0     H38515   4.463   0.818  12.763  2.7102  1.2381 -1.2947
  292MOL0     H38516   4.188   0.888  12.647 -1.0136  1.9487  0.9293
  292MOL0     H38517   4.214   0.781  12.773 -0.8310 -0.4647 -2.6944
  292MOL0     H38518   4.263   1.081  12.777 -0.1599  0.4098 -0.4597
  292MOL0     H38519   4.324   0.980  12.901 -1.5890 -0.5755  0.5719
  292MOL0     H38520   4.129   1.068  12.976 -0.1425 -0.3614 -0.5838
  292MOL0     H38521   4.069   0.906  12.936  0.5478  1.2176  2.7489
  292MOL0     H38522   4.009   1.138  12.749  0.2699 -0.3672 -0.4712
  292MOL0     H38523   3.977   0.975  12.719  0.2385 -0.3099  0.0063
  292MOL0     H38524   3.865   1.152  12.943  0.6719 -0.4598  1.6920
  292MOL0     H38525   3.852   0.980  12.948  2.8881 -0.4283 -0.5675
  292MOL0     H38526   4.795   0.616  12.469  1.0916  2.4201  0.5772
  292MOL0     H38527   4.945   0.598  12.274  0.6630  0.6608  3.6782
  292MOL0     H38528   4.902   0.868  11.675  0.8192 -0.5018 -0.2441
  292MOL0     H38529   4.959   0.764  11.452  1.2859 -1.3118 -1.4248
  292MOL0     H38530   5.070   1.197  11.079  1.8685  1.6606  1.6794
  292MOL0     H38531   5.234   1.352  11.136  1.5942  1.1380 -0.3074
  292MOL0     H38532   5.563   1.641  10.817 -0.8024 -3.5651  1.1085
  292MOL0     H38533   5.696   1.849  10.814 -4.6375  0.3549 -0.8801
  292MOL0     H38534   6.015   1.859  11.041  1.3190  0.9463 -0.9054
  292MOL0     H38535   5.953   1.938  11.183 -2.3970  1.6926  0.2425
  292MOL0     H38536   5.970   2.162  11.045  0.1176  0.9566 -1.1541
  292MOL0     H38537   6.118   2.085  11.094 -1.3843  0.4538  2.0345
  292MOL0     H38538   5.978   2.010  10.831 -0.4187 -0.0356  1.8861
  292MOL0     H38539   6.153   2.011  10.860 -1.0190 -1.5096 -0.8123
  292MOL0     H38540   6.137   2.268  10.896 -1.0238  1.9433 -0.5622
  292MOL0     H38541   6.152   2.203  10.734 -2.8418 -1.3191 -2.5459
  292MOL0     H38542   5.753   2.387  10.782 -0.3767  0.5062  4.0332
  292MOL0     H38543   5.789   1.793  11.228  2.7414 -2.9394  0.7637
  292MOL0     H38544   5.657   1.594  11.240  1.1479  0.1126  0.4900
  293MOL0     O38545   1.711   5.189   5.101 -0.1646  0.5688  0.4579
  293MOL0     C38546   1.768   5.226   5.209  0.1087 -1.2561 -0.6319
  293MOL0     O38547   1.707   5.311   5.295 -0.0862 -0.0092 -0.2096
  293MOL0     C38548   1.582   5.345   5.271 -0.6351  0.3474 -0.0688
  293MOL0     C38549   1.555   5.485   5.262 -0.1566 -0.9257  0.9906
  293MOL0     C38550   1.431   5.535   5.224 -0.0448 -0.0887 -0.6422
  293MOL0     C38551   1.333   5.452   5.184  0.3572 -0.2149 -0.1889
  293MOL0     O38552   1.219   5.487   5.124 -0.0474  1.1081 -0.6322
  293MOL0     C38553   1.203   5.627   5.079 -0.2161  0.1155 -0.4308
  293MOL0     C38554   1.085   5.639   4.981  0.2699  0.2998 -0.0932
  293MOL0     C38555   1.066   5.788   4.955 -0.0454 -0.9356 -0.4392
  293MOL0     C38556   0.948   5.819   4.858  0.8228  0.3549 -0.3317
  293MOL0     C38557   0.953   5.970   4.812 -0.5892  0.0600  0.7796
  293MOL0     C38558   0.987   5.992   4.667  0.3227  0.1626 -0.2239
  293MOL0     C38559   1.106   5.918   4.615 -0.5941 -0.2733  0.1873
  293MOL0     C38560   1.220   6.007   4.589 -0.0436 -0.2224  0.5118
  293MOL0     N38561   1.263   6.068   4.709  0.0586 -0.0276 -0.0397
  293MOL0     C38562   1.254   6.204   4.743 -0.3355  0.5346  0.4278
  293MOL0     C38563   1.302   6.218   4.871  0.1017  0.0102 -0.6430
  293MOL0     C38564   1.326   6.345   4.940  0.2022 -0.2605  0.4271
  293MOL0     C38565   1.200   6.428   4.955  0.1015  0.2043 -0.6161
  293MOL0     C38566   1.109   6.365   5.064 -0.0234  0.2218 -0.3148
  293MOL0     C38567   1.018   6.466   5.144  0.2346 -0.1918  0.0552
  293MOL0     O38568   1.114   6.552   5.207  0.1618  0.6010  0.6227
  293MOL0     C38569   1.055   6.622   5.308  0.2480 -1.0962 -0.2452
  293MOL0     C38570   1.031   6.762   5.290 -0.3019 -0.7909 -0.4180
  293MOL0     C38571   0.967   6.844   5.382  0.0082  0.1688 -0.1353
  293MOL0     C38572   0.944   6.793   5.513 -0.4014  0.0563  0.4596
  293MOL0     C38573   0.880   6.876   5.611 -0.5349 -0.7413 -0.1762
  293MOL0     O38574   0.832   6.813   5.723 -0.4855 -0.1009 -0.0767
  293MOL0     C38575   0.756   6.900   5.802  0.9078  1.0065  0.7057
  293MOL0     C38576   0.640   6.977   5.759 -1.0520  0.0802  0.1985
  293MOL0     C38577   0.597   7.085   5.827 -0.0343  0.7404  0.3177
  293MOL0     C38578   0.643   7.104   5.960  0.3391 -0.2871  0.4585
  293MOL0     O38579   0.579   7.198   6.035 -0.1285 -0.4480  0.8190
  293MOL0     C38580   0.444   7.169   6.046  0.1704 -0.1144 -1.1139
  293MOL0     C38581   0.408   7.133   6.197  0.6444 -0.1047  0.5969
  293MOL0     C38582   0.443   7.246   6.291 -0.1323 -0.3193 -0.7141
  293MOL0     C38583   0.359   7.211   6.417 -0.6653  0.3819 -1.5321
  293MOL0     C38584   0.393   7.321   6.521  0.5635  0.1243 -0.7019
  293MOL0     C38585   0.330   7.262   6.655 -0.1776 -0.7327  0.8381
  293MOL0     C38586   0.358   7.357   6.763 -0.6847 -0.0468  0.4672
  293MOL0     C38587   0.268   7.334   6.884 -0.0547 -0.0742 -0.0804
  293MOL0    Cl38588   0.096   7.397   6.862  0.3480 -0.0638  0.0753
  293MOL0     C38589   0.740   7.009   6.010  0.1744 -0.6442 -1.0285
  293MOL0     C38590   0.803   6.915   5.931  0.2579 -0.1319 -0.0097
  293MOL0     O38591   0.876   6.994   5.578  0.6003  0.2457 -0.6069
  293MOL0     C38592   0.963   6.660   5.530 -0.2044 -0.4707 -0.9777
  293MOL0     C38593   1.008   6.574   5.428 -0.2768 -0.7501  0.0744
  293MOL0     N38594   1.364   6.096   4.909  0.5955  0.2959  0.2042
  293MOL0     N38595   1.322   6.012   4.822  0.0859  0.7545  0.0752
  293MOL0     C38596   1.349   5.310   5.202  0.6112  0.4737 -0.6214
  293MOL0     C38597   1.475   5.256   5.241  0.6133 -0.0905  0.9038
  293MOL0     C38598   1.906   5.193   5.241 -0.1714 -0.6813  0.4150
  293MOL0     C38599   1.978   5.092   5.167 -0.6573  1.0698  0.0449
  293MOL0     C38600   2.114   5.064   5.196  0.6555  0.2778 -0.2151
  293MOL0     C38601   2.182   5.131   5.304 -0.1328 -0.7052  0.1858
  293MOL0     O38602   2.310   5.077   5.336  0.1763 -0.4742  0.2929
  293MOL0     C38603   2.388   5.143   5.438 -0.4033 -0.5321  0.0861
  293MOL0     C38604   2.538   5.121   5.413 -0.6971 -0.6401  0.9603
  293MOL0     C38605   2.573   5.168   5.268  0.8073 -0.6739 -0.2039
  293MOL0     C38606   2.720   5.196   5.249  0.0668 -0.0193  0.3993
  293MOL0     C38607   2.769   5.272   5.366 -0.1371  0.1210  0.4450
  293MOL0     C38608   2.812   5.355   5.446 -0.4530  0.3197  0.1430
  293MOL0     C38609   2.118   5.238   5.366 -0.2555  0.9172  0.1735
  293MOL0     C38610   1.983   5.268   5.340 -0.7349  1.2082 -0.4132
  293MOL0     H38611   1.630   5.558   5.290  1.0983 -1.7131 -0.1886
  293MOL0     H38612   1.413   5.642   5.234  1.6868  0.2784 -1.1151
  293MOL0     H38613   1.295   5.666   5.034 -1.2742  1.5146 -1.4586
  293MOL0     H38614   1.177   5.682   5.170 -2.6651 -0.2349 -0.8546
  293MOL0     H38615   0.999   5.606   5.039 -1.4022  2.0104 -1.4738
  293MOL0     H38616   1.101   5.580   4.891  1.1340  0.3625  0.0063
  293MOL0     H38617   1.160   5.823   4.913 -0.3425 -2.2653 -2.3093
  293MOL0     H38618   1.053   5.842   5.049  0.5449  1.2154 -1.5416
  293MOL0     H38619   0.960   5.748   4.775 -2.1324 -2.0219  1.0955
  293MOL0     H38620   0.855   5.795   4.908  2.0062 -2.2925  0.7559
  293MOL0     H38621   1.030   6.010   4.877 -0.8909  0.3380  0.9663
  293MOL0     H38622   0.851   6.010   4.820 -0.4499  2.3122 -4.3333
  293MOL0     H38623   0.995   6.100   4.653 -2.2924  0.3136 -1.1646
  293MOL0     H38624   0.900   5.972   4.603 -2.0860  3.6075  1.6381
  293MOL0     H38625   1.136   5.850   4.696 -1.3845  0.8311  1.4622
  293MOL0     H38626   1.087   5.860   4.525  3.4197  0.1466 -1.1377
  293MOL0     H38627   1.207   6.079   4.507  0.0070 -0.0107  0.6896
  293MOL0     H38628   1.293   5.939   4.544 -0.1477 -0.1586  0.2448
  293MOL0     H38629   1.205   6.284   4.688  1.0543  1.5870  0.6755
  293MOL0     H38630   1.400   6.400   4.881 -0.1313 -0.0044  0.2450
  293MOL0     H38631   1.369   6.324   5.038 -2.2693 -0.7790  1.4986
  293MOL0     H38632   1.145   6.428   4.861 -2.3522 -2.1240  0.6877
  293MOL0     H38633   1.215   6.533   4.983 -4.5722  0.2601  2.8365
  293MOL0     H38634   1.047   6.285   5.024  1.7735 -2.8550  2.5515
  293MOL0     H38635   1.175   6.316   5.137  1.2036 -0.4221 -1.8071
  293MOL0     H38636   0.965   6.407   5.219  1.1017  0.0258  0.8624
  293MOL0     H38637   0.946   6.519   5.081  2.7319 -0.6918 -3.5470
  293MOL0     H38638   1.055   6.799   5.191 -1.4365 -1.5314 -0.9954
  293MOL0     H38639   0.955   6.941   5.336  2.3130 -0.1296 -1.4960
  293MOL0     H38640   0.586   6.959   5.667 -2.1415 -1.1116  1.0291
  293MOL0     H38641   0.513   7.144   5.792 -1.4702 -0.4079  1.6565
  293MOL0     H38642   0.407   7.094   5.974  2.6035  1.0196 -3.7360
  293MOL0     H38643   0.381   7.257   6.030 -3.2918 -1.6127  2.5671
  293MOL0     H38644   0.471   7.045   6.214  0.9166 -1.2574 -4.6818
  293MOL0     H38645   0.301   7.112   6.202  0.4868  0.7395  0.8281
  293MOL0     H38646   0.411   7.343   6.252 -1.4226 -1.7700 -3.5739
  293MOL0     H38647   0.551   7.251   6.307 -0.0449 -0.1414 -1.3350
  293MOL0     H38648   0.252   7.201   6.396 -0.6619  0.6544 -1.6800
  293MOL0     H38649   0.388   7.108   6.441 -0.3217  0.1070 -2.9939
  293MOL0     H38650   0.337   7.411   6.492 -2.6314 -2.2729 -2.7678
  293MOL0     H38651   0.501   7.337   6.524  0.1275  3.9487  3.4524
  293MOL0     H38652   0.378   7.164   6.661  0.8502 -0.2636  0.4369
  293MOL0     H38653   0.221   7.256   6.641 -0.4938  0.5807  2.4610
  293MOL0     H38654   0.463   7.340   6.791 -0.3668 -0.3835 -0.8481
  293MOL0     H38655   0.347   7.460   6.729 -0.2720  0.3806  1.5775
  293MOL0     H38656   0.312   7.404   6.955 -0.6155 -2.1972  2.5248
  293MOL0     H38657   0.266   7.235   6.931  0.0813  0.0002  0.0799
  293MOL0     H38658   0.757   7.028   6.116 -0.6620  0.5279 -1.0786
  293MOL0     H38659   0.881   6.855   5.977 -1.9614 -1.9857  1.6414
  293MOL0     H38660   0.957   6.616   5.629  0.6889  0.4260 -0.5032
  293MOL0     H38661   1.029   6.469   5.451 -0.2767 -0.8653 -0.4524
  293MOL0     H38662   1.268   5.245   5.171  0.1901  1.1196 -0.8908
  293MOL0     H38663   1.505   5.152   5.233 -0.7463 -0.3943 -0.6853
  293MOL0     H38664   1.934   5.025   5.093 -1.2921 -3.6992  4.1984
  293MOL0     H38665   2.155   4.993   5.125 -0.7876 -2.5309  1.5717
  293MOL0     H38666   2.374   5.122   5.544 -1.1406 -0.2524  0.0519
  293MOL0     H38667   2.370   5.250   5.437 -2.6240 -0.8478 -1.3558
  293MOL0     H38668   2.587   5.178   5.493 -0.0329 -0.4369  0.4218
  293MOL0     H38669   2.565   5.017   5.433  0.7464  0.1549  3.6175
  293MOL0     H38670   2.526   5.266   5.258 -3.1884 -2.0644  2.4756
  293MOL0     H38671   2.524   5.108   5.191  0.3585 -2.0679  1.1148
  293MOL0     H38672   2.763   5.095   5.244 -0.5579 -0.4074  2.0716
  293MOL0     H38673   2.746   5.250   5.158 -0.0617  1.3079  1.1339
  293MOL0     H38674   2.849   5.419   5.524 -0.5101 -0.2673  0.6559
  293MOL0     H38675   2.169   5.302   5.438 -1.6480  2.6004 -0.2857
  293MOL0     H38676   1.937   5.357   5.381  0.8045  1.6275  0.4880
  294MOL0     O38677   0.685  10.538   3.817 -0.0986 -0.4367  0.0753
  294MOL0     C38678   0.633  10.474   3.724  1.2769 -0.5827  0.2719
  294MOL0     O38679   0.625  10.345   3.717  1.2036  0.4024  0.9123
  294MOL0     C38680   0.650  10.257   3.818  0.7072  0.3713  0.2896
  294MOL0     C38681   0.701  10.133   3.789 -0.1148 -0.1570  0.7244
  294MOL0     C38682   0.728  10.046   3.892  0.4736 -0.0091  0.7545
  294MOL0     C38683   0.699  10.075   4.021 -0.5052  0.6663 -0.5590
  294MOL0     O38684   0.725   9.981   4.116  0.6303 -0.2403 -0.8799
  294MOL0     C38685   0.801   9.859   4.105 -0.2836  0.9116  0.0158
  294MOL0     C38686   0.867   9.840   4.242  0.3346  0.3528  0.1327
  294MOL0     C38687   0.994   9.778   4.262 -0.4487  0.9084  0.3703
  294MOL0     C38688   1.008   9.631   4.218 -0.5985  0.2277 -0.0382
  294MOL0     C38689   1.140   9.570   4.275  1.0121 -0.2140 -0.1979
  294MOL0     C38690   1.259   9.617   4.198  0.7165 -0.0459  0.3455
  294MOL0     C38691   1.396   9.557   4.243 -0.4411  0.0262 -0.5460
  294MOL0     C38692   1.411   9.415   4.178  0.3862  0.0510 -0.5840
  294MOL0     N38693   1.550   9.361   4.196  0.4859  0.2493 -0.2359
  294MOL0     C38694   1.598   9.296   4.315 -0.5649  0.1002  0.2922
  294MOL0     C38695   1.734   9.278   4.283  0.0713 -0.6711  0.7619
  294MOL0     C38696   1.840   9.226   4.370  0.5620 -1.2840  0.6794
  294MOL0     C38697   1.824   9.248   4.515 -0.4440  0.2224  0.2431
  294MOL0     C38698   1.840   9.397   4.546 -0.3352 -0.8480 -0.4266
  294MOL0     C38699   1.817   9.420   4.691  0.0258  0.0407 -0.3393
  294MOL0     O38700   1.703   9.338   4.744 -0.6793 -0.5468 -0.2861
  294MOL0     C38701   1.603   9.419   4.796  0.0335 -0.3824  0.3936
  294MOL0     C38702   1.495   9.462   4.716  0.2192 -0.0422  0.0432
  294MOL0     C38703   1.398   9.544   4.770  0.5737 -0.1830  0.8132
  294MOL0     C38704   1.404   9.589   4.902 -0.0087  0.3675 -0.2265
  294MOL0     C38705   1.300   9.669   4.973  1.0248 -0.4970 -0.1269
  294MOL0     O38706   1.313   9.696   5.110  0.4051 -0.7106 -0.4555
  294MOL0     C38707   1.210   9.728   5.192  0.0536 -0.5086 -0.2372
  294MOL0     C38708   1.070   9.721   5.159 -0.7808 -0.3449 -0.2342
  294MOL0     C38709   0.976   9.765   5.252 -0.8690 -0.0492  0.2640
  294MOL0     C38710   1.009   9.813   5.378 -0.1283 -0.0453  0.3570
  294MOL0     O38711   0.901   9.854   5.455  0.0431 -0.5199  0.7494
  294MOL0     C38712   0.930   9.980   5.514 -0.2846  0.3508  0.2336
  294MOL0     C38713   0.799  10.054   5.563  0.9288 -0.5199  0.9118
  294MOL0     C38714   0.730  10.146   5.451  0.1367  0.0497  0.6243
  294MOL0     C38715   0.701  10.065   5.326  0.3564 -0.7543 -0.3320
  294MOL0     C38716   0.627  10.149   5.226  0.2906  0.3749 -0.1311
  294MOL0     C38717   0.697  10.264   5.153  0.5009  0.9485  0.2513
  294MOL0     C38718   0.839  10.219   5.086  0.2418  0.1666 -0.8584
  294MOL0     C38719   0.824  10.127   4.970  0.8286 -0.1381  0.3734
  294MOL0    Cl38720   0.975  10.118   4.878 -0.0148 -0.0613  0.0312
  294MOL0     C38721   1.146   9.821   5.412 -0.7153 -0.8636  0.6214
  294MOL0     C38722   1.244   9.777   5.316 -0.4143  0.3818  0.3251
  294MOL0     O38723   1.218   9.729   4.897 -0.8900  0.4248 -0.7776
  294MOL0     C38724   1.500   9.533   4.988  0.2573 -0.6093  0.2822
  294MOL0     C38725   1.607   9.455   4.931 -0.6991 -0.9994 -0.0540
  294MOL0     N38726   1.756   9.350   4.165 -0.2751  0.2567  0.5365
  294MOL0     N38727   1.650   9.396   4.116 -0.3924 -0.4573 -0.7950
  294MOL0     C38728   0.631  10.192   4.056  0.0326  0.1949 -0.6131
  294MOL0     C38729   0.618  10.292   3.956  0.2906  0.1711 -0.2971
  294MOL0     C38730   0.556  10.551   3.622  0.6588  0.5566 -0.1703
  294MOL0     C38731   0.587  10.690   3.606  0.2857 -0.0049  0.5371
  294MOL0     C38732   0.537  10.762   3.502 -0.1876  0.3710  1.3328
  294MOL0     C38733   0.442  10.703   3.408  0.3048  1.1960  0.9704
  294MOL0     O38734   0.389  10.789   3.311 -0.5418  1.1017  0.3620
  294MOL0     C38735   0.287  10.734   3.219  0.5927 -0.0191  0.1556
  294MOL0     C38736   0.158  10.736   3.301 -0.4987 -0.7455 -0.2622
  294MOL0     C38737   0.120  10.872   3.363 -0.5120 -0.1993  0.5225
  294MOL0     C38738  -0.020  10.880   3.423 -1.0166 -0.0735 -0.1872
  294MOL0     C38739  -0.127  10.911   3.325 -0.9046  0.3536  0.5720
  294MOL0     C38740  -0.193  10.925   3.223  0.7454 -0.0051 -0.5689
  294MOL0     C38741   0.410  10.571   3.426  0.0790  0.2694 -0.1537
  294MOL0     C38742   0.465  10.502   3.534 -0.2319  0.7622  0.5588
  294MOL0     H38743   0.733  10.117   3.687 -1.7902  2.5305 -0.3435
  294MOL0     H38744   0.770   9.951   3.861  0.7483  1.0560 -2.5378
  294MOL0     H38745   0.887   9.864   4.037 -1.7580 -1.4789 -2.1969
  294MOL0     H38746   0.753   9.770   4.065  0.0239  1.2516 -1.1747
  294MOL0     H38747   0.795   9.794   4.310 -0.8516  2.3865  0.3657
  294MOL0     H38748   0.874   9.938   4.291 -1.2753 -0.0619  1.2510
  294MOL0     H38749   1.022   9.782   4.367 -0.7475 -3.2667  0.7731
  294MOL0     H38750   1.069   9.830   4.202 -1.5378  2.3269  0.1929
  294MOL0     H38751   0.930   9.578   4.273 -0.0871 -0.4230  0.0817
  294MOL0     H38752   1.012   9.622   4.109  3.6732  0.7352 -0.0932
  294MOL0     H38753   1.141   9.461   4.266 -0.9396 -0.5829  2.6560
  294MOL0     H38754   1.156   9.595   4.380  1.7673  0.4901 -0.4714
  294MOL0     H38755   1.252   9.725   4.216  0.8802  0.7423 -3.5122
  294MOL0     H38756   1.231   9.591   4.096 -2.2093  3.9615 -0.1239
  294MOL0     H38757   1.482   9.619   4.215 -2.5365  3.6783  0.4091
  294MOL0     H38758   1.407   9.551   4.352  1.8258  0.3377 -0.7091
  294MOL0     H38759   1.383   9.419   4.073 -1.9839  2.4719  0.0251
  294MOL0     H38760   1.348   9.345   4.234 -0.8136  0.2290 -1.6846
  294MOL0     H38761   1.550   9.276   4.410 -0.1491 -0.2348  0.4325
  294MOL0     H38762   1.933   9.277   4.343  1.1624 -1.4570  2.3081
  294MOL0     H38763   1.867   9.121   4.358  1.4371 -0.7354 -4.3163
  294MOL0     H38764   1.900   9.185   4.563  0.2042 -3.2003 -4.5513
  294MOL0     H38765   1.727   9.213   4.552 -0.6860 -0.9914 -1.4025
  294MOL0     H38766   1.944   9.429   4.536 -0.4519  0.1623  1.3392
  294MOL0     H38767   1.787   9.471   4.485 -1.0271 -0.6008  0.4526
  294MOL0     H38768   1.796   9.525   4.712  0.2301 -0.3674  2.2710
  294MOL0     H38769   1.907   9.384   4.742  0.3295 -0.2042 -1.0420
  294MOL0     H38770   1.479   9.421   4.616 -0.2881 -1.9957  0.8611
  294MOL0     H38771   1.322   9.574   4.698  0.0568 -1.0327  0.9827
  294MOL0     H38772   1.032   9.701   5.059  1.0474  1.4552 -1.3699
  294MOL0     H38773   0.874   9.753   5.217  0.1102 -2.3896 -2.1698
  294MOL0     H38774   0.979  10.052   5.448  2.1830 -1.3992  0.0620
  294MOL0     H38775   0.989   9.954   5.601 -2.1620  1.4821  1.9363
  294MOL0     H38776   0.830  10.113   5.649 -1.7866 -0.3612  1.8880
  294MOL0     H38777   0.719   9.987   5.596  0.6738 -0.7000 -0.0358
  294MOL0     H38778   0.789  10.234   5.424 -2.8991  1.9303 -0.3430
  294MOL0     H38779   0.640  10.198   5.485 -0.1108  1.3211 -1.7548
  294MOL0     H38780   0.796  10.043   5.275  1.3230  2.1144  0.0713
  294MOL0     H38781   0.644   9.978   5.359 -3.2127  1.6558  0.3322
  294MOL0     H38782   0.542  10.194   5.279  0.3747  1.3255 -0.7886
  294MOL0     H38783   0.592  10.083   5.147  0.2294  0.4728 -0.1864
  294MOL0     H38784   0.716  10.342   5.228 -2.0762  0.7023  1.2461
  294MOL0     H38785   0.629  10.298   5.074 -1.9826 -0.3037  1.7434
  294MOL0     H38786   0.903  10.306   5.069  1.1933  0.7340  4.0473
  294MOL0     H38787   0.894  10.174   5.170  0.2959 -1.0902 -1.5472
  294MOL0     H38788   0.736  10.148   4.908  0.7425  1.1819  0.9201
  294MOL0     H38789   0.804  10.023   4.998 -0.9668  0.2959  0.7964
  294MOL0     H38790   1.180   9.875   5.500 -2.0063 -1.8098  1.7461
  294MOL0     H38791   1.349   9.799   5.333  0.2096 -1.0157 -1.4018
  294MOL0     H38792   1.503   9.561   5.093 -3.5754 -1.0368  0.6289
  294MOL0     H38793   1.694   9.409   4.976 -0.1226 -1.3479 -1.4630
  294MOL0     H38794   0.600  10.213   4.158  0.9757  1.6115 -0.5860
  294MOL0     H38795   0.571  10.388   3.974 -0.2744  0.2671 -2.1297
  294MOL0     H38796   0.649  10.740   3.679  3.0141 -1.0905 -0.9144
  294MOL0     H38797   0.567  10.865   3.491  2.2100 -0.4197 -0.4330
  294MOL0     H38798   0.298  10.630   3.185 -3.0115 -1.5493  2.9268
  294MOL0     H38799   0.285  10.804   3.135  0.3777  2.7494  2.3195
  294MOL0     H38800   0.079  10.708   3.231 -1.1726  2.8056 -1.0702
  294MOL0     H38801   0.172  10.663   3.383  0.8663  0.4018  0.5724
  294MOL0     H38802   0.137  10.946   3.284  0.6243  1.1237  1.9541
  294MOL0     H38803   0.199  10.878   3.438  0.1268 -0.3096 -0.1234
  294MOL0     H38804  -0.046  10.789   3.478 -0.6570  0.1146  0.3093
  294MOL0     H38805  -0.023  10.961   3.497  2.9614 -0.8458  1.0843
  294MOL0     H38806  -0.257  10.944   3.139  1.0559 -1.5949 -1.2043
  294MOL0     H38807   0.346  10.524   3.352  1.6793 -0.7101 -0.9555
  294MOL0     H38808   0.436  10.397   3.538 -2.5325  1.3111  0.0543
  295MOL0     O38809   9.903   2.750   7.225  0.4641 -0.0786  0.5876
  295MOL0     C38810   9.896   2.868   7.176 -0.4245 -0.4225 -0.6252
  295MOL0     O38811  10.000   2.946   7.128 -0.2007  0.1979  0.1038
  295MOL0     C38812  10.122   2.887   7.137 -0.0709  0.1599 -0.8534
  295MOL0     C38813  10.182   2.886   7.261  0.3802  0.4944 -0.2710
  295MOL0     C38814  10.318   2.855   7.269 -0.7795  1.2986  0.0797
  295MOL0     C38815  10.384   2.804   7.161  1.0705 -0.4395 -0.0208
  295MOL0     O38816  10.515   2.784   7.183 -0.3371  0.3964 -0.7433
  295MOL0     C38817  10.596   2.906   7.176 -0.4406  0.2021 -0.9218
  295MOL0     C38818  10.714   2.862   7.094 -0.2037 -0.0577  0.2288
  295MOL0     C38819  10.798   2.988   7.104 -0.5593 -0.3311 -0.0757
  295MOL0     C38820  10.918   2.966   7.003  0.7628  1.0236 -0.2649
  295MOL0     C38821  11.001   3.100   6.975 -0.3505  0.3726 -0.2407
  295MOL0     C38822  11.061   3.078   6.831 -0.4273 -0.7668  0.5126
  295MOL0     C38823  10.957   3.087   6.718  0.7668  0.2132  0.8622
  295MOL0     C38824  11.015   3.099   6.571 -0.6368  0.5785  0.9444
  295MOL0     N38825  11.107   2.992   6.527 -0.5515 -0.4081 -0.0347
  295MOL0     C38826  11.244   2.995   6.543  0.2475 -0.4459 -0.0752
  295MOL0     C38827  11.290   2.888   6.477 -0.1360 -0.4085 -0.1741
  295MOL0     C38828  11.433   2.846   6.453 -0.7206 -0.2959 -0.3151
  295MOL0     C38829  11.481   2.918   6.320  0.4566  0.4305 -0.5299
  295MOL0     C38830  11.429   2.837   6.202  0.1253 -0.0220  0.5112
  295MOL0     C38831  11.480   2.898   6.070 -0.0392  0.4857  0.9282
  295MOL0     O38832  11.471   2.808   5.958 -0.0905  0.0579 -0.3911
  295MOL0     C38833  11.554   2.816   5.848 -0.1177  0.7361  0.5199
  295MOL0     C38834  11.670   2.895   5.836  0.1575  0.1230  0.6660
  295MOL0     C38835  11.740   2.887   5.715 -0.2752  0.4083 -0.0292
  295MOL0     C38836  11.694   2.820   5.599  0.2890  0.0759  0.0743
  295MOL0     C38837  11.764   2.842   5.475 -0.2471  0.7711 -0.8300
  295MOL0     O38838  11.849   2.951   5.478 -0.0490  0.2173 -0.3706
  295MOL0     C38839  11.895   3.001   5.358  0.5800 -0.1878  0.0246
  295MOL0     C38840  11.827   3.003   5.233  0.7690  0.7407 -0.2775
  295MOL0     C38841  11.885   3.060   5.121 -0.5490 -0.4335 -0.1562
  295MOL0     C38842  12.012   3.126   5.131  0.4979 -0.5519 -0.5810
  295MOL0     O38843  12.063   3.192   5.017  0.2055 -0.3693  0.2898
  295MOL0     C38844  12.155   3.304   5.043 -0.1522  0.9498 -0.4496
  295MOL0     C38845  12.204   3.363   4.905  0.9347  0.7171 -0.4749
  295MOL0     C38846  12.326   3.452   4.929  0.2010  0.6376  0.2389
  295MOL0     C38847  12.357   3.524   4.799  0.0391  0.1486 -0.4336
  295MOL0     C38848  12.423   3.435   4.693 -0.1364 -0.3418 -0.1619
  295MOL0     C38849  12.424   3.491   4.544 -0.0840 -0.1891 -0.7892
  295MOL0     C38850  12.288   3.536   4.494  0.7695 -0.0726 -0.1631
  295MOL0     C38851  12.300   3.570   4.343 -0.2874  0.4822 -0.2780
  295MOL0    Cl38852  12.352   3.738   4.333  0.1236 -0.1455  0.3161
  295MOL0     C38853  12.066   3.139   5.259 -0.1736 -0.2695  0.2194
  295MOL0     C38854  12.009   3.077   5.374  0.0300 -0.0024  0.8922
  295MOL0     O38855  11.726   2.778   5.376 -0.2920  0.1317 -0.0989
  295MOL0     C38856  11.576   2.741   5.617  0.1044  1.2012  0.3070
  295MOL0     C38857  11.509   2.738   5.740 -0.2113  0.0383  0.4667
  295MOL0     N38858  11.184   2.807   6.439  0.8938 -0.5728  0.4075
  295MOL0     N38859  11.075   2.876   6.456  0.3533 -1.1832 -0.7888
  295MOL0     C38860  10.319   2.795   7.035  0.1042 -0.0865  0.1981
  295MOL0     C38861  10.190   2.847   7.020  0.2660 -0.0913  0.0205
  295MOL0     C38862   9.761   2.934   7.183  0.0343 -0.5574  0.5646
  295MOL0     C38863   9.738   3.068   7.125 -0.4405  0.7269 -0.1190
  295MOL0     C38864   9.626   3.146   7.166  0.2251 -0.4174 -0.8571
  295MOL0     C38865   9.524   3.080   7.239 -0.1678 -0.4517  1.0516
  295MOL0     O38866   9.411   3.156   7.266  0.2910  0.7437 -0.2526
  295MOL0     C38867   9.372   3.163   7.398  0.4053 -0.1182 -0.7612
  295MOL0     C38868   9.219   3.141   7.402  0.7108  0.6308  0.7755
  295MOL0     C38869   9.129   3.260   7.349 -0.5845  0.5391 -0.7913
  295MOL0     C38870   9.117   3.376   7.458  0.6379 -0.1290 -0.8222
  295MOL0     C38871   9.041   3.490   7.396  0.3923 -0.2505  0.0454
  295MOL0     C38872   8.995   3.569   7.313 -0.3403  0.3836  0.1058
  295MOL0     C38873   9.534   2.940   7.280  0.6215 -0.8987 -0.5928
  295MOL0     C38874   9.651   2.879   7.257 -0.6713 -0.1111  0.2590
  295MOL0     H38875  10.134   2.906   7.356 -2.7948 -0.8382 -1.4642
  295MOL0     H38876  10.370   2.865   7.364  1.8657  1.8130 -1.3430
  295MOL0     H38877  10.627   2.940   7.275 -2.8149  1.8624 -0.6623
  295MOL0     H38878  10.535   2.989   7.138 -4.0405 -1.2446  1.1611
  295MOL0     H38879  10.682   2.839   6.992 -2.3597 -3.9981  1.5604
  295MOL0     H38880  10.768   2.773   7.128  0.1884  0.1326  0.1026
  295MOL0     H38881  10.847   2.993   7.202 -2.3803  2.2288  0.8315
  295MOL0     H38882  10.749   3.086   7.098  0.7394  0.3815  0.5652
  295MOL0     H38883  10.980   2.882   7.036  1.5697  0.9266 -1.9443
  295MOL0     H38884  10.863   2.938   6.913 -4.3195  1.9405  2.2228
  295MOL0     H38885  11.076   3.121   7.051 -1.3445 -2.2611  1.6308
  295MOL0     H38886  10.934   3.186   6.972 -2.1975 -0.9973  0.2906
  295MOL0     H38887  11.101   2.977   6.813 -1.3915 -0.9631 -0.6389
  295MOL0     H38888  11.128   3.163   6.820  0.2929 -1.6527 -3.2189
  295MOL0     H38889  10.884   3.006   6.706  0.1175  0.6889  1.4825
  295MOL0     H38890  10.892   3.172   6.740  2.1635  1.5881 -0.1177
  295MOL0     H38891  11.067   3.195   6.561  2.2654 -0.9726  0.0391
  295MOL0     H38892  10.935   3.100   6.496  2.7643  3.6628 -3.1626
  295MOL0     H38893  11.297   3.066   6.606 -2.1729  1.9859 -0.5531
  295MOL0     H38894  11.441   2.737   6.450  0.1978 -0.2283 -0.3596
  295MOL0     H38895  11.499   2.882   6.533 -0.2552 -2.3279  0.2678
  295MOL0     H38896  11.589   2.908   6.310  0.7800  3.0071 -0.1571
  295MOL0     H38897  11.454   3.024   6.315 -0.8207  0.0741 -2.0641
  295MOL0     H38898  11.475   2.738   6.212  0.9620  0.4679  1.9147
  295MOL0     H38899  11.321   2.836   6.187  0.1594  0.3371  0.2199
  295MOL0     H38900  11.587   2.920   6.081  0.0876  2.4249 -2.7593
  295MOL0     H38901  11.419   2.986   6.046 -2.7182 -1.3690  0.4273
  295MOL0     H38902  11.704   2.965   5.912  1.7058  2.9614 -2.3710
  295MOL0     H38903  11.832   2.944   5.711 -0.2214  0.3036 -0.3046
  295MOL0     H38904  11.729   2.956   5.228  0.8661  0.6072 -1.2619
  295MOL0     H38905  11.841   3.050   5.022 -0.0192 -2.9926 -0.2222
  295MOL0     H38906  12.247   3.275   5.095 -0.9556  0.8004  0.9391
  295MOL0     H38907  12.107   3.384   5.101  1.3457  1.2232  0.4726
  295MOL0     H38908  12.121   3.429   4.875 -1.0223 -1.1825  0.4447
  295MOL0     H38909  12.230   3.283   4.835  0.9658  0.5499 -0.2726
  295MOL0     H38910  12.407   3.388   4.966 -0.2911  0.1964  0.5700
  295MOL0     H38911  12.306   3.531   5.002 -0.0626  0.7491  0.0500
  295MOL0     H38912  12.273   3.588   4.771 -1.5744 -0.8753  1.8125
  295MOL0     H38913  12.438   3.596   4.817  0.4297 -0.5587  0.7164
  295MOL0     H38914  12.386   3.332   4.697  0.8751 -0.7477 -0.8252
  295MOL0     H38915  12.529   3.422   4.716  0.2050  2.4535  0.2770
  295MOL0     H38916  12.467   3.420   4.473 -1.4912  1.4961 -3.4756
  295MOL0     H38917  12.485   3.582   4.557  2.2132 -1.5329 -1.5239
  295MOL0     H38918  12.204   3.469   4.517  0.1011 -0.2825 -2.9134
  295MOL0     H38919  12.252   3.628   4.543  1.3358  1.6094 -2.7254
  295MOL0     H38920  12.204   3.562   4.292 -1.6108 -0.6483  2.2069
  295MOL0     H38921  12.366   3.506   4.284  0.1576 -0.1995  0.9181
  295MOL0     H38922  12.153   3.203   5.265 -0.4034  0.1395 -0.7378
  295MOL0     H38923  12.054   3.098   5.471  0.5544 -0.5235  0.7690
  295MOL0     H38924  11.537   2.674   5.541  2.4084 -1.7080  1.4682
  295MOL0     H38925  11.428   2.667   5.751  0.6484 -0.5852  3.9310
  295MOL0     H38926  10.381   2.754   6.957 -1.2055 -0.0154 -0.9043
  295MOL0     H38927  10.133   2.844   6.928 -0.2652 -0.9087  0.3633
  295MOL0     H38928   9.804   3.124   7.061 -0.5610  0.3514 -0.5794
  295MOL0     H38929   9.606   3.249   7.138 -3.5431 -0.6517  0.3233
  295MOL0     H38930   9.408   3.254   7.448  1.2906 -0.0893 -1.4318
  295MOL0     H38931   9.403   3.084   7.467 -3.2162 -0.5298  0.6659
  295MOL0     H38932   9.206   3.049   7.345 -0.6718 -0.3218  2.5351
  295MOL0     H38933   9.194   3.111   7.504 -2.3466  0.1156 -0.0191
  295MOL0     H38934   9.027   3.230   7.322  0.4661 -1.3239 -2.9644
  295MOL0     H38935   9.159   3.304   7.253 -0.2981  1.8772 -0.1201
  295MOL0     H38936   9.069   3.317   7.537 -1.6447 -0.0884 -2.0860
  295MOL0     H38937   9.215   3.412   7.489  1.5583 -2.6981 -0.4870
  295MOL0     H38938   8.967   3.653   7.253  3.8921  2.9865  1.2822
  295MOL0     H38939   9.450   2.896   7.332  0.9927  1.1483  2.0023
  295MOL0     H38940   9.657   2.778   7.296  0.7973  0.9629  3.0923
  296MOL0     O38941   3.804   7.050   8.109 -0.4630  0.9302  0.3455
  296MOL0     C38942   3.847   7.166   8.106  0.1839 -0.5709 -0.3535
  296MOL0     O38943   3.973   7.200   8.119 -0.1504  0.1079  0.3617
  296MOL0     C38944   4.065   7.119   8.195  0.8825 -0.4002 -0.0390
  296MOL0     C38945   4.203   7.149   8.167 -0.4058  0.7576  0.3315
  296MOL0     C38946   4.295   7.072   8.236  0.3008 -0.5331 -0.6317
  296MOL0     C38947   4.264   6.967   8.323  0.3099  0.2637 -0.0955
  296MOL0     O38948   4.368   6.895   8.380 -0.1852 -0.3016 -0.1125
  296MOL0     C38949   4.447   6.801   8.293 -0.7990 -0.3522 -0.2751
  296MOL0     C38950   4.527   6.703   8.388  0.5534  0.5963  0.0235
  296MOL0     C38951   4.439   6.604   8.462  0.5765  0.1751  0.6932
  296MOL0     C38952   4.537   6.486   8.511  0.3177 -0.0193 -0.9802
  296MOL0     C38953   4.464   6.363   8.579  0.1629  0.3200  0.1998
  296MOL0     C38954   4.558   6.284   8.674  0.5113 -0.9452  0.2925
  296MOL0     C38955   4.655   6.192   8.605  0.6977  0.4979 -0.1577
  296MOL0     C38956   4.728   6.088   8.690  0.3963 -0.4782  0.2908
  296MOL0     N38957   4.640   5.982   8.741  0.6484 -1.1001  1.0871
  296MOL0     C38958   4.595   5.868   8.679 -0.4809  0.2591 -0.1297
  296MOL0     C38959   4.560   5.787   8.787 -0.5037 -1.0912 -0.4565
  296MOL0     C38960   4.504   5.649   8.765 -0.2345 -1.0516 -0.6104
  296MOL0     C38961   4.607   5.571   8.683 -0.1161 -0.2437 -0.2444
  296MOL0     C38962   4.580   5.417   8.690  0.6305 -0.2418  0.2812
  296MOL0     C38963   4.643   5.349   8.566  0.4446  0.8888 -0.2114
  296MOL0     O38964   4.589   5.412   8.448 -0.7977  0.1782  0.0972
  296MOL0     C38965   4.612   5.341   8.331 -0.1171  0.4172  1.2813
  296MOL0     C38966   4.733   5.276   8.303  0.2541  0.2798 -0.0473
  296MOL0     C38967   4.756   5.230   8.167  0.8224  0.2792 -0.0988
  296MOL0     C38968   4.666   5.232   8.060  0.4658  0.4323 -0.6888
  296MOL0     C38969   4.694   5.176   7.929  0.7883 -0.3681  0.5708
  296MOL0     O38970   4.587   5.161   7.841  0.3249 -0.6766 -0.5345
  296MOL0     C38971   4.610   5.101   7.718 -0.0634  0.1268 -0.0485
  296MOL0     C38972   4.581   4.968   7.710  0.2911 -0.3925  0.0369
  296MOL0     C38973   4.593   4.905   7.585 -0.0786 -0.5194  0.3530
  296MOL0     C38974   4.648   4.972   7.473  0.4208  0.4878 -0.9055
  296MOL0     O38975   4.666   4.887   7.364  0.4607  0.0400  0.2478
  296MOL0     C38976   4.803   4.887   7.315 -0.4315  0.7584 -0.2156
  296MOL0     C38977   4.838   4.735   7.309 -0.1762  0.4779 -0.9761
  296MOL0     C38978   4.843   4.663   7.440  0.1874 -0.0374  0.1729
  296MOL0     C38979   4.884   4.518   7.422  0.0105  0.5564 -0.1385
  296MOL0     C38980   4.864   4.435   7.550  0.0548 -0.3827 -0.1582
  296MOL0     C38981   4.984   4.438   7.641 -0.6120 -0.0341 -0.2794
  296MOL0     C38982   5.104   4.354   7.581 -0.1758  0.2982  0.0205
  296MOL0     C38983   5.201   4.300   7.679  0.0118 -0.5121 -0.3747
  296MOL0    Cl38984   5.259   4.421   7.784 -0.5828  0.0836  0.2380
  296MOL0     C38985   4.696   5.099   7.496  0.1759  0.2753  0.5873
  296MOL0     C38986   4.672   5.163   7.611  0.2969  0.2325 -0.6328
  296MOL0     O38987   4.814   5.153   7.909 -0.1498  0.3408 -0.0312
  296MOL0     C38988   4.547   5.300   8.093  0.2791 -0.2311 -0.1393
  296MOL0     C38989   4.522   5.357   8.223  1.1725  0.0310  0.4780
  296MOL0     N38990   4.587   5.851   8.907  0.4522 -0.1189 -0.3127
  296MOL0     N38991   4.636   5.964   8.876  0.6672  0.3730  0.5329
  296MOL0     C38992   4.132   6.938   8.360  0.3126 -0.1228 -0.2524
  296MOL0     C38993   4.033   7.010   8.288  0.4062 -0.3869 -0.2918
  296MOL0     C38994   3.761   7.281   8.064  0.7578 -0.5775  0.4430
  296MOL0     C38995   3.621   7.270   8.064 -0.1123  0.0839 -0.1960
  296MOL0     C38996   3.530   7.378   8.033  1.1368  0.4539  0.7965
  296MOL0     C38997   3.594   7.499   8.002 -0.2550 -0.2287  0.1220
  296MOL0     O38998   3.529   7.617   7.976  0.1450 -0.8573 -0.6872
  296MOL0     C38999   3.394   7.651   8.006 -0.1039  1.0312 -0.3294
  296MOL0     C39000   3.348   7.753   8.108  0.5443 -0.4582  0.1833
  296MOL0     C39001   3.426   7.754   8.247 -0.2022  0.3845 -0.9908
  296MOL0     C39002   3.370   7.862   8.340 -0.8247 -0.6073  0.3446
  296MOL0     C39003   3.248   7.823   8.402  0.5811  0.1901  0.6471
  296MOL0     C39004   3.144   7.786   8.453  0.2609 -0.8695  0.3174
  296MOL0     C39005   3.733   7.508   7.997  0.1473 -0.4520 -0.3462
  296MOL0     C39006   3.819   7.401   8.030 -0.3374 -0.0258  0.2775
  296MOL0     H39007   4.234   7.220   8.090 -0.1520 -0.0448 -0.3208
  296MOL0     H39008   4.395   7.104   8.209  0.1403 -0.7937 -1.6023
  296MOL0     H39009   4.520   6.865   8.242  2.4697 -1.1324  2.9935
  296MOL0     H39010   4.375   6.754   8.225 -2.0929 -0.6173  1.2317
  296MOL0     H39011   4.591   6.759   8.458  1.5964 -0.5639  0.0380
  296MOL0     H39012   4.592   6.646   8.321 -0.7900 -0.3898 -0.4799
  296MOL0     H39013   4.355   6.568   8.402  1.2275 -1.1437  0.5218
  296MOL0     H39014   4.389   6.648   8.548  4.1878 -1.1830  3.7462
  296MOL0     H39015   4.592   6.443   8.427 -0.6801 -1.0143 -1.1492
  296MOL0     H39016   4.601   6.531   8.588  0.7726 -1.4121 -0.5155
  296MOL0     H39017   4.419   6.292   8.510  0.0090 -1.4375  2.0002
  296MOL0     H39018   4.394   6.404   8.653  1.1734 -0.8027  1.8590
  296MOL0     H39019   4.496   6.234   8.748  0.6268 -1.2410  0.1901
  296MOL0     H39020   4.628   6.346   8.731  2.6597 -1.7534 -1.3362
  296MOL0     H39021   4.599   6.136   8.529  0.4719  1.3834 -0.6691
  296MOL0     H39022   4.732   6.254   8.557  1.2715  0.7849  1.0927
  296MOL0     H39023   4.771   6.142   8.775 -1.4986 -1.7147  2.1449
  296MOL0     H39024   4.808   6.043   8.631 -1.7606 -2.5976 -1.1874
  296MOL0     H39025   4.595   5.858   8.571  0.7161  1.2587 -0.2459
  296MOL0     H39026   4.406   5.634   8.717 -0.1668 -2.2824 -0.3932
  296MOL0     H39027   4.478   5.596   8.857 -1.9159 -0.1833 -0.5328
  296MOL0     H39028   4.705   5.589   8.730  0.6362 -0.6656 -1.5924
  296MOL0     H39029   4.606   5.610   8.582  0.3690  4.1708  1.2542
  296MOL0     H39030   4.634   5.371   8.774  2.2460  1.0251  0.0010
  296MOL0     H39031   4.472   5.403   8.694 -0.0295  4.0029  1.8872
  296MOL0     H39032   4.621   5.242   8.568 -4.3985  1.6592  2.3661
  296MOL0     H39033   4.749   5.375   8.565  0.5939  0.3187  0.4145
  296MOL0     H39034   4.807   5.261   8.382 -0.0796 -0.0656  0.2048
  296MOL0     H39035   4.852   5.184   8.148 -0.5838 -1.6059 -3.6844
  296MOL0     H39036   4.536   4.928   7.800 -1.6468 -0.0125 -0.7152
  296MOL0     H39037   4.553   4.804   7.580  1.0737 -0.9717 -0.0431
  296MOL0     H39038   4.874   4.945   7.375  2.3764  0.5481 -3.0886
  296MOL0     H39039   4.814   4.921   7.212  2.5020 -2.6706 -1.2250
  296MOL0     H39040   4.937   4.719   7.263  1.9039 -0.7107  3.4276
  296MOL0     H39041   4.763   4.694   7.241 -1.9357  1.6545  0.1664
  296MOL0     H39042   4.750   4.665   7.498  1.2455 -0.1191  1.9469
  296MOL0     H39043   4.924   4.708   7.499  2.5833 -1.7307 -1.6267
  296MOL0     H39044   4.817   4.483   7.343 -0.6458  0.7797  0.3198
  296MOL0     H39045   4.981   4.503   7.373 -0.5767  2.1128 -1.8921
  296MOL0     H39046   4.856   4.332   7.515  3.2134 -0.1773 -1.8805
  296MOL0     H39047   4.780   4.472   7.610 -0.2259 -1.9223  0.4537
  296MOL0     H39048   4.955   4.419   7.745  4.4741 -3.6797  0.8769
  296MOL0     H39049   5.025   4.539   7.654  0.4114 -0.5648  0.8477
  296MOL0     H39050   5.063   4.271   7.523 -0.1984  0.8104 -0.7188
  296MOL0     H39051   5.153   4.418   7.507  0.9337 -2.1072 -1.4279
  296MOL0     H39052   5.287   4.263   7.622 -1.4427  1.2386 -4.0202
  296MOL0     H39053   5.150   4.220   7.732 -0.2695  0.3956  0.7592
  296MOL0     H39054   4.731   5.136   7.400 -0.1338 -0.2169  0.2765
  296MOL0     H39055   4.688   5.270   7.622 -1.1303  0.6755 -2.3354
  296MOL0     H39056   4.470   5.313   8.018  0.9686  1.5607 -0.5896
  296MOL0     H39057   4.428   5.411   8.223 -0.5326 -2.6987 -1.2917
  296MOL0     H39058   4.110   6.865   8.437  1.0740 -2.2680 -1.9515
  296MOL0     H39059   3.932   6.986   8.319  1.1706 -3.4048  0.2726
  296MOL0     H39060   3.577   7.173   8.083 -2.7716  1.4940  1.4999
  296MOL0     H39061   3.423   7.363   8.026  1.1207  0.8555  0.1987
  296MOL0     H39062   3.350   7.561   8.050  1.7531  0.6743  0.9177
  296MOL0     H39063   3.340   7.678   7.915 -0.5705  2.9799  0.4846
  296MOL0     H39064   3.365   7.854   8.069  0.9996 -0.2056  1.0169
  296MOL0     H39065   3.238   7.752   8.109  0.5165 -0.7709 -1.1896
  296MOL0     H39066   3.530   7.777   8.225 -0.1964  0.0754 -1.2913
  296MOL0     H39067   3.433   7.655   8.294 -1.9877  1.2968  1.4012
  296MOL0     H39068   3.437   7.897   8.419 -1.4378 -0.0941  0.6514
  296MOL0     H39069   3.342   7.946   8.275  1.4568 -0.5257 -0.6297
  296MOL0     H39070   3.064   7.741   8.508 -2.3855  2.0373 -0.8560
  296MOL0     H39071   3.773   7.606   7.974 -0.2272 -0.7565 -2.5067
  296MOL0     H39072   3.927   7.410   8.043  0.3078 -1.6521 -2.9138
  297MOL0     O39073   7.855   3.492   9.585  0.3850 -0.4548  1.0191
  297MOL0     C39074   7.745   3.517   9.636  0.2986 -1.0025  0.5373
  297MOL0     O39075   7.655   3.594   9.568 -0.6044  0.3595  0.2249
  297MOL0     C39076   7.682   3.667   9.449 -0.5668  0.6878  0.9678
  297MOL0     C39077   7.760   3.616   9.342 -0.8190  0.4243 -0.3517
  297MOL0     C39078   7.775   3.694   9.227  0.1246 -0.4646  0.4103
  297MOL0     C39079   7.694   3.803   9.207 -0.8028 -0.6469  0.4923
  297MOL0     O39080   7.709   3.858   9.081  0.5748  0.2979 -0.5717
  297MOL0     C39081   7.722   3.999   9.088 -0.7742  0.6407 -0.1120
  297MOL0     C39082   7.712   4.049   8.945 -0.4789 -0.0214 -0.2369
  297MOL0     C39083   7.851   4.033   8.872 -0.2030 -0.3095  0.2271
  297MOL0     C39084   7.868   4.126   8.749 -0.6880 -0.6505  0.2784
  297MOL0     C39085   8.010   4.137   8.690 -0.4748 -0.3047  0.1756
  297MOL0     C39086   8.061   3.999   8.632  0.3681  0.4080 -0.7455
  297MOL0     C39087   8.191   4.000   8.545 -0.6097  1.2191  0.6483
  297MOL0     C39088   8.318   4.039   8.615 -0.1834  0.0064 -0.1206
  297MOL0     N39089   8.428   4.005   8.534 -0.3578  0.6817  0.4086
  297MOL0     C39090   8.462   4.071   8.417 -0.1604  0.0916 -0.7239
  297MOL0     C39091   8.578   4.012   8.377 -0.0210  0.3013 -0.1167
  297MOL0     C39092   8.675   4.062   8.274 -0.6286  0.7224  0.3720
  297MOL0     C39093   8.716   3.964   8.162 -0.1684  1.1679 -0.4162
  297MOL0     C39094   8.806   3.854   8.214  1.1660  0.7129  0.3907
  297MOL0     C39095   8.951   3.912   8.239 -0.2002  0.2547  0.6436
  297MOL0     O39096   9.029   3.806   8.304  0.3824  0.1073  0.0794
  297MOL0     C39097   9.033   3.808   8.442 -0.6440  0.0858  0.2580
  297MOL0     C39098   8.956   3.891   8.528 -0.3413  0.3878  1.2035
  297MOL0     C39099   8.997   3.915   8.655  0.6623 -1.1914 -0.0848
  297MOL0     C39100   9.098   3.838   8.723  0.6502  0.4570  0.3937
  297MOL0     C39101   9.133   3.878   8.852 -0.5070 -0.0522  0.2360
  297MOL0     O39102   9.031   3.936   8.923 -0.5509  0.7553 -0.2573
  297MOL0     C39103   9.046   3.971   9.056  0.8765 -0.6976  0.7266
  297MOL0     C39104   9.050   3.893   9.170 -0.2623 -1.3420 -0.2982
  297MOL0     C39105   9.052   3.941   9.300 -0.3679  0.1511 -1.0369
  297MOL0     C39106   9.033   4.080   9.325 -0.2732 -0.3997 -0.3065
  297MOL0     O39107   9.023   4.138   9.454 -0.6223  0.5530  0.3126
  297MOL0     C39108   9.021   4.045   9.557 -0.3618  0.2580 -0.9713
  297MOL0     C39109   8.992   4.119   9.684  0.1930 -0.0822 -0.1364
  297MOL0     C39110   9.015   4.021   9.801  0.0465 -0.1998  0.4459
  297MOL0     C39111   8.964   4.088   9.924 -1.2824  0.3316  0.2007
  297MOL0     C39112   8.898   3.986  10.016  0.5270  0.7835 -1.0049
  297MOL0     C39113   9.004   3.918  10.107 -0.3009  0.1247  0.5335
  297MOL0     C39114   8.931   3.844  10.205  0.1772 -0.4251  0.2497
  297MOL0     C39115   8.912   3.903  10.342 -0.3664  0.0022  0.6530
  297MOL0    Cl39116   9.063   3.921  10.432  0.1385  0.6090 -0.3891
  297MOL0     C39117   9.011   4.163   9.210  0.2318  0.5019  0.1627
  297MOL0     C39118   9.029   4.109   9.079  1.3820  0.7295  0.9682
  297MOL0     O39119   9.243   3.856   8.897 -0.0997  0.3084  0.2267
  297MOL0     C39120   9.166   3.745   8.640  0.9087  0.2991  0.2074
  297MOL0     C39121   9.141   3.732   8.503  0.3598 -0.4772 -0.2897
  297MOL0     N39122   8.613   3.913   8.464  0.3189 -0.5686 -1.3608
  297MOL0     N39123   8.518   3.900   8.547  0.1701  0.2945 -0.5255
  297MOL0     C39124   7.616   3.854   9.317 -0.1947 -0.3407  0.0144
  297MOL0     C39125   7.620   3.788   9.434  0.9490  0.2461 -0.4397
  297MOL0     C39126   7.712   3.485   9.767  0.1850  1.1227  0.3402
  297MOL0     C39127   7.796   3.395   9.837 -0.0951 -0.1501 -0.3089
  297MOL0     C39128   7.787   3.383   9.970  0.4398 -0.4629 -0.1471
  297MOL0     C39129   7.687   3.451  10.047  0.4431  1.2860 -0.0243
  297MOL0     O39130   7.686   3.440  10.184 -0.2391 -0.5451  0.0545
  297MOL0     C39131   7.589   3.509  10.265 -0.5443  0.6536  0.8666
  297MOL0     C39132   7.645   3.505  10.408 -0.9265  0.2908 -0.6472
  297MOL0     C39133   7.635   3.366  10.472  1.0550 -0.3879 -0.0859
  297MOL0     C39134   7.759   3.319  10.553 -0.9323 -0.1533  0.5630
  297MOL0     C39135   7.729   3.220  10.657  0.4610 -0.0406 -0.3555
  297MOL0     C39136   7.711   3.146  10.748 -0.4873  0.3223  0.3330
  297MOL0     C39137   7.587   3.528   9.977 -0.2466 -0.4672 -0.5000
  297MOL0     C39138   7.608   3.551   9.837  0.2963  0.8213 -0.2921
  297MOL0     H39139   7.807   3.521   9.365 -2.1721  0.0008  0.7725
  297MOL0     H39140   7.828   3.646   9.145 -0.7570 -1.0091  0.1444
  297MOL0     H39141   7.822   4.021   9.127 -0.9189 -2.2701  2.2715
  297MOL0     H39142   7.642   4.044   9.147  0.2823 -0.6591  2.4815
  297MOL0     H39143   7.674   4.150   8.964 -2.4747 -0.7420 -0.1357
  297MOL0     H39144   7.631   4.005   8.886 -0.0769 -1.4098  0.1896
  297MOL0     H39145   7.849   3.931   8.832 -1.1176  1.0143 -3.5006
  297MOL0     H39146   7.928   4.050   8.948  0.1369 -0.0963 -0.1670
  297MOL0     H39147   7.807   4.104   8.661  0.5447  3.2201 -1.8327
  297MOL0     H39148   7.839   4.225   8.786 -2.1834 -2.1568  3.5383
  297MOL0     H39149   8.073   4.171   8.772  0.6635 -0.9262 -0.4047
  297MOL0     H39150   8.000   4.220   8.619  0.0891 -1.3823 -1.2316
  297MOL0     H39151   7.995   3.934   8.574  1.3853 -1.8086  0.4524
  297MOL0     H39152   8.074   3.937   8.722 -1.6206  2.0333  0.7648
  297MOL0     H39153   8.207   3.897   8.513  0.0404  2.4420 -3.6530
  297MOL0     H39154   8.165   4.061   8.458 -0.3797  0.0319 -0.2686
  297MOL0     H39155   8.320   3.978   8.706 -1.3488  1.7137  1.1020
  297MOL0     H39156   8.323   4.144   8.646  0.2697  0.0084 -0.1836
  297MOL0     H39157   8.408   4.154   8.373  0.1660  1.9663  2.1325
  297MOL0     H39158   8.766   4.091   8.327 -1.0708 -0.1182  1.6674
  297MOL0     H39159   8.641   4.150   8.219  0.8359  0.0816 -1.7002
  297MOL0     H39160   8.766   4.012   8.077  2.9025  0.4739  0.8795
  297MOL0     H39161   8.620   3.925   8.125 -0.1978  0.3078  0.5372
  297MOL0     H39162   8.761   3.791   8.291 -0.0968  0.1689 -0.7420
  297MOL0     H39163   8.814   3.774   8.140 -2.5673 -0.8142  1.4077
  297MOL0     H39164   8.967   4.001   8.300  2.2604  0.1549  0.2365
  297MOL0     H39165   8.990   3.946   8.143 -1.8899 -1.2428 -0.6646
  297MOL0     H39166   8.877   3.954   8.490  0.0502 -0.7652 -1.7252
  297MOL0     H39167   8.942   3.994   8.705 -2.1121 -1.8407 -1.9004
  297MOL0     H39168   9.056   3.788   9.144 -0.4506 -1.0100 -1.7710
  297MOL0     H39169   9.053   3.860   9.373  0.1811  1.3154  0.2931
  297MOL0     H39170   9.115   3.990   9.568  1.4554  3.1690 -0.8661
  297MOL0     H39171   8.931   3.985   9.541 -1.1694  1.7308 -2.1843
  297MOL0     H39172   8.887   4.146   9.669 -0.1040 -1.9418 -1.9458
  297MOL0     H39173   9.055   4.207   9.694 -0.7601  0.4822  1.0718
  297MOL0     H39174   9.120   3.993   9.812  0.2062  0.6255  1.1168
  297MOL0     H39175   8.956   3.929   9.794  1.3686 -1.3384  2.9518
  297MOL0     H39176   9.043   4.139   9.980 -0.5509 -0.8792  0.3011
  297MOL0     H39177   8.878   4.150   9.894 -0.7841  0.7675 -0.3459
  297MOL0     H39178   8.840   3.920   9.951  0.5145  2.9288 -3.3691
  297MOL0     H39179   8.827   4.044  10.076  0.9499 -0.5513  0.8560
  297MOL0     H39180   9.082   3.982  10.148 -1.1317  1.5885 -0.0981
  297MOL0     H39181   9.056   3.846  10.042 -0.1976 -0.7158  1.5226
  297MOL0     H39182   8.826   3.840  10.175 -0.9645  2.3762  3.1853
  297MOL0     H39183   8.979   3.747  10.220  1.1756  0.4405  3.6530
  297MOL0     H39184   8.846   3.843  10.405  1.4471 -0.7993  1.8948
  297MOL0     H39185   8.864   4.001  10.330 -1.6478 -0.7929 -1.0817
  297MOL0     H39186   8.984   4.268   9.213 -1.1213  0.2065 -0.7240
  297MOL0     H39187   9.006   4.172   8.994  0.3266 -0.9806 -0.0957
  297MOL0     H39188   9.249   3.686   8.680  2.6758  2.5257  0.0299
  297MOL0     H39189   9.205   3.669   8.443  3.2777 -0.8237  2.9287
  297MOL0     H39190   7.546   3.937   9.310  0.5592  0.5541  2.3788
  297MOL0     H39191   7.564   3.811   9.524 -4.6977 -0.9018 -3.1704
  297MOL0     H39192   7.884   3.351   9.790  0.6355  0.2606  0.6573
  297MOL0     H39193   7.855   3.322  10.028 -1.9313 -1.1728  2.0460
  297MOL0     H39194   7.491   3.461  10.262 -1.1203  1.5039  3.4624
  297MOL0     H39195   7.575   3.608  10.220 -2.8055 -0.1837 -0.4303
  297MOL0     H39196   7.750   3.537  10.412 -1.2475  1.3121 -0.0115
  297MOL0     H39197   7.587   3.584  10.458  0.1405  0.9780 -0.4549
  297MOL0     H39198   7.599   3.294  10.399 -1.8290  2.0476 -1.2359
  297MOL0     H39199   7.551   3.384  10.539  0.1402  1.4633 -1.6544
  297MOL0     H39200   7.826   3.273  10.479  0.8609  2.0375  0.6943
  297MOL0     H39201   7.807   3.406  10.599 -1.2183  0.6789 -0.6542
  297MOL0     H39202   7.680   3.096  10.837  0.4055  0.6801  0.8596
  297MOL0     H39203   7.496   3.570  10.019 -0.5143 -2.3200  0.8864
  297MOL0     H39204   7.545   3.624   9.788  1.1256 -0.4769 -3.5041
  298MOL0     O39205   2.207   0.111   4.507 -0.5192  0.3840 -0.6182
  298MOL0     C39206   2.160   0.050   4.602 -0.2435  0.4899 -0.0464
  298MOL0     O39207   2.229  -0.017   4.702  0.4418 -0.2163  0.0540
  298MOL0     C39208   2.360  -0.052   4.688  0.4234  0.6240  0.6264
  298MOL0     C39209   2.436  -0.065   4.803  0.6424 -0.3592 -0.4875
  298MOL0     C39210   2.568  -0.104   4.808 -0.0932 -0.1947  0.7541
  298MOL0     C39211   2.642  -0.104   4.693  0.6273  1.4459 -0.2635
  298MOL0     O39212   2.771  -0.148   4.707  0.8203 -0.2717 -0.5488
  298MOL0     C39213   2.858  -0.044   4.688  0.5593  0.3376 -0.2494
  298MOL0     C39214   2.846   0.054   4.808 -0.2471  0.6265 -0.0654
  298MOL0     C39215   2.969   0.142   4.815  0.1548  0.0458 -1.2045
  298MOL0     C39216   2.944   0.261   4.910  0.6931 -0.7897  0.2969
  298MOL0     C39217   3.039   0.365   4.851  0.9989 -1.0561  0.3615
  298MOL0     C39218   3.010   0.506   4.916  0.0476 -0.6312  0.5393
  298MOL0     C39219   3.050   0.610   4.814  0.7889 -0.5346  0.2633
  298MOL0     C39220   2.967   0.736   4.821 -0.2833 -0.5935 -0.2441
  298MOL0     N39221   2.999   0.817   4.710  0.1916 -0.0088 -0.3675
  298MOL0     C39222   3.128   0.874   4.683  0.0601  0.6748 -0.1815
  298MOL0     C39223   3.116   0.933   4.564 -0.2918 -0.5059 -0.3241
  298MOL0     C39224   3.235   0.958   4.471 -0.7622 -0.4176  0.7821
  298MOL0     C39225   3.364   0.863   4.473  0.5852  1.4563 -1.0715
  298MOL0     C39226   3.330   0.712   4.453 -1.0169  1.2839 -0.5939
  298MOL0     C39227   3.446   0.626   4.389  0.4547 -0.1510 -0.1688
  298MOL0     O39228   3.539   0.592   4.489 -0.5248 -1.0938 -0.7859
  298MOL0     C39229   3.619   0.485   4.459 -0.8155 -0.3806  0.0906
  298MOL0     C39230   3.645   0.374   4.545 -0.1257  0.2587  0.1684
  298MOL0     C39231   3.742   0.278   4.514  0.2424 -0.2046  0.5809
  298MOL0     C39232   3.809   0.279   4.386  0.6458 -0.2725 -0.2604
  298MOL0     C39233   3.928   0.202   4.358 -0.5989 -0.4522 -0.3344
  298MOL0     O39234   4.001   0.230   4.242  0.7232 -0.0049 -0.0427
  298MOL0     C39235   4.119   0.172   4.207  1.0286 -0.0100 -0.1821
  298MOL0     C39236   4.225   0.256   4.207 -0.8972  0.4266  0.2887
  298MOL0     C39237   4.346   0.204   4.176 -0.4173  0.2074 -0.1630
  298MOL0     C39238   4.369   0.074   4.136 -0.1433 -0.2964  0.4289
  298MOL0     O39239   4.492   0.037   4.108  0.0834 -0.2184 -0.1979
  298MOL0     C39240   4.536  -0.103   4.096  0.2321  0.1224 -0.5393
  298MOL0     C39241   4.535  -0.177   4.229  0.2160  0.5549  0.2434
  298MOL0     C39242   4.638  -0.124   4.324 -0.5651 -0.7015 -0.0270
  298MOL0     C39243   4.644  -0.202   4.457 -0.3387  0.1948  0.1291
  298MOL0     C39244   4.747  -0.146   4.557  0.2430  0.1720  0.3284
  298MOL0     C39245   4.882  -0.223   4.542 -0.4813 -0.8125  0.3090
  298MOL0     C39246   4.973  -0.164   4.645 -0.5304 -0.5820 -0.3157
  298MOL0     C39247   5.111  -0.226   4.635 -0.3661 -0.1622 -0.5667
  298MOL0    Cl39248   5.229  -0.146   4.750  0.3789  0.1637 -0.1958
  298MOL0     C39249   4.253  -0.014   4.114  0.1991 -0.2856 -0.3462
  298MOL0     C39250   4.133   0.037   4.154  0.4925  0.4789 -0.1004
  298MOL0     O39251   3.967   0.119   4.442  0.2244 -0.1126  0.2980
  298MOL0     C39252   3.774   0.384   4.302  0.8107  0.4587  0.1087
  298MOL0     C39253   3.679   0.483   4.329  0.4022 -0.3974  0.1478
  298MOL0     N39254   2.985   0.913   4.529  1.0779  0.8473  0.0547
  298MOL0     N39255   2.921   0.838   4.602  0.7616  0.1787  0.0790
  298MOL0     C39256   2.575  -0.080   4.577 -0.0066 -0.5549 -0.1701
  298MOL0     C39257   2.435  -0.059   4.565 -0.5867 -0.7245  0.2617
  298MOL0     C39258   2.013   0.027   4.591 -0.7132 -0.3279  0.7474
  298MOL0     C39259   1.924   0.021   4.701 -0.0400 -0.1534  0.0850
  298MOL0     C39260   1.785   0.013   4.694 -0.4382 -0.4307 -0.2013
  298MOL0     C39261   1.730  -0.001   4.569  0.3468  1.4106  0.4042
  298MOL0     O39262   1.593  -0.028   4.562  0.1973 -0.2606 -0.1003
  298MOL0     C39263   1.522   0.094   4.557 -0.2948 -0.0814 -0.2545
  298MOL0     C39264   1.365   0.079   4.557  0.1939  0.3070 -0.5029
  298MOL0     C39265   1.313   0.043   4.417  0.2124  0.1744 -0.3272
  298MOL0     C39266   1.316   0.157   4.311 -0.6112 -0.3016 -0.4552
  298MOL0     C39267   1.200   0.252   4.335 -0.1046  0.0244  0.0623
  298MOL0     C39268   1.109   0.341   4.359  0.2759  0.2531  0.1700
  298MOL0     C39269   1.806   0.002   4.450 -0.4127 -0.5696  0.5176
  298MOL0     C39270   1.951   0.011   4.462  0.5634 -0.0660 -1.0722
  298MOL0     H39271   2.378  -0.054   4.894 -0.0053 -0.1647 -0.9066
  298MOL0     H39272   2.610  -0.118   4.907 -0.8886  0.8794  1.2607
  298MOL0     H39273   2.847  -0.002   4.588  0.6346 -0.2833 -0.5229
  298MOL0     H39274   2.950  -0.104   4.687  0.8515  0.7234 -2.7757
  298MOL0     H39275   2.844  -0.002   4.902  4.0949 -1.2042 -0.8083
  298MOL0     H39276   2.752   0.108   4.791 -1.0418 -0.7773 -0.2621
  298MOL0     H39277   3.000   0.174   4.716  2.8638 -4.5679 -2.1291
  298MOL0     H39278   3.055   0.088   4.856 -0.2721 -0.0911 -0.4634
  298MOL0     H39279   2.839   0.291   4.899  0.4682 -1.3853  0.7869
  298MOL0     H39280   2.955   0.239   5.016 -1.8563 -2.9109  0.2120
  298MOL0     H39281   3.028   0.374   4.742 -1.8875  0.7981  0.7039
  298MOL0     H39282   3.140   0.333   4.876  1.3384  0.4472  0.9863
  298MOL0     H39283   3.073   0.520   5.004 -0.3137 -0.8956  0.8417
  298MOL0     H39284   2.904   0.519   4.942 -0.0736 -0.8538  0.1575
  298MOL0     H39285   3.155   0.635   4.831  0.9882  0.7619 -2.3362
  298MOL0     H39286   3.051   0.571   4.712 -0.2039 -0.7218  0.3109
  298MOL0     H39287   2.977   0.797   4.911  0.8967 -1.6013  0.3298
  298MOL0     H39288   2.862   0.708   4.808 -0.1657 -0.6514 -1.1223
  298MOL0     H39289   3.214   0.866   4.750 -2.1265 -0.5967  2.7179
  298MOL0     H39290   3.283   1.053   4.498 -3.2981  1.6933 -1.5794
  298MOL0     H39291   3.210   0.964   4.365  1.4596 -1.2630  0.1388
  298MOL0     H39292   3.411   0.875   4.572 -1.7151  1.5583  0.0788
  298MOL0     H39293   3.432   0.900   4.396  0.7922  2.0133 -0.6368
  298MOL0     H39294   3.298   0.669   4.548  0.5729  0.9580 -0.1883
  298MOL0     H39295   3.247   0.714   4.381  0.3901  0.7622 -2.3239
  298MOL0     H39296   3.484   0.679   4.301  0.2518 -0.5445 -0.4927
  298MOL0     H39297   3.416   0.533   4.340 -0.2990 -0.0102 -0.0001
  298MOL0     H39298   3.605   0.373   4.645 -1.5893  0.9110 -0.3805
  298MOL0     H39299   3.752   0.193   4.581 -2.2978 -0.7590  0.3747
  298MOL0     H39300   4.211   0.358   4.241 -0.2039  0.4440  0.5395
  298MOL0     H39301   4.433   0.268   4.175 -0.8154  0.7787  0.7510
  298MOL0     H39302   4.639  -0.113   4.059 -0.4684 -1.6824 -2.1613
  298MOL0     H39303   4.467  -0.151   4.027 -1.3208  0.3602  0.7840
  298MOL0     H39304   4.552  -0.283   4.206 -0.1111  0.1768  1.6484
  298MOL0     H39305   4.435  -0.185   4.273  0.3338 -1.5291  0.2299
  298MOL0     H39306   4.613  -0.019   4.336  0.5193 -0.4530  0.1607
  298MOL0     H39307   4.736  -0.133   4.278 -1.3945 -2.7706 -1.5416
  298MOL0     H39308   4.546  -0.196   4.505 -0.5256 -1.4959  0.0043
  298MOL0     H39309   4.667  -0.308   4.440  1.1947  0.8067 -2.1454
  298MOL0     H39310   4.711  -0.165   4.658 -0.4587  0.9817  0.2379
  298MOL0     H39311   4.761  -0.037   4.557 -2.5506  0.7322  4.2724
  298MOL0     H39312   4.928  -0.205   4.445  0.3893 -1.2326  0.6332
  298MOL0     H39313   4.862  -0.331   4.550 -1.4439 -0.8568 -1.9145
  298MOL0     H39314   4.989  -0.057   4.630  3.5232 -0.5323  2.7652
  298MOL0     H39315   4.927  -0.178   4.743  1.7416 -2.6513  0.5773
  298MOL0     H39316   5.148  -0.227   4.532  4.7866 -2.2506  0.9908
  298MOL0     H39317   5.101  -0.332   4.659 -0.8071  0.0109  0.0320
  298MOL0     H39318   4.254  -0.114   4.073 -3.0137 -0.8146  0.5110
  298MOL0     H39319   4.054  -0.036   4.143  3.0887 -2.2463 -2.6063
  298MOL0     H39320   3.814   0.394   4.201 -1.4351 -1.0590 -1.0131
  298MOL0     H39321   3.651   0.561   4.259 -1.0348 -1.3333 -0.3835
  298MOL0     H39322   2.642  -0.082   4.492  1.1642  0.3482  0.7027
  298MOL0     H39323   2.391  -0.038   4.468 -0.8890  0.2595  0.6013
  298MOL0     H39324   1.963   0.034   4.801  0.7684 -0.1627 -0.2186
  298MOL0     H39325   1.724   0.017   4.783  1.4395  1.5014  1.1091
  298MOL0     H39326   1.552   0.142   4.463  0.4034 -1.3891 -0.7188
  298MOL0     H39327   1.550   0.153   4.644  0.4369  0.6182 -0.9507
  298MOL0     H39328   1.344   0.004   4.634  2.0137 -0.7508 -0.9841
  298MOL0     H39329   1.311   0.171   4.583 -1.7923 -1.1243  0.7277
  298MOL0     H39330   1.208   0.015   4.435  0.3475  0.4277  0.9440
  298MOL0     H39331   1.373  -0.043   4.386 -0.1521 -0.6536  1.1799
  298MOL0     H39332   1.417   0.200   4.316  0.3678 -2.1625 -2.5087
  298MOL0     H39333   1.313   0.109   4.213 -1.2807 -3.2441  0.8977
  298MOL0     H39334   1.027   0.409   4.369 -1.2453  0.1857 -6.6757
  298MOL0     H39335   1.749  -0.015   4.359 -2.1935  1.6659  1.1069
  298MOL0     H39336   2.013   0.026   4.374  1.0884  0.2074 -0.6650
  299MOL0     O39337   7.758   2.774   4.353 -0.2487  0.3636  0.5727
  299MOL0     C39338   7.767   2.840   4.245  0.7737  0.3610 -1.2047
  299MOL0     O39339   7.720   2.964   4.229  0.1271  0.0952 -0.7192
  299MOL0     C39340   7.624   3.014   4.317 -0.0600  0.9945 -0.0740
  299MOL0     C39341   7.632   3.022   4.452 -0.9278  0.7130 -0.8270
  299MOL0     C39342   7.541   3.078   4.539  0.0161  0.2081 -0.3937
  299MOL0     C39343   7.421   3.124   4.486  0.5519 -0.0314 -0.0044
  299MOL0     O39344   7.338   3.172   4.579  0.7323 -0.0511 -0.1862
  299MOL0     C39345   7.201   3.145   4.550  0.6725 -0.0862  0.4158
  299MOL0     C39346   7.117   3.147   4.680 -0.7207  0.2376  0.4555
  299MOL0     C39347   7.135   3.279   4.752 -0.0998  0.0940 -0.7458
  299MOL0     C39348   7.084   3.392   4.665 -0.6574 -0.6209  0.2276
  299MOL0     C39349   7.065   3.521   4.740  0.3584  0.1944 -0.0510
  299MOL0     C39350   6.934   3.539   4.805 -0.2533  0.2279 -0.5868
  299MOL0     C39351   6.922   3.684   4.855 -0.7232  0.0234  0.5243
  299MOL0     C39352   6.787   3.716   4.917 -0.4679  0.1691  0.4224
  299MOL0     N39353   6.763   3.641   5.037  0.5466 -0.3824  0.2387
  299MOL0     C39354   6.794   3.691   5.159  0.3431 -0.0798  0.0634
  299MOL0     C39355   6.744   3.594   5.240 -0.5593 -0.4338 -0.7288
  299MOL0     C39356   6.726   3.624   5.386 -0.3787  0.2016 -0.1290
  299MOL0     C39357   6.847   3.575   5.464 -0.6214  0.4233 -0.0687
  299MOL0     C39358   6.990   3.623   5.439  0.0642 -0.6469  0.0902
  299MOL0     C39359   7.080   3.567   5.547 -0.1222  0.2438  0.7248
  299MOL0     O39360   7.062   3.616   5.684  0.5685 -0.3951  0.4974
  299MOL0     C39361   7.135   3.570   5.791  0.2851  0.3296 -0.6158
  299MOL0     C39362   7.235   3.473   5.778  0.0230  0.8826 -0.1735
  299MOL0     C39363   7.300   3.431   5.899 -0.2928 -0.0123 -0.7391
  299MOL0     C39364   7.269   3.468   6.027  0.9156 -0.7091 -1.7461
  299MOL0     C39365   7.337   3.418   6.153 -0.4177  0.1630 -0.2366
  299MOL0     O39366   7.438   3.320   6.146 -0.0322 -0.4023  0.6372
  299MOL0     C39367   7.500   3.269   6.254  0.0288 -0.2539 -0.0464
  299MOL0     C39368   7.432   3.221   6.368  0.6570  1.1350  1.0855
  299MOL0     C39369   7.499   3.153   6.469 -0.1450 -0.8672  0.1114
  299MOL0     C39370   7.635   3.144   6.469 -0.5170  0.6671 -0.5783
  299MOL0     O39371   7.690   3.083   6.576 -0.8662 -0.6746 -0.3037
  299MOL0     C39372   7.810   3.007   6.563  0.0643 -0.0650 -0.1943
  299MOL0     C39373   7.778   2.863   6.529  0.9215  0.6366  0.6587
  299MOL0     C39374   7.912   2.778   6.524  0.3565  0.7118 -0.2847
  299MOL0     C39375   7.970   2.750   6.664 -0.3065  0.2070 -0.2537
  299MOL0     C39376   8.104   2.661   6.650  0.2824 -0.2669  0.4566
  299MOL0     C39377   8.188   2.656   6.785  0.9534  0.2155 -0.0945
  299MOL0     C39378   8.285   2.542   6.787 -0.4261  0.1134 -0.6938
  299MOL0     C39379   8.336   2.525   6.925 -0.0682  0.8352 -0.0357
  299MOL0    Cl39380   8.435   2.386   6.921  0.4369 -0.1010 -0.0805
  299MOL0     C39381   7.704   3.199   6.362 -0.9238  0.3024  0.2082
  299MOL0     C39382   7.640   3.255   6.245 -0.9994 -0.5206 -0.8265
  299MOL0     O39383   7.311   3.481   6.257 -0.0253  0.7465  0.6401
  299MOL0     C39384   7.157   3.565   6.034  0.3686  0.3194 -0.1169
  299MOL0     C39385   7.090   3.602   5.918 -0.4224 -0.4428  0.0468
  299MOL0     N39386   6.685   3.492   5.173  0.0284 -1.1283 -0.0131
  299MOL0     N39387   6.692   3.521   5.048  0.7082 -0.5219  0.4062
  299MOL0     C39388   7.405   3.119   4.344  0.2371 -0.4962  0.7062
  299MOL0     C39389   7.504   3.060   4.260 -0.4592 -0.6736 -0.4480
  299MOL0     C39390   7.838   2.773   4.135 -0.4167 -0.4918 -0.1183
  299MOL0     C39391   7.926   2.669   4.154 -0.0249 -0.8331  0.8091
  299MOL0     C39392   7.974   2.607   4.043 -0.2473  0.5182  0.3820
  299MOL0     C39393   7.964   2.656   3.918 -0.3227 -0.8269 -0.4233
  299MOL0     O39394   8.040   2.626   3.804 -0.0945  0.2793  0.5407
  299MOL0     C39395   8.128   2.513   3.798 -0.2842  0.4774 -0.9067
  299MOL0     C39396   8.187   2.480   3.659  0.0661 -0.4786 -0.6189
  299MOL0     C39397   8.093   2.486   3.544 -0.3968 -0.3347  1.1279
  299MOL0     C39398   8.154   2.538   3.409 -0.5245  0.0459 -1.1172
  299MOL0     C39399   8.211   2.672   3.424  0.1236 -0.5333  0.0233
  299MOL0     C39400   8.252   2.783   3.438 -0.6790 -0.8845  0.1756
  299MOL0     C39401   7.879   2.765   3.900  0.0411 -0.6689 -0.2489
  299MOL0     C39402   7.811   2.815   4.009  0.1946 -0.2156  0.4304
  299MOL0     H39403   7.730   2.997   4.489 -0.4357 -1.5729 -3.3749
  299MOL0     H39404   7.575   3.081   4.642  0.3412 -0.9883 -0.4540
  299MOL0     H39405   7.188   3.051   4.497 -2.5074 -0.7001  1.9995
  299MOL0     H39406   7.158   3.217   4.479  1.0475 -0.9432 -0.6996
  299MOL0     H39407   7.146   3.056   4.733  2.2621  1.0151  0.3274
  299MOL0     H39408   7.012   3.131   4.655 -0.7901 -0.8443  1.3512
  299MOL0     H39409   7.242   3.294   4.772 -0.0384 -2.0292  0.8498
  299MOL0     H39410   7.094   3.264   4.852 -0.9844 -1.7747 -1.3492
  299MOL0     H39411   7.164   3.401   4.591  1.8868 -0.3800  2.8369
  299MOL0     H39412   6.990   3.358   4.619 -0.4618 -0.5588 -0.2214
  299MOL0     H39413   7.074   3.612   4.681 -3.9659  0.2530 -0.9373
  299MOL0     H39414   7.141   3.527   4.819  1.2545  1.4798 -0.9810
  299MOL0     H39415   6.929   3.464   4.884 -2.1090 -0.7415 -1.5593
  299MOL0     H39416   6.853   3.508   4.738 -0.5723 -3.3611  1.1963
  299MOL0     H39417   7.002   3.704   4.926 -0.3887 -0.8491  0.4082
  299MOL0     H39418   6.947   3.753   4.773  2.7492  0.1494  1.5236
  299MOL0     H39419   6.704   3.688   4.853  0.1931  2.1774 -1.4231
  299MOL0     H39420   6.787   3.822   4.946  0.5514  0.3132 -0.0743
  299MOL0     H39421   6.847   3.782   5.186  1.1588 -0.8571  1.1550
  299MOL0     H39422   6.641   3.563   5.419  1.5321 -0.7814  3.6028
  299MOL0     H39423   6.714   3.730   5.410  1.5325 -0.1707  3.1055
  299MOL0     H39424   6.844   3.466   5.462 -0.9243  0.3748  1.6904
  299MOL0     H39425   6.816   3.605   5.564  3.4490 -1.1193  1.9211
  299MOL0     H39426   7.014   3.579   5.342 -1.3364 -0.0530 -0.5514
  299MOL0     H39427   6.996   3.732   5.446 -0.4126 -0.7291  2.7883
  299MOL0     H39428   7.181   3.587   5.511  0.2108  0.0995  1.5413
  299MOL0     H39429   7.056   3.462   5.529 -1.9339  0.9042 -1.1023
  299MOL0     H39430   7.248   3.426   5.681 -1.7300  1.4727 -0.7464
  299MOL0     H39431   7.389   3.370   5.899 -1.4596 -1.8167  0.5635
  299MOL0     H39432   7.325   3.235   6.379 -0.5722 -3.8990 -1.3592
  299MOL0     H39433   7.429   3.130   6.548  1.1019 -2.6865  0.7675
  299MOL0     H39434   7.856   3.016   6.662 -0.0555  1.8472 -0.2748
  299MOL0     H39435   7.884   3.038   6.488 -1.5381 -0.6995 -2.1231
  299MOL0     H39436   7.737   2.857   6.428  2.2503  1.9163  0.0002
  299MOL0     H39437   7.716   2.813   6.605  1.6058 -3.0716 -0.9872
  299MOL0     H39438   7.981   2.836   6.461  0.1191  0.6216 -0.6270
  299MOL0     H39439   7.892   2.681   6.479  1.3608  1.2194 -1.9109
  299MOL0     H39440   7.998   2.843   6.714 -1.3693  0.3363  0.1243
  299MOL0     H39441   7.898   2.698   6.727  0.0256  0.4924  0.3674
  299MOL0     H39442   8.177   2.701   6.579  0.6795 -0.0683  0.9739
  299MOL0     H39443   8.075   2.560   6.618 -1.1628  0.1427  0.3949
  299MOL0     H39444   8.114   2.648   6.865  2.2900 -1.7083  1.0233
  299MOL0     H39445   8.232   2.755   6.794  0.2507  0.5775 -0.5193
  299MOL0     H39446   8.227   2.455   6.753  1.8550 -1.6215 -0.4125
  299MOL0     H39447   8.375   2.555   6.725 -1.2089 -1.0348 -2.1440
  299MOL0     H39448   8.258   2.502   6.998  3.0851 -2.0876  2.7449
  299MOL0     H39449   8.395   2.605   6.970  0.0308  1.5086 -1.3383
  299MOL0     H39450   7.810   3.178   6.373 -1.0317 -0.4233 -0.0757
  299MOL0     H39451   7.683   3.286   6.150 -2.1003 -1.5196 -1.6853
  299MOL0     H39452   7.112   3.593   6.130 -2.4097 -1.1518 -0.8689
  299MOL0     H39453   6.997   3.658   5.926 -0.2171  0.3155 -2.2595
  299MOL0     H39454   7.322   3.156   4.285  1.6975  3.0703  0.6645
  299MOL0     H39455   7.492   3.054   4.152 -6.6399 -0.5735 -0.1545
  299MOL0     H39456   7.936   2.616   4.248 -1.7237  1.3759  2.3487
  299MOL0     H39457   8.042   2.526   4.063  0.4388  0.1608 -2.8509
  299MOL0     H39458   8.074   2.426   3.836 -0.5955  1.1126  0.1436
  299MOL0     H39459   8.215   2.526   3.863 -1.7068  0.2449  1.1572
  299MOL0     H39460   8.279   2.536   3.639  0.2470 -1.2908 -2.3087
  299MOL0     H39461   8.222   2.376   3.666  1.1668  0.0108  2.2675
  299MOL0     H39462   8.009   2.548   3.576  0.7948  2.2829 -0.4664
  299MOL0     H39463   8.054   2.391   3.507  0.6200 -0.8934  1.4578
  299MOL0     H39464   8.229   2.471   3.366  2.2679  1.7380  0.7973
  299MOL0     H39465   8.071   2.550   3.339 -2.5942  0.1670  1.2000
  299MOL0     H39466   8.287   2.885   3.433  0.6655 -1.2053  1.9937
  299MOL0     H39467   7.864   2.809   3.802 -0.9776  2.4450  1.1543
  299MOL0     H39468   7.738   2.892   3.989 -0.8920 -1.5388 -0.9496
  300MOL0     O39469   2.460   7.723  10.211  0.9184 -0.3533 -0.6092
  300MOL0     C39470   2.528   7.808  10.158 -0.5531  1.2236  1.2407
  300MOL0     O39471   2.488   7.909  10.085  0.2603 -0.8844 -0.5261
  300MOL0     C39472   2.368   7.907  10.018  0.2463 -0.3246  0.4194
  300MOL0     C39473   2.253   7.880  10.093 -0.7163  0.0587  0.7982
  300MOL0     C39474   2.125   7.881  10.021  0.2995  0.1676  0.4561
  300MOL0     C39475   2.119   7.924   9.883  0.0985  0.8819 -0.4941
  300MOL0     O39476   2.003   7.942   9.816  0.6376  0.0246  0.4088
  300MOL0     C39477   1.903   7.842   9.825 -0.7129  0.3445  0.8724
  300MOL0     C39478   1.810   7.884   9.710 -0.5009 -0.3000 -0.1470
  300MOL0     C39479   1.719   7.768   9.663 -0.4124  0.2030 -0.3350
  300MOL0     C39480   1.625   7.719   9.768 -0.0837  0.5742  0.8099
  300MOL0     C39481   1.529   7.607   9.716 -0.5207  0.1717 -0.2685
  300MOL0     C39482   1.399   7.635   9.796 -0.2398  0.8747  0.3143
  300MOL0     C39483   1.292   7.544   9.735  0.6101  0.5990 -0.4643
  300MOL0     C39484   1.303   7.403   9.780  0.0272  0.2662 -0.0948
  300MOL0     N39485   1.195   7.317   9.722 -0.0186 -0.4227  0.6847
  300MOL0     C39486   1.201   7.188   9.691  0.2676  0.1941  0.5674
  300MOL0     C39487   1.086   7.149   9.640 -0.0625  0.2687  0.5690
  300MOL0     C39488   1.044   7.004   9.610 -0.2333  0.6075  0.1016
  300MOL0     C39489   1.086   6.981   9.468  0.3486 -0.1647  0.6056
  300MOL0     C39490   1.072   6.832   9.414 -0.6793 -0.5578 -0.1898
  300MOL0     C39491   0.922   6.811   9.368 -0.9673 -0.3379 -0.5754
  300MOL0     O39492   0.916   6.697   9.286 -1.5521 -0.2350  0.0671
  300MOL0     C39493   0.794   6.642   9.264 -0.9034 -1.1196  0.4657
  300MOL0     C39494   0.797   6.536   9.179 -0.9299  0.0791  0.2265
  300MOL0     C39495   0.676   6.471   9.149  0.5438 -0.7297  0.1684
  300MOL0     C39496   0.555   6.514   9.205  0.8289 -0.1324 -0.3896
  300MOL0     C39497   0.425   6.447   9.167 -0.0842  0.0725  0.1379
  300MOL0     O39498   0.319   6.451   9.242  0.1777 -0.1941 -0.3169
  300MOL0     C39499   0.196   6.414   9.203  0.1651 -0.0820 -0.7173
  300MOL0     C39500   0.107   6.330   9.279 -0.4428 -0.2744 -0.3823
  300MOL0     C39501  -0.021   6.308   9.242  1.2381  0.2666 -0.5943
  300MOL0     C39502  -0.068   6.368   9.122  0.4988  0.3327 -0.0742
  300MOL0     O39503  -0.192   6.318   9.070 -0.5400  0.1602 -0.5639
  300MOL0     C39504  -0.265   6.400   8.987  0.7068 -0.5963  0.2756
  300MOL0     C39505  -0.391   6.336   8.943  0.7278 -0.1560 -0.1401
  300MOL0     C39506  -0.481   6.312   9.069 -0.0756  0.1288 -0.7127
  300MOL0     C39507  -0.566   6.433   9.107 -0.4068  0.0898 -0.4014
  300MOL0     C39508  -0.701   6.390   9.163 -0.5490 -0.0625  0.2241
  300MOL0     C39509  -0.795   6.296   9.087 -0.8503  0.2803 -0.6609
  300MOL0     C39510  -0.850   6.344   8.950 -0.2641 -0.7174  0.2436
  300MOL0     C39511  -0.976   6.282   8.907 -1.0594 -0.4893  0.4622
  300MOL0    Cl39512  -1.026   6.386   8.762  0.1184 -0.2843  0.1023
  300MOL0     C39513   0.011   6.462   9.056  0.2967  0.5027 -0.4156
  300MOL0     C39514   0.147   6.484   9.092  0.6950 -0.0252 -0.8346
  300MOL0     O39515   0.431   6.408   9.049  0.4742 -0.1283  0.1438
  300MOL0     C39516   0.555   6.625   9.287  1.5328 -0.0586  0.1483
  300MOL0     C39517   0.677   6.684   9.326  0.7084 -0.8576 -0.2765
  300MOL0     N39518   1.003   7.265   9.640 -0.1178 -0.8184 -0.7522
  300MOL0     N39519   1.069   7.365   9.689 -0.8578 -0.6510  0.3287
  300MOL0     C39520   2.229   7.980   9.826 -1.3425  0.7463  0.5816
  300MOL0     C39521   2.357   7.961   9.891  0.8518  0.7702 -0.9038
  300MOL0     C39522   2.677   7.805  10.183  0.8039 -0.7811  0.3394
  300MOL0     C39523   2.732   7.725  10.277 -0.3066 -0.1854  0.5967
  300MOL0     C39524   2.872   7.715  10.297  0.3917  0.5143 -0.3983
  300MOL0     C39525   2.963   7.801  10.235  0.4602 -0.2214 -0.2970
  300MOL0     O39526   3.096   7.775  10.266 -0.5703 -0.1511 -0.5873
  300MOL0     C39527   3.205   7.857  10.212  0.3494  0.3033 -0.0114
  300MOL0     C39528   3.330   7.776  10.173 -0.3832  0.0883 -0.2148
  300MOL0     C39529   3.435   7.881  10.126  0.3803 -0.5810  0.1329
  300MOL0     C39530   3.533   7.822  10.030  0.4091  0.3319  0.1066
  300MOL0     C39531   3.646   7.753  10.091  1.0125  0.2647 -0.7970
  300MOL0     C39532   3.742   7.704  10.133  0.9917  0.0608  0.3943
  300MOL0     C39533   2.911   7.889  10.139 -0.0802  0.1711  0.0130
  300MOL0     C39534   2.771   7.894  10.115 -0.4647 -0.5570 -0.6839
  300MOL0     H39535   2.254   7.842  10.194 -0.1058  0.7347  1.0479
  300MOL0     H39536   2.039   7.863  10.083  1.5670 -1.7739  1.7441
  300MOL0     H39537   1.853   7.834   9.921 -2.7524 -0.6614 -0.2090
  300MOL0     H39538   1.939   7.742   9.799 -1.9709  0.3975 -1.3598
  300MOL0     H39539   1.873   7.920   9.628 -0.2857 -0.5776 -0.1040
  300MOL0     H39540   1.745   7.958   9.758  1.5371  0.3912  1.6657
  300MOL0     H39541   1.788   7.686   9.642 -1.2286 -0.2976 -1.1236
  300MOL0     H39542   1.666   7.795   9.571 -3.3067  3.7808  2.0948
  300MOL0     H39543   1.687   7.689   9.853  0.5095  0.1912  0.2587
  300MOL0     H39544   1.566   7.805   9.800 -2.9891 -0.4789 -1.3650
  300MOL0     H39545   1.579   7.512   9.735  2.1398  1.7782  1.4491
  300MOL0     H39546   1.509   7.621   9.609 -1.2021  0.8233 -0.0643
  300MOL0     H39547   1.371   7.740   9.786  1.6756  1.3767 -0.0875
  300MOL0     H39548   1.399   7.619   9.904  3.4751  0.7959  0.4170
  300MOL0     H39549   1.198   7.587   9.771  0.3204  2.0579 -2.7438
  300MOL0     H39550   1.292   7.543   9.626  4.7078 -1.0006 -0.6532
  300MOL0     H39551   1.298   7.404   9.889 -0.2463  0.7007 -0.1052
  300MOL0     H39552   1.403   7.362   9.765 -0.9770 -2.1612 -0.6723
  300MOL0     H39553   1.294   7.133   9.695 -0.8517 -1.7161  1.4740
  300MOL0     H39554   0.935   7.010   9.622 -0.4275 -2.1726  0.3093
  300MOL0     H39555   1.096   6.942   9.682 -0.8210  1.1719  1.0316
  300MOL0     H39556   1.194   7.002   9.464  0.3701  0.1467  2.1990
  300MOL0     H39557   1.040   7.057   9.405  0.1702 -0.4724  0.3640
  300MOL0     H39558   1.134   6.820   9.325 -1.6219 -0.0415 -0.9392
  300MOL0     H39559   1.108   6.758   9.485  1.1690 -0.4700 -0.9838
  300MOL0     H39560   0.892   6.895   9.304 -1.5587 -2.4755 -3.2453
  300MOL0     H39561   0.855   6.796   9.453 -0.5710 -0.8495 -0.3466
  300MOL0     H39562   0.891   6.506   9.133 -0.5627 -0.4246  1.2685
  300MOL0     H39563   0.671   6.396   9.071 -1.0192  1.5582 -2.1185
  300MOL0     H39564   0.162   6.289   9.363  1.5883  2.9705  0.0339
  300MOL0     H39565  -0.086   6.248   9.305 -1.1748  2.2603 -1.0159
  300MOL0     H39566  -0.210   6.411   8.894  0.3479  2.1634  0.3147
  300MOL0     H39567  -0.280   6.499   9.033  4.4612  0.6245 -0.7503
  300MOL0     H39568  -0.366   6.241   8.894  2.1702  2.1586 -4.3628
  300MOL0     H39569  -0.435   6.408   8.874  0.4128  0.4193  0.6445
  300MOL0     H39570  -0.425   6.257   9.144  0.5256 -1.0691 -1.9974
  300MOL0     H39571  -0.549   6.238   9.025  1.1818 -1.0123 -0.7894
  300MOL0     H39572  -0.525   6.486   9.194  2.0108 -0.2651 -1.2450
  300MOL0     H39573  -0.589   6.499   9.023  1.5172 -1.1735 -2.0044
  300MOL0     H39574  -0.760   6.476   9.195  0.2185 -0.3310  2.5927
  300MOL0     H39575  -0.683   6.336   9.257  0.1607  1.5769  1.0770
  300MOL0     H39576  -0.870   6.267   9.161 -0.2902 -0.7632 -0.4909
  300MOL0     H39577  -0.747   6.199   9.072 -2.1144 -0.8277  1.8291
  300MOL0     H39578  -0.859   6.452   8.965  3.5031 -0.6469  3.9325
  300MOL0     H39579  -0.776   6.330   8.871 -0.9428 -2.7353 -0.0762
  300MOL0     H39580  -1.048   6.291   8.989 -0.7279  2.9474  0.5362
  300MOL0     H39581  -0.966   6.179   8.873  1.2540 -0.0352 -0.4193
  300MOL0     H39582  -0.029   6.491   8.959 -3.9002 -1.1696  0.5910
  300MOL0     H39583   0.227   6.527   9.034 -0.8135 -0.1127 -3.1105
  300MOL0     H39584   0.462   6.671   9.319  1.0319 -1.6101  1.0148
  300MOL0     H39585   0.684   6.769   9.393 -0.8688 -2.0021  1.4527
  300MOL0     H39586   2.226   8.023   9.726 -0.5964 -0.6864 -0.1011
  300MOL0     H39587   2.447   7.999   9.844  1.3448 -0.8677 -1.3774
  300MOL0     H39588   2.675   7.666  10.347  0.7591 -0.3806  1.3263
  300MOL0     H39589   2.920   7.649  10.369  0.1635  1.7793  0.9558
  300MOL0     H39590   3.241   7.930  10.286  1.8705 -1.4919  1.1196
  300MOL0     H39591   3.174   7.910  10.122 -0.1054 -1.6829 -1.0699
  300MOL0     H39592   3.366   7.711  10.253  0.0772 -0.0084 -0.4942
  300MOL0     H39593   3.302   7.711  10.089  0.3669 -1.1981  0.5092
  300MOL0     H39594   3.491   7.936  10.202  1.8154  2.9896 -3.1612
  300MOL0     H39595   3.380   7.963  10.081  3.3297  0.9001 -1.0546
  300MOL0     H39596   3.480   7.762   9.956  0.2549 -1.4634  1.6111
  300MOL0     H39597   3.586   7.904   9.980  0.6328  0.9258  1.2777
  300MOL0     H39598   3.834   7.663  10.171  1.6895  1.1302 -0.0822
  300MOL0     H39599   2.960   7.972  10.089 -0.5436  0.4163 -0.0401
  300MOL0     H39600   2.720   7.962  10.047  0.5121 -0.8809 -1.7724
  301MOL0     O39601   6.282   8.183   4.274  0.3307  0.3430 -0.4733
  301MOL0     C39602   6.294   8.141   4.164 -0.5298  0.5871  0.2896
  301MOL0     O39603   6.192   8.135   4.071 -0.0644  0.2086  0.0688
  301MOL0     C39604   6.059   8.183   4.092  0.0063 -0.4373  0.2919
  301MOL0     C39605   5.970   8.148   3.994 -0.8541 -0.7905 -0.2222
  301MOL0     C39606   5.838   8.176   3.991 -0.7384  0.5128  1.2257
  301MOL0     C39607   5.785   8.267   4.088 -0.4353 -0.5053  0.7383
  301MOL0     O39608   5.654   8.294   4.107  0.4527  0.2452 -0.5710
  301MOL0     C39609   5.547   8.249   4.019  0.2692  0.6879 -0.3949
  301MOL0     C39610   5.498   8.113   4.073 -0.1873 -0.6281  0.0947
  301MOL0     C39611   5.432   8.138   4.209 -0.6808  0.4111  0.5584
  301MOL0     C39612   5.341   8.033   4.249  1.2130  0.6836  0.0857
  301MOL0     C39613   5.303   8.045   4.398  0.6587 -0.3563  0.6004
  301MOL0     C39614   5.200   8.157   4.422 -0.8286  0.0969 -0.3431
  301MOL0     C39615   5.155   8.164   4.574  0.5947 -0.4892  0.4068
  301MOL0     C39616   5.079   8.296   4.597  0.6211  0.1974 -0.1430
  301MOL0     N39617   4.954   8.303   4.520 -0.0412 -0.8436 -0.4041
  301MOL0     C39618   4.845   8.222   4.538 -0.6286  0.2462  0.9345
  301MOL0     C39619   4.743   8.269   4.459 -0.7920 -0.3623 -0.2023
  301MOL0     C39620   4.612   8.200   4.434 -0.2548 -0.9359  0.2679
  301MOL0     C39621   4.549   8.245   4.300  0.0881 -1.0086 -0.9054
  301MOL0     C39622   4.407   8.181   4.285 -0.0741 -0.3909  0.4199
  301MOL0     C39623   4.331   8.258   4.177 -0.0188 -0.0519  1.1462
  301MOL0     O39624   4.197   8.202   4.169  0.5465 -0.6589  0.5481
  301MOL0     C39625   4.144   8.202   4.039  0.2432 -0.2014 -0.1936
  301MOL0     C39626   4.155   8.310   3.951 -0.4718  0.2233  0.1023
  301MOL0     C39627   4.088   8.318   3.829  0.5954 -0.4354 -0.1063
  301MOL0     C39628   3.999   8.219   3.784 -0.1132  0.9124 -0.0710
  301MOL0     C39629   3.935   8.233   3.646  0.3250  0.6681  0.4756
  301MOL0     O39630   3.979   8.339   3.566 -0.5880  0.2417 -0.6477
  301MOL0     C39631   3.915   8.363   3.450 -0.5931 -0.0395 -0.1418
  301MOL0     C39632   3.823   8.477   3.452  0.2373  0.1436  0.3882
  301MOL0     C39633   3.745   8.495   3.327 -0.8057  0.6991 -0.6946
  301MOL0     C39634   3.781   8.426   3.210 -0.6212 -0.2546  0.5619
  301MOL0     O39635   3.712   8.437   3.093 -1.0469 -0.7679  0.2328
  301MOL0     C39636   3.669   8.566   3.052  0.2616  0.4970  0.1263
  301MOL0     C39637   3.788   8.660   3.025 -0.0889 -0.0540  0.2040
  301MOL0     C39638   3.839   8.657   2.882  0.3861 -0.3099  0.1125
  301MOL0     C39639   3.941   8.778   2.854  0.3697 -0.5838 -0.3303
  301MOL0     C39640   3.946   8.810   2.701  0.3864 -0.1659 -0.1090
  301MOL0     C39641   4.019   8.945   2.672 -0.1290  0.7351 -0.5630
  301MOL0     C39642   4.160   8.945   2.744  0.3239 -0.8071 -0.0041
  301MOL0     C39643   4.245   9.066   2.711  0.9591 -0.1163  0.4784
  301MOL0    Cl39644   4.200   9.225   2.768 -0.8041 -0.2408  0.1938
  301MOL0     C39645   3.883   8.329   3.214  0.1603 -0.4205 -0.2283
  301MOL0     C39646   3.943   8.291   3.336  0.7655 -0.0915 -0.3014
  301MOL0     O39647   3.838   8.158   3.621 -0.2067 -0.1998 -0.4607
  301MOL0     C39648   3.989   8.109   3.871 -0.2103 -0.5683  0.7506
  301MOL0     C39649   4.063   8.097   3.997  1.1057 -0.3065 -0.8240
  301MOL0     N39650   4.774   8.401   4.421  0.3069 -0.3956 -0.3510
  301MOL0     N39651   4.902   8.408   4.457  0.4069  0.4371  0.2116
  301MOL0     C39652   5.876   8.316   4.190  0.3936 -0.1262  0.0569
  301MOL0     C39653   6.007   8.275   4.195 -0.5535  0.7448 -0.8376
  301MOL0     C39654   6.433   8.121   4.115 -0.6634  0.5952  0.7481
  301MOL0     C39655   6.548   8.141   4.189 -0.6335 -0.6988 -0.0709
  301MOL0     C39656   6.678   8.121   4.135 -0.6599  0.5810  0.6424
  301MOL0     C39657   6.694   8.070   4.009  0.8115  0.0724  0.2084
  301MOL0     O39658   6.808   8.058   3.937  0.1685 -0.4624 -0.0467
  301MOL0     C39659   6.938   8.099   3.989 -0.2956  0.0788 -0.1545
  301MOL0     C39660   7.019   7.995   4.072 -0.0828 -0.4135 -0.3276
  301MOL0     C39661   7.178   8.022   4.077  0.0639  0.0638 -0.0700
  301MOL0     C39662   7.266   7.929   4.150  0.8082  0.8772 -0.7894
  301MOL0     C39663   7.247   7.788   4.112  0.8560 -0.8401 -0.7692
  301MOL0     C39664   7.231   7.670   4.088  0.4469 -0.4645 -0.5063
  301MOL0     C39665   6.581   8.038   3.935  1.1070 -0.9013  0.1496
  301MOL0     C39666   6.450   8.059   3.984  0.1260 -0.4276 -0.1686
  301MOL0     H39667   6.019   8.078   3.927  2.8043  1.0318  0.2967
  301MOL0     H39668   5.776   8.135   3.912 -0.9889  2.9915  0.0427
  301MOL0     H39669   5.592   8.243   3.919  1.0676 -3.3534  0.0453
  301MOL0     H39670   5.467   8.323   4.010  0.7923  1.2092 -0.8393
  301MOL0     H39671   5.568   8.031   4.085 -0.2515 -1.0803 -2.2524
  301MOL0     H39672   5.412   8.076   4.017 -1.8275 -0.0531  2.0870
  301MOL0     H39673   5.379   8.234   4.209  1.9063  2.0888  4.5647
  301MOL0     H39674   5.506   8.151   4.288 -3.1750  0.2884  3.1066
  301MOL0     H39675   5.253   8.039   4.185  1.8701  0.9495 -0.8101
  301MOL0     H39676   5.379   7.932   4.229 -1.9118 -0.4162 -0.8434
  301MOL0     H39677   5.381   8.061   4.473  0.8852  0.5279  0.1932
  301MOL0     H39678   5.250   7.955   4.427  1.2604 -1.0500 -0.3811
  301MOL0     H39679   5.112   8.163   4.357  1.3098  4.0962 -3.3459
  301MOL0     H39680   5.262   8.244   4.402 -1.7108  0.4126 -1.8667
  301MOL0     H39681   5.097   8.076   4.605  1.5903 -0.3723  2.7965
  301MOL0     H39682   5.250   8.165   4.628  1.5318  1.7898 -1.1262
  301MOL0     H39683   5.136   8.387   4.575  2.4162  0.0935  3.3453
  301MOL0     H39684   5.038   8.310   4.698  0.1426 -2.9491  0.2175
  301MOL0     H39685   4.839   8.128   4.592 -1.0846  1.0378  2.3083
  301MOL0     H39686   4.537   8.221   4.511 -2.0231 -0.4145 -1.5136
  301MOL0     H39687   4.639   8.094   4.431  1.5547 -0.4822 -1.5824
  301MOL0     H39688   4.610   8.211   4.216  2.3858 -2.2269  1.1289
  301MOL0     H39689   4.535   8.352   4.287  0.3992 -0.5085  2.1768
  301MOL0     H39690   4.421   8.077   4.254  0.6770  0.1846 -1.2560
  301MOL0     H39691   4.349   8.176   4.378 -1.0863 -0.6768 -0.2026
  301MOL0     H39692   4.381   8.256   4.079 -1.5760 -0.2401  0.3200
  301MOL0     H39693   4.325   8.363   4.208  1.2388  0.5147 -0.3408
  301MOL0     H39694   4.207   8.397   3.989  0.7664 -0.6683  0.5341
  301MOL0     H39695   4.107   8.410   3.776  0.8718 -2.5771 -4.1100
  301MOL0     H39696   3.806   8.527   3.547  2.8674  0.6181  0.6790
  301MOL0     H39697   3.671   8.572   3.343  0.1620  1.3217  1.1595
  301MOL0     H39698   3.612   8.613   3.133  0.3274 -0.2181  0.5923
  301MOL0     H39699   3.604   8.558   2.965 -0.2713  5.1094 -0.1477
  301MOL0     H39700   3.860   8.659   3.106  0.3356  1.1228 -0.1371
  301MOL0     H39701   3.735   8.755   3.022  0.1651  0.1412  1.5007
  301MOL0     H39702   3.750   8.675   2.822  0.4994 -1.3222 -0.3800
  301MOL0     H39703   3.892   8.567   2.848  0.6929 -0.2412  0.3982
  301MOL0     H39704   3.902   8.867   2.903  0.7932  1.5780 -3.5559
  301MOL0     H39705   4.034   8.746   2.902 -0.4926  0.6899  2.3193
  301MOL0     H39706   3.845   8.813   2.661  0.1718  0.4135  0.4525
  301MOL0     H39707   3.992   8.730   2.642  0.1548 -1.5650  1.5219
  301MOL0     H39708   3.956   9.034   2.684 -2.0573  0.0461 -4.2397
  301MOL0     H39709   4.048   8.935   2.567 -0.1132  0.2596 -0.5167
  301MOL0     H39710   4.161   8.942   2.853 -2.5418 -1.5311  0.0831
  301MOL0     H39711   4.212   8.857   2.706  2.2145 -0.6589  2.0358
  301MOL0     H39712   4.247   9.082   2.603  3.2108  0.0905  0.4938
  301MOL0     H39713   4.347   9.046   2.746  1.8103  3.2891  0.2584
  301MOL0     H39714   3.924   8.284   3.124  1.0795  1.2781 -0.7047
  301MOL0     H39715   4.007   8.204   3.346 -1.6981 -1.7479  2.6697
  301MOL0     H39716   3.919   8.027   3.859  1.0943 -1.9658  2.2650
  301MOL0     H39717   4.020   8.038   4.077 -5.0195  0.6637 -2.8215
  301MOL0     H39718   5.849   8.376   4.277 -1.3157  0.8264 -1.0626
  301MOL0     H39719   6.051   8.301   4.291  0.3074 -0.8262 -0.7729
  301MOL0     H39720   6.535   8.191   4.284  2.0445  1.7007 -0.8105
  301MOL0     H39721   6.764   8.148   4.196  1.4992 -1.8025 -1.1476
  301MOL0     H39722   6.933   8.198   4.035 -2.6406  0.4992 -1.1824
  301MOL0     H39723   6.992   8.122   3.897  0.8950 -0.4185  0.3967
  301MOL0     H39724   6.965   7.983   4.167 -1.0812  1.8279 -0.5432
  301MOL0     H39725   7.013   7.893   4.033  0.1402 -0.8325  0.7037
  301MOL0     H39726   7.197   8.115   4.131  2.2358 -1.3604  1.8157
  301MOL0     H39727   7.226   8.024   3.979  0.0643  0.3304 -0.0657
  301MOL0     H39728   7.368   7.965   4.133  1.2949 -0.5358 -0.9732
  301MOL0     H39729   7.253   7.941   4.258 -1.6801 -3.4151 -0.3975
  301MOL0     H39730   7.219   7.566   4.064  0.7986 -1.7727  4.0132
  301MOL0     H39731   6.605   8.012   3.832 -2.5227 -1.4507 -0.7010
  301MOL0     H39732   6.368   8.038   3.916  0.5429  1.3381 -1.2613
  302MOL0     O39733   8.466   7.874  10.445 -0.0177  0.0113 -0.8433
  302MOL0     C39734   8.571   7.826  10.395  0.6686 -0.0423  0.2156
  302MOL0     O39735   8.594   7.819  10.261 -0.3288  0.1626 -0.3639
  302MOL0     C39736   8.502   7.857  10.176  0.6303  0.3089 -0.1056
  302MOL0     C39737   8.470   7.777  10.059 -0.1910 -0.3572  0.0905
  302MOL0     C39738   8.388   7.824   9.962 -0.8000 -0.9399 -0.1893
  302MOL0     C39739   8.325   7.951   9.970  0.6519  0.2330  0.7392
  302MOL0     O39740   8.238   7.973   9.873 -0.0438 -0.8700  0.5010
  302MOL0     C39741   8.193   8.109   9.851  0.4103 -0.3421 -0.3410
  302MOL0     C39742   8.086   8.142   9.952 -0.5488  0.5474 -0.5037
  302MOL0     C39743   7.961   8.089   9.893  0.9783  0.7999 -0.0616
  302MOL0     C39744   7.827   8.121   9.979 -0.4530 -0.0871  0.4547
  302MOL0     C39745   7.695   8.143   9.897 -1.2095 -0.3941 -0.1525
  302MOL0     C39746   7.644   8.006   9.845 -0.7960 -0.2343  0.1624
  302MOL0     C39747   7.533   8.020   9.732  0.0973  0.0303 -0.0847
  302MOL0     C39748   7.449   7.896   9.711  0.1254 -0.4252  0.4374
  302MOL0     N39749   7.387   7.889   9.575  0.5079 -0.1115 -0.1929
  302MOL0     C39750   7.264   7.956   9.540 -1.0743 -1.0030 -0.4690
  302MOL0     C39751   7.250   7.942   9.409  0.3954  0.7216  0.6305
  302MOL0     C39752   7.130   7.979   9.326 -1.0925  0.3438 -0.8841
  302MOL0     C39753   7.018   7.869   9.323  0.0013 -0.1570  0.5139
  302MOL0     C39754   6.909   7.921   9.229 -0.2584  0.1683 -0.3821
  302MOL0     C39755   6.799   7.825   9.207  0.1303  0.8370  0.0790
  302MOL0     O39756   6.781   7.719   9.308  0.1083  0.4397 -0.3274
  302MOL0     C39757   6.692   7.612   9.291  0.3554  0.2677 -0.1724
  302MOL0     C39758   6.611   7.577   9.395  0.3184  0.3265  0.2489
  302MOL0     C39759   6.521   7.471   9.375  0.1405 -0.3821  0.4816
  302MOL0     C39760   6.515   7.389   9.261  0.0131 -0.4968 -0.5843
  302MOL0     C39761   6.420   7.273   9.251 -0.6962  1.6649 -0.2643
  302MOL0     O39762   6.447   7.200   9.142  0.0335 -0.0092 -0.2884
  302MOL0     C39763   6.394   7.083   9.115 -0.1750 -0.9105  0.1196
  302MOL0     C39764   6.377   7.059   8.986 -0.4571  0.1509 -0.1370
  302MOL0     C39765   6.322   6.940   8.937 -0.1247  1.4560  0.6040
  302MOL0     C39766   6.288   6.842   9.026 -0.0534 -0.2045 -0.6480
  302MOL0     O39767   6.210   6.738   8.992 -0.3997  0.1249 -0.0189
  302MOL0     C39768   6.138   6.742   8.865  0.1838 -0.0768 -0.8620
  302MOL0     C39769   6.025   6.631   8.884 -0.3644 -0.2301 -0.5342
  302MOL0     C39770   6.079   6.510   8.810  1.0822  0.4328  0.9125
  302MOL0     C39771   5.968   6.406   8.793  0.3994  0.0769  0.1214
  302MOL0     C39772   6.017   6.297   8.693  0.3417  0.3607  0.4005
  302MOL0     C39773   5.915   6.197   8.663  0.1937 -0.7686  0.4896
  302MOL0     C39774   5.782   6.242   8.590 -0.7125 -0.4586  0.8703
  302MOL0     C39775   5.669   6.200   8.678 -0.2697  0.1690 -0.0082
  302MOL0    Cl39776   5.519   6.252   8.588  0.3269 -0.2139  0.3125
  302MOL0     C39777   6.321   6.860   9.163  0.1281  0.4054 -0.6230
  302MOL0     C39778   6.372   6.980   9.208  0.8769  0.4327  0.4845
  302MOL0     O39779   6.337   7.246   9.339 -0.8207 -0.5022 -0.7072
  302MOL0     C39780   6.607   7.417   9.163 -0.6777 -0.9944 -0.4246
  302MOL0     C39781   6.695   7.529   9.169  0.3533 -0.2963 -0.2198
  302MOL0     N39782   7.359   7.876   9.355 -0.8098 -0.6641  0.2095
  302MOL0     N39783   7.436   7.845   9.454 -0.2711 -0.1582 -0.3072
  302MOL0     C39784   8.366   8.038  10.072 -1.1436  0.3889  0.4711
  302MOL0     C39785   8.460   7.988  10.167  0.2641 -0.6623  0.6171
  302MOL0     C39786   8.653   7.740  10.480  0.8005  0.9932 -0.4076
  302MOL0     C39787   8.760   7.667  10.430 -0.6389 -0.1274 -0.2475
  302MOL0     C39788   8.847   7.589  10.513  0.0627 -0.6431 -0.2211
  302MOL0     C39789   8.827   7.574  10.647 -0.3170 -0.6968 -0.1855
  302MOL0     O39790   8.908   7.480  10.711  0.6928  0.1499  0.0029
  302MOL0     C39791   8.872   7.440  10.843  1.5230 -0.0303 -0.0130
  302MOL0     C39792   8.916   7.547  10.946  0.5862  0.3710 -0.7502
  302MOL0     C39793   8.960   7.490  11.090  0.1748 -0.4718  0.2828
  302MOL0     C39794   9.032   7.598  11.177 -0.0843  0.9408 -0.4388
  302MOL0     C39795   9.079   7.524  11.299  0.3013 -0.5209  0.1736
  302MOL0     C39796   9.106   7.458  11.399 -1.3937 -0.7855  0.1138
  302MOL0     C39797   8.717   7.638  10.702  0.6361  0.3609 -0.5802
  302MOL0     C39798   8.624   7.710  10.620  0.2482 -0.4263 -0.1558
  302MOL0     H39799   8.521   7.681  10.049 -2.2664 -1.7761  2.0207
  302MOL0     H39800   8.363   7.753   9.883 -1.8279 -1.4375  0.5600
  302MOL0     H39801   8.157   8.105   9.748  2.8826  0.8604 -1.3556
  302MOL0     H39802   8.271   8.185   9.862 -0.8502  0.7236  2.0837
  302MOL0     H39803   8.071   8.248   9.970  0.3905  0.1674  3.2811
  302MOL0     H39804   8.117   8.100  10.048  2.7386  1.2748 -1.1114
  302MOL0     H39805   7.978   7.981   9.899  0.0420  0.5907 -0.9349
  302MOL0     H39806   7.939   8.123   9.792 -1.9827  0.8049  0.4921
  302MOL0     H39807   7.807   8.043  10.053  2.5959 -0.7495  0.6902
  302MOL0     H39808   7.852   8.209  10.039  3.3957 -1.3151  0.8662
  302MOL0     H39809   7.721   8.215   9.819 -1.2476  0.9673  1.0503
  302MOL0     H39810   7.620   8.190   9.962 -1.1289 -0.5387  0.0471
  302MOL0     H39811   7.605   7.946   9.927 -2.4519 -3.2073 -2.5694
  302MOL0     H39812   7.726   7.948   9.802  0.9690  0.8895  1.8511
  302MOL0     H39813   7.469   8.107   9.750 -2.7631 -1.2588 -3.0280
  302MOL0     H39814   7.583   8.050   9.640  2.0602 -1.3347  0.4813
  302MOL0     H39815   7.368   7.878   9.783  0.2917  1.1087  1.0312
  302MOL0     H39816   7.514   7.809   9.728 -1.8495 -1.2915  5.0805
  302MOL0     H39817   7.201   7.995   9.619 -1.3354 -1.8472 -0.2415
  302MOL0     H39818   7.167   8.014   9.230 -0.8282 -0.0473 -0.9247
  302MOL0     H39819   7.073   8.062   9.370 -1.1749  1.6657 -3.3243
  302MOL0     H39820   6.979   7.844   9.423  0.9956  2.2796  1.6085
  302MOL0     H39821   7.063   7.775   9.290 -0.2121 -0.2727  0.5506
  302MOL0     H39822   6.860   8.007   9.274 -3.2609 -1.3601 -0.4992
  302MOL0     H39823   6.944   7.941   9.127 -0.6132 -3.2600 -1.3241
  302MOL0     H39824   6.830   7.782   9.111 -2.4956  1.3557 -1.0713
  302MOL0     H39825   6.707   7.879   9.182 -2.1149 -0.7795  3.9561
  302MOL0     H39826   6.584   7.642   9.478  3.7876  1.6950  0.4740
  302MOL0     H39827   6.442   7.446   9.446  0.6063  1.8083  1.8547
  302MOL0     H39828   6.411   7.145   8.929  2.8517  0.9528  2.6580
  302MOL0     H39829   6.310   6.925   8.830  2.8451  0.6403  0.2866
  302MOL0     H39830   6.216   6.719   8.791  3.3296  0.4760  2.0333
  302MOL0     H39831   6.091   6.840   8.867  1.1933  0.6888  5.2336
  302MOL0     H39832   5.930   6.666   8.842 -1.2730 -0.9736  0.8487
  302MOL0     H39833   6.020   6.608   8.991  3.3537  3.2931  0.6359
  302MOL0     H39834   6.161   6.462   8.863  1.2197  0.6779  0.9244
  302MOL0     H39835   6.119   6.537   8.711  2.0233 -1.4060  0.7576
  302MOL0     H39836   5.952   6.353   8.888  0.6104 -0.7292 -0.2823
  302MOL0     H39837   5.880   6.459   8.758  0.3288  1.2899  2.0199
  302MOL0     H39838   6.113   6.253   8.724  0.7631  0.0916 -1.2052
  302MOL0     H39839   6.044   6.338   8.595 -0.2438 -1.2727 -0.4858
  302MOL0     H39840   5.892   6.156   8.762  2.9996 -5.7174 -0.5367
  302MOL0     H39841   5.963   6.112   8.613 -2.5944 -2.6233  0.7269
  302MOL0     H39842   5.774   6.351   8.583 -0.2664 -0.5244 -1.7210
  302MOL0     H39843   5.783   6.193   8.492  1.8606 -3.7390  2.3149
  302MOL0     H39844   5.678   6.259   8.770 -1.4116  1.3651 -0.6143
  302MOL0     H39845   5.663   6.093   8.700  0.7869 -0.0146 -0.5846
  302MOL0     H39846   6.293   6.781   9.232 -2.4196  0.3505 -1.6039
  302MOL0     H39847   6.406   6.982   9.311 -1.9720  2.0792  1.5029
  302MOL0     H39848   6.607   7.376   9.062 -1.2769  2.2918 -1.8756
  302MOL0     H39849   6.758   7.562   9.087  0.1342 -1.9476 -1.0835
  302MOL0     H39850   8.328   8.139  10.075  1.5257  1.5518 -1.0404
  302MOL0     H39851   8.511   8.055  10.236  1.3233 -0.5001 -0.3072
  302MOL0     H39852   8.805   7.684  10.332  0.2033  0.1556  0.1825
  302MOL0     H39853   8.935   7.539  10.474  2.2316  2.2075  0.7014
  302MOL0     H39854   8.938   7.355  10.861  2.5448  0.1486 -2.5412
  302MOL0     H39855   8.765   7.417  10.848  1.0557  1.5945 -1.4973
  302MOL0     H39856   9.002   7.601  10.907  0.9978  1.1313  1.1009
  302MOL0     H39857   8.838   7.623  10.954 -0.8603 -0.8993 -2.1095
  302MOL0     H39858   9.037   7.413  11.081  3.1909  1.8642  3.4285
  302MOL0     H39859   8.875   7.458  11.150  0.7883  1.6696  2.4767
  302MOL0     H39860   9.116   7.643  11.122  0.2749  0.4331 -0.3093
  302MOL0     H39861   8.961   7.677  11.203 -2.9596 -2.1486  1.9066
  302MOL0     H39862   9.120   7.404  11.490 -2.6696  1.3668  1.6695
  302MOL0     H39863   8.715   7.636  10.810  3.1933  0.7412 -0.4455
  302MOL0     H39864   8.541   7.742  10.683  0.5303  0.9615 -0.4522
  303MOL0     O39865   8.044  10.273   2.158  0.6044 -0.9285 -0.0050
  303MOL0     C39866   7.951  10.359   2.174 -0.1612  0.6988  0.1138
  303MOL0     O39867   7.828  10.361   2.108  0.1553  0.3372 -0.3231
  303MOL0     C39868   7.780  10.242   2.051 -0.4538 -0.3035  0.3813
  303MOL0     C39869   7.763  10.116   2.113  0.8109  0.3097  0.2701
  303MOL0     C39870   7.711  10.007   2.044 -0.7732  0.1350 -0.7771
  303MOL0     C39871   7.659  10.026   1.924 -0.0582 -0.8575 -0.8359
  303MOL0     O39872   7.581   9.936   1.858 -1.1875  0.1417 -0.7433
  303MOL0     C39873   7.636   9.899   1.730  0.0596  0.8908 -0.6441
  303MOL0     C39874   7.605   9.748   1.704 -0.3232  0.8195 -0.1531
  303MOL0     C39875   7.459   9.726   1.655  0.2139  0.2383  0.6935
  303MOL0     C39876   7.455   9.580   1.605  0.6590  0.5187 -0.4863
  303MOL0     C39877   7.323   9.514   1.580 -0.6343  1.4278 -0.7122
  303MOL0     C39878   7.241   9.563   1.470 -0.1802 -1.0086 -0.2406
  303MOL0     C39879   7.110   9.492   1.446 -0.0777 -0.2123  0.2151
  303MOL0     C39880   7.023   9.484   1.567  0.2744 -0.4051  0.4724
  303MOL0     N39881   6.896   9.425   1.527 -0.7067  0.1521 -0.4023
  303MOL0     C39882   6.876   9.295   1.534  0.3123  0.4063  0.3066
  303MOL0     C39883   6.746   9.267   1.499  0.0370  0.0837 -1.2196
  303MOL0     C39884   6.670   9.139   1.513  0.2543  0.2360  0.2591
  303MOL0     C39885   6.619   9.073   1.384 -0.0671  1.0911  0.0484
  303MOL0     C39886   6.521   9.142   1.296 -0.0633 -0.1882  0.4429
  303MOL0     C39887   6.386   9.169   1.362  0.7804 -0.4513 -0.0097
  303MOL0     O39888   6.330   9.065   1.447  0.4881  0.1676  0.0619
  303MOL0     C39889   6.193   9.037   1.439 -0.2661 -1.0683 -0.5376
  303MOL0     C39890   6.126   8.982   1.547 -0.4879 -1.7365  0.1744
  303MOL0     C39891   5.994   8.956   1.557  0.3936 -0.0461 -1.0992
  303MOL0     C39892   5.904   8.984   1.455 -0.2720 -0.0345  1.0374
  303MOL0     C39893   5.763   8.935   1.466 -0.9588 -0.7964 -0.5324
  303MOL0     O39894   5.719   8.857   1.574 -1.0382  0.8763 -0.2121
  303MOL0     C39895   5.606   8.782   1.577 -0.0571  1.1128 -0.0002
  303MOL0     C39896   5.496   8.781   1.488 -0.6233 -0.5920  0.3313
  303MOL0     C39897   5.393   8.693   1.506 -0.1879  0.7038  0.5864
  303MOL0     C39898   5.389   8.605   1.611  0.5258  0.0201 -0.9446
  303MOL0     O39899   5.275   8.541   1.651 -0.1854  0.5953 -0.7061
  303MOL0     C39900   5.147   8.602   1.649 -0.3027 -0.7165  0.4985
  303MOL0     C39901   5.023   8.508   1.649  0.2241 -0.4597 -0.3045
  303MOL0     C39902   5.026   8.420   1.520  0.0839  0.6789  0.2161
  303MOL0     C39903   4.903   8.337   1.496  0.4319 -0.2717 -0.9429
  303MOL0     C39904   4.920   8.226   1.384 -0.0773 -0.3924 -0.1707
  303MOL0     C39905   4.777   8.171   1.339  0.8535  1.0562 -0.0130
  303MOL0     C39906   4.783   8.081   1.213 -0.5541 -0.0165  0.3171
  303MOL0     C39907   4.644   8.056   1.148 -0.8057 -0.4961  0.1085
  303MOL0    Cl39908   4.528   7.992   1.262  0.1070  0.3149 -0.1626
  303MOL0     C39909   5.500   8.599   1.698  0.3123 -0.1311 -0.9613
  303MOL0     C39910   5.608   8.685   1.676 -0.0390  0.3727 -0.4918
  303MOL0     O39911   5.701   8.968   1.368  0.3841  1.4228  0.3120
  303MOL0     C39912   5.974   9.055   1.347 -0.5074 -0.0536 -0.0321
  303MOL0     C39913   6.111   9.065   1.333  0.0634  0.3300 -0.4313
  303MOL0     N39914   6.695   9.390   1.464 -0.1300 -0.3596  0.7357
  303MOL0     N39915   6.785   9.487   1.477  0.0319  0.7079 -0.5103
  303MOL0     C39916   7.665  10.154   1.860  0.9956  0.3175 -0.1449
  303MOL0     C39917   7.725  10.254   1.925 -0.6152 -0.7232 -1.3234
  303MOL0     C39918   7.987  10.482   2.253 -0.5287  0.0461  0.0429
  303MOL0     C39919   8.009  10.613   2.195 -0.3566 -0.6746  0.3439
  303MOL0     C39920   8.042  10.728   2.265 -0.6809  0.7696 -0.4137
  303MOL0     C39921   8.057  10.728   2.404 -0.0420 -0.6925  0.3352
  303MOL0     O39922   8.105  10.842   2.464 -0.0484  0.3433 -0.2967
  303MOL0     C39923   8.134  10.844   2.607 -0.9880  0.0716  0.6712
  303MOL0     C39924   8.001  10.879   2.680 -0.8202 -0.2268 -0.0306
  303MOL0     C39925   8.015  10.894   2.828  0.4572  0.5024  0.4024
  303MOL0     C39926   8.081  11.031   2.861 -0.3209 -0.2164 -0.3829
  303MOL0     C39927   8.083  11.057   3.008  0.1734 -0.3480 -0.2874
  303MOL0     C39928   8.096  11.086   3.125  0.7930  1.1337 -1.0755
  303MOL0     C39929   8.024  10.604   2.466  0.4676  0.7994  0.2025
  303MOL0     C39930   8.013  10.476   2.396  0.2500 -1.0836  0.3306
  303MOL0     H39931   7.812  10.087   2.206 -1.6026 -1.1665  1.1566
  303MOL0     H39932   7.702   9.902   2.070 -3.9040  0.1262 -1.5007
  303MOL0     H39933   7.745   9.910   1.727  0.3082 -0.2238  1.7693
  303MOL0     H39934   7.603   9.950   1.639 -1.2384  1.6220  0.2012
  303MOL0     H39935   7.621   9.686   1.792  0.4226  0.2996 -0.6468
  303MOL0     H39936   7.672   9.710   1.627 -0.6967  1.0076 -0.5752
  303MOL0     H39937   7.430   9.795   1.575  1.4691  0.1345  0.1271
  303MOL0     H39938   7.387   9.757   1.731  2.0296  3.2469  1.3615
  303MOL0     H39939   7.511   9.586   1.511 -1.0669 -0.5708 -1.6612
  303MOL0     H39940   7.500   9.519   1.684 -3.0218  0.4919  1.8208
  303MOL0     H39941   7.272   9.493   1.675 -1.0231 -0.7646 -1.3425
  303MOL0     H39942   7.364   9.417   1.551 -0.1742  0.7547  1.9299
  303MOL0     H39943   7.297   9.551   1.377  0.8203 -0.3704  0.2617
  303MOL0     H39944   7.219   9.669   1.489  0.8979 -1.1412  2.0874
  303MOL0     H39945   7.056   9.543   1.366 -0.8100  2.8782  2.4798
  303MOL0     H39946   7.116   9.385   1.421 -0.4174 -0.2956  0.4801
  303MOL0     H39947   6.992   9.586   1.594 -0.9875 -0.3545 -1.0412
  303MOL0     H39948   7.072   9.439   1.653  1.6967  0.8069  0.3348
  303MOL0     H39949   6.955   9.230   1.570  2.3391  3.1187  1.0217
  303MOL0     H39950   6.579   9.157   1.571  0.7868  1.4347  0.7672
  303MOL0     H39951   6.742   9.071   1.559  3.5526  0.6329 -3.7380
  303MOL0     H39952   6.576   8.976   1.408 -0.4868  1.7940  2.4077
  303MOL0     H39953   6.708   9.056   1.324 -0.4725  0.4105 -0.3754
  303MOL0     H39954   6.571   9.229   1.251  1.8233 -2.5177 -2.3836
  303MOL0     H39955   6.502   9.072   1.214 -1.8088  1.4711 -0.6679
  303MOL0     H39956   6.324   9.204   1.280  3.7558  2.0974 -1.3962
  303MOL0     H39957   6.390   9.262   1.421  0.5174 -0.1662 -0.4362
  303MOL0     H39958   6.181   8.961   1.638 -2.4164  1.2072  2.2088
  303MOL0     H39959   5.958   8.910   1.649  0.5018  2.2062  0.1416
  303MOL0     H39960   5.486   8.857   1.411  0.6376  0.8016  1.4763
  303MOL0     H39961   5.311   8.678   1.437  0.6160 -0.1097 -0.2237
  303MOL0     H39962   5.129   8.671   1.566 -0.3073  1.9550  2.5711
  303MOL0     H39963   5.145   8.656   1.744  2.4641 -1.8638  1.3147
  303MOL0     H39964   4.927   8.560   1.659  1.0316  1.0868 -0.3913
  303MOL0     H39965   5.025   8.439   1.734  2.2956  1.2439  1.1310
  303MOL0     H39966   5.109   8.350   1.531  0.6628  1.3936  0.4057
  303MOL0     H39967   5.045   8.481   1.432  1.8686 -2.1254 -1.5108
  303MOL0     H39968   4.882   8.288   1.592  0.3238 -0.4577 -1.0607
  303MOL0     H39969   4.815   8.395   1.468 -1.2010 -0.5578  2.8829
  303MOL0     H39970   4.996   8.155   1.417  0.7153  1.1237  1.4436
  303MOL0     H39971   4.956   8.278   1.295 -2.3346  1.8646  0.1185
  303MOL0     H39972   4.707   8.253   1.323  0.5566  0.3628 -2.8758
  303MOL0     H39973   4.726   8.106   1.411  0.4711  2.2322  0.7924
  303MOL0     H39974   4.852   8.134   1.147 -1.7355  3.1206  1.4511
  303MOL0     H39975   4.833   7.988   1.244  1.4795  1.2749  1.1275
  303MOL0     H39976   4.658   7.986   1.065 -0.9592  0.8937 -1.1359
  303MOL0     H39977   4.604   8.145   1.099 -1.2171 -1.7128 -1.8698
  303MOL0     H39978   5.511   8.519   1.771  0.7413  0.5929 -0.2093
  303MOL0     H39979   5.702   8.685   1.730  0.5790  1.9962 -1.4927
  303MOL0     H39980   5.912   9.106   1.273  0.0699 -0.3202 -0.7145
  303MOL0     H39981   6.146   9.120   1.246  0.1156  0.5632 -0.2655
  303MOL0     H39982   7.606  10.173   1.771 -0.0255 -0.3688  0.3550
  303MOL0     H39983   7.738  10.351   1.878 -0.5727 -0.2798 -0.4261
  303MOL0     H39984   8.017  10.627   2.088  2.2790 -2.3690  0.2423
  303MOL0     H39985   8.078  10.818   2.217  1.2186  1.4410  2.0822
  303MOL0     H39986   8.211  10.921   2.616  0.4593 -0.7992 -2.7259
  303MOL0     H39987   8.170  10.749   2.649  0.1226  0.8042  1.4340
  303MOL0     H39988   7.945  10.964   2.637 -1.1953 -1.6341 -2.5203
  303MOL0     H39989   7.931  10.797   2.663 -1.5062  0.0308  1.4439
  303MOL0     H39990   8.076  10.815   2.874  1.1215  0.0313 -1.2046
  303MOL0     H39991   7.917  10.888   2.876  0.4610 -0.2326  0.3419
  303MOL0     H39992   8.178  11.016   2.813 -1.1430 -2.4743 -1.4679
  303MOL0     H39993   8.028  11.110   2.806  0.4518 -0.8987 -2.1803
  303MOL0     H39994   8.113  11.111   3.228 -1.2966 -0.2843 -0.3054
  303MOL0     H39995   8.027  10.606   2.574 -0.0859  0.3359  0.2299
  303MOL0     H39996   7.994  10.379   2.441 -0.6927 -1.1511 -0.2028
  304MOL0     O39997   4.173   6.268   0.656  0.2189  0.1885  0.2815
  304MOL0     C39998   4.155   6.153   0.622 -0.0985 -0.2445 -0.3089
  304MOL0     O39999   4.032   6.089   0.618  0.4357 -0.2814  0.6442
  304MOL0     C40000   3.927   6.143   0.685  0.0075  0.8918  0.9603
  304MOL0     C40001   3.815   6.158   0.603 -0.9878 -0.3494 -0.1699
  304MOL0     C40002   3.700   6.207   0.659 -0.5205 -0.3646  0.2547
  304MOL0     C40003   3.693   6.252   0.794 -0.1012 -0.4076  0.1194
  304MOL0     O40004   3.572   6.310   0.834  0.3315 -0.0291 -0.5749
  304MOL0     C40005   3.551   6.302   0.976  0.2585 -0.0889 -0.7834
  304MOL0     C40006   3.418   6.370   1.027  0.1018 -0.1966 -0.2570
  304MOL0     C40007   3.409   6.375   1.180 -0.9505  0.1933 -0.1280
  304MOL0     C40008   3.522   6.446   1.249 -0.4293  0.2438  0.0890
  304MOL0     C40009   3.477   6.537   1.363 -0.1575 -0.6609 -1.0321
  304MOL0     C40010   3.424   6.463   1.487 -0.2319  0.1421 -0.0403
  304MOL0     C40011   3.382   6.558   1.602 -0.2536 -0.3092  0.2619
  304MOL0     C40012   3.340   6.462   1.715  0.3883  0.4154  0.2405
  304MOL0     N40013   3.287   6.544   1.816 -0.0185  0.0396 -0.4962
  304MOL0     C40014   3.157   6.591   1.826  0.4740  0.3868 -0.1703
  304MOL0     C40015   3.162   6.646   1.947 -0.5440 -0.1577 -0.0563
  304MOL0     C40016   3.058   6.718   2.007 -0.5235 -0.3504 -0.1877
  304MOL0     C40017   3.000   6.640   2.123  0.6410  0.1994  0.6597
  304MOL0     C40018   2.900   6.732   2.206 -0.4675  0.0409  0.2160
  304MOL0     C40019   2.872   6.685   2.354 -0.6883 -0.3765  0.0686
  304MOL0     O40020   2.985   6.707   2.448  1.0683  1.6247 -0.1800
  304MOL0     C40021   2.964   6.710   2.585 -1.0453  0.0344  0.0716
  304MOL0     C40022   2.841   6.679   2.656  0.3065  0.4393 -0.4976
  304MOL0     C40023   2.834   6.703   2.795 -0.4156 -0.7346  1.1286
  304MOL0     C40024   2.949   6.748   2.863  0.2299 -1.1319  0.3064
  304MOL0     C40025   2.951   6.787   3.009  0.0279 -0.4264  0.0486
  304MOL0     O40026   3.076   6.804   3.070 -0.5481 -0.9026 -0.2549
  304MOL0     C40027   3.095   6.834   3.204  0.6615  0.9390 -0.0140
  304MOL0     C40028   3.232   6.841   3.240  0.2024  0.2041  0.8585
  304MOL0     C40029   3.280   6.853   3.368 -0.2992 -0.1979  0.3769
  304MOL0     C40030   3.184   6.859   3.467 -0.5555 -0.1513 -0.6188
  304MOL0     O40031   3.213   6.909   3.591 -0.3527  0.5893  0.4069
  304MOL0     C40032   3.303   6.810   3.666  0.2048  0.5933  0.2581
  304MOL0     C40033   3.381   6.888   3.778  0.8341 -0.3529 -0.4651
  304MOL0     C40034   3.487   6.801   3.838 -0.2290 -0.4527 -0.0025
  304MOL0     C40035   3.427   6.717   3.947  0.9064  0.6956  0.0981
  304MOL0     C40036   3.520   6.615   4.004  0.2583  0.8712 -0.2677
  304MOL0     C40037   3.635   6.679   4.088  0.6419  0.6516 -0.1667
  304MOL0     C40038   3.581   6.715   4.230 -0.0850 -0.9032  0.0131
  304MOL0     C40039   3.687   6.744   4.347 -0.2412  0.6209 -0.0929
  304MOL0    Cl40040   3.821   6.638   4.349  0.4021 -0.1375 -0.1116
  304MOL0     C40041   3.043   6.856   3.439 -0.7380 -0.0416  0.7986
  304MOL0     C40042   2.997   6.827   3.307 -0.8063  0.5843  0.4386
  304MOL0     O40043   2.842   6.808   3.063 -0.0639 -0.2684 -0.2792
  304MOL0     C40044   3.077   6.766   2.798  0.5947  0.0408 -0.6491
  304MOL0     C40045   3.074   6.756   2.660 -1.1736 -0.0174  0.3176
  304MOL0     N40046   3.284   6.625   2.012 -0.2567 -0.8854 -0.6446
  304MOL0     N40047   3.362   6.565   1.932 -0.5068  0.1481 -0.0568
  304MOL0     C40048   3.809   6.228   0.876  0.6357 -1.4480 -1.1062
  304MOL0     C40049   3.927   6.173   0.819 -0.5146 -0.5395 -0.6519
  304MOL0     C40050   4.272   6.074   0.572 -0.0248 -0.4969  0.1403
  304MOL0     C40051   4.408   6.113   0.595  0.2706 -0.0078  0.0031
  304MOL0     C40052   4.507   6.024   0.564 -1.7404  0.9579  0.5006
  304MOL0     C40053   4.494   5.898   0.501  0.5263  0.2053 -0.8519
  304MOL0     O40054   4.612   5.834   0.472 -0.5043 -0.9841 -0.4827
  304MOL0     C40055   4.600   5.695   0.438 -0.5779  0.8473  0.0043
  304MOL0     C40056   4.744   5.622   0.437  0.0801 -0.1759  0.4528
  304MOL0     C40057   4.717   5.468   0.418 -0.0091  0.7962 -0.7244
  304MOL0     C40058   4.851   5.381   0.418  0.2490 -0.2387  0.4181
  304MOL0     C40059   4.957   5.425   0.509 -0.7425 -0.7587  0.3873
  304MOL0     C40060   5.018   5.456   0.611  0.5746  0.7197  0.8946
  304MOL0     C40061   4.362   5.866   0.460 -0.6974  0.7714  0.1908
  304MOL0     C40062   4.257   5.956   0.499 -0.9948 -0.0792 -0.6916
  304MOL0     H40063   3.807   6.143   0.496 -3.1508  2.0781 -0.4408
  304MOL0     H40064   3.619   6.232   0.591 -0.3842  2.8919  1.1452
  304MOL0     H40065   3.635   6.346   1.031 -0.6057  1.5834 -0.7376
  304MOL0     H40066   3.561   6.198   1.006  1.4489 -0.2273 -1.5851
  304MOL0     H40067   3.325   6.324   0.992  1.1601 -1.4045 -1.5900
  304MOL0     H40068   3.419   6.473   0.988  1.2371 -1.0522 -2.7004
  304MOL0     H40069   3.379   6.279   1.224 -0.0760  0.4044  0.9914
  304MOL0     H40070   3.318   6.433   1.200  0.3551  2.3767 -0.2056
  304MOL0     H40071   3.593   6.375   1.291 -0.6961 -0.5646 -0.7792
  304MOL0     H40072   3.585   6.489   1.171  0.1697 -1.2458 -0.2874
  304MOL0     H40073   3.402   6.606   1.325 -0.9864 -1.4869 -0.9342
  304MOL0     H40074   3.565   6.592   1.398 -0.8256 -2.3588  4.1827
  304MOL0     H40075   3.503   6.400   1.529  1.7947  2.0041 -0.8544
  304MOL0     H40076   3.339   6.407   1.448 -1.7294  3.5719 -2.1937
  304MOL0     H40077   3.475   6.609   1.626  0.1395  0.3837 -2.3961
  304MOL0     H40078   3.300   6.630   1.586 -2.6981 -2.2204  3.0575
  304MOL0     H40079   3.422   6.411   1.767 -0.1840  0.0159  0.7657
  304MOL0     H40080   3.266   6.385   1.695  0.0576  0.8188 -0.1169
  304MOL0     H40081   3.073   6.589   1.757 -0.1401  2.2786  0.4382
  304MOL0     H40082   2.987   6.747   1.928  3.8041  2.0712 -3.6259
  304MOL0     H40083   3.099   6.815   2.037 -1.1944  0.1070 -0.7118
  304MOL0     H40084   3.063   6.585   2.194 -2.4225 -3.1262  1.0649
  304MOL0     H40085   2.936   6.565   2.076  0.6765 -0.2266  1.2879
  304MOL0     H40086   2.934   6.836   2.215 -1.9341  0.9288 -3.1368
  304MOL0     H40087   2.804   6.739   2.156 -0.0281  1.4020 -0.4851
  304MOL0     H40088   2.845   6.580   2.345 -0.7783 -0.3991  0.5810
  304MOL0     H40089   2.788   6.737   2.401 -0.8054 -2.5866  2.4673
  304MOL0     H40090   2.754   6.652   2.597 -1.0714  6.3977 -1.8504
  304MOL0     H40091   2.744   6.688   2.854 -1.6952  1.5526 -0.0913
  304MOL0     H40092   3.307   6.834   3.162  2.8938 -0.1329  3.3189
  304MOL0     H40093   3.388   6.865   3.372 -0.3569  1.9124 -2.1292
  304MOL0     H40094   3.375   6.755   3.603 -0.1666 -0.7268  0.9506
  304MOL0     H40095   3.239   6.730   3.704 -1.4943  0.5670 -2.4323
  304MOL0     H40096   3.306   6.914   3.853  0.9533  0.0796 -0.4937
  304MOL0     H40097   3.421   6.984   3.743 -0.5482  2.4876  4.6988
  304MOL0     H40098   3.576   6.855   3.871  0.5024 -2.4406  1.5011
  304MOL0     H40099   3.522   6.732   3.761 -0.4250  0.2622 -0.7375
  304MOL0     H40100   3.408   6.790   4.026 -2.7831  1.7544 -1.5626
  304MOL0     H40101   3.340   6.657   3.919  2.2712 -1.9428  1.1177
  304MOL0     H40102   3.561   6.556   3.921  1.3391 -0.3039  1.0434
  304MOL0     H40103   3.476   6.533   4.061  1.1874 -0.2653 -1.1357
  304MOL0     H40104   3.684   6.766   4.042  0.4068  1.4536  1.0385
  304MOL0     H40105   3.701   6.596   4.113 -2.1641 -0.2069  6.5532
  304MOL0     H40106   3.504   6.793   4.227  0.3659 -0.4449  0.2828
  304MOL0     H40107   3.521   6.636   4.277 -1.4039  1.8840  3.5086
  304MOL0     H40108   3.633   6.745   4.442 -0.4442 -0.6260 -0.1737
  304MOL0     H40109   3.744   6.835   4.330  0.4000 -0.2675 -3.5659
  304MOL0     H40110   2.976   6.865   3.524 -1.2410  0.7682  0.3349
  304MOL0     H40111   2.889   6.815   3.301 -0.4547 -2.8069 -0.9396
  304MOL0     H40112   3.168   6.799   2.846  0.7608  0.5355 -1.2824
  304MOL0     H40113   3.169   6.775   2.611  0.7412  2.1513  4.3897
  304MOL0     H40114   3.806   6.252   0.982  0.7136  1.8745 -1.7579
  304MOL0     H40115   4.010   6.142   0.882 -2.0304  1.1725  2.4125
  304MOL0     H40116   4.420   6.204   0.653 -1.5673  0.8045 -0.8340
  304MOL0     H40117   4.605   6.051   0.602  1.1728 -0.0253 -5.2615
  304MOL0     H40118   4.552   5.679   0.342 -0.8691  0.5147  0.2040
  304MOL0     H40119   4.537   5.638   0.507  0.9904  0.7996  1.4714
  304MOL0     H40120   4.814   5.662   0.363 -2.1140  1.3017 -0.9434
  304MOL0     H40121   4.781   5.645   0.537 -3.0490 -1.2426  1.9698
  304MOL0     H40122   4.662   5.442   0.327 -1.7738  0.2514  0.4383
  304MOL0     H40123   4.658   5.431   0.503  1.4159 -0.6968 -0.3401
  304MOL0     H40124   4.819   5.278   0.437 -2.9489  0.9043  2.0994
  304MOL0     H40125   4.881   5.382   0.313 -1.9703  4.6449 -0.4696
  304MOL0     H40126   5.085   5.490   0.687 -0.3523  1.8757  1.2091
  304MOL0     H40127   4.333   5.780   0.401 -2.1189  0.3234  1.4842
  304MOL0     H40128   4.156   5.927   0.474 -1.2433  1.0891 -1.1039
  305MOL0     O40129   9.187   6.085   3.689 -1.1467  0.0492  0.5218
  305MOL0     C40130   9.155   6.013   3.598 -0.0089  0.2205  0.0150
  305MOL0     O40131   9.038   5.941   3.583 -0.0202 -0.7009  0.2760
  305MOL0     C40132   8.962   5.908   3.694 -1.2965  0.6950 -0.1801
  305MOL0     C40133   8.900   6.010   3.763  0.8456  0.2003 -0.3301
  305MOL0     C40134   8.829   5.981   3.877  1.1069 -0.4527 -0.3658
  305MOL0     C40135   8.815   5.849   3.925  0.1424 -0.9744  0.4135
  305MOL0     O40136   8.729   5.826   4.024 -0.6416 -1.8813  0.1239
  305MOL0     C40137   8.603   5.765   3.993 -0.3742  0.6286  0.6156
  305MOL0     C40138   8.486   5.859   3.996  0.4556 -0.9399  0.3456
  305MOL0     C40139   8.349   5.780   3.983 -1.1340  0.5908  0.5496
  305MOL0     C40140   8.234   5.877   3.968 -0.7535  0.5795 -0.2331
  305MOL0     C40141   8.100   5.816   3.966 -1.2220 -0.1828 -0.6303
  305MOL0     C40142   8.002   5.930   3.931 -0.1929 -0.5960  0.1945
  305MOL0     C40143   8.016   5.987   3.791  1.7203 -0.1259  0.0065
  305MOL0     C40144   7.885   6.052   3.741 -0.3129  1.1376 -0.6623
  305MOL0     N40145   7.906   6.100   3.600  0.0330 -0.1983 -0.1381
  305MOL0     C40146   7.830   6.208   3.544  0.6587 -0.6906 -0.1317
  305MOL0     C40147   7.882   6.237   3.425  0.1106  1.0292  0.1938
  305MOL0     C40148   7.841   6.345   3.334 -1.7158 -0.3206 -0.8303
  305MOL0     C40149   7.886   6.478   3.401  0.2309 -0.0059  0.0815
  305MOL0     C40150   7.787   6.588   3.376 -0.1115  0.1157  0.4971
  305MOL0     C40151   7.804   6.628   3.229  0.3269 -1.4413 -0.4017
  305MOL0     O40152   7.712   6.550   3.153 -0.4843 -0.2467  0.4486
  305MOL0     C40153   7.574   6.579   3.149  0.1051 -0.0394 -0.6746
  305MOL0     C40154   7.505   6.703   3.187  0.0235 -0.2238 -0.2921
  305MOL0     C40155   7.363   6.721   3.170 -0.1763  0.5531  0.5453
  305MOL0     C40156   7.291   6.616   3.101 -0.7093  0.3904 -0.2351
  305MOL0     C40157   7.146   6.627   3.069 -0.4827  0.6514 -1.3452
  305MOL0     O40158   7.110   6.524   2.984 -0.3986 -1.0378 -0.1205
  305MOL0     C40159   6.983   6.527   2.938  0.7126 -0.0461  0.7871
  305MOL0     C40160   6.949   6.535   2.798 -0.6253  0.0558  0.7759
  305MOL0     C40161   6.827   6.492   2.762 -0.0165 -0.6547  0.1738
  305MOL0     C40162   6.729   6.475   2.859  0.2915  0.8035  0.2324
  305MOL0     O40163   6.603   6.427   2.817 -0.5961 -0.8134  0.7136
  305MOL0     C40164   6.490   6.491   2.869 -0.0813 -0.2449  0.1937
  305MOL0     C40165   6.365   6.481   2.793 -0.1030 -0.6304 -0.5713
  305MOL0     C40166   6.360   6.580   2.672 -0.1126 -0.1307  0.7309
  305MOL0     C40167   6.221   6.567   2.606 -0.6844 -0.6077 -0.0150
  305MOL0     C40168   6.228   6.628   2.470 -0.0929 -1.2620 -0.0323
  305MOL0     C40169   6.089   6.608   2.398 -0.0025 -1.1679 -0.0450
  305MOL0     C40170   5.976   6.711   2.443  0.2989 -0.9789 -0.0455
  305MOL0     C40171   5.831   6.670   2.399 -0.7923  0.9816  1.0439
  305MOL0    Cl40172   5.800   6.495   2.439  0.3107  0.2324  0.1506
  305MOL0     C40173   6.757   6.473   2.998  0.2346 -0.3382 -0.4871
  305MOL0     C40174   6.884   6.505   3.033 -0.5402 -0.1679 -0.2653
  305MOL0     O40175   7.079   6.719   3.109 -0.3096  0.0838  0.3243
  305MOL0     C40176   7.360   6.493   3.073 -0.0487  1.4937 -1.1942
  305MOL0     C40177   7.500   6.474   3.096 -0.0169 -1.3247  0.5256
  305MOL0     N40178   7.985   6.142   3.403  0.5694 -0.5808  0.0368
  305MOL0     N40179   7.996   6.059   3.504  0.0593 -0.7006  0.3540
  305MOL0     C40180   8.885   5.750   3.861 -1.0251  0.0557  0.2064
  305MOL0     C40181   8.953   5.777   3.741  0.3154  0.1670 -0.2590
  305MOL0     C40182   9.251   5.984   3.489  0.4622  0.2167 -0.0600
  305MOL0     C40183   9.385   6.019   3.500  0.6772  0.1796  0.3882
  305MOL0     C40184   9.480   6.011   3.402  0.7823 -0.5042  0.4418
  305MOL0     C40185   9.442   5.960   3.278  0.3703 -0.1406  0.4393
  305MOL0     O40186   9.532   5.951   3.166 -0.0544  0.1697 -0.9011
  305MOL0     C40187   9.668   6.000   3.162 -0.3566 -0.0716  0.0642
  305MOL0     C40188   9.770   5.916   3.241  0.1447 -1.9054 -0.0236
  305MOL0     C40189   9.817   5.787   3.184 -0.3156  0.3620 -0.2292
  305MOL0     C40190   9.910   5.806   3.060 -0.7639  0.5306 -0.7637
  305MOL0     C40191  10.049   5.828   3.092 -0.4775 -0.2012 -0.9369
  305MOL0     C40192  10.153   5.867   3.129 -0.5224 -0.5665  1.1630
  305MOL0     C40193   9.309   5.914   3.260  0.0511  0.0447  0.3294
  305MOL0     C40194   9.214   5.921   3.368 -0.2341  0.0170 -0.1473
  305MOL0     H40195   8.911   6.106   3.714 -2.2879 -0.4519 -2.6516
  305MOL0     H40196   8.772   6.060   3.924  1.3816 -0.3293 -0.2360
  305MOL0     H40197   8.592   5.680   4.061 -1.5477  0.2167 -0.0549
  305MOL0     H40198   8.607   5.719   3.894  1.1564 -1.3028  1.5099
  305MOL0     H40199   8.500   5.925   3.910 -0.5311  0.7120  1.4196
  305MOL0     H40200   8.483   5.926   4.082 -2.0417 -0.5693  0.0481
  305MOL0     H40201   8.331   5.722   4.074 -1.6074  0.8727  0.6426
  305MOL0     H40202   8.334   5.710   3.901 -1.3045 -0.6119  1.5775
  305MOL0     H40203   8.248   5.947   4.052  1.4641 -2.3187  2.0172
  305MOL0     H40204   8.245   5.927   3.871  1.5186  3.0855  1.1563
  305MOL0     H40205   8.073   5.774   4.063  0.6192  0.4319  0.1864
  305MOL0     H40206   8.095   5.730   3.898 -1.4787 -1.4284  0.9067
  305MOL0     H40207   8.019   6.007   4.008  3.8883  0.8720 -1.8665
  305MOL0     H40208   7.900   5.894   3.940 -0.9678  1.7994  2.4464
  305MOL0     H40209   8.083   6.073   3.782  1.4570  0.2475  1.3600
  305MOL0     H40210   8.034   5.901   3.726 -2.3431 -2.2321  1.2957
  305MOL0     H40211   7.878   6.125   3.822  1.6554  0.2404  0.3887
  305MOL0     H40212   7.795   5.991   3.732 -0.0823  0.5351  0.9257
  305MOL0     H40213   7.748   6.257   3.597  0.2513  0.0641 -1.4275
  305MOL0     H40214   7.731   6.343   3.337 -1.7369  0.9012  0.2879
  305MOL0     H40215   7.862   6.333   3.227 -0.3909 -1.4520 -0.4663
  305MOL0     H40216   7.988   6.503   3.370  1.1370 -1.4991  1.7235
  305MOL0     H40217   7.886   6.464   3.509  1.6866  0.2562  0.1380
  305MOL0     H40218   7.684   6.563   3.402  0.0718 -0.9340  0.2580
  305MOL0     H40219   7.817   6.675   3.435  1.7518  0.2334 -0.5590
  305MOL0     H40220   7.905   6.606   3.191  1.2847  1.4539  0.2588
  305MOL0     H40221   7.784   6.735   3.218  2.7746 -0.9452 -0.5739
  305MOL0     H40222   7.552   6.793   3.226 -0.6148  0.9083 -2.0106
  305MOL0     H40223   7.312   6.810   3.207 -0.8613 -1.2923  4.5973
  305MOL0     H40224   7.032   6.539   2.728  0.3327 -2.2337  1.6785
  305MOL0     H40225   6.800   6.478   2.658 -0.2537 -2.1979  0.4183
  305MOL0     H40226   6.507   6.600   2.873  2.0819 -0.5419  0.5214
  305MOL0     H40227   6.474   6.463   2.973  2.3577 -3.7236 -0.1860
  305MOL0     H40228   6.278   6.500   2.856 -1.0000  0.0823 -1.9768
  305MOL0     H40229   6.350   6.377   2.761 -1.0238 -0.7370  0.1900
  305MOL0     H40230   6.443   6.560   2.603  1.1039  3.1009  1.0664
  305MOL0     H40231   6.373   6.680   2.716  1.4542  0.6169 -1.2871
  305MOL0     H40232   6.218   6.459   2.591  1.6800 -0.5340 -1.5253
  305MOL0     H40233   6.129   6.592   2.659 -2.4401 -2.5532 -1.9366
  305MOL0     H40234   6.316   6.596   2.414  1.1046  2.2303 -0.3830
  305MOL0     H40235   6.240   6.737   2.474 -1.3690 -0.8280 -4.1047
  305MOL0     H40236   6.040   6.512   2.415 -4.7750  0.7710 -1.2483
  305MOL0     H40237   6.110   6.619   2.292  0.2199 -0.0301  0.0987
  305MOL0     H40238   5.984   6.720   2.552  0.1575  1.8436 -0.1814
  305MOL0     H40239   5.996   6.812   2.405  1.5816 -1.0469  0.3775
  305MOL0     H40240   5.830   6.680   2.290 -3.6049 -1.0964  0.7791
  305MOL0     H40241   5.753   6.740   2.430 -1.1028  1.6381 -1.0169
  305MOL0     H40242   6.672   6.454   3.062 -0.2742 -0.0193 -1.0542
  305MOL0     H40243   6.910   6.493   3.138 -0.9236  0.4020 -0.1046
  305MOL0     H40244   7.314   6.410   3.021  2.3387  0.4537 -1.7896
  305MOL0     H40245   7.564   6.395   3.058  0.1694 -0.0454 -2.0342
  305MOL0     H40246   8.868   5.657   3.915  2.0255 -0.4613  0.4546
  305MOL0     H40247   9.004   5.694   3.693  0.7253  1.0457 -1.3804
  305MOL0     H40248   9.424   6.059   3.593  2.5143  0.2363 -0.3466
  305MOL0     H40249   9.582   6.043   3.419  0.4591  1.3758 -0.7672
  305MOL0     H40250   9.664   6.099   3.207 -1.3353 -1.1068  2.4192
  305MOL0     H40251   9.697   6.022   3.058  1.0714 -1.0165  0.2321
  305MOL0     H40252   9.854   5.982   3.265 -0.9546 -0.7269  0.6595
  305MOL0     H40253   9.715   5.897   3.334 -0.4725 -1.6660 -0.3329
  305MOL0     H40254   9.727   5.735   3.149 -0.9500  2.1220 -1.3622
  305MOL0     H40255   9.870   5.726   3.258 -3.2266 -3.9719 -1.3550
  305MOL0     H40256   9.910   5.724   2.988  1.5991  2.6424 -3.3992
  305MOL0     H40257   9.871   5.891   3.003  1.2398 -0.1380 -3.3044
  305MOL0     H40258  10.238   5.928   3.151  0.0774 -1.5965  1.7585
  305MOL0     H40259   9.278   5.864   3.168  1.9457 -2.6923  1.0648
  305MOL0     H40260   9.112   5.892   3.344 -0.8462  2.6283 -1.0777
  306MOL0     O40261   2.641   0.369  10.583 -0.1353 -0.0898  0.2311
  306MOL0     C40262   2.591   0.476  10.611 -1.1086  1.5992  0.2784
  306MOL0     O40263   2.638   0.574  10.684  0.1293 -0.0292  0.1652
  306MOL0     C40264   2.765   0.556  10.736  0.4213 -0.4225 -0.3314
  306MOL0     C40265   2.785   0.598  10.866 -0.6643  0.6793  0.2054
  306MOL0     C40266   2.917   0.613  10.923  0.4373 -0.3825  1.0404
  306MOL0     C40267   3.026   0.565  10.847 -0.6041  1.0218  1.0433
  306MOL0     O40268   3.157   0.546  10.887  0.4094 -0.6508 -0.3084
  306MOL0     C40269   3.206   0.638  10.993  0.2394 -0.5934  0.2314
  306MOL0     C40270   3.200   0.790  10.939 -0.6880  0.6044 -0.2053
  306MOL0     C40271   3.247   0.879  11.055  0.9814 -0.2560 -0.0452
  306MOL0     C40272   3.176   1.022  11.043  0.6663 -0.2111 -0.7416
  306MOL0     C40273   3.201   1.107  10.921 -0.6127 -0.2400 -0.3789
  306MOL0     C40274   3.313   1.208  10.953  0.1161  0.1034 -1.0442
  306MOL0     C40275   3.357   1.285  10.830 -0.1000  0.0715 -0.3316
  306MOL0     C40276   3.503   1.325  10.863 -0.8820  0.4290 -0.8785
  306MOL0     N40277   3.555   1.403  10.751 -0.0585 -0.7194 -0.0674
  306MOL0     C40278   3.595   1.532  10.763 -0.6131 -0.4923  0.7161
  306MOL0     C40279   3.653   1.565  10.643 -1.1282 -0.3454  0.1352
  306MOL0     C40280   3.728   1.686  10.596  0.4786  0.7814 -0.5994
  306MOL0     C40281   3.875   1.659  10.558  0.6832 -0.2264 -0.8015
  306MOL0     C40282   3.928   1.791  10.499  0.3526 -0.0688  0.1379
  306MOL0     C40283   4.075   1.777  10.459  0.1283 -0.6365 -0.6183
  306MOL0     O40284   4.135   1.916  10.465 -0.2794  0.1563  0.3193
  306MOL0     C40285   4.260   1.923  10.420  0.3952  1.2476 -0.3320
  306MOL0     C40286   4.327   2.044  10.414  0.7407  0.4734  0.4482
  306MOL0     C40287   4.455   2.056  10.356 -0.4133 -0.0712 -0.4524
  306MOL0     C40288   4.525   1.943  10.317  0.1022  0.2220 -0.0996
  306MOL0     C40289   4.662   1.957  10.259 -0.6522 -0.6922 -0.1701
  306MOL0     O40290   4.719   2.076  10.221 -0.0292  0.8394 -0.2740
  306MOL0     C40291   4.853   2.085  10.213 -0.8574 -0.0357  0.3763
  306MOL0     C40292   4.940   2.047  10.310  0.7204  0.5006 -0.1736
  306MOL0     C40293   5.079   2.067  10.294  1.1763  0.3282  0.0440
  306MOL0     C40294   5.127   2.133  10.176  0.2925  0.1538 -1.1604
  306MOL0     O40295   5.255   2.173  10.164 -0.3925 -0.0997  0.4614
  306MOL0     C40296   5.368   2.084  10.202  0.8973 -0.2165  0.2672
  306MOL0     C40297   5.370   1.963  10.102 -0.3677  0.4763 -0.5840
  306MOL0     C40298   5.299   1.842  10.161 -0.3182  0.5039 -0.4122
  306MOL0     C40299   5.313   1.726  10.061 -0.3501  0.4693  0.9207
  306MOL0     C40300   5.218   1.606  10.081 -0.5574 -0.5866  0.6681
  306MOL0     C40301   5.226   1.567  10.231 -0.2250 -0.0168  0.5700
  306MOL0     C40302   5.195   1.422  10.247 -0.0130  0.2616 -0.4082
  306MOL0     C40303   5.131   1.387  10.383  0.0443  0.0058  0.2198
  306MOL0    Cl40304   5.132   1.211  10.418 -0.0700  0.4139  0.0825
  306MOL0     C40305   5.037   2.174  10.090  1.0879 -0.9788  0.9394
  306MOL0     C40306   4.903   2.155  10.103  0.1614 -0.1544  0.1464
  306MOL0     O40307   4.716   1.847  10.247 -0.5141  0.3431 -0.3407
  306MOL0     C40308   4.463   1.816  10.323 -0.1238 -0.0421 -0.2709
  306MOL0     C40309   4.331   1.808  10.377 -0.5319 -0.0729 -0.7922
  306MOL0     N40310   3.652   1.455  10.558 -0.0116 -0.5374 -0.1323
  306MOL0     N40311   3.598   1.356  10.625 -0.9605  0.3663 -0.6223
  306MOL0     C40312   2.999   0.525  10.713 -0.5471  0.6988  0.2366
  306MOL0     C40313   2.876   0.527  10.666  0.3015 -0.2379  0.1188
  306MOL0     C40314   2.443   0.467  10.595  0.0076  0.3810  0.1597
  306MOL0     C40315   2.352   0.505  10.698  0.9785 -0.0821  0.3023
  306MOL0     C40316   2.217   0.513  10.664 -0.1115 -0.7152 -0.0589
  306MOL0     C40317   2.155   0.491  10.546 -0.1969  0.4578 -0.7061
  306MOL0     O40318   2.022   0.502  10.526 -0.2605 -0.0697 -0.1352
  306MOL0     C40319   1.964   0.425  10.418  0.7632  0.4647  0.0095
  306MOL0     C40320   1.821   0.397  10.469  0.3739  0.1104  0.5803
  306MOL0     C40321   1.729   0.328  10.366  0.3572  0.0997  1.1324
  306MOL0     C40322   1.585   0.303  10.421 -1.2283  0.3218  0.2094
  306MOL0     C40323   1.512   0.429  10.426 -0.3424  0.2202 -0.3032
  306MOL0     C40324   1.443   0.530  10.439 -0.2755 -1.0055  0.7041
  306MOL0     C40325   2.241   0.437  10.453 -1.1894  0.1175  0.3077
  306MOL0     C40326   2.387   0.440  10.466  0.5795  2.0759 -0.4213
  306MOL0     H40327   2.710   0.645  10.929 -0.6403  1.6895 -0.4997
  306MOL0     H40328   2.914   0.650  11.025 -1.1748  1.0112  0.5381
  306MOL0     H40329   3.310   0.619  11.022  1.1821  1.8763 -1.2447
  306MOL0     H40330   3.152   0.624  11.088  4.4754 -1.1859  2.8240
  306MOL0     H40331   3.095   0.805  10.913 -1.4206 -5.0030 -1.8225
  306MOL0     H40332   3.269   0.801  10.855 -1.3314 -0.8309 -0.9436
  306MOL0     H40333   3.355   0.898  11.050  0.6972  2.0145  1.1081
  306MOL0     H40334   3.218   0.828  11.147 -4.3055  2.2313  0.0291
  306MOL0     H40335   3.066   1.018  11.050  0.6784  0.5293  0.0513
  306MOL0     H40336   3.194   1.074  11.137 -2.0702  1.0523 -0.8257
  306MOL0     H40337   3.114   1.159  10.879  0.6831  3.8272  1.4345
  306MOL0     H40338   3.245   1.048  10.840  1.8618  0.1745  0.5802
  306MOL0     H40339   3.394   1.146  10.993 -2.1957 -2.4050  0.0264
  306MOL0     H40340   3.264   1.272  11.027 -3.9664 -4.4264  0.6587
  306MOL0     H40341   3.352   1.219  10.743 -4.0835  0.7987 -0.8639
  306MOL0     H40342   3.286   1.366  10.811 -0.0971 -0.2435 -1.7525
  306MOL0     H40343   3.552   1.228  10.877 -1.7202 -0.4211 -3.3214
  306MOL0     H40344   3.507   1.380  10.958  1.7100 -2.2917  0.7455
  306MOL0     H40345   3.591   1.592  10.854 -0.7731  1.1090 -0.3087
  306MOL0     H40346   3.728   1.752  10.683  2.6087  1.0220 -0.7082
  306MOL0     H40347   3.677   1.736  10.513 -0.6619  0.6926  0.0323
  306MOL0     H40348   3.892   1.581  10.483  0.3315 -0.2882 -0.8167
  306MOL0     H40349   3.936   1.627  10.643 -0.1407 -1.7404 -0.7470
  306MOL0     H40350   3.862   1.830  10.421  1.7149  1.4269 -0.3279
  306MOL0     H40351   3.926   1.859  10.585 -2.5238 -1.0407  0.9517
  306MOL0     H40352   4.071   1.736  10.358  0.6625 -2.8167  0.1824
  306MOL0     H40353   4.120   1.708  10.532 -0.4592 -0.5678 -0.1775
  306MOL0     H40354   4.274   2.133  10.445 -0.9493  0.2107 -1.4460
  306MOL0     H40355   4.500   2.153  10.340 -4.6379  2.1249 -0.3927
  306MOL0     H40356   4.892   2.005  10.398  1.6058  2.7185  1.4709
  306MOL0     H40357   5.140   2.031  10.376  0.8885  1.1061  0.5976
  306MOL0     H40358   5.361   2.057  10.308 -1.0518 -1.0904 -0.0403
  306MOL0     H40359   5.451   2.151  10.178 -0.3962  0.5084 -2.6684
  306MOL0     H40360   5.476   1.938  10.097 -0.9200 -3.6069  2.6601
  306MOL0     H40361   5.332   1.991  10.004 -0.5742  0.2705 -0.5644
  306MOL0     H40362   5.194   1.873  10.160 -0.6637 -0.5734 -1.9635
  306MOL0     H40363   5.340   1.820  10.260  0.0876 -0.4856 -0.7850
  306MOL0     H40364   5.293   1.762   9.960  0.4121  0.9563  0.9384
  306MOL0     H40365   5.412   1.680  10.067 -0.1361  1.0117  1.8280
  306MOL0     H40366   5.233   1.529  10.004 -2.0207 -0.2807  0.0328
  306MOL0     H40367   5.117   1.636  10.051 -0.3999  0.8667  1.5173
  306MOL0     H40368   5.151   1.629  10.281 -2.4653 -1.2765 -1.0211
  306MOL0     H40369   5.322   1.595  10.275  0.0390  0.8076 -0.5097
  306MOL0     H40370   5.126   1.394  10.168 -0.9023  0.2911  0.3423
  306MOL0     H40371   5.287   1.367  10.230  0.3162  0.6701 -0.0008
  306MOL0     H40372   5.024   1.408  10.387 -0.2522 -1.5581  3.3130
  306MOL0     H40373   5.172   1.450  10.463  0.2395  4.7346 -3.1278
  306MOL0     H40374   5.078   2.200   9.992 -2.0554 -4.9292 -1.7430
  306MOL0     H40375   4.826   2.185  10.032  1.7392  4.4892  0.0921
  306MOL0     H40376   4.522   1.727  10.306  0.4112 -1.0409  5.0459
  306MOL0     H40377   4.297   1.705  10.382 -0.7257 -0.1360 -2.8065
  306MOL0     H40378   3.083   0.488  10.654 -1.3217  1.0895 -1.1614
  306MOL0     H40379   2.863   0.505  10.560  0.2394 -0.9419  0.2709
  306MOL0     H40380   2.392   0.519  10.798 -0.9678 -1.1198  1.2745
  306MOL0     H40381   2.145   0.552  10.735 -0.6204  0.3046 -1.1062
  306MOL0     H40382   2.018   0.333  10.394  5.5683  2.7899  0.7033
  306MOL0     H40383   1.966   0.481  10.324  1.4178 -3.5948 -2.6199
  306MOL0     H40384   1.827   0.344  10.565 -1.0120  0.3520  0.8235
  306MOL0     H40385   1.776   0.491  10.501 -2.1836 -0.2631 -1.5728
  306MOL0     H40386   1.778   0.235  10.336  5.1798  3.0625 -1.3585
  306MOL0     H40387   1.731   0.393  10.278 -3.5148  0.6004  1.2453
  306MOL0     H40388   1.532   0.231  10.358 -0.9519  2.0679 -2.1806
  306MOL0     H40389   1.584   0.261  10.521 -1.9175  0.5003  0.2817
  306MOL0     H40390   1.381   0.616  10.455 -0.9331 -1.4817  0.7260
  306MOL0     H40391   2.198   0.423  10.354 -0.7956  0.1352  0.1347
  306MOL0     H40392   2.455   0.396  10.393 -0.2444 -2.5746  1.2824
  307MOL0     O40393  10.864   4.930   7.654  0.5394 -0.5660  0.0470
  307MOL0     C40394  10.954   4.889   7.581  0.8702 -0.5040 -0.3768
  307MOL0     O40395  10.941   4.785   7.492  0.3707  0.6419 -0.2541
  307MOL0     C40396  10.820   4.727   7.478 -1.3441  0.2257 -0.4259
  307MOL0     C40397  10.709   4.795   7.424  0.1580  0.0775 -1.0351
  307MOL0     C40398  10.599   4.717   7.379  0.3984 -0.2255 -0.7550
  307MOL0     C40399  10.587   4.583   7.409  1.1682 -0.0713 -0.7610
  307MOL0     O40400  10.463   4.526   7.396  0.6655  0.7546  0.2550
  307MOL0     C40401  10.427   4.405   7.456  0.1024  0.1569 -0.8875
  307MOL0     C40402  10.280   4.381   7.417 -0.8013 -0.2294  0.9587
  307MOL0     C40403  10.209   4.275   7.510 -0.8050  0.2397 -0.5169
  307MOL0     C40404  10.056   4.274   7.496  0.2409  0.5156  0.5955
  307MOL0     C40405  10.015   4.147   7.582 -0.3241 -0.2176  0.0992
  307MOL0     C40406   9.873   4.104   7.552 -0.3044 -0.0677 -0.4776
  307MOL0     C40407   9.853   3.984   7.635 -0.9101 -0.0389 -0.2991
  307MOL0     C40408   9.714   3.910   7.618  0.0418  0.3995  0.8221
  307MOL0     N40409   9.605   3.999   7.590  0.3169 -0.8111  0.4900
  307MOL0     C40410   9.568   4.064   7.475  0.1161 -0.7491 -0.4124
  307MOL0     C40411   9.447   4.126   7.513  0.5991 -0.4917  1.1073
  307MOL0     C40412   9.337   4.212   7.427 -1.2170  1.0016 -0.6688
  307MOL0     C40413   9.300   4.148   7.293 -1.4067 -0.6979 -0.3596
  307MOL0     C40414   9.187   4.224   7.222  0.2679 -0.6575 -0.5012
  307MOL0     C40415   9.148   4.155   7.087  0.1482 -0.8665 -0.8723
  307MOL0     O40416   9.072   4.242   6.995 -0.2416  0.5521  0.3072
  307MOL0     C40417   8.942   4.284   7.010  0.5158  0.1781 -0.3507
  307MOL0     C40418   8.886   4.378   6.921  0.9177 -0.2094 -0.3647
  307MOL0     C40419   8.762   4.444   6.929  0.4005  0.3635 -0.2063
  307MOL0     C40420   8.685   4.410   7.041  0.0687 -0.6851 -0.0443
  307MOL0     C40421   8.553   4.471   7.075  0.5788 -1.1603 -0.7136
  307MOL0     O40422   8.471   4.423   7.173 -0.2213  0.2661  0.0512
  307MOL0     C40423   8.333   4.462   7.179 -1.0800  0.3300  0.8414
  307MOL0     C40424   8.276   4.381   7.286  0.3381  0.3899  0.3431
  307MOL0     C40425   8.141   4.399   7.316 -0.2017 -0.0697  0.0784
  307MOL0     C40426   8.059   4.486   7.245  0.0891 -0.3209 -0.2760
  307MOL0     O40427   7.925   4.494   7.278 -0.3201 -0.0785 -0.4821
  307MOL0     C40428   7.841   4.442   7.170 -0.2225  0.1495  0.4235
  307MOL0     C40429   7.707   4.396   7.236  0.2424 -0.4783 -0.2565
  307MOL0     C40430   7.729   4.296   7.343 -0.0714 -1.1337 -0.5327
  307MOL0     C40431   7.603   4.233   7.388  0.9440 -0.2921 -0.5671
  307MOL0     C40432   7.625   4.111   7.477  1.2595  0.3542  0.1626
  307MOL0     C40433   7.673   4.169   7.616  0.9559  0.1799  0.6339
  307MOL0     C40434   7.719   4.059   7.721 -0.0985 -0.0523 -0.5864
  307MOL0     C40435   7.861   4.040   7.679 -0.3651  0.2899  0.0579
  307MOL0    Cl40436   7.940   3.930   7.786  0.5106  0.0592  0.2328
  307MOL0     C40437   8.118   4.560   7.144 -0.1498  0.4577 -0.3191
  307MOL0     C40438   8.252   4.543   7.101  0.9307  0.3104  0.4635
  307MOL0     O40439   8.521   4.567   6.998  0.1274  0.5333 -0.0423
  307MOL0     C40440   8.724   4.307   7.115  0.2297  0.0550  0.9305
  307MOL0     C40441   8.848   4.243   7.104  0.2751 -0.2973 -0.0989
  307MOL0     N40442   9.413   4.098   7.639 -0.6798  0.4261  0.1073
  307MOL0     N40443   9.507   4.021   7.684 -0.2990 -0.2118 -0.1101
  307MOL0     C40444  10.692   4.517   7.480 -0.5525 -0.0659  0.4250
  307MOL0     C40445  10.818   4.590   7.508  0.2119 -0.5760 -0.5155
  307MOL0     C40446  11.082   4.950   7.582  0.2488  0.2444 -0.6906
  307MOL0     C40447  11.107   5.062   7.668  0.4584  0.5633 -0.2283
  307MOL0     C40448  11.232   5.127   7.666 -0.2161 -0.0677  0.1307
  307MOL0     C40449  11.336   5.084   7.579 -0.0593 -0.4743 -0.4110
  307MOL0     O40450  11.463   5.140   7.565  0.8847  0.4396 -0.3533
  307MOL0     C40451  11.482   5.278   7.577  0.7377  0.0913 -0.1423
  307MOL0     C40452  11.629   5.314   7.559  0.7811  0.3481  0.4270
  307MOL0     C40453  11.701   5.249   7.676  0.0077  0.8065  0.0980
  307MOL0     C40454  11.850   5.297   7.666 -0.0931 -0.1868 -0.4429
  307MOL0     C40455  11.930   5.249   7.781  0.0830  0.1442 -0.6720
  307MOL0     C40456  12.002   5.218   7.877 -0.0189 -0.8226  0.0071
  307MOL0     C40457  11.318   4.977   7.503  0.3724  0.1820 -0.2523
  307MOL0     C40458  11.195   4.909   7.502  0.3324  0.2583  0.6161
  307MOL0     H40459  10.704   4.901   7.402 -2.7224  0.0777 -0.6934
  307MOL0     H40460  10.513   4.762   7.329  1.4205  2.4032 -0.3016
  307MOL0     H40461  10.421   4.413   7.565 -1.1978 -2.3794 -0.6960
  307MOL0     H40462  10.486   4.319   7.421 -1.6151 -0.9440 -1.1789
  307MOL0     H40463  10.284   4.349   7.313  3.0810 -0.6309  1.0921
  307MOL0     H40464  10.222   4.474   7.428  2.7482  2.1369  1.2433
  307MOL0     H40465  10.225   4.301   7.615 -2.5818  2.6333 -0.7667
  307MOL0     H40466  10.249   4.174   7.494 -1.1465  0.1362 -0.7295
  307MOL0     H40467  10.014   4.365   7.538 -0.9545  0.7382 -0.9770
  307MOL0     H40468  10.020   4.263   7.393 -3.9967 -0.6270  1.9896
  307MOL0     H40469  10.034   4.166   7.689  0.9981 -0.2350 -0.1178
  307MOL0     H40470  10.089   4.070   7.562 -0.0630  0.1479 -0.3505
  307MOL0     H40471   9.848   4.098   7.445  0.0513 -0.3438 -0.5473
  307MOL0     H40472   9.811   4.186   7.588  0.5741  1.2244 -1.7795
  307MOL0     H40473   9.925   3.903   7.619 -1.4181 -0.5253 -0.1640
  307MOL0     H40474   9.858   4.018   7.738  2.4918 -1.1907  0.0585
  307MOL0     H40475   9.685   3.839   7.696  0.3155  0.2053  0.7481
  307MOL0     H40476   9.724   3.837   7.536  0.1800 -1.3985  2.3640
  307MOL0     H40477   9.604   4.059   7.373 -2.5350  1.5993 -1.6076
  307MOL0     H40478   9.369   4.316   7.413  1.2095  0.4316  0.0446
  307MOL0     H40479   9.241   4.212   7.479 -0.0978  0.8178  1.5151
  307MOL0     H40480   9.274   4.043   7.304  0.4597 -1.0571  1.3171
  307MOL0     H40481   9.388   4.158   7.229 -0.2513  2.1773  1.4699
  307MOL0     H40482   9.101   4.239   7.288 -0.5854  1.4443 -2.0210
  307MOL0     H40483   9.226   4.323   7.199 -1.5002  0.1857 -0.0561
  307MOL0     H40484   9.089   4.065   7.107 -1.7923  0.4393 -0.4106
  307MOL0     H40485   9.243   4.127   7.041  0.2120  0.8669 -1.8818
  307MOL0     H40486   8.941   4.414   6.834  3.5513 -3.3313 -0.1788
  307MOL0     H40487   8.722   4.526   6.871 -2.8620  0.7979  2.3051
  307MOL0     H40488   8.348   4.317   7.336  1.9745  1.9953  0.1586
  307MOL0     H40489   8.095   4.330   7.387  1.5561 -0.1183  1.2197
  307MOL0     H40490   7.888   4.347   7.142  4.7717  2.5952 -0.7015
  307MOL0     H40491   7.837   4.504   7.079 -0.9874 -0.6716 -0.1227
  307MOL0     H40492   7.635   4.373   7.157  0.9875 -0.2034 -1.0315
  307MOL0     H40493   7.657   4.483   7.280 -1.2758 -0.4433 -1.9389
  307MOL0     H40494   7.782   4.350   7.422  3.6118 -1.5399 -2.4763
  307MOL0     H40495   7.802   4.222   7.310  2.0863 -0.1580  1.7193
  307MOL0     H40496   7.548   4.305   7.449  2.1668  0.8992 -0.8561
  307MOL0     H40497   7.546   4.199   7.300 -0.0944 -0.0647 -0.0003
  307MOL0     H40498   7.687   4.042   7.419  0.5965 -0.6988  0.6702
  307MOL0     H40499   7.522   4.077   7.495  1.4118 -0.6973 -0.8389
  307MOL0     H40500   7.594   4.228   7.663  1.5562  2.6707 -1.2240
  307MOL0     H40501   7.757   4.239   7.604  3.7641 -2.4844  3.0587
  307MOL0     H40502   7.716   4.097   7.824  2.8196 -0.5453 -0.2472
  307MOL0     H40503   7.671   3.962   7.709  1.7641 -0.6935 -4.2646
  307MOL0     H40504   7.923   4.130   7.677  0.1621 -0.0409  0.9359
  307MOL0     H40505   7.875   3.997   7.579 -2.3191  0.5513 -0.3748
  307MOL0     H40506   8.054   4.625   7.085  1.5149  1.2337 -1.3301
  307MOL0     H40507   8.276   4.605   7.015  3.4399  0.5357  1.2372
  307MOL0     H40508   8.656   4.268   7.191 -1.4487  1.3790  0.1737
  307MOL0     H40509   8.874   4.165   7.175 -1.5589 -0.7156  0.1633
  307MOL0     H40510  10.683   4.414   7.512  3.0432 -0.7892 -0.3623
  307MOL0     H40511  10.900   4.535   7.554 -1.2674 -0.1470  2.9947
  307MOL0     H40512  11.029   5.086   7.740  0.7211  0.1157  0.2113
  307MOL0     H40513  11.250   5.218   7.723 -0.0336 -0.3517  0.5295
  307MOL0     H40514  11.433   5.309   7.671 -2.1703 -1.1792 -1.1074
  307MOL0     H40515  11.415   5.334   7.511 -0.8519  1.9198  2.7711
  307MOL0     H40516  11.653   5.275   7.459 -0.3595  0.7274 -0.0087
  307MOL0     H40517  11.636   5.423   7.553 -1.6871  0.7232  2.7621
  307MOL0     H40518  11.690   5.142   7.654 -3.5573  0.9659  0.6216
  307MOL0     H40519  11.657   5.279   7.771  1.6886  1.2275  0.7910
  307MOL0     H40520  11.890   5.258   7.571  2.5751 -1.1587  0.9618
  307MOL0     H40521  11.844   5.406   7.668  0.1257 -0.1808  1.0838
  307MOL0     H40522  12.072   5.194   7.954  1.9438  4.1167  0.1177
  307MOL0     H40523  11.390   4.925   7.441  0.1613  0.4243 -0.7020
  307MOL0     H40524  11.173   4.817   7.448 -3.6496  0.4737  1.5525
  308MOL0     O40525   4.721   1.669   3.716 -1.0307 -0.3914  0.2084
  308MOL0     C40526   4.810   1.607   3.670  0.4423 -0.6217  0.2245
  308MOL0     O40527   4.922   1.577   3.741  0.4955 -0.3364  0.2678
  308MOL0     C40528   4.931   1.617   3.869 -0.0006 -0.5725 -0.7352
  308MOL0     C40529   4.835   1.623   3.966 -0.2959  0.5684 -0.7480
  308MOL0     C40530   4.849   1.657   4.095 -1.0084  0.1631  0.4678
  308MOL0     C40531   4.974   1.699   4.141 -0.0344  0.2415  0.9611
  308MOL0     O40532   4.996   1.732   4.271 -0.1801 -0.4090 -0.1080
  308MOL0     C40533   4.933   1.641   4.365 -0.2034 -0.2173  0.2044
  308MOL0     C40534   4.984   1.660   4.509  1.2027  0.2830 -0.2601
  308MOL0     C40535   5.131   1.620   4.520  0.1672  0.0216 -0.3008
  308MOL0     C40536   5.199   1.650   4.651  0.0321 -0.1754 -0.8629
  308MOL0     C40537   5.277   1.783   4.653 -0.9896 -1.0004 -0.1120
  308MOL0     C40538   5.415   1.789   4.589  1.1040  0.0458 -0.7834
  308MOL0     C40539   5.467   1.931   4.593  0.4484 -0.9465  0.4332
  308MOL0     C40540   5.580   1.945   4.491 -0.6663  0.9330 -0.4770
  308MOL0     N40541   5.694   1.855   4.527 -0.8263  0.0420  1.0650
  308MOL0     C40542   5.812   1.900   4.582 -0.5473  0.5130  0.5515
  308MOL0     C40543   5.900   1.801   4.542 -0.4052  0.4526  0.9216
  308MOL0     C40544   6.049   1.794   4.595 -0.2169  0.9287 -0.5345
  308MOL0     C40545   6.048   1.828   4.742  0.2870  0.1051 -1.1256
  308MOL0     C40546   6.154   1.735   4.819  0.1240 -0.2211  0.2344
  308MOL0     C40547   6.158   1.771   4.966 -0.4834 -0.7064  0.2731
  308MOL0     O40548   6.041   1.741   5.034  1.0632  0.3332  0.8745
  308MOL0     C40549   5.996   1.813   5.145  0.0743 -0.0722  0.0119
  308MOL0     C40550   5.873   1.769   5.204  0.4870  0.1016  0.8603
  308MOL0     C40551   5.818   1.828   5.315 -0.4628  0.0091 -0.7664
  308MOL0     C40552   5.886   1.934   5.377 -0.3784 -0.1005 -0.7601
  308MOL0     C40553   5.821   1.997   5.490  0.1117  0.3887 -0.1507
  308MOL0     O40554   5.896   2.104   5.542 -0.0838 -0.3516 -0.6655
  308MOL0     C40555   5.853   2.192   5.642 -0.0695  0.2447  0.3457
  308MOL0     C40556   5.721   2.196   5.681  0.3117 -0.6965  0.5309
  308MOL0     C40557   5.696   2.298   5.778 -0.0422  0.0501 -0.4136
  308MOL0     C40558   5.786   2.390   5.835  0.9619 -0.5067  0.7645
  308MOL0     O40559   5.738   2.471   5.930  0.0925  0.3262 -0.1253
  308MOL0     C40560   5.831   2.573   5.980  0.4501  0.6386 -0.6375
  308MOL0     C40561   5.750   2.651   6.085  0.2776 -0.7046 -0.3829
  308MOL0     C40562   5.645   2.740   6.026 -0.1327 -0.7518 -0.3902
  308MOL0     C40563   5.563   2.820   6.135  0.4336 -0.6019 -0.6705
  308MOL0     C40564   5.425   2.850   6.075 -0.3388  0.6495 -0.5509
  308MOL0     C40565   5.418   2.918   5.949  0.2737 -0.6156  0.3449
  308MOL0     C40566   5.279   2.934   5.895 -0.2909 -0.7697 -0.4097
  308MOL0     C40567   5.257   3.058   5.796 -0.4469  0.4229 -1.0895
  308MOL0    Cl40568   5.210   3.209   5.888 -0.0834  0.1968  0.1395
  308MOL0     C40569   5.917   2.373   5.789 -0.1912  0.1657  0.2589
  308MOL0     C40570   5.949   2.271   5.701 -0.5164  0.0885  0.2168
  308MOL0     O40571   5.720   1.950   5.541 -0.2142  0.4522  0.5169
  308MOL0     C40572   6.015   1.975   5.326 -0.0604 -0.8285 -0.1208
  308MOL0     C40573   6.066   1.914   5.213 -1.1276  0.3026  1.0101
  308MOL0     N40574   5.830   1.694   4.478  0.1019 -0.3276  0.4236
  308MOL0     N40575   5.705   1.723   4.480  0.1230 -0.3555 -0.6649
  308MOL0     C40576   5.079   1.707   4.055  0.2575  0.0843  0.6064
  308MOL0     C40577   5.060   1.665   3.918  0.4253  0.1169  0.5307
  308MOL0     C40578   4.803   1.568   3.522  0.4745  0.4667 -0.5333
  308MOL0     C40579   4.687   1.597   3.447 -0.0728  0.5841 -0.9065
  308MOL0     C40580   4.676   1.538   3.313  0.1129  0.2848  0.2609
  308MOL0     C40581   4.777   1.458   3.265 -0.2767  0.4831  0.6508
  308MOL0     O40582   4.743   1.389   3.150 -0.4902 -0.3113  0.3624
  308MOL0     C40583   4.840   1.287   3.115  0.0215 -0.2992 -0.3579
  308MOL0     C40584   4.770   1.198   3.015 -1.3576 -0.4718 -0.0614
  308MOL0     C40585   4.792   1.249   2.866  0.5273 -0.1388  0.3803
  308MOL0     C40586   4.900   1.182   2.774 -1.0611  0.2335  0.1883
  308MOL0     C40587   4.957   1.290   2.693 -0.5030 -0.4513 -0.0694
  308MOL0     C40588   5.007   1.357   2.603 -0.2267  0.4468  0.3727
  308MOL0     C40589   4.899   1.452   3.340  0.6720  0.3309  0.9217
  308MOL0     C40590   4.908   1.504   3.469 -0.4503 -0.5831 -0.6754
  308MOL0     H40591   4.740   1.578   3.938  0.5051 -2.6329  1.1134
  308MOL0     H40592   4.761   1.645   4.157 -1.2354 -0.1090  0.0980
  308MOL0     H40593   4.956   1.538   4.337 -0.2544 -0.8256  2.2551
  308MOL0     H40594   4.825   1.657   4.366 -0.0433  1.6090 -2.0940
  308MOL0     H40595   4.928   1.591   4.574  2.1975  1.2319  1.6670
  308MOL0     H40596   4.953   1.762   4.530 -1.9873 -0.8043  0.8982
  308MOL0     H40597   5.185   1.683   4.449  1.2011 -1.4832 -0.9175
  308MOL0     H40598   5.142   1.519   4.478  0.7337  0.4285 -1.1743
  308MOL0     H40599   5.127   1.631   4.732  1.8878 -0.0587  0.8951
  308MOL0     H40600   5.277   1.576   4.669 -0.6356 -0.3208  1.8838
  308MOL0     H40601   5.275   1.816   4.758 -0.4909 -0.4414 -0.2726
  308MOL0     H40602   5.215   1.863   4.611  1.6887  1.8658  0.9784
  308MOL0     H40603   5.395   1.765   4.485 -3.7790 -2.2153  0.3734
  308MOL0     H40604   5.486   1.717   4.631  0.7969 -0.8423 -1.7244
  308MOL0     H40605   5.393   2.009   4.574  2.1401  0.5123 -0.5251
  308MOL0     H40606   5.515   1.954   4.688 -0.3521  0.2445  0.5686
  308MOL0     H40607   5.605   2.051   4.490  1.5051  0.5454  2.1413
  308MOL0     H40608   5.547   1.923   4.389 -1.2874  1.0609 -0.3087
  308MOL0     H40609   5.834   1.993   4.633 -3.8585  2.0715 -0.6066
  308MOL0     H40610   6.121   1.860   4.546 -1.7994  1.9686 -1.5461
  308MOL0     H40611   6.085   1.692   4.576 -1.8204  0.3326 -0.6134
  308MOL0     H40612   5.950   1.811   4.788  1.2038 -1.2622  0.4236
  308MOL0     H40613   6.062   1.936   4.756 -0.0903 -0.1237  1.2943
  308MOL0     H40614   6.129   1.628   4.817  0.5784 -0.4043  2.0377
  308MOL0     H40615   6.250   1.752   4.770 -0.8844  3.3322 -0.8029
  308MOL0     H40616   6.166   1.879   4.975  0.7246 -0.7568 -0.0673
  308MOL0     H40617   6.241   1.716   5.011  1.8999 -1.1457 -4.1038
  308MOL0     H40618   5.822   1.703   5.134 -0.6843  2.0568 -0.2071
  308MOL0     H40619   5.715   1.806   5.339  0.5163 -1.7253  2.3272
  308MOL0     H40620   5.638   2.136   5.643 -3.4312  3.8195  0.7410
  308MOL0     H40621   5.598   2.291   5.824 -0.3800 -2.1582 -1.3255
  308MOL0     H40622   5.873   2.644   5.908 -0.6571  0.4541 -1.5073
  308MOL0     H40623   5.911   2.524   6.036 -2.1114 -0.3622  2.4664
  308MOL0     H40624   5.817   2.724   6.130 -4.5575  2.5245  2.5781
  308MOL0     H40625   5.712   2.599   6.174 -1.6103  2.0952  0.5759
  308MOL0     H40626   5.582   2.661   5.984 -0.2224 -2.6830  2.9942
  308MOL0     H40627   5.687   2.805   5.949 -3.3381 -0.9865 -2.5327
  308MOL0     H40628   5.538   2.759   6.221 -0.1811  0.3378 -0.1611
  308MOL0     H40629   5.610   2.916   6.160  1.3779 -1.6441  1.8879
  308MOL0     H40630   5.370   2.898   6.157 -0.1760 -4.2109  2.8187
  308MOL0     H40631   5.388   2.750   6.053  2.5205 -0.5936 -0.0264
  308MOL0     H40632   5.470   2.857   5.874 -0.7814  0.0021 -0.9134
  308MOL0     H40633   5.450   3.022   5.961 -3.3239  0.3019  4.5420
  308MOL0     H40634   5.245   2.850   5.833 -1.9851  1.5061 -2.7888
  308MOL0     H40635   5.207   2.942   5.977  0.0093 -1.5173 -0.0609
  308MOL0     H40636   5.166   3.027   5.744 -1.3556 -0.7088  1.0519
  308MOL0     H40637   5.343   3.068   5.730 -0.4589  1.6112 -0.9531
  308MOL0     H40638   5.997   2.435   5.827 -0.4452 -0.4476  1.9272
  308MOL0     H40639   6.050   2.263   5.662 -1.1174 -0.2329 -1.3727
  308MOL0     H40640   6.069   2.058   5.370  2.5472 -1.5460 -1.7226
  308MOL0     H40641   6.167   1.946   5.191 -0.4831 -1.8097  0.6547
  308MOL0     H40642   5.172   1.752   4.089  2.0487 -0.7240 -2.7447
  308MOL0     H40643   5.148   1.660   3.855  1.4113 -1.6314  1.9443
  308MOL0     H40644   4.603   1.653   3.488 -0.0274 -1.4156  2.3220
  308MOL0     H40645   4.584   1.547   3.257  1.3915  0.5403 -1.8820
  308MOL0     H40646   4.865   1.226   3.202 -0.7945 -2.4763 -1.5867
  308MOL0     H40647   4.935   1.329   3.081 -0.9195  1.0565 -1.4002
  308MOL0     H40648   4.818   1.100   3.026  0.3670  0.4760  1.2954
  308MOL0     H40649   4.664   1.175   3.031 -1.4028 -2.0449 -2.1889
  308MOL0     H40650   4.806   1.357   2.869 -0.6287  0.0113  0.8601
  308MOL0     H40651   4.693   1.233   2.823  0.7064 -1.9722  0.5618
  308MOL0     H40652   4.981   1.132   2.828  0.2820 -0.2995 -2.1386
  308MOL0     H40653   4.856   1.101   2.715  2.8557 -2.0368 -0.0094
  308MOL0     H40654   5.053   1.392   2.513 -1.5862 -3.6125 -2.1623
  308MOL0     H40655   4.990   1.401   3.307  0.6153  0.2285  0.9241
  308MOL0     H40656   5.000   1.482   3.521 -2.0184 -0.8478  2.1761
  309MOL0     O40657   4.506   3.556   8.602  0.3826  0.4669 -0.2651
  309MOL0     C40658   4.493   3.460   8.523  0.4201  0.1713  0.8473
  309MOL0     O40659   4.433   3.332   8.547  0.5576 -0.0233 -0.0474
  309MOL0     C40660   4.352   3.327   8.664 -0.8101  0.7855  0.3299
  309MOL0     C40661   4.393   3.261   8.778  0.7219 -0.5849 -0.0314
  309MOL0     C40662   4.313   3.269   8.893  0.5833  0.4139 -0.6079
  309MOL0     C40663   4.189   3.339   8.899 -0.0496 -0.3685  0.5983
  309MOL0     O40664   4.112   3.346   9.012 -0.7389 -0.6839  0.3745
  309MOL0     C40665   4.191   3.381   9.126 -0.7734 -0.7010 -0.9070
  309MOL0     C40666   4.189   3.272   9.228  0.5941  0.4776  0.0960
  309MOL0     C40667   4.140   3.321   9.368  0.1715  0.0887  0.1680
  309MOL0     C40668   3.992   3.302   9.396 -0.3426  0.5789 -0.1263
  309MOL0     C40669   3.944   3.376   9.518 -0.2405 -0.0406  0.8194
  309MOL0     C40670   3.796   3.404   9.508  1.0430 -0.9072 -0.2818
  309MOL0     C40671   3.686   3.308   9.539  0.5681  0.5473  0.3189
  309MOL0     C40672   3.716   3.160   9.486 -0.5462 -0.2574 -0.5943
  309MOL0     N40673   3.609   3.059   9.513  0.5771  0.8803 -0.4840
  309MOL0     C40674   3.485   3.048   9.446  0.6776  0.5296 -0.9012
  309MOL0     C40675   3.417   2.968   9.534  0.1527  0.2212 -1.1419
  309MOL0     C40676   3.281   2.919   9.537 -0.6717 -0.1007  0.3778
  309MOL0     C40677   3.173   3.003   9.607  0.3548 -0.0247  0.1020
  309MOL0     C40678   3.165   3.144   9.546  0.2488  0.6507 -0.6211
  309MOL0     C40679   3.057   3.230   9.608 -0.4137 -0.6302  0.1218
  309MOL0     O40680   3.051   3.339   9.523 -0.4044 -0.7336  0.2271
  309MOL0     C40681   2.956   3.436   9.537 -0.5591 -0.7106  0.8252
  309MOL0     C40682   2.962   3.549   9.457 -0.4636 -0.4004  1.0138
  309MOL0     C40683   2.881   3.662   9.487  0.4786  0.3632 -0.0701
  309MOL0     C40684   2.791   3.654   9.605 -0.0989  0.3775 -0.2099
  309MOL0     C40685   2.696   3.764   9.642  0.2642  0.0692  0.5657
  309MOL0     O40686   2.627   3.759   9.761 -0.1477  0.2919 -0.3779
  309MOL0     C40687   2.556   3.866   9.803  0.5854  1.1236 -0.2292
  309MOL0     C40688   2.442   3.848   9.861  1.8810  0.3477  0.1849
  309MOL0     C40689   2.365   3.951   9.908 -0.3223 -0.1973 -0.1137
  309MOL0     C40690   2.411   4.083   9.900 -0.3012 -0.2945 -0.2611
  309MOL0     O40691   2.327   4.174   9.951 -0.0276  0.0795  0.0509
  309MOL0     C40692   2.362   4.310   9.920  0.3879 -0.2574 -0.9245
  309MOL0     C40693   2.240   4.383   9.975 -0.0389 -0.1129  0.9508
  309MOL0     C40694   2.247   4.413  10.127 -0.3710  0.4385  1.0017
  309MOL0     C40695   2.244   4.294  10.217 -0.7235  0.5947  0.2704
  309MOL0     C40696   2.121   4.204  10.199  0.0464 -0.7189  0.8310
  309MOL0     C40697   2.124   4.102  10.311 -0.7706  0.0040  0.5645
  309MOL0     C40698   2.185   3.966  10.267  0.4051  0.6286 -0.0028
  309MOL0     C40699   2.224   3.872  10.381  0.3893  0.3416 -0.3742
  309MOL0    Cl40700   2.102   3.753  10.409 -0.3278 -0.3146 -0.2220
  309MOL0     C40701   2.540   4.107   9.857  0.2196  0.1754 -0.4070
  309MOL0     C40702   2.611   3.994   9.811  0.0415 -0.3785 -0.5864
  309MOL0     O40703   2.690   3.853   9.552  0.9377  0.3720 -0.6069
  309MOL0     C40704   2.792   3.543   9.680 -0.9865  0.2856 -0.1982
  309MOL0     C40705   2.868   3.429   9.637 -0.0472 -0.7647  0.1070
  309MOL0     N40706   3.497   2.937   9.647 -0.0360  0.7010 -0.2306
  309MOL0     N40707   3.613   2.996   9.638 -0.7882 -0.5343  0.8731
  309MOL0     C40708   4.147   3.388   8.781  0.5000  0.0988  0.4609
  309MOL0     C40709   4.219   3.378   8.666 -0.1690 -0.2744  0.9069
  309MOL0     C40710   4.548   3.482   8.388 -0.1053 -0.0998 -0.0058
  309MOL0     C40711   4.645   3.581   8.374 -0.6104 -0.5377 -1.0090
  309MOL0     C40712   4.711   3.597   8.246  0.2509  0.5365 -0.1951
  309MOL0     C40713   4.684   3.512   8.137 -0.6850 -0.1944 -0.2529
  309MOL0     O40714   4.740   3.514   8.011  0.0454  0.3206 -0.1426
  309MOL0     C40715   4.826   3.615   7.956  0.0422 -0.8769 -1.3494
  309MOL0     C40716   4.747   3.743   7.935 -0.3940  0.6561 -0.4842
  309MOL0     C40717   4.627   3.729   7.828 -0.7461  0.1661  0.3172
  309MOL0     C40718   4.557   3.863   7.810 -0.5329 -0.6973  0.2447
  309MOL0     C40719   4.647   3.948   7.735 -0.1317 -0.1639  0.2761
  309MOL0     C40720   4.728   4.017   7.682 -0.8585  0.6979 -0.0010
  309MOL0     C40721   4.593   3.404   8.164 -0.4086  1.0472  0.2461
  309MOL0     C40722   4.522   3.391   8.277 -0.1372  0.6686  0.0838
  309MOL0     H40723   4.498   3.234   8.788  0.3345 -1.5449  1.9277
  309MOL0     H40724   4.349   3.216   8.981 -1.0048 -0.6016 -0.5457
  309MOL0     H40725   4.128   3.456   9.176  0.7155 -0.5431  0.8074
  309MOL0     H40726   4.291   3.424   9.115 -0.7754 -0.5559 -0.3996
  309MOL0     H40727   4.281   3.216   9.249  0.7103  0.8987  0.7315
  309MOL0     H40728   4.104   3.209   9.198  1.2297 -0.1462 -0.4344
  309MOL0     H40729   4.162   3.427   9.386 -0.4999  0.2763 -0.0814
  309MOL0     H40730   4.195   3.255   9.436  1.1812 -1.8742 -2.3865
  309MOL0     H40731   3.928   3.324   9.310 -2.1744 -0.4983  0.8818
  309MOL0     H40732   3.980   3.194   9.412  1.2443  0.4630  0.4752
  309MOL0     H40733   4.002   3.468   9.526  1.4923 -0.9369 -0.7157
  309MOL0     H40734   3.967   3.317   9.607 -0.0369 -2.2169 -0.5943
  309MOL0     H40735   3.769   3.432   9.406 -0.1144  0.7490  0.4267
  309MOL0     H40736   3.779   3.486   9.579  0.5604 -1.9196  0.8002
  309MOL0     H40737   3.659   3.290   9.644  4.4440 -0.5018  1.3004
  309MOL0     H40738   3.595   3.345   9.491 -1.1439 -0.6376  2.4755
  309MOL0     H40739   3.808   3.112   9.521 -0.3341  0.5448 -0.0179
  309MOL0     H40740   3.729   3.186   9.381 -0.8327  1.2915 -0.2711
  309MOL0     H40741   3.457   3.089   9.350  1.2854  2.7456 -0.1922
  309MOL0     H40742   3.283   2.821   9.587  0.2378 -0.5597 -0.5410
  309MOL0     H40743   3.256   2.884   9.436  0.3800 -2.7619  0.9591
  309MOL0     H40744   3.188   3.007   9.715  0.5205 -0.6824  0.1094
  309MOL0     H40745   3.075   2.962   9.578  1.0036 -0.5464 -1.4939
  309MOL0     H40746   3.258   3.203   9.548  1.2731 -0.9040 -0.7753
  309MOL0     H40747   3.145   3.130   9.439 -2.4042 -1.7696  0.0734
  309MOL0     H40748   3.081   3.257   9.711  0.8831  0.2855 -0.4060
  309MOL0     H40749   2.957   3.184   9.605 -2.8249  4.0325 -0.2046
  309MOL0     H40750   3.030   3.550   9.373 -2.8122 -2.3257 -1.0480
  309MOL0     H40751   2.887   3.755   9.431  2.7657  2.1107  2.8347
  309MOL0     H40752   2.403   3.748   9.849  0.3655  0.9588 -0.2408
  309MOL0     H40753   2.268   3.932   9.953 -1.0187 -1.0773 -1.8743
  309MOL0     H40754   2.381   4.325   9.813  2.2094  0.0641 -0.5842
  309MOL0     H40755   2.454   4.334   9.974  0.0065 -0.6167 -0.0980
  309MOL0     H40756   2.141   4.342   9.951 -0.6553  2.0063 -0.5348
  309MOL0     H40757   2.241   4.481   9.925  2.6889  0.7744  2.5248
  309MOL0     H40758   2.158   4.473  10.148 -1.8196 -1.3060  0.1935
  309MOL0     H40759   2.329   4.479  10.154  1.4714 -2.2653  2.4899
  309MOL0     H40760   2.337   4.236  10.216 -1.7030 -1.1050  2.1646
  309MOL0     H40761   2.244   4.340  10.316  2.2902  2.1367 -0.3347
  309MOL0     H40762   2.123   4.153  10.103 -0.4368  1.3467 -0.3396
  309MOL0     H40763   2.030   4.265  10.201 -0.9135 -2.0783  3.2448
  309MOL0     H40764   2.022   4.090  10.349 -0.0644  1.5998  3.2182
  309MOL0     H40765   2.179   4.149  10.393 -1.2342 -2.0463  2.1263
  309MOL0     H40766   2.139   3.928  10.175  1.9924 -3.4594  0.6877
  309MOL0     H40767   2.280   3.994  10.220  0.0647 -1.4656 -2.1282
  309MOL0     H40768   2.240   3.944  10.462  2.4487  1.2685 -1.5125
  309MOL0     H40769   2.317   3.820  10.354  0.6313 -0.0361  1.1259
  309MOL0     H40770   2.606   4.192   9.852  1.6524 -0.7903  1.0629
  309MOL0     H40771   2.712   4.003   9.771  1.8153 -3.0276  2.7172
  309MOL0     H40772   2.733   3.546   9.771  1.2397  1.4436  1.3047
  309MOL0     H40773   2.853   3.342   9.699 -2.7574  1.3778  2.7867
  309MOL0     H40774   4.050   3.436   8.790  0.3915 -0.0015 -0.0918
  309MOL0     H40775   4.184   3.430   8.577 -0.6393  0.2859  1.4122
  309MOL0     H40776   4.661   3.652   8.454  1.0887 -2.5962  0.5739
  309MOL0     H40777   4.784   3.677   8.235  1.6777  0.1581  4.2323
  309MOL0     H40778   4.871   3.581   7.862  1.3455 -2.3121 -0.2487
  309MOL0     H40779   4.909   3.629   8.026 -0.6695  0.6747 -0.7638
  309MOL0     H40780   4.706   3.774   8.032 -2.5373 -2.0352 -0.4015
  309MOL0     H40781   4.816   3.824   7.908  1.1026  0.4708  2.3870
  309MOL0     H40782   4.560   3.649   7.861  2.0886 -3.5199 -2.0942
  309MOL0     H40783   4.673   3.697   7.734  1.3996 -0.7059  1.5954
  309MOL0     H40784   4.466   3.854   7.751  0.2356  0.3897 -1.1860
  309MOL0     H40785   4.536   3.920   7.902  2.1376  2.3826 -0.8365
  309MOL0     H40786   4.797   4.086   7.636  0.4933 -0.1015  0.7563
  309MOL0     H40787   4.596   3.320   8.096  0.0913 -1.0987  2.7738
  309MOL0     H40788   4.474   3.297   8.300  0.8262  0.2662  0.4926
  310MOL0     O40789   8.574   0.700   1.702  0.2909  0.5483 -0.3454
  310MOL0     C40790   8.546   0.606   1.779  0.4854 -0.3424 -0.1000
  310MOL0     O40791   8.428   0.596   1.855  0.1300  0.0424  0.2559
  310MOL0     C40792   8.336   0.693   1.862  0.3057 -0.5684  0.0368
  310MOL0     C40793   8.200   0.659   1.875  0.4136 -0.5913 -0.6935
  310MOL0     C40794   8.096   0.752   1.879  0.1092 -0.1511  0.7652
  310MOL0     C40795   8.134   0.885   1.874 -0.2912  0.6545  0.6702
  310MOL0     O40796   8.043   0.997   1.877 -0.4881  0.4880  0.2953
  310MOL0     C40797   7.926   0.967   1.795 -0.5748  0.4973 -0.4903
  310MOL0     C40798   7.865   1.095   1.757  0.2562 -0.8202  0.0629
  310MOL0     C40799   7.754   1.091   1.645 -0.4803  0.0062 -0.8912
  310MOL0     C40800   7.620   1.033   1.699  0.6199 -0.9744  0.0460
  310MOL0     C40801   7.550   0.982   1.580 -0.1749  0.5689  0.4006
  310MOL0     C40802   7.416   0.916   1.620 -0.0789 -0.5499  0.0451
  310MOL0     C40803   7.317   0.909   1.508  0.4789 -0.4994  0.3097
  310MOL0     C40804   7.373   0.828   1.398 -0.5858  0.3368  0.6607
  310MOL0     N40805   7.422   0.693   1.429  0.6146  0.2033  0.3406
  310MOL0     C40806   7.371   0.596   1.519 -0.4250  1.4456 -0.7798
  310MOL0     C40807   7.446   0.484   1.494 -0.0959  0.2120 -0.6189
  310MOL0     C40808   7.430   0.349   1.566  0.2050 -0.5289 -0.4912
  310MOL0     C40809   7.377   0.216   1.499 -0.6216 -0.2384 -0.0916
  310MOL0     C40810   7.224   0.201   1.495  0.2894  0.5149 -0.8152
  310MOL0     C40811   7.197   0.050   1.477 -0.2769  0.0050  0.1705
  310MOL0     O40812   7.249  -0.001   1.345  0.1907 -0.8058  0.2697
  310MOL0     C40813   7.195  -0.116   1.288 -0.3740  0.2378 -0.4304
  310MOL0     C40814   7.212  -0.125   1.149 -0.9478  0.2605 -0.2259
  310MOL0     C40815   7.156  -0.237   1.090 -0.9796 -0.1015 -0.2691
  310MOL0     C40816   7.079  -0.338   1.165 -0.2414 -0.8368  0.2580
  310MOL0     C40817   7.019  -0.461   1.106 -0.1018 -0.4494 -0.2065
  310MOL0     O40818   7.029  -0.482   0.976  0.4848  0.3862 -0.0271
  310MOL0     C40819   7.004  -0.607   0.922 -0.3787 -0.7130  0.0584
  310MOL0     C40820   6.892  -0.676   0.945  0.3248  0.3737 -0.5514
  310MOL0     C40821   6.872  -0.809   0.899 -0.8709 -0.0370 -1.0039
  310MOL0     C40822   6.978  -0.876   0.825 -0.5193 -0.4804 -0.0274
  310MOL0     O40823   6.965  -1.000   0.771 -0.2802 -0.0757  0.4143
  310MOL0     C40824   6.855  -1.072   0.814  0.4409  0.5249 -0.7442
  310MOL0     C40825   6.863  -1.220   0.754  0.6808 -0.6459  0.1511
  310MOL0     C40826   6.990  -1.297   0.801 -0.2550  0.1389  0.5650
  310MOL0     C40827   6.995  -1.442   0.738  0.4053 -0.5936  0.2084
  310MOL0     C40828   7.102  -1.533   0.816 -0.2311 -1.0604  0.5551
  310MOL0     C40829   7.115  -1.667   0.737  0.3157 -0.2274 -0.2766
  310MOL0     C40830   6.977  -1.745   0.768 -0.5137  0.4180  0.3601
  310MOL0     C40831   6.975  -1.891   0.705 -0.9195 -0.7059 -0.6582
  310MOL0    Cl40832   6.928  -1.886   0.528  0.0415 -0.5010 -0.1618
  310MOL0     C40833   7.095  -0.793   0.801 -0.2968  0.0021 -0.0839
  310MOL0     C40834   7.109  -0.662   0.845  0.2236  0.4086  0.2290
  310MOL0     O40835   6.969  -0.538   1.193  0.7073 -0.0153  0.3364
  310MOL0     C40836   7.047  -0.306   1.303 -0.2133 -0.1004  0.0887
  310MOL0     C40837   7.115  -0.205   1.367 -0.6681 -0.0535 -0.6419
  310MOL0     N40838   7.528   0.507   1.385 -0.6253 -0.0250  0.6002
  310MOL0     N40839   7.525   0.630   1.350 -0.8172  0.1373  0.5061
  310MOL0     C40840   8.268   0.918   1.870  0.0368 -0.0858 -0.9952
  310MOL0     C40841   8.367   0.825   1.859 -0.2684 -0.4485  0.4092
  310MOL0     C40842   8.633   0.486   1.785  1.1771  0.3345  0.4427
  310MOL0     C40843   8.608   0.384   1.877  0.5171 -0.2295 -0.5355
  310MOL0     C40844   8.680   0.271   1.864 -0.1929 -0.0172 -0.4345
  310MOL0     C40845   8.788   0.249   1.779  0.1662 -0.5421 -0.7067
  310MOL0     O40846   8.864   0.144   1.781 -0.0738  0.3970  0.1311
  310MOL0     C40847   8.894   0.097   1.916 -0.4056  0.1444 -0.4445
  310MOL0     C40848   8.981  -0.017   1.897 -0.7673  0.3256  0.6010
  310MOL0     C40849   9.132   0.012   1.866  0.0105  0.1492  1.1459
  310MOL0     C40850   9.218  -0.102   1.804 -0.3360  0.7231  1.1719
  310MOL0     C40851   9.238  -0.201   1.912  0.3379 -0.8644 -0.4406
  310MOL0     C40852   9.258  -0.259   2.016  0.5173  0.0562 -0.0821
  310MOL0     C40853   8.817   0.363   1.690  0.7003 -0.7008  0.0704
  310MOL0     C40854   8.740   0.473   1.690  0.3991 -0.4699 -0.4940
  310MOL0     H40855   8.187   0.552   1.883  2.9865 -1.0096 -1.0081
  310MOL0     H40856   7.998   0.710   1.898 -0.3506  0.7402  0.4443
  310MOL0     H40857   7.865   0.903   1.859 -0.5337  2.3857  1.5523
  310MOL0     H40858   7.948   0.917   1.700 -1.1729 -0.6145 -0.0577
  310MOL0     H40859   7.947   1.154   1.715 -1.5979  0.3799 -2.0721
  310MOL0     H40860   7.831   1.140   1.851  4.1608  2.5308  0.1326
  310MOL0     H40861   7.800   1.040   1.560 -0.1936 -1.2283 -0.0099
  310MOL0     H40862   7.749   1.198   1.622  2.1766  0.6132  0.9611
  310MOL0     H40863   7.642   0.956   1.774 -2.2489 -0.9884  0.9666
  310MOL0     H40864   7.557   1.108   1.747  0.6032  0.6555 -2.3205
  310MOL0     H40865   7.612   0.903   1.536 -0.6314  0.3530  0.1457
  310MOL0     H40866   7.543   1.058   1.501 -1.2872 -0.4477 -0.5133
  310MOL0     H40867   7.373   0.982   1.695 -0.9352 -0.4926 -0.4880
  310MOL0     H40868   7.438   0.819   1.667  1.7917  0.9365  2.4588
  310MOL0     H40869   7.229   0.856   1.544 -1.9594  1.4365 -2.3278
  310MOL0     H40870   7.289   1.009   1.473 -1.5020 -1.6588 -1.6642
  310MOL0     H40871   7.452   0.878   1.341 -1.2499 -0.6455 -1.1959
  310MOL0     H40872   7.295   0.815   1.322 -0.8180 -0.6165  1.0417
  310MOL0     H40873   7.288   0.617   1.586  0.0809  1.5618 -0.1768
  310MOL0     H40874   7.367   0.361   1.654 -0.5921 -1.0981 -0.9678
  310MOL0     H40875   7.534   0.337   1.600  0.8781  0.2621 -2.1500
  310MOL0     H40876   7.428   0.132   1.546  1.5303  2.3509  2.5825
  310MOL0     H40877   7.398   0.212   1.392  2.7621 -0.2148  0.4879
  310MOL0     H40878   7.176   0.239   1.585 -0.8872 -2.1848 -0.2099
  310MOL0     H40879   7.177   0.235   1.402 -3.4796 -1.1573  0.2916
  310MOL0     H40880   7.089   0.036   1.472 -0.0752 -1.2733 -1.7897
  310MOL0     H40881   7.241  -0.005   1.561  0.3606 -0.0047 -0.1579
  310MOL0     H40882   7.258  -0.042   1.099  0.0465 -0.6397 -0.8390
  310MOL0     H40883   7.171  -0.246   0.983 -1.8401 -1.1818 -0.3123
  310MOL0     H40884   6.829  -0.621   1.015 -0.2811 -0.0596 -0.7457
  310MOL0     H40885   6.781  -0.854   0.938 -0.7706  0.5909 -0.0105
  310MOL0     H40886   6.768  -1.032   0.762 -1.9696 -0.7659  1.9958
  310MOL0     H40887   6.835  -1.070   0.922  3.1145 -2.6221 -0.0233
  310MOL0     H40888   6.869  -1.221   0.645  3.3346 -0.1751  0.2181
  310MOL0     H40889   6.777  -1.277   0.792  2.0624 -1.3021  2.5319
  310MOL0     H40890   6.987  -1.311   0.909  1.6015  2.8678  1.0605
  310MOL0     H40891   7.087  -1.251   0.781 -0.3187  0.3690  0.7778
  310MOL0     H40892   6.897  -1.490   0.743  0.3881 -0.5872 -0.0650
  310MOL0     H40893   7.015  -1.432   0.631 -0.9832 -1.2919 -0.1506
  310MOL0     H40894   7.077  -1.551   0.921 -2.6412  2.1699  0.7193
  310MOL0     H40895   7.197  -1.479   0.804 -0.2453 -1.4123 -1.3093
  310MOL0     H40896   7.202  -1.716   0.780 -0.1017  1.1584  2.3306
  310MOL0     H40897   7.127  -1.643   0.631  0.1611  1.2345  0.0105
  310MOL0     H40898   6.966  -1.754   0.876  1.5186 -0.2293  0.5622
  310MOL0     H40899   6.892  -1.695   0.721 -0.6224  0.7703  0.9244
  310MOL0     H40900   6.904  -1.953   0.761  3.1125 -4.7365  0.5643
  310MOL0     H40901   7.074  -1.936   0.716  0.4047  1.8368 -1.3489
  310MOL0     H40902   7.169  -0.842   0.740  0.2929  1.5592 -0.6823
  310MOL0     H40903   7.203  -0.611   0.828  0.8618 -0.7909  0.0292
  310MOL0     H40904   6.973  -0.372   1.347  1.3173 -2.0643 -0.1504
  310MOL0     H40905   7.086  -0.188   1.470 -2.1227 -1.6130 -0.7380
  310MOL0     H40906   8.291   1.024   1.865  4.6557 -0.6769  1.9112
  310MOL0     H40907   8.469   0.861   1.858 -0.9268  1.6016  1.2595
  310MOL0     H40908   8.530   0.385   1.952  1.0201  4.2099  0.2144
  310MOL0     H40909   8.652   0.193   1.934  0.5466 -0.1235 -0.2555
  310MOL0     H40910   8.808   0.072   1.980  0.2488  0.5449  0.6134
  310MOL0     H40911   8.953   0.169   1.974  0.1899 -0.0727 -0.7732
  310MOL0     H40912   8.976  -0.081   1.985 -0.1641 -1.3823 -0.5691
  310MOL0     H40913   8.933  -0.073   1.816 -0.2743 -0.3606  0.7814
  310MOL0     H40914   9.179   0.047   1.959  0.9303  0.2933  0.6428
  310MOL0     H40915   9.140   0.092   1.791 -1.8613 -1.6530 -1.1244
  310MOL0     H40916   9.157  -0.143   1.723  0.5296  3.7137 -1.1944
  310MOL0     H40917   9.312  -0.069   1.759  0.7368 -4.5951 -1.3262
  310MOL0     H40918   9.293  -0.298   2.110  1.3805  0.4193 -0.2473
  310MOL0     H40919   8.900   0.358   1.621  0.0157  0.7434 -0.9274
  310MOL0     H40920   8.757   0.552   1.618  0.4939  2.1454  2.1974
  311MOL0     O40921   3.559   9.106   2.801 -0.0054 -0.2776  0.1944
  311MOL0     C40922   3.645   9.187   2.818 -0.1658  0.2329  1.1446
  311MOL0     O40923   3.676   9.281   2.718 -0.9257 -0.2321 -1.4708
  311MOL0     C40924   3.604   9.303   2.603 -0.4444 -0.0133 -0.3461
  311MOL0     C40925   3.526   9.213   2.532 -0.7628 -0.4487  0.1710
  311MOL0     C40926   3.461   9.251   2.409 -0.1350  0.5900 -0.0048
  311MOL0     C40927   3.451   9.379   2.368  0.5995 -0.0199 -0.0146
  311MOL0     O40928   3.401   9.418   2.244 -0.3409 -0.1210  0.2081
  311MOL0     C40929   3.266   9.391   2.206  0.4720 -0.0414 -0.5289
  311MOL0     C40930   3.223   9.476   2.080  0.4638 -0.5897 -0.6183
  311MOL0     C40931   3.071   9.435   2.047  0.6690  0.7559  0.4347
  311MOL0     C40932   3.019   9.508   1.927  0.6217 -0.7794  0.4900
  311MOL0     C40933   2.861   9.499   1.915 -0.3017 -0.4845 -0.8830
  311MOL0     C40934   2.804   9.354   1.873  0.7533  0.2234 -0.7658
  311MOL0     C40935   2.651   9.332   1.855  0.2536 -0.4278  0.3734
  311MOL0     C40936   2.598   9.382   1.716 -0.1257  0.2059 -0.0930
  311MOL0     N40937   2.463   9.333   1.680  0.4706 -0.2492 -0.3819
  311MOL0     C40938   2.351   9.323   1.761  0.5172 -0.6002  0.5924
  311MOL0     C40939   2.237   9.325   1.683 -0.6099 -0.0106  0.3975
  311MOL0     C40940   2.100   9.294   1.742  0.1499 -0.6068 -0.5964
  311MOL0     C40941   2.033   9.417   1.816  0.3523  0.0715  0.9530
  311MOL0     C40942   1.907   9.398   1.901 -0.5449 -0.1547  0.6431
  311MOL0     C40943   1.790   9.321   1.829  0.5309 -0.5662 -0.1591
  311MOL0     O40944   1.690   9.310   1.936  0.0971 -0.3480 -0.6516
  311MOL0     C40945   1.558   9.331   1.912 -0.3314  0.5804 -0.3384
  311MOL0     C40946   1.480   9.353   2.024  0.1973 -0.1585  0.4128
  311MOL0     C40947   1.339   9.349   2.018  0.4406  0.2332  0.3156
  311MOL0     C40948   1.279   9.328   1.890  0.0154 -1.4063  0.2483
  311MOL0     C40949   1.137   9.344   1.867 -0.1992 -0.1881  0.1861
  311MOL0     O40950   1.097   9.349   1.737 -0.2774 -0.0826 -0.5175
  311MOL0     C40951   0.959   9.324   1.707 -0.0770 -0.5265  0.2770
  311MOL0     C40952   0.854   9.397   1.773  0.1492 -0.0776 -1.9510
  311MOL0     C40953   0.721   9.375   1.743 -0.1858  0.2915 -0.8343
  311MOL0     C40954   0.683   9.281   1.647 -1.1818  0.5718 -0.2634
  311MOL0     O40955   0.556   9.271   1.612  0.3253  0.3860  0.1603
  311MOL0     C40956   0.515   9.215   1.491  0.1510  0.7471 -0.8440
  311MOL0     C40957   0.386   9.292   1.450  0.6126 -0.0663 -0.2048
  311MOL0     C40958   0.284   9.221   1.353  0.4179  0.2736 -0.5729
  311MOL0     C40959   0.351   9.170   1.226 -0.1228  0.0080  0.2236
  311MOL0     C40960   0.252   9.095   1.125  0.0701 -0.1363 -0.1101
  311MOL0     C40961   0.203   8.968   1.189  0.1896 -0.5348  0.5489
  311MOL0     C40962   0.129   8.898   1.078  0.0221 -0.3135  0.3791
  311MOL0     C40963   0.038   8.801   1.146 -0.6001  0.2294  1.2620
  311MOL0    Cl40964   0.113   8.706   1.273  0.1741 -0.2960 -0.0070
  311MOL0     C40965   0.787   9.204   1.585 -0.8266 -0.2201 -0.5318
  311MOL0     C40966   0.922   9.230   1.616  0.2417  0.2300 -0.2523
  311MOL0     O40967   1.070   9.346   1.966  1.0637 -0.0122  0.2230
  311MOL0     C40968   1.365   9.297   1.777  0.8050  0.1779 -0.2583
  311MOL0     C40969   1.504   9.309   1.788  0.1695  0.2628  0.1544
  311MOL0     N40970   2.284   9.308   1.555 -0.4188 -1.0153  0.0320
  311MOL0     N40971   2.416   9.326   1.556  0.9908 -0.4595 -0.0236
  311MOL0     C40972   3.522   9.471   2.451 -0.0641 -0.1877 -0.5792
  311MOL0     C40973   3.605   9.434   2.556 -0.3110 -0.4805  0.2475
  311MOL0     C40974   3.732   9.162   2.927  0.2412 -0.7930 -0.7862
  311MOL0     C40975   3.866   9.188   2.915  0.3236 -0.5861 -0.4538
  311MOL0     C40976   3.955   9.144   3.010  0.0221 -0.2213  0.0839
  311MOL0     C40977   3.919   9.080   3.124  0.2916 -0.8032 -0.0093
  311MOL0     O40978   4.017   9.038   3.209  0.0885  0.3601 -0.0534
  311MOL0     C40979   3.989   8.980   3.338  0.0442  0.3798  0.6940
  311MOL0     C40980   3.972   8.833   3.318  0.7549 -0.0051 -0.1872
  311MOL0     C40981   4.078   8.764   3.231 -0.5253 -0.5534 -0.1493
  311MOL0     C40982   4.215   8.764   3.289  0.4025 -0.4566 -0.4214
  311MOL0     C40983   4.231   8.697   3.418  0.7499 -0.8083 -0.7653
  311MOL0     C40984   4.247   8.631   3.519  0.1905  0.5896  0.1719
  311MOL0     C40985   3.782   9.063   3.143 -0.6267 -0.3377  0.1834
  311MOL0     C40986   3.685   9.100   3.044  0.2424  0.2954  0.3653
  311MOL0     H40987   3.516   9.109   2.562  2.1676 -2.1573 -3.8706
  311MOL0     H40988   3.407   9.182   2.344 -3.2713  0.1515  2.8297
  311MOL0     H40989   3.193   9.410   2.285 -0.7585  0.0079 -1.6216
  311MOL0     H40990   3.268   9.285   2.177  2.9701 -0.2195  0.0948
  311MOL0     H40991   3.282   9.448   1.992  2.4086 -0.0439  0.4357
  311MOL0     H40992   3.235   9.582   2.106  1.6007 -0.8185 -0.1478
  311MOL0     H40993   2.995   9.437   2.125  2.3826 -0.0066  2.1925
  311MOL0     H40994   3.074   9.327   2.028  1.0011  0.1986  3.2242
  311MOL0     H40995   3.046   9.610   1.954  0.3366 -0.8688  1.1313
  311MOL0     H40996   3.072   9.484   1.835  3.0993  0.0221  1.6264
  311MOL0     H40997   2.839   9.576   1.840 -0.7186 -0.8833 -1.1754
  311MOL0     H40998   2.807   9.520   2.008 -0.6231 -0.1381 -1.1417
  311MOL0     H40999   2.826   9.288   1.957 -2.4466  4.6715  4.1793
  311MOL0     H41000   2.856   9.314   1.785 -1.0479  0.1926 -1.8645
  311MOL0     H41001   2.629   9.225   1.853  1.3132 -0.8898  4.5779
  311MOL0     H41002   2.591   9.384   1.931  2.8377  1.4491  1.2723
  311MOL0     H41003   2.663   9.343   1.637 -1.8385 -4.2889  0.3729
  311MOL0     H41004   2.594   9.491   1.717 -3.0591  0.1814  1.2118
  311MOL0     H41005   2.347   9.326   1.869 -3.9610  1.0758  0.5677
  311MOL0     H41006   2.094   9.222   1.824  2.8940 -0.0446  0.1682
  311MOL0     H41007   2.041   9.253   1.660  4.1334 -6.6191 -1.0652
  311MOL0     H41008   2.004   9.483   1.734  0.7293 -1.5383 -0.5299
  311MOL0     H41009   2.109   9.476   1.868  1.6421  0.6621 -1.4720
  311MOL0     H41010   1.937   9.344   1.991  0.7982  1.8361  1.4714
  311MOL0     H41011   1.871   9.495   1.937 -0.2501 -0.1045  0.8037
  311MOL0     H41012   1.804   9.218   1.798  2.8093  0.1318 -1.7035
  311MOL0     H41013   1.749   9.380   1.746  0.5746  0.3702  0.4666
  311MOL0     H41014   1.523   9.369   2.122  0.0417  0.2110  0.4220
  311MOL0     H41015   1.277   9.374   2.103  1.5146  4.1625  0.1320
  311MOL0     H41016   0.854   9.464   1.858 -0.4304  0.3077 -2.2450
  311MOL0     H41017   0.648   9.432   1.799 -2.2199 -0.0237 -2.9993
  311MOL0     H41018   0.499   9.108   1.506  0.8048  0.6238 -0.9584
  311MOL0     H41019   0.578   9.217   1.401  0.9002 -1.4168 -0.4158
  311MOL0     H41020   0.424   9.383   1.403  1.6414 -0.3412  0.0688
  311MOL0     H41021   0.327   9.309   1.540 -2.0968 -1.2149 -1.6632
  311MOL0     H41022   0.202   9.290   1.334  0.7472  0.6545 -0.6103
  311MOL0     H41023   0.236   9.133   1.397  0.7532 -0.0411 -0.8224
  311MOL0     H41024   0.397   9.252   1.170  0.2818  0.7768  1.6380
  311MOL0     H41025   0.435   9.105   1.251 -1.5942 -0.9485  3.1223
  311MOL0     H41026   0.301   9.066   1.032  1.3933 -0.0829  0.5505
  311MOL0     H41027   0.165   9.156   1.097 -0.4986  1.4106  4.2479
  311MOL0     H41028   0.133   8.973   1.273 -3.4081 -2.8766 -1.9654
  311MOL0     H41029   0.287   8.902   1.213  2.0345  1.5241  0.0995
  311MOL0     H41030   0.071   8.974   1.024  1.8495  3.1122  2.8469
  311MOL0     H41031   0.200   8.849   1.011  2.2013  0.1834  2.2173
  311MOL0     H41032   0.010   8.729   1.069  2.1255  0.0427  0.3401
  311MOL0     H41033  -0.057   8.846   1.175 -0.6789  2.0055 -1.3700
  311MOL0     H41034   0.768   9.130   1.508  0.5463 -2.8083  1.4701
  311MOL0     H41035   1.009   9.195   1.561  0.7018 -1.3032  1.3776
  311MOL0     H41036   1.327   9.268   1.680 -0.0689  0.0140  0.1287
  311MOL0     H41037   1.565   9.272   1.705 -1.0609 -3.0264  0.5437
  311MOL0     H41038   3.540   9.570   2.411 -0.6357 -0.3766 -1.3143
  311MOL0     H41039   3.651   9.513   2.614  0.7395 -0.8655 -0.0482
  311MOL0     H41040   3.912   9.241   2.833  3.5132 -1.3984  0.6709
  311MOL0     H41041   4.058   9.171   2.985  0.2285 -1.1026 -0.0481
  311MOL0     H41042   3.897   9.022   3.379 -0.8722  0.4912 -1.3407
  311MOL0     H41043   4.082   9.011   3.387 -0.1166  2.0215  0.0372
  311MOL0     H41044   3.976   8.790   3.418 -0.8176  0.3196  0.0301
  311MOL0     H41045   3.874   8.820   3.271  0.7631  2.4330 -0.9816
  311MOL0     H41046   4.090   8.809   3.132  1.4750  1.5279  0.9457
  311MOL0     H41047   4.049   8.659   3.220 -3.6095 -0.0064  1.4934
  311MOL0     H41048   4.273   8.710   3.213 -1.7826  0.6830 -3.0841
  311MOL0     H41049   4.259   8.865   3.291 -1.0632  0.3148 -2.6975
  311MOL0     H41050   4.267   8.566   3.602  1.3306  3.3690  2.2252
  311MOL0     H41051   3.734   9.021   3.231 -0.0721  1.3085  1.3444
  311MOL0     H41052   3.580   9.076   3.054 -0.4902  1.2564 -3.4185
  312MOL0     O41053   6.432   0.909   4.813  0.4750 -0.6946 -0.0247
  312MOL0     C41054   6.395   1.026   4.806  0.9684 -0.4894  0.8100
  312MOL0     O41055   6.486   1.129   4.798 -0.2663  0.1543 -0.0962
  312MOL0     C41056   6.617   1.091   4.772 -0.0876  1.1208 -0.6536
  312MOL0     C41057   6.681   1.141   4.661 -0.2328  0.7260  0.9767
  312MOL0     C41058   6.814   1.096   4.624  0.5766  0.1583 -1.3061
  312MOL0     C41059   6.888   1.010   4.707  0.9715 -1.8271 -0.1061
  312MOL0     O41060   7.025   0.988   4.687 -0.7314 -0.4824 -0.2572
  312MOL0     C41061   7.035   0.884   4.586 -0.1558  0.2074  0.8992
  312MOL0     C41062   7.099   0.760   4.642 -0.4741 -0.8812 -0.5092
  312MOL0     C41063   7.144   0.670   4.534  0.1518 -0.3437  0.0226
  312MOL0     C41064   7.170   0.533   4.597  0.4482  0.2826  0.3284
  312MOL0     C41065   7.235   0.436   4.498  0.0102 -1.5096 -0.0084
  312MOL0     C41066   7.258   0.301   4.561 -0.2624  0.2763 -0.5313
  312MOL0     C41067   7.314   0.211   4.451  0.4279 -1.2579  0.4983
  312MOL0     C41068   7.364   0.076   4.515  0.2648  0.2641 -0.4203
  312MOL0     N41069   7.411  -0.010   4.404  0.5733  0.1307  0.0510
  312MOL0     C41070   7.517   0.018   4.328 -0.4810 -0.9462 -0.3919
  312MOL0     C41071   7.529  -0.077   4.231 -0.0688 -0.4886  0.9660
  312MOL0     C41072   7.634  -0.085   4.119 -0.1746  0.0581  0.4860
  312MOL0     C41073   7.759   0.003   4.130 -0.0413 -0.1742 -0.2720
  312MOL0     C41074   7.825  -0.010   3.996  0.5336  0.1525  0.9635
  312MOL0     C41075   7.959   0.054   3.994 -0.8344 -0.0174 -0.2961
  312MOL0     O41076   7.951   0.198   3.973  0.1530  0.3542  0.5320
  312MOL0     C41077   7.918   0.289   4.068  1.1422  0.4149  0.0540
  312MOL0     C41078   7.844   0.396   4.029  0.0538 -0.3319 -0.7134
  312MOL0     C41079   7.808   0.488   4.121  0.7280 -0.0652  0.0159
  312MOL0     C41080   7.820   0.457   4.261 -0.3472 -0.2554  0.4143
  312MOL0     C41081   7.757   0.546   4.367 -0.0161 -0.4113 -0.6121
  312MOL0     O41082   7.818   0.541   4.493  0.7184 -0.3933  0.3155
  312MOL0     C41083   7.763   0.615   4.590  0.0525 -0.1152 -0.7425
  312MOL0     C41084   7.849   0.666   4.687 -0.4105 -0.8238  0.2671
  312MOL0     C41085   7.816   0.738   4.799  0.0070  0.0886  1.5909
  312MOL0     C41086   7.681   0.774   4.821  0.5197  0.3334 -0.5624
  312MOL0     O41087   7.649   0.840   4.933  0.9790  0.0283  0.3624
  312MOL0     C41088   7.740   0.864   5.038 -0.6861  0.0153  0.0820
  312MOL0     C41089   7.673   0.842   5.173  0.5439  0.2799 -0.0768
  312MOL0     C41090   7.572   0.956   5.211 -0.0831 -0.0844  0.3757
  312MOL0     C41091   7.480   0.911   5.323  0.4299 -0.2486 -1.0354
  312MOL0     C41092   7.363   1.002   5.352  0.2651  0.1099  0.7242
  312MOL0     C41093   7.303   0.952   5.487  0.0316 -0.4489  0.3609
  312MOL0     C41094   7.397   0.994   5.606  0.0796  0.2804 -0.3990
  312MOL0     C41095   7.308   1.014   5.729  0.2264  0.0580  0.4126
  312MOL0    Cl41096   7.417   1.091   5.841 -0.1802 -0.4754 -0.7455
  312MOL0     C41097   7.590   0.725   4.731  0.2195  0.6403  0.7333
  312MOL0     C41098   7.623   0.642   4.624 -0.3293 -0.3243 -0.1720
  312MOL0     O41099   7.668   0.627   4.331  0.0406  0.9322 -0.8861
  312MOL0     C41100   7.893   0.341   4.298  0.1586  0.1465 -0.3895
  312MOL0     C41101   7.952   0.265   4.203  0.1509 -0.2803 -0.6419
  312MOL0     N41102   7.442  -0.177   4.279  0.6781  0.5656  1.4481
  312MOL0     N41103   7.372  -0.142   4.377 -0.2159 -0.0470 -0.5224
  312MOL0     C41104   6.822   0.958   4.819  0.0735  0.3753  0.2478
  312MOL0     C41105   6.690   0.997   4.849  0.0477  0.1710 -0.3058
  312MOL0     C41106   6.248   1.067   4.812  0.7348 -0.3891 -0.1338
  312MOL0     C41107   6.202   1.205   4.800  0.1153  0.4074  0.7481
  312MOL0     C41108   6.064   1.237   4.811  0.6796  0.9499  0.3065
  312MOL0     C41109   5.976   1.136   4.837  0.8175 -1.1164 -0.0215
  312MOL0     O41110   5.835   1.163   4.852 -0.4616 -0.3729  0.8073
  312MOL0     C41111   5.763   1.151   4.733 -0.8075  0.8770 -0.8314
  312MOL0     C41112   5.739   1.293   4.673 -0.1048  0.3895 -1.0054
  312MOL0     C41113   5.663   1.379   4.785 -0.4122  0.5376  0.4692
  312MOL0     C41114   5.678   1.535   4.786  0.6670  0.2613 -0.3548
  312MOL0     C41115   5.593   1.589   4.897 -0.7322  0.9985 -0.2141
  312MOL0     C41116   5.512   1.643   4.967  0.6351  0.6488 -0.7612
  312MOL0     C41117   6.019   1.004   4.853  0.4942 -0.3156  0.0492
  312MOL0     C41118   6.154   0.961   4.840 -0.9687 -0.5336  0.6659
  312MOL0     H41119   6.626   1.220   4.610  2.2838  2.9097  1.4716
  312MOL0     H41120   6.871   1.140   4.543  1.9382 -0.6357 -0.8139
  312MOL0     H41121   7.082   0.925   4.496 -3.5551  1.3452 -0.5509
  312MOL0     H41122   6.936   0.846   4.559 -0.8656  1.8242  1.0966
  312MOL0     H41123   7.026   0.713   4.709 -0.8965 -0.1170 -0.4127
  312MOL0     H41124   7.179   0.795   4.708  0.5744 -1.9859 -1.1527
  312MOL0     H41125   7.238   0.705   4.492  0.7580 -0.9691  0.8437
  312MOL0     H41126   7.083   0.668   4.443  0.7136  0.6740 -0.3922
  312MOL0     H41127   7.245   0.552   4.675  0.9704 -1.3552  0.2675
  312MOL0     H41128   7.080   0.496   4.646  1.4351 -2.0338  0.5249
  312MOL0     H41129   7.338   0.467   4.478 -0.5529  0.1181 -0.5366
  312MOL0     H41130   7.184   0.419   4.403 -0.0634 -0.5642 -0.1416
  312MOL0     H41131   7.162   0.259   4.592 -1.2903  2.0087 -1.2264
  312MOL0     H41132   7.330   0.312   4.643 -0.0069 -1.4350 -0.4707
  312MOL0     H41133   7.232   0.186   4.383 -0.1575  0.4868  0.5290
  312MOL0     H41134   7.396   0.256   4.394  1.0385 -4.8817 -1.8307
  312MOL0     H41135   7.280   0.019   4.557 -0.8542 -0.6965 -3.6729
  312MOL0     H41136   7.445   0.099   4.584  1.6600 -1.8528 -1.2543
  312MOL0     H41137   7.567   0.114   4.332 -1.5207 -0.4241  0.7418
  312MOL0     H41138   7.578  -0.059   4.029 -1.4220  0.8559  1.4573
  312MOL0     H41139   7.667  -0.189   4.118 -0.1585  0.0419  1.5439
  312MOL0     H41140   7.823  -0.032   4.212  0.8085 -2.6848 -1.9245
  312MOL0     H41141   7.736   0.109   4.148  1.0424  0.4294 -2.1992
  312MOL0     H41142   7.836  -0.116   3.968  1.9509  0.2724  1.0059
  312MOL0     H41143   7.778   0.039   3.910  1.1885 -1.6261 -0.4953
  312MOL0     H41144   8.005   0.015   3.902 -1.8377 -1.7136 -0.1317
  312MOL0     H41145   8.011   0.022   4.084 -0.8424 -0.3541 -0.4091
  312MOL0     H41146   7.823   0.392   3.923 -1.1893  1.3554 -0.5565
  312MOL0     H41147   7.749   0.576   4.096  0.4794  0.1281  1.2263
  312MOL0     H41148   7.951   0.644   4.660  0.4133  3.6398 -1.2100
  312MOL0     H41149   7.905   0.768   4.853  1.3316  2.7162 -1.7036
  312MOL0     H41150   7.766   0.971   5.034 -1.1571  0.1918  1.1928
  312MOL0     H41151   7.820   0.790   5.032  0.4810  1.2884 -0.5341
  312MOL0     H41152   7.749   0.843   5.251  0.9389 -3.4003 -0.2469
  312MOL0     H41153   7.622   0.745   5.176  0.3539  0.1028 -3.8768
  312MOL0     H41154   7.507   0.968   5.123  1.1761  0.7042 -0.4795
  312MOL0     H41155   7.633   1.044   5.231 -1.8608  1.0188  1.1484
  312MOL0     H41156   7.429   0.820   5.292 -1.3344 -0.6018  2.3620
  312MOL0     H41157   7.537   0.883   5.412 -0.3123 -0.3509 -0.5777
  312MOL0     H41158   7.294   0.991   5.268 -3.1096 -0.0480  3.2967
  312MOL0     H41159   7.391   1.106   5.370 -2.0229  0.3505  3.6335
  312MOL0     H41160   7.290   0.845   5.468 -0.5620 -0.4859  0.9391
  312MOL0     H41161   7.206   1.002   5.492  1.2837  2.6510 -2.6781
  312MOL0     H41162   7.464   0.910   5.623 -0.2349 -0.2585 -1.6678
  312MOL0     H41163   7.449   1.089   5.590 -0.5472  1.0118  1.5613
  312MOL0     H41164   7.262   0.926   5.775 -0.0661  1.3124  2.6633
  312MOL0     H41165   7.223   1.076   5.702 -2.6923 -2.7425  2.3940
  312MOL0     H41166   7.488   0.760   4.741 -0.4992 -1.1560  0.0973
  312MOL0     H41167   7.539   0.623   4.559  0.7394  0.9616 -2.0429
  312MOL0     H41168   7.897   0.316   4.404  3.0113  2.9521  0.2963
  312MOL0     H41169   8.011   0.180   4.236  0.1868 -1.2387 -2.9661
  312MOL0     H41170   6.876   0.895   4.888 -1.9430  0.6949  2.2477
  312MOL0     H41171   6.638   0.960   4.937 -1.2750  4.1865  0.8078
  312MOL0     H41172   6.274   1.286   4.790 -1.0541  1.1971 -2.3393
  312MOL0     H41173   6.045   1.340   4.784  1.5459  0.3131 -3.2756
  312MOL0     H41174   5.681   1.083   4.761  0.9462  0.0536  3.0144
  312MOL0     H41175   5.822   1.091   4.664 -1.5721 -1.4463  0.4083
  312MOL0     H41176   5.834   1.343   4.652  1.0531 -0.7995  1.0621
  312MOL0     H41177   5.686   1.287   4.578  2.4467  3.5018 -2.8629
  312MOL0     H41178   5.679   1.340   4.886 -2.1609 -3.1069 -0.5093
  312MOL0     H41179   5.557   1.359   4.766  0.6823 -3.0532 -3.4068
  312MOL0     H41180   5.782   1.567   4.793  0.3695  1.2324 -0.2755
  312MOL0     H41181   5.635   1.574   4.693  2.0856 -1.5459 -1.8545
  312MOL0     H41182   5.423   1.684   5.009 -0.6960 -2.4713 -0.2453
  312MOL0     H41183   5.941   0.933   4.877  1.7795 -1.6814  0.2590
  312MOL0     H41184   6.169   0.855   4.860  1.9841 -0.0797  1.3366
  313MOL0     O41185   4.135   3.734   8.954  0.0965 -0.0409  0.0804
  313MOL0     C41186   4.088   3.843   8.923 -0.1242 -0.3772 -0.4048
  313MOL0     O41187   3.991   3.909   8.985 -0.0705  0.5933 -0.1191
  313MOL0     C41188   3.927   3.866   9.099  0.2576 -1.0271  0.1081
  313MOL0     C41189   3.840   3.961   9.142  0.5851  0.8943  0.6152
  313MOL0     C41190   3.757   3.942   9.250 -0.8340  0.2365  0.0472
  313MOL0     C41191   3.757   3.823   9.325  0.1598  1.2683  0.2037
  313MOL0     O41192   3.667   3.799   9.429 -0.7119  0.8539 -0.4485
  313MOL0     C41193   3.530   3.835   9.398 -0.2229 -0.2007  0.5584
  313MOL0     C41194   3.419   3.754   9.479 -0.5189  0.3883  0.0365
  313MOL0     C41195   3.489   3.683   9.599  0.1645  0.1510  0.4262
  313MOL0     C41196   3.401   3.595   9.673 -0.4199 -0.1918 -0.0649
  313MOL0     C41197   3.292   3.676   9.753 -0.2411 -0.3032  0.0493
  313MOL0     C41198   3.237   3.591   9.872  0.5615 -0.4336 -0.4663
  313MOL0     C41199   3.114   3.643   9.950  0.0329  0.1936  0.3559
  313MOL0     C41200   3.063   3.541  10.052  0.7317 -1.1776 -0.0141
  313MOL0     N41201   2.990   3.610  10.154 -0.0675 -0.3617 -0.1868
  313MOL0     C41202   2.865   3.665  10.137 -1.0900 -1.0096 -0.2481
  313MOL0     C41203   2.844   3.740  10.253  0.3877  0.4450  0.2183
  313MOL0     C41204   2.724   3.821  10.277  0.3300 -1.9965 -0.3949
  313MOL0     C41205   2.589   3.752  10.263  0.0400  0.3192 -0.6352
  313MOL0     C41206   2.588   3.601  10.286  0.1680  0.4789 -0.2670
  313MOL0     C41207   2.643   3.560  10.431  0.7723  0.1440  0.1432
  313MOL0     O41208   2.585   3.437  10.481  0.8048  1.0435  0.6305
  313MOL0     C41209   2.471   3.442  10.558 -1.4649 -0.4186 -0.1971
  313MOL0     C41210   2.387   3.551  10.567 -0.3662 -0.2045  0.2201
  313MOL0     C41211   2.287   3.554  10.657 -0.6860  0.2952 -0.2259
  313MOL0     C41212   2.274   3.458  10.758 -0.3098  0.1705 -0.2703
  313MOL0     C41213   2.151   3.463  10.853 -0.3910 -1.3710 -0.8732
  313MOL0     O41214   2.079   3.582  10.836 -0.7185 -0.1033  0.1898
  313MOL0     C41215   1.998   3.610  10.944 -0.2044  0.8259 -0.9563
  313MOL0     C41216   2.047   3.650  11.072  0.1833 -0.7166  0.0068
  313MOL0     C41217   1.980   3.641  11.185  0.4859 -0.3208 -0.0660
  313MOL0     C41218   1.838   3.622  11.172  0.0560 -0.8838  0.1404
  313MOL0     O41219   1.748   3.635  11.275 -0.2042 -0.9020 -0.4331
  313MOL0     C41220   1.809   3.674  11.400 -0.8270  0.4819  0.5116
  313MOL0     C41221   1.697   3.712  11.491 -1.1439  0.3043  0.4760
  313MOL0     C41222   1.623   3.594  11.553 -0.5354 -0.6617 -0.4647
  313MOL0     C41223   1.606   3.596  11.708 -0.2173 -0.1903  0.2908
  313MOL0     C41224   1.496   3.691  11.750  0.1751  0.2461 -0.7014
  313MOL0     C41225   1.496   3.728  11.898  0.6072 -0.5642  0.1258
  313MOL0     C41226   1.631   3.787  11.958  0.6022  0.1250  0.2545
  313MOL0     C41227   1.681   3.910  11.882  0.2369 -0.4885 -0.4488
  313MOL0    Cl41228   1.809   3.969  11.985  0.0043 -0.0602 -0.3134
  313MOL0     C41229   1.783   3.583  11.046  0.0856 -1.3998 -0.3062
  313MOL0     C41230   1.862   3.581  10.929  0.1903 -0.2410  0.4011
  313MOL0     O41231   2.111   3.367  10.918  0.5742 -0.0769 -0.0677
  313MOL0     C41232   2.362   3.354  10.749 -0.0106 -0.1361  1.0880
  313MOL0     C41233   2.462   3.337  10.649  0.6036 -0.4700  0.1674
  313MOL0     N41234   2.948   3.721  10.339 -0.4520 -1.1174  0.7781
  313MOL0     N41235   3.033   3.644  10.277  0.2816  0.1927 -0.7332
  313MOL0     C41236   3.860   3.733   9.295  0.3922 -0.5696 -0.4599
  313MOL0     C41237   3.936   3.751   9.179 -0.1626  1.0184  0.4644
  313MOL0     C41238   4.143   3.914   8.803  0.3096 -0.4605 -0.5444
  313MOL0     C41239   4.242   3.862   8.722  0.9367 -0.4655  0.2526
  313MOL0     C41240   4.289   3.934   8.612  0.3611 -0.1354  0.4848
  313MOL0     C41241   4.238   4.064   8.577  0.2899  0.3982  0.5933
  313MOL0     O41242   4.288   4.128   8.468  0.4330 -0.2939 -1.1416
  313MOL0     C41243   4.254   4.266   8.448 -1.1356  0.6603  0.3024
  313MOL0     C41244   4.348   4.341   8.356 -0.3932  1.1063  0.5933
  313MOL0     C41245   4.348   4.279   8.214 -0.5134  0.4249 -0.7892
  313MOL0     C41246   4.446   4.360   8.124  0.1156 -0.1963  0.5021
  313MOL0     C41247   4.444   4.287   7.992  0.1744  0.2446 -0.4841
  313MOL0     C41248   4.437   4.222   7.890 -0.0480 -0.2511  1.1235
  313MOL0     C41249   4.133   4.107   8.660 -0.4787 -0.7708  0.2777
  313MOL0     C41250   4.091   4.042   8.775 -0.1200  0.3104  0.2452
  313MOL0     H41251   3.837   4.046   9.075  1.7509  0.7649  0.3626
  313MOL0     H41252   3.695   4.027   9.277  1.1200  1.5121  0.7265
  313MOL0     H41253   3.519   3.807   9.293 -3.1830  1.7086  0.2322
  313MOL0     H41254   3.510   3.942   9.411 -0.3460 -0.4218  2.5426
  313MOL0     H41255   3.366   3.690   9.408  1.1493  0.2422 -1.1194
  313MOL0     H41256   3.346   3.828   9.515 -1.3257 -0.7123  0.7212
  313MOL0     H41257   3.526   3.760   9.667  1.8195  0.2694 -0.5524
  313MOL0     H41258   3.569   3.617   9.563 -0.3851 -0.4773  0.3406
  313MOL0     H41259   3.367   3.519   9.603  6.0561 -1.2210 -2.7801
  313MOL0     H41260   3.466   3.549   9.748  0.4596  2.6300  1.0266
  313MOL0     H41261   3.206   3.700   9.690 -1.3845 -2.4850  0.6660
  313MOL0     H41262   3.331   3.768   9.797 -0.6895  2.2677 -4.3713
  313MOL0     H41263   3.322   3.565   9.935  0.4143  2.6899  1.2259
  313MOL0     H41264   3.214   3.492   9.832  2.9087 -1.7223  1.1363
  313MOL0     H41265   3.142   3.741   9.990 -2.7340  1.3462 -0.3144
  313MOL0     H41266   3.023   3.655   9.891  0.0356 -2.0475 -0.1881
  313MOL0     H41267   3.151   3.492  10.096  1.6081  0.4000  0.0786
  313MOL0     H41268   3.001   3.469   9.998 -4.6218  2.4236  0.6088
  313MOL0     H41269   2.793   3.670  10.057  1.9298  2.4050 -3.0905
  313MOL0     H41270   2.733   3.904  10.207  1.4539 -1.9047 -0.1626
  313MOL0     H41271   2.723   3.870  10.375 -1.7999 -1.6583 -0.5381
  313MOL0     H41272   2.553   3.766  10.161 -0.0357  2.9437 -0.3184
  313MOL0     H41273   2.527   3.803  10.337  3.2495  1.6524  1.3334
  313MOL0     H41274   2.485   3.563  10.286  0.4913 -0.5574 -2.5697
  313MOL0     H41275   2.644   3.548  10.209  3.6899 -0.6277  2.7834
  313MOL0     H41276   2.626   3.628  10.515  1.3860 -0.1822  0.5346
  313MOL0     H41277   2.751   3.558  10.420  0.7547  0.5046 -0.0983
  313MOL0     H41278   2.402   3.635  10.501  0.1130  0.4315  1.1193
  313MOL0     H41279   2.211   3.632  10.653  0.1849  1.1291 -0.7847
  313MOL0     H41280   2.152   3.671  11.092 -0.1596  0.4874  0.6971
  313MOL0     H41281   2.041   3.646  11.275  2.8295  1.0361 -1.6086
  313MOL0     H41282   1.876   3.760  11.389 -1.0123  0.5109 -0.4309
  313MOL0     H41283   1.866   3.593  11.445 -1.3825  0.0949  0.5326
  313MOL0     H41284   1.627   3.779  11.440 -0.3204  3.0459  2.6840
  313MOL0     H41285   1.747   3.767  11.571 -0.1880 -1.7900  1.3985
  313MOL0     H41286   1.682   3.503  11.538 -0.4683 -0.7873  0.4829
  313MOL0     H41287   1.533   3.594  11.491 -1.0467  0.6325  0.2474
  313MOL0     H41288   1.565   3.499  11.739 -2.3023  0.1718 -1.0899
  313MOL0     H41289   1.706   3.620  11.746 -0.1821  2.0594 -1.0220
  313MOL0     H41290   1.396   3.652  11.733  0.1329 -0.5903  1.2450
  313MOL0     H41291   1.516   3.785  11.697  2.1921 -0.4570 -1.2837
  313MOL0     H41292   1.456   3.641  11.951 -1.3687  0.9845  1.3002
  313MOL0     H41293   1.436   3.819  11.903  3.1143  1.1470  1.1820
  313MOL0     H41294   1.603   3.824  12.057 -2.2290 -0.8020 -0.1012
  313MOL0     H41295   1.705   3.710  11.982  0.3249 -0.3872 -0.4844
  313MOL0     H41296   1.601   3.984  11.872  2.1739  1.8172  0.1487
  313MOL0     H41297   1.707   3.888  11.778 -1.5867 -1.9838 -0.6349
  313MOL0     H41298   1.677   3.565  11.032 -0.5304  0.0203  2.0248
  313MOL0     H41299   1.820   3.554  10.833  0.9244  1.2134 -0.3527
  313MOL0     H41300   2.337   3.267  10.810 -2.1804 -0.8041 -0.6091
  313MOL0     H41301   2.530   3.253  10.656  2.1789  0.6622 -0.7803
  313MOL0     H41302   3.854   3.652   9.368 -0.5704 -0.8730 -0.8618
  313MOL0     H41303   3.998   3.665   9.154 -0.0829  2.3986 -5.2262
  313MOL0     H41304   4.288   3.768   8.751  0.3679 -0.6727  0.4927
  313MOL0     H41305   4.361   3.893   8.541  1.5391  4.1563 -1.1604
  313MOL0     H41306   4.237   4.318   8.543 -2.1737 -1.8687  1.6271
  313MOL0     H41307   4.158   4.267   8.395  0.1781  2.2057 -2.2110
  313MOL0     H41308   4.322   4.447   8.348  0.5982  1.5176  2.4212
  313MOL0     H41309   4.449   4.332   8.396  0.0246 -0.7681 -0.7340
  313MOL0     H41310   4.242   4.272   8.188 -1.1119 -0.9468  1.6645
  313MOL0     H41311   4.392   4.180   8.227 -2.2836 -0.0413  3.7529
  313MOL0     H41312   4.417   4.466   8.121  0.3799 -0.1141  0.7865
  313MOL0     H41313   4.551   4.363   8.154  0.3246  2.4542 -0.2769
  313MOL0     H41314   4.458   4.169   7.799  2.2621 -0.6942  1.8355
  313MOL0     H41315   4.089   4.201   8.628  0.3449 -1.5488 -3.7667
  313MOL0     H41316   4.023   4.089   8.846 -0.7061  0.3468 -0.3315
  314MOL0     O41317   7.574   4.408   8.384 -0.0957 -1.2876  0.1093
  314MOL0     C41318   7.647   4.385   8.478 -0.5348  0.4646  0.4421
  314MOL0     O41319   7.723   4.263   8.494 -0.2831  0.0804 -0.3708
  314MOL0     C41320   7.729   4.183   8.386  0.7929  0.9685  0.1513
  314MOL0     C41321   7.748   4.214   8.255 -0.8982 -1.1203 -0.1887
  314MOL0     C41322   7.772   4.120   8.158 -0.2983 -0.1581  0.3826
  314MOL0     C41323   7.782   3.986   8.193 -0.6685  0.4995 -1.5615
  314MOL0     O41324   7.818   3.892   8.096  0.7466 -0.0315 -0.8968
  314MOL0     C41325   7.917   3.791   8.125  0.1689 -0.7507  1.5518
  314MOL0     C41326   8.051   3.859   8.155  0.0570  1.3453  0.1087
  314MOL0     C41327   8.172   3.756   8.152  0.6542 -0.5108 -0.2722
  314MOL0     C41328   8.294   3.821   8.214  0.5776 -0.4440 -0.9121
  314MOL0     C41329   8.420   3.731   8.202 -0.9111  0.5995 -0.4382
  314MOL0     C41330   8.403   3.610   8.290 -0.0373  0.8647 -0.4577
  314MOL0     C41331   8.539   3.537   8.339  0.0424 -0.6723  0.3795
  314MOL0     C41332   8.584   3.417   8.256 -0.2568 -0.9245 -0.0675
  314MOL0     N41333   8.677   3.455   8.147 -0.0560 -0.1710 -0.6333
  314MOL0     C41334   8.786   3.385   8.100  0.7010  0.3231  0.2552
  314MOL0     C41335   8.828   3.447   7.987  0.1883  0.4681  0.6159
  314MOL0     C41336   8.938   3.421   7.888  0.1912  0.0170  0.0382
  314MOL0     C41337   9.050   3.352   7.965 -0.2165 -0.1811  0.2556
  314MOL0     C41338   9.176   3.325   7.870 -0.1409 -0.1230  0.1889
  314MOL0     C41339   9.167   3.180   7.814 -0.0263 -0.7978  0.6278
  314MOL0     O41340   9.291   3.129   7.784  0.0293  0.2463  0.8949
  314MOL0     C41341   9.312   3.006   7.751  0.9711  0.3119 -0.2611
  314MOL0     C41342   9.446   2.972   7.743  0.5995 -0.1322  0.0549
  314MOL0     C41343   9.490   2.836   7.730  0.3511 -0.1821 -0.4288
  314MOL0     C41344   9.388   2.742   7.733 -0.0875  0.5971  0.4697
  314MOL0     C41345   9.426   2.599   7.709  0.6916 -0.3677  0.3261
  314MOL0     O41346   9.319   2.513   7.686 -0.5212 -0.1084 -0.1705
  314MOL0     C41347   9.340   2.383   7.653 -0.5712 -0.0101 -0.1276
  314MOL0     C41348   9.462   2.310   7.628 -0.3228 -0.2110  0.5043
  314MOL0     C41349   9.448   2.181   7.580 -0.2047 -0.5733 -0.0858
  314MOL0     C41350   9.327   2.120   7.559 -0.2183  0.9174 -0.1782
  314MOL0     O41351   9.315   1.983   7.520  0.4531  0.2681  0.0241
  314MOL0     C41352   9.431   1.903   7.563  0.3123  0.4876 -0.5380
  314MOL0     C41353   9.403   1.763   7.521 -1.0060  0.0279 -0.3709
  314MOL0     C41354   9.391   1.725   7.372  0.7121  0.0204 -0.2438
  314MOL0     C41355   9.382   1.572   7.342  1.2028  0.5084  0.5235
  314MOL0     C41356   9.236   1.506   7.343 -0.1599 -0.9251 -0.1213
  314MOL0     C41357   9.230   1.351   7.370 -0.4810 -0.0114 -0.1381
  314MOL0     C41358   9.301   1.291   7.498 -0.1715 -1.1336 -0.2986
  314MOL0     C41359   9.265   1.381   7.620  0.7615 -0.1677 -0.0676
  314MOL0    Cl41360   9.096   1.347   7.654  0.3647 -0.4379  0.0464
  314MOL0     C41361   9.212   2.194   7.566  0.0427  0.0823  0.9373
  314MOL0     C41362   9.226   2.321   7.612  0.3364  0.6805 -0.4298
  314MOL0     O41363   9.547   2.574   7.726  0.0018 -0.5925  0.5622
  314MOL0     C41364   9.261   2.778   7.751 -0.2915  0.2487  0.6608
  314MOL0     C41365   9.225   2.908   7.758  0.5972 -0.0300 -1.5181
  314MOL0     N41366   8.761   3.571   7.986 -0.3314 -0.1973 -0.3603
  314MOL0     N41367   8.662   3.571   8.075 -0.2419 -1.2611 -0.0539
  314MOL0     C41368   7.742   3.949   8.320 -0.6588  0.5255 -1.4260
  314MOL0     C41369   7.723   4.041   8.420 -0.5372  0.2933  0.3957
  314MOL0     C41370   7.646   4.477   8.589 -0.0940 -0.1051  0.4568
  314MOL0     C41371   7.757   4.479   8.671 -1.0204 -0.2616 -0.2553
  314MOL0     C41372   7.764   4.570   8.780 -0.4038  0.1629  0.2277
  314MOL0     C41373   7.658   4.665   8.798 -0.1314  0.7015  0.0686
  314MOL0     O41374   7.654   4.750   8.903  0.1835 -0.1974  0.0368
  314MOL0     C41375   7.549   4.848   8.942 -0.0374  0.7708  0.2329
  314MOL0     C41376   7.421   4.792   8.989  0.5287  0.4395  0.1350
  314MOL0     C41377   7.429   4.762   9.141 -0.5405  0.9835  0.0942
  314MOL0     C41378   7.289   4.733   9.190 -0.1389  0.3298 -0.7269
  314MOL0     C41379   7.228   4.616   9.129 -0.1383 -0.3901  0.4079
  314MOL0     C41380   7.172   4.525   9.077 -0.6121  0.1423  0.1164
  314MOL0     C41381   7.547   4.665   8.707  0.5388  0.6251 -0.2761
  314MOL0     C41382   7.551   4.575   8.607  0.5416 -0.7273 -0.5580
  314MOL0     H41383   7.737   4.317   8.222 -0.9945 -1.0493  0.0664
  314MOL0     H41384   7.785   4.163   8.060 -1.4157  2.2524  1.2214
  314MOL0     H41385   7.924   3.728   8.036 -0.7186  0.5666  0.5137
  314MOL0     H41386   7.890   3.717   8.202  1.5071 -2.4227  0.4899
  314MOL0     H41387   8.032   3.910   8.250  1.0906  2.6495 -0.3501
  314MOL0     H41388   8.085   3.939   8.088  1.6958  2.9548  2.6557
  314MOL0     H41389   8.198   3.735   8.048  1.1088  0.3710 -0.3394
  314MOL0     H41390   8.143   3.664   8.204  0.8903  0.7880  2.3021
  314MOL0     H41391   8.315   3.918   8.167 -0.1670  0.2613  0.1592
  314MOL0     H41392   8.278   3.844   8.320  0.1927  0.2097 -1.1054
  314MOL0     H41393   8.514   3.780   8.230 -0.5398 -0.2107 -0.2331
  314MOL0     H41394   8.440   3.697   8.099 -0.9421 -2.0700  0.3777
  314MOL0     H41395   8.343   3.547   8.224 -0.1638  4.1220 -3.7516
  314MOL0     H41396   8.345   3.623   8.381 -0.8270 -1.4609 -0.5533
  314MOL0     H41397   8.618   3.611   8.353 -1.8968  1.5036  0.3987
  314MOL0     H41398   8.520   3.488   8.435  2.0571 -0.2741  1.0404
  314MOL0     H41399   8.497   3.367   8.214 -0.6875  0.1843 -0.5079
  314MOL0     H41400   8.639   3.348   8.321  1.1024  0.8606  0.7851
  314MOL0     H41401   8.824   3.286   8.124  1.1802  0.9453  2.3142
  314MOL0     H41402   8.982   3.509   7.840 -1.5783 -0.0355 -1.7979
  314MOL0     H41403   8.903   3.367   7.800  1.8950 -0.9467 -0.1068
  314MOL0     H41404   8.997   3.266   8.006 -1.2153  0.1355 -0.3596
  314MOL0     H41405   9.088   3.412   8.049 -0.1522  1.8269 -1.1298
  314MOL0     H41406   9.177   3.400   7.790 -0.8469 -1.3216 -0.9961
  314MOL0     H41407   9.263   3.354   7.930 -0.7906  2.0249  0.1851
  314MOL0     H41408   9.102   3.174   7.727  1.2609 -0.7154 -0.3608
  314MOL0     H41409   9.134   3.114   7.895  0.0031  0.0082  1.3173
  314MOL0     H41410   9.513   3.057   7.746 -0.2877  0.6198 -0.7759
  314MOL0     H41411   9.596   2.820   7.712  0.7008 -2.5808  2.8526
  314MOL0     H41412   9.561   2.344   7.655  0.5158 -0.8873 -1.4744
  314MOL0     H41413   9.540   2.123   7.576  1.5649  2.1358 -2.1231
  314MOL0     H41414   9.452   1.908   7.670 -1.0322  2.9137 -0.3231
  314MOL0     H41415   9.522   1.936   7.511 -0.9461  3.3083 -1.1469
  314MOL0     H41416   9.306   1.746   7.568 -0.1426  0.4396  1.7059
  314MOL0     H41417   9.484   1.706   7.568 -0.3537 -0.6820 -2.2546
  314MOL0     H41418   9.475   1.771   7.319 -0.6970  1.1019 -1.6079
  314MOL0     H41419   9.312   1.782   7.323  0.2122  1.1635  1.7701
  314MOL0     H41420   9.429   1.550   7.246  1.8286 -2.0775  1.3496
  314MOL0     H41421   9.432   1.515   7.420 -1.3041 -0.5797  1.4350
  314MOL0     H41422   9.187   1.527   7.247  0.5192 -0.8397 -0.4522
  314MOL0     H41423   9.175   1.560   7.417  3.6394  1.6469  1.4346
  314MOL0     H41424   9.274   1.300   7.283  0.2656  2.6031 -1.3864
  314MOL0     H41425   9.127   1.316   7.372  0.3514 -2.7702  1.6069
  314MOL0     H41426   9.278   1.186   7.519 -2.2208 -0.8747 -1.0387
  314MOL0     H41427   9.410   1.301   7.487  0.2130  3.1590  4.0078
  314MOL0     H41428   9.265   1.487   7.595 -0.9299 -0.6885 -2.6432
  314MOL0     H41429   9.334   1.368   7.704 -3.5911  2.9807  4.5749
  314MOL0     H41430   9.115   2.148   7.549  0.3260 -1.5909  3.3519
  314MOL0     H41431   9.128   2.367   7.619 -0.7619 -1.2557 -1.9827
  314MOL0     H41432   9.186   2.703   7.775 -3.0374  1.8457 -2.1939
  314MOL0     H41433   9.120   2.929   7.774  1.1885  2.4596 -0.3691
  314MOL0     H41434   7.743   3.842   8.339 -1.8702  0.6884 -0.3201
  314MOL0     H41435   7.702   3.993   8.515 -1.5823 -1.5716 -0.7027
  314MOL0     H41436   7.847   4.420   8.657  0.6191  1.9090  0.5974
  314MOL0     H41437   7.845   4.586   8.852  1.5737 -1.0895 -1.6012
  314MOL0     H41438   7.523   4.903   8.851 -0.7002 -1.8669 -1.2451
  314MOL0     H41439   7.608   4.916   9.005  0.6408 -0.2634  0.7401
  314MOL0     H41440   7.343   4.868   8.978 -2.3887 -2.5460 -1.7860
  314MOL0     H41441   7.388   4.708   8.926 -0.0515  0.0572  0.9357
  314MOL0     H41442   7.469   4.847   9.197  0.1380  0.5475  0.2882
  314MOL0     H41443   7.504   4.685   9.155  0.0271  1.6675  0.9330
  314MOL0     H41444   7.304   4.715   9.297  0.1026 -1.6920 -1.0629
  314MOL0     H41445   7.227   4.822   9.183  1.8339  1.8289 -0.0976
  314MOL0     H41446   7.127   4.446   9.019 -1.0555 -0.9338  1.8383
  314MOL0     H41447   7.480   4.750   8.721  0.4858  0.5468 -0.0421
  314MOL0     H41448   7.475   4.584   8.529 -2.2422 -2.6785  1.6893
  315MOL0     O41449   8.930   0.396   8.567 -0.1802  0.1561  0.1165
  315MOL0     C41450   8.948   0.424   8.691  0.0156  0.5864 -0.2956
  315MOL0     O41451   8.900   0.339   8.789 -0.2924 -0.3599 -0.6601
  315MOL0     C41452   8.859   0.217   8.760  0.1144  0.3125  0.0285
  315MOL0     C41453   8.727   0.178   8.806  0.4675  0.1480  0.2727
  315MOL0     C41454   8.687   0.041   8.801 -0.4948  0.3996 -0.2224
  315MOL0     C41455   8.767  -0.052   8.736 -1.5460  0.1440  0.1951
  315MOL0     O41456   8.733  -0.187   8.718  0.2719  0.2540  0.3653
  315MOL0     C41457   8.622  -0.232   8.786 -0.5504  0.5795 -0.1611
  315MOL0     C41458   8.582  -0.364   8.729  0.3564 -0.2451  0.9720
  315MOL0     C41459   8.693  -0.469   8.716  0.0543 -0.3955 -0.1401
  315MOL0     C41460   8.760  -0.491   8.850  0.7640 -0.2262  0.0981
  315MOL0     C41461   8.831  -0.622   8.869  0.4864 -0.0287  0.3282
  315MOL0     C41462   8.961  -0.626   8.792 -0.1385 -0.1608  0.0448
  315MOL0     C41463   9.020  -0.769   8.800 -0.2335  0.3296 -1.1275
  315MOL0     C41464   9.118  -0.794   8.688 -0.5115  1.3332  0.1700
  315MOL0     N41465   9.229  -0.701   8.710  0.2443 -0.3180  0.7029
  315MOL0     C41466   9.296  -0.681   8.826 -0.7731 -0.0180 -0.4692
  315MOL0     C41467   9.398  -0.596   8.787 -0.4670  0.1200 -0.4151
  315MOL0     C41468   9.509  -0.560   8.884 -0.5036  0.0082  0.2836
  315MOL0     C41469   9.484  -0.426   8.956 -1.0161  0.0936  0.2297
  315MOL0     C41470   9.433  -0.320   8.863 -0.3073  0.5599 -0.1949
  315MOL0     C41471   9.467  -0.175   8.899 -1.1678  0.2924 -1.0004
  315MOL0     O41472   9.382  -0.119   8.999  0.2570 -0.1697  1.3634
  315MOL0     C41473   9.386   0.016   9.000 -0.1683 -0.4834 -0.3509
  315MOL0     C41474   9.271   0.092   8.981  0.1063  0.9952 -0.2776
  315MOL0     C41475   9.276   0.234   9.003  0.0419  1.3496 -0.1796
  315MOL0     C41476   9.386   0.303   9.061  1.0151 -0.5332  0.0275
  315MOL0     C41477   9.387   0.453   9.076  0.2230  0.4259  0.8872
  315MOL0     O41478   9.281   0.533   9.049 -0.0709 -0.6209 -1.0498
  315MOL0     C41479   9.298   0.673   9.069  0.6343 -0.0242  0.2657
  315MOL0     C41480   9.216   0.745   9.164  0.2937  0.6599 -0.4272
  315MOL0     C41481   9.234   0.882   9.186 -0.7429 -0.2598 -0.2325
  315MOL0     C41482   9.329   0.956   9.104  0.7588  0.5570  0.1020
  315MOL0     O41483   9.354   1.087   9.126  0.4767 -0.0844 -0.0223
  315MOL0     C41484   9.394   1.118   9.263 -0.2367 -0.7325 -0.0791
  315MOL0     C41485   9.450   1.260   9.253  0.6413 -0.0893 -0.5808
  315MOL0     C41486   9.570   1.294   9.347 -0.5729 -0.9533 -0.0996
  315MOL0     C41487   9.620   1.442   9.343  0.6204  0.2199  0.5704
  315MOL0     C41488   9.732   1.489   9.438  0.6900 -0.5218 -0.2221
  315MOL0     C41489   9.754   1.637   9.401  0.3206 -0.6926 -0.0514
  315MOL0     C41490   9.893   1.689   9.455 -0.1161  0.8988 -0.2333
  315MOL0     C41491  10.026   1.649   9.389  0.0041  0.2151  0.9517
  315MOL0    Cl41492  10.060   1.758   9.249  0.1665  0.0110 -0.1146
  315MOL0     C41493   9.407   0.888   9.008 -0.0393  0.6752 -0.3917
  315MOL0     C41494   9.391   0.748   8.992  0.4485 -0.8084 -0.0262
  315MOL0     O41495   9.492   0.491   9.128  0.7405 -0.5527  0.3498
  315MOL0     C41496   9.493   0.218   9.093  0.4548  0.3528  0.5197
  315MOL0     C41497   9.490   0.084   9.062  0.3289  1.4427  0.2821
  315MOL0     N41498   9.394  -0.570   8.652 -0.1363 -0.1404  0.8464
  315MOL0     N41499   9.288  -0.631   8.611  1.4396  0.0253  0.3943
  315MOL0     C41500   8.897  -0.012   8.683  0.6424  0.2511  0.8530
  315MOL0     C41501   8.940   0.120   8.695 -0.0900  1.1243 -0.0080
  315MOL0     C41502   9.005   0.554   8.708 -0.8308  0.5306  0.6924
  315MOL0     C41503   9.060   0.631   8.593  0.4742 -0.1389  0.1087
  315MOL0     C41504   9.103   0.768   8.601  0.3826 -0.1346 -0.0385
  315MOL0     C41505   9.073   0.838   8.715  0.0662  0.7889 -0.2633
  315MOL0     O41506   9.090   0.975   8.712 -0.7022 -0.2527 -0.7164
  315MOL0     C41507   9.203   1.014   8.787  0.4741 -0.0486 -0.9519
  315MOL0     C41508   9.251   1.154   8.768  0.4178  0.0766  0.7227
  315MOL0     C41509   9.308   1.169   8.623  0.2905  0.8770 -0.4844
  315MOL0     C41510   9.372   1.305   8.620  0.9697 -0.5131  0.1652
  315MOL0     C41511   9.509   1.309   8.678 -0.0178  0.5084 -0.0934
  315MOL0     C41512   9.622   1.329   8.720 -1.5401 -0.1287 -0.3511
  315MOL0     C41513   9.032   0.770   8.831  0.0579  0.4320  0.2806
  315MOL0     C41514   9.002   0.630   8.832 -0.5667 -0.0481  0.6115
  315MOL0     H41515   8.665   0.243   8.867  1.0893  0.0180  1.0770
  315MOL0     H41516   8.599   0.005   8.854 -1.9712  1.0685 -2.1043
  315MOL0     H41517   8.536  -0.167   8.766 -0.5584  0.9912  1.1359
  315MOL0     H41518   8.646  -0.234   8.893 -2.3327 -1.0769  0.2805
  315MOL0     H41519   8.518  -0.343   8.642 -2.3950 -0.4023  2.8332
  315MOL0     H41520   8.506  -0.407   8.794 -1.5954  0.2782 -0.8453
  315MOL0     H41521   8.776  -0.443   8.649  1.2444 -3.2104  0.0968
  315MOL0     H41522   8.650  -0.563   8.679  1.0970 -2.2213  2.9496
  315MOL0     H41523   8.824  -0.404   8.863  1.0674 -0.5047  0.4863
  315MOL0     H41524   8.688  -0.492   8.933  0.3336 -0.7720 -0.2688
  315MOL0     H41525   8.773  -0.710   8.837 -1.6980  1.2988  0.3991
  315MOL0     H41526   8.852  -0.631   8.976 -0.4013  0.2283  0.5361
  315MOL0     H41527   9.022  -0.544   8.830 -0.7582 -0.8057  2.6015
  315MOL0     H41528   8.937  -0.606   8.687 -1.4573 -2.5753 -0.1866
  315MOL0     H41529   9.061  -0.784   8.900  0.7127  0.8315 -1.4231
  315MOL0     H41530   8.933  -0.834   8.797  0.1026 -0.2373  0.5247
  315MOL0     H41531   9.060  -0.786   8.595  0.3255  1.5912 -0.3339
  315MOL0     H41532   9.153  -0.897   8.696  2.5039  2.0197 -2.3825
  315MOL0     H41533   9.300  -0.745   8.914 -0.2777 -0.6646 -0.9509
  315MOL0     H41534   9.605  -0.560   8.832 -0.4883 -3.1688  0.0898
  315MOL0     H41535   9.519  -0.630   8.968  1.1672  1.9341  1.8106
  315MOL0     H41536   9.582  -0.402   8.999  0.0286 -1.3437 -1.2575
  315MOL0     H41537   9.404  -0.434   9.031 -0.7242 -0.3279  0.4982
  315MOL0     H41538   9.471  -0.333   8.762 -1.6272  0.3735 -0.6930
  315MOL0     H41539   9.324  -0.335   8.860  0.0992 -3.2809 -0.9589
  315MOL0     H41540   9.456  -0.117   8.807 -1.1075  2.8928  0.5481
  315MOL0     H41541   9.570  -0.173   8.934 -1.3382  0.5235 -0.5036
  315MOL0     H41542   9.177   0.051   8.946 -1.5942  1.9044  2.8843
  315MOL0     H41543   9.187   0.285   8.966 -1.0839 -2.5481 -3.5675
  315MOL0     H41544   9.147   0.693   9.231 -0.0201 -0.8234 -1.8456
  315MOL0     H41545   9.181   0.928   9.269 -1.1433 -3.1423  1.2579
  315MOL0     H41546   9.475   1.052   9.296 -0.2054  0.0998  1.6486
  315MOL0     H41547   9.311   1.114   9.335 -0.5927 -0.2533 -0.4568
  315MOL0     H41548   9.364   1.328   9.260  1.1691  0.4358  1.4096
  315MOL0     H41549   9.500   1.273   9.156  0.1082  3.2020 -0.5383
  315MOL0     H41550   9.660   1.239   9.317  0.7519  0.5642  0.8721
  315MOL0     H41551   9.567   1.271   9.454 -0.9663  1.8334  0.5653
  315MOL0     H41552   9.669   1.445   9.245  0.2732 -0.3715  0.3745
  315MOL0     H41553   9.532   1.506   9.333 -0.7651 -1.5460  0.8190
  315MOL0     H41554   9.825   1.437   9.413  1.3722  0.8769 -0.7244
  315MOL0     H41555   9.688   1.483   9.538  1.0487 -0.0936 -0.0360
  315MOL0     H41556   9.680   1.707   9.439 -2.1746 -2.5167 -1.2961
  315MOL0     H41557   9.751   1.642   9.291  1.1048 -2.8763 -0.2300
  315MOL0     H41558   9.894   1.798   9.461 -3.6415  0.9838  1.2099
  315MOL0     H41559   9.902   1.660   9.560  0.8974  0.4000 -0.4483
  315MOL0     H41560  10.014   1.545   9.358 -3.1043  1.0207 -0.9613
  315MOL0     H41561  10.108   1.649   9.463  0.6443  1.7675  0.2963
  315MOL0     H41562   9.483   0.948   8.959 -1.0076  2.9622  0.7048
  315MOL0     H41563   9.463   0.696   8.928  1.4854 -1.6503  1.7513
  315MOL0     H41564   9.590   0.246   9.133  0.7311 -0.0021  0.1039
  315MOL0     H41565   9.580   0.032   9.093 -0.7408 -1.6465 -1.3819
  315MOL0     H41566   8.969  -0.073   8.631 -0.2616 -0.1610  0.0484
  315MOL0     H41567   9.041   0.143   8.661 -0.2166  1.1243 -0.3885
  315MOL0     H41568   9.083   0.576   8.503  1.0424 -1.0834  0.8154
  315MOL0     H41569   9.148   0.815   8.513  1.8298  0.9353  1.2218
  315MOL0     H41570   9.288   0.946   8.776  1.1932  0.8904 -1.2858
  315MOL0     H41571   9.171   0.999   8.890  2.3025 -1.6474 -0.5648
  315MOL0     H41572   9.160   1.212   8.786 -0.5785 -1.2975  0.2916
  315MOL0     H41573   9.337   1.170   8.834  0.3553 -0.2441  0.8815
  315MOL0     H41574   9.248   1.158   8.533  1.9058  1.1090 -1.6384
  315MOL0     H41575   9.378   1.087   8.606 -0.3885  0.0181  0.7041
  315MOL0     H41576   9.379   1.351   8.521  0.4601  1.8631  1.1585
  315MOL0     H41577   9.296   1.373   8.660  1.0775 -2.1366  3.4211
  315MOL0     H41578   9.721   1.338   8.759 -1.0778 -0.4133 -1.4046
  315MOL0     H41579   9.015   0.821   8.925 -1.2854 -2.7371  1.9183
  315MOL0     H41580   8.972   0.584   8.925 -1.1384  0.3932  0.6526
  316MOL0     O41581   7.488   2.655   6.552  0.5844  0.4449  0.0827
  316MOL0     C41582   7.536   2.608   6.652 -0.2020 -0.5830 -0.7887
  316MOL0     O41583   7.523   2.653   6.778 -0.2377  0.1323  0.1117
  316MOL0     C41584   7.415   2.736   6.813 -0.1402 -0.0727  0.1876
  316MOL0     C41585   7.405   2.872   6.782 -0.1042  0.0285 -0.3578
  316MOL0     C41586   7.306   2.960   6.819 -0.0614  1.1214  0.2663
  316MOL0     C41587   7.211   2.897   6.908  0.7339 -1.1141 -0.8898
  316MOL0     O41588   7.103   2.968   6.960  0.5574  0.9579 -0.2408
  316MOL0     C41589   6.987   2.992   6.870 -0.0131  0.1643  0.3531
  316MOL0     C41590   6.894   3.096   6.939 -0.4543  0.3267 -0.3911
  316MOL0     C41591   6.959   3.218   7.001 -0.0431  0.4674 -0.4027
  316MOL0     C41592   6.870   3.307   7.076  0.0136  0.0805 -0.3771
  316MOL0     C41593   6.756   3.372   6.992 -0.5019 -0.3624  0.0217
  316MOL0     C41594   6.669   3.482   7.065  0.2796  0.9653  0.8541
  316MOL0     C41595   6.547   3.512   6.962 -0.9540  0.1190 -0.6382
  316MOL0     C41596   6.498   3.659   6.978 -0.3116 -0.9404  0.3346
  316MOL0     N41597   6.595   3.762   6.926  0.7370  0.1722  0.1957
  316MOL0     C41598   6.684   3.835   7.000  0.2928 -0.4257  0.2134
  316MOL0     C41599   6.762   3.888   6.904 -0.9143 -0.1614 -0.4419
  316MOL0     C41600   6.906   3.923   6.928  0.2901 -0.4775  0.3687
  316MOL0     C41601   6.984   3.814   6.993 -0.3684  0.4066 -0.9772
  316MOL0     C41602   7.136   3.830   6.963  0.3893 -0.2399 -0.4798
  316MOL0     C41603   7.225   3.760   7.061 -0.1247 -0.0116 -0.3350
  316MOL0     O41604   7.222   3.847   7.175 -0.4915  0.4683 -0.3016
  316MOL0     C41605   7.271   3.804   7.295  0.1097  0.6111  0.4899
  316MOL0     C41606   7.316   3.903   7.383 -0.2040 -0.5295  0.2079
  316MOL0     C41607   7.351   3.865   7.508  0.1061  0.2484 -0.4746
  316MOL0     C41608   7.341   3.732   7.553 -0.4770  0.2145 -0.1941
  316MOL0     C41609   7.356   3.700   7.695 -0.4334 -0.0837 -0.4214
  316MOL0     O41610   7.395   3.799   7.778  0.2256  0.5407  0.2963
  316MOL0     C41611   7.361   3.815   7.911  0.3649 -0.7280 -0.7113
  316MOL0     C41612   7.401   3.922   7.979  0.0523 -0.2061  0.3622
  316MOL0     C41613   7.380   3.954   8.116  0.0521 -0.8142  0.3565
  316MOL0     C41614   7.300   3.874   8.191 -0.0037 -1.0694 -0.3855
  316MOL0     O41615   7.289   3.873   8.327 -0.0031 -0.4685  0.5037
  316MOL0     C41616   7.371   3.943   8.421 -0.2832 -0.1884  0.4619
  316MOL0     C41617   7.351   3.893   8.564 -0.2556  0.5265  0.1282
  316MOL0     C41618   7.201   3.898   8.610  0.6327 -0.1143 -0.1110
  316MOL0     C41619   7.163   3.894   8.761 -0.0039 -0.1673  0.1370
  316MOL0     C41620   7.243   3.785   8.839  0.3965 -0.3344 -0.4297
  316MOL0     C41621   7.225   3.808   8.990  0.3044 -0.8915 -0.1881
  316MOL0     C41622   7.332   3.906   9.039  0.1610 -0.8094 -1.0223
  316MOL0     C41623   7.264   3.986   9.146 -0.0019 -0.0702  1.1736
  316MOL0    Cl41624   7.378   4.111   9.217 -0.1629 -0.1342  0.4423
  316MOL0     C41625   7.246   3.758   8.128 -0.0318  0.3696 -0.4401
  316MOL0     C41626   7.270   3.732   7.992 -0.2797  0.4183  0.0438
  316MOL0     O41627   7.343   3.584   7.732  0.6392  0.3210  0.1998
  316MOL0     C41628   7.307   3.633   7.457 -0.3151 -0.4611 -1.1742
  316MOL0     C41629   7.271   3.666   7.329  0.3828 -0.5638 -1.3459
  316MOL0     N41630   6.713   3.860   6.779 -0.3764  0.4330 -0.3571
  316MOL0     N41631   6.627   3.775   6.789 -0.0634  0.1231 -0.3949
  316MOL0     C41632   7.219   2.762   6.951 -0.0731 -1.0409  0.5937
  316MOL0     C41633   7.313   2.680   6.900 -0.5320 -0.2063  0.1700
  316MOL0     C41634   7.631   2.498   6.640 -0.6344 -1.0691 -0.0086
  316MOL0     C41635   7.709   2.456   6.745 -0.7560  0.1083 -0.1690
  316MOL0     C41636   7.821   2.370   6.725  0.1829  0.2706 -1.0902
  316MOL0     C41637   7.865   2.324   6.601 -0.4204 -0.3020 -0.5136
  316MOL0     O41638   7.971   2.243   6.576  0.2990  0.3029  0.0120
  316MOL0     C41639   8.057   2.214   6.685  0.2746  0.3240  0.2812
  316MOL0     C41640   8.190   2.178   6.634 -0.2979 -0.4916 -0.1705
  316MOL0     C41641   8.195   2.025   6.594  0.2081 -0.9039 -1.6471
  316MOL0     C41642   8.323   1.979   6.521  0.3085 -0.7570  0.2054
  316MOL0     C41643   8.319   1.996   6.380 -0.6554  0.4778 -0.0561
  316MOL0     C41644   8.328   2.016   6.258 -0.3370  0.5539 -0.5919
  316MOL0     C41645   7.784   2.360   6.500 -0.6021 -0.6519  0.5132
  316MOL0     C41646   7.677   2.455   6.514 -0.4957  0.3309  0.0490
  316MOL0     H41647   7.483   2.918   6.722 -1.3319  2.0055 -0.5435
  316MOL0     H41648   7.307   3.058   6.772 -0.0699  0.5132 -1.0472
  316MOL0     H41649   6.923   2.906   6.846  0.0263  0.5513 -1.2635
  316MOL0     H41650   7.041   3.018   6.779 -1.2435 -4.1555 -1.8961
  316MOL0     H41651   6.860   3.043   7.028  1.3417  1.8097  1.2825
  316MOL0     H41652   6.816   3.118   6.867  0.1794  0.2389 -1.1171
  316MOL0     H41653   7.016   3.265   6.920  2.5443  0.2747  1.2133
  316MOL0     H41654   7.036   3.187   7.072 -0.6787  0.1760  0.1733
  316MOL0     H41655   6.831   3.254   7.163  1.1580  2.0222  1.4204
  316MOL0     H41656   6.932   3.385   7.121  2.2460 -3.0418  2.4138
  316MOL0     H41657   6.687   3.298   6.949 -0.5016 -1.2329  1.4618
  316MOL0     H41658   6.806   3.438   6.921  2.1665 -0.2382  1.8636
  316MOL0     H41659   6.737   3.567   7.080  2.3176 -0.7524  1.8217
  316MOL0     H41660   6.632   3.437   7.157 -0.5904 -0.7940 -0.2908
  316MOL0     H41661   6.575   3.504   6.857  0.6112 -4.7127 -0.1292
  316MOL0     H41662   6.462   3.445   6.979 -0.5019 -1.1129 -2.8390
  316MOL0     H41663   6.466   3.682   7.081  0.5194 -2.3330  0.9324
  316MOL0     H41664   6.412   3.668   6.911  0.0686  1.0078  0.0743
  316MOL0     H41665   6.698   3.817   7.106 -0.2058 -0.0363  0.3491
  316MOL0     H41666   6.912   4.004   7.001 -1.3658 -0.0897  0.1017
  316MOL0     H41667   6.941   3.963   6.831 -0.8147  2.7595  1.1665
  316MOL0     H41668   6.955   3.717   6.952 -1.3324 -0.0772  0.7363
  316MOL0     H41669   6.958   3.824   7.099 -0.6179  3.8696 -1.2556
  316MOL0     H41670   7.166   3.767   6.879  2.1883  1.4506 -1.1833
  316MOL0     H41671   7.167   3.934   6.957  0.3740 -0.2662 -0.9846
  316MOL0     H41672   7.329   3.759   7.025  0.0483 -2.7833 -0.0174
  316MOL0     H41673   7.203   3.654   7.078 -2.9803  0.7605  1.3415
  316MOL0     H41674   7.331   4.006   7.352  0.1844 -0.7507 -0.3651
  316MOL0     H41675   7.380   3.937   7.584 -0.3172  1.7179 -1.6489
  316MOL0     H41676   7.475   3.978   7.924 -0.8407  2.4392  1.6831
  316MOL0     H41677   7.436   4.040   8.152  1.9092 -1.9341  0.2785
  316MOL0     H41678   7.345   4.049   8.421  1.6689  0.3410 -0.1630
  316MOL0     H41679   7.476   3.932   8.392 -0.1396 -4.0412  1.8481
  316MOL0     H41680   7.405   3.958   8.633 -2.2064 -0.9656  3.2798
  316MOL0     H41681   7.390   3.791   8.570 -0.6729  0.3906  0.6176
  316MOL0     H41682   7.152   3.811   8.564 -1.8145  0.4180  1.2778
  316MOL0     H41683   7.156   3.989   8.568 -4.0081 -1.5623  1.1405
  316MOL0     H41684   7.170   3.996   8.801 -2.0603  0.5365 -1.1548
  316MOL0     H41685   7.057   3.869   8.774 -0.2330  0.4938 -0.4377
  316MOL0     H41686   7.348   3.784   8.807  1.0399 -1.9419  1.5430
  316MOL0     H41687   7.204   3.688   8.808 -0.7514  0.3326 -1.1886
  316MOL0     H41688   7.242   3.711   9.036 -0.1871 -0.2182  1.4739
  316MOL0     H41689   7.123   3.834   9.018 -0.0394 -1.0013 -1.2641
  316MOL0     H41690   7.413   3.843   9.076  0.2160  0.2759  0.7887
  316MOL0     H41691   7.371   3.974   8.962 -0.7958 -0.0594 -0.8696
  316MOL0     H41692   7.229   3.929   9.232  0.0368 -0.0149  1.2268
  316MOL0     H41693   7.179   4.036   9.099 -1.3597 -2.6612  0.6936
  316MOL0     H41694   7.179   3.698   8.189  2.0159  0.1807  1.7654
  316MOL0     H41695   7.217   3.643   7.959 -1.2140 -0.1274  2.7538
  316MOL0     H41696   7.306   3.532   7.496  1.7903  0.3229  1.2170
  316MOL0     H41697   7.246   3.584   7.263 -0.5823 -2.2988  1.0568
  316MOL0     H41698   7.163   2.726   7.036  1.5857 -0.2710  2.0826
  316MOL0     H41699   7.320   2.578   6.939 -2.5182  0.6988  3.3145
  316MOL0     H41700   7.687   2.499   6.842  0.7415  0.1020  0.1933
  316MOL0     H41701   7.874   2.338   6.814  0.9598 -0.2996 -1.7374
  316MOL0     H41702   8.014   2.139   6.752  2.0191 -1.5280 -0.5618
  316MOL0     H41703   8.076   2.301   6.749 -1.1179 -0.2011  1.4605
  316MOL0     H41704   8.216   2.237   6.546 -1.4381 -1.1024 -0.9362
  316MOL0     H41705   8.266   2.203   6.709  2.1310 -1.6561 -2.0963
  316MOL0     H41706   8.102   2.010   6.539 -0.7095  2.6379 -1.3026
  316MOL0     H41707   8.192   1.973   6.691  5.6680  0.7922 -0.1963
  316MOL0     H41708   8.402   2.021   6.584 -1.8747  0.1995  2.5214
  316MOL0     H41709   8.339   1.872   6.536  2.6531 -0.3206  1.2715
  316MOL0     H41710   8.341   2.026   6.152  0.7576  1.1568 -0.4118
  316MOL0     H41711   7.806   2.322   6.401 -0.6784 -2.4055  1.1337
  316MOL0     H41712   7.628   2.488   6.423 -0.9496  1.0788  0.5619
  317MOL0     O41713   1.772  10.337  10.043 -0.3382  0.0212 -0.5267
  317MOL0     C41714   1.743  10.426   9.970 -0.4088  0.1202  0.4688
  317MOL0     O41715   1.622  10.469   9.937  0.5586 -0.3862  0.1764
  317MOL0     C41716   1.506  10.431   9.993 -0.3181 -0.6275  0.5739
  317MOL0     C41717   1.476  10.301  10.022 -0.1885  1.1776  0.0755
  317MOL0     C41718   1.359  10.258  10.088  0.0877  0.2298 -0.3466
  317MOL0     C41719   1.263  10.354  10.107 -0.2436 -0.6668 -0.6089
  317MOL0     O41720   1.146  10.321  10.173  0.0481 -0.8656 -0.8438
  317MOL0     C41721   1.025  10.340  10.113  0.1394  0.0096  0.0821
  317MOL0     C41722   0.938  10.216  10.143 -0.2009 -0.3620  0.9756
  317MOL0     C41723   0.812  10.204  10.065 -0.2585  1.0607 -0.0855
  317MOL0     C41724   0.719  10.105  10.116 -0.5183  0.3439 -0.3653
  317MOL0     C41725   0.580  10.083  10.049  0.0232 -0.1523  0.6841
  317MOL0     C41726   0.481  10.185  10.090 -0.3413 -0.4386 -0.3132
  317MOL0     C41727   0.340  10.123  10.117 -1.0054  0.4809  0.4185
  317MOL0     C41728   0.270  10.082   9.996 -1.1829  0.4894 -0.1133
  317MOL0     N41729   0.141  10.026  10.030 -0.4853 -0.4227 -0.5385
  317MOL0     C41730   0.136   9.909  10.097  0.8152  0.0982 -0.7575
  317MOL0     C41731   0.004   9.873  10.091  0.0653 -0.0868 -0.0895
  317MOL0     C41732  -0.063   9.749  10.129 -0.1763  0.0813 -0.1235
  317MOL0     C41733  -0.147   9.777  10.255  0.2604  0.2154 -0.9357
  317MOL0     C41734  -0.077   9.710  10.370  0.5468 -0.5162  0.4918
  317MOL0     C41735  -0.139   9.725  10.510  0.2873  0.0743  0.1421
  317MOL0     O41736  -0.133   9.859  10.569 -0.3787  1.0994 -0.3334
  317MOL0     C41737  -0.249   9.925  10.613  0.1620  0.1952  0.4525
  317MOL0     C41738  -0.254  10.062  10.629 -0.5418 -0.5182  0.4332
  317MOL0     C41739  -0.366  10.121  10.684  1.0804  0.3593 -0.0650
  317MOL0     C41740  -0.476  10.047  10.728  0.6922  0.3512 -0.1522
  317MOL0     C41741  -0.585  10.099  10.791  1.3554 -0.1352  0.2660
  317MOL0     O41742  -0.620  10.049  10.915 -0.2154 -1.4032  0.2593
  317MOL0     C41743  -0.734  10.108  10.967  0.8581 -0.1157  0.0909
  317MOL0     C41744  -0.863  10.079  10.926  0.9006 -0.8209  0.2120
  317MOL0     C41745  -0.978  10.144  10.985 -0.1461  1.7709 -0.1554
  317MOL0     C41746  -0.961  10.235  11.088 -0.1020 -0.3754 -1.0909
  317MOL0     O41747  -1.063  10.297  11.156  0.1395  0.4174 -0.9797
  317MOL0     C41748  -1.155  10.202  11.220 -0.7897 -0.0359  0.1493
  317MOL0     C41749  -1.224  10.269  11.335  0.6173 -0.1007  0.1075
  317MOL0     C41750  -1.327  10.367  11.277 -0.0976  0.0017  0.3441
  317MOL0     C41751  -1.401  10.441  11.385  0.4077  0.1020 -1.1942
  317MOL0     C41752  -1.481  10.556  11.319 -0.7051 -0.4707  0.0957
  317MOL0     C41753  -1.552  10.631  11.428 -0.5404 -1.0313  0.3840
  317MOL0     C41754  -1.625  10.756  11.357 -0.0247  0.0801 -0.0595
  317MOL0     C41755  -1.670  10.853  11.457 -0.0163 -0.7156  0.2811
  317MOL0    Cl41756  -1.740  10.994  11.355  0.0935  0.7789 -0.0648
  317MOL0     C41757  -0.829  10.274  11.124 -0.3915 -1.2912  0.5506
  317MOL0     C41758  -0.718  10.207  11.066  0.3183  0.6372  0.4717
  317MOL0     O41759  -0.649  10.185  10.727 -0.5218 -0.1446  0.6527
  317MOL0     C41760  -0.473   9.908  10.720  0.0926  0.8176  0.4471
  317MOL0     C41761  -0.360   9.853  10.657 -0.8125  0.1579 -0.0839
  317MOL0     N41762  -0.068   9.982  10.038 -0.4157 -0.5468 -0.4189
  317MOL0     N41763   0.017  10.077  10.004 -0.1924  0.3752 -0.2104
  317MOL0     C41764   1.292  10.487  10.079 -0.7275  0.4639 -0.7616
  317MOL0     C41765   1.414  10.529  10.015 -0.4288  0.8620 -0.4385
  317MOL0     C41766   1.867  10.472   9.886  0.2854 -0.5306  0.8790
  317MOL0     C41767   1.869  10.608   9.831  0.7228  1.1703 -0.3218
  317MOL0     C41768   1.985  10.673   9.787 -0.1396 -0.4670  0.5229
  317MOL0     C41769   2.105  10.605   9.789  0.4127  0.0857 -0.8474
  317MOL0     O41770   2.217  10.663   9.738  0.2538  0.0772  0.1268
  317MOL0     C41771   2.312  10.683   9.841  0.2166 -0.3752  0.7528
  317MOL0     C41772   2.449  10.718   9.788 -0.7649 -0.0533  0.4483
  317MOL0     C41773   2.499  10.609   9.689  0.0961 -0.3382 -0.3363
  317MOL0     C41774   2.525  10.477   9.752  1.3105 -0.3091  1.1170
  317MOL0     C41775   2.657  10.471   9.808 -0.0624  0.2472 -0.2520
  317MOL0     C41776   2.767  10.443   9.847 -0.0944  0.2301  0.2852
  317MOL0     C41777   2.103  10.467   9.833 -1.1685  0.1120 -0.3232
  317MOL0     C41778   1.993  10.405   9.893  0.7282 -0.4733 -0.7053
  317MOL0     H41779   1.553  10.227  10.002  0.1414  2.2515 -3.1970
  317MOL0     H41780   1.344  10.156  10.123  0.5093  0.2472 -0.1066
  317MOL0     H41781   1.041  10.333  10.005 -1.8423  1.9592 -0.4295
  317MOL0     H41782   0.971  10.432  10.138 -0.5869 -0.0414 -1.2485
  317MOL0     H41783   0.914  10.207  10.249 -0.0277 -0.2889  1.0207
  317MOL0     H41784   1.007  10.136  10.113  1.9969  2.0044 -0.7133
  317MOL0     H41785   0.838  10.168   9.965 -2.1008  0.1345 -0.2793
  317MOL0     H41786   0.773  10.306  10.055  0.5707  1.5466  1.4465
  317MOL0     H41787   0.767  10.007  10.113 -2.6287 -0.7369 -3.2027
  317MOL0     H41788   0.689  10.129  10.219 -1.4704  0.5378 -0.6736
  317MOL0     H41789   0.545   9.992  10.098 -2.4424  1.0616  1.3211
  317MOL0     H41790   0.592  10.066   9.941 -2.8204 -2.5068  0.6073
  317MOL0     H41791   0.477  10.260  10.009 -1.3434 -0.4461 -0.2786
  317MOL0     H41792   0.508  10.234  10.184  0.2060 -0.8061 -0.2766
  317MOL0     H41793   0.353  10.037  10.184  3.1727  1.7597  1.5303
  317MOL0     H41794   0.280  10.200  10.165 -2.5923  0.3902 -1.2959
  317MOL0     H41795   0.329  10.012   9.935 -4.1631 -1.4625 -0.9887
  317MOL0     H41796   0.257  10.166   9.928  1.3349  2.1762  1.3364
  317MOL0     H41797   0.228   9.865  10.135  1.1583  3.4080  2.8952
  317MOL0     H41798   0.009   9.667  10.139 -0.2813  0.0653  0.5403
  317MOL0     H41799  -0.151   9.736  10.065 -0.2716  1.3608 -0.2702
  317MOL0     H41800  -0.252   9.745  10.251 -0.1675  0.9005  2.1299
  317MOL0     H41801  -0.168   9.882  10.276 -4.2693 -0.6464 -0.0012
  317MOL0     H41802  -0.068   9.603  10.348  0.5062 -0.7260  1.4488
  317MOL0     H41803   0.024   9.748  10.384  1.1286 -1.4898 -0.8670
  317MOL0     H41804  -0.083   9.659  10.576 -1.0532  0.5406  1.8241
  317MOL0     H41805  -0.243   9.693  10.498  1.2181 -2.2935 -2.9866
  317MOL0     H41806  -0.175  10.129  10.597  0.2877 -0.7179  1.9527
  317MOL0     H41807  -0.373  10.228  10.699  1.5251  0.4511 -0.4667
  317MOL0     H41808  -0.889  10.011  10.846  0.8913  0.7149 -1.1319
  317MOL0     H41809  -1.079  10.127  10.952 -0.2208 -2.9683  1.7879
  317MOL0     H41810  -1.098  10.116  11.255 -2.7557 -1.5703 -0.2009
  317MOL0     H41811  -1.237  10.173  11.154 -2.8789  1.2077  2.0598
  317MOL0     H41812  -1.142  10.317  11.388  0.4132 -0.3101  0.6134
  317MOL0     H41813  -1.280  10.193  11.391  2.8750 -2.2059 -0.3179
  317MOL0     H41814  -1.406  10.318  11.219 -1.1772  0.9510  0.9549
  317MOL0     H41815  -1.282  10.436  11.206  1.4405 -3.1869 -2.0260
  317MOL0     H41816  -1.479  10.378  11.427 -1.3272  2.0383 -1.3357
  317MOL0     H41817  -1.340  10.477  11.468 -1.1204 -1.4051  0.6860
  317MOL0     H41818  -1.552  10.515  11.246 -0.4821  2.6033 -2.0442
  317MOL0     H41819  -1.407  10.615  11.264 -0.9335 -2.2454 -2.3193
  317MOL0     H41820  -1.500  10.678  11.512  1.2834  1.2212 -1.8502
  317MOL0     H41821  -1.626  10.567  11.477 -1.9426  0.8718  0.8657
  317MOL0     H41822  -1.556  10.805  11.287  1.9573  1.2057  2.4925
  317MOL0     H41823  -1.707  10.711  11.301  1.7216 -2.9839 -0.4036
  317MOL0     H41824  -1.585  10.876  11.522  1.8678 -1.5212 -1.7560
  317MOL0     H41825  -1.741  10.795  11.516  3.2509 -4.3207  1.0584
  317MOL0     H41826  -0.804  10.338  11.208  0.1699 -0.4099 -0.2771
  317MOL0     H41827  -0.616  10.234  11.093  0.9265 -2.4465  1.6451
  317MOL0     H41828  -0.557   9.842  10.739  0.0596 -0.9169 -4.2466
  317MOL0     H41829  -0.355   9.745  10.669 -3.6779  0.0007  0.4813
  317MOL0     H41830   1.226  10.571  10.100  2.5967  3.4263 -1.2663
  317MOL0     H41831   1.431  10.631   9.981  0.0271  1.3188  1.0830
  317MOL0     H41832   1.784  10.675   9.834  0.3293  0.6889 -0.7146
  317MOL0     H41833   1.988  10.776   9.755  0.1959  0.1757  2.5377
  317MOL0     H41834   2.322  10.596   9.907  2.2123 -1.0947 -0.3832
  317MOL0     H41835   2.278  10.754   9.917  1.4085 -0.9061  1.8145
  317MOL0     H41836   2.438  10.812   9.733  3.5629 -0.1914 -0.9883
  317MOL0     H41837   2.521  10.739   9.868  1.1307 -1.8002 -0.7344
  317MOL0     H41838   2.594  10.644   9.647 -0.6232  1.8603 -0.2949
  317MOL0     H41839   2.431  10.613   9.603 -1.1166  0.7141  0.6372
  317MOL0     H41840   2.445  10.448   9.821 -0.5566  2.7240  0.4023
  317MOL0     H41841   2.515  10.407   9.668  2.4630  0.4761  0.3014
  317MOL0     H41842   2.855  10.411   9.900 -0.1739  0.0013  0.2771
  317MOL0     H41843   2.200  10.418   9.832 -1.1262  0.2010 -1.6372
  317MOL0     H41844   2.006  10.310   9.943  0.8016 -0.8689 -1.4746
  318MOL0     O41845   2.911   2.595   9.730 -0.3599 -0.2519  0.1860
  318MOL0     C41846   2.926   2.475   9.750  0.4984  0.2293 -0.3200
  318MOL0     O41847   3.047   2.410   9.731  0.3391 -0.0987 -0.0329
  318MOL0     C41848   3.136   2.474   9.653  0.1278  0.6379  0.9953
  318MOL0     C41849   3.105   2.530   9.522 -0.2311 -1.1772 -0.2639
  318MOL0     C41850   3.208   2.588   9.448  1.0787 -0.3960 -0.5183
  318MOL0     C41851   3.340   2.594   9.511 -0.8531  0.8629  0.6575
  318MOL0     O41852   3.434   2.640   9.430  0.2259 -0.0911 -0.1173
  318MOL0     C41853   3.567   2.620   9.468 -0.5114 -0.0193 -0.3695
  318MOL0     C41854   3.650   2.701   9.366  0.4787 -0.1368  0.2573
  318MOL0     C41855   3.804   2.685   9.397 -0.8268  0.1570  0.4330
  318MOL0     C41856   3.889   2.797   9.333 -0.5417 -0.5596  0.2761
  318MOL0     C41857   3.919   2.784   9.184  0.6050  0.6747  0.1443
  318MOL0     C41858   4.003   2.905   9.141  0.9955 -0.0345  0.0507
  318MOL0     C41859   4.030   2.880   8.998 -0.1174 -0.0168  1.0170
  318MOL0     C41860   3.905   2.881   8.905  0.1584 -0.6850  0.5251
  318MOL0     N41861   3.819   2.994   8.922  0.7401 -0.8271  0.9134
  318MOL0     C41862   3.850   3.120   8.903  0.4334 -0.0720  0.6981
  318MOL0     C41863   3.730   3.188   8.889 -0.0182  0.8021  0.0870
  318MOL0     C41864   3.706   3.333   8.861  1.7078  0.6322  0.7046
  318MOL0     C41865   3.728   3.421   8.988  0.0179 -0.3346 -0.1589
  318MOL0     C41866   3.701   3.574   8.984  0.7069  0.6786 -0.3211
  318MOL0     C41867   3.766   3.654   8.873  0.0144  0.0068  0.1514
  318MOL0     O41868   3.677   3.632   8.757 -1.2421  0.8574 -0.5547
  318MOL0     C41869   3.710   3.684   8.633  0.1353 -0.0361  0.5384
  318MOL0     C41870   3.612   3.684   8.537  0.8872  0.4084 -1.6439
  318MOL0     C41871   3.640   3.735   8.415  0.2286 -0.2490  0.2800
  318MOL0     C41872   3.761   3.801   8.379  0.1197  0.0451  0.3836
  318MOL0     C41873   3.782   3.850   8.237 -0.3871 -0.4813  2.0662
  318MOL0     O41874   3.892   3.925   8.217  0.1037 -0.4796 -0.4634
  318MOL0     C41875   3.917   3.984   8.098  0.1338 -0.0877  0.9278
  318MOL0     C41876   3.824   4.020   7.994 -0.0408 -0.4375  0.1287
  318MOL0     C41877   3.856   4.100   7.888 -0.7498 -0.4651  0.1925
  318MOL0     C41878   3.984   4.155   7.884 -0.3106  0.1342  0.0361
  318MOL0     O41879   4.017   4.234   7.773  0.2539  0.4448  0.2054
  318MOL0     C41880   4.083   4.353   7.792 -0.9983  0.1793 -0.0482
  318MOL0     C41881   4.043   4.441   7.907  0.0754  0.4452  0.6074
  318MOL0     C41882   4.089   4.582   7.890 -0.0840  0.1835 -0.3897
  318MOL0     C41883   4.039   4.661   8.022  0.4320 -0.0239 -0.3920
  318MOL0     C41884   4.131   4.785   8.052  0.5091  0.2201  0.1136
  318MOL0     C41885   4.275   4.746   8.100  0.4789 -0.6974  0.1988
  318MOL0     C41886   4.337   4.865   8.168  0.2048  0.7707 -0.5348
  318MOL0     C41887   4.393   4.953   8.061 -0.2887 -0.0232  0.2879
  318MOL0    Cl41888   4.554   4.882   8.022  0.1477 -0.4076 -0.0448
  318MOL0     C41889   4.085   4.101   7.963 -0.7613  0.2478 -0.3076
  318MOL0     C41890   4.052   4.015   8.070  0.6740  0.4746 -0.6044
  318MOL0     O41891   3.690   3.822   8.157 -0.1794  0.3799  0.6620
  318MOL0     C41892   3.855   3.815   8.481  0.0296  0.1343  0.5221
  318MOL0     C41893   3.829   3.756   8.610 -0.9349 -0.1300  0.7663
  318MOL0     N41894   3.629   3.094   8.911 -0.3222 -0.9322 -0.3321
  318MOL0     N41895   3.683   2.980   8.935  0.4372 -0.1266  0.5455
  318MOL0     C41896   3.372   2.535   9.635 -1.0532 -0.2242 -0.3088
  318MOL0     C41897   3.265   2.477   9.699  0.2599  0.1885 -0.9837
  318MOL0     C41898   2.813   2.402   9.815  0.5184  0.4084  0.3434
  318MOL0     C41899   2.705   2.468   9.866  0.9907  0.5599  0.2849
  318MOL0     C41900   2.587   2.397   9.907 -0.5848  0.1915  0.4466
  318MOL0     C41901   2.589   2.253   9.909 -0.5732  0.0688 -0.7348
  318MOL0     O41902   2.480   2.174   9.941 -0.2604  0.9301  0.3362
  318MOL0     C41903   2.348   2.230   9.952  0.6713 -0.2596 -0.5733
  318MOL0     C41904   2.294   2.241   9.803 -0.9878 -0.8517  0.9808
  318MOL0     C41905   2.168   2.323   9.793  0.6114 -0.5811 -0.7202
  318MOL0     C41906   2.060   2.290   9.898 -0.7822  0.4673  0.4093
  318MOL0     C41907   1.948   2.374   9.865  0.2009 -0.2309  0.6701
  318MOL0     C41908   1.847   2.448   9.843 -0.6427 -1.1731  0.7003
  318MOL0     C41909   2.700   2.185   9.873 -1.2185 -0.7655  1.5984
  318MOL0     C41910   2.818   2.264   9.829  0.5839 -0.4663  0.6780
  318MOL0     H41911   3.002   2.524   9.488  0.0117 -1.3156 -0.9865
  318MOL0     H41912   3.176   2.627   9.352 -2.5804 -0.4946  0.5197
  318MOL0     H41913   3.593   2.514   9.481  0.5976  0.2782 -0.0344
  318MOL0     H41914   3.586   2.668   9.564  3.3006  0.9514 -1.4328
  318MOL0     H41915   3.637   2.810   9.373  2.2973  0.2392 -1.4333
  318MOL0     H41916   3.629   2.669   9.264 -1.6462 -0.7311  0.8326
  318MOL0     H41917   3.849   2.592   9.363  1.8331  0.7488  2.0683
  318MOL0     H41918   3.814   2.680   9.506 -2.4434  0.4467  0.6304
  318MOL0     H41919   3.853   2.896   9.363 -0.4910 -1.6229  4.4589
  318MOL0     H41920   3.991   2.792   9.373  1.2632  1.9792 -3.4601
  318MOL0     H41921   3.824   2.784   9.130  0.4963  2.4005  0.2810
  318MOL0     H41922   3.964   2.687   9.163 -1.1308 -0.8129  2.7165
  318MOL0     H41923   4.092   2.915   9.204 -0.5219  1.0089  2.1138
  318MOL0     H41924   3.949   2.997   9.163  0.6613  0.1573 -1.4485
  318MOL0     H41925   4.105   2.952   8.966 -0.3571 -0.6122 -0.9956
  318MOL0     H41926   4.071   2.782   8.970 -2.5186 -1.3231  1.7550
  318MOL0     H41927   3.844   2.790   8.915  0.6963 -1.2202 -0.7646
  318MOL0     H41928   3.942   2.887   8.802 -0.9329 -0.0620  0.1507
  318MOL0     H41929   3.951   3.159   8.892  0.3986  1.0794  3.6643
  318MOL0     H41930   3.601   3.344   8.833  1.3569 -2.1020  0.6969
  318MOL0     H41931   3.775   3.364   8.782  3.5900 -3.3680  0.5252
  318MOL0     H41932   3.830   3.391   9.012 -0.1542 -1.8924 -1.1839
  318MOL0     H41933   3.667   3.384   9.071  1.7040 -0.8355  0.9113
  318MOL0     H41934   3.593   3.585   8.976  0.7196  0.8275 -0.2832
  318MOL0     H41935   3.740   3.618   9.076  1.9228 -1.8411  0.4644
  318MOL0     H41936   3.869   3.617   8.864 -0.3737 -1.1000  0.1127
  318MOL0     H41937   3.772   3.760   8.900  0.2251  0.2479 -0.8149
  318MOL0     H41938   3.516   3.640   8.562  1.7913 -0.9213 -0.3328
  318MOL0     H41939   3.569   3.726   8.333 -1.7580 -0.8851  1.9704
  318MOL0     H41940   3.721   3.992   8.013  0.2362 -0.2224  2.1919
  318MOL0     H41941   3.779   4.140   7.823 -0.4435  1.7629  1.1123
  318MOL0     H41942   4.066   4.419   7.707  1.8292 -0.1287 -0.9718
  318MOL0     H41943   4.190   4.328   7.795 -0.9171  0.3998 -0.8601
  318MOL0     H41944   4.087   4.392   7.995 -1.0119 -1.2509  0.2477
  318MOL0     H41945   3.935   4.449   7.924  0.1790  1.6852  0.7622
  318MOL0     H41946   4.065   4.635   7.797 -1.0587  1.6500  0.6392
  318MOL0     H41947   4.197   4.596   7.879  0.9864 -4.0296  2.5743
  318MOL0     H41948   3.938   4.703   8.012  1.5729  3.1771  0.1685
  318MOL0     H41949   4.047   4.598   8.111  1.6354 -0.6503 -0.9253
  318MOL0     H41950   4.081   4.849   8.126  0.4624 -0.4930  0.7059
  318MOL0     H41951   4.144   4.849   7.964  0.8135  1.6290  1.1382
  318MOL0     H41952   4.332   4.706   8.015  0.3753  1.6545 -1.0629
  318MOL0     H41953   4.256   4.676   8.182 -2.9637  0.0610  0.1808
  318MOL0     H41954   4.264   4.916   8.233 -3.1387 -1.3442 -2.3428
  318MOL0     H41955   4.425   4.839   8.228 -0.6287 -0.6662  0.1188
  318MOL0     H41956   4.404   5.059   8.084 -2.3175  1.7787 -5.3733
  318MOL0     H41957   4.341   4.952   7.965  1.8736  0.0241 -0.9629
  318MOL0     H41958   4.182   4.148   7.958  0.3475 -1.8262  0.4613
  318MOL0     H41959   4.130   3.988   8.141  1.1912 -1.0340 -1.6964
  318MOL0     H41960   3.952   3.859   8.462 -0.0969  0.2723  0.1915
  318MOL0     H41961   3.897   3.768   8.694  2.7277 -1.5821 -1.7417
  318MOL0     H41962   3.475   2.522   9.668 -0.8947  0.5305 -0.4789
  318MOL0     H41963   3.282   2.435   9.798  0.5733 -2.3680 -2.0401
  318MOL0     H41964   2.709   2.576   9.877 -1.2911  0.8578 -1.2110
  318MOL0     H41965   2.493   2.446   9.927 -0.6407 -0.4454  1.8812
  318MOL0     H41966   2.346   2.325  10.007 -4.0756 -2.3609  3.6470
  318MOL0     H41967   2.302   2.166  10.028  2.3665  1.4323  2.0308
  318MOL0     H41968   2.372   2.283   9.739 -0.9204  0.9655  2.1604
  318MOL0     H41969   2.295   2.140   9.762  2.6679 -0.2948 -0.7270
  318MOL0     H41970   2.114   2.317   9.698 -1.0352 -2.0075  0.2446
  318MOL0     H41971   2.194   2.428   9.811 -2.4814  0.0660  0.5873
  318MOL0     H41972   2.024   2.187   9.890 -2.2656  1.0854 -3.6801
  318MOL0     H41973   2.102   2.315   9.996  3.1771 -1.8912 -0.4927
  318MOL0     H41974   1.757   2.500   9.817 -0.8116 -1.1674  1.2889
  318MOL0     H41975   2.709   2.077   9.883 -0.6898 -1.5826 -4.1303
  318MOL0     H41976   2.912   2.218   9.802 -0.1764 -1.5357 -0.2802
  319MOL0     O41977   0.048   7.463   7.909  0.3815  0.8931 -0.7080
  319MOL0     C41978   0.116   7.363   7.877  0.1238 -0.4806  0.3228
  319MOL0     O41979   0.079   7.233   7.883  0.9545 -0.1604  0.6338
  319MOL0     C41980  -0.034   7.182   7.942  0.3491 -0.0934 -0.1652
  319MOL0     C41981  -0.113   7.081   7.882 -0.2942 -0.9005 -0.2502
  319MOL0     C41982  -0.208   7.020   7.955  0.0226 -1.0190  0.5062
  319MOL0     C41983  -0.230   7.064   8.087  0.1200  0.9752 -0.9940
  319MOL0     O41984  -0.336   7.016   8.171 -0.0582 -0.0219  0.0655
  319MOL0     C41985  -0.450   6.949   8.104  0.0858  0.4505  0.7820
  319MOL0     C41986  -0.572   6.943   8.191 -0.7491 -0.4951 -0.2913
  319MOL0     C41987  -0.670   6.872   8.099  0.2043 -0.5174 -0.2264
  319MOL0     C41988  -0.794   6.802   8.167 -1.2314  0.4503  0.4825
  319MOL0     C41989  -0.890   6.910   8.210  0.4815  0.0836 -0.5207
  319MOL0     C41990  -0.968   6.857   8.341  0.4493 -0.2496  0.6355
  319MOL0     C41991  -1.060   6.972   8.388  0.1064  0.1329  0.1788
  319MOL0     C41992  -1.119   6.944   8.519  0.3469  0.9991  1.0301
  319MOL0     N41993  -1.186   7.062   8.569 -0.2779 -0.2904  0.4137
  319MOL0     C41994  -1.147   7.169   8.655  0.8179 -0.3118 -0.3451
  319MOL0     C41995  -1.258   7.245   8.678  0.6570 -0.1462 -0.3335
  319MOL0     C41996  -1.243   7.378   8.740 -0.1352  0.9541  1.1064
  319MOL0     C41997  -1.162   7.482   8.661  0.1118 -0.1892  0.3777
  319MOL0     C41998  -1.159   7.621   8.736 -0.6405 -0.3125  0.7246
  319MOL0     C41999  -1.037   7.698   8.704  0.2721 -0.9767 -0.4970
  319MOL0     O42000  -1.043   7.813   8.780 -0.1335 -0.7491 -0.5374
  319MOL0     C42001  -1.091   7.932   8.728 -0.9712  0.8917  0.7639
  319MOL0     C42002  -1.105   7.955   8.590  0.5722 -0.3296 -0.7747
  319MOL0     C42003  -1.152   8.078   8.541  0.1734  0.5438 -0.6683
  319MOL0     C42004  -1.196   8.173   8.632  0.3282  0.0285  0.0140
  319MOL0     C42005  -1.248   8.302   8.585  0.2898  0.6490 -0.1573
  319MOL0     O42006  -1.340   8.366   8.658  0.0065  0.3680 -0.4523
  319MOL0     C42007  -1.391   8.480   8.630  0.7095 -0.2162  0.6798
  319MOL0     C42008  -1.532   8.488   8.646 -1.3105 -0.5894  0.0016
  319MOL0     C42009  -1.606   8.606   8.630  0.1829 -0.2660  0.4518
  319MOL0     C42010  -1.533   8.723   8.595 -0.0722 -0.7426 -0.1282
  319MOL0     O42011  -1.595   8.850   8.581  0.4055 -0.0238 -0.4224
  319MOL0     C42012  -1.739   8.860   8.603  0.4356 -0.5036 -1.3148
  319MOL0     C42013  -1.796   8.987   8.544 -0.6160  0.0908 -0.0176
  319MOL0     C42014  -1.941   8.985   8.505  0.5119 -1.0157  0.0755
  319MOL0     C42015  -2.036   8.956   8.626  0.2422 -1.0032 -0.2148
  319MOL0     C42016  -2.076   8.813   8.660  0.0898  0.4072 -0.2401
  319MOL0     C42017  -2.189   8.799   8.756 -0.3364  0.4457 -0.0796
  319MOL0     C42018  -2.322   8.795   8.688 -0.0527 -1.0442 -0.4572
  319MOL0     C42019  -2.436   8.783   8.788 -0.3724  0.2687  0.2648
  319MOL0    Cl42020  -2.591   8.803   8.701 -0.1074  0.2147 -0.0828
  319MOL0     C42021  -1.399   8.712   8.568  0.9225  0.4309  0.1938
  319MOL0     C42022  -1.327   8.601   8.595 -0.1907  0.3168  0.1865
  319MOL0     O42023  -1.211   8.345   8.474  0.5020 -0.2780  0.1783
  319MOL0     C42024  -1.179   8.148   8.775 -0.1521 -0.0629  0.4679
  319MOL0     C42025  -1.138   8.024   8.817 -1.0080  0.5139 -1.2877
  319MOL0     N42026  -1.367   7.196   8.599  0.7274 -0.3121 -1.3305
  319MOL0     N42027  -1.320   7.102   8.535 -0.3280  0.1947 -0.6470
  319MOL0     C42028  -0.149   7.157   8.149  0.2996 -0.4299  1.4771
  319MOL0     C42029  -0.059   7.220   8.071  0.6113 -0.5997  0.0207
  319MOL0     C42030   0.248   7.388   7.832 -0.3651  0.5380  1.2792
  319MOL0     C42031   0.307   7.519   7.854  0.3203  0.3353  1.1572
  319MOL0     C42032   0.432   7.547   7.799 -0.4594 -0.5398  0.4987
  319MOL0     C42033   0.497   7.448   7.718 -0.0622  0.1558  0.4112
  319MOL0     O42034   0.617   7.466   7.653 -0.3519 -0.0138  0.5047
  319MOL0     C42035   0.710   7.563   7.701  0.5840  0.5647 -0.1193
  319MOL0     C42036   0.845   7.497   7.700  0.6603  0.0379 -0.0338
  319MOL0     C42037   0.956   7.590   7.746  0.4994 -0.5418 -1.0143
  319MOL0     C42038   1.001   7.644   7.611  0.3462 -0.7193  0.1380
  319MOL0     C42039   1.120   7.730   7.635  0.0936  0.5534  0.4511
  319MOL0     C42040   1.217   7.801   7.636  0.2750 -0.2747 -0.2793
  319MOL0     C42041   0.444   7.323   7.710  0.0887  0.5738  0.3517
  319MOL0     C42042   0.326   7.284   7.772 -0.4015 -0.1526  0.1359
  319MOL0     H42043  -0.097   7.052   7.778  3.9139  0.2532 -0.1018
  319MOL0     H42044  -0.256   6.936   7.906 -1.2317 -1.8717  3.0271
  319MOL0     H42045  -0.417   6.850   8.072 -0.6609  0.5533 -0.3547
  319MOL0     H42046  -0.458   7.008   8.013 -0.1611  0.6723  0.9459
  319MOL0     H42047  -0.607   7.043   8.219 -0.8243 -1.3182  3.0157
  319MOL0     H42048  -0.562   6.881   8.281 -0.0178  1.5878  1.1424
  319MOL0     H42049  -0.625   6.788   8.046 -0.2725 -2.2535  1.9642
  319MOL0     H42050  -0.710   6.953   8.038  0.6924  0.6560  0.9339
  319MOL0     H42051  -0.850   6.731   8.105  0.8601  1.2385 -2.5490
  319MOL0     H42052  -0.755   6.744   8.251 -3.8705 -0.9158  0.8558
  319MOL0     H42053  -0.963   6.938   8.134 -2.0880 -0.2393  1.6919
  319MOL0     H42054  -0.838   7.000   8.244  0.8347 -0.5725  0.7506
  319MOL0     H42055  -0.899   6.852   8.426 -0.4642  3.4941  1.8133
  319MOL0     H42056  -1.024   6.764   8.329 -0.0313  0.3479 -2.4934
  319MOL0     H42057  -0.994   7.059   8.396 -0.9142  1.0336 -0.8546
  319MOL0     H42058  -1.141   6.990   8.317  2.6636  0.0352 -2.9788
  319MOL0     H42059  -1.053   6.913   8.600 -0.2000  0.8674  1.4284
  319MOL0     H42060  -1.189   6.860   8.508 -0.9155  2.3389 -2.8725
  319MOL0     H42061  -1.056   7.215   8.693 -0.2604  0.6555  1.1733
  319MOL0     H42062  -1.218   7.363   8.846 -3.8925 -0.0591  2.0065
  319MOL0     H42063  -1.343   7.420   8.756 -1.4370 -1.7169  0.5220
  319MOL0     H42064  -1.214   7.495   8.566  2.0282 -2.9486 -1.1926
  319MOL0     H42065  -1.061   7.444   8.644 -0.3112 -1.4609  0.5955
  319MOL0     H42066  -1.254   7.672   8.716 -0.2571  0.6857  1.4206
  319MOL0     H42067  -1.154   7.603   8.843 -2.6400 -1.4083  0.6827
  319MOL0     H42068  -1.040   7.725   8.598 -1.1561  2.2334  0.2371
  319MOL0     H42069  -0.947   7.638   8.713  2.1243  1.1972 -3.0034
  319MOL0     H42070  -1.072   7.888   8.512 -0.8089 -1.9065 -0.0616
  319MOL0     H42071  -1.164   8.097   8.434 -5.1842  1.4358 -0.1868
  319MOL0     H42072  -1.588   8.398   8.671 -1.1015 -1.0962 -1.2864
  319MOL0     H42073  -1.712   8.612   8.650  0.2470 -1.5934  1.2723
  319MOL0     H42074  -1.756   8.868   8.710  1.6362  1.4763 -1.2347
  319MOL0     H42075  -1.800   8.777   8.564 -1.0927  1.1683 -2.6996
  319MOL0     H42076  -1.737   9.027   8.461  1.6860  0.4327  1.6827
  319MOL0     H42077  -1.774   9.068   8.615 -2.2786  1.5002 -1.0395
  319MOL0     H42078  -1.948   8.910   8.427  1.5014  0.2425 -1.2918
  319MOL0     H42079  -1.974   9.083   8.467 -0.3494 -1.4087 -0.2200
  319MOL0     H42080  -2.000   9.009   8.715 -1.6909 -0.8433  0.5363
  319MOL0     H42081  -2.133   8.999   8.601  0.9025 -0.2077 -1.4617
  319MOL0     H42082  -1.986   8.760   8.691  0.0517 -0.6384 -1.8257
  319MOL0     H42083  -2.106   8.759   8.570  0.1032  0.1305 -0.0788
  319MOL0     H42084  -2.185   8.884   8.824  2.7000  2.0847 -2.0624
  319MOL0     H42085  -2.180   8.703   8.806 -0.6582  0.2329 -0.4212
  319MOL0     H42086  -2.331   8.891   8.636 -1.6393 -1.3402 -0.7748
  319MOL0     H42087  -2.319   8.725   8.605 -2.1827 -0.1428 -1.3870
  319MOL0     H42088  -2.417   8.856   8.867  1.6177  2.5483 -2.1279
  319MOL0     H42089  -2.436   8.686   8.840 -0.5875 -0.9636 -1.8830
  319MOL0     H42090  -1.356   8.809   8.547 -1.0915  1.4079  0.3907
  319MOL0     H42091  -1.219   8.594   8.583 -0.1838 -1.9064  1.0743
  319MOL0     H42092  -1.187   8.230   8.846 -1.5988  0.7701 -0.6064
  319MOL0     H42093  -1.135   7.999   8.923 -1.7168  0.1019 -1.3526
  319MOL0     H42094  -0.177   7.179   8.251  1.6882 -1.4969  2.1163
  319MOL0     H42095  -0.000   7.297   8.121 -1.9174  1.4953  0.0006
  319MOL0     H42096   0.251   7.600   7.900 -2.2939  1.5930 -3.6439
  319MOL0     H42097   0.477   7.644   7.811  3.8169 -2.5167  2.9470
  319MOL0     H42098   0.696   7.609   7.799  0.9018  2.9041 -1.1098
  319MOL0     H42099   0.715   7.640   7.623 -1.9744 -1.6056 -2.6764
  319MOL0     H42100   0.843   7.416   7.774 -0.2410  0.8172  0.8208
  319MOL0     H42101   0.867   7.447   7.605 -0.5264  2.0694 -1.4527
  319MOL0     H42102   1.032   7.531   7.797  0.6668  1.8117  1.7647
  319MOL0     H42103   0.919   7.668   7.814  1.1716 -2.0226  1.1560
  319MOL0     H42104   1.023   7.564   7.539  1.3576  2.5028 -3.4836
  319MOL0     H42105   0.911   7.699   7.583  0.5258 -0.0690  0.7945
  319MOL0     H42106   1.302   7.866   7.636 -0.5046  0.7795 -1.6641
  319MOL0     H42107   0.486   7.252   7.640  1.3951  1.4729  0.1843
  319MOL0     H42108   0.295   7.181   7.762  1.3241 -0.6498 -0.5087
  320MOL0     O42109  10.881   8.432   4.881  0.2852  0.2009  0.4839
  320MOL0     C42110  10.982   8.391   4.933 -0.5128  0.6025 -0.2831
  320MOL0     O42111  11.040   8.440   5.055 -0.1427 -0.8576 -0.4767
  320MOL0     C42112  10.971   8.528   5.137 -0.7369 -0.2752 -0.3494
  320MOL0     C42113  11.063   8.612   5.201 -0.2765 -0.1631  0.5172
  320MOL0     C42114  11.020   8.723   5.267 -0.6727 -1.1807  0.9601
  320MOL0     C42115  10.889   8.758   5.280  0.5155  0.3249 -0.2102
  320MOL0     O42116  10.852   8.868   5.349 -0.8544 -0.2457 -0.2542
  320MOL0     C42117  10.744   8.948   5.289  1.3553  0.5717 -0.2633
  320MOL0     C42118  10.776   9.025   5.163  0.8478 -0.0116 -0.1867
  320MOL0     C42119  10.929   9.066   5.162 -0.3519 -0.0929 -0.4216
  320MOL0     C42120  10.953   9.176   5.061 -0.4743  0.5818 -1.4179
  320MOL0     C42121  11.095   9.229   5.060 -0.4707 -1.0781  0.3323
  320MOL0     C42122  11.102   9.379   5.025  0.2903 -0.7738  0.8287
  320MOL0     C42123  11.106   9.410   4.870  0.0984  0.4740  0.0308
  320MOL0     C42124  11.157   9.547   4.834 -0.4434 -0.2440  0.1027
  320MOL0     N42125  11.152   9.567   4.686 -0.0348 -0.5336  0.6184
  320MOL0     C42126  11.266   9.570   4.608  0.1896  0.3044  0.5669
  320MOL0     C42127  11.218   9.596   4.482  0.3967 -0.4043 -0.8238
  320MOL0     C42128  11.291   9.609   4.353 -0.2780 -0.6810  0.6008
  320MOL0     C42129  11.355   9.756   4.335  0.2649 -0.1601 -0.6084
  320MOL0     C42130  11.436   9.763   4.200  0.4338  0.0068  0.3176
  320MOL0     C42131  11.342   9.770   4.078  0.4273 -0.0579  0.2192
  320MOL0     O42132  11.411   9.738   3.956 -0.5709 -0.9682 -0.1948
  320MOL0     C42133  11.353   9.728   3.838  0.5483  0.2976 -0.9715
  320MOL0     C42134  11.427   9.704   3.719  0.4696  0.1029  0.2712
  320MOL0     C42135  11.364   9.686   3.592  0.2316  0.2883 -0.3046
  320MOL0     C42136  11.223   9.687   3.585  0.0622 -0.3550 -0.1932
  320MOL0     C42137  11.147   9.689   3.461 -0.7328 -0.3629  0.9917
  320MOL0     O42138  11.016   9.697   3.465 -0.0642  0.2305  0.2212
  320MOL0     C42139  10.932   9.698   3.353 -0.3957  0.4762 -0.0663
  320MOL0     C42140  10.975   9.695   3.213 -0.6767 -0.4077  0.3556
  320MOL0     C42141  10.888   9.700   3.112  0.4214 -0.8146  0.9710
  320MOL0     C42142  10.755   9.711   3.139  0.3454  0.5159 -1.1397
  320MOL0     O42143  10.664   9.719   3.038  0.8158  0.1454  0.8115
  320MOL0     C42144  10.567   9.618   3.030  0.9285  0.5384 -0.3195
  320MOL0     C42145  10.459   9.657   2.920 -0.1737  0.0056 -0.3556
  320MOL0     C42146  10.501   9.680   2.769  0.2653  0.1573  0.4471
  320MOL0     C42147  10.393   9.741   2.690  0.5554  0.0752  0.9437
  320MOL0     C42148  10.268   9.662   2.693 -0.6275  0.2755  0.0812
  320MOL0     C42149  10.184   9.657   2.559 -1.0109 -0.8215 -0.3992
  320MOL0     C42150  10.042   9.606   2.578 -0.8613 -0.4596  0.3903
  320MOL0     C42151   9.966   9.623   2.441  0.0202  0.1965 -0.3168
  320MOL0    Cl42152   9.789   9.644   2.471 -0.1244  0.2758  0.4432
  320MOL0     C42153  10.711   9.709   3.273  0.0897  0.2126  0.3517
  320MOL0     C42154  10.795   9.697   3.383  0.1738  0.0778 -0.1139
  320MOL0     O42155  11.217   9.692   3.355  0.3257 -0.3763  0.0364
  320MOL0     C42156  11.153   9.698   3.706  0.0375 -0.5326 -0.1954
  320MOL0     C42157  11.217   9.720   3.830  0.4526  0.7988  0.8031
  320MOL0     N42158  11.079   9.608   4.479 -0.6827  0.0057 -0.6537
  320MOL0     N42159  11.044   9.598   4.607 -0.4315 -0.8428  0.0114
  320MOL0     C42160  10.797   8.675   5.216 -0.4402  0.3225 -0.5024
  320MOL0     C42161  10.837   8.560   5.150  0.4506 -0.0474  1.0711
  320MOL0     C42162  11.066   8.298   4.854 -0.5964 -0.2515  0.1523
  320MOL0     C42163  11.206   8.275   4.890 -0.2025  1.0034  0.8467
  320MOL0     C42164  11.289   8.189   4.817  0.1852 -0.3476  0.1625
  320MOL0     C42165  11.239   8.121   4.709 -0.2018 -0.6786 -0.5422
  320MOL0     O42166  11.318   8.035   4.636  0.2806  0.0783  0.7106
  320MOL0     C42167  11.432   7.976   4.689 -0.0884  0.2467 -0.5571
  320MOL0     C42168  11.407   7.894   4.823 -0.3790  0.3892 -0.2000
  320MOL0     C42169  11.529   7.807   4.851  0.3570  0.9753 -1.0648
  320MOL0     C42170  11.548   7.780   5.002 -0.2400 -0.0575 -0.6611
  320MOL0     C42171  11.556   7.901   5.078  0.1794 -0.0787 -0.1248
  320MOL0     C42172  11.546   8.014   5.123  0.7193 -0.6293  0.5495
  320MOL0     C42173  11.103   8.131   4.681 -0.1326 -0.3481 -0.6070
  320MOL0     C42174  11.021   8.220   4.753 -0.5853  0.4480  0.1904
  320MOL0     H42175  11.170   8.600   5.186 -0.1153 -0.2978  1.6304
  320MOL0     H42176  11.088   8.793   5.316 -0.9952 -1.3324  1.6453
  320MOL0     H42177  10.730   9.029   5.361 -1.0894  0.3152 -0.3548
  320MOL0     H42178  10.646   8.899   5.288  1.3605  0.4262  1.5869
  320MOL0     H42179  10.700   9.102   5.148 -0.6297 -1.0031  1.6463
  320MOL0     H42180  10.758   8.952   5.084  1.0558 -0.2371 -0.0283
  320MOL0     H42181  10.995   8.979   5.154  0.6004  0.5320  0.3762
  320MOL0     H42182  10.950   9.118   5.256 -4.9366 -0.1916  0.8874
  320MOL0     H42183  10.927   9.144   4.960 -3.3597  1.1077 -0.9196
  320MOL0     H42184  10.891   9.264   5.079 -0.7292  0.4012 -1.4134
  320MOL0     H42185  11.155   9.186   4.980  1.8275  2.0545  0.1697
  320MOL0     H42186  11.146   9.215   5.155  2.4268  1.5002 -0.6784
  320MOL0     H42187  11.199   9.406   5.068  2.3609 -1.8590 -2.7233
  320MOL0     H42188  11.027   9.440   5.076  0.1646  1.8884 -2.2406
  320MOL0     H42189  11.176   9.348   4.814  0.1612 -0.9936  1.6510
  320MOL0     H42190  11.006   9.395   4.829 -1.3903 -0.8242  3.6485
  320MOL0     H42191  11.262   9.550   4.864 -0.5543  0.5956  0.4361
  320MOL0     H42192  11.093   9.622   4.880 -0.6660 -0.8186  0.7513
  320MOL0     H42193  11.367   9.552   4.645 -1.2524 -4.4709  2.9607
  320MOL0     H42194  11.212   9.603   4.278  0.7077 -0.1371 -0.5043
  320MOL0     H42195  11.371   9.535   4.346 -0.0672 -0.2949 -2.0612
  320MOL0     H42196  11.419   9.769   4.423 -1.4512  1.5542  0.4776
  320MOL0     H42197  11.273   9.827   4.325  1.7439  1.7386  0.1812
  320MOL0     H42198  11.514   9.839   4.208  0.8381 -0.5978  3.5021
  320MOL0     H42199  11.490   9.667   4.205  1.7836  0.8048  2.5943
  320MOL0     H42200  11.299   9.870   4.086 -2.2705 -1.2530  1.9246
  320MOL0     H42201  11.263   9.697   4.100 -1.6044  2.1842  0.7517
  320MOL0     H42202  11.535   9.713   3.725  0.5938  0.7685 -2.0878
  320MOL0     H42203  11.415   9.702   3.498  2.1512  0.9020  0.7957
  320MOL0     H42204  11.078   9.684   3.178 -1.1510 -1.6763 -0.7181
  320MOL0     H42205  10.910   9.712   3.006 -3.5247  1.9041  0.2428
  320MOL0     H42206  10.502   9.602   3.116 -1.0573  2.7579 -1.3074
  320MOL0     H42207  10.618   9.524   3.008  2.1093 -0.2065  4.4586
  320MOL0     H42208  10.418   9.746   2.968  3.6252  1.9308 -0.2267
  320MOL0     H42209  10.385   9.580   2.942  0.6184 -0.2209  1.7754
  320MOL0     H42210  10.526   9.580   2.732  0.0461 -0.0614  0.8904
  320MOL0     H42211  10.593   9.738   2.779  0.1848 -0.0477  3.0915
  320MOL0     H42212  10.375   9.841   2.730 -0.5797  0.6445 -0.9133
  320MOL0     H42213  10.423   9.753   2.586  1.5951 -4.2102  0.5465
  320MOL0     H42214  10.213   9.705   2.778  0.7266  1.5221  0.3591
  320MOL0     H42215  10.289   9.556   2.713 -0.1922  0.3137 -0.1714
  320MOL0     H42216  10.239   9.607   2.479  2.6271 -0.3641  1.6023
  320MOL0     H42217  10.171   9.761   2.527 -0.7877 -0.7393 -0.2241
  320MOL0     H42218  10.045   9.499   2.603 -0.0589 -0.8730 -1.3537
  320MOL0     H42219   9.984   9.665   2.649 -2.2991 -0.0350 -1.0718
  320MOL0     H42220   9.979   9.528   2.388  1.8004 -1.6532  3.0738
  320MOL0     H42221  10.009   9.710   2.389  2.4841 -1.4640 -1.2786
  320MOL0     H42222  10.605   9.715   3.295 -0.0867 -0.2506 -0.3706
  320MOL0     H42223  10.752   9.690   3.482 -4.2989  1.9034 -1.6960
  320MOL0     H42224  11.045   9.701   3.700 -0.4599  0.6540  4.9929
  320MOL0     H42225  11.162   9.734   3.922  3.3058 -2.3094  3.2004
  320MOL0     H42226  10.691   8.700   5.216 -0.1823  1.5473 -1.6175
  320MOL0     H42227  10.770   8.493   5.097  0.7717  1.0159 -0.7747
  320MOL0     H42228  11.235   8.322   4.983  2.4151 -0.0364  0.6224
  320MOL0     H42229  11.394   8.192   4.847 -0.0432 -0.8692  1.0403
  320MOL0     H42230  11.507   8.054   4.700 -1.1923  1.0806  1.7890
  320MOL0     H42231  11.473   7.913   4.609 -1.2593 -0.2894 -0.7528
  320MOL0     H42232  11.391   7.962   4.907 -3.8894 -4.2537  3.4280
  320MOL0     H42233  11.316   7.837   4.804 -2.1433  2.7677  0.6048
  320MOL0     H42234  11.624   7.837   4.805  0.6775 -1.9456 -2.5421
  320MOL0     H42235  11.512   7.713   4.798 -1.7858  0.6586  0.0901
  320MOL0     H42236  11.463   7.719   5.033 -0.4480  0.5468 -0.0147
  320MOL0     H42237  11.638   7.720   5.019 -2.1661 -2.1341  3.6804
  320MOL0     H42238  11.537   8.117   5.150  1.4958 -0.1039 -1.0955
  320MOL0     H42239  11.057   8.065   4.608 -0.8515 -0.4627 -0.0604
  320MOL0     H42240  10.914   8.231   4.737 -0.8005  0.2728  1.3818
  321MOL0     O42241   4.661  10.045   6.314  0.5371 -0.3814 -0.2433
  321MOL0     C42242   4.554  10.100   6.347 -0.4317 -0.7335  0.5830
  321MOL0     O42243   4.524  10.170   6.457 -0.4443  0.1168 -0.0890
  321MOL0     C42244   4.625  10.206   6.545 -0.6788  1.3917 -1.3855
  321MOL0     C42245   4.592  10.228   6.683  0.1289 -0.7484 -1.0546
  321MOL0     C42246   4.682  10.260   6.788 -0.1483  0.0012  0.2502
  321MOL0     C42247   4.819  10.293   6.750  0.0417 -0.2711 -0.0060
  321MOL0     O42248   4.903  10.337   6.848 -0.3300 -0.5308  0.0205
  321MOL0     C42249   5.030  10.414   6.827  0.5298 -0.8585 -0.2795
  321MOL0     C42250   5.146  10.342   6.892  0.4325  0.3332  0.0231
  321MOL0     C42251   5.119  10.326   7.044 -0.0063 -0.1852  1.2272
  321MOL0     C42252   5.225  10.245   7.107 -0.5971 -0.1759 -0.7961
  321MOL0     C42253   5.354  10.331   7.163  0.2285 -0.1085 -0.5499
  321MOL0     C42254   5.440  10.257   7.265 -0.5787  0.0486  0.0839
  321MOL0     C42255   5.534  10.356   7.342 -0.4798  0.1189 -0.9305
  321MOL0     C42256   5.624  10.277   7.440 -0.5371 -1.0862  0.2055
  321MOL0     N42257   5.564  10.241   7.568 -0.0382 -0.1889 -0.4591
  321MOL0     C42258   5.531  10.321   7.675  0.7209  0.0020 -0.5560
  321MOL0     C42259   5.492  10.243   7.774 -0.6091 -0.3967 -0.8858
  321MOL0     C42260   5.453  10.295   7.911  0.2770 -0.3645 -1.0097
  321MOL0     C42261   5.334  10.221   7.961  0.2390 -0.1246 -0.2150
  321MOL0     C42262   5.339  10.209   8.117 -0.4381  0.9067 -0.2241
  321MOL0     C42263   5.475  10.156   8.176  0.7954 -1.2142  0.7051
  321MOL0     O42264   5.538  10.271   8.236 -0.2550 -0.0275 -0.4096
  321MOL0     C42265   5.540  10.247   8.373 -0.9354  0.5200  0.2748
  321MOL0     C42266   5.473  10.338   8.451 -0.0307 -0.7783 -0.0366
  321MOL0     C42267   5.468  10.324   8.590  2.0882  0.9813  0.2999
  321MOL0     C42268   5.548  10.220   8.649 -0.2377  0.2676 -0.2979
  321MOL0     C42269   5.537  10.189   8.791  0.2736 -0.8507 -0.7910
  321MOL0     O42270   5.616  10.094   8.848 -0.5056  0.3535  0.4041
  321MOL0     C42271   5.632  10.064   8.984  0.2293 -0.1381 -0.4868
  321MOL0     C42272   5.702   9.942   9.017  0.3115  0.7498  0.1010
  321MOL0     C42273   5.724   9.907   9.154  0.9288  0.2139 -0.3645
  321MOL0     C42274   5.681   9.990   9.260  0.4673  0.7475  0.1037
  321MOL0     O42275   5.691   9.957   9.390  0.1962  0.4525 -0.4645
  321MOL0     C42276   5.661   9.815   9.424  0.1248 -0.3199  0.7866
  321MOL0     C42277   5.765   9.745   9.514 -0.3042 -0.7962 -0.4425
  321MOL0     C42278   5.740   9.604   9.577  0.3744  0.0542 -0.1495
  321MOL0     C42279   5.736   9.500   9.464  0.0521 -0.7601 -0.5700
  321MOL0     C42280   5.770   9.376   9.535  0.2740  0.3429 -0.6810
  321MOL0     C42281   5.746   9.247   9.452  0.3727 -0.5627 -0.4152
  321MOL0     C42282   5.813   9.242   9.309 -0.7803 -0.1264  0.1218
  321MOL0     C42283   5.729   9.283   9.197 -0.3948 -0.1719  0.4061
  321MOL0    Cl42284   5.618   9.143   9.186 -0.0691 -0.1252  0.5561
  321MOL0     C42285   5.623  10.115   9.220  0.6311  0.8797 -0.6725
  321MOL0     C42286   5.608  10.153   9.087  0.4175  0.3717 -1.2293
  321MOL0     O42287   5.452  10.258   8.855 -0.0566 -0.6490  0.0149
  321MOL0     C42288   5.620  10.140   8.561 -0.5848  0.1701 -0.2197
  321MOL0     C42289   5.622  10.150   8.425  0.0619  0.5966  0.4326
  321MOL0     N42290   5.511  10.108   7.738 -0.1859 -0.2061  0.5666
  321MOL0     N42291   5.549  10.117   7.611  0.2627  0.5368  0.2863
  321MOL0     C42292   4.852  10.273   6.609 -0.9415 -0.2433 -0.3264
  321MOL0     C42293   4.762  10.234   6.511  0.8154  0.8956  0.3309
  321MOL0     C42294   4.440  10.069   6.250 -0.5403 -0.4689  0.2861
  321MOL0     C42295   4.437   9.937   6.199  0.5729  1.1401 -0.0198
  321MOL0     C42296   4.322   9.891   6.127 -0.5478 -0.2498  0.0295
  321MOL0     C42297   4.209   9.974   6.108 -0.5209  0.0056  0.9626
  321MOL0     O42298   4.109   9.919   6.052 -0.2958  0.3825  0.1097
  321MOL0     C42299   3.987   9.998   6.014 -1.0477 -0.4844  0.4131
  321MOL0     C42300   3.919   9.928   5.896  0.7570  0.1109  1.2785
  321MOL0     C42301   3.781   9.883   5.942  0.1461  0.7823  0.0527
  321MOL0     C42302   3.709   9.775   5.850 -0.0664  0.2088 -0.0759
  321MOL0     C42303   3.680   9.833   5.721  0.1159 -0.3194  0.5794
  321MOL0     C42304   3.673   9.893   5.616  0.6024 -0.3642  0.2902
  321MOL0     C42305   4.219  10.114   6.158  0.3922  1.1035  0.6947
  321MOL0     C42306   4.333  10.150   6.226 -0.2596 -0.4851  0.5255
  321MOL0     H42307   4.494  10.191   6.710  0.0761  1.0487  1.5587
  321MOL0     H42308   4.658  10.261   6.894  1.3460 -0.7719  0.6275
  321MOL0     H42309   5.029  10.505   6.887  0.8406 -1.5774  0.8605
  321MOL0     H42310   5.051  10.440   6.723 -0.9804  1.8277  0.0080
  321MOL0     H42311   5.245  10.383   6.873  0.5495 -0.1578 -0.4503
  321MOL0     H42312   5.143  10.244   6.844 -0.7911  0.4145 -0.0965
  321MOL0     H42313   5.020  10.287   7.069 -2.5387  3.5756 -1.7837
  321MOL0     H42314   5.106  10.429   7.078 -0.6637  0.3478 -0.5340
  321MOL0     H42315   5.178  10.175   7.177  0.3691  0.9523  1.0660
  321MOL0     H42316   5.265  10.174   7.034 -0.5423 -3.3180  2.0670
  321MOL0     H42317   5.336  10.424   7.218  0.8093 -0.7931  0.8573
  321MOL0     H42318   5.413  10.347   7.072 -0.2775 -0.2902 -0.9156
  321MOL0     H42319   5.506  10.180   7.224  0.3590 -0.2687  2.0722
  321MOL0     H42320   5.382  10.202   7.339  1.0895 -0.0021  1.4392
  321MOL0     H42321   5.600  10.402   7.267  0.7864 -1.4923 -0.8473
  321MOL0     H42322   5.476  10.430   7.398 -2.4099 -0.9387 -1.4523
  321MOL0     H42323   5.708  10.344   7.460 -1.0129 -0.2571 -0.4901
  321MOL0     H42324   5.665  10.189   7.390 -0.7951 -3.1363  3.3439
  321MOL0     H42325   5.527  10.429   7.682 -1.4148  0.0494 -1.5513
  321MOL0     H42326   5.431  10.402   7.912  0.5483 -0.3053  0.4431
  321MOL0     H42327   5.529  10.291   7.989 -0.5984  2.5166  0.1455
  321MOL0     H42328   5.333  10.119   7.921  0.4684  0.5825 -2.1189
  321MOL0     H42329   5.244  10.268   7.919  0.3125 -1.3052 -1.7607
  321MOL0     H42330   5.317  10.311   8.149  2.6399  1.6620 -0.2765
  321MOL0     H42331   5.260  10.136   8.138  0.1987  0.2928  0.0635
  321MOL0     H42332   5.547  10.108   8.110  2.7596 -2.6052  3.6343
  321MOL0     H42333   5.443  10.080   8.248  1.1037 -0.2016  1.9575
  321MOL0     H42334   5.426  10.416   8.393  1.8784  1.5025  1.3025
  321MOL0     H42335   5.413  10.393   8.654  2.6715  0.9791  0.8121
  321MOL0     H42336   5.738   9.869   8.945 -2.5527  0.3316 -1.0583
  321MOL0     H42337   5.753   9.804   9.172 -1.3045 -0.8952 -2.5358
  321MOL0     H42338   5.640   9.744   9.343 -1.0830  2.4086 -1.4495
  321MOL0     H42339   5.573   9.829   9.488 -0.4451 -1.1325  0.1995
  321MOL0     H42340   5.792   9.796   9.607 -4.1496 -0.9441  0.9511
  321MOL0     H42341   5.853   9.738   9.450 -0.8699 -0.9547 -1.2149
  321MOL0     H42342   5.641   9.604   9.623 -0.9941  0.2668 -2.9282
  321MOL0     H42343   5.819   9.592   9.652  2.2331 -2.2794 -2.2825
  321MOL0     H42344   5.642   9.491   9.409  0.5112 -3.0018 -1.1160
  321MOL0     H42345   5.819   9.526   9.397 -0.3430  0.1007 -0.7353
  321MOL0     H42346   5.709   9.371   9.625  0.7385  1.6753 -0.2766
  321MOL0     H42347   5.873   9.378   9.570  0.0701 -2.7928  0.4428
  321MOL0     H42348   5.637   9.236   9.445  0.1281  0.4902  1.3425
  321MOL0     H42349   5.787   9.164   9.510  1.0390  1.1659  1.7187
  321MOL0     H42350   5.897   9.313   9.306 -0.6398 -0.3032 -2.2869
  321MOL0     H42351   5.861   9.146   9.286  1.6612  1.4689 -2.1165
  321MOL0     H42352   5.784   9.297   9.103 -2.0994  2.1863 -0.3555
  321MOL0     H42353   5.679   9.376   9.224 -2.8735 -0.4831 -2.5200
  321MOL0     H42354   5.602  10.184   9.301  1.4242 -1.0703  1.3149
  321MOL0     H42355   5.569  10.252   9.068  0.9814  0.7724 -0.3588
  321MOL0     H42356   5.675  10.053   8.596 -1.0164 -0.4247 -0.9808
  321MOL0     H42357   5.691  10.089   8.368 -2.1830 -0.3147 -1.4993
  321MOL0     H42358   4.947  10.312   6.574 -0.2524 -0.9494  0.7113
  321MOL0     H42359   4.787  10.219   6.406 -1.3620  0.2540 -0.1449
  321MOL0     H42360   4.514   9.861   6.207  0.3629  0.7949 -1.0614
  321MOL0     H42361   4.316   9.790   6.089  1.3221 -0.8390  1.1789
  321MOL0     H42362   4.031  10.090   5.974 -0.2988 -1.4001 -0.9695
  321MOL0     H42363   3.914  10.014   6.094 -2.6170 -3.9364 -0.1408
  321MOL0     H42364   3.924   9.992   5.807 -0.5737 -2.1481 -0.5067
  321MOL0     H42365   3.976   9.837   5.874 -1.0690 -0.6437 -0.7041
  321MOL0     H42366   3.714   9.968   5.959  0.2848  1.0916 -0.9196
  321MOL0     H42367   3.792   9.839   6.042 -2.1513  2.4686  1.1255
  321MOL0     H42368   3.780   9.695   5.827 -0.9861 -0.9522  0.9818
  321MOL0     H42369   3.619   9.735   5.898 -0.0172  2.0032  1.6525
  321MOL0     H42370   3.668   9.950   5.525 -1.9152  0.0779  0.6316
  321MOL0     H42371   4.141  10.185   6.133 -0.5185  0.0775  0.5514
  321MOL0     H42372   4.337  10.252   6.262  2.3737 -0.5145  0.5095
  322MOL0     O42373   6.844   2.075   7.443 -0.3540 -0.0104 -0.4200
  322MOL0     C42374   6.907   2.015   7.529  0.0899  0.4724  0.2700
  322MOL0     O42375   6.850   1.955   7.643  0.2698  0.3747 -0.4333
  322MOL0     C42376   6.731   2.008   7.675 -0.2590  0.3359  0.0616
  322MOL0     C42377   6.709   2.142   7.718  0.2582 -0.0195  0.2731
  322MOL0     C42378   6.594   2.185   7.779 -0.7127  0.4880 -0.1665
  322MOL0     C42379   6.487   2.097   7.816  0.0689  0.0872  0.1383
  322MOL0     O42380   6.366   2.122   7.872 -0.3430  0.0503  0.7569
  322MOL0     C42381   6.333   2.261   7.900  0.3981  0.8256 -0.2558
  322MOL0     C42382   6.186   2.271   7.954 -0.1737  0.1766 -0.1073
  322MOL0     C42383   6.089   2.245   7.840  0.8850  0.2692 -0.7184
  322MOL0     C42384   5.940   2.242   7.901 -0.4577  0.4822  0.0196
  322MOL0     C42385   5.836   2.247   7.793 -0.9220  0.4446 -0.1847
  322MOL0     C42386   5.825   2.131   7.688  0.2887 -0.6157 -0.0633
  322MOL0     C42387   5.681   2.088   7.656 -0.3398  0.0859  1.3731
  322MOL0     C42388   5.679   1.995   7.528 -0.0075 -0.1747 -0.6430
  322MOL0     N42389   5.544   1.980   7.477 -0.7706  0.6797  0.5061
  322MOL0     C42390   5.451   2.074   7.463 -0.0024 -0.0804  0.1209
  322MOL0     C42391   5.358   2.030   7.381 -0.7106  0.3192 -0.6352
  322MOL0     C42392   5.238   2.101   7.318  0.0550  0.7362 -0.4404
  322MOL0     C42393   5.119   2.009   7.362 -0.0017  0.4034  0.0560
  322MOL0     C42394   5.068   2.024   7.500 -0.7872 -0.2763  0.4389
  322MOL0     C42395   4.952   2.125   7.499 -0.1905 -1.2692 -0.1976
  322MOL0     O42396   4.991   2.266   7.474 -0.4299  0.1366  0.5600
  322MOL0     C42397   4.907   2.367   7.485 -0.0758 -0.3825  0.0041
  322MOL0     C42398   4.963   2.494   7.502 -0.4137  0.8401 -0.2318
  322MOL0     C42399   4.886   2.607   7.515  0.4491  0.2154 -0.3644
  322MOL0     C42400   4.744   2.607   7.527  0.3956 -0.3667  1.5501
  322MOL0     C42401   4.655   2.721   7.562 -0.4427 -0.1983 -0.5033
  322MOL0     O42402   4.521   2.707   7.573  0.5399 -0.5352 -0.0769
  322MOL0     C42403   4.431   2.797   7.632 -0.4276  0.0168 -0.7208
  322MOL0     C42404   4.303   2.747   7.635  0.0821  0.8823  0.2021
  322MOL0     C42405   4.196   2.815   7.703 -1.1965 -0.2529  0.0309
  322MOL0     C42406   4.229   2.939   7.772 -0.2302  0.8832 -0.3933
  322MOL0     O42407   4.139   2.991   7.862 -0.1047  0.9384  0.6374
  322MOL0     C42408   4.138   3.137   7.869 -0.3579 -0.4452  0.0831
  322MOL0     C42409   4.013   3.192   7.945  0.5818 -0.0973  0.2983
  322MOL0     C42410   3.878   3.156   7.875  0.0054 -0.5467 -0.1989
  322MOL0     C42411   3.760   3.204   7.958  0.3356 -0.7305 -0.1392
  322MOL0     C42412   3.628   3.158   7.897  0.5755  0.4058  0.8730
  322MOL0     C42413   3.569   3.244   7.786  0.3944 -0.9171  0.2970
  322MOL0     C42414   3.448   3.183   7.723 -0.3272  0.0304 -0.1372
  322MOL0     C42415   3.406   3.241   7.584  0.8411  0.3707 -0.4095
  322MOL0    Cl42416   3.507   3.179   7.467  0.2800 -0.5828  0.6325
  322MOL0     C42417   4.359   2.988   7.754 -0.3756  0.4058 -0.5934
  322MOL0     C42418   4.461   2.919   7.692 -0.1508 -0.6029 -1.0324
  322MOL0     O42419   4.723   2.818   7.604  0.0380  0.6909 -0.7289
  322MOL0     C42420   4.691   2.474   7.497  0.4377 -0.6066  0.2350
  322MOL0     C42421   4.762   2.361   7.481 -0.3060 -0.5159 -0.2309
  322MOL0     N42422   5.402   1.902   7.331 -0.1733 -0.1341 -0.1288
  322MOL0     N42423   5.516   1.880   7.384  0.0290  0.2115  0.8690
  322MOL0     C42424   6.502   1.958   7.776 -1.3509 -0.1385 -0.5757
  322MOL0     C42425   6.620   1.919   7.698 -0.0915  0.1653 -1.2629
  322MOL0     C42426   7.054   1.991   7.502  0.0273 -0.7431 -0.5446
  322MOL0     C42427   7.123   1.881   7.571  0.1094 -1.5351  0.2258
  322MOL0     C42428   7.258   1.857   7.546  0.3886 -0.0820  0.9034
  322MOL0     C42429   7.328   1.933   7.440 -0.0099  0.2558  0.0264
  322MOL0     O42430   7.468   1.927   7.412  0.7554  0.8230 -0.3606
  322MOL0     C42431   7.547   1.851   7.502 -0.3277  0.2622  0.0410
  322MOL0     C42432   7.694   1.865   7.464 -0.2112 -0.3534  0.3620
  322MOL0     C42433   7.785   1.859   7.589 -1.1578  0.7493 -0.0192
  322MOL0     C42434   7.820   1.717   7.626 -0.4388 -0.7159  0.5023
  322MOL0     C42435   7.890   1.647   7.516 -0.5276  0.0938 -0.5547
  322MOL0     C42436   7.964   1.575   7.448 -0.6142  0.2210  0.1285
  322MOL0     C42437   7.254   2.026   7.369 -0.1638  0.3519  0.5477
  322MOL0     C42438   7.121   2.060   7.395  0.4125  1.0285  0.1860
  322MOL0     H42439   6.789   2.215   7.715  0.4490 -0.2244  0.2787
  322MOL0     H42440   6.590   2.290   7.806  1.8423  0.4567  0.5396
  322MOL0     H42441   6.345   2.306   7.802  1.1756 -0.5722 -0.8329
  322MOL0     H42442   6.402   2.303   7.974  0.7499 -1.9018  1.1271
  322MOL0     H42443   6.175   2.366   8.006  1.1216 -1.2621  3.1296
  322MOL0     H42444   6.172   2.196   8.033  1.0859 -0.0994 -0.1123
  322MOL0     H42445   6.118   2.152   7.790  3.4437  0.2708  0.6304
  322MOL0     H42446   6.094   2.320   7.760  0.2259  0.3183 -0.7234
  322MOL0     H42447   5.934   2.150   7.961  2.2813  1.3714  1.8465
  322MOL0     H42448   5.923   2.330   7.963  4.6922  2.7410 -1.2234
  322MOL0     H42449   5.846   2.339   7.734  1.4333 -0.3692 -1.1653
  322MOL0     H42450   5.740   2.242   7.846 -1.0744 -1.1780 -0.5942
  322MOL0     H42451   5.866   2.044   7.739 -1.1412  1.2704  4.8662
  322MOL0     H42452   5.885   2.161   7.601  1.1357  0.5674  0.9022
  322MOL0     H42453   5.633   2.032   7.737 -1.6734 -3.3375 -1.4928
  322MOL0     H42454   5.629   2.181   7.635 -0.5134 -0.5101 -1.1644
  322MOL0     H42455   5.721   1.897   7.554  0.7613  0.5282  0.9008
  322MOL0     H42456   5.753   2.031   7.456  0.3893  1.5197  0.5516
  322MOL0     H42457   5.457   2.174   7.505 -3.2494 -0.2759  1.3602
  322MOL0     H42458   5.245   2.088   7.209 -2.9145 -0.1199 -0.6435
  322MOL0     H42459   5.231   2.206   7.347  0.3218  0.1316  2.0504
  322MOL0     H42460   5.153   1.906   7.350  1.7273  0.6978  1.8333
  322MOL0     H42461   5.046   2.028   7.283  1.8530 -0.4854 -1.9497
  322MOL0     H42462   5.028   1.926   7.525 -0.7572  0.2190  2.5400
  322MOL0     H42463   5.152   2.049   7.565  1.5590  2.0799 -3.1061
  322MOL0     H42464   4.896   2.129   7.593  0.5507 -1.3282  0.2545
  322MOL0     H42465   4.880   2.085   7.427 -1.9993 -1.4478  1.6158
  322MOL0     H42466   5.068   2.524   7.505 -0.4860  1.1800 -0.8944
  322MOL0     H42467   4.929   2.706   7.519 -2.8102  1.6969  1.6018
  322MOL0     H42468   4.293   2.650   7.588 -1.6981  1.3861 -0.5731
  322MOL0     H42469   4.096   2.772   7.709 -1.1352 -0.3577  0.2614
  322MOL0     H42470   4.147   3.185   7.771  1.2156 -2.4775 -0.8339
  322MOL0     H42471   4.225   3.175   7.922  0.1021 -0.1955 -0.8211
  322MOL0     H42472   4.023   3.298   7.968  0.7836  0.4937 -2.2838
  322MOL0     H42473   4.009   3.136   8.040 -0.5968 -0.2116  0.2017
  322MOL0     H42474   3.883   3.048   7.859 -3.6209 -1.0854  1.3531
  322MOL0     H42475   3.877   3.197   7.773  0.8104  3.0438  1.0811
  322MOL0     H42476   3.768   3.168   8.062 -2.7844 -0.6542  0.2372
  322MOL0     H42477   3.773   3.312   7.955 -0.9722 -0.4491  1.9467
  322MOL0     H42478   3.553   3.161   7.978 -0.3532 -0.2698  0.0599
  322MOL0     H42479   3.616   3.054   7.866 -1.4908  0.8673 -0.0620
  322MOL0     H42480   3.636   3.257   7.701 -1.3929  0.8984 -0.9447
  322MOL0     H42481   3.549   3.346   7.823 -0.7947 -1.5120  1.3713
  322MOL0     H42482   3.465   3.076   7.707  0.9924 -0.1101  1.9057
  322MOL0     H42483   3.365   3.182   7.794 -0.7326 -0.8345 -0.6022
  322MOL0     H42484   3.412   3.351   7.586  0.6816  0.3717  1.1028
  322MOL0     H42485   3.306   3.201   7.563  0.4835  0.4780  0.9859
  322MOL0     H42486   4.391   3.081   7.799 -1.1441  1.5710 -2.3104
  322MOL0     H42487   4.560   2.964   7.690 -0.2594 -0.0412  1.8623
  322MOL0     H42488   4.583   2.476   7.491  0.4672 -0.2761 -0.1946
  322MOL0     H42489   4.712   2.268   7.454 -2.2307  0.5368 -0.5060
  322MOL0     H42490   6.423   1.889   7.802 -1.5041  0.7009  1.3227
  322MOL0     H42491   6.618   1.818   7.659 -1.0980 -0.0285 -0.7374
  322MOL0     H42492   7.076   1.822   7.649 -0.3143  0.6072  1.6629
  322MOL0     H42493   7.313   1.774   7.590 -3.3419 -3.1880  0.2635
  322MOL0     H42494   7.526   1.745   7.491  2.2744 -0.2767 -0.3100
  322MOL0     H42495   7.524   1.878   7.606  0.4985  0.1660  0.2503
  322MOL0     H42496   7.730   1.797   7.386  1.2929 -1.3413  1.8487
  322MOL0     H42497   7.704   1.964   7.418  1.3197 -1.0847 -1.0097
  322MOL0     H42498   7.746   1.910   7.677 -2.4856 -2.2776  1.2569
  322MOL0     H42499   7.879   1.897   7.547 -0.6552  0.5492  0.9030
  322MOL0     H42500   7.879   1.733   7.717 -0.5914 -2.8593  1.0121
  322MOL0     H42501   7.740   1.647   7.652 -0.0656 -1.4568 -0.3063
  322MOL0     H42502   8.002   1.502   7.380  1.0955  1.2014 -0.0059
  322MOL0     H42503   7.297   2.068   7.279 -1.9064  0.0645 -0.4646
  322MOL0     H42504   7.071   2.141   7.343 -1.9941  0.2896  1.1703
  323MOL0     O42505  10.012   9.687   7.093 -0.1280 -0.1619  0.3091
  323MOL0     C42506   9.913   9.724   7.039  0.4902  0.6452  0.5315
  323MOL0     O42507   9.840   9.645   6.953 -0.4883  0.9186  0.1565
  323MOL0     C42508   9.872   9.523   6.906  0.1207  0.3227 -0.8777
  323MOL0     C42509   9.763   9.442   6.855 -0.5961 -1.1652 -0.5762
  323MOL0     C42510   9.789   9.325   6.787 -0.2735  0.1287 -0.0290
  323MOL0     C42511   9.915   9.271   6.776  0.0195  0.3210 -0.4149
  323MOL0     O42512   9.924   9.152   6.708 -0.1092  0.0931 -0.6088
  323MOL0     C42513  10.046   9.073   6.722  0.3938  0.3454 -0.8047
  323MOL0     C42514  10.013   8.938   6.655  0.2142  0.5119 -0.0004
  323MOL0     C42515  10.120   8.884   6.557 -0.0020  0.3328 -0.5124
  323MOL0     C42516  10.094   8.737   6.517  0.6840 -0.6755 -0.0487
  323MOL0     C42517  10.197   8.687   6.416 -0.2665  0.4003  0.2472
  323MOL0     C42518  10.159   8.578   6.304  1.0425 -1.2478 -1.1762
  323MOL0     C42519  10.124   8.442   6.364  0.6086 -0.2839 -0.3462
  323MOL0     C42520  10.141   8.328   6.263 -0.9709  0.4893  0.2241
  323MOL0     N42521  10.082   8.365   6.136  0.5853 -0.1321 -0.1155
  323MOL0     C42522   9.948   8.408   6.120 -0.2553  0.5927 -0.0336
  323MOL0     C42523   9.937   8.438   5.989 -0.8890 -0.0160  0.2025
  323MOL0     C42524   9.810   8.488   5.923 -0.4782 -0.7421  0.3163
  323MOL0     C42525   9.834   8.606   5.835 -0.0512  0.1394  0.3290
  323MOL0     C42526   9.735   8.635   5.731  0.1931  0.6243  0.0243
  323MOL0     C42527   9.606   8.689   5.780 -0.1180  0.0191  0.0205
  323MOL0     O42528   9.495   8.703   5.691  0.0933 -0.3645  0.1277
  323MOL0     C42529   9.422   8.590   5.656 -0.7994 -0.9674 -0.2841
  323MOL0     C42530   9.452   8.460   5.700  0.2443 -0.0902 -1.1875
  323MOL0     C42531   9.382   8.350   5.646  0.4047 -0.3291  0.4144
  323MOL0     C42532   9.260   8.368   5.571 -0.8741  1.0202 -0.3239
  323MOL0     C42533   9.182   8.257   5.502  0.6266  0.2860 -0.4461
  323MOL0     O42534   9.205   8.134   5.535  0.1333  0.1340  0.1695
  323MOL0     C42535   9.136   8.041   5.473  0.3957 -0.3768 -0.1904
  323MOL0     C42536   9.005   8.015   5.518  0.2895 -0.0571  0.6754
  323MOL0     C42537   8.933   7.911   5.476  1.2171  0.0591 -0.2130
  323MOL0     C42538   8.994   7.823   5.387  0.9296  0.4456 -0.2873
  323MOL0     O42539   8.936   7.710   5.329 -0.1048  0.2625  0.0310
  323MOL0     C42540   8.791   7.696   5.339  0.0143  0.4772 -0.2446
  323MOL0     C42541   8.714   7.791   5.245  0.6775 -0.0335  0.0420
  323MOL0     C42542   8.571   7.756   5.235  0.1239 -0.5234  0.9972
  323MOL0     C42543   8.506   7.858   5.139 -0.4315  0.2196  0.2757
  323MOL0     C42544   8.354   7.845   5.146 -0.4853  0.2817  0.3216
  323MOL0     C42545   8.279   7.922   5.038  0.0252 -0.4141  0.4098
  323MOL0     C42546   8.283   8.071   5.072  0.2129 -0.3868 -0.7281
  323MOL0     C42547   8.187   8.152   4.985  0.4689 -0.1565 -0.5183
  323MOL0    Cl42548   8.012   8.124   5.017  0.1532  0.0164  0.5759
  323MOL0     C42549   9.129   7.846   5.343 -0.1621  0.4034  0.8527
  323MOL0     C42550   9.203   7.957   5.388  1.0062 -0.3270  0.6447
  323MOL0     O42551   9.091   8.295   5.425  0.0234  0.1091 -1.2007
  323MOL0     C42552   9.228   8.501   5.547  0.3398 -0.1007  0.2164
  323MOL0     C42553   9.312   8.605   5.579 -0.2366 -0.3541 -0.3120
  323MOL0     N42554  10.065   8.424   5.938 -0.5207 -0.1681 -0.5726
  323MOL0     N42555  10.156   8.383   6.026  0.3904  0.4316 -0.5554
  323MOL0     C42556  10.023   9.342   6.833  0.1055 -0.1476 -0.0083
  323MOL0     C42557  10.005   9.466   6.893 -0.2586 -0.5990 -0.7812
  323MOL0     C42558   9.855   9.864   7.071  0.4151 -0.4846  0.0468
  323MOL0     C42559   9.898   9.931   7.187 -0.6370 -0.2697  0.5425
  323MOL0     C42560   9.852  10.064   7.209  0.9123 -0.1002  1.1984
  323MOL0     C42561   9.752  10.120   7.132 -1.2418 -0.6310  0.5927
  323MOL0     O42562   9.706  10.243   7.172 -0.2006 -0.7227 -0.3986
  323MOL0     C42563   9.595  10.297   7.094 -0.1724  0.4329  0.7840
  323MOL0     C42564   9.531  10.412   7.166 -0.0362 -0.4845 -0.3328
  323MOL0     C42565   9.491  10.521   7.073 -0.0295 -0.2455 -0.7035
  323MOL0     C42566   9.439  10.640   7.159 -0.0122 -0.7432 -0.3220
  323MOL0     C42567   9.334  10.606   7.264  0.2750 -0.1732 -0.6695
  323MOL0     C42568   9.258  10.568   7.358  0.3826 -0.3878  0.6388
  323MOL0     C42569   9.706  10.049   7.016  0.5244 -0.3599  0.4088
  323MOL0     C42570   9.755   9.923   6.992 -0.3012  0.4362 -0.2780
  323MOL0     H42571   9.659   9.472   6.849  0.1263  1.3729 -1.5519
  323MOL0     H42572   9.709   9.268   6.742 -0.9581  1.4900 -0.5808
  323MOL0     H42573  10.073   9.048   6.825  1.3948  1.1644 -0.8555
  323MOL0     H42574  10.139   9.114   6.680  1.5056  1.2224  2.2799
  323MOL0     H42575   9.913   8.941   6.611 -0.2544  0.0367  0.9957
  323MOL0     H42576  10.001   8.857   6.728 -3.1486  0.0240 -0.9573
  323MOL0     H42577  10.214   8.882   6.613  0.2099 -2.0824 -0.8099
  323MOL0     H42578  10.122   8.955   6.475  0.1902  0.4368 -0.4186
  323MOL0     H42579  10.089   8.671   6.605 -3.6895  0.7106  0.9896
  323MOL0     H42580   9.997   8.723   6.469  0.9616  0.5943 -1.0362
  323MOL0     H42581  10.285   8.650   6.470  0.6675  1.7889 -0.2681
  323MOL0     H42582  10.237   8.771   6.358 -0.8448  0.1789 -0.4796
  323MOL0     H42583  10.236   8.574   6.226  3.1198  0.3137  0.6602
  323MOL0     H42584  10.071   8.627   6.264 -0.2175 -2.0461  0.4676
  323MOL0     H42585  10.161   8.425   6.465  1.5471 -2.8649 -1.0557
  323MOL0     H42586  10.016   8.438   6.379  0.6484  1.9009  0.9220
  323MOL0     H42587  10.112   8.233   6.308 -0.7097  0.1104 -0.3842
  323MOL0     H42588  10.244   8.325   6.228 -2.0719  0.0936 -3.4254
  323MOL0     H42589   9.869   8.426   6.193  0.2361 -1.5689  1.1278
  323MOL0     H42590   9.746   8.524   6.004 -0.4964  0.5354 -0.2430
  323MOL0     H42591   9.762   8.407   5.866  0.8216 -0.7953 -0.7488
  323MOL0     H42592   9.922   8.577   5.777 -2.1486 -4.4189 -1.0472
  323MOL0     H42593   9.849   8.692   5.901 -4.0605  0.3871  1.1643
  323MOL0     H42594   9.777   8.707   5.660  1.4046 -0.8188 -0.7929
  323MOL0     H42595   9.704   8.545   5.677  1.3087 -0.4009  1.0359
  323MOL0     H42596   9.617   8.791   5.818 -3.3209  1.3306 -2.1729
  323MOL0     H42597   9.576   8.633   5.870 -0.6163  0.6881  0.2816
  323MOL0     H42598   9.532   8.430   5.768  0.3923  0.2916 -1.1909
  323MOL0     H42599   9.417   8.249   5.663  0.2489 -0.3493  0.6280
  323MOL0     H42600   8.949   8.079   5.586  0.1806  0.2352  0.3147
  323MOL0     H42601   8.826   7.898   5.488  1.5060 -0.3973  2.4507
  323MOL0     H42602   8.758   7.683   5.442  0.9575 -0.6881 -0.0717
  323MOL0     H42603   8.786   7.600   5.287  1.6051 -1.5963  3.0882
  323MOL0     H42604   8.751   7.789   5.142 -3.5852  1.4540 -1.7390
  323MOL0     H42605   8.724   7.894   5.280  0.3524  0.0920 -0.2298
  323MOL0     H42606   8.517   7.771   5.329 -0.9529 -1.3538  0.5306
  323MOL0     H42607   8.556   7.651   5.206 -1.4082 -0.2164  0.5971
  323MOL0     H42608   8.537   7.961   5.160  1.9517  0.0253 -1.8451
  323MOL0     H42609   8.534   7.830   5.037 -2.1268 -2.5215  0.4615
  323MOL0     H42610   8.319   7.879   5.244  1.2500 -1.0336  1.4570
  323MOL0     H42611   8.332   7.738   5.133  1.6682 -0.1477 -0.2217
  323MOL0     H42612   8.177   7.882   5.025  0.1377 -1.2203  1.7906
  323MOL0     H42613   8.324   7.917   4.938  1.9844  1.3111  1.1487
  323MOL0     H42614   8.244   8.082   5.174 -2.2441 -5.3726 -0.8439
  323MOL0     H42615   8.383   8.115   5.059 -0.7597  1.4033 -2.6801
  323MOL0     H42616   8.213   8.121   4.883 -0.5488 -0.2610 -0.7532
  323MOL0     H42617   8.209   8.259   4.987 -4.2453  1.0780 -1.8968
  323MOL0     H42618   9.183   7.782   5.275 -0.2000  0.3113  0.9078
  323MOL0     H42619   9.305   7.972   5.355  1.9309 -2.9922  1.9345
  323MOL0     H42620   9.147   8.520   5.477  0.5983 -0.1783 -0.1032
  323MOL0     H42621   9.281   8.706   5.553  2.9869  0.1169 -2.9389
  323MOL0     H42622  10.126   9.311   6.826 -0.1906 -1.0583 -0.6105
  323MOL0     H42623  10.090   9.521   6.934  0.2889 -1.8399 -0.2022
  323MOL0     H42624   9.969   9.895   7.261 -0.2796  0.7239  0.7072
  323MOL0     H42625   9.871  10.115   7.303 -0.4946  0.6511  1.1112
  323MOL0     H42626   9.519  10.220   7.078  0.5739 -0.5186  1.7028
  323MOL0     H42627   9.625  10.319   6.991  1.8892 -2.3420  0.6882
  323MOL0     H42628   9.443  10.379   7.221 -0.6157  0.0888 -0.9126
  323MOL0     H42629   9.608  10.451   7.233 -0.1478  0.4520 -0.7347
  323MOL0     H42630   9.404  10.488   7.015 -2.8577 -1.6737  3.8017
  323MOL0     H42631   9.572  10.565   7.014 -0.2176  0.3912 -0.4944
  323MOL0     H42632   9.525  10.682   7.212 -0.2725  1.6811 -1.6565
  323MOL0     H42633   9.398  10.717   7.094  1.0048 -0.9976 -1.3021
  323MOL0     H42634   9.201  10.540   7.445  0.8337 -0.0473  1.0460
  323MOL0     H42635   9.621  10.070   6.952 -0.1917 -1.3742  0.9823
  323MOL0     H42636   9.720   9.865   6.908  4.2458 -1.1789 -1.3381
  324MOL0     O42637   5.609   3.053   4.867 -0.2380  0.0810 -0.4608
  324MOL0     C42638   5.579   3.140   4.796  0.2497 -0.6072 -0.7429
  324MOL0     O42639   5.657   3.193   4.694  0.1246  0.1870 -0.1341
  324MOL0     C42640   5.775   3.136   4.661 -0.0920  0.3125  0.0704
  324MOL0     C42641   5.885   3.217   4.668  0.2337  0.7890 -0.3345
  324MOL0     C42642   6.018   3.166   4.649  0.2942  0.5769  0.4044
  324MOL0     C42643   6.034   3.023   4.635 -0.4763 -0.1077 -0.4884
  324MOL0     O42644   6.142   2.944   4.647  0.7572  0.2994 -0.4786
  324MOL0     C42645   6.273   2.991   4.606  1.0293  0.2417  0.5397
  324MOL0     C42646   6.390   2.881   4.613 -0.2183  0.5377  0.0028
  324MOL0     C42647   6.382   2.803   4.753 -0.6624  0.9491  0.9150
  324MOL0     C42648   6.485   2.686   4.746 -0.4324  0.0269  0.2921
  324MOL0     C42649   6.483   2.595   4.864 -0.7675 -1.5131  0.1719
  324MOL0     C42650   6.618   2.534   4.903 -0.2579 -0.7498  0.2490
  324MOL0     C42651   6.609   2.464   5.037  1.0972 -1.1015  0.7613
  324MOL0     C42652   6.748   2.396   5.069  0.3903 -0.6317 -0.4805
  324MOL0     N42653   6.835   2.496   5.135  0.4613 -0.1817  1.6874
  324MOL0     C42654   6.951   2.457   5.179  1.0248  0.4851 -0.4568
  324MOL0     C42655   7.010   2.566   5.230 -0.9037  0.0715 -0.1965
  324MOL0     C42656   7.149   2.568   5.295 -1.0454 -0.1470 -0.6686
  324MOL0     C42657   7.200   2.707   5.309 -0.5376  0.0546 -0.6201
  324MOL0     C42658   7.323   2.721   5.394  0.2704 -0.9010 -0.6259
  324MOL0     C42659   7.430   2.624   5.390  0.3519 -0.1454  0.4766
  324MOL0     O42660   7.527   2.652   5.487 -0.5721  0.1501  0.8890
  324MOL0     C42661   7.609   2.560   5.554  0.5878  0.1644  0.0935
  324MOL0     C42662   7.638   2.437   5.491  0.4865 -0.5318 -0.0469
  324MOL0     C42663   7.724   2.346   5.565 -0.1296 -0.4329  0.4561
  324MOL0     C42664   7.758   2.376   5.700  0.8412  0.2144  0.0607
  324MOL0     C42665   7.810   2.276   5.798  0.3386 -0.6596  0.7255
  324MOL0     O42666   7.832   2.311   5.928  0.3097 -0.2695 -0.0627
  324MOL0     C42667   7.840   2.208   6.021  1.2056 -0.1989 -0.0228
  324MOL0     C42668   7.741   2.102   6.059 -0.0332 -0.6861 -0.2326
  324MOL0     C42669   7.770   2.010   6.161  0.3424  0.5236  0.1361
  324MOL0     C42670   7.896   2.002   6.212 -0.8269 -0.8835 -0.8340
  324MOL0     O42671   7.937   1.907   6.298 -0.0059 -0.2528  0.6455
  324MOL0     C42672   7.846   1.807   6.343 -0.1657 -0.5855  0.3740
  324MOL0     C42673   7.912   1.731   6.458  0.5078 -0.2077 -0.0388
  324MOL0     C42674   8.025   1.641   6.423 -0.3614  1.2271 -0.1649
  324MOL0     C42675   8.032   1.522   6.523 -0.0620  0.7633 -1.5560
  324MOL0     C42676   8.175   1.497   6.574  0.1288  0.0965 -1.1287
  324MOL0     C42677   8.179   1.367   6.657  0.2531 -0.0253 -0.3322
  324MOL0     C42678   8.312   1.299   6.686  0.5651 -1.7997  0.0164
  324MOL0     C42679   8.297   1.144   6.705 -0.2737  0.7083 -1.4531
  324MOL0    Cl42680   8.457   1.059   6.717  0.1530  0.4294 -0.0750
  324MOL0     C42681   7.990   2.096   6.170 -0.4034 -0.3572 -0.2338
  324MOL0     C42682   7.961   2.191   6.073  0.4681  0.1050  0.1511
  324MOL0     O42683   7.816   2.160   5.753  0.7064 -0.5711  0.0965
  324MOL0     C42684   7.739   2.502   5.752 -0.2480 -0.4223 -0.4676
  324MOL0     C42685   7.667   2.597   5.678 -0.7067 -0.9826 -0.3904
  324MOL0     N42686   6.919   2.672   5.223  1.2238 -0.0338  0.4204
  324MOL0     N42687   6.812   2.625   5.169 -0.1953  1.0638  0.3137
  324MOL0     C42688   5.914   2.950   4.622  0.4758 -0.3353 -0.1601
  324MOL0     C42689   5.787   3.002   4.632  0.2628  0.2993  0.2138
  324MOL0     C42690   5.459   3.206   4.835  0.3899  0.3774 -0.2600
  324MOL0     C42691   5.372   3.153   4.940  0.6002  0.1736  0.7608
  324MOL0     C42692   5.258   3.222   4.980 -0.4988 -0.6144 -0.4366
  324MOL0     C42693   5.209   3.324   4.894  0.4229  0.6212  0.8738
  324MOL0     O42694   5.096   3.389   4.919 -0.5454  0.0191 -0.4532
  324MOL0     C42695   4.993   3.330   5.002  0.2225 -0.8618 -0.1253
  324MOL0     C42696   5.013   3.357   5.147  0.0440 -0.1458  0.6443
  324MOL0     C42697   4.936   3.479   5.196  0.2759  0.5680 -0.0071
  324MOL0     C42698   4.785   3.451   5.237 -0.9709 -0.0492 -1.0082
  324MOL0     C42699   4.742   3.566   5.324 -0.0677 -0.1135 -0.3015
  324MOL0     C42700   4.694   3.649   5.402 -0.5842  0.1509 -0.1559
  324MOL0     C42701   5.282   3.372   4.792  0.6699 -1.1407  0.0820
  324MOL0     C42702   5.404   3.315   4.767 -0.2609  0.0707 -0.1893
  324MOL0     H42703   5.887   3.324   4.689  1.2633  1.0558 -1.6672
  324MOL0     H42704   6.091   3.244   4.668 -0.0057  1.5522 -2.0887
  324MOL0     H42705   6.301   3.071   4.675 -0.2160  1.1877 -0.0040
  324MOL0     H42706   6.261   3.033   4.506 -0.9036 -2.7020 -0.6143
  324MOL0     H42707   6.480   2.942   4.613 -0.8995  1.6063  1.7516
  324MOL0     H42708   6.386   2.816   4.525 -1.2083 -0.6849  0.9043
  324MOL0     H42709   6.282   2.761   4.767 -0.2279  0.0455  1.3626
  324MOL0     H42710   6.410   2.870   4.834 -1.0642  0.3232  1.5863
  324MOL0     H42711   6.461   2.628   4.656  1.3342  1.3369 -1.0998
  324MOL0     H42712   6.581   2.737   4.736  0.4713 -1.5030  0.7434
  324MOL0     H42713   6.417   2.509   4.848 -1.3839 -1.2910  1.4110
  324MOL0     H42714   6.446   2.653   4.949 -1.8905 -2.8095  0.5962
  324MOL0     H42715   6.697   2.610   4.897 -2.5044  1.6698 -0.2409
  324MOL0     H42716   6.652   2.454   4.836  0.5218 -0.6750  0.5434
  324MOL0     H42717   6.564   2.533   5.108  1.2523  0.3611 -0.5088
  324MOL0     H42718   6.540   2.381   5.016  1.7154 -1.2313 -0.9503
  324MOL0     H42719   6.787   2.346   4.980 -3.4278  0.7767 -3.2551
  324MOL0     H42720   6.730   2.322   5.147 -0.4904  0.5922  0.5280
  324MOL0     H42721   6.995   2.358   5.179  0.6452  0.2943 -2.1829
  324MOL0     H42722   7.215   2.509   5.230  1.5468  2.5265 -0.6661
  324MOL0     H42723   7.140   2.524   5.395  0.8628  1.6547  0.3705
  324MOL0     H42724   7.127   2.770   5.360  2.5987  2.3410  1.3624
  324MOL0     H42725   7.205   2.754   5.211  0.1992  0.4584 -0.3948
  324MOL0     H42726   7.357   2.821   5.367  0.9493 -0.5820  1.2458
  324MOL0     H42727   7.277   2.720   5.493 -0.5172  1.8537 -0.8799
  324MOL0     H42728   7.477   2.620   5.291  3.7803  1.4312  1.8699
  324MOL0     H42729   7.389   2.523   5.403 -0.2113 -0.1640 -1.1840
  324MOL0     H42730   7.597   2.404   5.396 -0.0771  0.0545 -0.0232
  324MOL0     H42731   7.748   2.245   5.531 -0.4879 -0.1610 -0.6562
  324MOL0     H42732   7.641   2.084   6.023 -0.5855  0.4301  0.6976
  324MOL0     H42733   7.699   1.930   6.177 -0.4793  1.4499  1.3218
  324MOL0     H42734   7.826   1.736   6.263 -1.9187  0.5704 -0.2728
  324MOL0     H42735   7.749   1.851   6.369 -0.6080 -2.2612  1.7297
  324MOL0     H42736   7.830   1.667   6.493  1.6684 -0.6147  2.1170
  324MOL0     H42737   7.935   1.801   6.539 -2.9597  0.1268  0.7959
  324MOL0     H42738   8.122   1.689   6.439  1.1669 -1.6363 -0.2232
  324MOL0     H42739   8.023   1.606   6.320  3.6348 -1.1559  0.3853
  324MOL0     H42740   7.974   1.543   6.613 -3.2897 -1.5956 -2.8931
  324MOL0     H42741   7.982   1.431   6.488  1.3149 -0.9982  0.7809
  324MOL0     H42742   8.214   1.579   6.634 -2.4076 -0.5123  1.6179
  324MOL0     H42743   8.242   1.493   6.488 -2.0019  0.9270 -2.9271
  324MOL0     H42744   8.133   1.298   6.585  2.8439  0.0926 -2.2413
  324MOL0     H42745   8.120   1.387   6.747  1.1078 -3.5009  1.1697
  324MOL0     H42746   8.379   1.323   6.603 -0.1498 -1.8590 -0.5944
  324MOL0     H42747   8.367   1.346   6.768 -0.5004  0.9262 -0.7371
  324MOL0     H42748   8.246   1.088   6.626  1.0541 -2.5580 -0.1737
  324MOL0     H42749   8.245   1.131   6.801 -1.5020 -2.2683 -2.3947
  324MOL0     H42750   8.085   2.102   6.223 -2.1107 -1.7831  3.3226
  324MOL0     H42751   8.046   2.256   6.056 -0.9729  2.6093  2.0044
  324MOL0     H42752   7.773   2.532   5.850 -0.4347  2.5054 -1.2114
  324MOL0     H42753   7.633   2.688   5.727  0.9578 -1.7579  2.4574
  324MOL0     H42754   5.930   2.845   4.600 -1.7026 -0.4833 -1.3801
  324MOL0     H42755   5.698   2.941   4.622  0.6221 -0.6609  2.3706
  324MOL0     H42756   5.397   3.058   4.986 -2.0284 -1.0255 -0.1005
  324MOL0     H42757   5.215   3.196   5.076 -0.1833  2.3101  0.5909
  324MOL0     H42758   4.994   3.222   4.985  1.9749 -1.1827  1.6474
  324MOL0     H42759   4.891   3.363   4.977 -0.1037 -1.2839  0.6320
  324MOL0     H42760   4.979   3.267   5.199 -2.9655  1.1028  1.0216
  324MOL0     H42761   5.120   3.366   5.166  0.0921  0.3657  0.1794
  324MOL0     H42762   4.935   3.565   5.129 -0.2194  1.8802  1.6373
  324MOL0     H42763   4.990   3.504   5.287  0.0731  1.4970 -0.1389
  324MOL0     H42764   4.728   3.455   5.144  0.5336  1.1382 -1.9129
  324MOL0     H42765   4.784   3.352   5.283  3.6194  0.3952  0.5665
  324MOL0     H42766   4.662   3.729   5.466  4.1652  0.1765  2.6231
  324MOL0     H42767   5.245   3.448   4.725  2.1564 -0.6398 -0.2141
  324MOL0     H42768   5.449   3.360   4.679 -1.1526  0.5624 -0.4022
  325MOL0     O42769   7.873   5.714   2.777  0.0057  1.1150  0.5352
  325MOL0     C42770   7.998   5.710   2.762  0.1049  0.2537 -0.1947
  325MOL0     O42771   8.080   5.616   2.825 -0.1881  0.2258  0.0826
  325MOL0     C42772   8.017   5.501   2.861  0.1724  0.3791 -0.0971
  325MOL0     C42773   7.991   5.401   2.767 -0.0026  1.1270 -0.3834
  325MOL0     C42774   7.928   5.279   2.810  0.4057  0.5060 -0.4120
  325MOL0     C42775   7.894   5.258   2.946 -1.0631 -0.1732  0.6069
  325MOL0     O42776   7.839   5.135   2.971  0.2424 -0.1518  0.3088
  325MOL0     C42777   7.839   5.094   3.108 -0.1664 -0.0772  0.0508
  325MOL0     C42778   7.755   4.965   3.123 -0.4512  0.3191 -0.6696
  325MOL0     C42779   7.615   5.009   3.162  0.2880 -0.5972 -0.1469
  325MOL0     C42780   7.522   4.894   3.170  0.0540 -0.0899  1.0719
  325MOL0     C42781   7.367   4.921   3.199  0.7160 -0.1771  0.9591
  325MOL0     C42782   7.288   4.972   3.069  0.3640  0.5573  0.0476
  325MOL0     C42783   7.142   4.997   3.105  0.0691  0.1651 -0.5806
  325MOL0     C42784   7.062   5.079   3.002 -0.6304 -0.1703  0.5659
  325MOL0     N42785   7.000   4.996   2.899  0.2705 -0.3295  0.7943
  325MOL0     C42786   7.066   4.973   2.781  0.3260 -0.0748  0.4928
  325MOL0     C42787   6.988   4.890   2.708 -0.4791 -0.0825  0.4748
  325MOL0     C42788   7.030   4.834   2.564  0.7292  0.2233  0.1651
  325MOL0     C42789   7.049   4.963   2.475 -0.0209  0.4253 -0.3409
  325MOL0     C42790   7.041   4.942   2.331  0.3609 -0.5298 -0.2964
  325MOL0     C42791   7.114   5.055   2.251  0.9227 -0.7955 -1.0481
  325MOL0     O42792   7.253   5.053   2.272  0.2063 -0.3496 -0.9367
  325MOL0     C42793   7.329   5.116   2.180  0.1501  0.7848  0.3545
  325MOL0     C42794   7.409   5.039   2.090  0.4618  0.8322  1.2918
  325MOL0     C42795   7.494   5.094   2.010  0.7875  0.0072 -0.3087
  325MOL0     C42796   7.498   5.236   1.989  0.2687 -0.4359 -0.4497
  325MOL0     C42797   7.591   5.307   1.899  0.2664 -1.1781 -0.0915
  325MOL0     O42798   7.654   5.231   1.806  0.7567 -0.6988 -0.3085
  325MOL0     C42799   7.761   5.290   1.749  0.1033  0.1477  0.0165
  325MOL0     C42800   7.740   5.371   1.641  0.4532 -0.4888  0.9109
  325MOL0     C42801   7.849   5.430   1.567 -0.5189 -1.2850 -0.2473
  325MOL0     C42802   7.987   5.414   1.616 -0.4997  0.1312 -0.4461
  325MOL0     O42803   8.094   5.466   1.564 -0.7377  0.8243 -0.1742
  325MOL0     C42804   8.119   5.430   1.429 -0.0427  0.5786  0.5771
  325MOL0     C42805   8.258   5.470   1.386 -0.9228  0.7974 -0.3068
  325MOL0     C42806   8.372   5.369   1.416  0.4078 -0.5794 -0.4376
  325MOL0     C42807   8.517   5.420   1.392  0.4166  0.8859  0.5752
  325MOL0     C42808   8.627   5.338   1.462 -0.0679 -0.0919 -0.2295
  325MOL0     C42809   8.635   5.206   1.394 -0.0363 -0.9084  0.0154
  325MOL0     C42810   8.709   5.099   1.478  0.0836  0.2717  0.6056
  325MOL0     C42811   8.728   4.975   1.391 -0.0585 -0.4060 -0.1026
  325MOL0    Cl42812   8.583   4.899   1.337 -0.0622  0.0991 -0.1917
  325MOL0     C42813   7.997   5.338   1.734  0.2451 -0.0856 -0.1243
  325MOL0     C42814   7.892   5.276   1.797 -0.3149  0.4061 -0.8929
  325MOL0     O42815   7.610   5.429   1.929 -0.8685  0.2402  0.8644
  325MOL0     C42816   7.415   5.309   2.082 -0.6959  0.8989 -0.2205
  325MOL0     C42817   7.333   5.252   2.185 -1.1943  0.3286 -0.9885
  325MOL0     N42818   6.865   4.886   2.771  0.7566  0.0663 -0.6002
  325MOL0     N42819   6.878   4.935   2.887 -0.0240 -0.4050 -0.3088
  325MOL0     C42820   7.922   5.359   3.035  0.9128  0.0148 -0.2182
  325MOL0     C42821   7.982   5.478   2.992  0.6862 -0.0859  0.1374
  325MOL0     C42822   8.063   5.822   2.694  0.0188  0.6913  0.0427
  325MOL0     C42823   7.992   5.907   2.610 -0.3017  1.3528 -0.5460
  325MOL0     C42824   8.047   6.019   2.571 -0.1055  0.6349  0.4634
  325MOL0     C42825   8.175   6.054   2.592 -0.2478 -0.4868  0.1363
  325MOL0     O42826   8.232   6.174   2.554  0.0416  0.0952  0.1169
  325MOL0     C42827   8.203   6.220   2.420 -1.0292  0.2812 -0.6860
  325MOL0     C42828   8.315   6.318   2.383 -0.1045  0.0321  1.2228
  325MOL0     C42829   8.436   6.247   2.327  1.2383 -0.7234 -0.3750
  325MOL0     C42830   8.552   6.346   2.283  0.6627  0.7122  0.0029
  325MOL0     C42831   8.684   6.274   2.279  1.0369 -0.4503  0.6135
  325MOL0     C42832   8.790   6.217   2.260  0.3332  0.2533  0.5868
  325MOL0     C42833   8.251   5.964   2.670 -0.3958  0.1972 -0.6660
  325MOL0     C42834   8.198   5.846   2.718 -0.6518 -0.3556 -1.1355
  325MOL0     H42835   7.995   5.411   2.659 -1.2047 -5.0316 -1.3647
  325MOL0     H42836   7.911   5.204   2.734 -0.3378  1.8104 -1.5968
  325MOL0     H42837   7.806   5.178   3.169  1.4102  0.9798 -0.4861
  325MOL0     H42838   7.942   5.079   3.142 -0.0459  0.2869 -0.1438
  325MOL0     H42839   7.801   4.913   3.208 -0.6282  0.3936 -0.5293
  325MOL0     H42840   7.755   4.908   3.030 -2.0433 -0.1790 -0.3975
  325MOL0     H42841   7.591   5.079   3.081  2.8858 -0.7472 -1.1574
  325MOL0     H42842   7.611   5.058   3.259  0.4711 -0.8447 -0.0121
  325MOL0     H42843   7.532   4.840   3.076  2.1394 -1.6599  2.1021
  325MOL0     H42844   7.561   4.831   3.250  0.7627  1.1762  1.7620
  325MOL0     H42845   7.378   4.984   3.288  2.6335 -1.6578  1.8439
  325MOL0     H42846   7.317   4.832   3.237 -0.2574  0.5258  1.3554
  325MOL0     H42847   7.313   4.909   2.983  4.1450  0.1393  1.2521
  325MOL0     H42848   7.331   5.069   3.039  0.3609  0.0921 -1.5817
  325MOL0     H42849   7.088   4.903   3.114 -2.6984  1.8296  2.4697
  325MOL0     H42850   7.136   5.027   3.210  1.1540 -1.8585  0.1072
  325MOL0     H42851   7.126   5.157   2.959 -0.2830 -0.5135  0.4642
  325MOL0     H42852   6.981   5.121   3.062 -1.1953 -2.3970  1.4379
  325MOL0     H42853   7.160   5.015   2.747 -0.0256  0.1087 -0.2687
  325MOL0     H42854   6.955   4.765   2.525  0.6358  1.4247 -1.9662
  325MOL0     H42855   7.121   4.774   2.566  0.8485  0.3725 -0.5263
  325MOL0     H42856   7.143   5.011   2.504 -1.0223  1.8008  0.7551
  325MOL0     H42857   6.969   5.034   2.500  0.6828  0.1441  3.1431
  325MOL0     H42858   7.089   4.847   2.306  0.9033 -0.3770  0.1324
  325MOL0     H42859   6.938   4.948   2.294  0.8037  0.1008 -1.4850
  325MOL0     H42860   7.064   5.149   2.273  0.8084 -1.4258  1.7846
  325MOL0     H42861   7.113   5.032   2.145  1.9956 -0.1186 -1.2195
  325MOL0     H42862   7.404   4.930   2.082  3.6895  0.7260 -2.1494
  325MOL0     H42863   7.545   5.028   1.940 -0.2620 -1.7228  0.4796
  325MOL0     H42864   7.635   5.381   1.612  0.9099 -1.9482 -1.5288
  325MOL0     H42865   7.837   5.499   1.484  3.3327  2.2573  1.7845
  325MOL0     H42866   8.058   5.498   1.369 -0.7691  2.0242  2.8027
  325MOL0     H42867   8.093   5.327   1.406 -2.7919  1.5305 -1.0300
  325MOL0     H42868   8.267   5.564   1.442 -3.2380  0.7462  0.2863
  325MOL0     H42869   8.263   5.497   1.281 -0.6106 -1.4264 -0.9184
  325MOL0     H42870   8.346   5.275   1.367  1.4721 -2.1498  1.8316
  325MOL0     H42871   8.376   5.339   1.521 -1.6352  0.5357  0.0215
  325MOL0     H42872   8.529   5.435   1.284 -0.0005 -2.6013 -0.0969
  325MOL0     H42873   8.515   5.521   1.433 -0.4718  0.8620  0.5985
  325MOL0     H42874   8.604   5.322   1.568 -0.7440  1.7888 -0.0465
  325MOL0     H42875   8.726   5.383   1.463  0.2499 -0.6769  2.1881
  325MOL0     H42876   8.685   5.208   1.297 -1.2750  0.5818 -0.6357
  325MOL0     H42877   8.531   5.175   1.378 -0.8147  2.1215 -1.5672
  325MOL0     H42878   8.802   5.134   1.525  0.3403  0.3410  0.0520
  325MOL0     H42879   8.635   5.076   1.555 -0.5145 -1.7361 -0.4752
  325MOL0     H42880   8.787   4.903   1.448 -1.5891 -1.5453  0.1061
  325MOL0     H42881   8.785   5.019   1.309  1.7586  0.2515  1.4327
  325MOL0     H42882   8.095   5.320   1.777  0.7567  2.1330 -0.2711
  325MOL0     H42883   7.907   5.213   1.884  3.1978 -0.5653 -2.0292
  325MOL0     H42884   7.442   5.413   2.094 -0.0772  0.6841  0.2786
  325MOL0     H42885   7.288   5.300   2.271 -2.7501  1.5616 -2.4185
  325MOL0     H42886   7.912   5.346   3.142 -3.2880  0.1768 -0.4175
  325MOL0     H42887   8.007   5.553   3.065 -0.0334 -0.5825  0.9121
  325MOL0     H42888   7.885   5.898   2.592 -0.4907 -3.7631  1.3505
  325MOL0     H42889   7.974   6.087   2.527 -1.2134 -1.3601 -0.9742
  325MOL0     H42890   8.099   6.254   2.423 -0.8009  0.9415  1.5038
  325MOL0     H42891   8.217   6.140   2.347  0.2082 -0.4554  0.3213
  325MOL0     H42892   8.268   6.380   2.306  0.7461 -3.6588 -2.6957
  325MOL0     H42893   8.344   6.384   2.465 -0.5675 -0.1871  1.5645
  325MOL0     H42894   8.400   6.177   2.252 -0.3873 -0.8349  0.4597
  325MOL0     H42895   8.482   6.183   2.403  1.1547  2.3474  2.5126
  325MOL0     H42896   8.522   6.401   2.194 -0.4828 -1.9294 -1.3602
  325MOL0     H42897   8.553   6.427   2.357  3.4959  1.7738 -1.0714
  325MOL0     H42898   8.874   6.156   2.231  0.6747  1.3421 -0.7989
  325MOL0     H42899   8.354   5.988   2.696 -0.7752  0.7339  0.4254
  325MOL0     H42900   8.252   5.778   2.783 -0.4815  1.4305  0.7269
  326MOL0     O42901   7.254   1.117   0.843 -0.0177  0.3310  0.1442
  326MOL0     C42902   7.253   1.223   0.902 -0.4833 -0.3338  0.6350
  326MOL0     O42903   7.174   1.327   0.861 -0.8923  0.5678 -0.2055
  326MOL0     C42904   7.120   1.334   0.741 -0.3254  0.7493  0.4838
  326MOL0     C42905   6.999   1.259   0.723 -0.3609  0.2403  0.0051
  326MOL0     C42906   6.928   1.265   0.601 -0.2143  0.2404  0.1318
  326MOL0     C42907   6.967   1.353   0.501 -0.2711  0.2312  0.6718
  326MOL0     O42908   6.895   1.348   0.376  0.1025  0.4574  0.1437
  326MOL0     C42909   6.750   1.352   0.382  0.5494  0.6039 -0.7362
  326MOL0     C42910   6.698   1.394   0.246  0.2243  0.6984  0.4362
  326MOL0     C42911   6.746   1.330   0.117 -0.3884  0.2087 -0.2375
  326MOL0     C42912   6.694   1.416  -0.005 -0.2214  1.1058 -0.5535
  326MOL0     C42913   6.721   1.360  -0.150  0.2532 -0.0601 -0.0859
  326MOL0     C42914   6.668   1.217  -0.179 -1.3012  1.4095  0.8302
  326MOL0     C42915   6.668   1.189  -0.333  0.1955  0.0155 -0.1665
  326MOL0     C42916   6.801   1.181  -0.412  0.1336  0.2807 -0.2718
  326MOL0     N42917   6.792   1.143  -0.558 -0.1612  0.3857  0.5899
  326MOL0     C42918   6.691   1.078  -0.624  0.3008  0.4042  0.0013
  326MOL0     C42919   6.694   1.121  -0.755 -0.8793  0.1122  0.2983
  326MOL0     C42920   6.614   1.079  -0.862 -0.1892  0.5030  0.3724
  326MOL0     C42921   6.475   1.158  -0.846  0.0741 -0.8361 -0.6916
  326MOL0     C42922   6.477   1.306  -0.882  0.3579  0.2160  0.5539
  326MOL0     C42923   6.502   1.333  -1.030  0.2926 -0.9135  0.5143
  326MOL0     O42924   6.437   1.453  -1.062  0.1432 -0.3282 -0.7143
  326MOL0     C42925   6.500   1.576  -1.061  0.1902 -0.8392 -0.2995
  326MOL0     C42926   6.409   1.683  -1.081  0.5556 -0.1786 -0.2291
  326MOL0     C42927   6.465   1.815  -1.099  0.4894 -0.3119 -0.8026
  326MOL0     C42928   6.605   1.842  -1.077 -1.0174 -0.0678  0.5652
  326MOL0     C42929   6.656   1.981  -1.074 -0.3606 -0.5599  1.3587
  326MOL0     O42930   6.571   2.079  -1.051 -0.4893 -0.5141  0.3473
  326MOL0     C42931   6.620   2.210  -1.041  0.4519 -0.5302  0.2901
  326MOL0     C42932   6.671   2.250  -0.918 -0.7126 -0.5888 -0.2348
  326MOL0     C42933   6.736   2.372  -0.909  0.3636 -0.4984  0.5541
  326MOL0     C42934   6.719   2.467  -1.016 -0.2022  0.3728 -0.5522
  326MOL0     O42935   6.778   2.589  -1.010  0.2250 -0.3732  0.3456
  326MOL0     C42936   6.712   2.688  -0.927 -0.5299 -0.3385  0.0578
  326MOL0     C42937   6.663   2.810  -1.004  0.2553 -0.2305 -0.0972
  326MOL0     C42938   6.770   2.859  -1.098 -0.1638 -0.2034 -0.1075
  326MOL0     C42939   6.748   3.001  -1.149 -0.1142  0.7710 -0.2398
  326MOL0     C42940   6.649   3.027  -1.256  0.4503  0.0347 -0.9389
  326MOL0     C42941   6.645   2.931  -1.372 -0.1423  0.0017  0.5414
  326MOL0     C42942   6.555   2.988  -1.492 -0.4046  0.1525 -0.6960
  326MOL0     C42943   6.517   2.854  -1.566  1.2730 -0.0510 -0.1803
  326MOL0    Cl42944   6.656   2.748  -1.614 -0.0450 -0.4042 -0.3376
  326MOL0     C42945   6.642   2.427  -1.127 -0.0975 -0.3432 -0.6095
  326MOL0     C42946   6.591   2.303  -1.141 -0.1473  0.4456 -0.5163
  326MOL0     O42947   6.772   1.996  -1.112  0.5254  0.6090  0.1144
  326MOL0     C42948   6.684   1.738  -1.047  0.5272 -0.8146  0.3444
  326MOL0     C42949   6.632   1.608  -1.054 -0.0945 -0.7510  0.0581
  326MOL0     N42950   6.783   1.221  -0.757 -0.1228 -0.0962 -0.5749
  326MOL0     N42951   6.850   1.233  -0.645  1.1845 -0.2650  0.5107
  326MOL0     C42952   7.089   1.423   0.523  0.1966 -0.8956 -0.1303
  326MOL0     C42953   7.163   1.417   0.645 -0.4219 -0.8414  0.8539
  326MOL0     C42954   7.338   1.251   1.014  0.3814  0.4091 -0.1656
  326MOL0     C42955   7.407   1.143   1.074  0.3007 -0.9335  0.7001
  326MOL0     C42956   7.496   1.171   1.178  0.9699 -0.0524  0.1760
  326MOL0     C42957   7.516   1.300   1.216  1.7405 -0.5666  1.0615
  326MOL0     O42958   7.614   1.313   1.307  0.0687 -0.4530 -0.4198
  326MOL0     C42959   7.635   1.421   1.405  0.4160 -0.2792 -0.3014
  326MOL0     C42960   7.500   1.467   1.482 -0.4259 -0.5403 -0.5848
  326MOL0     C42961   7.420   1.351   1.561  0.5376 -0.3848 -0.0271
  326MOL0     C42962   7.270   1.405   1.594 -0.3898  0.5400 -0.8490
  326MOL0     C42963   7.210   1.312   1.690 -0.0055 -0.5616 -0.3857
  326MOL0     C42964   7.171   1.227   1.765  0.5083  0.6713 -0.6373
  326MOL0     C42965   7.448   1.408   1.157 -0.7366  0.4910 -0.0967
  326MOL0     C42966   7.366   1.381   1.052  0.3679  0.3329 -0.1947
  326MOL0     H42967   6.970   1.190   0.801 -1.8709  1.6653  0.7716
  326MOL0     H42968   6.842   1.200   0.614 -0.9534  1.2402  0.3711
  326MOL0     H42969   6.715   1.426   0.455 -0.4106 -0.0200 -0.5524
  326MOL0     H42970   6.716   1.250   0.405  3.0245 -0.4328 -1.2367
  326MOL0     H42971   6.714   1.500   0.226  2.0880  0.2524 -0.6599
  326MOL0     H42972   6.590   1.376   0.243  0.7375 -3.1927 -0.4876
  326MOL0     H42973   6.708   1.228   0.117 -2.7035  1.0018  0.8318
  326MOL0     H42974   6.855   1.337   0.122 -0.5061  1.3831  2.3537
  326MOL0     H42975   6.586   1.430  -0.001 -0.3238  0.5756 -1.3823
  326MOL0     H42976   6.744   1.512   0.012  3.0586 -0.7188  1.1630
  326MOL0     H42977   6.829   1.377  -0.156  0.4737 -1.2364  0.2657
  326MOL0     H42978   6.682   1.444  -0.209  0.0358  1.5250  2.1661
  326MOL0     H42979   6.568   1.202  -0.138 -1.9493 -0.7703 -1.2832
  326MOL0     H42980   6.742   1.163  -0.119  1.2279  2.8819 -0.7494
  326MOL0     H42981   6.625   1.089  -0.348  2.6753 -1.0507 -0.8421
  326MOL0     H42982   6.602   1.259  -0.384  0.2391 -0.8937 -1.5369
  326MOL0     H42983   6.867   1.104  -0.371 -1.9358 -1.5733 -0.2568
  326MOL0     H42984   6.864   1.270  -0.398  2.2539 -1.0662 -0.8495
  326MOL0     H42985   6.629   1.001  -0.581  0.1908 -0.4290 -1.5779
  326MOL0     H42986   6.603   0.971  -0.872 -0.4483  0.4087  1.6130
  326MOL0     H42987   6.655   1.109  -0.959 -1.3333  1.5754  0.2012
  326MOL0     H42988   6.450   1.146  -0.740  2.6125 -1.6118 -0.1106
  326MOL0     H42989   6.400   1.106  -0.906  2.5059 -1.0408 -3.7962
  326MOL0     H42990   6.382   1.343  -0.843 -0.5416 -0.3956 -0.9715
  326MOL0     H42991   6.552   1.365  -0.828 -0.2902  2.0176 -0.4201
  326MOL0     H42992   6.439   1.262  -1.085  1.6663 -1.5305 -0.3183
  326MOL0     H42993   6.605   1.316  -1.062 -0.6406 -3.7767 -1.4232
  326MOL0     H42994   6.302   1.680  -1.098  0.6335  0.4203 -0.8610
  326MOL0     H42995   6.403   1.904  -1.102  0.8716 -0.0569 -1.2726
  326MOL0     H42996   6.663   2.191  -0.827 -1.9083 -1.4932 -0.8966
  326MOL0     H42997   6.796   2.397  -0.822 -0.4698  0.5698  0.8401
  326MOL0     H42998   6.784   2.717  -0.850  0.3786 -2.3744  0.0257
  326MOL0     H42999   6.622   2.654  -0.876 -0.6407  1.1691  0.9392
  326MOL0     H43000   6.645   2.889  -0.931 -2.9310 -0.5376 -0.4118
  326MOL0     H43001   6.574   2.787  -1.065 -0.3069 -1.6201  1.1711
  326MOL0     H43002   6.784   2.801  -1.190  0.5838 -0.7754  0.3584
  326MOL0     H43003   6.870   2.863  -1.055 -1.2490  0.9771  2.5169
  326MOL0     H43004   6.725   3.061  -1.061  2.2074  0.6340  0.5113
  326MOL0     H43005   6.844   3.042  -1.179  1.0061 -1.4294  0.0971
  326MOL0     H43006   6.633   3.128  -1.294  0.2091  1.0217  1.6047
  326MOL0     H43007   6.550   3.010  -1.212  0.9647  2.2345  1.2371
  326MOL0     H43008   6.624   2.829  -1.339  1.1040  0.0783  1.6886
  326MOL0     H43009   6.749   2.932  -1.406  0.0185  0.0492  1.0274
  326MOL0     H43010   6.462   3.032  -1.455 -0.7314 -0.1650 -1.1334
  326MOL0     H43011   6.619   3.054  -1.551  1.2518  1.6048  2.4614
  326MOL0     H43012   6.455   2.872  -1.654 -2.1165 -2.1339  1.5638
  326MOL0     H43013   6.448   2.795  -1.506  1.6270 -0.6826 -0.3922
  326MOL0     H43014   6.635   2.497  -1.210  2.1030  0.6836  0.0074
  326MOL0     H43015   6.529   2.285  -1.229 -0.1323 -1.2220 -0.2143
  326MOL0     H43016   6.789   1.767  -1.044 -0.9297  6.1404 -0.0895
  326MOL0     H43017   6.695   1.521  -1.040 -0.0731 -1.1632 -2.2105
  326MOL0     H43018   7.127   1.492   0.449 -0.1917 -2.5146 -1.9172
  326MOL0     H43019   7.249   1.477   0.672 -3.0445  2.3417  2.9612
  326MOL0     H43020   7.381   1.045   1.035 -1.0457 -0.2105 -0.2670
  326MOL0     H43021   7.550   1.088   1.222 -0.7641 -1.6146 -0.5534
  326MOL0     H43022   7.687   1.495   1.343  0.6186  0.2855  0.5379
  326MOL0     H43023   7.702   1.384   1.483  0.3079  1.5157  0.6863
  326MOL0     H43024   7.532   1.536   1.560 -0.0923  0.2844 -1.4334
  326MOL0     H43025   7.440   1.522   1.410 -3.0305 -2.3132  0.0960
  326MOL0     H43026   7.460   1.316   1.657 -3.1194 -5.2486  0.1018
  326MOL0     H43027   7.417   1.258   1.503  0.7202 -0.4431  0.0532
  326MOL0     H43028   7.275   1.497   1.652  2.0995 -1.2143  2.0739
  326MOL0     H43029   7.197   1.422   1.515 -0.8573  2.8699  0.0350
  326MOL0     H43030   7.144   1.157   1.842  3.8442 -1.1175 -0.9061
  326MOL0     H43031   7.475   1.507   1.191  0.9866  0.0714 -0.1419
  326MOL0     H43032   7.313   1.458   0.996  3.7574  0.5620 -3.4338
  327MOL0     O43033   7.801   4.833  10.042  0.1179 -0.0301 -0.5471
  327MOL0     C43034   7.873   4.763  10.109  0.0735 -0.2691 -0.3204
  327MOL0     O43035   7.832   4.669  10.191 -0.1653  0.6146  0.2137
  327MOL0     C43036   7.701   4.643  10.184  0.1281 -0.6296 -0.3276
  327MOL0     C43037   7.613   4.730  10.241  0.5905  0.7265 -0.1648
  327MOL0     C43038   7.475   4.693  10.268  0.1979  0.0001  0.1031
  327MOL0     C43039   7.420   4.582  10.203  0.4734 -0.2325  0.5650
  327MOL0     O43040   7.289   4.547  10.182  0.1786  0.4377  0.1901
  327MOL0     C43041   7.210   4.560  10.300 -0.4528 -0.8155  0.1715
  327MOL0     C43042   7.086   4.484  10.287 -0.2754  0.2425 -0.1803
  327MOL0     C43043   7.107   4.337  10.320  0.1920 -1.1857  0.9398
  327MOL0     C43044   6.985   4.252  10.267  0.2845  0.0273  0.2852
  327MOL0     C43045   6.846   4.297  10.314  0.6941 -0.4260  0.0608
  327MOL0     C43046   6.828   4.306  10.470 -0.1371 -0.4971  0.6030
  327MOL0     C43047   6.837   4.161  10.523  0.8537 -0.3135  0.1738
  327MOL0     C43048   6.838   4.174  10.677 -0.5559 -0.2356  0.1021
  327MOL0     N43049   6.977   4.218  10.733  0.6841  0.1921  0.6490
  327MOL0     C43050   7.080   4.135  10.782  0.8831 -0.5326  0.4632
  327MOL0     C43051   7.198   4.207  10.807  0.4136 -0.0134 -0.3565
  327MOL0     C43052   7.337   4.164  10.847  0.0899 -0.8352  0.2293
  327MOL0     C43053   7.319   4.070  10.962  0.2515  0.5762  0.1937
  327MOL0     C43054   7.444   4.019  11.025 -0.0181  1.5490 -0.1594
  327MOL0     C43055   7.429   3.898  11.111  0.4893 -0.1803 -1.0044
  327MOL0     O43056   7.555   3.826  11.133 -0.1048 -0.1140  0.4341
  327MOL0     C43057   7.543   3.689  11.136  0.4074 -0.4799 -1.1924
  327MOL0     C43058   7.470   3.631  11.245  0.0803  0.0116 -0.0134
  327MOL0     C43059   7.441   3.488  11.250 -0.5348  0.1217  0.2373
  327MOL0     C43060   7.488   3.407  11.140 -0.3462 -0.6007 -0.2317
  327MOL0     C43061   7.484   3.257  11.144 -0.6334  0.0868  0.0479
  327MOL0     O43062   7.377   3.214  11.218 -0.8095 -0.1901 -0.5130
  327MOL0     C43063   7.352   3.079  11.235  0.1252  0.5878  0.4325
  327MOL0     C43064   7.221   3.040  11.225 -0.8255 -0.9996  0.2530
  327MOL0     C43065   7.177   2.904  11.244 -0.0420  0.2017 -0.8187
  327MOL0     C43066   7.277   2.811  11.267  0.2930  0.3964 -0.1306
  327MOL0     O43067   7.266   2.677  11.296  0.9865  0.5132 -0.6854
  327MOL0     C43068   7.141   2.643  11.360 -0.1339 -0.3921 -0.4241
  327MOL0     C43069   7.149   2.505  11.408  0.8279  0.0608 -0.5452
  327MOL0     C43070   7.009   2.451  11.426  0.8703 -0.6427 -0.8248
  327MOL0     C43071   7.032   2.311  11.482  0.0841  0.6501 -0.1638
  327MOL0     C43072   6.900   2.223  11.486 -0.3748 -0.0565 -0.4492
  327MOL0     C43073   6.931   2.081  11.487  0.2307  0.9843 -0.3887
  327MOL0     C43074   6.826   1.986  11.553  0.3558  0.9335  0.4115
  327MOL0     C43075   6.855   1.844  11.531 -0.4019 -0.0953  0.2157
  327MOL0    Cl43076   6.755   1.746  11.637  0.4075  0.0949 -0.1088
  327MOL0     C43077   7.411   2.850  11.275  0.4364  0.1206  0.3372
  327MOL0     C43078   7.448   2.982  11.260 -1.5555 -0.7335 -0.2370
  327MOL0     O43079   7.564   3.193  11.074  0.1121  0.2088 -0.0373
  327MOL0     C43080   7.550   3.477  11.032  0.1434 -0.3820  0.4467
  327MOL0     C43081   7.582   3.610  11.030  0.0796 -0.6130 -1.1198
  327MOL0     N43082   7.152   4.338  10.794  0.4708  0.1827  0.4787
  327MOL0     N43083   7.027   4.344  10.743 -0.0092  0.6111 -0.3951
  327MOL0     C43084   7.509   4.501  10.130 -0.8553 -0.9335  0.0894
  327MOL0     C43085   7.647   4.522  10.123  1.1341  0.1431 -0.2442
  327MOL0     C43086   8.020   4.775  10.089  0.1072  0.7124  0.5043
  327MOL0     C43087   8.066   4.870  10.002  0.0260  0.0707  0.1088
  327MOL0     C43088   8.198   4.892   9.988 -1.2596 -0.1374  0.2223
  327MOL0     C43089   8.293   4.815  10.055 -0.2825  0.2961 -0.0568
  327MOL0     O43090   8.428   4.839  10.041  0.1420  0.0429 -0.0721
  327MOL0     C43091   8.490   4.912   9.934  0.3429 -0.1669 -0.4150
  327MOL0     C43092   8.494   4.832   9.805 -0.5616 -0.3705 -0.1940
  327MOL0     C43093   8.614   4.865   9.699 -0.2500  0.0177 -0.2355
  327MOL0     C43094   8.572   4.989   9.625 -0.1358 -0.5139  0.6934
  327MOL0     C43095   8.676   5.028   9.531 -0.4308  0.5668  0.8991
  327MOL0     C43096   8.763   5.083   9.461  0.3247 -0.8305  0.3278
  327MOL0     C43097   8.249   4.710  10.134  0.4282 -0.2035  0.8923
  327MOL0     C43098   8.114   4.690  10.151  0.2264  0.4791  1.4877
  327MOL0     H43099   7.652   4.818  10.291 -2.7080  1.9752  0.4560
  327MOL0     H43100   7.401   4.751  10.321 -3.1467 -2.2547 -1.7212
  327MOL0     H43101   7.182   4.666  10.310 -3.4483 -1.5444  0.5515
  327MOL0     H43102   7.276   4.538  10.384 -0.3815 -1.3091 -0.0139
  327MOL0     H43103   7.044   4.504  10.188 -0.6274  3.2977  0.5045
  327MOL0     H43104   7.028   4.521  10.371 -1.8933  0.1916 -1.2423
  327MOL0     H43105   7.126   4.331  10.427 -0.4181  0.4281  1.1673
  327MOL0     H43106   7.201   4.302  10.276  1.8379  0.3141  3.0466
  327MOL0     H43107   6.978   4.251  10.157  3.5264 -0.5364  0.0082
  327MOL0     H43108   7.009   4.148  10.288 -0.9794 -0.1822  0.7960
  327MOL0     H43109   6.773   4.221  10.286  0.4236 -0.1800  0.0874
  327MOL0     H43110   6.813   4.391  10.268  0.4009  1.8433  4.3438
  327MOL0     H43111   6.727   4.348  10.475 -0.1086 -0.5477  2.4791
  327MOL0     H43112   6.904   4.373  10.512  0.0986 -0.1489 -0.3564
  327MOL0     H43113   6.742   4.115  10.494  0.0704  2.2706 -1.7710
  327MOL0     H43114   6.925   4.109  10.486  1.1052  1.9548 -2.8809
  327MOL0     H43115   6.826   4.069  10.704  0.4920 -0.3988 -0.0013
  327MOL0     H43116   6.753   4.233  10.712 -1.9155  0.4630 -3.8834
  327MOL0     H43117   7.072   4.027  10.784 -6.2626 -0.4517  1.9035
  327MOL0     H43118   7.394   4.254  10.875  0.7735 -1.5070  1.0679
  327MOL0     H43119   7.395   4.116  10.768 -0.8825 -1.8925  0.1464
  327MOL0     H43120   7.249   3.991  10.931 -1.1300  2.8605 -3.1518
  327MOL0     H43121   7.265   4.123  11.041 -1.8467 -4.3383  2.4764
  327MOL0     H43122   7.517   4.003  10.945 -0.7456 -1.8847 -0.3150
  327MOL0     H43123   7.492   4.096  11.086 -1.1687  2.0732  0.1016
  327MOL0     H43124   7.354   3.831  11.067 -0.1473 -1.7268  2.1542
  327MOL0     H43125   7.387   3.931  11.206  3.6744 -1.8621  1.1663
  327MOL0     H43126   7.444   3.690  11.333  0.6762 -0.1830  0.3027
  327MOL0     H43127   7.404   3.436  11.338  1.2331  0.4249  1.2346
  327MOL0     H43128   7.157   3.119  11.189 -0.9666 -0.8331  0.8605
  327MOL0     H43129   7.071   2.881  11.237 -0.3180  0.4789  1.6632
  327MOL0     H43130   7.059   2.654  11.289  0.1167  1.6182 -0.4545
  327MOL0     H43131   7.112   2.712  11.439 -3.1072  1.1836 -2.6799
  327MOL0     H43132   7.193   2.507  11.508 -1.0263 -0.1581  0.3382
  327MOL0     H43133   7.216   2.448  11.344  1.3565 -1.0368  0.9167
  327MOL0     H43134   6.961   2.443  11.328 -0.8415 -2.0915  0.0727
  327MOL0     H43135   6.947   2.508  11.496  2.7696 -1.4695  1.7070
  327MOL0     H43136   7.102   2.255  11.418  0.3806 -0.4711  1.0911
  327MOL0     H43137   7.061   2.325  11.586 -0.9847 -2.3159  0.6460
  327MOL0     H43138   6.831   2.254  11.407 -1.9424  2.1154  1.6444
  327MOL0     H43139   6.844   2.238  11.579 -0.0910  0.9250 -0.4334
  327MOL0     H43140   7.019   2.065  11.551 -0.5469  0.4871  0.5767
  327MOL0     H43141   6.957   2.054  11.384  2.8350  2.4531 -0.2015
  327MOL0     H43142   6.822   2.008  11.660  2.0084 -0.1588  0.7379
  327MOL0     H43143   6.723   2.001  11.520 -1.3008 -3.7628  2.6650
  327MOL0     H43144   6.959   1.827  11.563 -1.4786  0.1309  4.3523
  327MOL0     H43145   6.851   1.816  11.425  1.6213  2.7520 -0.7464
  327MOL0     H43146   7.491   2.781  11.298 -1.3741 -1.9593  0.7485
  327MOL0     H43147   7.554   3.002  11.272 -1.7148 -0.8380  1.5784
  327MOL0     H43148   7.577   3.421  10.943  1.5315  1.8519 -0.6600
  327MOL0     H43149   7.644   3.652  10.952  1.5323  0.3880  0.5198
  327MOL0     H43150   7.452   4.419  10.089 -1.8813 -1.1594  1.8681
  327MOL0     H43151   7.716   4.461  10.066  1.3286 -0.5816  0.7236
  327MOL0     H43152   8.001   4.944   9.956  2.0747  1.2496 -1.0107
  327MOL0     H43153   8.227   4.978   9.927 -2.1604  0.0855  0.1039
  327MOL0     H43154   8.585   4.950   9.974  0.0985 -1.2797  1.3545
  327MOL0     H43155   8.427   5.001   9.927 -1.2508 -1.1225  0.9218
  327MOL0     H43156   8.502   4.726   9.833  4.0454 -0.8158 -2.1506
  327MOL0     H43157   8.403   4.857   9.750 -0.4849  3.0730  1.0151
  327MOL0     H43158   8.638   4.772   9.647  0.8087 -2.2344  3.8333
  327MOL0     H43159   8.701   4.895   9.758 -0.5251  0.5258 -0.0846
  327MOL0     H43160   8.474   4.983   9.578  0.8805 -0.1628 -1.5988
  327MOL0     H43161   8.574   5.075   9.693  0.3510  0.8678 -0.9984
  327MOL0     H43162   8.837   5.126   9.396 -0.1873  1.3325  1.1030
  327MOL0     H43163   8.332   4.650  10.169  1.7558  0.7325 -0.5270
  327MOL0     H43164   8.072   4.612  10.214 -1.0325  1.1125  1.4649
  328MOL0     O43165   7.012  10.758   7.655 -0.3968 -1.1768 -0.3240
  328MOL0     C43166   6.917  10.839   7.653  0.2173  0.3412 -0.1074
  328MOL0     O43167   6.901  10.940   7.749 -0.0550 -0.1755 -0.0242
  328MOL0     C43168   6.994  10.949   7.850 -0.3464 -0.5621 -0.3732
  328MOL0     C43169   6.951  10.909   7.974  0.0345  1.5132 -0.1743
  328MOL0     C43170   7.035  10.930   8.082  0.5182  0.4391 -0.0530
  328MOL0     C43171   7.159  11.001   8.064  0.5115 -0.6736  0.4982
  328MOL0     O43172   7.251  11.012   8.161 -0.7021 -0.6996 -0.0148
  328MOL0     C43173   7.230  10.959   8.289  0.2183 -0.0118 -0.5208
  328MOL0     C43174   7.337  10.991   8.393 -0.1943  0.2889 -1.5738
  328MOL0     C43175   7.396  11.138   8.370  0.0590  0.3354 -0.7449
  328MOL0     C43176   7.498  11.153   8.482  0.8112  0.5939  0.2425
  328MOL0     C43177   7.563  11.291   8.472 -0.1555 -0.0904 -0.2406
  328MOL0     C43178   7.623  11.340   8.606  0.1427  0.5430 -0.3478
  328MOL0     C43179   7.714  11.464   8.583 -0.1392 -0.3610  0.3757
  328MOL0     C43180   7.642  11.586   8.515 -0.8921  0.2011 -0.3810
  328MOL0     N43181   7.518  11.633   8.576  0.4288  0.3734 -0.0343
  328MOL0     C43182   7.506  11.669   8.703  0.1385 -0.6344  0.0598
  328MOL0     C43183   7.375  11.714   8.717  0.9188  0.3940  0.2080
  328MOL0     C43184   7.315  11.772   8.841  0.3803  0.3723  0.0119
  328MOL0     C43185   7.344  11.915   8.869 -0.5334  0.5219  0.0092
  328MOL0     C43186   7.311  12.021   8.756  0.0418 -1.4968 -1.0407
  328MOL0     C43187   7.389  12.021   8.627  0.6093 -0.1231  0.2792
  328MOL0     O43188   7.526  12.037   8.653  0.2817  0.2992 -0.4972
  328MOL0     C43189   7.619  12.000   8.560 -0.2411 -0.2867  0.2309
  328MOL0     C43190   7.743  11.979   8.605 -0.3652  0.2730 -0.0088
  328MOL0     C43191   7.849  11.941   8.533 -0.1314 -0.2071 -0.3047
  328MOL0     C43192   7.840  11.948   8.392  0.3998  0.0758  0.3288
  328MOL0     C43193   7.958  11.907   8.299  0.1891  0.5293 -0.5829
  328MOL0     O43194   7.929  11.891   8.168  0.0173 -0.4477 -0.8313
  328MOL0     C43195   8.005  11.834   8.078  0.2847  0.6303  0.3328
  328MOL0     C43196   8.111  11.747   8.102  0.3137 -0.6054 -0.9765
  328MOL0     C43197   8.178  11.683   7.999  0.3086  0.3042 -0.1612
  328MOL0     C43198   8.143  11.705   7.867  1.2066  0.0160 -0.3440
  328MOL0     O43199   8.215  11.631   7.777 -0.0086  0.5881  0.4432
  328MOL0     C43200   8.156  11.583   7.648 -0.9321 -0.7682 -0.1406
  328MOL0     C43201   8.274  11.507   7.557  1.1862 -1.2502 -0.6428
  328MOL0     C43202   8.369  11.601   7.487 -0.4626 -0.1859 -0.0821
  328MOL0     C43203   8.459  11.527   7.383  0.5640 -0.4354 -0.4102
  328MOL0     C43204   8.406  11.561   7.245  1.2914 -0.0800  0.1137
  328MOL0     C43205   8.470  11.696   7.197  0.9355  0.2518  0.9608
  328MOL0     C43206   8.612  11.666   7.142 -0.9743 -0.4596 -0.3586
  328MOL0     C43207   8.695  11.785   7.088  0.0078  0.1514  0.1552
  328MOL0    Cl43208   8.745  11.876   7.234 -0.0606  0.5752 -0.3150
  328MOL0     C43209   8.027  11.783   7.841 -0.0864 -0.9060  0.5852
  328MOL0     C43210   7.962  11.854   7.946 -0.3444 -0.0988  0.1070
  328MOL0     O43211   8.064  11.869   8.350  0.2523 -0.7875  0.2318
  328MOL0     C43212   7.717  11.976   8.339 -0.6625 -0.0455  0.2794
  328MOL0     C43213   7.607  11.999   8.423  0.0068  0.5345  0.5284
  328MOL0     N43214   7.312  11.702   8.587  0.2464  0.3358 -0.4369
  328MOL0     N43215   7.398  11.648   8.510  0.5406  1.0855  0.1082
  328MOL0     C43216   7.199  11.038   7.927 -0.3915  0.4047 -0.1372
  328MOL0     C43217   7.120  11.006   7.823 -0.6466 -0.9628  0.2053
  328MOL0     C43218   6.830  10.842   7.533 -0.1267 -0.3311 -0.1821
  328MOL0     C43219   6.720  10.921   7.519  0.1942 -0.3149  0.1594
  328MOL0     C43220   6.634  10.923   7.402  0.0819 -0.3587 -0.0912
  328MOL0     C43221   6.679  10.863   7.280  0.8334 -0.3439 -0.5339
  328MOL0     O43222   6.608  10.891   7.169 -0.3400 -0.4902  0.6859
  328MOL0     C43223   6.585  10.775   7.087 -0.8962  0.0314  0.0619
  328MOL0     C43224   6.669  10.772   6.955  0.5413 -0.8679  1.5954
  328MOL0     C43225   6.664  10.913   6.881 -0.7519  0.6591 -0.2398
  328MOL0     C43226   6.520  10.951   6.842  0.9775 -0.7018  0.1438
  328MOL0     C43227   6.460  10.883   6.730 -0.5560 -0.3802  0.7738
  328MOL0     C43228   6.419  10.845   6.624  0.5937 -0.0163 -0.1408
  328MOL0     C43229   6.792  10.774   7.295 -0.3589  0.5473  0.1280
  328MOL0     C43230   6.866  10.770   7.416 -0.5317  0.4331  0.2892
  328MOL0     H43231   6.848  10.884   7.997  0.2620 -1.1330 -1.6982
  328MOL0     H43232   7.009  10.895   8.182  1.1787 -0.8787 -0.3135
  328MOL0     H43233   7.221  10.850   8.283  0.1544 -0.0003 -0.6367
  328MOL0     H43234   7.141  11.011   8.325  1.2994 -0.5386  3.5137
  328MOL0     H43235   7.415  10.915   8.396  1.5514  1.9581  2.5824
  328MOL0     H43236   7.296  10.989   8.494  3.4178  0.0022  0.0140
  328MOL0     H43237   7.309  11.204   8.369  0.7606  1.2685 -1.8605
  328MOL0     H43238   7.450  11.147   8.275 -0.7818  2.5953 -1.0721
  328MOL0     H43239   7.448  11.140   8.578  0.2089  0.7771 -0.0402
  328MOL0     H43240   7.580  11.082   8.489 -1.9355 -2.6559  3.5679
  328MOL0     H43241   7.487  11.358   8.431  0.0319 -0.2381 -0.8391
  328MOL0     H43242   7.637  11.273   8.394  0.5809  1.3943  0.0685
  328MOL0     H43243   7.688  11.258   8.639 -3.6498 -1.7834  2.1214
  328MOL0     H43244   7.536  11.361   8.669  0.1809  1.6590 -0.6446
  328MOL0     H43245   7.762  11.504   8.672  0.4182 -2.0332  0.8623
  328MOL0     H43246   7.792  11.423   8.517 -3.4180 -2.6666 -2.4620
  328MOL0     H43247   7.638  11.577   8.406 -2.5318  2.4445 -0.5568
  328MOL0     H43248   7.704  11.674   8.534 -0.9832 -0.3675  3.3080
  328MOL0     H43249   7.580  11.680   8.783  0.9914  5.5658 -1.0809
  328MOL0     H43250   7.341  11.698   8.917 -2.0314 -1.3218 -0.7077
  328MOL0     H43251   7.206  11.779   8.836  0.4812  4.4821  0.3643
  328MOL0     H43252   7.446  11.932   8.904 -0.3930  2.5079 -1.1953
  328MOL0     H43253   7.289  11.947   8.958 -1.6053 -1.2343  0.0126
  328MOL0     H43254   7.202  12.023   8.741  0.2808  0.6480 -3.0995
  328MOL0     H43255   7.332  12.119   8.800 -0.8493 -0.7283 -2.2480
  328MOL0     H43256   7.356  12.107   8.568  2.0128  2.0155  2.4026
  328MOL0     H43257   7.355  11.934   8.570 -2.3073  2.0116 -1.5384
  328MOL0     H43258   7.739  11.958   8.711 -1.2740 -0.3597 -0.1539
  328MOL0     H43259   7.937  11.926   8.594 -0.3150  3.4712  1.1410
  328MOL0     H43260   8.134  11.713   8.203 -0.5092  2.0098  0.1739
  328MOL0     H43261   8.252  11.609   8.027 -1.9572 -1.6258  1.1506
  328MOL0     H43262   8.118  11.663   7.584 -1.5798  0.4580  1.6888
  328MOL0     H43263   8.077  11.512   7.671 -1.0573 -0.2899  0.9807
  328MOL0     H43264   8.227  11.449   7.476 -0.3255 -0.0694 -0.6617
  328MOL0     H43265   8.328  11.436   7.620  1.9610 -0.6059 -0.5699
  328MOL0     H43266   8.436  11.640   7.564 -0.5976 -0.6247  0.2629
  328MOL0     H43267   8.316  11.686   7.443  0.1057 -0.7105 -1.8446
  328MOL0     H43268   8.562  11.557   7.403 -0.1484  1.1695  1.1493
  328MOL0     H43269   8.480  11.420   7.395  0.7234 -0.2526  1.1979
  328MOL0     H43270   8.296  11.566   7.240  1.2428 -1.3988 -0.6634
  328MOL0     H43271   8.424  11.485   7.169 -0.7043  3.2353 -4.1138
  328MOL0     H43272   8.472  11.771   7.276 -0.0008  1.2950  0.0295
  328MOL0     H43273   8.405  11.729   7.115  0.8654 -0.6931  0.6193
  328MOL0     H43274   8.666  11.605   7.215 -0.0693  0.0919 -0.5440
  328MOL0     H43275   8.607  11.602   7.053  0.7139  2.6449 -2.9311
  328MOL0     H43276   8.631  11.853   7.031 -0.1522 -0.7855 -0.8192
  328MOL0     H43277   8.775  11.754   7.020 -0.5187  1.2386 -0.9895
  328MOL0     H43278   7.990  11.799   7.741 -0.3811  1.1956  0.9971
  328MOL0     H43279   7.878  11.923   7.939  1.6772  2.3679 -1.3085
  328MOL0     H43280   7.705  11.964   8.232 -1.5697  0.5322  0.3034
  328MOL0     H43281   7.509  12.029   8.388  0.5629  2.7318  0.7113
  328MOL0     H43282   7.295  11.085   7.907 -0.4649 -0.2790 -2.3352
  328MOL0     H43283   7.138  11.034   7.720 -4.6810  0.9701 -0.1516
  328MOL0     H43284   6.704  10.999   7.593  0.6907 -0.3282  0.2813
  328MOL0     H43285   6.554  10.996   7.392  1.5526  1.5116  1.0942
  328MOL0     H43286   6.478  10.771   7.064 -0.5735 -0.7721 -1.4368
  328MOL0     H43287   6.614  10.680   7.133 -1.8471 -1.2129 -1.7828
  328MOL0     H43288   6.773  10.757   6.984  1.0058  0.1288  0.5033
  328MOL0     H43289   6.639  10.700   6.878  0.1753  1.1337 -0.2211
  328MOL0     H43290   6.723  10.910   6.789 -1.6924  1.6698 -0.8954
  328MOL0     H43291   6.704  10.992   6.945  1.2514  0.1231 -0.7665
  328MOL0     H43292   6.452  10.927   6.924  0.1331 -1.0399 -0.6379
  328MOL0     H43293   6.515  11.060   6.833 -1.2560 -0.9387 -4.3773
  328MOL0     H43294   6.372  10.804   6.537 -1.2271  0.8563  0.3635
  328MOL0     H43295   6.837  10.713   7.217  1.2896 -0.4114  1.7394
  328MOL0     H43296   6.963  10.722   7.419  0.5737  2.4008 -1.2002
  329MOL0     O43297   5.227   6.981   0.238 -0.9069 -0.3721 -0.2119
  329MOL0     C43298   5.227   6.876   0.297  0.6929 -0.2364 -0.4432
  329MOL0     O43299   5.112   6.818   0.345 -0.0136  0.3752  0.5574
  329MOL0     C43300   4.995   6.890   0.347  0.0286  0.1633  0.3435
  329MOL0     C43301   4.886   6.818   0.309  0.8088 -0.2922 -0.3883
  329MOL0     C43302   4.764   6.888   0.300  0.7328  0.9281  0.6277
  329MOL0     C43303   4.748   7.022   0.336  0.6319 -0.4510  0.5264
  329MOL0     O43304   4.635   7.095   0.322  0.1625  0.4646 -0.4356
  329MOL0     C43305   4.566   7.085   0.193  0.1403  0.3392 -0.1957
  329MOL0     C43306   4.659   7.176   0.088  0.2311 -0.8215  0.6694
  329MOL0     C43307   4.600   7.202  -0.054  0.2801  0.6240 -0.6042
  329MOL0     C43308   4.577   7.082  -0.141 -0.0007 -0.5835 -0.1070
  329MOL0     C43309   4.704   7.056  -0.226  0.0392 -1.1739 -0.4397
  329MOL0     C43310   4.704   6.923  -0.310  0.5504 -1.0325 -0.0168
  329MOL0     C43311   4.844   6.883  -0.366  0.2146 -0.6454 -0.1183
  329MOL0     C43312   4.878   6.969  -0.491 -0.1046  0.0178  0.2166
  329MOL0     N43313   5.013   6.926  -0.546  0.5484 -0.3536  0.4520
  329MOL0     C43314   5.047   6.842  -0.648 -0.1518 -0.2599  0.3523
  329MOL0     C43315   5.187   6.849  -0.659  0.5455  0.2120  0.1091
  329MOL0     C43316   5.267   6.783  -0.767  0.5445  0.4143 -1.1058
  329MOL0     C43317   5.298   6.895  -0.874  0.4934 -0.3114  0.1089
  329MOL0     C43318   5.369   6.831  -0.997 -0.9045  0.6312 -0.5865
  329MOL0     C43319   5.285   6.715  -1.068 -0.1454  0.1004  0.5118
  329MOL0     O43320   5.148   6.760  -1.081 -0.6844 -0.5229 -0.6102
  329MOL0     C43321   5.053   6.696  -1.151 -0.6941  0.3860  0.1606
  329MOL0     C43322   5.070   6.565  -1.201 -0.0114 -0.2284 -0.1446
  329MOL0     C43323   4.974   6.512  -1.287  0.5013 -0.5477  0.4144
  329MOL0     C43324   4.853   6.575  -1.311  0.2533 -0.5754  0.1619
  329MOL0     C43325   4.757   6.501  -1.396  0.4723 -0.2104 -0.0470
  329MOL0     O43326   4.638   6.564  -1.424  0.0226 -0.1176 -0.4851
  329MOL0     C43327   4.563   6.533  -1.536  0.6631  0.2854 -0.5546
  329MOL0     C43328   4.616   6.459  -1.647 -0.3215  0.5939  0.2336
  329MOL0     C43329   4.536   6.424  -1.758  0.6133  1.6020  0.5309
  329MOL0     C43330   4.394   6.439  -1.755  0.5632 -0.4598  0.7589
  329MOL0     O43331   4.306   6.405  -1.855 -0.2186 -0.1742  0.4202
  329MOL0     C43332   4.221   6.291  -1.821 -0.5824  0.4090 -0.3679
  329MOL0     C43333   4.125   6.295  -1.702  0.8187 -0.7439 -0.3789
  329MOL0     C43334   4.016   6.190  -1.700 -0.6155 -0.8622  0.4639
  329MOL0     C43335   4.065   6.072  -1.623  0.4519 -0.4945 -0.0930
  329MOL0     C43336   3.987   5.948  -1.663 -0.1743  1.5530 -0.2552
  329MOL0     C43337   4.008   5.826  -1.562 -0.1065 -0.0913  0.2064
  329MOL0     C43338   3.940   5.690  -1.597 -0.8422 -0.4606 -0.2555
  329MOL0     C43339   3.897   5.612  -1.478  0.4009  0.5694  0.9625
  329MOL0    Cl43340   3.871   5.441  -1.550  0.0552 -0.3030  0.2360
  329MOL0     C43341   4.349   6.519  -1.649 -0.2493 -0.0343 -0.3717
  329MOL0     C43342   4.428   6.572  -1.546 -0.1781 -0.0016 -0.0028
  329MOL0     O43343   4.780   6.384  -1.417 -0.6598 -0.2950  0.5116
  329MOL0     C43344   4.829   6.695  -1.251  0.7569  0.5827 -0.7952
  329MOL0     C43345   4.928   6.752  -1.165 -1.4728 -0.5580 -0.2974
  329MOL0     N43346   5.235   6.944  -0.567  0.5795  0.2328  0.5138
  329MOL0     N43347   5.129   6.990  -0.509  0.1948 -0.4751  0.3884
  329MOL0     C43348   4.859   7.088   0.388  0.0303  0.8230  0.5512
  329MOL0     C43349   4.980   7.021   0.393 -1.2772  0.5267 -1.0864
  329MOL0     C43350   5.354   6.805   0.306 -0.5200  0.7056 -0.3884
  329MOL0     C43351   5.368   6.685   0.391 -0.3271  0.0191 -0.1856
  329MOL0     C43352   5.493   6.633   0.408  0.2046  0.4589 -0.3141
  329MOL0     C43353   5.612   6.675   0.342  0.1913  0.5591  0.0489
  329MOL0     O43354   5.739   6.617   0.349  0.4408  0.1505  0.8951
  329MOL0     C43355   5.746   6.489   0.421 -0.6272 -0.3128  0.1050
  329MOL0     C43356   5.898   6.448   0.425  0.4029 -0.1374 -0.0451
  329MOL0     C43357   5.944   6.434   0.283  0.2398  0.2716  0.4020
  329MOL0     C43358   6.100   6.409   0.289  0.0460 -1.0518  0.0822
  329MOL0     C43359   6.147   6.359   0.163  0.0439  0.7994  0.1356
  329MOL0     C43360   6.193   6.316   0.063 -1.3236 -0.4587  0.1272
  329MOL0     C43361   5.590   6.790   0.264 -0.0508 -0.4297 -0.4193
  329MOL0     C43362   5.472   6.851   0.239 -0.4720  1.6438 -0.4934
  329MOL0     H43363   4.880   6.712   0.290  1.0380 -0.4883  0.6006
  329MOL0     H43364   4.670   6.840   0.274  2.1833 -1.4597 -0.5271
  329MOL0     H43365   4.460   7.113   0.198 -1.5665 -3.8400 -4.7263
  329MOL0     H43366   4.559   6.979   0.166  3.0317  0.5436 -2.1505
  329MOL0     H43367   4.754   7.122   0.078 -0.2515 -2.1543  2.6888
  329MOL0     H43368   4.688   7.271   0.135  0.3256 -0.2738 -0.4633
  329MOL0     H43369   4.674   7.269  -0.098  0.8924  2.1619  2.4940
  329MOL0     H43370   4.507   7.260  -0.064 -1.1959 -1.9600 -4.6745
  329MOL0     H43371   4.552   6.988  -0.089  1.0185 -1.9405 -1.9652
  329MOL0     H43372   4.513   7.106  -0.226  0.1365 -0.4906 -0.1823
  329MOL0     H43373   4.783   7.065  -0.151 -0.6433  1.1623  0.0713
  329MOL0     H43374   4.718   7.130  -0.305 -1.3634 -0.0258  0.3280
  329MOL0     H43375   4.632   6.929  -0.392  1.9402  0.6991 -1.1952
  329MOL0     H43376   4.676   6.850  -0.234 -0.7958  2.3585  3.0454
  329MOL0     H43377   4.917   6.887  -0.284 -0.8263  2.2592  0.7903
  329MOL0     H43378   4.851   6.783  -0.410  2.4371  0.3267 -2.1276
  329MOL0     H43379   4.871   7.078  -0.482  0.6301  0.1066 -0.1631
  329MOL0     H43380   4.816   6.940  -0.576  2.2692 -0.0105 -1.6208
  329MOL0     H43381   4.981   6.788  -0.716  0.2742  0.4152 -0.6180
  329MOL0     H43382   5.211   6.701  -0.813 -0.5808 -0.6687  1.9693
  329MOL0     H43383   5.366   6.756  -0.728  0.1404  0.4914  0.0113
  329MOL0     H43384   5.365   6.968  -0.827  2.2935 -1.6677 -0.2146
  329MOL0     H43385   5.204   6.945  -0.898  1.6510  0.9901 -2.1246
  329MOL0     H43386   5.399   6.906  -1.071  1.3969  0.5865  0.2406
  329MOL0     H43387   5.462   6.794  -0.954 -0.1194  4.0468  1.0053
  329MOL0     H43388   5.289   6.618  -1.018 -1.0320  0.7919  1.9827
  329MOL0     H43389   5.319   6.692  -1.169  0.6430 -1.2795  1.0676
  329MOL0     H43390   5.158   6.509  -1.174  0.2025  0.6920  1.1365
  329MOL0     H43391   4.995   6.417  -1.335 -0.2472  1.1267 -3.6692
  329MOL0     H43392   4.722   6.438  -1.645 -0.2443  0.9926  2.1827
  329MOL0     H43393   4.583   6.371  -1.841 -0.4315  1.6771 -0.1263
  329MOL0     H43394   4.284   6.209  -1.784 -3.1165 -0.1201  3.2125
  329MOL0     H43395   4.173   6.268  -1.916  1.5502  0.3560 -1.5141
  329MOL0     H43396   4.074   6.391  -1.707  0.5727 -0.8970 -0.8440
  329MOL0     H43397   4.182   6.297  -1.609  1.2746  2.4961 -0.6106
  329MOL0     H43398   3.983   6.171  -1.803 -0.0351  0.2485  0.0559
  329MOL0     H43399   3.928   6.231  -1.648  0.9808  0.2438  2.4347
  329MOL0     H43400   4.170   6.054  -1.649  0.8468  2.4745 -0.9253
  329MOL0     H43401   4.054   6.095  -1.517 -0.0148  2.0775 -0.6205
  329MOL0     H43402   4.019   5.925  -1.765 -0.8739  0.7374 -0.3050
  329MOL0     H43403   3.880   5.973  -1.663 -0.8750 -1.1773 -0.1814
  329MOL0     H43404   3.990   5.852  -1.457 -0.7686 -0.0307  0.0832
  329MOL0     H43405   4.116   5.808  -1.563 -0.3964 -2.1291  0.9596
  329MOL0     H43406   3.854   5.689  -1.666  0.6646  3.0370 -2.4706
  329MOL0     H43407   4.010   5.628  -1.653  0.4536  1.3722 -0.7496
  329MOL0     H43408   3.803   5.650  -1.436 -0.1624 -2.1181  2.4276
  329MOL0     H43409   3.977   5.613  -1.404  0.6694  1.6843  0.6632
  329MOL0     H43410   4.242   6.536  -1.660  0.4019  3.2812 -3.6081
  329MOL0     H43411   4.382   6.631  -1.468  0.0323 -0.9645  0.8743
  329MOL0     H43412   4.742   6.755  -1.279  0.8002  2.1849  2.1712
  329MOL0     H43413   4.916   6.846  -1.114  1.7136  0.4000 -1.1453
  329MOL0     H43414   4.852   7.193   0.414  1.7471  0.4901  2.6727
  329MOL0     H43415   5.073   7.072   0.419 -0.6174 -1.1590  0.0221
  329MOL0     H43416   5.296   6.643   0.461  1.2831 -0.4632  1.2600
  329MOL0     H43417   5.510   6.558   0.484 -2.9633  1.5321  1.6549
  329MOL0     H43418   5.678   6.409   0.392  1.2089 -1.9916  0.1787
  329MOL0     H43419   5.730   6.500   0.529 -2.0193 -2.6183  0.2134
  329MOL0     H43420   5.962   6.525   0.468  1.3286 -1.0011  0.1647
  329MOL0     H43421   5.907   6.352   0.477 -3.5063 -1.6355 -1.6817
  329MOL0     H43422   5.913   6.522   0.225 -0.0261 -0.8408 -1.2345
  329MOL0     H43423   5.891   6.346   0.244 -0.8446  0.0245  2.2815
  329MOL0     H43424   6.156   6.502   0.304 -1.9680  0.1408  0.6173
  329MOL0     H43425   6.142   6.345   0.367 -0.8977 -2.7098 -0.7280
  329MOL0     H43426   6.248   6.259  -0.009 -0.9687  2.6251 -2.2641
  329MOL0     H43427   5.680   6.826   0.213 -1.2637  2.3093 -0.8017
  329MOL0     H43428   5.470   6.942   0.179  0.8459  1.0504 -1.4818
  330MOL0     O43429   6.412   5.025   7.160  0.3486 -0.6165  1.2672
  330MOL0     C43430   6.445   4.917   7.204 -0.3065 -0.6480  0.1475
  330MOL0     O43431   6.535   4.833   7.144 -0.1686 -0.0817 -0.2045
  330MOL0     C43432   6.603   4.858   7.024 -0.3871  0.3808 -0.8408
  330MOL0     C43433   6.556   4.954   6.929  1.2148 -0.3980 -0.5110
  330MOL0     C43434   6.643   4.992   6.831 -1.0522  0.3112 -0.0597
  330MOL0     C43435   6.767   4.934   6.801  0.1381 -0.2461  0.2076
  330MOL0     O43436   6.845   4.966   6.694 -0.1356  0.3053  0.4391
  330MOL0     C43437   6.877   5.100   6.668 -0.5057 -0.1018  0.6179
  330MOL0     C43438   6.982   5.119   6.564  0.8339 -0.9334  0.0354
  330MOL0     C43439   6.949   5.058   6.432 -0.0951  0.1061 -0.0058
  330MOL0     C43440   7.091   5.045   6.362  0.1311 -0.2899 -0.5431
  330MOL0     C43441   7.069   4.964   6.223  0.1286 -0.5866  0.5583
  330MOL0     C43442   7.197   4.978   6.138 -0.1171  0.0201  0.1468
  330MOL0     C43443   7.325   4.912   6.190  1.0105 -0.7414 -0.2522
  330MOL0     C43444   7.438   4.938   6.087 -0.0566  0.0501  1.0126
  330MOL0     N43445   7.422   4.871   5.949  0.6466  0.1125 -0.8632
  330MOL0     C43446   7.345   4.923   5.847 -0.6769  0.1344 -0.2901
  330MOL0     C43447   7.332   4.818   5.758 -0.3657 -0.3312  1.3906
  330MOL0     C43448   7.254   4.799   5.624  0.4944 -0.0621 -0.1963
  330MOL0     C43449   7.116   4.740   5.633  0.1147 -0.7533 -0.1799
  330MOL0     C43450   7.007   4.826   5.712  0.4328 -0.6359  0.3838
  330MOL0     C43451   6.963   4.936   5.620  0.1904  0.1718  0.5276
  330MOL0     O43452   6.880   5.030   5.697  0.3891  0.7603  0.1170
  330MOL0     C43453   6.829   5.142   5.630 -0.5743  0.2578 -0.0300
  330MOL0     C43454   6.897   5.185   5.519  0.0452  0.6108  0.8265
  330MOL0     C43455   6.845   5.301   5.453  0.5594  0.2209 -1.0579
  330MOL0     C43456   6.731   5.366   5.493  1.6187 -0.0806  0.1907
  330MOL0     C43457   6.688   5.486   5.418 -1.6064  0.4773  0.7166
  330MOL0     O43458   6.563   5.489   5.361  0.8728 -0.3535  0.5518
  330MOL0     C43459   6.513   5.610   5.311 -0.0428 -0.2995 -0.1640
  330MOL0     C43460   6.583   5.676   5.206  0.2430 -0.2162  0.6454
  330MOL0     C43461   6.533   5.800   5.160  0.2076 -0.0939  0.5853
  330MOL0     C43462   6.414   5.861   5.221 -0.9349  0.4445  0.4986
  330MOL0     O43463   6.355   5.967   5.165  0.4371 -0.1557  0.1944
  330MOL0     C43464   6.393   6.027   5.043 -0.1559 -0.2427 -0.1284
  330MOL0     C43465   6.286   6.116   4.991  1.2795 -0.5863  0.2757
  330MOL0     C43466   6.328   6.198   4.866  0.0919 -0.3483 -0.2806
  330MOL0     C43467   6.200   6.257   4.808 -0.0591 -0.1745 -0.5206
  330MOL0     C43468   6.248   6.336   4.685  0.1901  0.1585  1.0442
  330MOL0     C43469   6.127   6.389   4.609 -0.9206 -0.7668  0.6452
  330MOL0     C43470   6.187   6.485   4.499  0.7317 -0.4501 -1.0058
  330MOL0     C43471   6.073   6.531   4.408 -0.0429 -0.0864  0.3734
  330MOL0    Cl43472   5.957   6.640   4.488  0.2049 -0.1438 -0.5910
  330MOL0     C43473   6.350   5.782   5.326  0.3086 -0.0137  0.0365
  330MOL0     C43474   6.393   5.656   5.364  0.1330 -0.7637 -0.0746
  330MOL0     O43475   6.771   5.576   5.412 -0.4443 -0.2766 -0.1876
  330MOL0     C43476   6.661   5.312   5.605 -0.2088 -0.0893  1.2646
  330MOL0     C43477   6.705   5.200   5.664 -0.0015  0.2409  0.2297
  330MOL0     N43478   7.405   4.711   5.811 -0.2715  0.4033  0.1211
  330MOL0     N43479   7.465   4.747   5.918 -0.4762  0.2650 -0.0368
  330MOL0     C43480   6.805   4.828   6.886 -0.2967  0.0358 -0.7107
  330MOL0     C43481   6.722   4.789   6.999  0.5584  0.7112  0.5877
  330MOL0     C43482   6.377   4.873   7.328 -0.5605 -0.6420 -0.9890
  330MOL0     C43483   6.291   4.949   7.412  0.3161  1.0804  0.6354
  330MOL0     C43484   6.217   4.889   7.518 -0.1156  0.1625  0.2978
  330MOL0     C43485   6.255   4.759   7.558  0.7626  0.8680 -0.1469
  330MOL0     O43486   6.199   4.723   7.681  0.2007  1.3605  0.3345
  330MOL0     C43487   6.170   4.576   7.707 -0.3450  0.4118 -0.4384
  330MOL0     C43488   6.040   4.560   7.789  0.3469 -0.8142  0.3400
  330MOL0     C43489   5.932   4.606   7.697 -0.1031  0.0495 -0.1132
  330MOL0     C43490   5.892   4.749   7.699  0.9482 -0.8315  0.9300
  330MOL0     C43491   5.774   4.776   7.798 -0.5553  1.2377  0.0481
  330MOL0     C43492   5.673   4.769   7.863 -0.5563  0.1230  0.6983
  330MOL0     C43493   6.359   4.688   7.494 -0.0839 -0.8426 -0.0568
  330MOL0     C43494   6.413   4.749   7.380 -0.3391 -1.0752 -0.2705
  330MOL0     H43495   6.466   5.015   6.926  1.9460  0.6710 -1.3035
  330MOL0     H43496   6.610   5.072   6.766  0.7536  1.1084 -0.0274
  330MOL0     H43497   6.905   5.150   6.761 -3.2663 -1.6893  2.4635
  330MOL0     H43498   6.782   5.139   6.631  0.4423 -1.0118 -3.2757
  330MOL0     H43499   7.073   5.076   6.604 -0.2622 -3.1842  0.2816
  330MOL0     H43500   6.990   5.226   6.545  0.2352 -0.8357  0.3124
  330MOL0     H43501   6.882   5.111   6.363 -0.4515 -0.7757 -0.3548
  330MOL0     H43502   6.900   4.961   6.446 -0.3615  0.2679  0.2093
  330MOL0     H43503   7.128   5.145   6.340  0.2619  0.2439  1.8398
  330MOL0     H43504   7.163   4.996   6.429  1.2627  1.4439 -0.4428
  330MOL0     H43505   6.992   5.019   6.168 -1.2728 -2.0914  0.9465
  330MOL0     H43506   7.039   4.860   6.232  1.2610 -1.0246 -0.4076
  330MOL0     H43507   7.205   5.081   6.102 -2.4693  0.2377  0.0691
  330MOL0     H43508   7.166   4.920   6.051  1.8185  0.4857 -0.9007
  330MOL0     H43509   7.333   4.964   6.286 -4.5826 -2.7732  1.7491
  330MOL0     H43510   7.315   4.805   6.214 -0.0454 -0.5178  0.3498
  330MOL0     H43511   7.533   4.896   6.120  1.0507  1.2261 -0.5249
  330MOL0     H43512   7.444   5.046   6.071 -6.0327  0.2339 -3.8536
  330MOL0     H43513   7.298   5.020   5.836 -1.3838 -0.0761  0.7268
  330MOL0     H43514   7.314   4.726   5.569 -1.8164 -2.3985  0.1600
  330MOL0     H43515   7.266   4.891   5.566  5.1796  0.6573  1.5114
  330MOL0     H43516   7.127   4.638   5.669  0.8778 -1.9944 -3.5587
  330MOL0     H43517   7.080   4.727   5.531 -0.6137 -1.6390  0.1810
  330MOL0     H43518   6.924   4.760   5.740  0.2291 -0.7694 -0.4952
  330MOL0     H43519   7.047   4.866   5.806  1.6948  2.1282 -1.2270
  330MOL0     H43520   6.898   4.880   5.552  0.3317 -2.3230  2.3142
  330MOL0     H43521   7.059   4.970   5.580  1.1419  0.4032  2.8470
  330MOL0     H43522   6.981   5.136   5.471  0.4365  2.1493 -0.1100
  330MOL0     H43523   6.886   5.338   5.359 -1.9588 -0.0400 -2.3397
  330MOL0     H43524   6.673   5.627   5.171 -1.2067 -3.6301  1.2148
  330MOL0     H43525   6.576   5.866   5.084 -1.4801  1.7206  1.1152
  330MOL0     H43526   6.406   5.957   4.959  0.4643 -0.5849  0.2404
  330MOL0     H43527   6.489   6.075   5.064  0.7710 -2.4674  1.1294
  330MOL0     H43528   6.263   6.178   5.078 -0.7402  1.1818 -1.3940
  330MOL0     H43529   6.194   6.068   4.956  0.3184  2.0929 -1.1943
  330MOL0     H43530   6.366   6.121   4.799  0.1649  1.5953 -2.5906
  330MOL0     H43531   6.409   6.269   4.884 -2.3327  2.3719  0.8159
  330MOL0     H43532   6.135   6.179   4.767  1.2880 -0.5931 -1.9926
  330MOL0     H43533   6.158   6.323   4.883  3.4013 -0.1449  1.6369
  330MOL0     H43534   6.310   6.282   4.613  1.3176  3.0259 -0.2916
  330MOL0     H43535   6.316   6.409   4.729  0.2342 -0.2014  1.5887
  330MOL0     H43536   6.064   6.443   4.680  2.3212 -0.3972  3.5307
  330MOL0     H43537   6.082   6.299   4.567 -0.0665  0.0002 -2.1145
  330MOL0     H43538   6.242   6.566   4.549  1.0248 -0.6397 -1.0207
  330MOL0     H43539   6.265   6.439   4.437  0.3284 -1.0597 -1.0641
  330MOL0     H43540   6.021   6.446   4.364  0.9255 -0.4663 -0.0742
  330MOL0     H43541   6.119   6.587   4.326 -1.6594  0.0640 -0.4766
  330MOL0     H43542   6.261   5.828   5.368  1.3481  2.6088 -0.4171
  330MOL0     H43543   6.344   5.589   5.433  1.5571 -1.8487 -0.0852
  330MOL0     H43544   6.577   5.368   5.644 -1.2164 -0.9214  0.3453
  330MOL0     H43545   6.645   5.145   5.737  1.9659  0.1216  1.8484
  330MOL0     H43546   6.888   4.759   6.871 -0.8414 -1.7543  3.1612
  330MOL0     H43547   6.760   4.717   7.070 -1.5287 -1.3653 -0.2383
  330MOL0     H43548   6.257   5.049   7.388  0.8195  3.3193  7.1823
  330MOL0     H43549   6.144   4.947   7.574  0.6989  1.2233  0.2899
  330MOL0     H43550   6.258   4.535   7.758 -1.6708 -0.8204  0.9172
  330MOL0     H43551   6.152   4.512   7.620  0.2933 -1.6582  0.8897
  330MOL0     H43552   6.024   4.459   7.827 -0.0688 -1.5603 -1.6948
  330MOL0     H43553   6.046   4.621   7.880 -1.2698  0.0770 -0.1180
  330MOL0     H43554   5.843   4.552   7.731 -0.1962  0.5855  0.5179
  330MOL0     H43555   5.937   4.577   7.592 -1.8890 -3.0908  0.5318
  330MOL0     H43556   5.974   4.808   7.740  1.6229 -1.5713  0.6576
  330MOL0     H43557   5.874   4.775   7.594  2.3376  1.1977  1.1558
  330MOL0     H43558   5.574   4.767   7.904 -0.9490 -2.9256 -0.1077
  330MOL0     H43559   6.383   4.586   7.522 -3.2107 -0.8818  3.3163
  330MOL0     H43560   6.495   4.692   7.338  1.9470  1.4391  0.5639
  331MOL0     O43561   2.937   6.520   3.522  0.1026 -0.3399  0.0862
  331MOL0     C43562   2.817   6.519   3.547 -0.2470 -0.1308 -0.6009
  331MOL0     O43563   2.756   6.501   3.670  0.4136  0.7589  0.5656
  331MOL0     C43564   2.812   6.556   3.769 -0.7237 -0.1819 -0.2979
  331MOL0     C43565   2.763   6.517   3.891  0.4873  0.8290  0.3915
  331MOL0     C43566   2.811   6.584   4.009  0.0827 -0.4874  0.1847
  331MOL0     C43567   2.910   6.684   3.997  1.1728 -0.1395  1.1633
  331MOL0     O43568   2.954   6.747   4.109 -0.7756  0.1025 -0.2415
  331MOL0     C43569   3.004   6.655   4.214  0.2760 -0.2861  1.0948
  331MOL0     C43570   3.129   6.728   4.261 -0.4752 -0.4489 -1.1047
  331MOL0     C43571   3.174   6.670   4.398 -0.4112  0.4856  0.3781
  331MOL0     C43572   3.289   6.743   4.482  0.0175  0.4265  0.3302
  331MOL0     C43573   3.284   6.725   4.632 -0.3467  0.4136 -0.2249
  331MOL0     C43574   3.308   6.584   4.687  0.1639  0.5515 -0.2657
  331MOL0     C43575   3.264   6.576   4.831  0.0051 -0.5106  0.7315
  331MOL0     C43576   3.340   6.464   4.900  0.5825 -0.0288 -0.2581
  331MOL0     N43577   3.262   6.339   4.861  0.7270 -0.5897 -0.2432
  331MOL0     C43578   3.299   6.257   4.760 -0.1678 -0.3836 -0.5360
  331MOL0     C43579   3.210   6.157   4.758  1.6693  0.0918  0.4471
  331MOL0     C43580   3.205   6.047   4.656 -0.2167  0.0136 -0.3006
  331MOL0     C43581   3.151   6.096   4.526  0.5614  0.3243  0.1908
  331MOL0     C43582   3.008   6.151   4.538 -0.2254  0.2471 -0.4594
  331MOL0     C43583   2.960   6.229   4.408 -0.3184  0.7268  0.4043
  331MOL0     O43584   2.917   6.118   4.328  0.2635 -0.2842 -0.4240
  331MOL0     C43585   2.938   6.130   4.191 -0.1610  0.0045  0.0443
  331MOL0     C43586   2.965   6.249   4.120  0.7757  0.2147 -0.4025
  331MOL0     C43587   2.995   6.258   3.988 -0.1122 -0.2423  0.0959
  331MOL0     C43588   3.000   6.134   3.919 -0.2168  0.0716 -0.5657
  331MOL0     C43589   3.033   6.134   3.781 -0.1036 -0.3202  0.3249
  331MOL0     O43590   3.007   6.024   3.710 -0.3307 -0.2750  0.3578
  331MOL0     C43591   3.043   6.011   3.584 -0.0764 -1.1046  0.3347
  331MOL0     C43592   3.104   5.886   3.546  0.2451 -0.7633  0.0443
  331MOL0     C43593   3.136   5.853   3.416  0.5823 -0.1331  0.7598
  331MOL0     C43594   3.100   5.942   3.314  0.5076 -0.5311 -0.2690
  331MOL0     O43595   3.092   5.907   3.182 -0.6177  0.1283  0.3520
  331MOL0     C43596   3.148   5.773   3.134  1.0369 -0.1519  0.0630
  331MOL0     C43597   3.293   5.754   3.125 -0.1897  0.5013  0.2102
  331MOL0     C43598   3.321   5.627   3.039  0.3019  0.1424  0.5933
  331MOL0     C43599   3.474   5.592   3.048 -0.1970  0.0017 -0.4006
  331MOL0     C43600   3.521   5.504   2.930 -0.3091  1.0006  0.3621
  331MOL0     C43601   3.669   5.476   2.939  0.4090  0.4886 -0.4596
  331MOL0     C43602   3.726   5.396   2.816  0.3308 -0.5342 -0.2851
  331MOL0     C43603   3.875   5.405   2.791  0.3404  0.1318 -1.3982
  331MOL0    Cl43604   3.955   5.304   2.928 -0.2444 -0.0295  0.3217
  331MOL0     C43605   3.027   6.055   3.346 -0.2726  1.0028  0.2861
  331MOL0     C43606   2.995   6.092   3.478 -0.9049 -0.1873  0.9270
  331MOL0     O43607   3.079   6.238   3.734 -0.9914 -0.0543  0.0250
  331MOL0     C43608   2.970   6.017   3.984 -0.0807 -0.2393 -0.6341
  331MOL0     C43609   2.938   6.021   4.119 -0.0107  0.5314  0.0374
  331MOL0     N43610   3.134   6.179   4.869 -0.0099  0.6709  0.2905
  331MOL0     N43611   3.165   6.282   4.931  0.7607  0.8481  0.2254
  331MOL0     C43612   2.959   6.720   3.873 -0.2366 -1.4611  0.4202
  331MOL0     C43613   2.916   6.655   3.765  0.2110 -0.6683 -0.2569
  331MOL0     C43614   2.735   6.502   3.419 -0.9639  0.4122  0.4291
  331MOL0     C43615   2.596   6.453   3.427  0.1163  0.6744  0.0930
  331MOL0     C43616   2.521   6.447   3.304  0.4659  0.1559 -0.4770
  331MOL0     C43617   2.581   6.470   3.177  0.1528 -0.0467  0.1362
  331MOL0     O43618   2.524   6.502   3.059 -0.1295 -0.4623  0.2962
  331MOL0     C43619   2.382   6.512   3.058 -0.4471 -0.0645  0.1652
  331MOL0     C43620   2.348   6.565   2.915 -0.5617 -0.8570  0.3561
  331MOL0     C43621   2.331   6.450   2.820 -0.0234  0.0452  0.7360
  331MOL0     C43622   2.282   6.487   2.677  0.0367 -0.2739 -0.2535
  331MOL0     C43623   2.157   6.568   2.679 -0.5136 -0.1999 -0.4904
  331MOL0     C43624   2.053   6.637   2.663 -1.0246 -0.4978  0.4102
  331MOL0     C43625   2.712   6.512   3.173 -0.5796  1.6361 -0.6589
  331MOL0     C43626   2.791   6.522   3.289 -0.3500 -0.8656  1.0397
  331MOL0     H43627   2.678   6.450   3.891 -0.1841  1.6011 -1.5747
  331MOL0     H43628   2.764   6.551   4.101 -0.5057 -1.3180 -0.3937
  331MOL0     H43629   3.037   6.555   4.185 -1.0057 -0.9263  1.7467
  331MOL0     H43630   2.927   6.646   4.291 -2.3833 -2.4716 -1.6078
  331MOL0     H43631   3.101   6.833   4.274 -1.8616 -0.9526  0.3900
  331MOL0     H43632   3.202   6.707   4.183 -1.2113  1.5773 -2.4235
  331MOL0     H43633   3.207   6.568   4.379 -0.7453  0.7825 -2.1544
  331MOL0     H43634   3.087   6.674   4.464  0.9246  0.3013  2.2565
  331MOL0     H43635   3.389   6.713   4.449 -0.5792 -0.3501 -0.8421
  331MOL0     H43636   3.271   6.850   4.467 -0.3612  0.3892  0.5145
  331MOL0     H43637   3.191   6.768   4.670  1.2661  3.2390  0.8031
  331MOL0     H43638   3.364   6.785   4.677  0.3650 -1.2968  0.8907
  331MOL0     H43639   3.415   6.571   4.672  0.7030  1.0030  2.5576
  331MOL0     H43640   3.250   6.504   4.639 -0.8275  0.5374  0.8895
  331MOL0     H43641   3.293   6.665   4.887 -0.0563 -0.7761  1.1864
  331MOL0     H43642   3.157   6.556   4.830 -0.7786  3.0853 -1.1426
  331MOL0     H43643   3.319   6.473   5.007 -1.0484 -1.4180 -0.4191
  331MOL0     H43644   3.444   6.456   4.866  1.5899  0.9511  2.3653
  331MOL0     H43645   3.381   6.273   4.690  0.5795  0.0789  0.4245
  331MOL0     H43646   3.140   5.969   4.697  1.8513 -1.8802 -0.4275
  331MOL0     H43647   3.299   5.995   4.638  0.7515  2.0812 -1.6957
  331MOL0     H43648   3.156   6.013   4.455 -0.6314 -0.7192  1.2813
  331MOL0     H43649   3.213   6.166   4.469 -1.3747  0.5272 -1.8080
  331MOL0     H43650   2.940   6.067   4.551 -0.7628  0.4336 -1.8634
  331MOL0     H43651   2.988   6.217   4.623 -1.4826 -2.2769  1.3262
  331MOL0     H43652   3.044   6.279   4.361 -2.1081  1.7094 -1.9560
  331MOL0     H43653   2.889   6.311   4.421 -0.0248  1.8306 -3.6460
  331MOL0     H43654   2.970   6.337   4.183  1.8570 -1.0958  1.4766
  331MOL0     H43655   3.029   6.348   3.937  0.3373 -0.3877  0.1320
  331MOL0     H43656   3.125   5.828   3.635  3.3273  4.4257  3.2605
  331MOL0     H43657   3.174   5.754   3.394 -0.6824 -0.3451 -0.6531
  331MOL0     H43658   3.101   5.763   3.036  1.2367 -0.3895 -0.0067
  331MOL0     H43659   3.101   5.693   3.191  0.6354 -0.9227 -1.3008
  331MOL0     H43660   3.352   5.747   3.217 -1.4969  0.2285  1.0425
  331MOL0     H43661   3.342   5.836   3.072 -1.8074  0.9620 -0.6385
  331MOL0     H43662   3.286   5.651   2.938 -1.4379  0.1967  1.1594
  331MOL0     H43663   3.269   5.538   3.075  3.9394 -2.7917 -0.8175
  331MOL0     H43664   3.523   5.689   3.055 -1.5306  0.5867  2.8941
  331MOL0     H43665   3.489   5.541   3.144 -0.4879  0.3804 -0.1488
  331MOL0     H43666   3.493   5.549   2.835 -0.0737  0.0514 -0.1687
  331MOL0     H43667   3.480   5.403   2.945  0.4752  0.5624 -0.3959
  331MOL0     H43668   3.680   5.428   3.036 -2.7174  3.5909  1.6509
  331MOL0     H43669   3.727   5.567   2.957  0.3917  0.4519 -0.2240
  331MOL0     H43670   3.697   5.291   2.819  1.2773 -0.7939  2.3720
  331MOL0     H43671   3.664   5.434   2.734 -0.3321 -2.2669 -0.6180
  331MOL0     H43672   3.906   5.509   2.773 -3.3947  1.2585 -2.0958
  331MOL0     H43673   3.903   5.360   2.696  1.7942 -0.7970 -0.5816
  331MOL0     H43674   2.985   6.109   3.262  0.3527 -1.5244 -1.7966
  331MOL0     H43675   2.945   6.187   3.493  0.0022  0.8036 -1.7552
  331MOL0     H43676   2.976   5.923   3.930 -0.6602  1.0301 -3.0453
  331MOL0     H43677   2.921   5.922   4.162 -0.3559 -1.3842 -4.0512
  331MOL0     H43678   3.040   6.790   3.856 -0.6570 -1.5197 -2.3270
  331MOL0     H43679   2.951   6.696   3.671 -2.3106  2.5561  0.0227
  331MOL0     H43680   2.548   6.441   3.524  2.7164  4.2127  2.0357
  331MOL0     H43681   2.420   6.410   3.293 -0.0827  1.6296 -0.5217
  331MOL0     H43682   2.367   6.596   3.127  0.1422  0.3163 -0.1591
  331MOL0     H43683   2.318   6.431   3.093 -0.2440 -0.5990 -0.6799
  331MOL0     H43684   2.261   6.630   2.925 -0.6438 -1.0580  0.9765
  331MOL0     H43685   2.431   6.624   2.874 -0.9129 -1.5967 -1.5633
  331MOL0     H43686   2.266   6.368   2.853  0.8310 -0.4943  1.1212
  331MOL0     H43687   2.426   6.396   2.825  0.8753  1.6641  4.6976
  331MOL0     H43688   2.362   6.524   2.612  1.1334 -1.8104  0.1894
  331MOL0     H43689   2.257   6.392   2.630 -1.2031 -1.3680  2.4248
  331MOL0     H43690   1.951   6.672   2.664 -0.4508  1.2987  2.0941
  331MOL0     H43691   2.762   6.548   3.084 -0.7479 -0.3657 -1.6119
  331MOL0     H43692   2.891   6.560   3.268 -0.1223 -1.2775  1.3398
  332MOL0     O43693   0.857   8.467   6.169  0.0064 -0.4890 -0.4593
  332MOL0     C43694   0.902   8.526   6.066 -0.4603  0.3904  0.0169
  332MOL0     O43695   1.041   8.536   6.039 -0.5318  0.1120 -0.7391
  332MOL0     C43696   1.118   8.512   6.150  0.0489 -0.2381 -0.0143
  332MOL0     C43697   1.220   8.414   6.149  0.8498  0.0095  0.5691
  332MOL0     C43698   1.313   8.398   6.260  0.0679 -0.2729 -0.0737
  332MOL0     C43699   1.299   8.473   6.377  0.3318  0.3437  0.7437
  332MOL0     O43700   1.378   8.449   6.497 -0.2274  0.2341  0.0477
  332MOL0     C43701   1.331   8.513   6.617 -0.2342  0.0612 -0.6250
  332MOL0     C43702   1.390   8.464   6.747  0.3348 -0.0249 -0.5603
  332MOL0     C43703   1.342   8.329   6.807  0.1473  0.4660  0.0024
  332MOL0     C43704   1.430   8.298   6.936  0.2682  0.5087  0.0027
  332MOL0     C43705   1.375   8.370   7.060 -0.8709 -0.6604 -0.1511
  332MOL0     C43706   1.445   8.332   7.198  0.4162 -0.2899 -0.6761
  332MOL0     C43707   1.596   8.349   7.188 -0.9454  0.3777 -0.0198
  332MOL0     C43708   1.638   8.494   7.147 -0.2786 -0.6506 -0.0897
  332MOL0     N43709   1.628   8.586   7.265 -0.5126  0.3350  0.4888
  332MOL0     C43710   1.718   8.569   7.373  0.0698  0.2465 -0.6123
  332MOL0     C43711   1.665   8.648   7.472 -0.0436 -0.2234 -0.6802
  332MOL0     C43712   1.734   8.674   7.607  0.7207  0.0130 -0.5453
  332MOL0     C43713   1.661   8.582   7.711  1.0230 -0.7027 -0.6791
  332MOL0     C43714   1.680   8.640   7.859 -0.0233  0.5949 -0.4847
  332MOL0     C43715   1.593   8.578   7.967 -0.6452  0.1834 -0.1728
  332MOL0     O43716   1.624   8.436   7.988 -0.0293  0.6838  0.8133
  332MOL0     C43717   1.594   8.369   8.100  0.7021  0.3467 -0.2241
  332MOL0     C43718   1.496   8.412   8.190 -0.8472  0.0408  0.8674
  332MOL0     C43719   1.455   8.338   8.297  0.0526  0.2585 -0.0334
  332MOL0     C43720   1.509   8.210   8.328  0.1980 -0.1613  0.5102
  332MOL0     C43721   1.462   8.124   8.441  0.6496  0.1797  0.1903
  332MOL0     O43722   1.352   8.175   8.513 -0.4983  0.6491  0.4385
  332MOL0     C43723   1.296   8.104   8.618 -0.1673 -0.1740  0.1649
  332MOL0     C43724   1.289   7.969   8.622 -0.1704  0.3482 -1.1994
  332MOL0     C43725   1.240   7.907   8.737  0.2084  0.3972 -0.3227
  332MOL0     C43726   1.188   7.980   8.850  0.8004 -0.2935 -0.5158
  332MOL0     O43727   1.154   7.918   8.963  0.0598  0.1794  0.3094
  332MOL0     C43728   1.122   7.775   8.971  0.3400  0.4363  0.8762
  332MOL0     C43729   0.981   7.756   8.943  0.1989 -0.3967  1.5597
  332MOL0     C43730   0.924   7.618   8.954 -1.5520 -0.7398 -0.3181
  332MOL0     C43731   0.795   7.587   8.860 -0.7428 -0.0051 -0.4772
  332MOL0     C43732   0.765   7.449   8.902 -0.6096  0.0726  0.7461
  332MOL0     C43733   0.651   7.386   8.828  0.7876  0.4654 -0.6793
  332MOL0     C43734   0.687   7.379   8.678  0.1677 -0.4501 -0.1575
  332MOL0     C43735   0.676   7.236   8.629 -1.1290  0.1684  1.3349
  332MOL0    Cl43736   0.516   7.157   8.662 -0.1103 -0.0601  0.5907
  332MOL0     C43737   1.179   8.121   8.836  0.0641  0.2039 -0.1225
  332MOL0     C43738   1.243   8.189   8.724  0.8860  0.5060  0.4279
  332MOL0     O43739   1.513   8.016   8.452  0.2769  0.2728 -0.7272
  332MOL0     C43740   1.611   8.166   8.240  0.8468 -0.5987 -0.4009
  332MOL0     C43741   1.659   8.246   8.133 -0.0811  0.0688 -0.9007
  332MOL0     N43742   1.558   8.717   7.421 -0.6497 -1.2715 -0.3266
  332MOL0     N43743   1.525   8.676   7.304 -0.5300 -0.4036 -0.0157
  332MOL0     C43744   1.194   8.569   6.370 -0.7867  0.0380 -0.4467
  332MOL0     C43745   1.113   8.592   6.262  0.0832 -0.3805 -1.1751
  332MOL0     C43746   0.806   8.596   5.973  0.0605  0.2164  0.2878
  332MOL0     C43747   0.666   8.598   6.004 -0.5927  0.2831  0.0530
  332MOL0     C43748   0.577   8.651   5.907  0.7058 -0.1091 -0.7358
  332MOL0     C43749   0.620   8.718   5.793  0.2564  1.3226  0.2694
  332MOL0     O43750   0.524   8.773   5.710 -0.5011  0.6772  0.1204
  332MOL0     C43751   0.546   8.891   5.641  0.1037 -0.0077  0.8025
  332MOL0     C43752   0.436   8.922   5.527 -0.3738  0.6316  0.3213
  332MOL0     C43753   0.452   8.819   5.406 -0.3460  0.0602 -0.3415
  332MOL0     C43754   0.411   8.863   5.263 -0.1172  0.0145  0.0741
  332MOL0     C43755   0.274   8.908   5.260  0.6634 -0.9357  0.1741
  332MOL0     C43756   0.158   8.937   5.268 -0.1846 -0.4019  0.6135
  332MOL0     C43757   0.761   8.715   5.765  0.4722  0.3900  0.2435
  332MOL0     C43758   0.849   8.654   5.854 -0.8133  0.3320  0.8952
  332MOL0     H43759   1.249   8.367   6.056  2.9038  0.3180  0.9998
  332MOL0     H43760   1.395   8.330   6.242 -0.8143 -1.1473 -0.8965
  332MOL0     H43761   1.222   8.514   6.626 -0.1552  1.2710  0.6627
  332MOL0     H43762   1.354   8.620   6.611 -1.2103  0.2651 -0.8199
  332MOL0     H43763   1.375   8.547   6.817  1.1014  1.3811 -1.9838
  332MOL0     H43764   1.497   8.449   6.731  0.3957 -0.8966  0.5500
  332MOL0     H43765   1.365   8.260   6.725  3.0540  0.9652  0.2799
  332MOL0     H43766   1.234   8.320   6.813 -0.1707 -1.3401 -4.4044
  332MOL0     H43767   1.427   8.191   6.958 -1.0501  0.6579  0.6540
  332MOL0     H43768   1.536   8.324   6.927  0.3515 -0.0332 -0.6493
  332MOL0     H43769   1.267   8.358   7.075 -1.3906  2.8804 -0.0344
  332MOL0     H43770   1.362   8.478   7.043 -1.5852 -0.9641 -1.6377
  332MOL0     H43771   1.414   8.229   7.219  2.6053 -0.6791  0.9841
  332MOL0     H43772   1.398   8.395   7.274  0.4594  0.0955 -0.9648
  332MOL0     H43773   1.637   8.323   7.286  1.5835 -0.1694 -1.1301
  332MOL0     H43774   1.651   8.280   7.123 -1.0098  0.6172 -0.3297
  332MOL0     H43775   1.572   8.534   7.070  0.8352  0.2020 -0.6161
  332MOL0     H43776   1.735   8.485   7.097 -0.8360  0.5675 -1.4546
  332MOL0     H43777   1.802   8.501   7.372 -0.8643 -1.0024  0.9368
  332MOL0     H43778   1.722   8.779   7.635  2.4128 -0.2052  1.1823
  332MOL0     H43779   1.841   8.655   7.599  0.4583 -1.5783 -0.6114
  332MOL0     H43780   1.685   8.476   7.703  0.5967 -1.2747  3.5226
  332MOL0     H43781   1.553   8.594   7.692  1.1509  0.5474 -0.7442
  332MOL0     H43782   1.785   8.618   7.882  0.9687  1.1300 -3.9081
  332MOL0     H43783   1.662   8.748   7.864 -0.6499  0.4699  0.1318
  332MOL0     H43784   1.485   8.585   7.947 -1.1854  0.1761  2.3735
  332MOL0     H43785   1.597   8.625   8.066 -3.9054 -1.3417  0.8385
  332MOL0     H43786   1.463   8.512   8.164  2.9799  1.5153  0.9996
  332MOL0     H43787   1.394   8.387   8.372 -0.7133  0.9430 -1.0835
  332MOL0     H43788   1.327   7.901   8.546  1.6208 -3.1765  2.4651
  332MOL0     H43789   1.238   7.800   8.716  1.8030 -0.0411  1.5132
  332MOL0     H43790   1.143   7.737   9.071 -0.5236  0.9235  1.2567
  332MOL0     H43791   1.191   7.716   8.911  0.4689 -0.9244  2.2819
  332MOL0     H43792   0.979   7.789   8.838  0.8246  0.8178  1.9150
  332MOL0     H43793   0.911   7.812   9.006 -1.9519 -0.4279 -0.6394
  332MOL0     H43794   0.907   7.598   9.060 -0.6232 -1.4379 -0.2893
  332MOL0     H43795   0.999   7.541   8.934 -1.7789 -0.8482 -0.7664
  332MOL0     H43796   0.711   7.652   8.885  1.3664  1.3407  4.3063
  332MOL0     H43797   0.823   7.599   8.755  1.1596 -0.2736 -0.0388
  332MOL0     H43798   0.760   7.419   9.007 -0.2471 -1.0951  0.4381
  332MOL0     H43799   0.858   7.402   8.867 -0.0813  1.8593 -0.4429
  332MOL0     H43800   0.562   7.449   8.835 -1.1608 -2.1311 -0.7963
  332MOL0     H43801   0.621   7.292   8.875 -1.2690  0.4514 -1.8756
  332MOL0     H43802   0.613   7.441   8.628  0.5846 -0.3327 -0.6383
  332MOL0     H43803   0.783   7.422   8.647 -2.1200  3.5348 -2.4696
  332MOL0     H43804   0.754   7.169   8.668  0.3147  0.7511 -0.4093
  332MOL0     H43805   0.695   7.239   8.522 -0.2147  1.8737  1.5088
  332MOL0     H43806   1.151   8.175   8.925  4.3090 -1.2119  2.3255
  332MOL0     H43807   1.228   8.294   8.698  1.5469  0.9218  1.6491
  332MOL0     H43808   1.651   8.066   8.258  0.9767 -0.0221  3.2359
  332MOL0     H43809   1.729   8.194   8.068  0.5300  0.8630 -0.8852
  332MOL0     H43810   1.175   8.622   6.463  1.2087  2.8996 -1.5319
  332MOL0     H43811   1.027   8.657   6.257 -0.7767 -1.5025 -1.3847
  332MOL0     H43812   0.634   8.531   6.084 -1.8850  0.2260 -0.4817
  332MOL0     H43813   0.469   8.640   5.912  0.5994  1.0793  3.4593
  332MOL0     H43814   0.647   8.888   5.599 -0.5038 -1.9060 -0.6750
  332MOL0     H43815   0.542   8.973   5.714 -3.6405  0.1564  0.6326
  332MOL0     H43816   0.338   8.912   5.574 -1.2324 -0.8655 -1.6274
  332MOL0     H43817   0.444   9.027   5.498 -2.8443 -0.2365 -4.5525
  332MOL0     H43818   0.408   8.723   5.431  0.9757 -0.0869  1.6077
  332MOL0     H43819   0.560   8.799   5.399 -1.0477 -4.1473 -2.3749
  332MOL0     H43820   0.480   8.942   5.231 -1.0013  1.0315  0.6048
  332MOL0     H43821   0.422   8.774   5.200  3.0559 -0.4319  1.0682
  332MOL0     H43822   0.052   8.954   5.259 -0.1870  0.2184  1.6373
  332MOL0     H43823   0.794   8.768   5.676 -1.1351  0.4362 -0.3607
  332MOL0     H43824   0.953   8.660   5.824 -0.0455 -0.8558  3.1232
  333MOL0     O43825   4.199   0.992   0.799  0.1229  0.2059 -0.0287
  333MOL0     C43826   4.193   1.040   0.917 -0.2250 -0.1457 -0.4494
  333MOL0     O43827   4.090   1.026   1.006  0.7095  0.2143 -0.4034
  333MOL0     C43828   3.998   0.928   0.997 -0.3560 -0.3758  0.5031
  333MOL0     C43829   3.862   0.961   1.018  0.5297  0.7791  0.7277
  333MOL0     C43830   3.765   0.862   0.992  0.3887  0.2521 -0.4144
  333MOL0     C43831   3.795   0.732   0.945 -0.0599  0.5472  0.0941
  333MOL0     O43832   3.702   0.639   0.904  0.6601  0.2117 -0.6550
  333MOL0     C43833   3.734   0.500   0.868  0.3942 -0.5154 -0.4050
  333MOL0     C43834   3.605   0.408   0.846 -0.5869 -0.8185  0.4504
  333MOL0     C43835   3.535   0.425   0.718  1.0240  0.6424 -0.5604
  333MOL0     C43836   3.587   0.357   0.591  0.0856 -0.1965 -1.0375
  333MOL0     C43837   3.491   0.351   0.477  0.3480 -0.2329  0.1857
  333MOL0     C43838   3.471   0.475   0.390  0.5338  0.3241 -0.5017
  333MOL0     C43839   3.437   0.429   0.245 -0.6897 -0.4331 -0.3669
  333MOL0     C43840   3.492   0.522   0.129  0.2871 -0.2082  0.2865
  333MOL0     N43841   3.504   0.452  -0.003  0.9381 -0.7582  0.0738
  333MOL0     C43842   3.413   0.371  -0.046 -0.3531  1.0525  0.2224
  333MOL0     C43843   3.433   0.350  -0.176 -0.4368  0.7303  0.1431
  333MOL0     C43844   3.372   0.261  -0.270 -0.1776  0.1983  0.4944
  333MOL0     C43845   3.460   0.151  -0.336 -0.3902  0.1688  0.2469
  333MOL0     C43846   3.423   0.100  -0.477 -0.0442 -0.6648 -0.3504
  333MOL0     C43847   3.297   0.020  -0.471 -0.3615 -0.6226 -0.1292
  333MOL0     O43848   3.327  -0.093  -0.393  0.1416  0.5486 -0.1190
  333MOL0     C43849   3.278  -0.210  -0.426  0.2588 -0.0218 -0.5028
  333MOL0     C43850   3.362  -0.322  -0.415  0.5967 -1.1657  0.6391
  333MOL0     C43851   3.325  -0.450  -0.448  0.0057  0.3395 -0.0283
  333MOL0     C43852   3.188  -0.479  -0.497  0.2542 -0.3395  0.1640
  333MOL0     C43853   3.152  -0.618  -0.510 -1.2188  0.4597 -0.0349
  333MOL0     O43854   3.243  -0.715  -0.495  0.3401  0.4164 -0.0006
  333MOL0     C43855   3.203  -0.849  -0.486 -0.8312  0.1769 -0.3875
  333MOL0     C43856   3.245  -0.938  -0.587  0.5457 -0.0616 -0.7636
  333MOL0     C43857   3.205  -1.076  -0.581 -0.6699  1.0310 -0.6121
  333MOL0     C43858   3.135  -1.122  -0.472 -0.4542  0.8466 -0.4743
  333MOL0     O43859   3.092  -1.256  -0.470  0.1421  0.1424 -0.0187
  333MOL0     C43860   3.198  -1.355  -0.429 -0.1777 -0.8673 -0.9218
  333MOL0     C43861   3.222  -1.464  -0.535  0.7447  0.5886 -0.2914
  333MOL0     C43862   3.340  -1.555  -0.527 -0.8868 -0.3981 -0.4297
  333MOL0     C43863   3.331  -1.636  -0.399 -0.4566  0.0294 -0.2241
  333MOL0     C43864   3.272  -1.774  -0.437 -0.5446  0.0748 -1.1559
  333MOL0     C43865   3.223  -1.853  -0.323  0.0775  0.8551 -0.3464
  333MOL0     C43866   3.115  -1.809  -0.231 -0.9880  0.3879 -0.2275
  333MOL0     C43867   2.995  -1.757  -0.314 -0.2135  0.4884 -0.7828
  333MOL0    Cl43868   2.929  -1.871  -0.430  0.4336 -0.1714 -0.0321
  333MOL0     C43869   3.117  -1.042  -0.360 -0.1170 -0.2840  0.3745
  333MOL0     C43870   3.145  -0.905  -0.365 -0.1876 -0.4462  1.1260
  333MOL0     O43871   3.042  -0.639  -0.553  1.2946 -0.1898 -0.0577
  333MOL0     C43872   3.103  -0.371  -0.499  0.4600 -0.3065  0.2811
  333MOL0     C43873   3.141  -0.233  -0.463  0.6188  0.1897  0.5863
  333MOL0     N43874   3.537   0.430  -0.219  0.0927  0.2542  0.1688
  333MOL0     N43875   3.582   0.486  -0.117 -0.6995 -0.0456 -1.1315
  333MOL0     C43876   3.933   0.704   0.942  0.2815  0.2931  1.1032
  333MOL0     C43877   4.026   0.790   0.961  0.7887 -0.6380  0.5901
  333MOL0     C43878   4.313   1.119   0.970  0.6582 -0.0388  0.0197
  333MOL0     C43879   4.303   1.192   1.096  0.5488 -0.5511  0.1928
  333MOL0     C43880   4.415   1.267   1.135  1.5711 -0.4385 -0.0041
  333MOL0     C43881   4.531   1.280   1.067 -0.2576 -0.1210 -0.1185
  333MOL0     O43882   4.646   1.347   1.111  0.5499 -0.2358  0.2892
  333MOL0     C43883   4.662   1.385   1.248  0.3786 -0.5774 -0.9939
  333MOL0     C43884   4.661   1.280   1.353 -0.5783 -0.6568 -1.1703
  333MOL0     C43885   4.686   1.343   1.493 -0.5452 -0.2746 -0.0186
  333MOL0     C43886   4.822   1.412   1.508  0.4370 -0.1706  1.3725
  333MOL0     C43887   4.857   1.413   1.654 -0.8591  0.5141 -0.1892
  333MOL0     C43888   4.906   1.417   1.767 -0.0984  0.1635 -0.0999
  333MOL0     C43889   4.528   1.208   0.952  0.3082  0.6462  0.5398
  333MOL0     C43890   4.431   1.127   0.902 -0.3058  1.0146  0.3998
  333MOL0     H43891   3.840   1.061   1.055 -1.2229  1.7076 -2.4597
  333MOL0     H43892   3.662   0.877   1.022  0.6817 -2.7960  2.7601
  333MOL0     H43893   3.789   0.456   0.952 -2.2139 -0.7362  1.3425
  333MOL0     H43894   3.785   0.501   0.771 -1.4124 -1.8696 -1.4499
  333MOL0     H43895   3.538   0.428   0.930  3.0226  1.1907  3.1797
  333MOL0     H43896   3.628   0.301   0.847  0.4765 -0.6300 -0.7168
  333MOL0     H43897   3.520   0.533   0.707 -0.0258  0.5982  0.2941
  333MOL0     H43898   3.435   0.383   0.734  1.3650  0.6181  1.9648
  333MOL0     H43899   3.670   0.425   0.569 -0.5733  0.8702 -0.3365
  333MOL0     H43900   3.631   0.258   0.603  3.2398  1.1584 -0.2900
  333MOL0     H43901   3.391   0.325   0.513  0.1654  2.0551  1.5957
  333MOL0     H43902   3.539   0.273   0.418  1.6370  1.2512 -0.7941
  333MOL0     H43903   3.555   0.545   0.400 -0.7475  2.3826 -3.0903
  333MOL0     H43904   3.382   0.523   0.430 -0.4519 -3.6915  2.8771
  333MOL0     H43905   3.486   0.332   0.232  0.5788  0.4609 -2.7676
  333MOL0     H43906   3.331   0.403   0.235 -0.4619 -2.1737  1.0943
  333MOL0     H43907   3.588   0.565   0.159  0.8473 -1.6601  0.6627
  333MOL0     H43908   3.409   0.590   0.106 -0.3074 -1.0749 -0.1918
  333MOL0     H43909   3.345   0.318   0.020  1.6249  0.4262  1.8371
  333MOL0     H43910   3.316   0.320  -0.343 -0.3473 -1.8736 -1.1805
  333MOL0     H43911   3.295   0.205  -0.216 -3.2882 -0.7668 -4.3163
  333MOL0     H43912   3.479   0.072  -0.263  2.3142  0.1261 -0.3640
  333MOL0     H43913   3.562   0.191  -0.340 -0.3472  0.1928  1.3711
  333MOL0     H43914   3.416   0.187  -0.542  1.3276 -0.5272 -0.3481
  333MOL0     H43915   3.509   0.038  -0.503  1.6861  0.3716  2.4232
  333MOL0     H43916   3.269  -0.002  -0.574 -0.4015  0.4102 -0.3538
  333MOL0     H43917   3.223   0.089  -0.430 -0.4044 -1.0566  0.5370
  333MOL0     H43918   3.457  -0.291  -0.372 -0.2808  1.0720  1.1023
  333MOL0     H43919   3.393  -0.533  -0.433 -1.2556 -0.3996  1.9810
  333MOL0     H43920   3.292  -0.903  -0.678  4.0406 -0.1183  0.8425
  333MOL0     H43921   3.236  -1.149  -0.655 -1.1380  0.3448 -0.1372
  333MOL0     H43922   3.168  -1.408  -0.338 -0.6290  0.8842 -0.0015
  333MOL0     H43923   3.298  -1.311  -0.419  0.3167 -1.1613 -3.7756
  333MOL0     H43924   3.229  -1.412  -0.631 -0.9458 -1.3316 -1.5136
  333MOL0     H43925   3.125  -1.513  -0.543  0.3285  1.3050  0.1865
  333MOL0     H43926   3.438  -1.507  -0.529 -0.2242 -1.7264 -0.4113
  333MOL0     H43927   3.338  -1.621  -0.614  1.2249  2.4120 -2.8290
  333MOL0     H43928   3.433  -1.653  -0.363 -1.6198 -3.7073  1.8338
  333MOL0     H43929   3.276  -1.584  -0.320  1.1741 -1.9905  2.4314
  333MOL0     H43930   3.353  -1.833  -0.481 -1.1792 -1.1985 -0.6935
  333MOL0     H43931   3.191  -1.775  -0.510  0.8900 -2.9744 -2.9263
  333MOL0     H43932   3.311  -1.868  -0.259 -0.6945 -0.5067  0.4392
  333MOL0     H43933   3.202  -1.951  -0.366 -0.6508  0.6571  0.4364
  333MOL0     H43934   3.091  -1.899  -0.175  0.0507  1.1594  1.5561
  333MOL0     H43935   3.156  -1.730  -0.167  3.1222 -0.4913 -1.4511
  333MOL0     H43936   3.022  -1.665  -0.367 -0.5005  0.0626 -1.6933
  333MOL0     H43937   2.923  -1.734  -0.235  0.3602  0.0630 -0.1211
  333MOL0     H43938   3.077  -1.090  -0.272 -3.1015  3.8992  1.6350
  333MOL0     H43939   3.115  -0.844  -0.280 -0.7971 -1.1547  1.4372
  333MOL0     H43940   3.000  -0.397  -0.519 -0.3105  2.4824  0.1876
  333MOL0     H43941   3.073  -0.149  -0.465  0.4791  0.1075  1.5508
  333MOL0     H43942   3.956   0.603   0.911 -1.1776  1.1339 -3.7034
  333MOL0     H43943   4.127   0.760   0.936  1.0486 -0.7435  1.7020
  333MOL0     H43944   4.203   1.195   1.139  0.8875 -0.9405  1.0334
  333MOL0     H43945   4.401   1.319   1.229 -0.2174 -0.0245 -0.4634
  333MOL0     H43946   4.591   1.458   1.287  1.7941 -0.4944  1.6502
  333MOL0     H43947   4.758   1.437   1.255 -0.7449  1.4124  4.3073
  333MOL0     H43948   4.572   1.218   1.345 -2.1913  1.4857 -0.5788
  333MOL0     H43949   4.744   1.212   1.332  2.6517  2.4346  0.4874
  333MOL0     H43950   4.675   1.265   1.569  1.0949 -1.0053 -0.4736
  333MOL0     H43951   4.608   1.414   1.521 -1.5959 -2.8907  5.0793
  333MOL0     H43952   4.895   1.348   1.456 -0.4045  0.0900 -0.1816
  333MOL0     H43953   4.842   1.513   1.473  2.1329 -0.3989  1.6111
  333MOL0     H43954   4.946   1.431   1.866  0.8025 -0.6428 -0.3257
  333MOL0     H43955   4.621   1.225   0.899 -0.0895  2.7328  0.4313
  333MOL0     H43956   4.443   1.068   0.812 -0.0104 -0.1835  1.1935
  334MOL0     O43957   5.411  10.472  11.391  0.3104  0.1145  0.1708
  334MOL0     C43958   5.304  10.453  11.332 -1.1258  0.0942 -0.3523
  334MOL0     O43959   5.275  10.504  11.211  0.1192 -0.3520  0.1692
  334MOL0     C43960   5.343  10.615  11.167 -0.9035 -0.2278  0.5903
  334MOL0     C43961   5.418  10.600  11.056 -0.1785  0.5390  1.2538
  334MOL0     C43962   5.486  10.703  10.990 -0.7977 -0.8446 -0.6774
  334MOL0     C43963   5.482  10.831  11.053  0.2795  0.1692  1.1422
  334MOL0     O43964   5.572  10.921  11.005 -0.2766 -0.5806 -0.1131
  334MOL0     C43965   5.533  11.062  11.005  0.5657  0.4517  0.1779
  334MOL0     C43966   5.645  11.141  11.055  0.1955 -0.2640 -0.6932
  334MOL0     C43967   5.626  11.292  11.031  0.2648  0.0398 -0.6533
  334MOL0     C43968   5.758  11.354  11.045 -0.0153 -0.3915  0.3123
  334MOL0     C43969   5.764  11.509  11.045  0.2949  0.0622 -0.6993
  334MOL0     C43970   5.706  11.582  10.921 -0.5390  0.2112 -0.8789
  334MOL0     C43971   5.730  11.732  10.927 -0.0374  0.5273  0.0242
  334MOL0     C43972   5.835  11.774  10.829  0.8610  1.2638  0.1061
  334MOL0     N43973   5.810  11.914  10.802 -0.0502  0.6268 -0.5447
  334MOL0     C43974   5.874  12.029  10.847 -0.5677  0.2139  0.7315
  334MOL0     C43975   5.803  12.135  10.797 -0.5506  0.4181  0.8842
  334MOL0     C43976   5.811  12.283  10.836 -0.1761  0.1227  0.0365
  334MOL0     C43977   5.939  12.350  10.778  1.0518  0.1381 -0.0873
  334MOL0     C43978   5.919  12.421  10.647 -0.2556  0.1341 -0.1225
  334MOL0     C43979   6.053  12.492  10.614 -0.0201 -0.0888  0.3511
  334MOL0     O43980   6.085  12.600  10.707 -0.3334 -0.0186 -0.1544
  334MOL0     C43981   6.032  12.719  10.670  0.2548 -0.1927  0.4725
  334MOL0     C43982   5.936  12.786  10.742  0.9078 -0.7221 -0.0765
  334MOL0     C43983   5.880  12.910  10.698  0.0022  0.0236  0.4114
  334MOL0     C43984   5.936  12.981  10.593  0.8831  0.5096  0.1380
  334MOL0     C43985   5.887  13.109  10.542 -0.1400 -0.4358  0.3265
  334MOL0     O43986   5.954  13.178  10.451 -0.8593  0.3499 -0.3148
  334MOL0     C43987   5.889  13.284  10.401 -0.9496 -0.4074  0.2667
  334MOL0     C43988   5.823  13.256  10.286  1.2653  0.1766  0.7856
  334MOL0     C43989   5.763  13.359  10.215 -0.3982 -0.4618  0.2323
  334MOL0     C43990   5.771  13.491  10.263 -1.0209 -0.7068  1.8837
  334MOL0     O43991   5.735  13.599  10.184  0.1784 -0.1262 -0.4266
  334MOL0     C43992   5.784  13.595  10.053  0.2295  0.9799  0.5166
  334MOL0     C43993   5.846  13.733  10.023 -0.7634  0.0973  0.3280
  334MOL0     C43994   5.890  13.756   9.880  0.3200 -0.3010 -0.3491
  334MOL0     C43995   5.896  13.911   9.844  0.4799  0.5193 -0.7690
  334MOL0     C43996   5.981  13.948   9.729  0.0864  0.4349 -0.3435
  334MOL0     C43997   5.952  14.087   9.669 -0.0821  0.4075  0.4001
  334MOL0     C43998   6.060  14.120   9.562  0.9901  0.3222  0.6737
  334MOL0     C43999   5.977  14.155   9.437 -0.1076  0.2058  0.3179
  334MOL0    Cl44000   5.878  14.022   9.373  0.1925 -0.2560  0.1456
  334MOL0     C44001   5.836  13.521  10.381 -0.0363  0.6058 -0.7917
  334MOL0     C44002   5.900  13.411  10.452  0.0558  0.0324 -0.5908
  334MOL0     O44003   5.783  13.154  10.594  1.2759 -0.2480 -0.4162
  334MOL0     C44004   6.032  12.919  10.515 -0.5474  0.0027 -0.1353
  334MOL0     C44005   6.083  12.794  10.557 -0.0168 -0.1457  0.1509
  334MOL0     N44006   5.696  12.089  10.719 -0.5448 -0.3492 -0.7952
  334MOL0     N44007   5.699  11.955  10.738  0.5969  0.2868  0.7701
  334MOL0     C44008   5.412  10.846  11.174 -1.1073 -0.3465  0.9525
  334MOL0     C44009   5.342  10.738  11.228 -0.0934  0.3930 -1.0860
  334MOL0     C44010   5.206  10.358  11.398 -0.4425  0.2283 -0.1747
  334MOL0     C44011   5.087  10.327  11.334 -0.7929  0.0108 -0.9708
  334MOL0     C44012   5.020  10.212  11.379 -0.4341 -0.6874 -1.0531
  334MOL0     C44013   5.057  10.143  11.497  0.6505  1.5248  0.8834
  334MOL0     O44014   5.008  10.021  11.533  0.2112  0.1125 -0.1852
  334MOL0     C44015   4.874  10.029  11.595  0.8745  1.0054  0.0087
  334MOL0     C44016   4.844   9.900  11.668  0.3164 -1.0037 -0.1078
  334MOL0     C44017   4.887   9.776  11.593 -0.4397 -0.5728 -0.5168
  334MOL0     C44018   4.792   9.746  11.478  0.7874  0.1013 -0.4029
  334MOL0     C44019   4.843   9.680  11.354 -0.1003 -0.0088  0.0657
  334MOL0     C44020   4.887   9.623  11.257  0.0278 -0.5059  0.0906
  334MOL0     C44021   5.170  10.182  11.568 -0.7059 -1.2838 -0.8579
  334MOL0     C44022   5.242  10.288  11.517  0.4796 -0.2066 -0.3058
  334MOL0     H44023   5.418  10.498  11.017  2.0033  1.4559 -1.5552
  334MOL0     H44024   5.549  10.699  10.902  3.1381  4.0072  1.4614
  334MOL0     H44025   5.452  11.083  11.074 -0.1139  1.5535 -0.9100
  334MOL0     H44026   5.489  11.091  10.909 -2.5301 -0.7140  1.1219
  334MOL0     H44027   5.741  11.114  11.010 -0.6777 -2.7596 -1.2205
  334MOL0     H44028   5.656  11.114  11.160 -1.7379 -0.8070 -0.5838
  334MOL0     H44029   5.552  11.332  11.101 -2.6311 -3.0249 -1.7160
  334MOL0     H44030   5.585  11.320  10.934 -3.7187  0.0139  0.8429
  334MOL0     H44031   5.789  11.321  11.144  0.5576  3.1414  1.4400
  334MOL0     H44032   5.829  11.319  10.970 -0.8546  3.6084 -2.7376
  334MOL0     H44033   5.872  11.529  11.049  0.6851 -1.7653  3.8022
  334MOL0     H44034   5.727  11.542  11.142  2.4634 -0.8952  0.5206
  334MOL0     H44035   5.598  11.565  10.928 -0.7111  1.1874 -1.1208
  334MOL0     H44036   5.744  11.536  10.830  2.8516 -1.6791  1.2675
  334MOL0     H44037   5.629  11.770  10.909 -0.0088 -0.1300 -1.6936
  334MOL0     H44038   5.756  11.763  11.029 -1.1203  1.5344  0.0097
  334MOL0     H44039   5.817  11.713  10.740 -1.6974  0.3575  1.1421
  334MOL0     H44040   5.929  11.750  10.879 -0.3611 -1.7637  1.1671
  334MOL0     H44041   5.965  12.030  10.907  0.5849  3.5615 -0.8220
  334MOL0     H44042   5.827  12.290  10.944  1.8613 -2.0455 -0.0415
  334MOL0     H44043   5.721  12.335  10.802  2.2573  2.8590 -2.7650
  334MOL0     H44044   6.010  12.268  10.769 -0.7530 -1.3600 -1.4751
  334MOL0     H44045   5.966  12.425  10.853  0.1460  0.6586 -0.2674
  334MOL0     H44046   5.909  12.347  10.566  0.5454 -0.7412  0.5562
  334MOL0     H44047   5.836  12.488  10.669  0.2155 -0.2248  3.2047
  334MOL0     H44048   6.027  12.525  10.513  0.7590 -1.6190 -0.3926
  334MOL0     H44049   6.143  12.430  10.614 -0.1976 -0.3462  0.6774
  334MOL0     H44050   5.897  12.732  10.828  1.8431  0.7079  1.3095
  334MOL0     H44051   5.782  12.933  10.739 -0.2970  1.8864 -1.1585
  334MOL0     H44052   5.816  13.152  10.256 -0.5701  0.0575  1.4599
  334MOL0     H44053   5.723  13.329  10.119 -0.6240 -0.3673  0.2959
  334MOL0     H44054   5.704  13.566   9.984 -0.4703  0.8780  1.3490
  334MOL0     H44055   5.862  13.519  10.052 -4.1023 -4.0362 -1.2742
  334MOL0     H44056   5.929  13.740  10.093 -0.6504 -1.6676  0.4282
  334MOL0     H44057   5.790  13.820  10.060  1.7430  0.3498  4.0499
  334MOL0     H44058   5.821  13.713   9.807 -2.4480  0.5124  1.6027
  334MOL0     H44059   5.990  13.713   9.867  1.1948  1.5506 -0.0031
  334MOL0     H44060   5.793  13.926   9.811 -0.6785 -2.7517  0.9469
  334MOL0     H44061   5.930  13.963   9.934 -0.6340 -2.0309  1.2460
  334MOL0     H44062   5.953  13.877   9.651 -1.5143 -0.1969  0.7492
  334MOL0     H44063   6.086  13.929   9.755  0.3381  0.1971 -1.5088
  334MOL0     H44064   5.977  14.165   9.741  1.7487  0.6041 -0.3855
  334MOL0     H44065   5.846  14.109   9.651 -0.7578 -1.0376  2.2718
  334MOL0     H44066   6.116  14.206   9.602 -0.7040  1.1860  1.3273
  334MOL0     H44067   6.122  14.036   9.532 -1.8993 -1.3418 -1.1327
  334MOL0     H44068   6.046  14.181   9.357 -1.1744  0.0601 -0.6748
  334MOL0     H44069   5.924  14.251   9.448  4.2847  2.9984 -0.4310
  334MOL0     H44070   5.841  13.618  10.430  1.4182  1.3627 -2.3598
  334MOL0     H44071   5.953  13.428  10.545 -1.3546  2.1485 -0.0872
  334MOL0     H44072   6.064  12.963  10.421 -0.2327 -2.0312 -1.0306
  334MOL0     H44073   6.159  12.755  10.491  0.0121 -0.3234  0.2862
  334MOL0     H44074   5.393  10.938  11.228  2.9639  2.0141 -1.1619
  334MOL0     H44075   5.306  10.735  11.331 -1.1523  0.7648 -1.4382
  334MOL0     H44076   5.051  10.389  11.252 -1.4256 -0.0590 -0.7522
  334MOL0     H44077   4.935  10.186  11.317 -2.0490 -1.0423  1.1982
  334MOL0     H44078   4.804  10.038  11.510  0.2209  2.2931  0.6511
  334MOL0     H44079   4.858  10.123  11.649  2.0961  1.6092 -0.6444
  334MOL0     H44080   4.891   9.905  11.767 -1.1072 -2.1069  0.6759
  334MOL0     H44081   4.737   9.899  11.693 -0.3920  2.6590 -2.2829
  334MOL0     H44082   4.891   9.694  11.665  0.1962  0.8831  1.1711
  334MOL0     H44083   4.990   9.791  11.558  0.5313  0.4916  2.4200
  334MOL0     H44084   4.729   9.666  11.517  2.3312 -0.0724  1.9392
  334MOL0     H44085   4.742   9.838  11.446 -1.3492 -0.8138  0.1288
  334MOL0     H44086   4.915   9.585  11.161  2.9924  1.7892 -0.0764
  334MOL0     H44087   5.202  10.129  11.657  0.4327 -1.9119 -1.6160
  334MOL0     H44088   5.328  10.312  11.579  0.2798  1.1901 -0.5417
  335MOL0     O44089   3.084   0.869   8.764 -0.3333  0.2918 -0.1355
  335MOL0     C44090   3.188   0.813   8.731 -0.2561 -0.3215  0.6330
  335MOL0     O44091   3.209   0.773   8.595  0.2590 -0.5279  0.2952
  335MOL0     C44092   3.101   0.756   8.504 -0.2369 -0.6797  0.0865
  335MOL0     C44093   3.121   0.799   8.378  0.4508 -0.5248  0.0405
  335MOL0     C44094   3.012   0.787   8.290 -0.6954  0.1542  0.7126
  335MOL0     C44095   2.887   0.753   8.334  1.1158 -0.2082  0.8012
  335MOL0     O44096   2.771   0.750   8.254  0.4224 -0.4312 -0.4236
  335MOL0     C44097   2.761   0.838   8.136  0.0402  1.6293  0.0148
  335MOL0     C44098   2.620   0.842   8.056  0.8222  0.1950  0.0183
  335MOL0     C44099   2.626   0.895   7.913  0.6752 -0.3686  1.3098
  335MOL0     C44100   2.644   1.048   7.893  0.0405  0.3006  0.3668
  335MOL0     C44101   2.667   1.069   7.738  0.3752  0.0480 -0.0525
  335MOL0     C44102   2.717   1.209   7.696  0.6694 -0.2685 -1.3128
  335MOL0     C44103   2.862   1.223   7.660 -0.7977  0.8499 -0.1205
  335MOL0     C44104   2.903   1.364   7.628  0.1914 -0.6720  0.3518
  335MOL0     N44105   3.050   1.389   7.629 -0.1482 -0.0674 -0.5430
  335MOL0     C44106   3.143   1.342   7.539 -0.5474 -0.3731 -0.3629
  335MOL0     C44107   3.253   1.424   7.576  0.4527 -0.3016 -0.2784
  335MOL0     C44108   3.391   1.394   7.525  0.7009 -0.3911 -0.6838
  335MOL0     C44109   3.385   1.405   7.372 -0.6534  0.6669 -0.3355
  335MOL0     C44110   3.528   1.417   7.319  0.1448  0.6067  0.5642
  335MOL0     C44111   3.525   1.462   7.172 -0.7466  0.4310  0.6077
  335MOL0     O44112   3.641   1.407   7.098 -0.0603 -0.1554 -0.7938
  335MOL0     C44113   3.720   1.506   7.039 -0.2010  1.2160 -0.3988
  335MOL0     C44114   3.784   1.483   6.916  0.3092  0.3614 -0.6239
  335MOL0     C44115   3.862   1.593   6.859 -0.1546  0.2920 -0.6022
  335MOL0     C44116   3.881   1.714   6.919  1.2190  0.2932 -0.2915
  335MOL0     C44117   3.964   1.823   6.873 -0.6854 -0.1841 -0.5088
  335MOL0     O44118   4.025   1.914   6.971 -0.0526  0.2907 -0.5006
  335MOL0     C44119   4.059   2.041   6.939  0.1543 -0.1430  0.5249
  335MOL0     C44120   4.009   2.100   6.821 -0.8429 -0.2070 -0.0434
  335MOL0     C44121   4.037   2.234   6.801  0.0873 -1.0793  0.3639
  335MOL0     C44122   4.131   2.306   6.888  0.4842 -0.2078  0.4740
  335MOL0     O44123   4.166   2.435   6.881  0.5148  0.0931  0.5767
  335MOL0     C44124   4.132   2.502   6.760  0.4068 -1.1112 -0.3001
  335MOL0     C44125   4.199   2.640   6.790  0.6673 -0.3982  0.1914
  335MOL0     C44126   4.174   2.732   6.670  0.4262 -0.6606  0.3450
  335MOL0     C44127   4.234   2.869   6.703 -0.3705 -0.0844  0.2775
  335MOL0     C44128   4.360   2.891   6.615  0.2026 -0.7990  0.1565
  335MOL0     C44129   4.407   3.033   6.620  0.0146 -0.1724 -0.6699
  335MOL0     C44130   4.314   3.121   6.539  0.3447 -1.0497  0.2904
  335MOL0     C44131   4.352   3.263   6.507 -0.0075  0.1348 -0.4255
  335MOL0    Cl44132   4.427   3.348   6.654  0.1324 -0.1164 -0.2490
  335MOL0     C44133   4.187   2.241   6.997  0.4999 -0.5371 -0.0402
  335MOL0     C44134   4.146   2.109   7.022  0.0445  0.3337  0.3118
  335MOL0     O44135   3.980   1.830   6.754  0.5569 -0.1783 -0.0463
  335MOL0     C44136   3.829   1.723   7.051  0.6153  0.7975 -0.2181
  335MOL0     C44137   3.749   1.626   7.108  0.0700 -0.3322 -0.3058
  335MOL0     N44138   3.230   1.513   7.679  0.4788  0.0740  0.1461
  335MOL0     N44139   3.102   1.485   7.707 -0.3926  0.1053 -0.2527
  335MOL0     C44140   2.862   0.711   8.464  0.1632 -0.0580 -0.0834
  335MOL0     C44141   2.976   0.721   8.547 -0.3649  0.5984  0.0260
  335MOL0     C44142   3.291   0.802   8.826 -0.6137 -0.4750  0.1018
  335MOL0     C44143   3.416   0.753   8.790 -0.1190  1.0064 -0.3008
  335MOL0     C44144   3.524   0.745   8.881 -1.3028  0.0117  0.1024
  335MOL0     C44145   3.517   0.803   9.002 -0.4480 -1.1963 -0.5917
  335MOL0     O44146   3.620   0.805   9.088 -0.9617  0.8152 -0.3436
  335MOL0     C44147   3.613   0.704   9.195 -0.0161 -0.0655  0.4565
  335MOL0     C44148   3.761   0.688   9.246 -0.1190  0.2824 -0.2131
  335MOL0     C44149   3.826   0.821   9.284 -0.2169  0.2461  0.2736
  335MOL0     C44150   3.938   0.805   9.382  0.2824  0.1958 -0.2160
  335MOL0     C44151   4.059   0.746   9.320 -0.3154 -0.8169 -0.3377
  335MOL0     C44152   4.157   0.701   9.266 -0.9862 -0.9866 -0.8357
  335MOL0     C44153   3.393   0.862   9.043  0.3342  1.2320 -0.5570
  335MOL0     C44154   3.279   0.859   8.960 -0.7704 -0.3380 -0.8260
  335MOL0     H44155   3.222   0.829   8.350 -0.2098 -0.2144 -2.2262
  335MOL0     H44156   3.028   0.813   8.186  2.8740 -1.0553  0.8201
  335MOL0     H44157   2.839   0.803   8.067 -0.7195  0.8936 -0.4796
  335MOL0     H44158   2.790   0.939   8.167  2.9022  1.5872 -2.0792
  335MOL0     H44159   2.545   0.900   8.112  1.2173  0.5851  0.1550
  335MOL0     H44160   2.572   0.744   8.061 -0.9673  1.0531  1.0426
  335MOL0     H44161   2.536   0.864   7.858 -1.1695  1.7708  2.9218
  335MOL0     H44162   2.711   0.852   7.860 -0.2968  0.2429 -0.8985
  335MOL0     H44163   2.551   1.099   7.921 -1.2693 -0.6668 -1.9297
  335MOL0     H44164   2.729   1.096   7.940 -0.3582  1.9337 -0.5053
  335MOL0     H44165   2.571   1.047   7.690  0.1712  2.9479 -1.2115
  335MOL0     H44166   2.726   0.984   7.705 -0.4293 -0.5361 -0.0200
  335MOL0     H44167   2.695   1.291   7.765  3.5152  2.2257 -3.1300
  335MOL0     H44168   2.654   1.245   7.614 -1.9499 -2.7869 -0.5702
  335MOL0     H44169   2.915   1.184   7.748  0.6763 -4.1544 -2.7951
  335MOL0     H44170   2.885   1.164   7.571  0.7429  1.1408  0.0574
  335MOL0     H44171   2.849   1.431   7.696  0.6087  0.4452 -0.3899
  335MOL0     H44172   2.870   1.375   7.525  1.0220 -1.7466 -0.0506
  335MOL0     H44173   3.126   1.260   7.471 -1.2905  0.2464 -0.9307
  335MOL0     H44174   3.416   1.288   7.540  0.0326 -0.2994  1.3733
  335MOL0     H44175   3.462   1.462   7.570 -0.5342  1.7425 -1.8026
  335MOL0     H44176   3.327   1.493   7.342 -1.9806  0.7082  2.0902
  335MOL0     H44177   3.334   1.316   7.333  1.0404 -1.5605  2.2627
  335MOL0     H44178   3.584   1.487   7.381 -0.3173  2.9168 -1.4963
  335MOL0     H44179   3.577   1.320   7.334  2.0630  0.7890 -3.3984
  335MOL0     H44180   3.511   1.569   7.158  0.8289  0.6967  0.8788
  335MOL0     H44181   3.442   1.406   7.128 -0.5647 -2.6638  3.7368
  335MOL0     H44182   3.766   1.383   6.878 -2.1814  0.1959  0.7482
  335MOL0     H44183   3.909   1.575   6.763  1.1807 -3.7229  0.5783
  335MOL0     H44184   3.958   2.053   6.737  0.0039  2.1525 -2.0144
  335MOL0     H44185   3.991   2.282   6.715  1.6159 -1.1927 -0.5442
  335MOL0     H44186   4.023   2.497   6.749  0.1209 -0.5782  1.8364
  335MOL0     H44187   4.181   2.458   6.673  3.3568  0.2232  0.5559
  335MOL0     H44188   4.305   2.622   6.807  1.4024  3.0940  0.0425
  335MOL0     H44189   4.153   2.671   6.884  0.4637 -1.7900  0.5859
  335MOL0     H44190   4.070   2.753   6.642  0.4025 -0.6255  0.4621
  335MOL0     H44191   4.224   2.689   6.582 -0.2652  0.9076 -0.8669
  335MOL0     H44192   4.158   2.945   6.683 -0.4778 -0.4834 -0.8685
  335MOL0     H44193   4.265   2.882   6.808  1.1460  0.4083 -0.2105
  335MOL0     H44194   4.352   2.853   6.513 -1.2707  1.4952 -0.6709
  335MOL0     H44195   4.441   2.831   6.657  0.2622 -2.6772 -2.3839
  335MOL0     H44196   4.510   3.030   6.584 -0.1193 -1.6355 -0.9789
  335MOL0     H44197   4.405   3.071   6.723 -2.8799 -1.1587 -0.2639
  335MOL0     H44198   4.297   3.077   6.440 -1.7886 -2.4885  1.2267
  335MOL0     H44199   4.217   3.120   6.588 -0.0869 -0.4963 -0.5388
  335MOL0     H44200   4.273   3.331   6.476  0.4139  0.8541  0.0671
  335MOL0     H44201   4.425   3.262   6.425 -0.5339 -2.4863 -0.9816
  335MOL0     H44202   4.268   2.289   7.051  1.7343  2.2432 -3.8769
  335MOL0     H44203   4.171   2.051   7.111  1.5536  0.4967  0.0318
  335MOL0     H44204   3.847   1.811   7.112  0.4032  0.4508  0.3574
  335MOL0     H44205   3.706   1.641   7.206 -1.1248 -0.9661 -0.7085
  335MOL0     H44206   2.769   0.667   8.497  2.2958 -4.5775  0.6896
  335MOL0     H44207   2.959   0.683   8.648  1.3810  2.3576  1.0339
  335MOL0     H44208   3.440   0.722   8.689  1.1580 -1.4039  0.6604
  335MOL0     H44209   3.621   0.710   8.846  0.3000  3.1642  1.0397
  335MOL0     H44210   3.570   0.608   9.164 -0.8185  0.5790 -0.5165
  335MOL0     H44211   3.548   0.739   9.275  0.3620  3.2639 -0.5382
  335MOL0     H44212   3.760   0.622   9.333  2.5296  0.3023 -0.0691
  335MOL0     H44213   3.817   0.641   9.165  0.6061  2.0293 -0.7676
  335MOL0     H44214   3.745   0.887   9.318 -0.2353  0.5523 -0.3518
  335MOL0     H44215   3.855   0.870   9.190 -1.9169  0.7684 -0.0173
  335MOL0     H44216   3.967   0.902   9.423  0.0035 -1.1369  3.4713
  335MOL0     H44217   3.904   0.751   9.470  1.5196  2.2531  1.6115
  335MOL0     H44218   4.248   0.660   9.226 -0.7657  1.3049 -2.9219
  335MOL0     H44219   3.376   0.905   9.142 -4.5133 -1.1495 -0.1091
  335MOL0     H44220   3.187   0.901   8.998 -0.7130 -0.1996 -0.8410
  336MOL0     O44221   1.622   0.592   5.983 -0.0271  0.0917  0.7027
  336MOL0     C44222   1.699   0.556   6.070 -0.2312  0.1399 -0.4508
  336MOL0     O44223   1.836   0.562   6.061 -0.2316 -0.2632  0.3106
  336MOL0     C44224   1.897   0.654   5.966 -0.6744 -1.1993 -0.5952
  336MOL0     C44225   1.849   0.693   5.837 -0.1572 -0.0164 -0.5916
  336MOL0     C44226   1.918   0.793   5.750 -0.2107 -0.3764 -0.1707
  336MOL0     C44227   2.030   0.847   5.804 -0.5107 -0.4367 -0.3029
  336MOL0     O44228   2.102   0.947   5.739  0.1361  0.0693 -0.5519
  336MOL0     C44229   2.063   0.983   5.609  0.0391  1.1163  0.6459
  336MOL0     C44230   2.157   1.093   5.569  1.3658  0.3842 -0.4535
  336MOL0     C44231   2.316   1.066   5.574 -0.2937 -0.8307 -0.3228
  336MOL0     C44232   2.383   1.204   5.561  0.3153  0.2176  0.3545
  336MOL0     C44233   2.540   1.177   5.559  0.7654 -0.2536 -0.1554
  336MOL0     C44234   2.616   1.319   5.536 -1.4820  0.1392 -0.0457
  336MOL0     C44235   2.768   1.312   5.543 -0.8801 -0.2284 -0.0541
  336MOL0     C44236   2.835   1.227   5.424  0.0551  0.3904 -0.1352
  336MOL0     N44237   2.977   1.222   5.427  0.4113 -0.1726 -0.7151
  336MOL0     C44238   3.047   1.342   5.429 -0.7599  0.0895 -0.9064
  336MOL0     C44239   3.177   1.312   5.439  0.6067 -0.3514  0.1918
  336MOL0     C44240   3.293   1.405   5.444  0.3537 -0.0833  1.3204
  336MOL0     C44241   3.418   1.353   5.363 -0.6438  0.0788  1.0018
  336MOL0     C44242   3.511   1.267   5.441  0.6092 -0.6766 -1.2268
  336MOL0     C44243   3.653   1.227   5.388  0.1143  0.4320  0.5189
  336MOL0     O44244   3.730   1.339   5.342  0.8579 -0.6236 -0.1590
  336MOL0     C44245   3.838   1.366   5.424 -0.1219 -0.2431  1.7489
  336MOL0     C44246   3.942   1.277   5.450 -0.4157 -0.1116  0.8132
  336MOL0     C44247   4.055   1.318   5.519 -0.4371 -0.1236 -1.2538
  336MOL0     C44248   4.059   1.451   5.586 -0.7962 -0.0735  0.5037
  336MOL0     C44249   4.179   1.493   5.662 -0.9361  0.1158  0.4767
  336MOL0     O44250   4.299   1.422   5.635  0.0469 -0.6683 -0.3544
  336MOL0     C44251   4.420   1.438   5.696  0.2561 -0.2781 -0.0224
  336MOL0     C44252   4.525   1.368   5.643  0.2585  0.0647  0.6954
  336MOL0     C44253   4.653   1.377   5.706 -0.1146 -0.0632 -0.1952
  336MOL0     C44254   4.678   1.466   5.813  0.3705 -0.4695 -0.2330
  336MOL0     O44255   4.802   1.470   5.877  0.2957  0.0659  0.4960
  336MOL0     C44256   4.917   1.415   5.805  0.0238 -0.1170 -0.0973
  336MOL0     C44257   5.034   1.441   5.908  1.4096  0.1905 -0.2661
  336MOL0     C44258   5.168   1.372   5.872 -0.0048  0.3452  0.6454
  336MOL0     C44259   5.285   1.385   5.974 -0.1687 -0.1541  0.6887
  336MOL0     C44260   5.245   1.360   6.118  0.6143 -0.0583 -0.7420
  336MOL0     C44261   5.366   1.330   6.216 -1.0141 -0.1185 -0.5730
  336MOL0     C44262   5.327   1.322   6.365 -0.4306 -0.0307 -0.5223
  336MOL0     C44263   5.451   1.262   6.446  0.1935  0.8057  0.2158
  336MOL0    Cl44264   5.417   1.234   6.614 -0.0638  0.6303  0.5706
  336MOL0     C44265   4.566   1.534   5.868 -0.6158  0.0772  0.6473
  336MOL0     C44266   4.437   1.518   5.814 -0.5392 -0.0490  0.0739
  336MOL0     O44267   4.163   1.588   5.736 -0.1014  0.1039  0.1707
  336MOL0     C44268   3.940   1.529   5.567 -0.3042  0.1227 -0.0866
  336MOL0     C44269   3.846   1.496   5.473  0.2340  0.4441 -1.0243
  336MOL0     N44270   3.185   1.167   5.451  0.4499 -0.0141  0.4037
  336MOL0     N44271   3.062   1.121   5.450  0.4030 -0.0626 -0.0505
  336MOL0     C44272   2.075   0.819   5.932  0.8171  0.0200  0.0436
  336MOL0     C44273   2.013   0.715   6.001 -0.8334  0.0216 -1.0607
  336MOL0     C44274   1.655   0.485   6.195  0.6383  0.1840 -0.6837
  336MOL0     C44275   1.521   0.443   6.212  0.2336  0.2265  0.2382
  336MOL0     C44276   1.468   0.377   6.322 -0.6154 -0.6123  0.3441
  336MOL0     C44277   1.567   0.343   6.420  0.0661 -0.3149  0.3390
  336MOL0     O44278   1.556   0.268   6.532  0.6566 -0.1304 -0.4030
  336MOL0     C44279   1.425   0.219   6.552 -0.1974  0.1257  0.2343
  336MOL0     C44280   1.418   0.170   6.697 -0.4438  1.0240 -0.3545
  336MOL0     C44281   1.428   0.274   6.808 -0.3521 -0.4243 -0.4917
  336MOL0     C44282   1.533   0.393   6.801  0.9110  0.4033 -0.7377
  336MOL0     C44283   1.535   0.460   6.933  0.0074 -0.4869 -0.2937
  336MOL0     C44284   1.542   0.530   7.032  0.0530 -0.3608  0.7038
  336MOL0     C44285   1.699   0.379   6.405  0.4467 -0.5024 -0.1794
  336MOL0     C44286   1.746   0.449   6.297 -0.4988  0.6323 -0.1208
  336MOL0     H44287   1.758   0.643   5.804 -3.1177  3.1507  1.9733
  336MOL0     H44288   1.885   0.816   5.650  0.3368 -0.6014 -0.4060
  336MOL0     H44289   1.961   1.022   5.602  0.2661  1.4536 -1.4343
  336MOL0     H44290   2.065   0.900   5.538 -4.1009  0.2607  1.3138
  336MOL0     H44291   2.129   1.175   5.636 -0.3948 -1.2309  0.8985
  336MOL0     H44292   2.122   1.115   5.467 -1.8876  0.5802  0.5779
  336MOL0     H44293   2.344   0.999   5.492  1.7537 -0.9088  0.3775
  336MOL0     H44294   2.346   1.016   5.667  1.9164 -3.0099 -2.0519
  336MOL0     H44295   2.355   1.245   5.463  0.1292  0.7878  0.6378
  336MOL0     H44296   2.356   1.268   5.645  3.3377  1.8145  0.2511
  336MOL0     H44297   2.571   1.101   5.487  0.1863 -0.4740 -0.1813
  336MOL0     H44298   2.587   1.140   5.650  0.7868  0.1381 -0.0026
  336MOL0     H44299   2.576   1.398   5.600  0.8432  0.7356  0.7689
  336MOL0     H44300   2.598   1.347   5.431 -3.0422 -2.0857 -0.4368
  336MOL0     H44301   2.798   1.418   5.543 -2.2410  0.1788  0.0587
  336MOL0     H44302   2.802   1.266   5.636 -2.4644 -0.4028  0.4591
  336MOL0     H44303   2.811   1.273   5.328  2.3998  2.0992  0.0238
  336MOL0     H44304   2.806   1.123   5.407  1.1634  0.0767 -0.1835
  336MOL0     H44305   2.998   1.438   5.426 -0.1359  0.4853  0.5514
  336MOL0     H44306   3.319   1.410   5.550 -2.1422 -1.9439  2.1046
  336MOL0     H44307   3.255   1.503   5.412 -1.9777 -1.3806 -0.1808
  336MOL0     H44308   3.481   1.436   5.329  1.2437 -1.0187  1.6960
  336MOL0     H44309   3.405   1.306   5.265  2.1586  2.7488 -0.8526
  336MOL0     H44310   3.520   1.303   5.544  2.7694 -0.9231 -1.2824
  336MOL0     H44311   3.461   1.170   5.449 -0.3040 -0.1968 -0.9866
  336MOL0     H44312   3.644   1.171   5.295 -1.0455  0.0482  0.8409
  336MOL0     H44313   3.701   1.164   5.463 -3.0763 -2.3939  0.4133
  336MOL0     H44314   3.943   1.177   5.407  2.4506  0.8233 -1.6100
  336MOL0     H44315   4.137   1.249   5.538 -0.2826 -0.2002 -2.1846
  336MOL0     H44316   4.524   1.316   5.548  2.4289  3.2171 -1.2242
  336MOL0     H44317   4.724   1.305   5.667  0.3559 -0.4319  1.2757
  336MOL0     H44318   4.949   1.458   5.710  0.4944 -0.9308 -0.3155
  336MOL0     H44319   4.912   1.309   5.782  1.1055 -0.6349  1.8177
  336MOL0     H44320   5.002   1.399   6.004  2.0454 -0.2122 -0.2270
  336MOL0     H44321   5.034   1.551   5.915 -1.1691  0.2058  0.4606
  336MOL0     H44322   5.211   1.399   5.775  0.5897  1.1271  1.1077
  336MOL0     H44323   5.151   1.264   5.867  0.6676  0.2885 -1.2891
  336MOL0     H44324   5.365   1.314   5.953 -0.5484 -0.5255  0.4861
  336MOL0     H44325   5.320   1.489   5.985  0.4937 -0.3077  0.0663
  336MOL0     H44326   5.176   1.275   6.128  0.0427  0.5228  0.5108
  336MOL0     H44327   5.196   1.454   6.146  3.1718  0.6294  1.8725
  336MOL0     H44328   5.439   1.410   6.205  0.4563 -1.3350 -0.0287
  336MOL0     H44329   5.422   1.242   6.185  0.4448  1.3205 -2.2494
  336MOL0     H44330   5.298   1.416   6.414  0.9791  1.5741 -2.6404
  336MOL0     H44331   5.255   1.243   6.389 -3.2035  2.4618  0.0436
  336MOL0     H44332   5.545   1.315   6.433  0.3674  0.0100 -2.4768
  336MOL0     H44333   5.464   1.162   6.402 -3.6084  0.8496 -1.4448
  336MOL0     H44334   4.578   1.613   5.941  2.4822  0.0696  0.2726
  336MOL0     H44335   4.359   1.576   5.861 -2.5048 -0.7488 -2.1554
  336MOL0     H44336   3.924   1.624   5.618 -0.5603 -0.2222  0.4887
  336MOL0     H44337   3.763   1.562   5.449  1.3600  1.9989 -0.7602
  336MOL0     H44338   2.162   0.873   5.969  1.3393  1.2775 -2.7831
  336MOL0     H44339   2.048   0.706   6.103  1.9117  2.6131 -1.6095
  336MOL0     H44340   1.444   0.460   6.138 -1.2034  1.2534  1.8843
  336MOL0     H44341   1.366   0.342   6.332  0.1374 -3.2533 -0.4787
  336MOL0     H44342   1.408   0.138   6.481 -1.1810  0.8130 -0.3325
  336MOL0     H44343   1.350   0.298   6.545  1.3565  2.2184  4.0328
  336MOL0     H44344   1.327   0.111   6.714  0.0913 -0.1273 -1.3157
  336MOL0     H44345   1.497   0.095   6.709 -1.6976 -0.2529  0.2305
  336MOL0     H44346   1.445   0.231   6.907 -0.7282 -0.8508 -0.6079
  336MOL0     H44347   1.332   0.326   6.807  0.3793  0.9685 -1.3976
  336MOL0     H44348   1.629   0.344   6.784  2.3878  2.5812  0.7602
  336MOL0     H44349   1.500   0.464   6.725  1.5315 -0.4310 -1.8063
  336MOL0     H44350   1.551   0.589   7.121  0.6186  0.1781  0.2942
  336MOL0     H44351   1.774   0.346   6.476  4.2470  0.1540 -3.4971
  336MOL0     H44352   1.852   0.470   6.286 -0.6117 -0.0764 -3.9240
  337MOL0     O44353   8.863   9.654   6.503  0.7591  0.0904 -0.3868
  337MOL0     C44354   8.973   9.647   6.546  0.5842 -0.0166  0.7071
  337MOL0     O44355   9.018   9.719   6.649  0.4071  0.4632  0.7439
  337MOL0     C44356   8.937   9.789   6.731 -0.1656  0.7643  0.0441
  337MOL0     C44357   8.961   9.913   6.787  0.3910 -0.2657  0.3152
  337MOL0     C44358   8.878   9.975   6.886  0.0244  1.4567 -0.7462
  337MOL0     C44359   8.781   9.896   6.939  0.4358 -0.6017  0.3729
  337MOL0     O44360   8.715   9.950   7.046  0.1488  0.5970 -0.5241
  337MOL0     C44361   8.598   9.898   7.109 -0.1113 -0.4322  0.5669
  337MOL0     C44362   8.637   9.783   7.201  0.0137  0.8880 -0.1570
  337MOL0     C44363   8.767   9.802   7.279 -0.1549  0.0293 -1.3294
  337MOL0     C44364   8.813   9.690   7.379 -0.0605 -0.1743 -0.8160
  337MOL0     C44365   8.938   9.727   7.458  0.0504  0.1051 -0.4170
  337MOL0     C44366   9.019   9.602   7.516 -0.7549 -0.5512  0.4659
  337MOL0     C44367   8.937   9.529   7.622 -0.6390  0.0758  0.0802
  337MOL0     C44368   9.020   9.449   7.709 -0.1238  0.2429 -0.8543
  337MOL0     N44369   9.095   9.347   7.634  0.1237  1.0270  0.4124
  337MOL0     C44370   9.048   9.220   7.600  0.1562 -0.2057  0.0887
  337MOL0     C44371   9.170   9.147   7.601  0.2185 -0.0394 -0.1134
  337MOL0     C44372   9.196   9.002   7.602  1.2426  0.6667 -0.1392
  337MOL0     C44373   9.113   8.930   7.494 -0.3532 -0.4591  0.9463
  337MOL0     C44374   9.155   8.964   7.349  0.0035 -0.4294  0.5193
  337MOL0     C44375   9.074   9.085   7.289 -1.0291  0.2395  0.4611
  337MOL0     O44376   8.935   9.074   7.314  0.0210 -0.1834  0.3109
  337MOL0     C44377   8.854   9.161   7.243 -0.5445  0.0327 -0.9561
  337MOL0     C44378   8.885   9.290   7.208  0.7631 -0.2611 -0.0441
  337MOL0     C44379   8.786   9.368   7.144 -0.8440 -0.7750 -1.3985
  337MOL0     C44380   8.655   9.322   7.118 -0.7760 -0.9179  0.4676
  337MOL0     C44381   8.560   9.388   7.026  0.8951  0.3199  0.2158
  337MOL0     O44382   8.465   9.311   6.969  0.8830 -0.3527  0.5587
  337MOL0     C44383   8.381   9.361   6.876 -0.4070  0.3062  0.1068
  337MOL0     C44384   8.313   9.485   6.881  0.0551 -0.5979 -0.2312
  337MOL0     C44385   8.214   9.517   6.783  0.3935  0.3229  0.2961
  337MOL0     C44386   8.168   9.426   6.692  0.5194 -0.3027 -1.3488
  337MOL0     O44387   8.070   9.441   6.600  0.7838 -0.2881  0.4981
  337MOL0     C44388   7.999   9.556   6.600 -0.3301 -0.5480 -0.2450
  337MOL0     C44389   7.874   9.529   6.518 -0.0421 -0.4500 -0.7600
  337MOL0     C44390   7.894   9.482   6.370 -0.2606  0.0681 -0.1464
  337MOL0     C44391   7.782   9.401   6.309 -0.3290  1.3728  0.5400
  337MOL0     C44392   7.654   9.479   6.294  0.0945 -0.1819 -1.2875
  337MOL0     C44393   7.538   9.382   6.277  0.0518  0.5964  0.7103
  337MOL0     C44394   7.409   9.453   6.278  0.1023  0.0773 -1.2045
  337MOL0     C44395   7.282   9.378   6.272 -0.0427  0.0594  0.0242
  337MOL0    Cl44396   7.227   9.318   6.111  0.6250  0.1640 -0.2486
  337MOL0     C44397   8.238   9.309   6.691  0.6157  0.9141  0.3826
  337MOL0     C44398   8.344   9.271   6.774  0.5603 -0.4420 -0.4238
  337MOL0     O44399   8.580   9.504   7.004 -0.6200 -0.4636 -0.0324
  337MOL0     C44400   8.631   9.203   7.179  0.6270 -0.0550  0.5613
  337MOL0     C44401   8.727   9.123   7.235 -0.2486 -1.6307 -0.0676
  337MOL0     N44402   9.277   9.233   7.622  0.7378  1.0382  0.8626
  337MOL0     N44403   9.229   9.348   7.640  0.3539 -0.0958 -0.0462
  337MOL0     C44404   8.746   9.775   6.882 -0.2618 -0.0773  0.2188
  337MOL0     C44405   8.823   9.718   6.785 -0.2014 -0.0084  1.3993
  337MOL0     C44406   9.057   9.543   6.492  0.4927 -1.4504 -0.4092
  337MOL0     C44407   9.019   9.468   6.383  0.8661  0.2207 -0.2563
  337MOL0     C44408   9.080   9.347   6.353  0.3584  0.3133 -0.2263
  337MOL0     C44409   9.200   9.309   6.422 -0.0105  0.4840 -0.4596
  337MOL0     O44410   9.279   9.213   6.375  0.0317  0.3870 -0.2798
  337MOL0     C44411   9.229   9.082   6.352  0.4104 -0.2307 -0.2693
  337MOL0     C44412   9.338   9.010   6.285  0.0454 -0.6848  0.7758
  337MOL0     C44413   9.378   9.085   6.150  0.0483 -0.2957 -0.3888
  337MOL0     C44414   9.480   9.006   6.072 -0.9637 -0.5084  0.8107
  337MOL0     C44415   9.417   8.898   5.998  0.1308 -0.2055  0.5924
  337MOL0     C44416   9.364   8.811   5.931 -0.5983  0.6864 -0.1761
  337MOL0     C44417   9.242   9.389   6.520 -0.3554 -0.0325 -0.4826
  337MOL0     C44418   9.171   9.502   6.561 -0.3003 -0.6546  0.6537
  337MOL0     H44419   9.050   9.970   6.763 -0.0778  0.1852 -0.4274
  337MOL0     H44420   8.906  10.076   6.913  2.8353  1.5306 -3.4231
  337MOL0     H44421   8.514   9.874   7.043  0.7566 -0.1887 -0.6477
  337MOL0     H44422   8.569   9.984   7.170  0.7631 -0.4169  0.9774
  337MOL0     H44423   8.648   9.689   7.146 -2.3840 -1.8207  3.5153
  337MOL0     H44424   8.554   9.775   7.271 -0.1170  1.0430 -0.2956
  337MOL0     H44425   8.758   9.890   7.344  4.2903 -0.1951 -0.0242
  337MOL0     H44426   8.849   9.819   7.208 -0.3026  1.2516 -1.2211
  337MOL0     H44427   8.726   9.668   7.442 -1.0780 -0.6066 -2.3134
  337MOL0     H44428   8.827   9.604   7.312  2.2478  0.1524 -0.8181
  337MOL0     H44429   8.917   9.800   7.536  2.3281  0.2106  0.1830
  337MOL0     H44430   8.998   9.782   7.385 -0.3392  0.6539 -0.3245
  337MOL0     H44431   9.112   9.643   7.557 -0.9819  4.7453 -3.3518
  337MOL0     H44432   9.043   9.531   7.436 -1.4142  0.2190 -0.4329
  337MOL0     H44433   8.884   9.609   7.674 -2.2592 -0.4604 -0.6809
  337MOL0     H44434   8.859   9.471   7.571 -2.8972  0.7556  2.5791
  337MOL0     H44435   8.957   9.414   7.792 -1.0548  1.1416 -1.1593
  337MOL0     H44436   9.094   9.514   7.757 -0.7472 -0.1378  0.6941
  337MOL0     H44437   8.944   9.193   7.598 -0.0811  0.7209 -1.1636
  337MOL0     H44438   9.175   8.965   7.703 -0.0036 -1.7317 -1.1859
  337MOL0     H44439   9.300   8.971   7.593  0.4668 -2.4522  0.1621
  337MOL0     H44440   9.009   8.953   7.521  0.4248  2.9182  1.5101
  337MOL0     H44441   9.134   8.823   7.507 -0.6074 -0.3259  2.6348
  337MOL0     H44442   9.263   8.980   7.352  0.6283 -3.6111 -0.8700
  337MOL0     H44443   9.151   8.881   7.278 -0.3488  0.8587 -0.9970
  337MOL0     H44444   9.091   9.085   7.181 -2.9975  6.2958 -0.2634
  337MOL0     H44445   9.109   9.182   7.326 -0.2300  0.3777 -0.6037
  337MOL0     H44446   8.979   9.341   7.224  0.5111 -0.3535  1.8926
  337MOL0     H44447   8.825   9.463   7.110  2.9277 -1.3302  0.7896
  337MOL0     H44448   8.346   9.570   6.940 -3.0113 -0.8942  2.1940
  337MOL0     H44449   8.166   9.614   6.791  0.3794  0.3480 -0.0669
  337MOL0     H44450   8.057   9.634   6.551  0.8068 -0.1497  1.6043
  337MOL0     H44451   7.970   9.586   6.701 -1.2608 -0.2347 -0.5962
  337MOL0     H44452   7.815   9.621   6.526  1.9918  0.9496 -1.0019
  337MOL0     H44453   7.818   9.453   6.573  1.6605 -0.6162  0.8463
  337MOL0     H44454   7.991   9.431   6.369  1.0272  1.6453  5.6203
  337MOL0     H44455   7.909   9.575   6.316 -0.8976  0.8060  0.9119
  337MOL0     H44456   7.808   9.372   6.207 -0.6165  1.2795  0.4930
  337MOL0     H44457   7.760   9.313   6.370 -0.5337  0.2700 -1.0770
  337MOL0     H44458   7.659   9.539   6.203 -0.0616 -1.7135 -2.3385
  337MOL0     H44459   7.631   9.538   6.383  2.6920 -0.8271 -0.1162
  337MOL0     H44460   7.535   9.307   6.357 -3.1947 -1.0901 -0.8418
  337MOL0     H44461   7.548   9.329   6.183 -3.3972  2.8478 -1.1258
  337MOL0     H44462   7.407   9.503   6.375  2.2733 -0.6965 -0.6960
  337MOL0     H44463   7.415   9.532   6.201  1.5322 -0.1440 -1.3561
  337MOL0     H44464   7.208   9.445   6.317 -0.5786  0.6670 -1.7008
  337MOL0     H44465   7.280   9.302   6.351  1.2299  0.0450  0.0624
  337MOL0     H44466   8.192   9.237   6.624  1.0304  1.5652 -0.6272
  337MOL0     H44467   8.373   9.167   6.776 -3.0930 -1.5910  0.1908
  337MOL0     H44468   8.528   9.169   7.182  0.0313  1.6938  2.9963
  337MOL0     H44469   8.702   9.023   7.267 -2.4083 -1.2267 -0.3429
  337MOL0     H44470   8.660   9.712   6.902  0.5293 -2.6689 -3.4956
  337MOL0     H44471   8.800   9.620   6.745  1.2800  1.6618 -4.6185
  337MOL0     H44472   8.929   9.485   6.325  1.3163  2.9984 -0.2304
  337MOL0     H44473   9.039   9.291   6.270 -1.1574 -1.5744  1.6937
  337MOL0     H44474   9.133   9.084   6.300 -0.4767 -0.1696  1.3149
  337MOL0     H44475   9.215   9.034   6.449  1.4648  1.1304  0.5805
  337MOL0     H44476   9.422   9.011   6.355  0.2602 -2.6112  0.5932
  337MOL0     H44477   9.315   8.906   6.261 -0.1202 -0.4457 -0.1622
  337MOL0     H44478   9.433   9.175   6.176  0.8843 -0.5108 -1.3720
  337MOL0     H44479   9.291   9.115   6.091 -1.3443 -1.6447  0.8514
  337MOL0     H44480   9.525   9.072   5.997 -2.1380 -0.2003  0.3638
  337MOL0     H44481   9.561   8.964   6.133 -0.4247 -2.4022 -1.0933
  337MOL0     H44482   9.327   8.744   5.856  0.0122  0.9070 -0.6814
  337MOL0     H44483   9.340   9.386   6.565 -0.0424  5.0702 -0.1994
  337MOL0     H44484   9.226   9.565   6.631  1.9841 -0.7721 -0.9053
  338MOL0     O44485   6.512   6.709   9.377  0.0766 -0.1967 -0.1426
  338MOL0     C44486   6.533   6.664   9.491  0.4700  0.4886  0.4483
  338MOL0     O44487   6.627   6.711   9.586  0.5401  0.2952 -0.8481
  338MOL0     C44488   6.698   6.822   9.543 -0.3468 -0.2018 -0.1661
  338MOL0     C44489   6.632   6.939   9.507 -0.4288  0.7392 -0.7852
  338MOL0     C44490   6.708   7.058   9.500  0.3709  0.0182 -0.1574
  338MOL0     C44491   6.850   7.059   9.517 -0.3263  0.4617  0.6152
  338MOL0     O44492   6.935   7.168   9.496  1.2962  0.8175  0.8214
  338MOL0     C44493   6.874   7.301   9.495 -0.4294 -0.5468  0.0009
  338MOL0     C44494   6.987   7.402   9.491 -0.4823  0.1953 -0.2724
  338MOL0     C44495   7.047   7.418   9.349  0.1724 -0.2205  0.0675
  338MOL0     C44496   7.172   7.493   9.369 -0.1580  0.4110  0.0095
  338MOL0     C44497   7.235   7.541   9.236  0.9505 -1.1778  0.0785
  338MOL0     C44498   7.282   7.426   9.137  0.8450  0.0863 -1.0345
  338MOL0     C44499   7.414   7.353   9.179 -0.4863  0.1333 -0.4532
  338MOL0     C44500   7.504   7.283   9.066  0.5141 -0.1627  0.0454
  338MOL0     N44501   7.541   7.402   8.981  0.4360  0.4343 -0.4245
  338MOL0     C44502   7.613   7.512   9.023 -1.0645 -0.3355 -0.4195
  338MOL0     C44503   7.608   7.592   8.913 -0.1435 -0.4516 -0.2764
  338MOL0     C44504   7.662   7.729   8.893 -0.2258  0.0715 -0.3936
  338MOL0     C44505   7.810   7.742   8.932  0.3250  0.2906 -0.1307
  338MOL0     C44506   7.920   7.702   8.835 -0.7960  0.5574  0.0385
  338MOL0     C44507   8.057   7.713   8.905  0.0820 -0.3437  0.8276
  338MOL0     O44508   8.160   7.702   8.811 -0.0403  0.7187  0.1450
  338MOL0     C44509   8.296   7.712   8.836 -0.2253  0.7760  0.2462
  338MOL0     C44510   8.384   7.716   8.737  0.1479 -1.0422 -0.0710
  338MOL0     C44511   8.521   7.752   8.767  0.1475  0.3104  1.0840
  338MOL0     C44512   8.568   7.763   8.891 -0.3990 -0.3796 -0.4772
  338MOL0     C44513   8.715   7.794   8.909 -0.8568  0.0965 -0.0909
  338MOL0     O44514   8.764   7.756   9.032  0.0371 -0.1247  0.1211
  338MOL0     C44515   8.885   7.795   9.087 -0.7376  0.3196  0.5378
  338MOL0     C44516   8.884   7.837   9.224  0.1658 -0.0513  0.0734
  338MOL0     C44517   9.003   7.871   9.286 -0.3311  0.1727 -0.7132
  338MOL0     C44518   9.127   7.864   9.213  0.5446  0.2525  0.1987
  338MOL0     O44519   9.255   7.890   9.258 -1.0276  0.0109  0.2911
  338MOL0     C44520   9.271   7.971   9.368 -0.1992  0.1729 -0.4186
  338MOL0     C44521   9.238   8.117   9.338 -0.1232 -0.8735 -0.1973
  338MOL0     C44522   9.223   8.200   9.463  0.4481  0.1709 -0.9235
  338MOL0     C44523   9.167   8.338   9.426 -0.4036  0.3344 -0.1392
  338MOL0     C44524   9.232   8.447   9.506 -1.0107 -0.3408 -0.6022
  338MOL0     C44525   9.380   8.470   9.479 -0.4330 -0.2878  0.6326
  338MOL0     C44526   9.442   8.572   9.574 -0.0246 -0.7918 -0.3310
  338MOL0     C44527   9.534   8.496   9.665  0.1301 -0.8707  0.5769
  338MOL0    Cl44528   9.649   8.630   9.711  0.1376  0.2393  0.0371
  338MOL0     C44529   9.120   7.825   9.083 -0.0871 -0.6149 -0.1780
  338MOL0     C44530   9.005   7.789   9.019 -0.1025  0.0422  0.2263
  338MOL0     O44531   8.789   7.836   8.818  0.1237  1.0888 -0.3682
  338MOL0     C44532   8.474   7.759   8.995  0.2028  0.3567  0.3322
  338MOL0     C44533   8.341   7.726   8.969 -0.1816  0.0518 -0.4040
  338MOL0     N44534   7.537   7.528   8.817 -0.5875  0.0631  0.6373
  338MOL0     N44535   7.492   7.415   8.860  0.0835 -0.9832  0.0036
  338MOL0     C44536   6.907   6.933   9.545  0.1887  0.1776  0.0851
  338MOL0     C44537   6.840   6.821   9.555 -0.2041 -0.7960 -0.4363
  338MOL0     C44538   6.455   6.542   9.536 -1.2288  0.1574  0.5126
  338MOL0     C44539   6.503   6.476   9.656 -0.0708  0.3635 -0.6181
  338MOL0     C44540   6.452   6.347   9.697 -0.0751  0.3733  0.0340
  338MOL0     C44541   6.351   6.292   9.621 -0.4562  0.2768 -0.0293
  338MOL0     O44542   6.291   6.182   9.676 -1.2361  0.6076  0.8179
  338MOL0     C44543   6.363   6.062   9.645  1.0443  0.9213  0.6400
  338MOL0     C44544   6.327   5.933   9.723  0.2696 -0.7017  0.7829
  338MOL0     C44545   6.350   5.939   9.875 -0.6585 -0.1079  0.2214
  338MOL0     C44546   6.224   5.909   9.963 -0.7595  0.1513  0.0182
  338MOL0     C44547   6.251   5.923  10.106 -0.4023 -0.4796 -0.3810
  338MOL0     C44548   6.251   5.945  10.227  0.4721 -0.4008  0.1016
  338MOL0     C44549   6.294   6.358   9.507  0.4954  0.0745  0.0380
  338MOL0     C44550   6.349   6.483   9.465 -0.5611  0.5429 -0.0785
  338MOL0     H44551   6.523   6.935   9.503 -0.3594 -1.1120 -2.6458
  338MOL0     H44552   6.656   7.153   9.487 -0.7656 -0.4480  0.8796
  338MOL0     H44553   6.826   7.320   9.592  1.1680 -5.9446  2.2230
  338MOL0     H44554   6.809   7.320   9.410 -0.6720  1.9874  0.6725
  338MOL0     H44555   7.064   7.369   9.561 -1.5461 -0.7665  0.4739
  338MOL0     H44556   6.937   7.495   9.523 -0.6621 -0.6784  2.1889
  338MOL0     H44557   6.978   7.475   9.287  0.2114  1.1527  1.2481
  338MOL0     H44558   7.063   7.321   9.300 -0.2832  0.0583 -0.6452
  338MOL0     H44559   7.172   7.574   9.442  1.5111  2.1281 -1.7610
  338MOL0     H44560   7.249   7.422   9.402 -1.5479 -1.3662 -0.4139
  338MOL0     H44561   7.314   7.614   9.255 -0.3959 -0.0119  1.4851
  338MOL0     H44562   7.157   7.592   9.180  1.1186  0.8706  1.5956
  338MOL0     H44563   7.307   7.481   9.046 -0.8508  1.9467 -0.4366
  338MOL0     H44564   7.197   7.361   9.114  1.2454 -0.7006 -0.3345
  338MOL0     H44565   7.465   7.427   9.242 -4.7146  1.1189  2.2466
  338MOL0     H44566   7.391   7.272   9.249 -1.1512  3.2049  3.2733
  338MOL0     H44567   7.444   7.205   9.017  0.0433 -0.8835  1.7203
  338MOL0     H44568   7.590   7.231   9.108 -1.2083 -1.7430  1.8075
  338MOL0     H44569   7.665   7.533   9.116  0.3236  0.6071 -1.3504
  338MOL0     H44570   7.598   7.791   8.957  0.0832 -0.8889  0.8712
  338MOL0     H44571   7.652   7.758   8.788 -0.2402 -0.1942 -0.4665
  338MOL0     H44572   7.823   7.679   9.021  0.9612 -0.9739 -1.0894
  338MOL0     H44573   7.833   7.849   8.933  0.1190  0.4095 -2.5158
  338MOL0     H44574   7.905   7.601   8.795 -0.0237  1.7578 -3.5715
  338MOL0     H44575   7.921   7.776   8.755 -1.5250 -0.4713 -0.9673
  338MOL0     H44576   8.064   7.641   8.987  3.5551 -0.2395  0.7409
  338MOL0     H44577   8.059   7.813   8.949 -3.5331  0.2486 -0.0142
  338MOL0     H44578   8.360   7.703   8.632  0.4654 -2.0351 -0.0307
  338MOL0     H44579   8.576   7.767   8.675 -1.5969  1.9752  0.2311
  338MOL0     H44580   8.793   7.824   9.282 -0.8203  1.7871 -0.9702
  338MOL0     H44581   9.021   7.899   9.389  1.6175 -0.6780 -0.7923
  338MOL0     H44582   9.373   7.961   9.406  0.1433  0.2911 -1.2979
  338MOL0     H44583   9.216   7.936   9.456  1.8430  0.0428  0.8821
  338MOL0     H44584   9.148   8.115   9.276 -0.2564  0.1371 -0.0594
  338MOL0     H44585   9.316   8.158   9.273 -0.2679  0.0792  0.2040
  338MOL0     H44586   9.317   8.216   9.516 -0.4290 -0.9721  1.0719
  338MOL0     H44587   9.147   8.161   9.531 -0.4137  1.7940 -0.8847
  338MOL0     H44588   9.168   8.363   9.320  1.0631  0.1082 -0.2028
  338MOL0     H44589   9.060   8.337   9.449 -0.4605 -4.7250  0.5631
  338MOL0     H44590   9.212   8.429   9.612 -0.5835  4.1007  0.4471
  338MOL0     H44591   9.179   8.541   9.489 -0.0335  0.5871  1.1390
  338MOL0     H44592   9.381   8.524   9.383 -0.5625  0.6948  1.1678
  338MOL0     H44593   9.429   8.372   9.474 -2.6043 -1.3819 -2.4307
  338MOL0     H44594   9.485   8.666   9.537 -0.3916  0.7936  2.9030
  338MOL0     H44595   9.359   8.613   9.631 -1.3064 -0.0992 -2.5410
  338MOL0     H44596   9.592   8.418   9.613 -0.0632 -1.0296  0.5999
  338MOL0     H44597   9.485   8.452   9.752 -2.6005  1.6538  0.4858
  338MOL0     H44598   9.209   7.829   9.020  1.5569  0.2980  2.0498
  338MOL0     H44599   9.006   7.763   8.913 -0.1723  3.5085 -0.7403
  338MOL0     H44600   8.498   7.776   9.100 -4.2235  2.3635  1.2843
  338MOL0     H44601   8.266   7.734   9.047  0.7483  2.6583  0.3093
  338MOL0     H44602   7.013   6.928   9.564  0.4652 -1.7860 -1.5969
  338MOL0     H44603   6.891   6.729   9.583  2.4172  1.4895  3.1437
  338MOL0     H44604   6.587   6.510   9.716  0.8029 -1.9888 -0.3920
  338MOL0     H44605   6.489   6.295   9.784 -3.0852 -0.4533  0.9312
  338MOL0     H44606   6.470   6.067   9.671  1.2634 -1.6814  0.4851
  338MOL0     H44607   6.361   6.045   9.537  4.8467  0.1132  0.5627
  338MOL0     H44608   6.225   5.903   9.698  0.4845  0.4411 -1.6855
  338MOL0     H44609   6.391   5.849   9.697  1.5423  1.0520 -2.1834
  338MOL0     H44610   6.392   6.039   9.885 -1.2963  0.5327 -2.5962
  338MOL0     H44611   6.427   5.864   9.898  0.3448  0.8023 -0.0947
  338MOL0     H44612   6.156   5.992   9.944  1.6765  2.5845  1.2245
  338MOL0     H44613   6.183   5.810   9.938 -2.3526  0.9552 -0.7556
  338MOL0     H44614   6.264   5.944  10.333  2.4733 -1.1279 -0.0906
  338MOL0     H44615   6.221   6.306   9.447  0.6384  0.9554 -0.9271
  338MOL0     H44616   6.331   6.529   9.368 -2.4973 -0.9059 -0.4793
  339MOL0     O44617   4.376   6.997   3.510 -0.8743  0.5496 -0.8225
  339MOL0     C44618   4.255   6.970   3.493 -0.1411  0.0864 -0.4148
  339MOL0     O44619   4.187   6.844   3.525 -0.8782  0.1588  0.0878
  339MOL0     C44620   4.281   6.742   3.548  1.2263  0.3697 -0.8250
  339MOL0     C44621   4.371   6.743   3.658 -0.2640  0.0816  0.2197
  339MOL0     C44622   4.458   6.632   3.679  0.0309  0.0488  0.5454
  339MOL0     C44623   4.447   6.514   3.601  0.6976 -0.0204 -0.3172
  339MOL0     O44624   4.537   6.412   3.629  0.2344  0.5662  0.6477
  339MOL0     C44625   4.501   6.272   3.600  0.2823  0.2582  0.7716
  339MOL0     C44626   4.551   6.210   3.470 -0.0518 -0.2288  0.1495
  339MOL0     C44627   4.702   6.176   3.458 -0.4651  0.4606 -0.2593
  339MOL0     C44628   4.742   6.054   3.369  0.0699 -0.4922  0.3450
  339MOL0     C44629   4.896   6.054   3.374  0.6361 -1.0124  0.4049
  339MOL0     C44630   4.943   5.924   3.302 -0.8790 -0.5239  0.0727
  339MOL0     C44631   5.103   5.908   3.297  0.0455  0.1704 -0.2058
  339MOL0     C44632   5.147   5.841   3.420  0.5135  0.1317 -0.2705
  339MOL0     N44633   5.285   5.883   3.457 -0.6783 -0.0863  0.0620
  339MOL0     C44634   5.341   6.007   3.469 -1.4294  0.7881 -0.3508
  339MOL0     C44635   5.461   5.986   3.526 -0.5450 -0.4136 -0.0318
  339MOL0     C44636   5.548   6.095   3.568  0.4613 -0.2439 -0.4966
  339MOL0     C44637   5.665   6.038   3.661  0.4929  0.9759  0.4185
  339MOL0     C44638   5.753   6.159   3.721 -0.1289  0.3484 -0.3370
  339MOL0     C44639   5.843   6.217   3.613 -0.4366 -0.3439 -0.5741
  339MOL0     O44640   5.892   6.344   3.666  0.0339  0.2907  0.1208
  339MOL0     C44641   5.995   6.345   3.755 -0.6989 -0.4452 -0.6475
  339MOL0     C44642   6.024   6.456   3.838 -0.0850 -0.2416 -0.0067
  339MOL0     C44643   6.134   6.474   3.921  0.0167  0.7472 -0.5247
  339MOL0     C44644   6.227   6.370   3.932  0.1504 -0.7895  0.2069
  339MOL0     C44645   6.336   6.375   4.018 -0.2357  0.0028 -0.2171
  339MOL0     O44646   6.341   6.481   4.102  0.6737  1.1347  0.2377
  339MOL0     C44647   6.434   6.485   4.205  0.0265 -0.4209 -0.2674
  339MOL0     C44648   6.480   6.610   4.228 -0.5914  0.5079  0.1677
  339MOL0     C44649   6.594   6.624   4.308  0.9136  0.0592 -0.3632
  339MOL0     C44650   6.653   6.519   4.387 -0.1091  1.4446  0.0586
  339MOL0     O44651   6.748   6.524   4.493 -0.5853  0.1202  0.0861
  339MOL0     C44652   6.827   6.641   4.502 -0.4584  0.3152 -0.0537
  339MOL0     C44653   6.940   6.623   4.611 -0.2303 -0.1618  1.1179
  339MOL0     C44654   7.042   6.513   4.583 -0.0734  1.0421 -0.2943
  339MOL0     C44655   7.152   6.493   4.696 -0.5126 -0.2651 -0.4571
  339MOL0     C44656   7.225   6.362   4.682  0.2260  0.9660 -0.1642
  339MOL0     C44657   7.141   6.239   4.720  0.7181  1.1720 -0.1043
  339MOL0     C44658   7.217   6.105   4.738  0.6784 -0.5360  0.1732
  339MOL0     C44659   7.242   6.012   4.617  0.2834 -0.5478 -0.1057
  339MOL0    Cl44660   7.073   5.965   4.561 -0.0362  0.2677 -0.1067
  339MOL0     C44661   6.593   6.388   4.367  0.6477  0.2766  0.0844
  339MOL0     C44662   6.491   6.372   4.272 -0.6908 -0.1551 -0.1987
  339MOL0     O44663   6.419   6.281   4.005  0.3359 -0.6122 -0.3692
  339MOL0     C44664   6.204   6.257   3.853 -0.3949 -0.1900 -0.7210
  339MOL0     C44665   6.090   6.246   3.777 -0.1132  0.9519  0.1319
  339MOL0     N44666   5.482   5.848   3.541 -0.4974 -0.2284 -0.0286
  339MOL0     N44667   5.376   5.790   3.497 -0.8158  0.0591  0.1618
  339MOL0     C44668   4.354   6.513   3.489 -0.9680  0.0611 -0.7584
  339MOL0     C44669   4.274   6.626   3.471 -0.9599 -0.6335  0.4146
  339MOL0     C44670   4.176   7.090   3.478  0.0859 -0.2989 -0.7919
  339MOL0     C44671   4.229   7.226   3.500  1.5068 -0.1663 -0.6043
  339MOL0     C44672   4.149   7.336   3.475 -0.0952  0.3436 -0.3680
  339MOL0     C44673   4.022   7.330   3.424 -0.0388 -0.1510  0.4038
  339MOL0     O44674   3.956   7.443   3.379 -0.3444 -0.3714 -0.1106
  339MOL0     C44675   3.960   7.449   3.234  1.0225 -0.2575  0.6718
  339MOL0     C44676   3.862   7.542   3.166 -0.0733 -0.6554  0.2865
  339MOL0     C44677   3.867   7.517   3.018 -0.6113  0.6547  0.0184
  339MOL0     C44678   3.753   7.613   2.952 -0.8879  1.4141 -0.2048
  339MOL0     C44679   3.624   7.575   2.984  1.3991 -0.0667  0.8292
  339MOL0     C44680   3.506   7.556   2.993  0.6537  0.4160  0.0807
  339MOL0     C44681   3.966   7.202   3.423 -0.6909  0.1962 -0.0540
  339MOL0     C44682   4.038   7.080   3.440 -0.4514 -0.2928  0.3349
  339MOL0     H44683   4.364   6.832   3.719 -2.3295  1.0716 -1.3372
  339MOL0     H44684   4.536   6.634   3.755  3.5758  1.0679 -2.8172
  339MOL0     H44685   4.392   6.268   3.608  0.3700 -0.7779  1.9392
  339MOL0     H44686   4.522   6.199   3.679 -3.1047 -3.1712 -1.1636
  339MOL0     H44687   4.542   6.286   3.393 -3.9715  0.8127  1.4214
  339MOL0     H44688   4.494   6.123   3.436  2.1550 -0.6381 -2.9983
  339MOL0     H44689   4.729   6.147   3.560  2.9776  1.5734 -0.7109
  339MOL0     H44690   4.760   6.262   3.421  0.3414 -0.9307 -2.4874
  339MOL0     H44691   4.701   5.965   3.418  2.6219 -3.2714 -2.1195
  339MOL0     H44692   4.704   6.037   3.268  3.0377 -4.3570 -0.3995
  339MOL0     H44693   4.925   6.054   3.479 -0.2939 -1.7280  0.6785
  339MOL0     H44694   4.934   6.142   3.321  1.2197 -2.0737 -1.0015
  339MOL0     H44695   4.907   5.918   3.199 -0.6917 -0.7422  0.0188
  339MOL0     H44696   4.895   5.838   3.349  0.0375 -0.7771  0.5595
  339MOL0     H44697   5.124   5.837   3.216 -1.3027 -0.0324 -0.4011
  339MOL0     H44698   5.154   6.002   3.275 -0.5682  0.5333 -0.0949
  339MOL0     H44699   5.144   5.731   3.420  1.4754  0.1028  0.2787
  339MOL0     H44700   5.078   5.878   3.496  0.4997  1.5153 -0.9360
  339MOL0     H44701   5.299   6.105   3.449  0.1484  1.3323 -1.0785
  339MOL0     H44702   5.494   6.176   3.618  0.8788  1.1169 -2.1476
  339MOL0     H44703   5.586   6.148   3.480  3.1814  1.0983  1.3498
  339MOL0     H44704   5.727   5.975   3.597 -0.4679 -1.8889  2.1096
  339MOL0     H44705   5.621   5.972   3.736  0.7491  1.1484  0.7285
  339MOL0     H44706   5.683   6.235   3.757  1.2196  2.4123 -1.9046
  339MOL0     H44707   5.821   6.120   3.797  1.2115 -1.6198 -2.4053
  339MOL0     H44708   5.781   6.253   3.531 -1.0616  2.2558  0.8988
  339MOL0     H44709   5.926   6.152   3.584 -1.7796 -1.4450 -2.1378
  339MOL0     H44710   5.951   6.537   3.833  0.7343  0.5430  0.5880
  339MOL0     H44711   6.148   6.558   3.989 -2.8085  1.0567 -0.1861
  339MOL0     H44712   6.431   6.690   4.174 -3.3938  0.0097  1.7402
  339MOL0     H44713   6.613   6.726   4.340 -0.2032 -0.6426  3.0334
  339MOL0     H44714   6.761   6.723   4.529  1.6834  2.4971 -1.0650
  339MOL0     H44715   6.859   6.666   4.401 -1.2041 -0.6600 -0.5569
  339MOL0     H44716   6.883   6.608   4.702 -1.5750  0.9893  0.4966
  339MOL0     H44717   6.997   6.716   4.620 -0.5710  0.1590  0.1039
  339MOL0     H44718   7.092   6.540   4.490  0.4589 -1.7953 -0.9439
  339MOL0     H44719   6.985   6.424   4.554 -0.2484  0.8913  0.4857
  339MOL0     H44720   7.215   6.583   4.697 -0.8869  0.0754 -2.4473
  339MOL0     H44721   7.116   6.489   4.799  1.6927 -0.0094  0.3775
  339MOL0     H44722   7.314   6.363   4.745  1.8180  0.6305 -2.2908
  339MOL0     H44723   7.271   6.344   4.584  1.9212 -3.2084  1.1867
  339MOL0     H44724   7.062   6.217   4.647 -0.4411 -1.2606  1.7646
  339MOL0     H44725   7.077   6.280   4.799 -1.7680 -0.0337 -1.3773
  339MOL0     H44726   7.309   6.127   4.794 -0.0537  0.2519  1.0836
  339MOL0     H44727   7.162   6.051   4.816  1.3362  0.0495  1.0640
  339MOL0     H44728   7.296   5.923   4.649  0.8552 -1.0802 -2.3866
  339MOL0     H44729   7.301   6.064   4.541  2.4515  2.5090  3.3730
  339MOL0     H44730   6.623   6.297   4.418  1.4844  2.1345  3.1242
  339MOL0     H44731   6.458   6.270   4.257  0.2808 -0.2767 -1.8298
  339MOL0     H44732   6.274   6.173   3.855  0.5882  0.5812 -1.3970
  339MOL0     H44733   6.096   6.157   3.716  2.0414  0.7623  0.5451
  339MOL0     H44734   4.344   6.425   3.425 -1.5127 -2.5112  2.5984
  339MOL0     H44735   4.205   6.622   3.387 -0.8492 -1.8407  0.3613
  339MOL0     H44736   4.331   7.248   3.531  1.1454  0.9733 -0.1788
  339MOL0     H44737   4.194   7.434   3.495 -0.1135  0.2486  0.1446
  339MOL0     H44738   3.960   7.351   3.186 -1.2424  0.9662 -2.0545
  339MOL0     H44739   4.061   7.491   3.228  1.4282 -0.6160  3.4016
  339MOL0     H44740   3.763   7.505   3.194  0.5824 -1.1796  2.0857
  339MOL0     H44741   3.888   7.645   3.192 -0.2550 -1.1474  2.6725
  339MOL0     H44742   3.842   7.416   2.987  1.4529  0.2802 -0.6048
  339MOL0     H44743   3.965   7.542   2.974 -0.0925 -0.0038  0.7802
  339MOL0     H44744   3.775   7.712   2.994 -0.3940  0.1606  2.6716
  339MOL0     H44745   3.768   7.604   2.844  1.9272  0.0789  0.2027
  339MOL0     H44746   3.400   7.539   2.998  0.4142  2.0935  2.3611
  339MOL0     H44747   3.865   7.193   3.383 -1.2505  2.7568  0.5652
  339MOL0     H44748   3.986   6.989   3.413 -0.2898 -0.1853 -0.3550
  340MOL0     O44749   1.328   1.192   3.425 -0.3395 -0.1581 -0.3190
  340MOL0     C44750   1.222   1.199   3.367  0.1862  0.3892  0.1391
  340MOL0     O44751   1.177   1.306   3.306  0.1146  0.5818 -0.3124
  340MOL0     C44752   1.251   1.420   3.278 -0.0554 -0.0338 -0.1260
  340MOL0     C44753   1.174   1.520   3.222 -0.3086 -0.3590 -0.0543
  340MOL0     C44754   1.231   1.643   3.176  0.4011  0.3487 -0.0285
  340MOL0     C44755   1.366   1.676   3.209 -0.2081  0.4706 -0.5940
  340MOL0     O44756   1.415   1.799   3.185 -0.2457  0.5662 -1.1161
  340MOL0     C44757   1.330   1.899   3.137 -0.3208  0.3737 -0.1374
  340MOL0     C44758   1.415   2.024   3.124 -0.0320  0.1711 -0.1051
  340MOL0     C44759   1.332   2.143   3.062 -0.6358 -0.0631  0.1334
  340MOL0     C44760   1.275   2.102   2.928  0.8284 -0.1647 -0.1973
  340MOL0     C44761   1.229   2.225   2.850 -1.2307 -0.3895  0.1175
  340MOL0     C44762   1.142   2.197   2.721 -0.2201 -0.2333 -0.7458
  340MOL0     C44763   1.070   2.322   2.678  0.3260 -0.4558  0.3066
  340MOL0     C44764   1.154   2.429   2.617 -0.4475 -1.1176  0.1259
  340MOL0     N44765   1.080   2.553   2.586 -0.4247  0.6419 -0.6878
  340MOL0     C44766   1.117   2.675   2.625  0.6582  0.3527 -0.0399
  340MOL0     C44767   1.023   2.752   2.569 -0.4916  0.5114  0.8303
  340MOL0     C44768   1.020   2.896   2.606  0.5639 -0.3449  0.7167
  340MOL0     C44769   1.098   2.975   2.498  0.0341  0.5464 -0.1284
  340MOL0     C44770   1.013   3.028   2.387  0.0390  0.2797  0.5504
  340MOL0     C44771   0.928   3.148   2.407 -0.1339  0.5544 -0.5692
  340MOL0     O44772   1.003   3.269   2.393  0.1824 -0.2323 -0.4224
  340MOL0     C44773   0.951   3.398   2.403 -0.8411  0.4774  1.0282
  340MOL0     C44774   1.010   3.487   2.320 -0.6038 -0.1958 -0.2671
  340MOL0     C44775   0.978   3.624   2.325 -0.1819 -0.6455 -0.5169
  340MOL0     C44776   0.884   3.664   2.427  0.5883 -0.4773 -0.3052
  340MOL0     C44777   0.830   3.807   2.431  0.0253 -0.2088 -0.3215
  340MOL0     O44778   0.899   3.908   2.365  0.2615  0.5326 -0.5089
  340MOL0     C44779   0.833   4.029   2.362 -0.7540 -1.0521  0.2776
  340MOL0     C44780   0.878   4.130   2.437 -0.4220  0.1155 -0.7880
  340MOL0     C44781   0.818   4.255   2.418  0.1107 -0.8756  0.3659
  340MOL0     C44782   0.713   4.282   2.329 -0.9403  0.2949  0.4666
  340MOL0     O44783   0.666   4.405   2.329  0.2372 -0.2570  0.0775
  340MOL0     C44784   0.577   4.461   2.234  0.3521  0.1134  0.6208
  340MOL0     C44785   0.567   4.613   2.263 -0.1089  1.0719  0.2804
  340MOL0     C44786   0.600   4.694   2.138 -0.5802 -0.5254 -0.1972
  340MOL0     C44787   0.560   4.837   2.171  0.3408 -0.6292  0.0735
  340MOL0     C44788   0.574   4.923   2.040 -0.4203  0.6067  0.2026
  340MOL0     C44789   0.712   4.952   1.984  0.1188  0.1787 -0.6790
  340MOL0     C44790   0.708   5.040   1.863 -0.0618  0.1343  0.1505
  340MOL0     C44791   0.834   5.022   1.782 -0.3706 -0.1489  0.1574
  340MOL0    Cl44792   0.846   5.170   1.677  0.1516 -0.1671  0.3582
  340MOL0     C44793   0.683   4.180   2.234 -0.0258 -0.2665  0.4879
  340MOL0     C44794   0.734   4.056   2.260 -0.7890  1.3821  0.3379
  340MOL0     O44795   0.718   3.830   2.488 -0.2485  0.5242  0.3776
  340MOL0     C44796   0.817   3.566   2.496 -0.0917 -0.3672 -0.0198
  340MOL0     C44797   0.841   3.432   2.482  0.4766  0.0712  0.8107
  340MOL0     N44798   0.927   2.680   2.509  0.1289 -0.0990 -0.4051
  340MOL0     N44799   0.960   2.557   2.525  0.2793  1.0496  0.5503
  340MOL0     C44800   1.449   1.574   3.260  0.4701 -0.4674  0.3068
  340MOL0     C44801   1.386   1.445   3.287 -0.1881 -0.0562 -0.2268
  340MOL0     C44802   1.119   1.088   3.393  0.5505 -0.8383  0.0604
  340MOL0     C44803   1.151   0.969   3.449  0.3604 -0.2363 -0.0654
  340MOL0     C44804   1.055   0.876   3.491  0.1430 -0.1891 -0.4072
  340MOL0     C44805   0.918   0.904   3.476  1.5040 -0.8324  0.1914
  340MOL0     O44806   0.819   0.810   3.501 -0.5425 -0.0925 -0.3443
  340MOL0     C44807   0.687   0.833   3.459 -0.4867  0.3510 -0.0092
  340MOL0     C44808   0.591   0.715   3.486 -1.1958 -0.1628 -0.0675
  340MOL0     C44809   0.552   0.704   3.640  0.7709  0.6033 -0.7290
  340MOL0     C44810   0.491   0.562   3.664 -0.7752  0.3730 -0.2406
  340MOL0     C44811   0.376   0.536   3.575  0.1716  0.5042 -0.7465
  340MOL0     C44812   0.296   0.509   3.487 -0.2502 -0.0069 -0.2762
  340MOL0     C44813   0.883   1.035   3.431 -0.1528 -0.0800 -0.0022
  340MOL0     C44814   0.980   1.115   3.373  0.4943  0.1381 -0.5783
  340MOL0     H44815   1.071   1.520   3.188  0.2503  2.4051 -2.0996
  340MOL0     H44816   1.164   1.714   3.129 -1.0984 -1.4118 -0.6495
  340MOL0     H44817   1.248   1.910   3.209 -1.3555 -2.6811 -0.6917
  340MOL0     H44818   1.280   1.882   3.042 -0.3420  1.1200 -0.2622
  340MOL0     H44819   1.508   2.010   3.068  1.6992 -1.6491  2.8952
  340MOL0     H44820   1.452   2.056   3.222  0.3794  2.1320 -0.8601
  340MOL0     H44821   1.404   2.223   3.046 -0.1032 -0.3354  1.0739
  340MOL0     H44822   1.254   2.179   3.131 -0.3089  0.8044  0.0650
  340MOL0     H44823   1.335   2.036   2.866 -0.9684 -2.6601  0.5674
  340MOL0     H44824   1.178   2.056   2.949  0.5864 -0.4563 -1.8206
  340MOL0     H44825   1.322   2.274   2.818 -1.6472  0.4903  0.2166
  340MOL0     H44826   1.176   2.285   2.925  0.6093 -0.3176  1.4331
  340MOL0     H44827   1.063   2.126   2.748  0.0803 -1.7362 -3.4525
  340MOL0     H44828   1.206   2.158   2.642 -0.7346  2.1799 -2.4823
  340MOL0     H44829   0.994   2.295   2.604  1.4978 -0.3838 -0.9577
  340MOL0     H44830   1.015   2.355   2.766 -0.1510 -0.6220  0.0753
  340MOL0     H44831   1.209   2.400   2.528  1.1213 -0.4283  0.8205
  340MOL0     H44832   1.236   2.466   2.681 -0.5565  3.7376 -2.1117
  340MOL0     H44833   1.199   2.709   2.686  0.2608  1.1088  0.0952
  340MOL0     H44834   1.069   2.903   2.703  1.0517 -2.2438  0.6453
  340MOL0     H44835   0.918   2.936   2.611  0.6422 -0.3230  4.3413
  340MOL0     H44836   1.183   2.917   2.461 -0.2645 -0.0960  0.1790
  340MOL0     H44837   1.158   3.047   2.555  1.5393 -0.2908 -0.5907
  340MOL0     H44838   1.086   3.066   2.315  1.7141 -1.5940  1.1884
  340MOL0     H44839   0.964   2.947   2.332  2.2084  0.2319 -1.4568
  340MOL0     H44840   0.893   3.144   2.510  1.0733  2.2743 -0.0516
  340MOL0     H44841   0.838   3.144   2.345 -0.8315  0.7434  0.4145
  340MOL0     H44842   1.090   3.457   2.253  0.0181  1.1815 -0.1686
  340MOL0     H44843   1.034   3.685   2.254 -1.0042 -0.2806 -0.8643
  340MOL0     H44844   0.967   4.105   2.494 -1.3866 -2.0881 -0.1577
  340MOL0     H44845   0.863   4.337   2.473 -1.6473  0.2267  0.2544
  340MOL0     H44846   0.472   4.431   2.231  0.2717  0.3963 -1.6358
  340MOL0     H44847   0.618   4.450   2.133  0.3401  0.8892  0.5240
  340MOL0     H44848   0.635   4.624   2.347 -0.1541 -1.6959  0.7775
  340MOL0     H44849   0.465   4.636   2.296  0.1795  2.0476  0.5385
  340MOL0     H44850   0.548   4.656   2.050 -0.9955  1.9807 -1.1032
  340MOL0     H44851   0.707   4.691   2.117  0.3698 -3.1665  3.8154
  340MOL0     H44852   0.453   4.831   2.193 -0.9628 -0.2098 -5.0580
  340MOL0     H44853   0.615   4.883   2.254  0.5987 -1.4453  0.3702
  340MOL0     H44854   0.525   5.019   2.061 -3.8663 -1.2124  1.3444
  340MOL0     H44855   0.527   4.866   1.958  0.2761 -1.0790  0.9312
  340MOL0     H44856   0.743   4.854   1.947 -3.2718 -1.0587 -0.5829
  340MOL0     H44857   0.796   4.984   2.046  0.4583  0.6072 -1.3591
  340MOL0     H44858   0.622   5.015   1.801 -0.1926 -2.3992  1.2183
  340MOL0     H44859   0.701   5.146   1.888  1.0549  0.3198 -0.2681
  340MOL0     H44860   0.846   4.931   1.723  2.2622 -0.0808  0.4620
  340MOL0     H44861   0.927   5.049   1.834 -0.9096  3.0292 -0.3061
  340MOL0     H44862   0.609   4.192   2.156 -1.3100  0.9157  1.8080
  340MOL0     H44863   0.700   3.979   2.191 -0.4171  0.9197  0.6761
  340MOL0     H44864   0.739   3.598   2.565  1.2196  0.3805  1.1598
  340MOL0     H44865   0.787   3.357   2.537  0.1648 -3.5724 -3.8310
  340MOL0     H44866   1.552   1.596   3.287  0.4114  0.7406 -0.3994
  340MOL0     H44867   1.450   1.374   3.338  0.2921  0.1653 -0.5126
  340MOL0     H44868   1.254   0.943   3.467  0.5220 -0.2843 -1.0123
  340MOL0     H44869   1.082   0.777   3.525 -1.3025 -0.8334 -1.0638
  340MOL0     H44870   0.693   0.860   3.353  3.3610 -0.2817 -0.0668
  340MOL0     H44871   0.639   0.924   3.497 -1.0609  2.1051 -4.3368
  340MOL0     H44872   0.502   0.722   3.423 -0.4234 -0.3153 -1.2058
  340MOL0     H44873   0.638   0.620   3.460 -1.4325 -0.9939  2.2716
  340MOL0     H44874   0.482   0.786   3.660  1.2542  0.5978  1.0894
  340MOL0     H44875   0.637   0.708   3.708  1.3791  1.6021 -1.5146
  340MOL0     H44876   0.573   0.490   3.663  0.2778  1.5300 -0.3888
  340MOL0     H44877   0.454   0.570   3.767  1.4310 -0.5240  0.6690
  340MOL0     H44878   0.233   0.486   3.403  0.6909  0.7554 -1.2135
  340MOL0     H44879   0.781   1.073   3.419  0.2820  2.1044  2.3272
  340MOL0     H44880   0.954   1.202   3.314  0.2519  1.0566  0.8266
  341MOL0     O44881   4.222   0.533   6.021  0.0753 -0.6300 -0.2374
  341MOL0     C44882   4.277   0.526   5.914 -0.5314 -1.4598 -0.3931
  341MOL0     O44883   4.212   0.487   5.807 -0.7152  0.5250  0.5964
  341MOL0     C44884   4.081   0.461   5.812 -0.0136  0.3787  0.1449
  341MOL0     C44885   4.041   0.329   5.818 -0.8367  0.5258  0.2594
  341MOL0     C44886   3.904   0.293   5.817  0.0776 -0.8495 -0.3624
  341MOL0     C44887   3.803   0.396   5.786  0.1745 -0.4803 -0.2447
  341MOL0     O44888   3.668   0.360   5.773  0.2194 -0.1513 -0.3668
  341MOL0     C44889   3.602   0.374   5.902  0.0665 -0.1600 -0.3807
  341MOL0     C44890   3.583   0.227   5.948 -0.2311  0.0112 -1.4770
  341MOL0     C44891   3.526   0.224   6.082  0.9622 -0.5094 -1.0210
  341MOL0     C44892   3.516   0.091   6.141 -0.2389 -0.1449 -0.2769
  341MOL0     C44893   3.424   0.097   6.262  0.4591 -0.1539 -0.3289
  341MOL0     C44894   3.415  -0.044   6.328  0.0125  0.5899 -0.3937
  341MOL0     C44895   3.297  -0.110   6.253 -1.2677 -0.0195 -0.4054
  341MOL0     C44896   3.158  -0.070   6.314  0.2555  0.3884  0.0804
  341MOL0     N44897   3.047  -0.158   6.260 -0.2829 -0.9994  0.2687
  341MOL0     C44898   3.041  -0.296   6.282  0.8383 -0.4250  1.0469
  341MOL0     C44899   2.920  -0.339   6.216 -1.0705 -0.5824 -0.1271
  341MOL0     C44900   2.888  -0.486   6.201  0.6110 -0.5667 -0.0052
  341MOL0     C44901   2.955  -0.555   6.081  0.4542  0.3544  0.3050
  341MOL0     C44902   3.015  -0.685   6.124 -0.3827  0.1735 -0.6479
  341MOL0     C44903   3.042  -0.801   6.017  0.0617 -0.3147 -0.5440
  341MOL0     O44904   3.133  -0.757   5.910  0.0519  0.5030  0.1105
  341MOL0     C44905   3.271  -0.747   5.921  0.5856  0.8994 -0.2616
  341MOL0     C44906   3.338  -0.688   5.821  0.0012 -0.0270  0.2651
  341MOL0     C44907   3.473  -0.665   5.837 -0.0107 -0.0357  0.2321
  341MOL0     C44908   3.549  -0.711   5.945  0.1016 -0.1854  0.1829
  341MOL0     C44909   3.696  -0.697   5.950  0.0102 -0.8123 -0.2677
  341MOL0     O44910   3.758  -0.689   6.071 -0.7799 -0.1754 -1.1571
  341MOL0     C44911   3.895  -0.658   6.080 -0.0842  0.6489 -0.5524
  341MOL0     C44912   3.976  -0.701   6.191 -0.1625 -0.4468  0.2229
  341MOL0     C44913   4.118  -0.661   6.194  0.6163  0.3016  0.2794
  341MOL0     C44914   4.170  -0.578   6.090 -0.0790  0.4272  0.6083
  341MOL0     O44915   4.301  -0.557   6.097 -0.5449 -0.3354  1.3748
  341MOL0     C44916   4.325  -0.417   6.119  0.1181 -0.2729  0.2969
  341MOL0     C44917   4.464  -0.397   6.178 -0.0316  0.1357 -0.6413
  341MOL0     C44918   4.513  -0.258   6.180 -0.8646 -1.0090 -0.6440
  341MOL0     C44919   4.658  -0.247   6.244 -0.1720 -0.5169  0.6137
  341MOL0     C44920   4.664  -0.270   6.388 -0.5596 -0.6780 -0.0713
  341MOL0     C44921   4.791  -0.342   6.430 -0.7540 -0.0309 -0.6872
  341MOL0     C44922   4.800  -0.491   6.395  0.0739 -0.3593  0.2759
  341MOL0     C44923   4.891  -0.558   6.500 -0.1666  0.6102 -0.5874
  341MOL0    Cl44924   4.913  -0.748   6.480  0.6211  0.3172 -0.2567
  341MOL0     C44925   4.094  -0.550   5.979  0.3609  0.6894 -0.7141
  341MOL0     C44926   3.958  -0.580   5.980  0.5654 -0.0347 -0.6456
  341MOL0     O44927   3.742  -0.674   5.839  0.4325 -0.2262 -0.8333
  341MOL0     C44928   3.480  -0.770   6.046  0.0169  0.5059 -0.1032
  341MOL0     C44929   3.336  -0.787   6.036  0.2116  0.2183  0.5742
  341MOL0     N44930   2.866  -0.228   6.161  0.3536 -0.5641 -0.7202
  341MOL0     N44931   2.935  -0.116   6.189  0.2330  0.5604 -0.3973
  341MOL0     C44932   3.846   0.532   5.785 -0.3716  0.3148  0.3020
  341MOL0     C44933   3.987   0.565   5.795  0.3752 -0.8594  0.9711
  341MOL0     C44934   4.423   0.540   5.900  0.7330 -0.2442 -0.8037
  341MOL0     C44935   4.493   0.503   5.785 -0.8531  0.1996 -0.3031
  341MOL0     C44936   4.633   0.521   5.773 -0.1115  0.7744 -0.5677
  341MOL0     C44937   4.706   0.571   5.878  0.5385 -0.2239 -0.4760
  341MOL0     O44938   4.848   0.596   5.871  0.5121  0.8604  0.1176
  341MOL0     C44939   4.929   0.565   5.760  0.8830  0.5957  0.9504
  341MOL0     C44940   4.962   0.419   5.775 -0.3642 -0.0731  0.4905
  341MOL0     C44941   5.047   0.371   5.667  0.2665  0.4713 -0.3546
  341MOL0     C44942   4.968   0.368   5.531  0.9732  0.1972 -0.0186
  341MOL0     C44943   5.058   0.351   5.415  0.1534  1.2259  0.0944
  341MOL0     C44944   5.129   0.325   5.322  0.0106  0.1598  0.1722
  341MOL0     C44945   4.634   0.614   5.986  0.1058  0.4058 -0.8806
  341MOL0     C44946   4.497   0.592   6.003 -0.8824  0.3969 -0.1718
  341MOL0     H44947   4.118   0.252   5.811 -1.5081 -0.1556  0.2347
  341MOL0     H44948   3.871   0.190   5.817 -0.7018 -0.6875  2.4124
  341MOL0     H44949   3.509   0.430   5.890 -0.9624 -0.9487  3.0306
  341MOL0     H44950   3.665   0.437   5.966 -2.3348  0.8264  1.1312
  341MOL0     H44951   3.685   0.187   5.952 -0.8607 -1.5696  0.9433
  341MOL0     H44952   3.521   0.171   5.878  0.1245 -0.7191 -1.2262
  341MOL0     H44953   3.422   0.257   6.071  1.6221  2.5521  0.6974
  341MOL0     H44954   3.589   0.297   6.135 -0.9843  2.8350 -2.9721
  341MOL0     H44955   3.477   0.020   6.068  1.5547  0.8599 -2.3194
  341MOL0     H44956   3.615   0.060   6.174 -0.4215 -2.3550 -1.6043
  341MOL0     H44957   3.326   0.137   6.235  0.4272 -0.8575 -1.3269
  341MOL0     H44958   3.467   0.170   6.330  1.3748 -1.8684  1.0011
  341MOL0     H44959   3.418  -0.045   6.437 -0.1156  1.5704 -0.3664
  341MOL0     H44960   3.508  -0.093   6.298  1.0030  2.6949 -0.9861
  341MOL0     H44961   3.288  -0.085   6.147 -2.1890 -0.9040 -0.5483
  341MOL0     H44962   3.309  -0.219   6.253 -2.4386 -0.1784  0.8632
  341MOL0     H44963   3.142   0.038   6.314  0.3033  0.4274  1.9336
  341MOL0     H44964   3.169  -0.094   6.421  3.9227  1.7013  0.1552
  341MOL0     H44965   3.124  -0.355   6.319 -0.0082 -2.0823  0.4223
  341MOL0     H44966   2.780  -0.490   6.181  0.1271  1.2229  1.9647
  341MOL0     H44967   2.907  -0.531   6.299 -1.6340  1.1164  1.3161
  341MOL0     H44968   3.041  -0.488   6.071 -1.7890  3.5998  1.1954
  341MOL0     H44969   2.907  -0.560   5.983  3.5769 -2.3040 -1.2971
  341MOL0     H44970   3.109  -0.671   6.177  0.3264 -2.6471 -0.9893
  341MOL0     H44971   2.944  -0.726   6.197 -0.8118  1.0730 -0.5454
  341MOL0     H44972   2.953  -0.812   5.954  1.3299  1.3852 -2.7931
  341MOL0     H44973   3.061  -0.897   6.067 -0.8312  1.2174  3.0610
  341MOL0     H44974   3.287  -0.648   5.734  0.4492  0.9606  0.4409
  341MOL0     H44975   3.534  -0.625   5.757  1.5929 -1.9072  0.4206
  341MOL0     H44976   3.928  -0.753   6.273  0.2627  0.3557  1.0012
  341MOL0     H44977   4.194  -0.690   6.265 -0.5914 -0.8709  1.1455
  341MOL0     H44978   4.250  -0.368   6.180 -0.4228  1.1155 -1.4308
  341MOL0     H44979   4.320  -0.360   6.026  1.8977 -1.1893 -0.4236
  341MOL0     H44980   4.537  -0.447   6.114  1.0731  1.3229 -0.3355
  341MOL0     H44981   4.469  -0.453   6.272 -3.5737  0.0401 -0.3869
  341MOL0     H44982   4.461  -0.196   6.254  2.1158  0.5529  0.3200
  341MOL0     H44983   4.516  -0.216   6.079  2.8035 -0.4233 -0.4251
  341MOL0     H44984   4.720  -0.328   6.204 -2.7498 -1.8775 -0.8733
  341MOL0     H44985   4.700  -0.152   6.207  1.1159 -2.0646 -2.2843
  341MOL0     H44986   4.581  -0.324   6.434 -0.2142 -0.5068  0.7691
  341MOL0     H44987   4.666  -0.170   6.433  3.0105 -1.0794  0.9556
  341MOL0     H44988   4.782  -0.347   6.539 -3.9342 -0.2807 -0.8679
  341MOL0     H44989   4.884  -0.292   6.400 -2.5911  3.1691 -1.4719
  341MOL0     H44990   4.704  -0.543   6.393 -0.0660 -0.0791 -0.7972
  341MOL0     H44991   4.846  -0.504   6.296  0.9586  0.1090  0.6136
  341MOL0     H44992   4.846  -0.549   6.599  0.9962  1.8164 -0.1547
  341MOL0     H44993   4.983  -0.500   6.508 -0.3436  1.0259 -1.4458
  341MOL0     H44994   4.136  -0.493   5.896 -0.6042  2.9352  0.2633
  341MOL0     H44995   3.910  -0.535   5.894 -1.3566 -0.2777  0.2502
  341MOL0     H44996   3.540  -0.804   6.130 -1.0410 -0.0717  0.4342
  341MOL0     H44997   3.278  -0.830   6.118 -0.9625  1.3628  0.3709
  341MOL0     H44998   3.772   0.610   5.771 -1.2597 -0.5802 -0.1358
  341MOL0     H44999   4.019   0.667   5.781 -2.9545  0.3701  1.2183
  341MOL0     H45000   4.439   0.459   5.701 -1.2428 -0.3326  0.2213
  341MOL0     H45001   4.687   0.472   5.692 -0.8573  1.0026 -1.2132
  341MOL0     H45002   5.019   0.624   5.739  1.8882 -0.6859  1.4705
  341MOL0     H45003   4.876   0.595   5.669 -1.2807 -0.7046  1.7115
  341MOL0     H45004   5.025   0.423   5.864  1.8451 -0.8865 -0.9406
  341MOL0     H45005   4.877   0.354   5.798 -0.4126 -0.1613  0.0756
  341MOL0     H45006   5.100   0.279   5.691  0.8033  1.3375  2.1137
  341MOL0     H45007   5.125   0.447   5.655  2.1508 -1.6727 -2.7046
  341MOL0     H45008   4.900   0.283   5.533 -0.7726  1.5180 -0.9372
  341MOL0     H45009   4.917   0.464   5.519  3.0139  1.3486  0.0604
  341MOL0     H45010   5.186   0.341   5.233 -0.0456 -0.1929  0.0739
  341MOL0     H45011   4.684   0.663   6.069 -0.9323 -1.2317  0.7799
  341MOL0     H45012   4.450   0.610   6.099 -0.6032 -0.1717  0.0818
  342MOL0     O45013   1.104   3.854   4.619  0.3661 -0.1415  0.5903
  342MOL0     C45014   1.203   3.923   4.648  0.9626 -0.2871 -0.2381
  342MOL0     O45015   1.318   3.881   4.701 -0.6367  0.4530 -0.1449
  342MOL0     C45016   1.332   3.750   4.750  0.5592 -0.1803  0.4688
  342MOL0     C45017   1.346   3.646   4.659 -0.5539  0.8391 -1.3263
  342MOL0     C45018   1.365   3.519   4.713 -0.7339 -0.3068  0.4160
  342MOL0     C45019   1.359   3.488   4.849 -0.8973 -0.5058 -0.1607
  342MOL0     O45020   1.342   3.362   4.905  0.0507  0.5521  0.1887
  342MOL0     C45021   1.352   3.245   4.822 -0.0038  0.6372  1.0903
  342MOL0     C45022   1.297   3.115   4.896 -0.2825  1.1592  0.2172
  342MOL0     C45023   1.145   3.096   4.869 -0.7183  0.4162 -0.2966
  342MOL0     C45024   1.083   2.964   4.932 -0.1062  0.1405 -0.9896
  342MOL0     C45025   0.946   2.944   4.879 -0.5310  0.4013  0.0645
  342MOL0     C45026   0.874   2.844   4.978 -0.2441  0.0711 -0.0165
  342MOL0     C45027   0.730   2.812   4.932  0.1124 -0.8071  0.6659
  342MOL0     C45028   0.657   2.690   4.984  0.1205 -0.0759 -0.3839
  342MOL0     N45029   0.703   2.650   5.119 -0.0375 -0.5165 -0.8451
  342MOL0     C45030   0.665   2.719   5.225 -0.5826 -0.9105 -0.1803
  342MOL0     C45031   0.746   2.664   5.327  0.3224 -0.5461  0.6035
  342MOL0     C45032   0.749   2.728   5.463 -0.4918 -0.5614 -0.7211
  342MOL0     C45033   0.663   2.650   5.565 -0.1150 -0.4908 -0.5231
  342MOL0     C45034   0.667   2.718   5.700 -0.0128  0.8806  0.4758
  342MOL0     C45035   0.571   2.647   5.786 -0.3016 -0.3828  0.5505
  342MOL0     O45036   0.615   2.658   5.925  0.9979  0.1313  0.0787
  342MOL0     C45037   0.536   2.596   6.019 -0.1641  0.8325  0.3921
  342MOL0     C45038   0.581   2.478   6.082  0.1208  1.0579 -0.5892
  342MOL0     C45039   0.504   2.409   6.179  0.5653  0.0318 -0.8380
  342MOL0     C45040   0.379   2.466   6.222 -0.7579  1.2010 -0.5318
  342MOL0     C45041   0.299   2.402   6.326  0.0963  0.0346  0.2851
  342MOL0     O45042   0.170   2.450   6.344  0.3991 -1.0550 -0.0709
  342MOL0     C45043   0.097   2.417   6.457 -0.3461  0.9301 -0.0550
  342MOL0     C45044   0.127   2.459   6.579 -0.0638 -0.9289 -0.8405
  342MOL0     C45045   0.044   2.429   6.693  0.2964 -0.6140 -0.5506
  342MOL0     C45046  -0.070   2.341   6.674 -0.1864 -1.3708 -0.3039
  342MOL0     O45047  -0.167   2.317   6.767 -0.4953 -0.3206 -0.3774
  342MOL0     C45048  -0.144   2.316   6.913 -0.3845 -0.8783 -0.3282
  342MOL0     C45049  -0.280   2.302   6.972  0.6131  0.9838 -0.2882
  342MOL0     C45050  -0.271   2.298   7.125 -0.5111  0.9236  0.5593
  342MOL0     C45051  -0.402   2.270   7.198 -0.5419  0.2075  0.1807
  342MOL0     C45052  -0.518   2.350   7.143  0.1979 -1.2863 -0.4035
  342MOL0     C45053  -0.653   2.335   7.209 -0.1524  0.1984  0.5520
  342MOL0     C45054  -0.718   2.194   7.201 -0.0335 -0.6289  0.1563
  342MOL0     C45055  -0.744   2.145   7.053 -1.0962 -0.3441 -0.5978
  342MOL0    Cl45056  -0.849   2.234   6.943  0.3288 -0.1905 -0.0536
  342MOL0     C45057  -0.099   2.301   6.547  0.3774  0.6568  0.9141
  342MOL0     C45058  -0.010   2.329   6.443 -0.0566 -1.0996 -0.9415
  342MOL0     O45059   0.350   2.319   6.393 -0.7259  0.0558  0.3705
  342MOL0     C45060   0.331   2.579   6.149 -0.1779  1.1553  0.2555
  342MOL0     C45061   0.413   2.643   6.055  0.7567  0.3525  0.9902
  342MOL0     N45062   0.829   2.567   5.267  0.6744  0.3214 -0.1633
  342MOL0     N45063   0.808   2.562   5.145  0.0603 -0.4318  0.4139
  342MOL0     C45064   1.351   3.603   4.941  0.3190 -1.2278 -0.7304
  342MOL0     C45065   1.340   3.726   4.888 -0.4721 -0.6163 -0.6799
  342MOL0     C45066   1.167   4.068   4.627 -0.5621 -0.2647 -0.2543
  342MOL0     C45067   1.238   4.160   4.711 -0.3770  0.1121 -0.4154
  342MOL0     C45068   1.195   4.292   4.735  0.1806 -0.8571  0.3526
  342MOL0     C45069   1.092   4.338   4.652 -0.0775  0.2279 -0.7081
  342MOL0     O45070   1.061   4.467   4.676  0.5962 -0.1466 -0.4143
  342MOL0     C45071   0.937   4.522   4.623 -0.0122  0.7126  0.4044
  342MOL0     C45072   0.958   4.577   4.477  0.2394  0.2549  0.8773
  342MOL0     C45073   1.023   4.722   4.476 -0.6480 -0.2182  0.8148
  342MOL0     C45074   1.182   4.727   4.465 -0.1536  0.9934 -0.1020
  342MOL0     C45075   1.245   4.861   4.485 -0.2104  0.6834  0.1181
  342MOL0     C45076   1.278   4.974   4.515  0.0734  0.1167 -0.0436
  342MOL0     C45077   1.020   4.248   4.570  0.3150 -0.4999 -0.5473
  342MOL0     C45078   1.053   4.118   4.557  0.0426  0.2451 -0.2121
  342MOL0     H45079   1.327   3.647   4.552  1.7688  1.8095 -1.7942
  342MOL0     H45080   1.361   3.445   4.633  0.0222  3.8458 -3.8760
  342MOL0     H45081   1.450   3.217   4.783 -1.2140  0.0970 -1.8498
  342MOL0     H45082   1.292   3.255   4.731  2.6459 -0.1490 -0.8803
  342MOL0     H45083   1.312   3.110   5.005  0.9178  0.4945  0.0427
  342MOL0     H45084   1.355   3.027   4.865  1.8271  1.2014  3.5120
  342MOL0     H45085   1.124   3.102   4.761 -2.1263  3.9188  0.0420
  342MOL0     H45086   1.086   3.172   4.921 -0.1035 -0.3696  1.5979
  342MOL0     H45087   1.151   2.885   4.900  2.9609  2.7883 -1.4884
  342MOL0     H45088   1.098   2.977   5.039  4.9038 -0.9372 -1.3560
  342MOL0     H45089   0.945   2.899   4.779 -0.5094  0.1844  0.1604
  342MOL0     H45090   0.889   3.037   4.887 -4.3666 -1.8588  3.3082
  342MOL0     H45091   0.870   2.891   5.077  0.6185  2.9204 -1.2490
  342MOL0     H45092   0.923   2.746   4.976 -3.1178 -1.4689 -0.1161
  342MOL0     H45093   0.665   2.898   4.950 -1.5037 -1.2575 -2.3692
  342MOL0     H45094   0.728   2.800   4.824 -2.0440 -2.8984  0.8618
  342MOL0     H45095   0.676   2.600   4.924 -2.8001 -1.8430  1.0935
  342MOL0     H45096   0.548   2.692   4.986 -0.0399 -1.0278 -3.3082
  342MOL0     H45097   0.595   2.802   5.226  0.0366 -0.3410 -1.7028
  342MOL0     H45098   0.712   2.831   5.460  0.1031 -0.2259  1.6893
  342MOL0     H45099   0.853   2.745   5.493 -1.0084 -3.0524  3.0809
  342MOL0     H45100   0.694   2.546   5.577 -0.1749 -0.5310 -0.7053
  342MOL0     H45101   0.561   2.655   5.525 -0.7676 -1.1281  0.9879
  342MOL0     H45102   0.768   2.736   5.737 -0.2546  0.9185  1.1379
  342MOL0     H45103   0.633   2.821   5.689  0.6566  1.3520  2.4885
  342MOL0     H45104   0.574   2.541   5.762  2.9619  0.1692 -2.2403
  342MOL0     H45105   0.471   2.690   5.772 -0.5715 -0.4334  2.1308
  342MOL0     H45106   0.672   2.426   6.052  1.0304  2.8164 -0.9677
  342MOL0     H45107   0.536   2.310   6.210  1.6322  0.4527 -0.5812
  342MOL0     H45108   0.211   2.522   6.606 -1.7434  0.4331  1.6269
  342MOL0     H45109   0.063   2.467   6.793  0.9570 -2.3172  0.0040
  342MOL0     H45110  -0.090   2.405   6.944  0.2693 -2.4016  3.4298
  342MOL0     H45111  -0.081   2.230   6.939 -0.9286 -0.9258  0.9255
  342MOL0     H45112  -0.335   2.217   6.928 -0.3626  1.5336 -0.1666
  342MOL0     H45113  -0.350   2.383   6.951 -0.8683 -0.2829 -0.4727
  342MOL0     H45114  -0.246   2.396   7.167 -0.7822 -0.1868  3.5290
  342MOL0     H45115  -0.202   2.217   7.149 -0.6635 -0.3189 -2.6610
  342MOL0     H45116  -0.424   2.164   7.183 -1.4251  0.3254  0.5833
  342MOL0     H45117  -0.389   2.300   7.303 -1.5007 -1.3017  0.7758
  342MOL0     H45118  -0.528   2.338   7.035 -1.7374 -0.2837 -0.3708
  342MOL0     H45119  -0.495   2.456   7.158  0.0907 -1.5154  1.6571
  342MOL0     H45120  -0.720   2.412   7.170 -0.4262  1.0202  2.5264
  342MOL0     H45121  -0.634   2.360   7.314 -2.2194  0.4405  0.9127
  342MOL0     H45122  -0.644   2.124   7.240  0.4663  0.7024  1.7231
  342MOL0     H45123  -0.814   2.192   7.254  0.7836  2.6931  2.0622
  342MOL0     H45124  -0.788   2.046   7.070  3.2970 -2.0876  2.4172
  342MOL0     H45125  -0.648   2.136   7.002 -0.7175  1.7580 -0.3256
  342MOL0     H45126  -0.196   2.254   6.533  1.3728 -2.4176  3.3315
  342MOL0     H45127  -0.042   2.296   6.344 -1.5253  1.1006 -1.2892
  342MOL0     H45128   0.232   2.622   6.166  0.4138  3.2072 -1.0881
  342MOL0     H45129   0.374   2.725   5.995  3.1292  0.8390 -0.0279
  342MOL0     H45130   1.344   3.592   5.048 -1.3921  0.8369 -0.5607
  342MOL0     H45131   1.327   3.811   4.955  2.8911 -1.5962  1.4629
  342MOL0     H45132   1.333   4.136   4.757  1.2435  2.3496 -2.3121
  342MOL0     H45133   1.251   4.356   4.802  0.1375 -0.7778  0.3131
  342MOL0     H45134   0.907   4.600   4.693  0.3866  1.4012 -0.1816
  342MOL0     H45135   0.864   4.440   4.625  0.8512 -0.0897  2.5740
  342MOL0     H45136   1.011   4.503   4.416  1.0795  1.5508 -0.0028
  342MOL0     H45137   0.856   4.591   4.440  0.4615 -0.5896 -0.1102
  342MOL0     H45138   0.998   4.781   4.564  0.6336 -0.2070  1.2031
  342MOL0     H45139   0.988   4.766   4.382 -0.7922 -2.8334 -0.4517
  342MOL0     H45140   1.226   4.665   4.544  0.2824  0.3261 -0.8538
  342MOL0     H45141   1.207   4.681   4.369 -0.6927  0.4363  0.0186
  342MOL0     H45142   1.290   5.074   4.549 -1.1226 -0.7200  3.1584
  342MOL0     H45143   0.929   4.278   4.520  0.5146  2.3457  0.6166
  342MOL0     H45144   1.006   4.042   4.496 -0.5112 -3.3777  4.1598
  343MOL0     O45145   9.745   4.521   0.304  0.4884 -0.3195  0.1888
  343MOL0     C45146   9.628   4.487   0.334  1.0540  0.1367 -0.2335
  343MOL0     O45147   9.526   4.479   0.240 -0.3816  0.8924  1.1807
  343MOL0     C45148   9.570   4.499   0.109 -0.1500  0.0281  0.3726
  343MOL0     C45149   9.603   4.628   0.070 -0.5301  1.2016 -0.2347
  343MOL0     C45150   9.640   4.662  -0.066  0.9212  0.4621 -0.5931
  343MOL0     C45151   9.624   4.564  -0.162 -0.0767  0.1749 -0.4856
  343MOL0     O45152   9.652   4.594  -0.283  0.0653 -0.3947  0.1319
  343MOL0     C45153   9.752   4.519  -0.349 -0.9606  1.1313 -0.5564
  343MOL0     C45154   9.794   4.558  -0.488  0.6179 -0.0854 -0.4999
  343MOL0     C45155   9.842   4.699  -0.499  0.0443 -0.5939 -0.1132
  343MOL0     C45156   9.967   4.732  -0.403 -0.3160  0.1124  0.3105
  343MOL0     C45157  10.021   4.866  -0.444  0.3932  0.5398 -0.9038
  343MOL0     C45158  10.144   4.852  -0.539 -0.4629  0.4470 -0.1028
  343MOL0     C45159  10.262   4.770  -0.489 -0.4103  0.6547 -0.4241
  343MOL0     C45160  10.305   4.791  -0.339  0.1730  1.4660 -0.3057
  343MOL0     N45161  10.364   4.926  -0.311  0.7329  0.4732 -0.7533
  343MOL0     C45162  10.299   5.028  -0.240 -0.0863  0.0846 -0.1414
  343MOL0     C45163  10.375   5.141  -0.260  1.0704 -0.0747  0.0030
  343MOL0     C45164  10.337   5.285  -0.222  0.6236 -0.1859  0.8040
  343MOL0     C45165  10.427   5.339  -0.113  0.9352  0.0296  0.2878
  343MOL0     C45166  10.558   5.407  -0.162 -0.3816 -0.3118 -0.1713
  343MOL0     C45167  10.630   5.472  -0.050 -0.2886 -0.4975  0.9839
  343MOL0     O45168  10.742   5.543  -0.101 -0.5625 -0.4175 -0.1146
  343MOL0     C45169  10.809   5.597   0.004  0.1332  0.4027 -0.9777
  343MOL0     C45170  10.946   5.569   0.023 -0.5100 -0.4553 -0.4387
  343MOL0     C45171  11.023   5.645   0.118 -0.1966 -0.1840  0.9822
  343MOL0     C45172  10.970   5.747   0.194 -0.0080 -0.5956  0.7963
  343MOL0     C45173  11.056   5.815   0.298  1.1698 -1.0153 -0.6773
  343MOL0     O45174  11.149   5.748   0.361 -0.6884 -0.5504  0.6305
  343MOL0     C45175  11.232   5.834   0.436  0.9066  0.7314 -0.6192
  343MOL0     C45176  11.311   5.932   0.374 -0.4696  0.3753  0.2885
  343MOL0     C45177  11.402   6.020   0.440  0.0010 -0.4877  0.2024
  343MOL0     C45178  11.410   6.010   0.578  0.1384 -0.0890  0.2327
  343MOL0     O45179  11.504   6.083   0.638 -0.0307  0.6523  0.4220
  343MOL0     C45180  11.607   6.010   0.707  0.2284 -0.4243  0.6766
  343MOL0     C45181  11.690   6.124   0.774  0.1948  0.3434 -0.0256
  343MOL0     C45182  11.829   6.074   0.824 -0.1009  0.5715 -0.9804
  343MOL0     C45183  11.905   6.184   0.907 -0.6446  0.5937 -0.4186
  343MOL0     C45184  12.043   6.132   0.949  0.1143  0.0719  0.4078
  343MOL0     C45185  12.143   6.102   0.830  1.0813 -0.9461 -0.3873
  343MOL0     C45186  12.274   6.047   0.884 -0.3826  1.0630 -0.5398
  343MOL0     C45187  12.406   6.091   0.811 -0.6068 -1.7548  0.6875
  343MOL0    Cl45188  12.385   6.074   0.635 -0.3732  0.5223 -0.3398
  343MOL0     C45189  11.331   5.918   0.641  0.2302 -0.1888  0.2129
  343MOL0     C45190  11.243   5.828   0.577 -0.5125 -0.0931 -0.1116
  343MOL0     O45191  10.997   5.910   0.341 -0.1890 -0.1597  0.4100
  343MOL0     C45192  10.831   5.769   0.180  0.9603  0.7028 -0.4630
  343MOL0     C45193  10.755   5.705   0.084  0.6445 -0.2773  0.0146
  343MOL0     N45194  10.484   5.104  -0.329 -0.7238 -0.3361  0.0784
  343MOL0     N45195  10.473   4.978  -0.352  0.0136 -0.2820 -0.9019
  343MOL0     C45196   9.604   4.431  -0.117  1.4853 -0.5998  0.7127
  343MOL0     C45197   9.569   4.393   0.016 -0.0721 -0.8371  0.9627
  343MOL0     C45198   9.592   4.465   0.480  0.0436 -0.2833  0.5409
  343MOL0     C45199   9.463   4.418   0.516  0.3002 -1.5107 -0.1526
  343MOL0     C45200   9.432   4.397   0.653 -0.6744  0.2519  0.5124
  343MOL0     C45201   9.539   4.422   0.745  0.5321  0.1217 -0.9056
  343MOL0     O45202   9.498   4.405   0.879  0.4039  1.0779  0.1810
  343MOL0     C45203   9.594   4.374   0.981 -0.6974 -0.2159  0.1361
  343MOL0     C45204   9.516   4.395   1.112  0.1533 -0.0072  0.4047
  343MOL0     C45205   9.423   4.274   1.141 -0.5718  0.2935 -0.4971
  343MOL0     C45206   9.416   4.238   1.288  0.0988  0.2827 -0.7308
  343MOL0     C45207   9.536   4.229   1.375 -0.0555 -0.1787 -0.2819
  343MOL0     C45208   9.639   4.211   1.432  0.7706  0.7960 -1.4931
  343MOL0     C45209   9.658   4.475   0.710  0.3121 -0.5548  0.4418
  343MOL0     C45210   9.686   4.490   0.577 -0.4877 -0.7067  0.6287
  343MOL0     H45211   9.599   4.711   0.140 -1.1641  2.1887 -1.3906
  343MOL0     H45212   9.660   4.768  -0.081  0.1642  0.6845 -0.0730
  343MOL0     H45213   9.704   4.422  -0.363 -0.6503  0.3158  3.0419
  343MOL0     H45214   9.834   4.505  -0.278 -1.5645 -0.1415 -0.0799
  343MOL0     H45215   9.710   4.558  -0.559  0.1793 -0.0242  0.0155
  343MOL0     H45216   9.864   4.489  -0.538 -0.5281 -1.5371 -0.1712
  343MOL0     H45217   9.756   4.764  -0.482  0.8347  1.2889 -2.6039
  343MOL0     H45218   9.865   4.705  -0.606  2.5469  0.8656  0.4190
  343MOL0     H45219   9.955   4.739  -0.294  2.4747  3.2914  0.5579
  343MOL0     H45220  10.042   4.654  -0.421  0.5739  1.0445 -0.1043
  343MOL0     H45221  10.045   4.938  -0.365  1.1853  0.8767 -1.4385
  343MOL0     H45222   9.956   4.921  -0.513 -0.8641 -0.8903 -0.9022
  343MOL0     H45223  10.184   4.949  -0.570 -0.6940 -0.1330 -2.3687
  343MOL0     H45224  10.121   4.804  -0.634  2.4226  1.7510 -1.5815
  343MOL0     H45225  10.241   4.667  -0.518 -2.3949  1.4613 -2.0993
  343MOL0     H45226  10.348   4.790  -0.553  1.4233  0.1734  1.7584
  343MOL0     H45227  10.384   4.719  -0.316 -1.8768 -0.1143  2.2103
  343MOL0     H45228  10.219   4.777  -0.274  0.7546  0.3362  0.2541
  343MOL0     H45229  10.199   5.030  -0.198  0.4939  2.8688  1.3524
  343MOL0     H45230  10.237   5.282  -0.177  0.4706 -0.1412  0.4671
  343MOL0     H45231  10.334   5.352  -0.308 -1.7636  0.6741  1.4826
  343MOL0     H45232  10.442   5.257  -0.042  2.1005 -0.4115 -0.4403
  343MOL0     H45233  10.367   5.413  -0.059  0.0628  0.2121 -0.8946
  343MOL0     H45234  10.635   5.341  -0.203 -0.2345 -0.1753 -0.1189
  343MOL0     H45235  10.538   5.491  -0.230  1.6992 -0.4997 -1.1048
  343MOL0     H45236  10.676   5.400   0.018  5.5141  0.1442 -1.5900
  343MOL0     H45237  10.555   5.526   0.008 -1.1695  0.8254 -1.2096
  343MOL0     H45238  10.999   5.501  -0.043  0.2506 -0.5014  0.2034
  343MOL0     H45239  11.128   5.621   0.129  0.0943  0.6802  0.1955
  343MOL0     H45240  11.310   5.930   0.266 -0.7786 -0.5148  0.3044
  343MOL0     H45241  11.462   6.084   0.376 -0.7118 -0.6861 -0.6841
  343MOL0     H45242  11.667   5.943   0.646 -0.9164 -2.0084  1.2249
  343MOL0     H45243  11.563   5.943   0.781  1.6136 -1.8601  0.2406
  343MOL0     H45244  11.637   6.194   0.840 -0.3383 -0.5590  0.5249
  343MOL0     H45245  11.718   6.196   0.697  1.2367  0.4794  0.4624
  343MOL0     H45246  11.886   6.042   0.737 -0.1416 -1.4563 -0.2959
  343MOL0     H45247  11.810   5.987   0.887 -1.5723  1.9886  0.6573
  343MOL0     H45248  11.907   6.274   0.844 -0.2913 -0.2201 -1.6144
  343MOL0     H45249  11.850   6.202   1.000  1.7431  1.7123  0.8506
  343MOL0     H45250  12.035   6.037   1.004 -3.1016 -0.1014 -0.1505
  343MOL0     H45251  12.092   6.208   1.011  1.5616  1.7854 -2.6194
  343MOL0     H45252  12.166   6.193   0.773  0.1567 -1.9182 -2.4160
  343MOL0     H45253  12.099   6.031   0.760 -1.9177 -1.0172  1.4167
  343MOL0     H45254  12.286   6.070   0.990 -3.0571 -0.4116  0.1836
  343MOL0     H45255  12.267   5.938   0.872  1.0634  1.0404 -1.4149
  343MOL0     H45256  12.488   6.031   0.852 -0.5656 -0.9352  1.8782
  343MOL0     H45257  12.424   6.199   0.817  0.0174 -1.7992 -0.1385
  343MOL0     H45258  11.342   5.926   0.749  0.2204 -0.4994  0.2381
  343MOL0     H45259  11.197   5.749   0.635 -0.4519 -1.2487 -1.5925
  343MOL0     H45260  10.788   5.845   0.245 -3.1314 -0.8874 -1.0709
  343MOL0     H45261  10.652   5.738   0.069  0.5870  0.6363  2.0745
  343MOL0     H45262   9.590   4.356  -0.194 -0.3562 -2.3807  2.6461
  343MOL0     H45263   9.532   4.295   0.044  1.8659 -2.6720 -2.2849
  343MOL0     H45264   9.392   4.404   0.435  1.3457 -1.5986 -1.0747
  343MOL0     H45265   9.340   4.357   0.694 -0.0695 -2.3845 -0.4643
  343MOL0     H45266   9.681   4.440   0.980 -0.4280 -0.5644 -0.7508
  343MOL0     H45267   9.640   4.276   0.968  1.9846  0.9159  0.6308
  343MOL0     H45268   9.596   4.392   1.186  0.1517  0.2308  0.4161
  343MOL0     H45269   9.470   4.493   1.125  1.7838  0.5274  2.9633
  343MOL0     H45270   9.462   4.186   1.088  3.3749  0.9196  1.0659
  343MOL0     H45271   9.324   4.303   1.105 -2.4124 -0.2954  3.5268
  343MOL0     H45272   9.343   4.312   1.319 -1.8369 -2.1252  0.8477
  343MOL0     H45273   9.354   4.148   1.297  1.9756 -1.0391 -0.2280
  343MOL0     H45274   9.723   4.185   1.494  0.2529  1.3815 -0.5092
  343MOL0     H45275   9.743   4.505   0.771 -1.2211  4.8641  0.4430
  343MOL0     H45276   9.784   4.522   0.544 -1.1220  0.1573 -0.4993
  344MOL0     O45277   3.107   1.185   7.179  0.0604  0.2917  0.9018
  344MOL0     C45278   2.993   1.220   7.208  0.5389  1.6887  0.0544
  344MOL0     O45279   2.954   1.343   7.204  0.1371  0.3737  0.6341
  344MOL0     C45280   3.034   1.448   7.173 -0.0762  0.0766 -0.0803
  344MOL0     C45281   3.088   1.464   7.041  0.2091  0.5468 -0.1642
  344MOL0     C45282   3.155   1.584   7.021 -0.5058  0.6913  0.0051
  344MOL0     C45283   3.168   1.681   7.121  0.5734 -0.6645 -0.0294
  344MOL0     O45284   3.218   1.806   7.092 -0.9918  0.3044  0.3351
  344MOL0     C45285   3.339   1.841   7.161  0.8030 -0.1012  0.4742
  344MOL0     C45286   3.394   1.981   7.101  0.2965 -0.3494 -0.1336
  344MOL0     C45287   3.520   2.003   7.176 -0.4600 -0.0884 -0.0767
  344MOL0     C45288   3.553   2.157   7.171 -0.4591 -0.2156  0.6060
  344MOL0     C45289   3.698   2.161   7.214  0.3228  0.8451  0.5850
  344MOL0     C45290   3.761   2.291   7.201  0.5631  0.7569 -0.3932
  344MOL0     C45291   3.906   2.299   7.236  0.0671  0.0190  0.7167
  344MOL0     C45292   3.953   2.451   7.206 -0.7870  0.0075 -1.3216
  344MOL0     N45293   4.093   2.482   7.224 -1.0847 -0.6784 -0.2674
  344MOL0     C45294   4.169   2.579   7.173 -0.0777 -1.6890  0.3066
  344MOL0     C45295   4.285   2.595   7.247 -0.2693  0.5692  0.2877
  344MOL0     C45296   4.409   2.671   7.223  1.0603 -0.3168  0.8646
  344MOL0     C45297   4.376   2.816   7.232 -0.3205 -0.8191 -0.7819
  344MOL0     C45298   4.275   2.855   7.121  0.0205 -0.1095  0.5440
  344MOL0     C45299   4.272   3.001   7.083 -0.6500  0.3231  0.6687
  344MOL0     O45300   4.140   3.041   7.028  0.3308 -0.1823  0.3041
  344MOL0     C45301   4.136   3.150   6.948 -0.5851  0.0655 -1.0053
  344MOL0     C45302   4.035   3.151   6.855  0.6100  0.0990  0.0757
  344MOL0     C45303   4.033   3.259   6.758  0.4287 -0.3524 -1.1289
  344MOL0     C45304   4.119   3.363   6.778  0.3992 -1.1238  0.2417
  344MOL0     C45305   4.102   3.474   6.674 -0.2631  0.3630 -0.8122
  344MOL0     O45306   4.192   3.574   6.704 -0.1105  0.1858 -0.0999
  344MOL0     C45307   4.208   3.669   6.606 -1.3133  0.1004 -0.9777
  344MOL0     C45308   4.225   3.802   6.649 -0.4347 -0.3634  0.2372
  344MOL0     C45309   4.235   3.908   6.554  0.7142 -0.9258 -0.2312
  344MOL0     C45310   4.245   3.888   6.419  0.6463 -0.0186 -0.5011
  344MOL0     O45311   4.256   3.997   6.334 -0.7925  0.4295  0.0779
  344MOL0     C45312   4.252   3.981   6.190  0.1984 -0.1290 -0.6784
  344MOL0     C45313   4.384   3.942   6.136 -0.8454 -0.4408  0.3939
  344MOL0     C45314   4.369   3.926   5.987  0.5529  0.6069  0.0048
  344MOL0     C45315   4.498   3.858   5.930  0.1115 -0.6639  0.2662
  344MOL0     C45316   4.621   3.951   5.940  0.2934 -0.2204  0.3909
  344MOL0     C45317   4.625   4.077   5.843 -0.3454  0.0803 -0.6995
  344MOL0     C45318   4.765   4.139   5.864 -0.9299 -1.0976 -0.3557
  344MOL0     C45319   4.775   4.288   5.824 -0.3357 -0.2064 -0.0807
  344MOL0    Cl45320   4.754   4.296   5.644  0.0821 -0.5110  0.3319
  344MOL0     C45321   4.223   3.761   6.373  0.1074 -0.2827  0.0178
  344MOL0     C45322   4.214   3.653   6.469  0.0778 -0.2236  0.6929
  344MOL0     O45323   4.041   3.462   6.574 -0.0467  0.2970 -0.3948
  344MOL0     C45324   4.210   3.367   6.878 -0.5381  0.8108 -0.9391
  344MOL0     C45325   4.212   3.261   6.973 -1.0831 -0.5402 -0.2172
  344MOL0     N45326   4.258   2.500   7.352 -0.2253 -0.9564  1.5312
  344MOL0     N45327   4.134   2.451   7.346 -0.1986  0.3262 -0.9172
  344MOL0     C45328   3.118   1.664   7.248 -0.3719  0.2582 -0.7121
  344MOL0     C45329   3.047   1.541   7.278  0.7375  0.0836 -0.0342
  344MOL0     C45330   2.906   1.111   7.249  0.6140 -0.0876 -0.4670
  344MOL0     C45331   2.762   1.125   7.251 -0.4862 -0.4115  0.2306
  344MOL0     C45332   2.675   1.027   7.303  0.8682  0.8065 -0.7873
  344MOL0     C45333   2.729   0.907   7.351  0.6192  0.0685  0.7763
  344MOL0     O45334   2.659   0.798   7.397  1.2085 -0.2644 -0.0860
  344MOL0     C45335   2.511   0.807   7.406  0.5333  0.8773  0.4262
  344MOL0     C45336   2.439   0.683   7.466  0.6415  0.3729  0.3566
  344MOL0     C45337   2.495   0.645   7.603  0.6103 -0.7479  0.3341
  344MOL0     C45338   2.444   0.510   7.650 -0.5472  0.7332 -0.3840
  344MOL0     C45339   2.460   0.492   7.791 -0.3530  0.0514  0.1441
  344MOL0     C45340   2.462   0.453   7.907  0.6782 -1.4851 -0.3183
  344MOL0     C45341   2.872   0.891   7.352 -0.2013  1.0705 -0.0209
  344MOL0     C45342   2.953   0.984   7.294 -1.1392 -0.3273 -0.4471
  344MOL0     H45343   3.087   1.394   6.959  1.1950  4.0407 -3.4192
  344MOL0     H45344   3.203   1.604   6.925 -0.1331  1.6467  0.3768
  344MOL0     H45345   3.418   1.769   7.138  1.6222  0.8764  0.1669
  344MOL0     H45346   3.326   1.852   7.269 -1.2178 -1.7422  0.4571
  344MOL0     H45347   3.321   2.063   7.111 -1.0347 -1.4956 -0.2002
  344MOL0     H45348   3.419   1.972   6.994  1.3598 -3.3739  0.2732
  344MOL0     H45349   3.607   1.952   7.135 -0.6105  1.1219 -2.0053
  344MOL0     H45350   3.510   1.991   7.285  3.3385  2.4459  0.7450
  344MOL0     H45351   3.530   2.205   7.075 -2.0606  0.7155  1.4173
  344MOL0     H45352   3.494   2.207   7.247  0.2931  0.2652  0.8838
  344MOL0     H45353   3.761   2.086   7.166  1.5691 -1.0389  4.7909
  344MOL0     H45354   3.704   2.130   7.318  5.1117  0.9964  0.5648
  344MOL0     H45355   3.701   2.366   7.254 -1.7059  1.1728 -3.3185
  344MOL0     H45356   3.750   2.324   7.098  1.2300 -0.1888 -0.7827
  344MOL0     H45357   3.924   2.271   7.340  1.4376 -2.9122 -0.2110
  344MOL0     H45358   3.968   2.231   7.177  1.3491  1.2479  0.6153
  344MOL0     H45359   3.904   2.514   7.281  1.3805 -1.3245  1.3977
  344MOL0     H45360   3.923   2.484   7.106  1.2093  0.5620 -1.7651
  344MOL0     H45361   4.157   2.629   7.077  2.1150  0.8062  1.2178
  344MOL0     H45362   4.449   2.645   7.125  1.9021 -0.5240  1.2623
  344MOL0     H45363   4.476   2.646   7.305 -0.5273 -1.7168  1.8137
  344MOL0     H45364   4.469   2.873   7.224 -1.5740  1.3688 -0.3553
  344MOL0     H45365   4.334   2.829   7.332 -0.4817  0.0173 -0.9516
  344MOL0     H45366   4.282   2.793   7.031  2.3688  0.0181  0.5888
  344MOL0     H45367   4.175   2.839   7.163 -0.0662 -0.7279  0.1214
  344MOL0     H45368   4.352   3.031   7.014 -0.2725  0.0691  0.9944
  344MOL0     H45369   4.293   3.058   7.174  2.1419  0.3182  0.1184
  344MOL0     H45370   3.959   3.074   6.841  0.7259 -0.0633  0.3328
  344MOL0     H45371   3.951   3.257   6.687 -0.2248 -0.1195 -0.3972
  344MOL0     H45372   4.220   3.817   6.757 -0.4289 -0.1186  0.2052
  344MOL0     H45373   4.236   4.005   6.602 -0.5954 -1.1033  0.2076
  344MOL0     H45374   4.226   4.071   6.134  2.5748 -0.3431 -2.2950
  344MOL0     H45375   4.176   3.906   6.166  0.0514 -0.1764 -0.0621
  344MOL0     H45376   4.436   3.864   6.194  2.5680  0.6757 -0.8963
  344MOL0     H45377   4.456   4.024   6.141  0.2401 -0.9519 -3.5289
  344MOL0     H45378   4.350   4.015   5.926 -0.3734 -0.9995 -2.2116
  344MOL0     H45379   4.288   3.852   5.981 -0.2429  1.4092  0.6820
  344MOL0     H45380   4.503   3.764   5.986 -2.9259 -0.8105  0.4315
  344MOL0     H45381   4.498   3.825   5.826  1.7376 -1.1330  0.3850
  344MOL0     H45382   4.711   3.891   5.923  1.3773  1.0650  1.2611
  344MOL0     H45383   4.638   3.982   6.044 -1.0465  0.8265  0.3274
  344MOL0     H45384   4.545   4.147   5.869  0.5473  0.4326  1.3867
  344MOL0     H45385   4.620   4.043   5.740 -2.5320  0.4028 -0.7426
  344MOL0     H45386   4.794   4.145   5.970 -1.6993 -1.9306 -0.0828
  344MOL0     H45387   4.835   4.074   5.811 -0.3223 -1.6241  1.0446
  344MOL0     H45388   4.868   4.335   5.857  1.0834 -3.8475  1.6322
  344MOL0     H45389   4.694   4.353   5.859 -0.5534  2.2004 -4.3437
  344MOL0     H45390   4.229   3.740   6.266  3.0039  1.1846 -0.2239
  344MOL0     H45391   4.206   3.549   6.439 -0.4282 -0.7587  2.5699
  344MOL0     H45392   4.279   3.451   6.881  2.6831 -1.6318 -0.7388
  344MOL0     H45393   4.259   3.256   7.070  1.2847  0.0658 -1.2740
  344MOL0     H45394   3.124   1.745   7.320  1.3900  0.9141 -1.5258
  344MOL0     H45395   2.999   1.533   7.375 -1.8110  1.6714 -1.0547
  344MOL0     H45396   2.711   1.217   7.224  1.2449  1.3225  2.4227
  344MOL0     H45397   2.570   1.040   7.326  0.8859  1.0859 -0.8626
  344MOL0     H45398   2.477   0.824   7.304  0.4944  0.0215  0.2926
  344MOL0     H45399   2.492   0.891   7.474 -2.6736  2.5514 -2.2351
  344MOL0     H45400   2.332   0.706   7.473  0.5803 -0.2560  2.2842
  344MOL0     H45401   2.442   0.601   7.393  0.9096  0.5295  0.1929
  344MOL0     H45402   2.467   0.728   7.668  0.1680 -0.8817  0.3235
  344MOL0     H45403   2.604   0.637   7.594  0.8350 -0.8596  2.5255
  344MOL0     H45404   2.336   0.493   7.645 -0.3006 -0.8677 -0.9748
  344MOL0     H45405   2.489   0.426   7.596 -3.0981 -1.8810  1.2611
  344MOL0     H45406   2.483   0.411   8.003  3.4271  0.8770  0.2396
  344MOL0     H45407   2.906   0.791   7.378  0.6034  0.7577 -2.1044
  344MOL0     H45408   3.055   0.945   7.290 -1.5038 -1.2156 -2.0489
  345MOL0     O45409   3.340   8.145   7.451 -0.9981  0.0098  0.2895
  345MOL0     C45410   3.411   8.207   7.533  0.5643  0.1091 -0.5222
  345MOL0     O45411   3.358   8.304   7.614  0.3445 -0.5289 -0.3105
  345MOL0     C45412   3.247   8.380   7.587 -0.0686 -0.3259  0.2626
  345MOL0     C45413   3.272   8.516   7.585  0.0530 -0.4553 -0.4295
  345MOL0     C45414   3.169   8.604   7.548  0.3244 -0.7731 -0.7147
  345MOL0     C45415   3.040   8.559   7.526  0.6492  0.0596  0.3780
  345MOL0     O45416   2.929   8.643   7.499  0.5282  0.3241  0.2466
  345MOL0     C45417   2.922   8.770   7.556 -0.6917 -0.3019  0.4313
  345MOL0     C45418   2.780   8.815   7.534  0.3867 -0.1327 -0.3838
  345MOL0     C45419   2.765   8.962   7.584 -0.2740 -0.3182 -0.0037
  345MOL0     C45420   2.653   9.035   7.512 -0.9875 -0.9553 -0.2697
  345MOL0     C45421   2.663   9.186   7.529 -0.1926 -0.0765 -0.6670
  345MOL0     C45422   2.536   9.255   7.471  0.0359  0.3215 -0.5945
  345MOL0     C45423   2.569   9.405   7.447 -0.5037 -0.1738  0.1852
  345MOL0     C45424   2.434   9.476   7.424 -0.2023 -0.6034  0.7281
  345MOL0     N45425   2.451   9.616   7.384 -0.5627 -0.6853  0.6361
  345MOL0     C45426   2.382   9.727   7.431  0.0928  0.9895 -0.3310
  345MOL0     C45427   2.412   9.824   7.339  0.0636  0.1096 -0.1150
  345MOL0     C45428   2.385   9.975   7.348  0.0584  0.0599 -0.6092
  345MOL0     C45429   2.240  10.008   7.395 -0.5519 -0.8152 -0.0073
  345MOL0     C45430   2.210  10.157   7.387 -0.5450 -0.3746  0.2914
  345MOL0     C45431   2.079  10.203   7.446 -0.0764  0.0101 -0.2342
  345MOL0     O45432   1.965  10.130   7.403 -0.1616 -0.3346  0.6448
  345MOL0     C45433   1.833  10.182   7.413 -0.7336  0.5913  0.2562
  345MOL0     C45434   1.728  10.121   7.331 -1.8227  0.0607  0.2774
  345MOL0     C45435   1.598  10.170   7.314 -0.0708  0.5435 -1.2286
  345MOL0     C45436   1.559  10.282   7.395 -0.1154 -0.4068  0.1825
  345MOL0     C45437   1.420  10.328   7.385  0.8247 -0.6994  0.1192
  345MOL0     O45438   1.337  10.270   7.293  0.1486 -0.0937 -0.2501
  345MOL0     C45439   1.226  10.336   7.262  0.3727  0.0751 -0.7579
  345MOL0     C45440   1.224  10.443   7.173  1.5931  1.4161 -1.0452
  345MOL0     C45441   1.098  10.517   7.167  0.6251 -0.3725 -0.4773
  345MOL0     C45442   0.980  10.482   7.235 -0.0311 -0.2203  0.6841
  345MOL0     O45443   0.861  10.545   7.230 -0.3014 -0.2980  0.8159
  345MOL0     C45444   0.834  10.642   7.129 -0.3094 -0.0363 -0.5627
  345MOL0     C45445   0.695  10.698   7.146  0.5925  0.7798  1.4876
  345MOL0     C45446   0.594  10.579   7.136 -0.5309 -0.2859 -0.3180
  345MOL0     C45447   0.456  10.622   7.090  1.0851 -0.5456  0.7389
  345MOL0     C45448   0.366  10.505   7.059  0.4924 -0.2338 -1.4559
  345MOL0     C45449   0.351  10.415   7.182  0.2017 -0.1968 -0.0330
  345MOL0     C45450   0.223  10.323   7.150  0.3296 -0.5744  0.1698
  345MOL0     C45451   0.256  10.183   7.182  0.3183  0.3488 -0.2579
  345MOL0    Cl45452   0.387  10.105   7.082  0.0775 -0.0135  0.0716
  345MOL0     C45453   0.981  10.364   7.306 -0.0758  0.1676  0.1381
  345MOL0     C45454   1.106  10.294   7.332 -0.2494 -0.3098 -0.2720
  345MOL0     O45455   1.389  10.417   7.471 -0.0256 -1.4556  0.6971
  345MOL0     C45456   1.650  10.329   7.502  0.2402 -0.4525  0.2589
  345MOL0     C45457   1.784  10.280   7.503  0.6725  0.5071 -1.6001
  345MOL0     N45458   2.492   9.773   7.238 -0.0447 -0.5612  0.0600
  345MOL0     N45459   2.514   9.653   7.271 -0.1864 -0.2716  0.4280
  345MOL0     C45460   3.012   8.424   7.551 -0.5708  0.2471 -0.4766
  345MOL0     C45461   3.114   8.327   7.579 -0.2989  0.6140  0.0401
  345MOL0     C45462   3.555   8.171   7.551  0.6544  0.3497 -0.2680
  345MOL0     C45463   3.644   8.231   7.647 -0.2781 -0.2059  0.4105
  345MOL0     C45464   3.774   8.184   7.671 -0.3325  0.2973  0.5332
  345MOL0     C45465   3.818   8.072   7.602 -0.7859  0.0833  1.0363
  345MOL0     O45466   3.949   8.037   7.617  0.1931  0.5963 -0.5748
  345MOL0     C45467   4.002   7.926   7.540  0.8330 -0.0993 -0.9851
  345MOL0     C45468   4.158   7.928   7.541 -0.0817 -0.0631  0.4061
  345MOL0     C45469   4.205   7.882   7.680  0.1632  0.1063  0.8118
  345MOL0     C45470   4.360   7.862   7.684 -0.1196  0.3965 -0.5247
  345MOL0     C45471   4.409   7.811   7.811  0.6642  0.5143  0.2786
  345MOL0     C45472   4.464   7.768   7.918 -0.2232 -0.0921  0.4288
  345MOL0     C45473   3.736   8.007   7.514  0.7429 -0.1637 -0.3000
  345MOL0     C45474   3.607   8.061   7.485 -0.8837  0.4379  0.7302
  345MOL0     H45475   3.370   8.552   7.617 -0.5599  0.2977  0.6778
  345MOL0     H45476   3.191   8.710   7.545 -3.5991  0.1811 -1.2271
  345MOL0     H45477   2.998   8.835   7.513 -2.2681 -0.8475 -3.5868
  345MOL0     H45478   2.937   8.751   7.663 -0.2402 -1.2260  0.2212
  345MOL0     H45479   2.707   8.755   7.588  1.3920 -0.2916  0.8637
  345MOL0     H45480   2.763   8.818   7.426  2.0620  1.3722 -0.6658
  345MOL0     H45481   2.855   9.020   7.562  0.1398 -1.0470 -0.2666
  345MOL0     H45482   2.761   8.970   7.693  0.1307 -0.1796  0.0053
  345MOL0     H45483   2.676   9.014   7.407 -1.8699 -0.3103 -0.6031
  345MOL0     H45484   2.559   8.990   7.546  0.7250 -3.1085  1.9309
  345MOL0     H45485   2.760   9.222   7.493 -0.3942  2.9695  1.5082
  345MOL0     H45486   2.670   9.218   7.633  1.4846 -0.5262 -0.6152
  345MOL0     H45487   2.452   9.255   7.541  0.3509  3.4882 -0.0959
  345MOL0     H45488   2.498   9.215   7.376  0.5227 -1.1313 -0.2154
  345MOL0     H45489   2.623   9.449   7.532  0.9623  2.2564 -1.8725
  345MOL0     H45490   2.639   9.405   7.364  2.3443  0.4181  2.4122
  345MOL0     H45491   2.366   9.472   7.510 -1.4046  0.7493 -0.1214
  345MOL0     H45492   2.387   9.427   7.339  0.2942  0.2336 -0.0423
  345MOL0     H45493   2.324   9.729   7.522  2.6250 -0.5407  1.4491
  345MOL0     H45494   2.420  10.021   7.255  1.0070  1.2106  0.2733
  345MOL0     H45495   2.443  10.023   7.428 -1.6129  2.9391 -0.9996
  345MOL0     H45496   2.234   9.974   7.499  1.9993 -0.9378  0.1778
  345MOL0     H45497   2.161   9.962   7.335 -1.2640 -0.5572  0.7122
  345MOL0     H45498   2.295  10.205   7.437  1.6285 -3.4972 -0.1294
  345MOL0     H45499   2.232  10.188   7.284  0.6997 -1.2794  0.2625
  345MOL0     H45500   2.055  10.306   7.416 -0.7338 -0.8170 -2.8354
  345MOL0     H45501   2.094  10.194   7.554 -0.6870 -3.2435 -0.3426
  345MOL0     H45502   1.754  10.049   7.254  0.0862  1.1030 -0.1176
  345MOL0     H45503   1.525  10.124   7.248 -1.9985  0.3093  0.9366
  345MOL0     H45504   1.301  10.461   7.098 -0.8390  1.1317 -3.7799
  345MOL0     H45505   1.100  10.603   7.101 -2.7520  0.1993  0.0082
  345MOL0     H45506   0.855  10.593   7.034 -0.7815 -2.6268  0.5853
  345MOL0     H45507   0.909  10.720   7.147 -0.6920  0.4894 -1.1815
  345MOL0     H45508   0.671  10.770   7.067  1.0440 -2.8204 -2.2594
  345MOL0     H45509   0.673  10.742   7.244  0.0628 -1.2878  2.3448
  345MOL0     H45510   0.603  10.530   7.234  0.6191  2.7227  1.2331
  345MOL0     H45511   0.639  10.518   7.058  1.9503  1.4725 -0.4067
  345MOL0     H45512   0.406  10.685   7.164 -0.9625 -0.8979 -0.2737
  345MOL0     H45513   0.464  10.671   6.992 -0.8962  0.7448  1.1479
  345MOL0     H45514   0.405  10.452   6.971  3.3267  1.3585 -1.2983
  345MOL0     H45515   0.268  10.550   7.040  0.2634  0.4376  0.9590
  345MOL0     H45516   0.335  10.475   7.272 -0.7970 -0.6019  0.0738
  345MOL0     H45517   0.439  10.354   7.205  0.9882  1.4074  1.3683
  345MOL0     H45518   0.137  10.357   7.209  1.8096 -2.2582  3.5415
  345MOL0     H45519   0.199  10.332   7.044 -1.1938 -0.5030  0.5000
  345MOL0     H45520   0.165  10.123   7.189 -1.9212  3.1019 -2.8182
  345MOL0     H45521   0.298  10.187   7.283 -0.7729 -0.3822  0.2315
  345MOL0     H45522   0.887  10.324   7.344  1.8821 -3.3643  1.6570
  345MOL0     H45523   1.119  10.202   7.387 -3.1769 -0.3750  0.4534
  345MOL0     H45524   1.621  10.415   7.561  0.4713 -1.2513  1.5731
  345MOL0     H45525   1.862  10.323   7.566  1.8875 -4.3626  0.7150
  345MOL0     H45526   2.910   8.390   7.565  0.2594 -1.6231  1.6483
  345MOL0     H45527   3.101   8.224   7.609  1.2581  0.6057  0.8118
  345MOL0     H45528   3.612   8.316   7.707  0.8640  1.0077 -0.6284
  345MOL0     H45529   3.831   8.216   7.758 -1.4974  0.5009  1.2516
  345MOL0     H45530   3.968   7.934   7.436 -0.3665  1.9134 -0.4857
  345MOL0     H45531   3.962   7.832   7.580  0.3225  1.4964  2.6235
  345MOL0     H45532   4.183   7.855   7.463  0.6350  0.0691  0.5010
  345MOL0     H45533   4.193   8.028   7.514 -0.1683 -0.4036 -1.0364
  345MOL0     H45534   4.148   7.795   7.713  0.8117 -0.1199  1.3810
  345MOL0     H45535   4.186   7.962   7.752  0.2102  0.2426  0.6750
  345MOL0     H45536   4.388   7.811   7.591 -0.9602 -0.9729 -0.0378
  345MOL0     H45537   4.396   7.965   7.675  0.5622  0.0837 -1.6567
  345MOL0     H45538   4.513   7.743   8.011  0.8008  0.2239 -0.0159
  345MOL0     H45539   3.762   7.916   7.461  2.1473 -1.1309  1.8779
  345MOL0     H45540   3.546   8.014   7.409  1.3731  0.4994 -1.2425
  346MOL0     O45541  11.305   3.994   2.300 -0.1177 -0.7309  0.1491
  346MOL0     C45542  11.429   4.008   2.297 -0.2459  0.2714 -0.1650
  346MOL0     O45543  11.510   3.943   2.210  0.5322  0.3186  0.5299
  346MOL0     C45544  11.471   3.857   2.115  0.2205  0.6086 -0.2944
  346MOL0     C45545  11.348   3.847   2.052  0.5936 -0.3287 -0.6423
  346MOL0     C45546  11.322   3.752   1.958  0.1745  0.0795  0.2459
  346MOL0     C45547  11.421   3.659   1.918  0.2625 -0.0167  0.4956
  346MOL0     O45548  11.408   3.562   1.814  0.6260  0.7788 -0.3184
  346MOL0     C45549  11.294   3.578   1.722 -0.6740  0.1962  0.2724
  346MOL0     C45550  11.305   3.459   1.628  0.2984  0.5298 -0.1638
  346MOL0     C45551  11.422   3.472   1.528  0.2132 -0.2754 -0.5086
  346MOL0     C45552  11.387   3.558   1.401  0.5464  0.3068  0.2401
  346MOL0     C45553  11.499   3.580   1.299 -0.2228  0.4024 -0.4575
  346MOL0     C45554  11.615   3.654   1.354 -0.5932  0.2405  0.7637
  346MOL0     C45555  11.686   3.736   1.244  0.1273  0.1536  0.2843
  346MOL0     C45556  11.738   3.649   1.129 -0.3563 -0.9911 -0.3193
  346MOL0     N45557  11.822   3.723   1.030  0.4348 -0.3628  0.8059
  346MOL0     C45558  11.908   3.832   1.044 -0.2794  0.4643 -0.8641
  346MOL0     C45559  11.980   3.840   0.936  0.5219 -0.1391  0.0517
  346MOL0     C45560  12.103   3.921   0.898  1.0015  0.1330  0.1231
  346MOL0     C45561  12.228   3.882   0.979 -0.2670 -0.2135 -0.9295
  346MOL0     C45562  12.258   3.730   0.975  0.0211  0.0805  0.0200
  346MOL0     C45563  12.351   3.698   1.093 -0.5744  0.3639 -0.5584
  346MOL0     O45564  12.286   3.672   1.221  0.6253  0.1949 -0.2879
  346MOL0     C45565  12.360   3.651   1.339  0.5673 -0.0730  0.5424
  346MOL0     C45566  12.326   3.717   1.461 -0.1866  0.2202  0.2569
  346MOL0     C45567  12.402   3.681   1.577 -0.6944 -0.2932  0.0071
  346MOL0     C45568  12.507   3.584   1.568  0.1601  0.1451 -0.6139
  346MOL0     C45569  12.606   3.575   1.679  0.1949  0.4697  0.4983
  346MOL0     O45570  12.584   3.673   1.779 -0.5186 -0.8125  0.2041
  346MOL0     C45571  12.661   3.688   1.890 -0.3980  0.5189  0.3315
  346MOL0     C45572  12.738   3.804   1.896  0.7351  0.0287 -0.4878
  346MOL0     C45573  12.818   3.835   2.010  0.6152  0.1189  0.5576
  346MOL0     C45574  12.825   3.744   2.110  0.3431  0.0351 -0.7602
  346MOL0     O45575  12.915   3.775   2.214  0.2451  0.9796 -0.2479
  346MOL0     C45576  12.876   3.730   2.343 -0.2612 -1.1906  0.8415
  346MOL0     C45577  12.961   3.621   2.395 -0.1058 -1.2932  0.7872
  346MOL0     C45578  12.901   3.536   2.509  0.6058 -0.2290  0.5592
  346MOL0     C45579  12.990   3.427   2.553  1.1440 -0.2284 -0.2277
  346MOL0     C45580  12.903   3.317   2.621  0.5305  0.4221 -0.7648
  346MOL0     C45581  12.820   3.353   2.746 -0.2761  0.7300  0.9275
  346MOL0     C45582  12.793   3.220   2.812  1.1505 -0.0075  0.1816
  346MOL0     C45583  12.689   3.233   2.931 -0.0802  0.1170  0.3953
  346MOL0    Cl45584  12.599   3.089   2.952  0.2406 -0.3362 -0.0032
  346MOL0     C45585  12.748   3.624   2.099 -0.3206 -0.1249  0.5815
  346MOL0     C45586  12.670   3.597   1.992  0.1798 -0.3744 -0.1921
  346MOL0     O45587  12.695   3.491   1.677 -0.3344  0.3689 -0.4601
  346MOL0     C45588  12.539   3.525   1.445  0.3294 -0.5193  0.7595
  346MOL0     C45589  12.459   3.561   1.335 -0.2362 -0.0881 -0.4423
  346MOL0     N45590  11.922   3.749   0.844  0.1236  0.0148 -0.7440
  346MOL0     N45591  11.845   3.668   0.904  1.4530 -0.1737 -1.0746
  346MOL0     C45592  11.546   3.663   1.978  0.4234 -0.7645 -0.0290
  346MOL0     C45593  11.564   3.754   2.083  0.2802 -1.4984 -1.6986
  346MOL0     C45594  11.471   4.135   2.366  0.4384  0.1434  0.7900
  346MOL0     C45595  11.599   4.182   2.382 -0.6172 -0.5129  0.2457
  346MOL0     C45596  11.632   4.293   2.459 -0.4576 -0.5847  0.0176
  346MOL0     C45597  11.531   4.365   2.530  0.0030 -0.3111  0.8868
  346MOL0     O45598  11.565   4.476   2.599 -0.3879 -0.2096 -0.8350
  346MOL0     C45599  11.704   4.514   2.642  0.0514 -0.1862  0.0442
  346MOL0     C45600  11.714   4.634   2.736 -0.1766 -0.0597 -0.4802
  346MOL0     C45601  11.648   4.622   2.874  0.4134  0.0131 -0.2506
  346MOL0     C45602  11.705   4.500   2.946 -0.1975  0.1846 -0.9200
  346MOL0     C45603  11.854   4.498   2.963  0.2499 -0.4543  0.0899
  346MOL0     C45604  11.957   4.530   3.019  0.4861  0.0265  0.0088
  346MOL0     C45605  11.400   4.319   2.512  0.6063 -0.8775  0.0245
  346MOL0     C45606  11.371   4.207   2.437 -0.2293  0.9168  0.0273
  346MOL0     H45607  11.274   3.922   2.077  0.0629 -0.7758 -0.8665
  346MOL0     H45608  11.226   3.759   1.908  0.8695  0.5974 -1.0884
  346MOL0     H45609  11.301   3.666   1.658  0.7084 -0.0902 -0.0064
  346MOL0     H45610  11.198   3.578   1.775 -0.6417 -2.5387  0.4948
  346MOL0     H45611  11.208   3.447   1.579  0.7728  2.5042 -1.7145
  346MOL0     H45612  11.329   3.378   1.697  0.6173  0.5072 -0.3012
  346MOL0     H45613  11.450   3.375   1.487 -0.7784  0.6050 -3.4899
  346MOL0     H45614  11.501   3.522   1.585 -1.5822  1.6034  0.5052
  346MOL0     H45615  11.306   3.516   1.341  1.0972  0.9141 -0.9734
  346MOL0     H45616  11.346   3.651   1.442 -1.0740 -1.1720  2.2094
  346MOL0     H45617  11.447   3.626   1.215 -0.9571 -1.5335 -1.1215
  346MOL0     H45618  11.529   3.482   1.262  0.8062  0.4699  0.1533
  346MOL0     H45619  11.679   3.573   1.390 -1.9395 -0.3711  1.8574
  346MOL0     H45620  11.588   3.716   1.440  0.3126 -0.6103  1.6933
  346MOL0     H45621  11.618   3.816   1.212 -0.4327 -0.0215  1.0095
  346MOL0     H45622  11.764   3.792   1.296 -0.2823  0.2887  0.7625
  346MOL0     H45623  11.669   3.584   1.075 -1.5858 -0.2693  0.3321
  346MOL0     H45624  11.810   3.594   1.191 -0.0590  1.6578  1.8689
  346MOL0     H45625  11.922   3.895   1.131  2.0438 -1.3962  0.2273
  346MOL0     H45626  12.081   4.028   0.910  1.0911  0.7544 -3.9429
  346MOL0     H45627  12.110   3.918   0.789  0.1409  0.3419  0.0552
  346MOL0     H45628  12.203   3.902   1.084 -3.1239 -2.2650 -1.0755
  346MOL0     H45629  12.314   3.945   0.953  2.0256 -1.9757  1.7708
  346MOL0     H45630  12.177   3.658   0.987 -0.0957  0.1177 -0.5059
  346MOL0     H45631  12.305   3.722   0.876  1.8718  0.7700  0.7954
  346MOL0     H45632  12.422   3.777   1.117  0.0552 -0.6817  1.1849
  346MOL0     H45633  12.414   3.614   1.064 -0.1508  1.3684 -2.7880
  346MOL0     H45634  12.243   3.787   1.466 -0.8768 -0.5510 -0.1127
  346MOL0     H45635  12.365   3.726   1.668 -1.4456  2.1227 -1.3933
  346MOL0     H45636  12.733   3.874   1.813 -3.0851 -1.1055 -1.4366
  346MOL0     H45637  12.885   3.920   2.004 -0.1079  0.5747 -2.0520
  346MOL0     H45638  12.772   3.696   2.339 -0.3234 -0.9642 -2.2140
  346MOL0     H45639  12.895   3.816   2.407  0.2017  0.7200 -1.6880
  346MOL0     H45640  13.049   3.670   2.439 -0.4439 -1.2705  1.4519
  346MOL0     H45641  12.988   3.551   2.316 -0.6320 -2.1799  1.3753
  346MOL0     H45642  12.810   3.500   2.460  2.4225 -0.2079 -3.2070
  346MOL0     H45643  12.882   3.598   2.597  0.5977  1.3575 -0.5273
  346MOL0     H45644  13.027   3.371   2.467 -0.1405 -1.8823  0.2663
  346MOL0     H45645  13.065   3.471   2.620  1.2276 -0.1846 -0.3498
  346MOL0     H45646  12.963   3.226   2.634  1.5165  1.0351 -0.8874
  346MOL0     H45647  12.823   3.283   2.555 -0.5243  1.7666 -0.2499
  346MOL0     H45648  12.731   3.408   2.716  0.6910  1.4209 -0.8314
  346MOL0     H45649  12.877   3.409   2.821  0.5362 -2.5786  3.0006
  346MOL0     H45650  12.748   3.146   2.747 -2.3033 -0.4306  2.7593
  346MOL0     H45651  12.882   3.168   2.848  0.5553  1.6339  4.7891
  346MOL0     H45652  12.622   3.313   2.900 -0.2088  0.6716  2.0021
  346MOL0     H45653  12.745   3.263   3.020  2.5926  2.1669 -1.7838
  346MOL0     H45654  12.750   3.557   2.185  0.0373  0.5962  1.1460
  346MOL0     H45655  12.631   3.499   1.963  2.1731 -1.6525  1.1894
  346MOL0     H45656  12.622   3.457   1.435  2.6203  2.4046 -3.7647
  346MOL0     H45657  12.470   3.512   1.238  3.4112  0.9300 -0.6936
  346MOL0     H45658  11.618   3.584   1.958  0.5030 -1.1645  1.7048
  346MOL0     H45659  11.654   3.757   2.144 -2.5835 -1.4880  3.0151
  346MOL0     H45660  11.674   4.133   2.321 -1.4629 -1.8990  0.2724
  346MOL0     H45661  11.734   4.329   2.461 -1.0700  1.2817 -0.4845
  346MOL0     H45662  11.764   4.536   2.554  3.3362 -0.8962  1.9328
  346MOL0     H45663  11.742   4.427   2.697  0.0119  1.9054  3.6933
  346MOL0     H45664  11.814   4.674   2.753  0.3740 -0.7862 -1.7990
  346MOL0     H45665  11.671   4.723   2.690 -0.6607  0.6261  1.2294
  346MOL0     H45666  11.542   4.618   2.848  0.4948  0.6258 -0.7213
  346MOL0     H45667  11.658   4.710   2.938  1.7470  0.8084 -1.4854
  346MOL0     H45668  11.659   4.505   3.045 -1.0226 -5.4579 -0.6918
  346MOL0     H45669  11.660   4.406   2.915 -0.5587 -0.7653  2.1986
  346MOL0     H45670  12.053   4.551   3.063  1.7540 -2.6907 -1.2178
  346MOL0     H45671  11.318   4.380   2.551  0.6451 -0.7815 -0.0434
  346MOL0     H45672  11.270   4.167   2.434 -0.2272  0.8437  0.6514
  347MOL0     O45673   1.901   6.783   4.404 -0.0104 -0.0692 -0.4201
  347MOL0     C45674   2.010   6.735   4.443  0.6076  0.1464 -0.1775
  347MOL0     O45675   2.063   6.624   4.390 -0.5001  0.0639 -0.0551
  347MOL0     C45676   1.998   6.576   4.281  0.2871 -0.4747  0.5454
  347MOL0     C45677   1.904   6.475   4.293 -0.4074  0.2075  0.4527
  347MOL0     C45678   1.867   6.408   4.179 -0.1987  0.3436  0.1705
  347MOL0     C45679   1.884   6.459   4.053  0.1973  1.7371  0.5736
  347MOL0     O45680   1.818   6.375   3.958 -0.3770  0.6177  0.1783
  347MOL0     C45681   1.853   6.389   3.820  0.2287 -0.7370  0.2149
  347MOL0     C45682   1.758   6.309   3.736 -0.0320  0.0722  0.0770
  347MOL0     C45683   1.781   6.157   3.770  0.5200 -0.4163 -0.8084
  347MOL0     C45684   1.913   6.099   3.734  0.6245  0.4904 -0.5234
  347MOL0     C45685   1.922   5.955   3.776  0.3004 -0.9331  0.0909
  347MOL0     C45686   2.062   5.889   3.757  1.0727  0.0027  1.1480
  347MOL0     C45687   2.145   5.942   3.646  0.4504 -1.1049  0.6999
  347MOL0     C45688   2.089   5.909   3.500  0.4844  0.1171 -0.0013
  347MOL0     N45689   2.173   5.978   3.407 -0.9717  0.0529 -0.1068
  347MOL0     C45690   2.191   5.930   3.274 -0.2589  0.0611  0.4070
  347MOL0     C45691   2.219   6.032   3.196  0.1730 -0.5557 -0.5055
  347MOL0     C45692   2.209   6.039   3.051  0.5080  0.3256 -0.1880
  347MOL0     C45693   2.338   5.977   2.987 -0.8857 -0.5781  0.2106
  347MOL0     C45694   2.344   6.014   2.834 -0.7727  0.4502  0.5669
  347MOL0     C45695   2.440   5.916   2.762  0.5307  0.6219 -0.0614
  347MOL0     O45696   2.408   5.934   2.620 -0.1099  0.0520 -0.3426
  347MOL0     C45697   2.439   6.056   2.558 -0.3726  0.7087  0.2844
  347MOL0     C45698   2.556   6.125   2.575  0.9122  1.0293 -0.4133
  347MOL0     C45699   2.589   6.226   2.482 -0.6644  0.3228 -0.5620
  347MOL0     C45700   2.500   6.263   2.380  0.1341  0.3375  0.3829
  347MOL0     C45701   2.531   6.383   2.298 -0.2770 -0.0393 -0.1783
  347MOL0     O45702   2.442   6.417   2.206 -0.0316 -0.0260  0.5327
  347MOL0     C45703   2.491   6.485   2.097  1.0814  0.4775  0.0699
  347MOL0     C45704   2.618   6.463   2.049  0.3872 -0.0218  0.7641
  347MOL0     C45705   2.668   6.527   1.927  0.9848  0.9699 -0.3946
  347MOL0     C45706   2.586   6.618   1.860  0.3239 -0.1839 -0.1391
  347MOL0     O45707   2.635   6.678   1.755 -0.2611  0.6075  0.5111
  347MOL0     C45708   2.558   6.757   1.666  0.2832  0.5049 -1.0249
  347MOL0     C45709   2.635   6.754   1.532 -0.4569 -0.0697 -0.3748
  347MOL0     C45710   2.565   6.811   1.411  0.1513  0.1443  0.1848
  347MOL0     C45711   2.541   6.962   1.419 -1.4612 -0.1593  0.1440
  347MOL0     C45712   2.438   7.011   1.318  0.2940 -0.7163  0.0025
  347MOL0     C45713   2.484   7.011   1.172  0.4393  0.9425 -0.5754
  347MOL0     C45714   2.388   7.048   1.055  0.8695 -0.6299 -0.9973
  347MOL0     C45715   2.305   7.177   1.092 -0.2913  0.1833  0.2003
  347MOL0    Cl45716   2.162   7.124   1.185  0.3195 -0.1026 -0.0986
  347MOL0     C45717   2.453   6.642   1.914 -0.5957  0.8563  0.4528
  347MOL0     C45718   2.403   6.564   2.021 -0.3684 -0.1919  0.1185
  347MOL0     O45719   2.622   6.453   2.343  0.0769 -1.0970  0.6397
  347MOL0     C45720   2.385   6.190   2.359 -0.9377  0.1726 -0.3347
  347MOL0     C45721   2.362   6.084   2.444  0.8484 -0.2070  0.2252
  347MOL0     N45722   2.204   6.147   3.275  0.3541  0.2706  0.1329
  347MOL0     N45723   2.193   6.114   3.401 -0.0039 -0.2661 -0.8163
  347MOL0     C45724   1.973   6.560   4.034 -0.4103  0.7578  1.0201
  347MOL0     C45725   2.022   6.622   4.149  0.2346 -0.0681  0.0070
  347MOL0     C45726   2.062   6.790   4.562  0.2617  0.3834  0.0981
  347MOL0     C45727   2.203   6.808   4.567  0.7277  0.1119  0.0103
  347MOL0     C45728   2.254   6.884   4.673 -0.2799 -0.2705  0.0466
  347MOL0     C45729   2.170   6.947   4.767 -0.4746  0.4718 -0.3953
  347MOL0     O45730   2.220   7.013   4.878  0.6752  0.1602  0.7457
  347MOL0     C45731   2.356   7.039   4.893  0.5193 -0.4347  0.1754
  347MOL0     C45732   2.393   7.158   4.796  0.1083  0.4917  0.3400
  347MOL0     C45733   2.532   7.197   4.826 -0.5558  0.0558 -0.3727
  347MOL0     C45734   2.635   7.108   4.758  0.5398  0.0353  0.6423
  347MOL0     C45735   2.627   7.112   4.606 -0.0614 -0.6579 -0.9024
  347MOL0     C45736   2.623   7.100   4.482  0.7226 -1.0148 -0.4768
  347MOL0     C45737   2.032   6.932   4.754 -0.3009  0.4305  0.9187
  347MOL0     C45738   1.977   6.852   4.655 -0.7190 -0.7702  0.7052
  347MOL0     H45739   1.883   6.439   4.393 -2.3455  0.7761  0.2840
  347MOL0     H45740   1.796   6.327   4.190 -1.3208  1.4630  1.4557
  347MOL0     H45741   1.953   6.346   3.807 -0.0349 -1.9715  1.9522
  347MOL0     H45742   1.856   6.495   3.795  0.0549 -0.6808  0.4336
  347MOL0     H45743   1.786   6.324   3.631  0.3453 -1.0028  0.0118
  347MOL0     H45744   1.656   6.342   3.757 -0.7733 -2.6451  1.2188
  347MOL0     H45745   1.700   6.103   3.720 -1.6090  2.2830 -0.4941
  347MOL0     H45746   1.762   6.144   3.877  1.0312  1.5582 -0.4548
  347MOL0     H45747   1.929   6.120   3.628  0.4394  0.7442 -0.5020
  347MOL0     H45748   1.995   6.152   3.784  2.7460 -2.7530 -0.3066
  347MOL0     H45749   1.848   5.895   3.723 -5.3257  1.6487  4.0515
  347MOL0     H45750   1.887   5.942   3.879  0.6937  0.9763  0.5093
  347MOL0     H45751   2.060   5.781   3.742 -1.8714  0.2748 -1.4922
  347MOL0     H45752   2.121   5.920   3.843  0.6447  0.1399  1.3926
  347MOL0     H45753   2.147   6.051   3.643 -0.0065 -1.0459 -3.0598
  347MOL0     H45754   2.249   5.910   3.649  0.4634 -1.4257 -1.2504
  347MOL0     H45755   1.985   5.943   3.490 -0.9493 -2.8478  2.8187
  347MOL0     H45756   2.092   5.801   3.485 -1.7139 -0.1475  1.0342
  347MOL0     H45757   2.166   5.835   3.227 -2.3701  2.2915 -3.5177
  347MOL0     H45758   2.189   6.144   3.026 -1.8859  0.0369  0.2040
  347MOL0     H45759   2.115   5.987   3.027 -0.9724  2.3255  0.9318
  347MOL0     H45760   2.351   5.871   3.006  0.8575 -0.5874 -0.7449
  347MOL0     H45761   2.422   6.029   3.034 -1.3127  1.5425 -1.2171
  347MOL0     H45762   2.246   5.998   2.788  0.4202 -1.4386 -1.5364
  347MOL0     H45763   2.387   6.113   2.822  0.5258 -0.3919 -3.1156
  347MOL0     H45764   2.430   5.814   2.800 -1.5494  1.1610  0.9654
  347MOL0     H45765   2.547   5.936   2.779  0.7260 -2.0902  2.6714
  347MOL0     H45766   2.630   6.107   2.653  0.1144  0.8620  0.3138
  347MOL0     H45767   2.686   6.273   2.497 -0.0617 -0.5492 -1.5721
  347MOL0     H45768   2.693   6.406   2.103  1.1976  1.5467  1.3603
  347MOL0     H45769   2.770   6.504   1.899  1.4486  1.7266  0.5775
  347MOL0     H45770   2.547   6.860   1.703 -0.1630 -0.2091  0.9222
  347MOL0     H45771   2.462   6.710   1.641  0.6077  0.1513 -1.6300
  347MOL0     H45772   2.665   6.653   1.506 -2.9441 -0.4519 -2.1026
  347MOL0     H45773   2.722   6.816   1.552 -0.5049 -0.5791  1.6901
  347MOL0     H45774   2.467   6.767   1.392 -1.4180  3.0024  0.9936
  347MOL0     H45775   2.623   6.789   1.322 -0.8962 -0.2160 -0.4248
  347MOL0     H45776   2.512   6.992   1.520 -2.8366  1.8197 -0.7794
  347MOL0     H45777   2.636   7.011   1.396 -1.2765 -1.5109 -2.2375
  347MOL0     H45778   2.413   7.112   1.354  1.1869 -1.2838  2.3828
  347MOL0     H45779   2.344   6.957   1.328 -0.1033 -0.1410 -0.5495
  347MOL0     H45780   2.521   6.910   1.151 -1.1786 -0.0573  1.0555
  347MOL0     H45781   2.570   7.074   1.149  0.5188  0.3610 -2.0455
  347MOL0     H45782   2.441   7.062   0.960  2.8081 -1.7189 -0.1267
  347MOL0     H45783   2.323   6.961   1.039  1.2823 -0.7462 -2.1942
  347MOL0     H45784   2.281   7.243   1.008  0.8814 -0.2168 -0.4670
  347MOL0     H45785   2.375   7.235   1.151  3.6900 -1.4751 -2.4457
  347MOL0     H45786   2.377   6.698   1.860 -1.1289 -0.1888  0.1047
  347MOL0     H45787   2.296   6.566   2.043  0.1347 -0.7646  3.1054
  347MOL0     H45788   2.327   6.223   2.273 -1.1502  0.5743 -0.0439
  347MOL0     H45789   2.280   6.019   2.417 -0.0604  0.4264  1.3503
  347MOL0     H45790   2.006   6.585   3.934  0.9277 -1.3837  0.8643
  347MOL0     H45791   2.093   6.703   4.138  0.3182  0.1790  2.1015
  347MOL0     H45792   2.254   6.779   4.476 -0.6244  4.6628 -2.4950
  347MOL0     H45793   2.363   6.889   4.673  0.0484 -2.4490 -4.3046
  347MOL0     H45794   2.410   6.947   4.868 -3.6595 -3.4468  0.9947
  347MOL0     H45795   2.375   7.077   4.994 -0.6080 -0.8829  0.5789
  347MOL0     H45796   2.379   7.144   4.688  2.3519  1.3801 -0.1227
  347MOL0     H45797   2.326   7.241   4.822  0.6337  0.8338  0.6289
  347MOL0     H45798   2.547   7.196   4.934  1.5522  1.0530 -0.6080
  347MOL0     H45799   2.531   7.306   4.818 -1.8501  0.5079  3.6898
  347MOL0     H45800   2.730   7.160   4.776 -0.0028  1.3601 -0.1307
  347MOL0     H45801   2.637   7.004   4.790 -1.6338 -1.3464 -3.0555
  347MOL0     H45802   2.632   7.093   4.375  7.7130  0.1161 -0.4315
  347MOL0     H45803   1.966   6.982   4.825  0.8782 -0.2145  2.5448
  347MOL0     H45804   1.870   6.854   4.637 -0.5067 -2.4552 -1.1853
  348MOL0     O45805  11.143   5.487   0.679  0.6738 -0.0848  0.0162
  348MOL0     C45806  11.213   5.403   0.626 -0.2508 -0.6161  0.6938
  348MOL0     O45807  11.330   5.350   0.675 -0.2727  0.2029  0.0346
  348MOL0     C45808  11.396   5.437   0.763 -0.8408 -0.6466 -0.2985
  348MOL0     C45809  11.473   5.541   0.712 -0.1317 -0.0418 -0.5923
  348MOL0     C45810  11.541   5.630   0.800  0.0532 -0.3131 -0.5144
  348MOL0     C45811  11.539   5.607   0.940 -0.1044  0.0965 -0.8520
  348MOL0     O45812  11.586   5.714   1.020  0.3693 -0.4941 -0.2401
  348MOL0     C45813  11.508   5.749   1.137 -0.1945 -0.4568 -0.8047
  348MOL0     C45814  11.513   5.894   1.179 -0.9760 -0.7030  0.6209
  348MOL0     C45815  11.641   5.947   1.239  0.1719 -0.8292 -0.4817
  348MOL0     C45816  11.640   6.096   1.256  0.1419  0.5443 -0.4465
  348MOL0     C45817  11.560   6.124   1.386 -0.1226  0.0164 -0.1267
  348MOL0     C45818  11.585   6.268   1.446 -0.4466  0.9070  0.0236
  348MOL0     C45819  11.738   6.292   1.487  0.0548 -1.0403  0.1350
  348MOL0     C45820  11.749   6.400   1.593  0.8520 -0.7996  0.5972
  348MOL0     N45821  11.881   6.459   1.610 -0.3292 -0.4447 -0.6103
  348MOL0     C45822  11.986   6.390   1.653 -0.4944  0.5434  0.4280
  348MOL0     C45823  12.091   6.473   1.635  0.5773 -0.0579  0.3948
  348MOL0     C45824  12.220   6.440   1.688 -0.1097 -0.3117  0.1330
  348MOL0     C45825  12.302   6.553   1.758 -0.6507  0.6949  0.8113
  348MOL0     C45826  12.409   6.500   1.847  0.1591  0.2662 -0.3330
  348MOL0     C45827  12.547   6.462   1.774 -0.0867  0.3229  0.6543
  348MOL0     O45828  12.657   6.453   1.859  0.6225 -0.4489 -0.2553
  348MOL0     C45829  12.686   6.335   1.919  1.1472 -0.4631  0.5839
  348MOL0     C45830  12.804   6.329   2.000  1.8758  0.0024  0.4009
  348MOL0     C45831  12.836   6.212   2.075 -0.2463 -0.0541  0.1578
  348MOL0     C45832  12.758   6.095   2.065 -0.1282  1.0279  0.6075
  348MOL0     C45833  12.793   5.970   2.146  0.5815 -0.1424  0.9088
  348MOL0     O45834  12.700   5.861   2.157 -0.0314 -0.4532  0.3853
  348MOL0     C45835  12.749   5.744   2.215 -0.4786 -0.7280 -0.2748
  348MOL0     C45836  12.705   5.710   2.346  0.1022  0.3949 -0.1876
  348MOL0     C45837  12.732   5.592   2.409 -0.4395  0.7612 -0.8188
  348MOL0     C45838  12.802   5.493   2.330 -0.3189  0.1124 -0.7122
  348MOL0     O45839  12.839   5.375   2.384 -0.5501 -1.0136  0.3423
  348MOL0     C45840  12.726   5.288   2.416 -0.3603  0.1657  0.3971
  348MOL0     C45841  12.746   5.248   2.560  0.1314  0.4588 -0.2319
  348MOL0     C45842  12.648   5.159   2.618 -0.1949  0.6921  0.0075
  348MOL0     C45843  12.669   5.023   2.557 -0.0214  0.7524 -0.2618
  348MOL0     C45844  12.586   4.924   2.642  1.0993  0.3731  1.0085
  348MOL0     C45845  12.661   4.883   2.772  0.0650  0.3127 -0.1153
  348MOL0     C45846  12.574   4.777   2.846  0.2961  0.9281  0.4601
  348MOL0     C45847  12.623   4.747   2.989  0.5871  0.0151 -0.8066
  348MOL0    Cl45848  12.780   4.678   2.993  0.0533  0.0109  0.0309
  348MOL0     C45849  12.850   5.526   2.206 -0.4545  0.2425  0.4275
  348MOL0     C45850  12.829   5.654   2.149 -0.0509  0.2035  0.2521
  348MOL0     O45851  12.901   5.980   2.211 -0.2980 -0.6581 -0.0141
  348MOL0     C45852  12.642   6.106   1.978  0.1557  0.7053  0.0897
  348MOL0     C45853  12.611   6.215   1.908 -0.0507 -0.5730 -0.3577
  348MOL0     N45854  12.050   6.596   1.583  1.2560  0.3866 -0.5094
  348MOL0     N45855  11.924   6.580   1.561  0.1211  0.3189 -0.4266
  348MOL0     C45856  11.485   5.486   0.986 -0.0654  0.5405  0.4634
  348MOL0     C45857  11.417   5.402   0.892 -0.7552  0.0925  0.2379
  348MOL0     C45858  11.146   5.343   0.502 -0.1039 -0.2679  1.3135
  348MOL0     C45859  11.194   5.216   0.452  0.4942 -1.2202  0.9383
  348MOL0     C45860  11.130   5.152   0.336 -0.3532 -0.9164 -0.7261
  348MOL0     C45861  11.024   5.214   0.279  0.3815 -0.8780  0.1673
  348MOL0     O45862  10.961   5.153   0.175  0.1590 -0.3961 -0.0339
  348MOL0     C45863  10.835   5.199   0.122  0.4239  0.6865 -0.4035
  348MOL0     C45864  10.782   5.083   0.037 -0.4466 -0.6310  0.1326
  348MOL0     C45865  10.704   4.988   0.123 -0.6078  0.0406 -0.8503
  348MOL0     C45866  10.663   4.865   0.037  0.2558 -0.2579  0.4940
  348MOL0     C45867  10.576   4.786   0.126 -0.7714  0.2686 -0.1227
  348MOL0     C45868  10.513   4.720   0.200  0.4745 -0.4737 -0.2653
  348MOL0     C45869  10.985   5.340   0.321  0.1035  0.4453 -1.5212
  348MOL0     C45870  11.040   5.405   0.428  0.0184 -0.5214 -0.7183
  348MOL0     H45871  11.459   5.572   0.608 -2.5124  0.1510 -0.2679
  348MOL0     H45872  11.595   5.720   0.772  0.1816  0.1137  1.0388
  348MOL0     H45873  11.557   5.697   1.220 -1.5055  1.7287  1.4930
  348MOL0     H45874  11.407   5.714   1.117  0.2873 -0.5159 -3.5412
  348MOL0     H45875  11.431   5.896   1.251 -4.2071  0.0820 -2.7307
  348MOL0     H45876  11.497   5.949   1.086 -0.8174 -2.0954 -0.2667
  348MOL0     H45877  11.725   5.929   1.171  1.3697  2.0319  0.0635
  348MOL0     H45878  11.670   5.901   1.334 -2.9383 -0.2357  0.8863
  348MOL0     H45879  11.745   6.115   1.282 -0.6017  0.9193  2.6768
  348MOL0     H45880  11.608   6.153   1.168  1.6131  2.7737  0.3728
  348MOL0     H45881  11.569   6.047   1.463  0.8968  0.7470  0.5143
  348MOL0     H45882  11.453   6.116   1.363 -0.7481 -3.7548  3.1216
  348MOL0     H45883  11.509   6.292   1.521 -1.5151 -0.8018 -0.4486
  348MOL0     H45884  11.565   6.334   1.361 -2.5056  0.6449  0.2493
  348MOL0     H45885  11.775   6.196   1.522 -0.8812 -0.8016  1.8976
  348MOL0     H45886  11.797   6.318   1.398 -2.7170 -0.6606 -1.7334
  348MOL0     H45887  11.710   6.359   1.687 -3.4354  0.5898 -0.3769
  348MOL0     H45888  11.689   6.488   1.568  0.1439 -1.6036 -0.6617
  348MOL0     H45889  11.982   6.294   1.703  1.2394  0.2912  0.1484
  348MOL0     H45890  12.273   6.399   1.601  1.8317  2.3469 -0.0394
  348MOL0     H45891  12.208   6.354   1.755 -1.5137  0.6335  1.1530
  348MOL0     H45892  12.235   6.613   1.820 -0.7185  3.0949 -1.4478
  348MOL0     H45893  12.332   6.624   1.681  0.9625 -1.3286 -0.5442
  348MOL0     H45894  12.433   6.587   1.908 -1.3490  0.1651  0.4595
  348MOL0     H45895  12.373   6.415   1.907 -2.2740  1.5156  0.0727
  348MOL0     H45896  12.567   6.545   1.706 -1.6234  1.0106  1.0202
  348MOL0     H45897  12.535   6.371   1.713  2.3373  0.8547 -0.7612
  348MOL0     H45898  12.848   6.428   2.009  0.9038  0.3639  1.3980
  348MOL0     H45899  12.930   6.210   2.129  0.1451  0.0021 -0.5185
  348MOL0     H45900  12.648   5.781   2.404 -0.4950 -0.4889  0.3182
  348MOL0     H45901  12.703   5.578   2.513 -1.0200 -0.7041 -1.1547
  348MOL0     H45902  12.728   5.204   2.347  3.1461  3.0717 -3.6160
  348MOL0     H45903  12.629   5.338   2.408 -0.7394 -0.7723 -0.9896
  348MOL0     H45904  12.760   5.337   2.620 -1.8301  1.7775 -1.5930
  348MOL0     H45905  12.848   5.212   2.574 -0.4324 -0.0733  3.4127
  348MOL0     H45906  12.545   5.195   2.607  0.5603  3.5967  1.5618
  348MOL0     H45907  12.662   5.153   2.726 -0.2100  2.4573  0.1417
  348MOL0     H45908  12.635   5.008   2.454  3.5608 -2.5223 -1.1944
  348MOL0     H45909  12.776   4.997   2.557 -0.1384 -0.0034 -2.8105
  348MOL0     H45910  12.562   4.841   2.575  2.7411  0.9411 -0.3548
  348MOL0     H45911  12.485   4.958   2.666 -0.4758 -1.7850 -1.8351
  348MOL0     H45912  12.699   4.965   2.834  5.9695  0.7977 -3.6011
  348MOL0     H45913  12.752   4.830   2.742 -0.5595 -1.5596  1.1254
  348MOL0     H45914  12.471   4.814   2.847  0.2371  0.9136 -1.5977
  348MOL0     H45915  12.576   4.689   2.782 -0.1133  2.8028 -2.2916
  348MOL0     H45916  12.563   4.665   3.028  1.6566 -1.0730 -1.3697
  348MOL0     H45917  12.614   4.842   3.042  1.0437 -1.6428  2.5056
  348MOL0     H45918  12.912   5.449   2.162 -2.8258 -0.0408 -2.7947
  348MOL0     H45919  12.866   5.674   2.049 -0.0341  1.0357  0.4156
  348MOL0     H45920  12.572   6.029   1.948 -2.4500  2.7220  0.5817
  348MOL0     H45921  12.524   6.211   1.843  0.2892  3.4583 -1.3199
  348MOL0     H45922  11.490   5.444   1.087 -2.0140  2.2169  1.3266
  348MOL0     H45923  11.378   5.306   0.924 -0.6415 -0.0190  0.0409
  348MOL0     H45924  11.279   5.166   0.497  0.5845 -2.1900 -0.2424
  348MOL0     H45925  11.169   5.065   0.285 -0.7010 -1.6599  0.2362
  348MOL0     H45926  10.843   5.296   0.072 -0.5797  0.7263 -0.5138
  348MOL0     H45927  10.773   5.222   0.209  0.5414  0.3493 -0.2321
  348MOL0     H45928  10.711   5.137  -0.026  0.7117  1.6818  0.6878
  348MOL0     H45929  10.858   5.031  -0.022  0.8940  2.3369 -0.9517
  348MOL0     H45930  10.620   5.047   0.160 -0.9670  1.7032 -3.9923
  348MOL0     H45931  10.764   4.953   0.208 -1.7132 -0.1857 -0.1344
  348MOL0     H45932  10.617   4.898  -0.056  1.3170  2.8877  0.9794
  348MOL0     H45933  10.756   4.810   0.016  0.5931  0.5924 -0.3233
  348MOL0     H45934  10.471   4.665   0.282 -1.4759  1.4872  0.1557
  348MOL0     H45935  10.896   5.387   0.281 -0.4694  0.7864  0.0775
  348MOL0     H45936  10.990   5.500   0.445 -1.2047 -0.5334 -3.7104
  349MOL0     O45937   9.346   3.765   5.170  0.5863 -0.6935 -0.3019
  349MOL0     C45938   9.388   3.685   5.090 -0.1592  0.8780 -0.3862
  349MOL0     O45939   9.311   3.603   5.001 -0.4002 -0.6701  1.7522
  349MOL0     C45940   9.176   3.636   4.972 -0.7091  0.0220 -0.4450
  349MOL0     C45941   9.116   3.758   4.990  0.3908  0.3386  0.0276
  349MOL0     C45942   8.986   3.784   4.958  0.2011 -0.6852 -0.1101
  349MOL0     C45943   8.900   3.679   4.905  0.8487 -0.1702  0.1893
  349MOL0     O45944   8.771   3.684   4.857  0.3373 -0.4133 -0.7113
  349MOL0     C45945   8.687   3.782   4.926 -0.1394  0.9775  0.5800
  349MOL0     C45946   8.551   3.787   4.867  0.1676 -0.2551  0.8755
  349MOL0     C45947   8.542   3.889   4.745 -0.1692  1.4583 -0.4921
  349MOL0     C45948   8.392   3.907   4.700 -0.2231  0.5182 -0.5836
  349MOL0     C45949   8.374   4.010   4.589  0.2949 -0.0432  0.1702
  349MOL0     C45950   8.225   4.040   4.563  0.2600  0.0958 -0.0119
  349MOL0     C45951   8.214   4.120   4.437 -0.0678  0.3266  0.4417
  349MOL0     C45952   8.065   4.174   4.416  0.0536  0.7739 -0.0257
  349MOL0     N45953   8.044   4.292   4.504 -1.1920 -0.4064  0.0486
  349MOL0     C45954   8.079   4.415   4.463 -0.1786 -0.4536  0.5004
  349MOL0     C45955   8.057   4.494   4.573  1.1166  1.6217  1.0048
  349MOL0     C45956   8.079   4.635   4.596 -0.7263 -0.3341  0.6850
  349MOL0     C45957   7.989   4.729   4.510 -0.3643  0.4480 -0.4677
  349MOL0     C45958   8.039   4.871   4.510 -0.4989  1.0059 -1.2049
  349MOL0     C45959   7.933   4.960   4.460  0.0177 -1.2948  0.5235
  349MOL0     O45960   7.860   4.911   4.345  0.1309  0.3248 -0.6793
  349MOL0     C45961   7.726   4.939   4.337 -0.1142  1.0191  0.8900
  349MOL0     C45962   7.648   4.846   4.268  0.1351 -0.4157  0.3016
  349MOL0     C45963   7.506   4.855   4.267  0.0020  0.2134  0.0610
  349MOL0     C45964   7.445   4.981   4.312 -0.5811 -0.3888  0.5356
  349MOL0     C45965   7.304   5.010   4.296 -0.4381  0.3454 -0.0824
  349MOL0     O45966   7.278   5.143   4.301  0.9038 -0.2335 -0.2919
  349MOL0     C45967   7.147   5.169   4.277 -0.9812 -1.0985  0.1837
  349MOL0     C45968   7.053   5.163   4.381  0.0623  1.0436 -0.9360
  349MOL0     C45969   6.928   5.205   4.357  0.5232 -0.0889 -0.0063
  349MOL0     C45970   6.885   5.241   4.234  1.2739  0.3914  0.4464
  349MOL0     O45971   6.760   5.301   4.207  0.3865  0.8526 -0.1990
  349MOL0     C45972   6.665   5.205   4.157 -0.2121  0.0248  0.3495
  349MOL0     C45973   6.590   5.116   4.267  0.1386 -0.0053  0.9278
  349MOL0     C45974   6.476   5.192   4.327  0.6378  0.0234 -0.0064
  349MOL0     C45975   6.504   5.295   4.435  0.7221 -0.9156 -0.2695
  349MOL0     C45976   6.374   5.348   4.499 -0.0598 -0.2641 -0.1075
  349MOL0     C45977   6.377   5.497   4.545  0.0573 -0.2933 -0.2028
  349MOL0     C45978   6.493   5.532   4.645 -0.5630  0.4461 -0.6973
  349MOL0     C45979   6.483   5.659   4.723  0.5683 -0.5096  0.0864
  349MOL0    Cl45980   6.624   5.698   4.818 -0.2754 -0.1178 -0.2645
  349MOL0     C45981   6.984   5.242   4.128 -0.0986 -0.8912 -0.0245
  349MOL0     C45982   7.110   5.206   4.152 -0.0373 -0.1184  0.7119
  349MOL0     O45983   7.226   4.920   4.254  0.2675  0.6977 -0.2058
  349MOL0     C45984   7.528   5.063   4.392  0.5582  0.2990 -0.0015
  349MOL0     C45985   7.663   5.050   4.394 -0.5231 -1.1521  0.3217
  349MOL0     N45986   7.988   4.419   4.672 -0.4826  0.0776 -0.0102
  349MOL0     N45987   7.999   4.295   4.639 -0.3436 -0.2526  0.4884
  349MOL0     C45988   8.965   3.554   4.895  0.5620  0.8144 -0.2594
  349MOL0     C45989   9.098   3.540   4.919  0.4200  0.2218 -0.8112
  349MOL0     C45990   9.538   3.674   5.068  0.4328  0.9220 -0.3527
  349MOL0     C45991   9.584   3.585   4.967  0.5829  0.4644  1.4098
  349MOL0     C45992   9.716   3.567   4.930  0.9147  1.1898  0.3032
  349MOL0     C45993   9.813   3.644   4.990  0.1910 -0.6327  0.3131
  349MOL0     O45994   9.944   3.608   4.982  0.2131  0.6854  0.2517
  349MOL0     C45995  10.003   3.599   4.858 -0.0675 -0.0611 -0.2845
  349MOL0     C45996  10.093   3.470   4.850  0.1887  0.8438  0.7345
  349MOL0     C45997  10.154   3.459   4.712  0.0851  0.4804 -0.6492
  349MOL0     C45998  10.274   3.366   4.724  0.6389  0.7313  0.3569
  349MOL0     C45999  10.275   3.286   4.600  0.4582  0.0606  0.2954
  349MOL0     C46000  10.274   3.222   4.500 -0.4893 -0.2357  0.1781
  349MOL0     C46001   9.773   3.738   5.096 -0.5121  0.6963  0.7093
  349MOL0     C46002   9.637   3.753   5.129 -0.2390 -0.0374 -0.3359
  349MOL0     H46003   9.161   3.840   5.044  1.5490 -1.6375  2.2951
  349MOL0     H46004   8.953   3.884   4.984 -0.4039 -1.0045  0.3775
  349MOL0     H46005   8.737   3.879   4.929  2.4526 -0.1647 -1.2389
  349MOL0     H46006   8.682   3.749   5.030 -3.1101  1.5824  0.7188
  349MOL0     H46007   8.468   3.808   4.934 -0.0420  0.7840  0.3254
  349MOL0     H46008   8.531   3.688   4.827 -1.2661  0.7749 -1.1823
  349MOL0     H46009   8.599   3.842   4.664  1.1821  0.4640  0.9518
  349MOL0     H46010   8.582   3.987   4.772  1.9847  0.9354 -1.5604
  349MOL0     H46011   8.354   3.812   4.659  1.5214 -1.0445  1.1951
  349MOL0     H46012   8.327   3.925   4.786  0.2150  0.7256 -0.2909
  349MOL0     H46013   8.417   3.962   4.501 -0.0307  0.8617 -0.4975
  349MOL0     H46014   8.440   4.097   4.600  1.5249 -0.8070 -0.9598
  349MOL0     H46015   8.188   4.106   4.642 -0.3832  0.5083 -0.6425
  349MOL0     H46016   8.154   3.957   4.551 -1.8323  1.6571  0.8621
  349MOL0     H46017   8.283   4.205   4.435  0.4296 -0.0577  0.9476
  349MOL0     H46018   8.234   4.052   4.354  1.7811 -1.3349  2.1394
  349MOL0     H46019   7.998   4.092   4.441 -1.9928  2.2875 -0.2578
  349MOL0     H46020   8.046   4.202   4.312 -0.3221  0.1098 -0.1384
  349MOL0     H46021   8.122   4.433   4.365  0.0920 -1.4313  0.4271
  349MOL0     H46022   8.182   4.662   4.573 -0.3352  1.4645  3.9054
  349MOL0     H46023   8.076   4.663   4.701  0.3892  0.5354  0.5028
  349MOL0     H46024   7.897   4.730   4.569 -0.1704 -1.6843 -0.0602
  349MOL0     H46025   7.967   4.702   4.406  0.3737  1.7413 -0.9900
  349MOL0     H46026   8.065   4.911   4.608 -0.1711 -1.9456  0.0029
  349MOL0     H46027   8.123   4.877   4.440 -0.3070 -2.4461 -1.4334
  349MOL0     H46028   7.975   5.058   4.434 -2.0820 -0.7415 -1.0692
  349MOL0     H46029   7.875   4.994   4.546  2.8535  2.4399  1.2542
  349MOL0     H46030   7.682   4.754   4.222  1.7777 -0.0436  0.6856
  349MOL0     H46031   7.455   4.780   4.208 -0.6835  1.6141 -1.1963
  349MOL0     H46032   7.089   5.118   4.473 -3.5671 -1.3418 -0.4744
  349MOL0     H46033   6.853   5.202   4.435  1.1339  1.0134  0.6487
  349MOL0     H46034   6.718   5.147   4.081 -0.3531  2.0346 -1.3897
  349MOL0     H46035   6.587   5.257   4.099 -0.2814 -0.2816  0.1628
  349MOL0     H46036   6.659   5.075   4.341  0.8114 -0.1764  0.2099
  349MOL0     H46037   6.555   5.026   4.216 -0.1643  0.4161  0.3677
  349MOL0     H46038   6.412   5.110   4.362  0.8272 -1.2787 -2.4748
  349MOL0     H46039   6.417   5.249   4.254  0.2501 -0.0722  0.2266
  349MOL0     H46040   6.575   5.257   4.509  2.6036  1.1405 -0.9116
  349MOL0     H46041   6.555   5.384   4.398 -1.1563 -0.1121 -1.0799
  349MOL0     H46042   6.376   5.279   4.583  1.3345  0.0882  0.1625
  349MOL0     H46043   6.287   5.324   4.437  1.6827  0.0886 -2.8541
  349MOL0     H46044   6.278   5.521   4.584  0.1074 -0.6615  0.1514
  349MOL0     H46045   6.383   5.558   4.454  1.2032 -1.9814 -1.3146
  349MOL0     H46046   6.482   5.459   4.727  4.7677 -0.1583 -0.1503
  349MOL0     H46047   6.592   5.506   4.605 -0.7699  0.1131 -0.9974
  349MOL0     H46048   6.394   5.638   4.782 -0.4316  1.4258 -0.6517
  349MOL0     H46049   6.451   5.745   4.664  0.1642 -2.2005 -2.3080
  349MOL0     H46050   6.968   5.274   4.026 -1.3002  2.1581  0.9914
  349MOL0     H46051   7.182   5.210   4.071 -0.9384  1.2083 -0.0502
  349MOL0     H46052   7.483   5.154   4.432  2.2160  1.4572 -0.6476
  349MOL0     H46053   7.728   5.119   4.447  3.1118 -4.5438  0.7610
  349MOL0     H46054   8.913   3.464   4.863 -1.5810  1.9170 -0.0372
  349MOL0     H46055   9.144   3.445   4.896  0.6213  0.9225 -3.6795
  349MOL0     H46056   9.515   3.517   4.919  2.4755  1.0345 -2.5249
  349MOL0     H46057   9.745   3.488   4.861 -1.6269  1.5668 -1.3232
  349MOL0     H46058  10.068   3.686   4.842  0.5370  0.0002  2.0997
  349MOL0     H46059   9.922   3.594   4.784  0.4932 -2.1773 -0.8125
  349MOL0     H46060  10.175   3.477   4.922  2.2628 -0.2111 -1.4175
  349MOL0     H46061  10.034   3.382   4.878  0.1241  1.3833  2.4034
  349MOL0     H46062  10.173   3.561   4.678 -1.5475  0.9143 -0.3762
  349MOL0     H46063  10.080   3.409   4.648 -0.4198 -2.3173  1.9138
  349MOL0     H46064  10.369   3.420   4.730  1.4295 -0.5985  0.0675
  349MOL0     H46065  10.276   3.303   4.813 -0.5615  1.1969  0.7378
  349MOL0     H46066  10.271   3.164   4.410 -1.4522  1.2075 -0.7751
  349MOL0     H46067   9.854   3.786   5.150  1.2494  0.3624 -1.4729
  349MOL0     H46068   9.621   3.815   5.216 -0.1223 -0.9648  0.3568
  350MOL0     O46069   3.390   9.955   2.407 -0.4028  0.2216 -0.6359
  350MOL0     C46070   3.278   9.915   2.434  0.3951 -1.1961 -0.0139
  350MOL0     O46071   3.229   9.869   2.565  0.2384  0.1722 -0.1236
  350MOL0     C46072   3.310   9.886   2.668 -1.0049 -0.9703 -1.0955
  350MOL0     C46073   3.318   9.788   2.762  0.2805 -0.6297 -0.5661
  350MOL0     C46074   3.413   9.808   2.864  0.6026  0.5226  0.2181
  350MOL0     C46075   3.489   9.921   2.881 -0.7026  0.1694  0.0351
  350MOL0     O46076   3.578   9.934   2.983 -0.7227  0.7928 -0.0411
  350MOL0     C46077   3.586  10.064   3.054 -0.2148  0.0899  0.4956
  350MOL0     C46078   3.479  10.057   3.164  1.1356 -0.2713 -0.0886
  350MOL0     C46079   3.495   9.953   3.282 -0.3406 -0.2538 -0.3914
  350MOL0     C46080   3.379   9.969   3.374 -0.4103 -0.5614 -0.4140
  350MOL0     C46081   3.395   9.898   3.515  0.0552 -0.3875  0.6137
  350MOL0     C46082   3.370   9.752   3.527 -0.7870 -0.2490  0.4839
  350MOL0     C46083   3.478   9.659   3.473  0.1814  0.3846 -0.2867
  350MOL0     C46084   3.614   9.714   3.518 -0.1667  0.2482  0.1166
  350MOL0     N46085   3.724   9.628   3.482 -0.1865  0.2804 -0.6962
  350MOL0     C46086   3.754   9.588   3.351  0.0520 -0.0088  0.0015
  350MOL0     C46087   3.870   9.511   3.362 -0.2402 -0.2111  0.4995
  350MOL0     C46088   3.926   9.446   3.240 -0.9346  1.2397  0.5182
  350MOL0     C46089   4.076   9.420   3.243  0.3439  0.0021 -0.4819
  350MOL0     C46090   4.165   9.516   3.306  0.2302  0.0544  0.2063
  350MOL0     C46091   4.313   9.486   3.281 -0.3485  0.1648  0.9639
  350MOL0     O46092   4.389   9.551   3.387  0.8765 -0.0848 -0.6441
  350MOL0     C46093   4.520   9.499   3.406  0.2619  0.0276  0.9277
  350MOL0     C46094   4.603   9.459   3.303  0.2239 -0.6306  0.9923
  350MOL0     C46095   4.734   9.405   3.336 -0.4714 -0.3395 -0.3293
  350MOL0     C46096   4.772   9.395   3.471 -0.7952 -0.5671 -0.3762
  350MOL0     C46097   4.909   9.346   3.500 -0.5131 -0.0339  0.0028
  350MOL0     O46098   4.971   9.276   3.405 -0.4649  0.0313  0.3491
  350MOL0     C46099   5.098   9.220   3.414  0.5862 -0.1997 -0.3928
  350MOL0     C46100   5.177   9.223   3.298 -0.6062  0.5715  0.2882
  350MOL0     C46101   5.310   9.180   3.306 -0.3968 -0.0620 -0.1081
  350MOL0     C46102   5.364   9.125   3.424 -1.4906 -0.2728  0.1485
  350MOL0     O46103   5.501   9.094   3.423  0.1631  0.5918  0.1975
  350MOL0     C46104   5.529   8.971   3.491  0.0191  0.4984 -0.3677
  350MOL0     C46105   5.652   8.887   3.455 -0.6928  0.5562 -0.7997
  350MOL0     C46106   5.663   8.849   3.300  0.1691 -1.1840  0.4285
  350MOL0     C46107   5.813   8.819   3.274 -0.2143  0.2105  0.4143
  350MOL0     C46108   5.865   8.696   3.359 -0.3468  0.0644 -0.6010
  350MOL0     C46109   5.790   8.569   3.320  0.2884  0.4500 -0.5461
  350MOL0     C46110   5.870   8.436   3.318 -0.1816  0.3325 -0.4203
  350MOL0     C46111   5.843   8.341   3.440 -0.7834 -0.1917  0.0011
  350MOL0    Cl46112   5.680   8.295   3.451 -0.3307  0.1322 -0.1534
  350MOL0     C46113   5.272   9.111   3.532  0.1033 -0.2714  0.5217
  350MOL0     C46114   5.139   9.143   3.531 -1.2003  0.3410  1.0195
  350MOL0     O46115   4.944   9.345   3.621 -0.0418  0.2935  0.3464
  350MOL0     C46116   4.688   9.437   3.571  0.0375  0.0474 -0.1962
  350MOL0     C46117   4.564   9.486   3.535 -0.0071 -0.3204 -0.0892
  350MOL0     N46118   3.911   9.512   3.490  0.1759 -0.0798 -0.9864
  350MOL0     N46119   3.828   9.587   3.562  0.4686 -0.9942  0.2158
  350MOL0     C46120   3.467  10.030   2.791  0.3670  0.6556 -0.3256
  350MOL0     C46121   3.377  10.010   2.684  0.1797  0.1983 -0.2651
  350MOL0     C46122   3.193   9.918   2.312  0.3511 -0.0449 -0.1272
  350MOL0     C46123   3.114   9.811   2.285 -0.5531  0.2656  0.4382
  350MOL0     C46124   3.038   9.803   2.169  0.5515 -0.3168  0.0546
  350MOL0     C46125   3.042   9.907   2.084 -0.3908 -0.6289  0.0621
  350MOL0     O46126   2.962   9.892   1.978 -0.4002  0.1698  0.7526
  350MOL0     C46127   3.008   9.947   1.862 -0.3531  0.5425  0.7594
  350MOL0     C46128   2.951   9.855   1.757 -0.2673  0.3929 -0.2137
  350MOL0     C46129   2.981   9.921   1.623 -0.0986 -0.2621 -0.8097
  350MOL0     C46130   2.963   9.834   1.495  0.1177  0.5467  0.7400
  350MOL0     C46131   2.825   9.807   1.483 -0.0413 -0.1983 -0.7183
  350MOL0     C46132   2.705   9.789   1.470  0.3550  0.7136  0.3988
  350MOL0     C46133   3.105  10.028   2.122 -0.1833 -1.0418 -0.5364
  350MOL0     C46134   3.189  10.031   2.225  0.0580 -0.0420 -0.4576
  350MOL0     H46135   3.258   9.697   2.756 -1.2013  0.3323 -0.8898
  350MOL0     H46136   3.424   9.746   2.953 -0.5817  0.3051  0.2313
  350MOL0     H46137   3.580  10.154   2.993  1.6120 -0.0465  0.0573
  350MOL0     H46138   3.688  10.063   3.091  0.6753  2.2894 -1.6414
  350MOL0     H46139   3.376  10.050   3.127  0.6732  1.5697  0.7155
  350MOL0     H46140   3.489  10.157   3.208 -2.4290 -0.0304  0.5064
  350MOL0     H46141   3.585   9.990   3.331 -0.3736 -3.1357  2.1499
  350MOL0     H46142   3.497   9.851   3.243  0.2215 -0.4025  0.0199
  350MOL0     H46143   3.364  10.076   3.382 -2.3406 -0.6472 -2.1537
  350MOL0     H46144   3.288   9.939   3.321  0.5518  0.0989 -2.5310
  350MOL0     H46145   3.321   9.947   3.579  0.6541  1.5221 -0.0983
  350MOL0     H46146   3.491   9.924   3.559 -0.6684  2.1289  0.8497
  350MOL0     H46147   3.275   9.739   3.474  0.3703  0.9165 -2.0748
  350MOL0     H46148   3.354   9.724   3.632  0.4337 -1.6795  0.3165
  350MOL0     H46149   3.451   9.563   3.519 -0.3662  0.3866 -0.5899
  350MOL0     H46150   3.470   9.646   3.365 -3.7129  0.5096 -0.1722
  350MOL0     H46151   3.614   9.739   3.625 -2.2399  0.3890  0.1357
  350MOL0     H46152   3.655   9.797   3.459  1.5482 -2.4908 -2.8348
  350MOL0     H46153   3.697   9.597   3.259  2.6812  2.4213 -1.5392
  350MOL0     H46154   3.893   9.512   3.159 -1.3435  1.0805  0.5536
  350MOL0     H46155   3.876   9.350   3.226  2.0097 -0.4509  0.6265
  350MOL0     H46156   4.106   9.412   3.139  0.7193  3.9958 -0.8199
  350MOL0     H46157   4.102   9.323   3.288 -0.5791 -0.6030 -1.2218
  350MOL0     H46158   4.140   9.616   3.269 -1.9701 -0.1239  1.0336
  350MOL0     H46159   4.155   9.500   3.414 -2.4665  0.2308  0.0616
  350MOL0     H46160   4.331   9.519   3.178 -3.5117 -0.6117  0.0570
  350MOL0     H46161   4.330   9.378   3.290 -5.1735 -0.6169  5.1469
  350MOL0     H46162   4.575   9.467   3.198  0.4679 -1.4914  0.8537
  350MOL0     H46163   4.810   9.383   3.261  0.4757  0.8341  0.2406
  350MOL0     H46164   5.142   9.281   3.212  1.4959 -1.4117 -2.0542
  350MOL0     H46165   5.369   9.173   3.215 -0.1591 -0.7889  0.0942
  350MOL0     H46166   5.441   8.913   3.465  0.7343 -0.8725  0.1776
  350MOL0     H46167   5.540   8.991   3.599  1.6194 -1.3261 -0.1425
  350MOL0     H46168   5.641   8.794   3.512  0.9762  1.1602  0.5643
  350MOL0     H46169   5.741   8.939   3.490 -1.5470  0.5196  1.6307
  350MOL0     H46170   5.635   8.940   3.245  2.9892  0.6011  1.7193
  350MOL0     H46171   5.599   8.763   3.279  2.2374 -2.6698 -0.1221
  350MOL0     H46172   5.828   8.800   3.167 -0.4505  1.8042  0.0716
  350MOL0     H46173   5.878   8.903   3.300  2.7391 -2.0449  0.9275
  350MOL0     H46174   5.863   8.721   3.465 -0.7735  2.4334 -1.1077
  350MOL0     H46175   5.971   8.684   3.335  0.0883 -1.2763  1.6505
  350MOL0     H46176   5.755   8.596   3.220  0.3853 -1.0506 -1.0054
  350MOL0     H46177   5.697   8.559   3.377 -1.5850 -0.7720 -3.5809
  350MOL0     H46178   5.869   8.379   3.225  4.9018 -2.6676  0.9994
  350MOL0     H46179   5.974   8.467   3.334 -0.6665  0.7539  2.3386
  350MOL0     H46180   5.873   8.387   3.535  0.3371  1.6393 -1.1686
  350MOL0     H46181   5.913   8.259   3.421 -1.3573 -0.3453 -1.6088
  350MOL0     H46182   5.316   9.067   3.621  3.2716  0.8361 -0.3797
  350MOL0     H46183   5.075   9.115   3.614 -0.9204 -2.6423  0.3422
  350MOL0     H46184   4.714   9.433   3.676  1.4323  1.2792 -0.4664
  350MOL0     H46185   4.486   9.514   3.604 -0.6579  0.3555 -1.0694
  350MOL0     H46186   3.521  10.122   2.809  1.8373 -0.6089  2.4106
  350MOL0     H46187   3.354  10.086   2.610  0.1425  1.3419  0.8939
  350MOL0     H46188   3.122   9.726   2.351  1.4270  0.3711  0.3845
  350MOL0     H46189   2.976   9.717   2.143 -1.0631  1.0851 -0.9864
  350MOL0     H46190   3.117   9.948   1.858 -0.3519 -0.5305  0.2309
  350MOL0     H46191   2.965  10.045   1.840 -3.5646 -0.9695 -0.3852
  350MOL0     H46192   2.997   9.756   1.764  0.2131  0.6068 -0.3237
  350MOL0     H46193   2.842   9.843   1.765  0.0628 -2.7229  1.1318
  350MOL0     H46194   3.082   9.963   1.617 -1.4704  3.1616 -2.8998
  350MOL0     H46195   2.905  10.000   1.625 -0.0679 -0.2353 -0.6438
  350MOL0     H46196   2.998   9.882   1.403 -1.1423  2.8278  1.3906
  350MOL0     H46197   3.016   9.739   1.509  1.5548  1.4557  1.8230
  350MOL0     H46198   2.600   9.770   1.457  0.5987 -0.3777 -0.0594
  350MOL0     H46199   3.093  10.124   2.073 -0.0753 -0.9253 -0.3376
  350MOL0     H46200   3.251  10.120   2.237  0.0546 -0.1658  0.5480
  351MOL0     O46201   0.475   2.020  10.401 -0.1204 -0.3036  0.2096
  351MOL0     C46202   0.517   2.051  10.294  0.5208  0.7244  0.9119
  351MOL0     O46203   0.436   2.091  10.183 -0.0624 -0.6118 -0.2445
  351MOL0     C46204   0.299   2.107  10.188  0.2818 -0.6868 -0.5692
  351MOL0     C46205   0.226   2.045  10.081 -0.3782  0.3861 -0.3083
  351MOL0     C46206   0.088   2.063  10.070  0.5548 -0.2273 -1.1090
  351MOL0     C46207   0.023   2.158  10.159  0.0072  0.6701 -0.6904
  351MOL0     O46208  -0.106   2.189  10.156 -0.0626 -0.1988 -0.4392
  351MOL0     C46209  -0.178   2.168  10.036  0.5823  0.4273  1.1568
  351MOL0     C46210  -0.322   2.196  10.056  0.8657 -0.0077 -0.4440
  351MOL0     C46211  -0.382   2.084  10.144  0.2750  0.6443 -0.5406
  351MOL0     C46212  -0.533   2.085  10.130 -0.4290  0.6704 -0.5479
  351MOL0     C46213  -0.594   2.011  10.256  0.0742  0.1516  0.1738
  351MOL0     C46214  -0.735   1.964  10.212 -0.8207  0.0816  0.2581
  351MOL0     C46215  -0.817   1.894  10.325  0.4854  0.0045 -0.0395
  351MOL0     C46216  -0.743   1.788  10.412  0.3374 -0.3717 -0.3607
  351MOL0     N46217  -0.808   1.758  10.538 -0.1674 -0.0645  0.3700
  351MOL0     C46218  -0.909   1.667  10.566 -0.5219 -0.1020  0.5739
  351MOL0     C46219  -0.916   1.670  10.698  0.5058  0.5811 -0.4795
  351MOL0     C46220  -1.001   1.565  10.777 -0.5478  0.7421 -0.3287
  351MOL0     C46221  -1.007   1.422  10.721  0.5791 -0.7599  0.1642
  351MOL0     C46222  -0.893   1.327  10.729 -0.0147  0.1136  0.8262
  351MOL0     C46223  -0.752   1.356  10.654 -0.1883 -0.1489 -0.8407
  351MOL0     O46224  -0.639   1.290  10.703 -0.5144  0.9526 -0.7104
  351MOL0     C46225  -0.575   1.320  10.822  0.0833 -0.3434 -0.9665
  351MOL0     C46226  -0.445   1.269  10.846 -0.2492 -0.0216  0.1240
  351MOL0     C46227  -0.376   1.289  10.965 -0.0572 -0.1886 -0.1822
  351MOL0     C46228  -0.427   1.372  11.068 -0.3901  0.0373 -0.8619
  351MOL0     C46229  -0.352   1.406  11.196 -0.2608  0.2007  1.4519
  351MOL0     O46230  -0.425   1.398  11.307  0.9715  0.2999  0.6284
  351MOL0     C46231  -0.359   1.370  11.426 -0.2896 -0.2602 -0.0067
  351MOL0     C46232  -0.406   1.426  11.548 -0.3333 -0.7239 -0.7960
  351MOL0     C46233  -0.369   1.363  11.672  0.3182 -0.2469 -0.2183
  351MOL0     C46234  -0.267   1.264  11.681  0.1592  0.0211 -0.3358
  351MOL0     O46235  -0.216   1.223  11.802 -0.1330  0.3622 -0.1126
  351MOL0     C46236  -0.076   1.187  11.812  0.4725  0.5595 -0.2154
  351MOL0     C46237  -0.028   1.177  11.964 -0.2374  0.0001  0.1524
  351MOL0     C46238   0.117   1.139  11.961  0.0176 -0.2386  0.2344
  351MOL0     C46239   0.186   1.135  12.106  0.0746 -1.2167  1.3913
  351MOL0     C46240   0.225   1.275  12.166  0.9542  0.1589  0.0044
  351MOL0     C46241   0.375   1.298  12.126 -0.1744  0.1852  0.6872
  351MOL0     C46242   0.426   1.430  12.183 -0.0029  0.2309 -0.3884
  351MOL0     C46243   0.561   1.445  12.123 -0.6254 -0.2507 -0.1618
  351MOL0    Cl46244   0.676   1.321  12.182  0.1964 -0.1714 -0.1057
  351MOL0     C46245  -0.217   1.221  11.560 -0.5796 -0.0865  0.4593
  351MOL0     C46246  -0.267   1.260  11.437 -0.3566 -0.3933 -0.3595
  351MOL0     O46247  -0.229   1.424  11.190  0.7699 -0.2497  0.3748
  351MOL0     C46248  -0.557   1.419  11.042  0.7058 -0.3928 -0.3735
  351MOL0     C46249  -0.628   1.403  10.919  0.1491  0.0758 -0.1369
  351MOL0     N46250  -0.821   1.756  10.751  0.6100 -0.3065 -0.6202
  351MOL0     N46251  -0.771   1.822  10.658  0.5133  0.1123  0.0353
  351MOL0     C46252   0.087   2.207  10.270  0.0415 -0.7931 -0.8194
  351MOL0     C46253   0.221   2.175  10.292  0.2173  0.6876  0.7620
  351MOL0     C46254   0.655   2.039  10.279  0.4514  0.8309 -0.4250
  351MOL0     C46255   0.750   2.018  10.381  0.1683 -0.4712  0.7744
  351MOL0     C46256   0.882   2.042  10.361 -0.1265  0.9359  0.5264
  351MOL0     C46257   0.935   2.083  10.238  0.5474  1.1859  0.1401
  351MOL0     O46258   1.068   2.100  10.223  0.2062  0.6351  0.2018
  351MOL0     C46259   1.144   1.979  10.274  1.2384 -0.6533  1.1062
  351MOL0     C46260   1.226   1.998  10.407  0.1342 -0.4104 -0.3751
  351MOL0     C46261   1.344   2.097  10.383  0.2905 -0.4252 -1.0995
  351MOL0     C46262   1.351   2.211  10.481  0.0350 -0.7663  0.3068
  351MOL0     C46263   1.363   2.163  10.624 -0.1325 -0.0493  0.6366
  351MOL0     C46264   1.374   2.132  10.737  0.6390  0.1949  0.9649
  351MOL0     C46265   0.848   2.085  10.129 -1.1066  0.8672 -1.4112
  351MOL0     C46266   0.709   2.068  10.150 -1.1381  1.3485 -0.0618
  351MOL0     H46267   0.281   1.977  10.018 -0.6666 -0.1924  0.0508
  351MOL0     H46268   0.044   2.017   9.982 -1.2034  1.7611 -1.3418
  351MOL0     H46269  -0.164   2.064  10.007 -0.5577  0.1232  1.6105
  351MOL0     H46270  -0.140   2.236   9.959 -2.2282  3.1559  1.9635
  351MOL0     H46271  -0.366   2.194   9.956  2.4301  1.9046 -1.2226
  351MOL0     H46272  -0.334   2.293  10.107 -1.5686 -0.5767  0.2455
  351MOL0     H46273  -0.352   2.089  10.249 -0.3055  0.3347 -0.3552
  351MOL0     H46274  -0.363   1.984  10.106  1.0097 -0.1849  1.8249
  351MOL0     H46275  -0.561   2.190  10.141  0.5118  0.7329  2.0261
  351MOL0     H46276  -0.576   2.049  10.036  1.2321  3.3461 -2.4610
  351MOL0     H46277  -0.597   2.087  10.335  1.4281  0.7722 -0.3401
  351MOL0     H46278  -0.522   1.935  10.289  0.9519  1.5350  1.5849
  351MOL0     H46279  -0.710   1.895  10.130  1.4512  1.4776 -0.3019
  351MOL0     H46280  -0.793   2.045  10.167  2.2022  1.0584 -2.2504
  351MOL0     H46281  -0.860   1.982  10.374 -1.1936  0.4588 -2.2035
  351MOL0     H46282  -0.905   1.849  10.277 -0.8945  0.8102  1.6220
  351MOL0     H46283  -0.645   1.833  10.427  0.6453 -0.8432 -0.9083
  351MOL0     H46284  -0.743   1.691  10.360  1.3884 -0.2531 -0.5976
  351MOL0     H46285  -0.953   1.608  10.486  1.5937 -0.3324 -0.4853
  351MOL0     H46286  -1.105   1.600  10.783 -0.6938  0.2828 -0.1775
  351MOL0     H46287  -0.958   1.567  10.878 -0.1696 -0.1234 -0.4669
  351MOL0     H46288  -1.038   1.428  10.616  0.9442 -1.4089  0.0149
  351MOL0     H46289  -1.082   1.357  10.768 -0.2894  0.5937  0.7272
  351MOL0     H46290  -0.883   1.317  10.837  2.4339 -4.1350  0.3978
  351MOL0     H46291  -0.923   1.226  10.701  3.4171 -1.1673  1.3017
  351MOL0     H46292  -0.724   1.459  10.674  2.4179 -0.3422 -2.9978
  351MOL0     H46293  -0.757   1.347  10.545 -0.8007 -0.7014 -0.7780
  351MOL0     H46294  -0.394   1.209  10.771  1.3939 -1.1948  2.0722
  351MOL0     H46295  -0.283   1.237  10.985 -1.0251 -2.3812 -1.0815
  351MOL0     H46296  -0.475   1.510  11.549  2.5151  1.8473  1.8448
  351MOL0     H46297  -0.408   1.400  11.766 -2.1816 -1.4660 -0.6781
  351MOL0     H46298  -0.025   1.265  11.755  0.8960  0.1962 -0.3397
  351MOL0     H46299  -0.048   1.093  11.764 -3.0770 -1.1518  0.7271
  351MOL0     H46300  -0.083   1.090  12.002 -0.8771  0.3334  0.0140
  351MOL0     H46301  -0.059   1.270  12.012 -2.1906 -1.0529  1.0443
  351MOL0     H46302   0.165   1.208  11.891 -1.3243 -0.6926 -1.1805
  351MOL0     H46303   0.131   1.037  11.923  0.2577 -1.1693  2.6685
  351MOL0     H46304   0.106   1.103  12.173 -0.4888 -0.0510  1.3098
  351MOL0     H46305   0.265   1.060  12.107 -0.7411 -2.0840  2.2942
  351MOL0     H46306   0.209   1.286  12.273 -0.0085  2.3184 -0.3048
  351MOL0     H46307   0.160   1.355  12.128 -0.5105  0.1892  2.3814
  351MOL0     H46308   0.381   1.312  12.018  3.0714 -0.2159  0.7182
  351MOL0     H46309   0.430   1.211  12.162  0.1465 -0.4841 -1.3340
  351MOL0     H46310   0.354   1.509  12.162 -2.0734 -0.6632  2.8063
  351MOL0     H46311   0.424   1.415  12.291  0.3224  1.5293 -0.1817
  351MOL0     H46312   0.610   1.536  12.159  0.3951  0.9021 -3.9878
  351MOL0     H46313   0.555   1.431  12.015 -1.2641  0.8281 -0.2893
  351MOL0     H46314  -0.153   1.133  11.565  1.3100  1.2865  1.7208
  351MOL0     H46315  -0.236   1.211  11.345 -0.2075  3.0795 -2.3325
  351MOL0     H46316  -0.596   1.485  11.119  2.5570  2.4034 -1.7074
  351MOL0     H46317  -0.721   1.457  10.904 -0.4699 -0.9540 -0.1498
  351MOL0     H46318   0.036   2.260  10.350  0.0540  0.6694 -1.7528
  351MOL0     H46319   0.271   2.208  10.382  0.6023  0.7627  0.5230
  351MOL0     H46320   0.726   1.992  10.483 -2.8955 -0.2460  0.2061
  351MOL0     H46321   0.950   2.018  10.442  1.2341  1.3120 -0.4578
  351MOL0     H46322   1.205   1.960  10.185 -0.8145 -1.2191 -0.2341
  351MOL0     H46323   1.075   1.897  10.293  1.0768 -1.0702 -1.0638
  351MOL0     H46324   1.158   2.028  10.487  0.3879 -1.6269  0.3169
  351MOL0     H46325   1.268   1.899  10.424 -1.5970 -0.9337  1.2185
  351MOL0     H46326   1.356   2.134  10.280 -0.5994 -5.4462 -3.3506
  351MOL0     H46327   1.438   2.043  10.397 -1.2437 -2.9007  0.3055
  351MOL0     H46328   1.441   2.269  10.456 -1.0745  1.0734  0.4475
  351MOL0     H46329   1.263   2.276  10.475 -0.5747 -1.5901  0.2319
  351MOL0     H46330   1.388   2.096  10.837 -1.5493  0.5478  1.4423
  351MOL0     H46331   0.889   2.103  10.030 -1.3261 -3.3102 -2.4290
  351MOL0     H46332   0.645   2.065  10.062  0.5013  1.0086 -1.2799
  352MOL0     O46333  10.685   8.032   5.743  0.2630  0.0421  0.7533
  352MOL0     C46334  10.758   7.954   5.808  0.1935 -0.2840 -0.3097
  352MOL0     O46335  10.718   7.831   5.872 -0.0365 -0.5086  0.8075
  352MOL0     C46336  10.605   7.772   5.835  1.6364  0.5419 -0.7100
  352MOL0     C46337  10.581   7.727   5.699  0.3156 -0.3594 -0.4518
  352MOL0     C46338  10.455   7.684   5.647  0.7440  0.6916 -0.2303
  352MOL0     C46339  10.349   7.670   5.744 -0.2783  0.1324 -0.1273
  352MOL0     O46340  10.218   7.653   5.723  0.4360  1.1615  1.0070
  352MOL0     C46341  10.181   7.613   5.593 -0.4450 -0.6868 -0.7771
  352MOL0     C46342  10.217   7.469   5.556  0.2022 -0.5303  0.4770
  352MOL0     C46343  10.177   7.452   5.412  0.5440 -0.2977  0.7608
  352MOL0     C46344  10.295   7.392   5.336  0.2008 -0.3276 -0.2133
  352MOL0     C46345  10.402   7.485   5.281  0.9200  0.3056 -0.6319
  352MOL0     C46346  10.353   7.606   5.188  0.1103  0.3348  0.8344
  352MOL0     C46347  10.469   7.705   5.143 -0.0105  0.2631 -1.1180
  352MOL0     C46348  10.515   7.809   5.248 -0.0351 -0.1200 -0.1634
  352MOL0     N46349  10.411   7.901   5.292  0.0805 -0.3355  0.1630
  352MOL0     C46350  10.401   7.945   5.420  0.2883 -0.1613  0.3764
  352MOL0     C46351  10.284   8.002   5.427 -1.2430 -1.2643  0.0196
  352MOL0     C46352  10.232   8.065   5.549  0.5623  0.8863 -0.4158
  352MOL0     C46353  10.311   8.055   5.670 -1.2115 -0.7837 -0.1202
  352MOL0     C46354  10.285   8.165   5.782 -0.5886  0.7782 -0.6469
  352MOL0     C46355  10.366   8.134   5.910  1.1402  0.0965 -1.3083
  352MOL0     O46356  10.276   8.047   5.993 -0.1588  0.0119 -1.0057
  352MOL0     C46357  10.325   7.991   6.108 -0.4743 -0.5206  0.5236
  352MOL0     C46358  10.435   8.031   6.185  0.3290 -0.0281 -0.1410
  352MOL0     C46359  10.474   7.978   6.305  0.3798  0.0075 -0.8512
  352MOL0     C46360  10.409   7.870   6.361  0.5343  0.4233  0.2816
  352MOL0     C46361  10.473   7.801   6.481  0.6388 -1.2073 -0.3168
  352MOL0     O46362  10.558   7.876   6.548  0.5651  0.6884 -0.2186
  352MOL0     C46363  10.634   7.823   6.649  0.1882 -0.0254 -0.6175
  352MOL0     C46364  10.758   7.885   6.677  0.2006  0.5843  0.7566
  352MOL0     C46365  10.839   7.846   6.777 -0.4151 -0.8513 -0.5278
  352MOL0     C46366  10.801   7.748   6.863  0.3593 -0.4569 -1.2956
  352MOL0     O46367  10.872   7.714   6.978 -0.0732 -0.1354  0.0782
  352MOL0     C46368  10.982   7.790   7.029  0.4041  0.5665 -0.1101
  352MOL0     C46369  11.017   7.732   7.167 -0.4229 -0.5041 -0.1124
  352MOL0     C46370  11.172   7.748   7.210 -1.0584 -0.2401  0.6667
  352MOL0     C46371  11.202   7.650   7.318 -0.3988  0.2841 -0.4134
  352MOL0     C46372  11.284   7.531   7.267  0.0377  0.1069 -0.3981
  352MOL0     C46373  11.288   7.419   7.367 -0.2688  0.3155  0.7349
  352MOL0     C46374  11.326   7.281   7.303  0.4035 -0.0493 -0.0124
  352MOL0     C46375  11.342   7.165   7.402 -0.1942  0.2781 -1.2290
  352MOL0    Cl46376  11.472   7.211   7.509  0.0956 -0.1730  0.0154
  352MOL0     C46377  10.680   7.679   6.844  0.3304 -0.3212  0.1604
  352MOL0     C46378  10.599   7.724   6.740  0.4050  0.2043  0.0211
  352MOL0     O46379  10.430   7.688   6.510  0.2948  1.0840  0.7078
  352MOL0     C46380  10.289   7.826   6.293 -0.4333  0.5568  0.1854
  352MOL0     C46381  10.256   7.880   6.165 -0.7523 -0.1205 -0.3394
  352MOL0     N46382  10.220   7.993   5.309  0.0526  0.0636 -0.5237
  352MOL0     N46383  10.303   7.946   5.225 -0.2254 -0.1465 -0.3213
  352MOL0     C46384  10.378   7.713   5.875 -0.0652 -0.8669  0.6459
  352MOL0     C46385  10.498   7.761   5.916  0.1998  1.3094 -0.3448
  352MOL0     C46386  10.895   8.008   5.818 -0.4559 -1.2287 -0.4741
  352MOL0     C46387  10.948   8.111   5.734  0.8671  0.6415 -0.1546
  352MOL0     C46388  11.077   8.149   5.758 -0.6526  0.1311 -0.7029
  352MOL0     C46389  11.153   8.105   5.870 -0.7705  0.3176 -0.2325
  352MOL0     O46390  11.288   8.145   5.887  0.2459 -0.4352  0.0256
  352MOL0     C46391  11.324   8.270   5.827 -0.5316  0.1388 -0.4180
  352MOL0     C46392  11.481   8.300   5.839  1.0613  0.0328  0.0198
  352MOL0     C46393  11.576   8.249   5.720 -0.6174 -0.2233 -0.8473
  352MOL0     C46394  11.570   8.097   5.698  0.2201 -0.2871 -0.6086
  352MOL0     C46395  11.598   8.056   5.556 -0.6880  0.2189 -0.1693
  352MOL0     C46396  11.621   8.001   5.460 -0.4841  0.1867  0.6165
  352MOL0     C46397  11.097   8.011   5.950  0.0534  0.0667  0.1155
  352MOL0     C46398  10.968   7.964   5.928 -0.6540  0.2939 -0.2465
  352MOL0     H46399  10.666   7.735   5.631 -0.3137  0.6380 -1.1546
  352MOL0     H46400  10.455   7.647   5.545  2.7080  0.0073 -0.0252
  352MOL0     H46401  10.223   7.684   5.522 -1.0754  1.5937  0.9968
  352MOL0     H46402  10.076   7.643   5.582 -0.2060  1.0233  1.0045
  352MOL0     H46403  10.179   7.391   5.623  3.9375 -2.9835  0.0015
  352MOL0     H46404  10.326   7.462   5.560  0.2052  0.0196  1.9384
  352MOL0     H46405  10.125   7.536   5.364 -2.1484 -2.4741 -0.3779
  352MOL0     H46406  10.094   7.382   5.406  0.3890 -0.0265 -0.4184
  352MOL0     H46407  10.347   7.314   5.394  3.4107  1.3142 -0.6495
  352MOL0     H46408  10.238   7.346   5.255 -2.1820 -1.8806  2.1599
  352MOL0     H46409  10.482   7.426   5.235  0.1344  0.0919 -1.7304
  352MOL0     H46410  10.440   7.539   5.369  1.6072 -0.7223 -0.2819
  352MOL0     H46411  10.265   7.657   5.230 -0.0463  1.1627 -0.4536
  352MOL0     H46412  10.315   7.564   5.094 -1.2687 -0.0522  1.5283
  352MOL0     H46413  10.557   7.645   5.117  0.8249 -0.0306  1.9855
  352MOL0     H46414  10.432   7.752   5.051 -0.3037 -1.5229 -1.9645
  352MOL0     H46415  10.608   7.858   5.219  0.3546 -0.8837 -0.2239
  352MOL0     H46416  10.537   7.732   5.323  1.9043 -2.1102 -2.6092
  352MOL0     H46417  10.456   7.920   5.510  0.6288  0.0491  0.2275
  352MOL0     H46418  10.139   8.011   5.570  0.8717  0.4640 -0.1076
  352MOL0     H46419  10.198   8.167   5.526 -4.0619 -0.1371  0.7217
  352MOL0     H46420  10.417   8.064   5.644 -1.6504  2.6128 -1.1784
  352MOL0     H46421  10.303   7.955   5.714 -0.2087 -1.9939 -2.5108
  352MOL0     H46422  10.320   8.260   5.740  1.2925  0.3131 -0.2034
  352MOL0     H46423  10.177   8.164   5.800 -0.6109 -3.5797 -0.0585
  352MOL0     H46424  10.387   8.218   5.977 -0.1962 -0.6203  0.0693
  352MOL0     H46425  10.458   8.083   5.878 -0.1181 -0.9357 -3.4811
  352MOL0     H46426  10.499   8.111   6.149  0.7976  0.2468  1.2465
  352MOL0     H46427  10.553   8.034   6.353 -1.0044  1.4656 -0.1660
  352MOL0     H46428  10.794   7.953   6.600  1.8023 -0.7477  0.2602
  352MOL0     H46429  10.929   7.901   6.804 -1.5383 -0.6199  3.3561
  352MOL0     H46430  10.962   7.896   7.046  2.1756  1.1614 -1.3851
  352MOL0     H46431  11.066   7.770   6.961  0.5222 -2.1816  0.7472
  352MOL0     H46432  10.988   7.627   7.167 -4.2814  0.4141 -1.1332
  352MOL0     H46433  10.958   7.785   7.243  1.9268  0.2235  1.3317
  352MOL0     H46434  11.205   7.847   7.241  1.0919 -1.2049  1.6208
  352MOL0     H46435  11.238   7.726   7.125  2.0678  2.7055  2.1137
  352MOL0     H46436  11.248   7.689   7.409  0.9762 -3.5432  0.7288
  352MOL0     H46437  11.108   7.608   7.354 -0.7772  0.5607 -1.0683
  352MOL0     H46438  11.385   7.565   7.244  0.5391 -0.4863  0.8278
  352MOL0     H46439  11.230   7.499   7.177 -1.8047  1.2496  0.2523
  352MOL0     H46440  11.190   7.399   7.409 -1.1744  2.7833 -0.0109
  352MOL0     H46441  11.359   7.441   7.447 -0.5973  0.3751  1.0076
  352MOL0     H46442  11.238   7.264   7.239 -1.3228  1.1410  1.8994
  352MOL0     H46443  11.420   7.302   7.252  1.2329  1.7815  2.1063
  352MOL0     H46444  11.361   7.071   7.350  0.3590  0.6923 -1.7906
  352MOL0     H46445  11.245   7.173   7.453  1.1853  3.7338  1.1995
  352MOL0     H46446  10.650   7.597   6.909  1.0475 -0.2471  0.6027
  352MOL0     H46447  10.499   7.682   6.739  0.8164 -0.8189  0.4285
  352MOL0     H46448  10.232   7.750   6.345 -0.8541  0.7693  0.0461
  352MOL0     H46449  10.167   7.847   6.112 -0.6626  0.0500 -0.5982
  352MOL0     H46450  10.299   7.728   5.947  0.1200 -1.0362  0.8851
  352MOL0     H46451  10.498   7.808   6.014 -0.3894  3.8757 -1.4944
  352MOL0     H46452  10.886   8.163   5.662  0.7744  1.2180  0.3287
  352MOL0     H46453  11.120   8.231   5.702  3.0296  1.2023  3.1594
  352MOL0     H46454  11.256   8.345   5.870  0.6174  1.8097 -1.4597
  352MOL0     H46455  11.306   8.267   5.719 -1.6356 -2.1996 -0.2470
  352MOL0     H46456  11.496   8.407   5.854 -3.2444  0.8033  0.2054
  352MOL0     H46457  11.523   8.260   5.931  3.4901  0.2766 -0.9147
  352MOL0     H46458  11.680   8.280   5.734 -0.5264 -0.1641 -1.6357
  352MOL0     H46459  11.541   8.301   5.631  2.4837  1.6929 -1.1102
  352MOL0     H46460  11.631   8.051   5.776 -0.7265  0.2790  0.4976
  352MOL0     H46461  11.472   8.051   5.712  1.3628 -2.4114  0.9027
  352MOL0     H46462  11.650   7.952   5.369 -3.7710 -0.1634 -0.3765
  352MOL0     H46463  11.138   7.971   6.042  2.2977 -1.0199 -1.2702
  352MOL0     H46464  10.930   7.896   6.004 -0.3645  1.2442  0.7706
  353MOL0     O46465  11.407  10.770   7.217 -0.1217  0.4303 -0.0328
  353MOL0     C46466  11.446  10.722   7.325  0.0861  0.3345 -0.1468
  353MOL0     O46467  11.377  10.632   7.398  0.7879  0.4902  1.0239
  353MOL0     C46468  11.262  10.566   7.352 -0.7261  0.4340 -0.9531
  353MOL0     C46469  11.169  10.521   7.445  0.5700  0.1708 -0.3280
  353MOL0     C46470  11.059  10.447   7.404  0.0275 -0.0899 -0.5987
  353MOL0     C46471  11.045  10.422   7.264  0.0725 -0.1324  0.2115
  353MOL0     O46472  10.936  10.337   7.236  0.1595  1.0606 -0.1594
  353MOL0     C46473  10.954  10.257   7.118 -0.0502  0.1449  0.1967
  353MOL0     C46474  10.877  10.129   7.132 -0.0345  0.8176 -0.1722
  353MOL0     C46475  10.932  10.012   7.040  1.2117  0.4958  0.4441
  353MOL0     C46476  10.830   9.886   7.037  0.0664  0.3875  0.6017
  353MOL0     C46477  10.833   9.800   6.919 -0.0493  1.0099  0.0863
  353MOL0     C46478  10.972   9.763   6.863  1.0947 -0.0502 -0.7554
  353MOL0     C46479  10.948   9.737   6.708 -0.0634  0.1067 -0.4316
  353MOL0     C46480  11.066   9.692   6.638 -0.1545  0.0894 -0.8251
  353MOL0     N46481  11.041   9.707   6.500  1.0756 -0.0644  0.0641
  353MOL0     C46482  11.011   9.607   6.395 -0.1782  0.0317 -0.1866
  353MOL0     C46483  11.006   9.674   6.279 -0.2358 -0.5175 -0.4885
  353MOL0     C46484  10.961   9.626   6.155  0.4265  0.1362  1.4183
  353MOL0     C46485  11.078   9.564   6.073  1.2172 -0.4468 -0.9355
  353MOL0     C46486  11.148   9.685   6.003  0.8002 -0.3401  0.8371
  353MOL0     C46487  11.288   9.654   5.954  0.0347 -0.2825 -0.4944
  353MOL0     O46488  11.367   9.623   6.072  0.4261 -0.4737  0.5947
  353MOL0     C46489  11.501   9.623   6.061  0.1305  0.4682  0.3554
  353MOL0     C46490  11.569   9.663   5.945 -0.5097 -0.8984 -0.1236
  353MOL0     C46491  11.704   9.657   5.926 -0.0827 -0.0232 -0.8189
  353MOL0     C46492  11.782   9.621   6.039  0.0530  0.0950  0.0798
  353MOL0     C46493  11.934   9.595   6.020  0.1556  0.1648  0.5431
  353MOL0     O46494  12.007   9.648   5.917 -0.2650  1.1346 -0.1287
  353MOL0     C46495  12.133   9.607   5.886 -0.5710  0.5101 -0.3531
  353MOL0     C46496  12.208   9.697   5.810 -0.6071  0.1070 -0.1669
  353MOL0     C46497  12.344   9.679   5.777  0.1557  0.2097  0.0534
  353MOL0     C46498  12.406   9.567   5.809 -0.0024 -0.0845 -0.2611
  353MOL0     O46499  12.536   9.550   5.758  0.0683 -0.0400  0.2745
  353MOL0     C46500  12.579   9.410   5.735  0.8034 -0.4650  0.6740
  353MOL0     C46501  12.714   9.414   5.672 -0.0362  0.1412 -0.1931
  353MOL0     C46502  12.727   9.503   5.535 -0.5560 -0.6413  0.0798
  353MOL0     C46503  12.878   9.523   5.482 -0.5248 -0.0823 -0.1974
  353MOL0     C46504  12.885   9.425   5.368 -0.3349 -0.3112  0.0771
  353MOL0     C46505  13.029   9.416   5.326 -1.2515  0.2202  1.2657
  353MOL0     C46506  13.066   9.284   5.266  0.1661 -0.1731 -0.4366
  353MOL0     C46507  13.216   9.267   5.249 -0.4401 -1.0197 -0.2423
  353MOL0    Cl46508  13.300   9.260   5.406  0.1262  0.2915 -0.7506
  353MOL0     C46509  12.331   9.464   5.875  1.1488 -0.4159  0.2710
  353MOL0     C46510  12.190   9.484   5.903 -0.1781  0.1848 -0.1948
  353MOL0     O46511  11.993   9.532   6.108  0.6531 -0.2370  0.5034
  353MOL0     C46512  11.726   9.616   6.164  0.6654 -0.1673  0.3667
  353MOL0     C46513  11.590   9.603   6.170  0.0122  0.2636  0.3745
  353MOL0     N46514  11.038   9.808   6.313 -0.4064  0.2064 -0.5252
  353MOL0     N46515  11.073   9.824   6.432 -0.1887  0.1962  0.2778
  353MOL0     C46516  11.131  10.481   7.167 -0.1633  0.3039 -0.2638
  353MOL0     C46517  11.242  10.545   7.215  0.1320 -0.1211  0.3784
  353MOL0     C46518  11.566  10.780   7.387  0.3445  0.0341  0.1926
  353MOL0     C46519  11.656  10.857   7.317  1.2946 -0.1448  1.5990
  353MOL0     C46520  11.761  10.910   7.377 -0.5003 -0.7557 -0.5781
  353MOL0     C46521  11.794  10.878   7.510  0.6488  0.0125 -0.7455
  353MOL0     O46522  11.917  10.925   7.558  0.1951  0.3909  0.4447
  353MOL0     C46523  11.948  10.931   7.693 -0.1269 -0.8655  0.3454
  353MOL0     C46524  11.875  11.052   7.766  0.3185 -0.6273 -0.5166
  353MOL0     C46525  11.928  11.188   7.706 -0.8721  0.2485 -0.2197
  353MOL0     C46526  11.876  11.315   7.765  0.7595 -0.1065  0.4255
  353MOL0     C46527  11.733  11.341   7.732 -0.7335  0.1789  0.8828
  353MOL0     C46528  11.617  11.359   7.704  0.1789 -0.3172 -0.8461
  353MOL0     C46529  11.706  10.795   7.582 -0.4762 -0.2576  0.0103
  353MOL0     C46530  11.596  10.743   7.522 -0.0096  0.5623  0.0411
  353MOL0     H46531  11.183  10.551   7.548 -3.6996 -0.8243  0.7379
  353MOL0     H46532  10.992  10.411   7.483  0.3393  0.7582  0.0658
  353MOL0     H46533  11.058  10.227   7.106 -0.6361 -1.8731 -0.1730
  353MOL0     H46534  10.920  10.312   7.029  1.8028  2.3904  0.7738
  353MOL0     H46535  10.770  10.152   7.128 -0.2203  0.3766  1.5272
  353MOL0     H46536  10.890  10.083   7.230 -1.9342 -2.5447 -1.3304
  353MOL0     H46537  11.033   9.982   7.068  1.0491 -2.2787 -1.4670
  353MOL0     H46538  10.942  10.051   6.938  0.4735  2.1609  0.9804
  353MOL0     H46539  10.823   9.829   7.131  1.0673 -1.1244 -0.1929
  353MOL0     H46540  10.730   9.931   7.045 -0.3698 -0.7075  1.6312
  353MOL0     H46541  10.794   9.859   6.836  1.6367  1.1328 -0.6670
  353MOL0     H46542  10.772   9.710   6.926  1.9190 -0.2417  3.4088
  353MOL0     H46543  11.008   9.681   6.926  3.1379  2.3969  1.4943
  353MOL0     H46544  11.041   9.847   6.872  1.3499 -0.2268 -1.0574
  353MOL0     H46545  10.861   9.672   6.693 -1.3437  1.1947  1.8970
  353MOL0     H46546  10.920   9.834   6.667 -1.7275 -0.0576  0.2632
  353MOL0     H46547  11.101   9.591   6.662  0.3719  0.5503  0.4558
  353MOL0     H46548  11.154   9.755   6.657 -0.7295  0.6298  0.0964
  353MOL0     H46549  10.983   9.503   6.405  3.4987 -0.9484  1.7118
  353MOL0     H46550  10.908   9.701   6.094 -1.4612 -0.7175  1.9409
  353MOL0     H46551  10.887   9.550   6.180  1.6957 -1.2351  1.0902
  353MOL0     H46552  11.026   9.496   6.005 -1.6937  1.7200 -1.0793
  353MOL0     H46553  11.152   9.520   6.140  3.4867  1.5181 -2.0059
  353MOL0     H46554  11.084   9.710   5.918  2.0569 -1.5309 -0.5296
  353MOL0     H46555  11.155   9.769   6.072 -1.5632  0.8189 -0.2269
  353MOL0     H46556  11.316   9.745   5.901  1.3198 -1.9143 -2.8624
  353MOL0     H46557  11.303   9.567   5.888  1.3943  1.7347 -3.0163
  353MOL0     H46558  11.514   9.703   5.860 -3.2269 -0.2139  1.8073
  353MOL0     H46559  11.753   9.682   5.832 -0.6977  1.4499 -0.7571
  353MOL0     H46560  12.170   9.797   5.793  3.3931  2.2460  1.9007
  353MOL0     H46561  12.401   9.738   5.706 -0.0330 -0.4863 -0.6801
  353MOL0     H46562  12.508   9.363   5.665  0.7761  0.5647 -0.0066
  353MOL0     H46563  12.564   9.347   5.823  0.4891 -0.3306  0.7170
  353MOL0     H46564  12.761   9.319   5.647 -1.6493 -0.4417 -1.1252
  353MOL0     H46565  12.783   9.456   5.746  0.0666 -0.3395 -0.0135
  353MOL0     H46566  12.704   9.605   5.569  2.6250 -0.2781  1.4820
  353MOL0     H46567  12.649   9.483   5.461 -0.4334 -2.3814  0.4002
  353MOL0     H46568  12.907   9.621   5.442  0.6259  0.4800  1.8673
  353MOL0     H46569  12.948   9.497   5.561 -1.0328 -2.0763 -0.3471
  353MOL0     H46570  12.817   9.444   5.284  2.7625 -1.9209 -3.0821
  353MOL0     H46571  12.855   9.330   5.413 -1.6567 -0.2326 -0.5833
  353MOL0     H46572  13.099   9.426   5.410  0.2550 -3.8622  0.7230
  353MOL0     H46573  13.045   9.490   5.247 -0.4395 -1.0243  0.2284
  353MOL0     H46574  13.040   9.204   5.336 -1.6002 -0.0890 -0.9351
  353MOL0     H46575  13.009   9.263   5.175 -0.5238  2.2334 -0.6295
  353MOL0     H46576  13.252   9.335   5.172 -0.9407 -2.9749 -2.3248
  353MOL0     H46577  13.239   9.169   5.205  1.6438 -0.3957 -0.6348
  353MOL0     H46578  12.373   9.379   5.928 -0.8118 -0.7203  1.4797
  353MOL0     H46579  12.143   9.403   5.957 -3.0860  1.6111 -0.3897
  353MOL0     H46580  11.780   9.611   6.258  0.4024 -0.6756  0.4972
  353MOL0     H46581  11.543   9.573   6.263 -1.9881 -2.0585 -1.2515
  353MOL0     H46582  11.117  10.464   7.061 -0.0810  3.4688 -0.9048
  353MOL0     H46583  11.317  10.559   7.138 -2.7425  0.0965 -2.5995
  353MOL0     H46584  11.627  10.867   7.213 -3.3470 -3.2808  2.2829
  353MOL0     H46585  11.834  10.973   7.328  1.1796 -0.3159  2.2661
  353MOL0     H46586  12.056  10.950   7.696 -0.0389 -1.4093  0.6820
  353MOL0     H46587  11.921  10.840   7.746 -0.3384  0.2635  2.2602
  353MOL0     H46588  11.770  11.052   7.734  0.3895  1.8642 -0.9858
  353MOL0     H46589  11.875  11.046   7.875 -1.0953  1.7454 -0.3051
  353MOL0     H46590  11.921  11.192   7.597 -2.6661 -2.5786 -0.3280
  353MOL0     H46591  12.031  11.193   7.741 -0.8634 -0.1297 -0.1929
  353MOL0     H46592  11.885  11.334   7.872 -0.8339 -0.5856  0.6803
  353MOL0     H46593  11.941  11.387   7.716 -1.2236 -0.4942 -3.1045
  353MOL0     H46594  11.513  11.369   7.680 -0.2258 -1.2402  0.4164
  353MOL0     H46595  11.719  10.762   7.685 -3.4555 -3.2471 -0.4037
  353MOL0     H46596  11.539  10.673   7.583  0.8190 -0.6577 -0.5540
  354MOL0     O46597   8.456   9.618   2.777  0.5939 -0.2061 -0.1955
  354MOL0     C46598   8.480   9.523   2.705 -0.1227 -0.0583  0.3252
  354MOL0     O46599   8.503   9.519   2.567  0.8533  0.0908  0.7625
  354MOL0     C46600   8.487   9.649   2.512  0.7921 -0.1294  0.9663
  354MOL0     C46601   8.355   9.692   2.481 -0.3762  0.1259  0.1101
  354MOL0     C46602   8.331   9.825   2.427 -0.0323 -0.3188  0.6029
  354MOL0     C46603   8.437   9.915   2.417  0.2993 -0.2080  0.0864
  354MOL0     O46604   8.415  10.044   2.363  0.4047  0.2076  0.3955
  354MOL0     C46605   8.285  10.110   2.379 -0.9081 -0.3405  0.0360
  354MOL0     C46606   8.350  10.241   2.428 -0.2113 -0.7431 -0.2694
  354MOL0     C46607   8.407  10.334   2.309  0.0777 -0.1380  0.3270
  354MOL0     C46608   8.425  10.481   2.350 -0.2349 -1.1483  0.8913
  354MOL0     C46609   8.558  10.541   2.295 -0.0067  0.7742  0.0256
  354MOL0     C46610   8.544  10.692   2.292  0.2507  0.7910  0.3475
  354MOL0     C46611   8.554  10.752   2.431 -0.7197 -0.7403 -0.3800
  354MOL0     C46612   8.421  10.795   2.484 -0.5941  0.2207 -0.1886
  354MOL0     N46613   8.448  10.841   2.618 -0.4739 -0.2576 -0.6586
  354MOL0     C46614   8.461  10.962   2.667 -0.1235 -0.2545 -0.1527
  354MOL0     C46615   8.483  10.956   2.795  0.1900  0.7394 -0.0205
  354MOL0     C46616   8.529  11.062   2.888  0.7389  0.1320  0.0931
  354MOL0     C46617   8.464  11.207   2.856  0.9022  1.1523  1.4905
  354MOL0     C46618   8.503  11.319   2.958  0.2410  0.2662 -0.1403
  354MOL0     C46619   8.654  11.322   2.969 -0.0059 -0.4695  1.1196
  354MOL0     O46620   8.683  11.438   3.043  0.3717 -0.0795 -0.4432
  354MOL0     C46621   8.666  11.441   3.173  0.2915 -0.3334 -0.3279
  354MOL0     C46622   8.729  11.354   3.265  0.2359  0.7830  0.2484
  354MOL0     C46623   8.714  11.373   3.404  0.4363  0.3303 -0.7994
  354MOL0     C46624   8.633  11.466   3.463 -1.3271 -0.9234  0.0632
  354MOL0     C46625   8.616  11.488   3.605  0.7637 -0.0229  0.3281
  354MOL0     O46626   8.563  11.606   3.645 -0.4643 -0.4599  0.2158
  354MOL0     C46627   8.530  11.619   3.776  1.4848  0.3571  0.3636
  354MOL0     C46628   8.399  11.617   3.795 -0.8147 -0.6939 -0.1071
  354MOL0     C46629   8.344  11.643   3.921 -1.0364  0.5517  0.3252
  354MOL0     C46630   8.436  11.669   4.023  0.3013  0.4551  0.2666
  354MOL0     O46631   8.401  11.705   4.152 -0.1088  0.5862  0.7915
  354MOL0     C46632   8.271  11.758   4.172 -0.4740 -0.2522 -0.6975
  354MOL0     C46633   8.277  11.910   4.155 -0.9147 -0.2644 -0.2117
  354MOL0     C46634   8.150  11.981   4.197  0.1610  1.1097  0.0661
  354MOL0     C46635   8.159  12.131   4.179 -0.0349  1.3353 -0.6462
  354MOL0     C46636   8.045  12.225   4.215 -0.0500  1.3028  0.9672
  354MOL0     C46637   8.058  12.362   4.153 -0.7201  0.4472 -0.2791
  354MOL0     C46638   7.943  12.456   4.180  0.1013 -0.2998  0.6722
  354MOL0     C46639   7.946  12.541   4.299 -0.4214 -0.0086  0.2185
  354MOL0    Cl46640   8.038  12.696   4.269  0.1599  0.0279  0.1550
  354MOL0     C46641   8.571  11.682   4.003 -0.9697 -0.1997 -0.3777
  354MOL0     C46642   8.622  11.658   3.876 -0.1903 -0.2238 -0.2035
  354MOL0     O46643   8.649  11.400   3.678  0.4959  0.3258 -0.4711
  354MOL0     C46644   8.569  11.545   3.368 -1.0622  0.0465 -0.9566
  354MOL0     C46645   8.581  11.534   3.227  0.7954 -0.3390 -1.2154
  354MOL0     N46646   8.476  10.819   2.831  0.0111 -0.0329 -0.1274
  354MOL0     N46647   8.441  10.749   2.724  0.3245  0.0803  0.0833
  354MOL0     C46648   8.561   9.877   2.438 -0.7160  1.0261  0.1825
  354MOL0     C46649   8.591   9.746   2.487  0.5874  0.6862  0.5738
  354MOL0     C46650   8.517   9.406   2.778 -0.0763  0.3379  0.1230
  354MOL0     C46651   8.511   9.406   2.919 -0.1044 -0.1943 -0.2774
  354MOL0     C46652   8.550   9.295   2.995 -0.0646  1.2905  0.3613
  354MOL0     C46653   8.599   9.175   2.934 -0.4004 -0.0835  0.1172
  354MOL0     O46654   8.659   9.067   3.000  0.4569 -0.7085  0.1440
  354MOL0     C46655   8.723   9.090   3.131 -1.0144  0.2729  0.6007
  354MOL0     C46656   8.812   8.975   3.158  0.0044 -0.1899  0.0168
  354MOL0     C46657   8.913   8.930   3.049 -0.4845  0.4454 -0.2743
  354MOL0     C46658   9.004   8.830   3.116  0.6519  0.6261 -0.2216
  354MOL0     C46659   9.102   8.769   3.023 -0.3662 -0.2399  1.2701
  354MOL0     C46660   9.175   8.714   2.942  0.0269  0.5412 -0.1486
  354MOL0     C46661   8.590   9.178   2.792 -0.0856  0.5002 -0.7104
  354MOL0     C46662   8.546   9.287   2.716 -0.7160 -0.4444 -0.0381
  354MOL0     H46663   8.276   9.618   2.468  1.9014 -2.5226  0.4927
  354MOL0     H46664   8.229   9.848   2.399 -0.3500 -0.6195  1.4817
  354MOL0     H46665   8.223  10.061   2.455  1.2767 -2.4567  0.6015
  354MOL0     H46666   8.231  10.130   2.287 -5.6145  0.1970  2.5790
  354MOL0     H46667   8.428  10.218   2.500  0.6076  3.1006  0.3009
  354MOL0     H46668   8.271  10.297   2.480 -0.2592 -1.4311  0.4070
  354MOL0     H46669   8.328  10.327   2.233  0.8391  1.0698 -0.6144
  354MOL0     H46670   8.503  10.289   2.281 -0.1107 -2.3836  2.9350
  354MOL0     H46671   8.347  10.530   2.292 -0.3016 -1.4052  0.7626
  354MOL0     H46672   8.405  10.508   2.454  0.3190 -0.5066  0.8354
  354MOL0     H46673   8.569  10.517   2.189 -0.7466  3.3779 -0.7188
  354MOL0     H46674   8.652  10.501   2.334  0.2164  0.4922 -0.7937
  354MOL0     H46675   8.449  10.722   2.247  0.1769 -0.0289 -0.0663
  354MOL0     H46676   8.614  10.738   2.222  2.2086 -3.5778 -0.9292
  354MOL0     H46677   8.593  10.676   2.499 -1.8618 -0.4298  0.6521
  354MOL0     H46678   8.624  10.836   2.428  0.7242 -1.7508  2.0997
  354MOL0     H46679   8.356  10.707   2.487  1.6958 -1.6221 -1.3442
  354MOL0     H46680   8.366  10.863   2.419  1.1402  0.5972 -1.3036
  354MOL0     H46681   8.467  11.052   2.606  0.2350 -0.5486 -0.5566
  354MOL0     H46682   8.639  11.064   2.885  0.8818 -2.2332  1.3459
  354MOL0     H46683   8.493  11.044   2.990 -0.4166 -2.8957 -0.7526
  354MOL0     H46684   8.355  11.202   2.855  0.7867  0.0822 -2.8698
  354MOL0     H46685   8.471  11.228   2.749 -0.1332  0.4825  1.2734
  354MOL0     H46686   8.468  11.415   2.919 -0.9370 -1.1924 -2.9911
  354MOL0     H46687   8.455  11.295   3.053  2.7224 -0.3282  1.0452
  354MOL0     H46688   8.690  11.327   2.866 -3.1814 -1.3500 -0.1601
  354MOL0     H46689   8.710  11.238   3.012 -1.5570 -2.5681 -0.7310
  354MOL0     H46690   8.806  11.281   3.240  0.9458  1.1066  1.4208
  354MOL0     H46691   8.765  11.296   3.462  0.5917  1.8775  1.2179
  354MOL0     H46692   8.338  11.583   3.711 -0.2644 -1.2080 -0.3048
  354MOL0     H46693   8.237  11.641   3.939 -1.1809 -0.6854 -0.5416
  354MOL0     H46694   8.245  11.741   4.277 -0.0237  2.7567  0.0068
  354MOL0     H46695   8.198  11.708   4.108  0.6425  0.0393 -2.2508
  354MOL0     H46696   8.299  11.943   4.053 -0.2954  3.9630  1.0963
  354MOL0     H46697   8.359  11.940   4.220  0.8756  0.6002 -2.7306
  354MOL0     H46698   8.131  11.966   4.303  1.6185  1.1097  0.3489
  354MOL0     H46699   8.069  11.931   4.143  0.8988  0.1912 -0.2081
  354MOL0     H46700   8.237  12.169   4.245  1.4211 -0.8132 -1.0338
  354MOL0     H46701   8.178  12.150   4.073 -0.8449 -2.2684 -1.5732
  354MOL0     H46702   8.044  12.231   4.324 -2.1462 -0.6545  1.1197
  354MOL0     H46703   7.951  12.178   4.186  0.6026 -0.1135  1.1023
  354MOL0     H46704   8.054  12.344   4.045  1.0708  0.9759 -0.4592
  354MOL0     H46705   8.154  12.411   4.168 -1.1853  1.2358  0.1856
  354MOL0     H46706   7.917  12.538   4.113 -1.9434 -0.4799  1.1855
  354MOL0     H46707   7.856  12.389   4.178 -0.2436  0.1223 -1.8449
  354MOL0     H46708   7.996  12.487   4.380 -0.2063 -0.6337 -0.3209
  354MOL0     H46709   7.846  12.552   4.341 -1.5925 -2.8892 -1.5686
  354MOL0     H46710   8.634  11.713   4.085 -4.3350  0.5557  2.1476
  354MOL0     H46711   8.726  11.664   3.845 -0.6191 -1.4254 -1.9708
  354MOL0     H46712   8.502  11.612   3.420 -2.4146 -1.2097 -1.0168
  354MOL0     H46713   8.537  11.599   3.151  0.9972 -3.2943 -4.0807
  354MOL0     H46714   8.648   9.938   2.416  1.2344 -1.4340  0.5609
  354MOL0     H46715   8.692   9.715   2.508  0.2822 -1.0639 -0.4069
  354MOL0     H46716   8.497   9.498   2.974 -3.8386 -0.2820 -0.8415
  354MOL0     H46717   8.546   9.290   3.104  1.1098 -0.6872  0.3657
  354MOL0     H46718   8.647   9.116   3.205 -0.0698 -1.3391  2.2232
  354MOL0     H46719   8.785   9.178   3.111 -0.6164 -0.4974 -1.8767
  354MOL0     H46720   8.875   9.007   3.241 -0.0214 -0.7540  0.2515
  354MOL0     H46721   8.745   8.894   3.188 -2.0873  2.1029  2.0251
  354MOL0     H46722   8.974   9.013   3.013  0.1850 -0.4140 -1.1636
  354MOL0     H46723   8.866   8.884   2.962  3.7868 -2.8978 -1.1809
  354MOL0     H46724   9.064   8.880   3.193 -0.6226  2.3915 -0.3318
  354MOL0     H46725   8.958   8.744   3.167  2.1472  1.4049  2.6960
  354MOL0     H46726   9.231   8.648   2.879  2.6923 -1.1783  3.6039
  354MOL0     H46727   8.602   9.088   2.734 -3.2688 -0.6693  0.2368
  354MOL0     H46728   8.546   9.279   2.608  1.5429  0.0594 -0.1224
  355MOL0     O46729  11.262   5.413  11.223  0.0065  0.0206 -0.9760
  355MOL0     C46730  11.273   5.353  11.331  0.0381 -0.8591  0.0921
  355MOL0     O46731  11.246   5.221  11.351 -0.0964  0.2831 -0.2515
  355MOL0     C46732  11.162   5.160  11.271  0.6854 -0.2681  0.3981
  355MOL0     C46733  11.061   5.218  11.189 -0.1198  0.3846  0.4578
  355MOL0     C46734  10.980   5.132  11.110  0.0055  0.1654  0.8499
  355MOL0     C46735  11.007   4.991  11.113  1.0288 -0.4322  0.8575
  355MOL0     O46736  10.936   4.908  11.024  0.3949 -0.0420  0.7451
  355MOL0     C46737  10.812   4.867  11.075  0.0606 -0.4889 -0.1863
  355MOL0     C46738  10.729   4.760  10.990  0.3094 -0.9670 -0.3075
  355MOL0     C46739  10.703   4.627  11.062  0.1137  0.4512  0.7626
  355MOL0     C46740  10.822   4.539  11.076 -0.2968 -0.3869 -0.5966
  355MOL0     C46741  10.854   4.474  11.219 -0.4663  0.4425 -0.2335
  355MOL0     C46742  10.881   4.579  11.326 -0.7203  0.3155 -0.5708
  355MOL0     C46743  10.974   4.523  11.437  0.6225  0.8173  0.0933
  355MOL0     C46744  10.917   4.406  11.515  0.6319 -1.3228  0.1879
  355MOL0     N46745  10.832   4.457  11.631  0.1069  0.3007 -0.1062
  355MOL0     C46746  10.889   4.499  11.749  0.3857 -0.5243 -0.0639
  355MOL0     C46747  10.780   4.495  11.828 -0.5715  0.4148 -0.2692
  355MOL0     C46748  10.787   4.545  11.972  0.1802  1.6541 -0.3449
  355MOL0     C46749  10.819   4.698  11.982  0.4573  0.3217  0.3828
  355MOL0     C46750  10.718   4.777  11.900 -0.6499  0.8939  0.5129
  355MOL0     C46751  10.720   4.917  11.932  0.3457  0.6767  0.1481
  355MOL0     O46752  10.600   4.992  11.884  0.0075  0.3310  0.3749
  355MOL0     C46753  10.604   5.130  11.896  1.1878  0.5387  0.0827
  355MOL0     C46754  10.484   5.200  11.849 -0.9245 -0.1716 -0.3345
  355MOL0     C46755  10.481   5.334  11.860  0.3799 -0.1172  0.7789
  355MOL0     C46756  10.593   5.401  11.910  0.3447 -0.0576  0.7196
  355MOL0     C46757  10.592   5.547  11.906  0.4865 -0.3325  0.8410
  355MOL0     O46758  10.647   5.611  12.018 -0.2676 -0.2805  0.7515
  355MOL0     C46759  10.637   5.748  12.029  1.3815 -0.4959 -0.4106
  355MOL0     C46760  10.739   5.840  11.987 -0.2763  0.8292 -0.7244
  355MOL0     C46761  10.719   5.973  12.013  0.6354 -0.1815  0.4361
  355MOL0     C46762  10.597   6.023  12.060 -0.3239  0.7274 -0.3259
  355MOL0     O46763  10.547   6.143  12.051  0.0014  0.3754  0.1602
  355MOL0     C46764  10.605   6.223  11.944  0.0423 -0.1384  0.0391
  355MOL0     C46765  10.513   6.345  11.931  0.7780 -0.0480  0.2501
  355MOL0     C46766  10.549   6.440  11.817 -0.0598 -0.2121  0.4497
  355MOL0     C46767  10.427   6.527  11.781 -0.0754  0.6321 -0.4609
  355MOL0     C46768  10.464   6.622  11.665  0.3070 -0.3102 -0.4245
  355MOL0     C46769  10.340   6.691  11.606 -1.0581  0.1233  0.1385
  355MOL0     C46770  10.282   6.803  11.686 -0.5004 -1.0941 -1.1620
  355MOL0     C46771  10.184   6.887  11.609  0.1085 -1.0157  0.7234
  355MOL0    Cl46772  10.166   7.040  11.697 -0.2493 -0.4127  0.0957
  355MOL0     C46773  10.510   5.931  12.114  0.0148 -0.0277  0.2862
  355MOL0     C46774  10.518   5.797  12.090 -0.5236 -0.3867  0.1466
  355MOL0     O46775  10.535   5.606  11.818  0.1680 -0.1906  0.5112
  355MOL0     C46776  10.705   5.333  11.955  0.0256  0.3971 -1.3618
  355MOL0     C46777  10.713   5.194  11.935  0.4401  0.1764 -0.6671
  355MOL0     N46778  10.660   4.455  11.767  0.1373  0.1918  0.0019
  355MOL0     N46779  10.699   4.438  11.647  0.2698  0.1731  0.0053
  355MOL0     C46780  11.114   4.942  11.182 -0.2717 -0.1322 -0.8322
  355MOL0     C46781  11.186   5.022  11.269 -0.5822  0.2063 -0.0175
  355MOL0     C46782  11.348   5.419  11.436  0.4108 -0.7597  0.1265
  355MOL0     C46783  11.371   5.558  11.431  0.1558 -0.0335 -0.7281
  355MOL0     C46784  11.420   5.627  11.538  0.2061 -0.2212 -0.3429
  355MOL0     C46785  11.466   5.573  11.656  0.3698  0.2632  0.0500
  355MOL0     O46786  11.527   5.651  11.747 -0.2512 -0.5102 -0.1331
  355MOL0     C46787  11.665   5.624  11.760 -0.7429  0.6722 -0.2752
  355MOL0     C46788  11.719   5.702  11.874  0.1194 -1.2205 -0.3633
  355MOL0     C46789  11.870   5.690  11.878 -0.8481  0.5677 -0.1228
  355MOL0     C46790  11.946   5.789  11.965  0.7263  0.5310 -0.3378
  355MOL0     C46791  12.087   5.748  11.982  0.7634  0.1961  0.8671
  355MOL0     C46792  12.195   5.712  11.998 -0.2558  0.4170 -0.4360
  355MOL0     C46793  11.455   5.429  11.662  0.7569  0.3738 -0.9345
  355MOL0     C46794  11.381   5.356  11.559  0.1680 -0.0788 -0.1911
  355MOL0     H46795  11.045   5.323  11.165  0.1402  0.0173 -1.5030
  355MOL0     H46796  10.901   5.181  11.054  0.9088  0.5600 -0.1187
  355MOL0     H46797  10.752   4.956  11.094 -1.5407 -1.3136 -1.1506
  355MOL0     H46798  10.822   4.815  11.172 -1.7330 -0.2055  0.1720
  355MOL0     H46799  10.784   4.740  10.897  2.4081  0.9271  0.4447
  355MOL0     H46800  10.634   4.807  10.964  2.3599  2.8852 -1.6475
  355MOL0     H46801  10.639   4.567  10.997  1.7652 -0.2653 -0.2499
  355MOL0     H46802  10.666   4.645  11.164 -2.5019  0.1111 -0.0372
  355MOL0     H46803  10.825   4.455  11.006  0.0141 -2.6408  1.9462
  355MOL0     H46804  10.908   4.604  11.057 -1.6657  1.4283 -0.8854
  355MOL0     H46805  10.932   4.399  11.204  1.4085  1.8137  1.9432
  355MOL0     H46806  10.762   4.427  11.253 -1.2966  3.1933  1.7137
  355MOL0     H46807  10.785   4.606  11.371 -1.4951  1.3019 -2.6764
  355MOL0     H46808  10.936   4.663  11.283  1.7443 -0.6689  0.4599
  355MOL0     H46809  11.069   4.505  11.386  1.0783  3.1459 -0.0289
  355MOL0     H46810  11.007   4.599  11.508 -0.8105  1.9295 -0.3736
  355MOL0     H46811  10.999   4.362  11.571  0.9329  1.7485  2.4279
  355MOL0     H46812  10.868   4.332  11.452  1.4167 -0.1626 -1.8844
  355MOL0     H46813  10.987   4.533  11.781 -0.0503  3.2103 -2.1439
  355MOL0     H46814  10.855   4.496  12.042  0.9632  2.7885 -0.2824
  355MOL0     H46815  10.685   4.537  12.013  1.3124  0.0701  2.4871
  355MOL0     H46816  10.918   4.726  11.945  0.4153  3.0604  2.0295
  355MOL0     H46817  10.809   4.730  12.086 -0.1020  0.0222  0.4259
  355MOL0     H46818  10.732   4.764  11.792 -1.2196 -0.4818  0.5856
  355MOL0     H46819  10.620   4.736  11.929 -1.0865 -0.3144 -2.2728
  355MOL0     H46820  10.808   4.946  11.874  2.6742 -3.0023  1.5374
  355MOL0     H46821  10.746   4.932  12.037 -0.2882  2.4053  0.0924
  355MOL0     H46822  10.394   5.145  11.824  0.3564 -2.2085 -0.8104
  355MOL0     H46823  10.391   5.392  11.839  0.6515  1.4041  3.3504
  355MOL0     H46824  10.827   5.790  11.946 -0.0540 -0.5522  1.2679
  355MOL0     H46825  10.794   6.041  11.975  1.2361 -0.3321  1.3431
  355MOL0     H46826  10.607   6.179  11.844  1.5046  2.3868 -1.1475
  355MOL0     H46827  10.707   6.257  11.962  0.3704  0.5340 -2.6081
  355MOL0     H46828  10.530   6.395  12.027  4.4049  0.7709 -0.6675
  355MOL0     H46829  10.409   6.313  11.923  0.8810 -1.2619  2.6619
  355MOL0     H46830  10.581   6.393  11.723 -0.7112  3.9596 -2.0855
  355MOL0     H46831  10.632   6.508  11.838  0.7696 -0.3776 -1.9748
  355MOL0     H46832  10.352   6.456  11.745  0.6006 -1.2281  1.6038
  355MOL0     H46833  10.377   6.585  11.859 -0.7370  0.3918 -0.7032
  355MOL0     H46834  10.494   6.564  11.577  0.4430  0.9055 -1.1971
  355MOL0     H46835  10.540   6.692  11.699  0.2661 -0.4340 -0.0682
  355MOL0     H46836  10.258   6.618  11.599 -0.3583 -0.5907 -0.9317
  355MOL0     H46837  10.361   6.727  11.505 -2.8498  1.8905  0.3307
  355MOL0     H46838  10.236   6.771  11.780  1.5298  0.7405  0.5689
  355MOL0     H46839  10.362   6.871  11.715 -0.6800 -1.0406 -0.7923
  355MOL0     H46840  10.084   6.841  11.610 -1.6281  2.3627 -0.8325
  355MOL0     H46841  10.212   6.911  11.506 -1.6568  2.5887  0.9223
  355MOL0     H46842  10.411   5.959  12.149  0.6257  1.8458  0.6083
  355MOL0     H46843  10.435   5.738  12.126 -0.2998  1.0680  3.4557
  355MOL0     H46844  10.788   5.382  12.005  0.3012 -0.7260 -0.6859
  355MOL0     H46845  10.810   5.147  11.949 -0.3183 -1.7695 -1.5477
  355MOL0     H46846  11.143   4.838  11.174  2.4004  0.5818 -1.7328
  355MOL0     H46847  11.266   4.976  11.327 -0.7148  0.0308  0.0294
  355MOL0     H46848  11.348   5.611  11.339 -5.7368 -4.0986 -2.1954
  355MOL0     H46849  11.424   5.733  11.516 -0.2464 -0.8191 -3.9153
  355MOL0     H46850  11.714   5.658  11.668 -0.8117  1.0199 -0.1866
  355MOL0     H46851  11.690   5.519  11.778  0.3114  1.3162  2.6242
  355MOL0     H46852  11.690   5.805  11.854  0.1017 -1.2867 -0.6813
  355MOL0     H46853  11.663   5.682  11.965 -1.4571  0.4330 -0.9226
  355MOL0     H46854  11.897   5.708  11.773  1.7336  0.0625  0.3774
  355MOL0     H46855  11.908   5.593  11.910  2.4326  1.3214 -1.2842
  355MOL0     H46856  11.922   5.891  11.935 -5.4174  0.3400  2.5463
  355MOL0     H46857  11.913   5.766  12.066 -1.4276 -1.9027 -1.4820
  355MOL0     H46858  12.294   5.672  12.011 -0.3201  0.5614  0.5093
  355MOL0     H46859  11.496   5.393  11.756 -0.0973  0.3062 -0.5796
  355MOL0     H46860  11.346   5.255  11.578 -3.2861  0.7333 -1.3982
  356MOL0     O46861   2.125   6.303   6.673 -0.1718 -0.2025  0.4861
  356MOL0     C46862   2.037   6.389   6.678  0.0446  0.4395  0.8933
  356MOL0     O46863   1.942   6.405   6.576 -0.4364 -0.6134 -0.3713
  356MOL0     C46864   1.948   6.314   6.481  0.7909 -0.5550  0.5607
  356MOL0     C46865   1.841   6.220   6.487 -0.3789  0.2784  0.6747
  356MOL0     C46866   1.840   6.110   6.404  0.0968  0.1072 -0.6157
  356MOL0     C46867   1.941   6.086   6.310  0.3131 -0.1221  0.9456
  356MOL0     O46868   1.955   5.980   6.225 -0.7535  0.3090 -0.3324
  356MOL0     C46869   1.863   5.866   6.221  0.8653 -0.3265 -0.6105
  356MOL0     C46870   1.903   5.752   6.130 -0.4026 -0.1376  0.2682
  356MOL0     C46871   2.038   5.678   6.161  0.3454  0.1658 -0.2626
  356MOL0     C46872   2.024   5.587   6.288  0.3885  0.2092 -0.3996
  356MOL0     C46873   2.162   5.537   6.319 -0.6806  1.0323  0.6529
  356MOL0     C46874   2.185   5.454   6.453 -0.6262 -0.7765 -0.9042
  356MOL0     C46875   2.116   5.315   6.469 -0.1455  1.1924  0.4928
  356MOL0     C46876   2.191   5.224   6.576  0.7232 -0.4287 -0.5551
  356MOL0     N46877   2.238   5.300   6.687  0.0353  0.1408 -0.5845
  356MOL0     C46878   2.151   5.348   6.779 -0.6202  0.1198 -0.2386
  356MOL0     C46879   2.245   5.413   6.855  0.6211 -0.0295  0.2297
  356MOL0     C46880   2.206   5.486   6.986 -0.6139  1.2735 -1.2812
  356MOL0     C46881   2.283   5.416   7.103 -0.3765  0.4877 -0.6300
  356MOL0     C46882   2.225   5.440   7.247 -0.8375 -0.3878  0.4828
  356MOL0     C46883   2.334   5.400   7.340  0.0736  0.2048  0.2892
  356MOL0     O46884   2.292   5.433   7.473  0.2597  0.8494  0.5041
  356MOL0     C46885   2.356   5.378   7.583  0.6565 -0.0748 -0.3234
  356MOL0     C46886   2.488   5.342   7.580 -0.9845 -0.0169 -0.7428
  356MOL0     C46887   2.559   5.286   7.689  1.3299  0.1345  0.1045
  356MOL0     C46888   2.484   5.241   7.806 -0.4798 -0.6756  0.7125
  356MOL0     C46889   2.546   5.163   7.923  0.0385 -0.2954 -0.5460
  356MOL0     O46890   2.680   5.142   7.913  0.5302  1.0739 -0.8264
  356MOL0     C46891   2.731   5.074   8.018 -1.3870  0.1641  0.1078
  356MOL0     C46892   2.812   5.135   8.121  0.0725 -0.2720  0.8967
  356MOL0     C46893   2.881   5.054   8.209  0.6103 -0.5891  0.4628
  356MOL0     C46894   2.873   4.921   8.188 -0.5698  0.5591 -0.3185
  356MOL0     O46895   2.958   4.824   8.253 -0.4107 -0.1096 -0.5069
  356MOL0     C46896   3.055   4.864   8.347 -0.0945 -0.1177 -0.4038
  356MOL0     C46897   3.131   4.729   8.375 -0.6675  0.0209 -0.4754
  356MOL0     C46898   3.217   4.722   8.502  0.1305 -0.2875  0.3585
  356MOL0     C46899   3.321   4.828   8.527  0.1018 -0.1207  0.2477
  356MOL0     C46900   3.411   4.794   8.654 -0.1333 -0.7711 -0.0011
  356MOL0     C46901   3.551   4.739   8.616 -0.7299 -0.0633 -0.1521
  356MOL0     C46902   3.656   4.778   8.722 -0.3420  0.6402 -0.1350
  356MOL0     C46903   3.621   4.725   8.865 -0.2515  0.3470  0.3346
  356MOL0    Cl46904   3.780   4.713   8.958 -0.4189  0.0738 -0.2203
  356MOL0     C46905   2.784   4.861   8.100 -1.1905  0.5876  0.7356
  356MOL0     C46906   2.713   4.940   8.010 -0.7768  0.5101  0.3728
  356MOL0     O46907   2.476   5.125   8.015 -0.4193  0.0042  0.4300
  356MOL0     C46908   2.345   5.268   7.810 -0.2467  0.3925 -0.4685
  356MOL0     C46909   2.286   5.341   7.710  0.0228 -0.9292 -0.1127
  356MOL0     N46910   2.366   5.409   6.807 -0.5192  0.4530 -0.1367
  356MOL0     N46911   2.367   5.335   6.699  0.5108 -0.3982  0.3328
  356MOL0     C46912   2.039   6.187   6.294 -0.1523  0.6884 -0.1817
  356MOL0     C46913   2.043   6.302   6.374 -0.5980  0.1356 -0.2228
  356MOL0     C46914   2.036   6.463   6.799  0.1483  0.4206 -0.1223
  356MOL0     C46915   1.938   6.561   6.816  0.1637 -0.2473 -0.4011
  356MOL0     C46916   1.912   6.624   6.943  0.0549 -0.2642  0.8418
  356MOL0     C46917   1.997   6.595   7.049 -0.4432 -0.0165  0.2364
  356MOL0     O46918   1.993   6.648   7.175  0.3083  0.0357  0.6977
  356MOL0     C46919   1.871   6.699   7.224  0.2423 -0.5709 -0.1896
  356MOL0     C46920   1.779   6.581   7.257  0.6370 -0.1960 -0.3606
  356MOL0     C46921   1.812   6.520   7.399  0.0005  0.2479  0.6271
  356MOL0     C46922   1.727   6.594   7.508  0.2898 -0.2399 -0.2119
  356MOL0     C46923   1.744   6.544   7.642 -1.3772 -0.8083 -0.2302
  356MOL0     C46924   1.765   6.505   7.752  0.6928 -0.9954 -0.2473
  356MOL0     C46925   2.107   6.510   7.023 -0.3326 -0.5040  0.8358
  356MOL0     C46926   2.123   6.440   6.905  0.2708 -0.7368 -0.4711
  356MOL0     H46927   1.764   6.231   6.563 -3.2332 -3.2833 -1.3506
  356MOL0     H46928   1.757   6.040   6.403  0.1864  0.0014 -0.9486
  356MOL0     H46929   1.766   5.904   6.186  0.1664 -1.0298  0.4733
  356MOL0     H46930   1.837   5.822   6.318 -0.9752 -1.8633 -1.7054
  356MOL0     H46931   1.913   5.796   6.030  0.2724  3.3094  1.7180
  356MOL0     H46932   1.825   5.677   6.113  0.3696 -0.7240 -0.9121
  356MOL0     H46933   2.113   5.757   6.172 -0.3180  0.9041 -0.8752
  356MOL0     H46934   2.053   5.619   6.070 -4.7983  2.8479 -3.3158
  356MOL0     H46935   1.989   5.649   6.371 -1.4121  0.9645 -1.6358
  356MOL0     H46936   1.952   5.511   6.256 -0.5249  1.6041 -1.7957
  356MOL0     H46937   2.227   5.625   6.323 -1.0110  1.2553  1.3210
  356MOL0     H46938   2.191   5.470   6.238  1.8610  3.9775 -1.1221
  356MOL0     H46939   2.153   5.516   6.537  0.1455  1.5136 -2.2090
  356MOL0     H46940   2.292   5.438   6.465 -1.0775 -1.4377  3.9281
  356MOL0     H46941   2.012   5.318   6.503  0.0863 -0.8139  1.4965
  356MOL0     H46942   2.106   5.272   6.369 -2.0887  3.2822 -0.3211
  356MOL0     H46943   2.279   5.174   6.536  1.9543  1.1965  0.0168
  356MOL0     H46944   2.127   5.148   6.622 -2.1148  1.7975 -0.5385
  356MOL0     H46945   2.046   5.325   6.792 -0.5634  0.5648  1.2444
  356MOL0     H46946   2.104   5.464   7.018  0.9551 -0.4100  3.4086
  356MOL0     H46947   2.208   5.596   6.979 -1.3433  1.3362 -0.6284
  356MOL0     H46948   2.379   5.467   7.110 -1.4297  3.1772 -3.4404
  356MOL0     H46949   2.285   5.308   7.086 -1.0852 -0.2318  3.0741
  356MOL0     H46950   2.208   5.548   7.250 -2.1234 -0.4192 -2.3205
  356MOL0     H46951   2.130   5.389   7.267 -1.0064 -1.0541 -1.6595
  356MOL0     H46952   2.425   5.461   7.333  0.4872 -0.3607  0.5654
  356MOL0     H46953   2.347   5.292   7.324 -2.0605 -0.1305  0.6097
  356MOL0     H46954   2.558   5.353   7.498  0.4397  0.8276  0.5236
  356MOL0     H46955   2.661   5.256   7.671 -0.0248 -5.0883 -0.3204
  356MOL0     H46956   2.820   5.242   8.138  2.6430 -0.6100  2.2308
  356MOL0     H46957   2.935   5.101   8.290 -1.6246 -0.3141  1.8837
  356MOL0     H46958   3.016   4.902   8.442  2.3641 -1.9731  1.4847
  356MOL0     H46959   3.123   4.936   8.302  2.4813 -1.9605  0.3027
  356MOL0     H46960   3.192   4.710   8.287 -0.9156  1.9480 -1.1296
  356MOL0     H46961   3.067   4.641   8.380  0.9288 -1.2567 -1.5732
  356MOL0     H46962   3.271   4.627   8.511 -0.9441 -1.0902 -1.0958
  356MOL0     H46963   3.138   4.734   8.576 -0.4899  0.6638 -0.4354
  356MOL0     H46964   3.385   4.843   8.440 -0.4050 -1.7052 -0.4289
  356MOL0     H46965   3.267   4.918   8.559 -3.0107 -2.7024  2.9715
  356MOL0     H46966   3.366   4.725   8.726 -0.0304 -0.6231  0.2065
  356MOL0     H46967   3.434   4.884   8.711  1.1614  0.3382 -2.1335
  356MOL0     H46968   3.583   4.762   8.514 -3.0227 -1.9198 -1.3753
  356MOL0     H46969   3.540   4.633   8.590  1.1243  0.5550 -4.1972
  356MOL0     H46970   3.752   4.734   8.695  0.0682  0.9227  0.8118
  356MOL0     H46971   3.672   4.886   8.716  2.7701  0.1804 -2.1470
  356MOL0     H46972   3.571   4.628   8.852 -2.3049  1.2669  0.9259
  356MOL0     H46973   3.557   4.799   8.914  1.0950  1.9525 -0.2113
  356MOL0     H46974   2.760   4.756   8.088 -1.6819  0.5423  1.9558
  356MOL0     H46975   2.651   4.888   7.937  0.8174 -1.9669  0.6441
  356MOL0     H46976   2.276   5.234   7.886  2.0235 -3.1587  0.2656
  356MOL0     H46977   2.181   5.369   7.707  0.4726  1.0454  1.1053
  356MOL0     H46978   2.121   6.189   6.223 -1.5887 -1.1396 -2.0094
  356MOL0     H46979   2.130   6.367   6.366  3.2734 -4.2164  1.6362
  356MOL0     H46980   1.872   6.573   6.731  3.5938  0.9864 -3.1459
  356MOL0     H46981   1.834   6.697   6.963 -2.1598 -2.5409  0.9813
  356MOL0     H46982   1.822   6.760   7.148 -2.5207 -1.9297  0.3743
  356MOL0     H46983   1.882   6.767   7.309  1.1224 -0.9510  0.0092
  356MOL0     H46984   1.671   6.603   7.252  0.3144 -1.2158  1.4242
  356MOL0     H46985   1.790   6.505   7.179  3.0393  0.8624 -1.1365
  356MOL0     H46986   1.918   6.501   7.418  0.4766 -1.2447 -2.7628
  356MOL0     H46987   1.758   6.425   7.400 -2.5901  1.6410  0.6472
  356MOL0     H46988   1.742   6.702   7.510 -2.9115  0.3080 -0.5402
  356MOL0     H46989   1.620   6.591   7.488  0.6429 -0.4059 -2.3668
  356MOL0     H46990   1.812   6.471   7.842  3.4508  0.9215 -0.8248
  356MOL0     H46991   2.176   6.492   7.104  0.7494  0.5128  0.1848
  356MOL0     H46992   2.208   6.372   6.901 -0.0455 -1.0761 -2.1239
  357MOL0     O46993   2.719   6.520   4.417 -0.2028 -0.4495  1.0609
  357MOL0     C46994   2.721   6.632   4.474 -0.9997  0.6710 -0.2163
  357MOL0     O46995   2.646   6.744   4.450  0.5985  0.1361 -0.1543
  357MOL0     C46996   2.577   6.738   4.330  0.6973  0.0327  0.0855
  357MOL0     C46997   2.632   6.784   4.206 -0.3872  0.5397  0.1740
  357MOL0     C46998   2.560   6.771   4.088  0.0548  0.7858  0.6517
  357MOL0     C46999   2.429   6.721   4.093  0.1891  0.7951  0.8934
  357MOL0     O47000   2.348   6.702   3.983  0.5241 -0.5199  0.2470
  357MOL0     C47001   2.378   6.759   3.861 -0.4987  0.7132 -0.0674
  357MOL0     C47002   2.255   6.766   3.775 -0.7152 -1.2934  0.8356
  357MOL0     C47003   2.190   6.628   3.733 -0.5550 -0.3241 -0.0205
  357MOL0     C47004   2.257   6.580   3.602  0.9170 -0.1513 -1.3218
  357MOL0     C47005   2.203   6.439   3.558  0.3916  0.3428 -0.1466
  357MOL0     C47006   2.051   6.429   3.536  0.2108 -0.1094 -0.2127
  357MOL0     C47007   2.016   6.526   3.417 -0.7294 -0.3622 -0.3022
  357MOL0     C47008   1.870   6.513   3.386  0.2141 -0.6421  0.4942
  357MOL0     N47009   1.843   6.476   3.245  0.1491 -0.2226 -0.5227
  357MOL0     C47010   1.895   6.372   3.180 -0.7297 -0.7081  0.0669
  357MOL0     C47011   1.856   6.381   3.049 -0.5087  0.0085 -0.6136
  357MOL0     C47012   1.896   6.281   2.950 -0.5035  0.4060 -0.3701
  357MOL0     C47013   1.872   6.327   2.807 -0.6206 -0.2978 -0.4651
  357MOL0     C47014   1.807   6.210   2.726 -0.5182 -0.3201 -0.0375
  357MOL0     C47015   1.909   6.116   2.681 -0.5568 -0.1526  0.1300
  357MOL0     O47016   2.005   6.163   2.577 -0.6121  0.6923 -0.5960
  357MOL0     C47017   1.958   6.221   2.465 -0.9887 -0.7902  0.5108
  357MOL0     C47018   2.034   6.325   2.397  0.7051  0.6916 -1.1642
  357MOL0     C47019   1.990   6.386   2.283 -0.1269  1.0640  0.4489
  357MOL0     C47020   1.865   6.351   2.230 -0.2976 -0.3250 -0.0185
  357MOL0     C47021   1.799   6.426   2.114 -0.6333  1.3352  0.6753
  357MOL0     O47022   1.856   6.529   2.050 -0.0011  1.0768  0.5405
  357MOL0     C47023   1.799   6.565   1.931  0.0894 -0.1890 -0.4963
  357MOL0     C47024   1.662   6.602   1.927  0.1185 -0.8348  0.1015
  357MOL0     C47025   1.609   6.648   1.806 -0.7025 -0.3513 -0.0218
  357MOL0     C47026   1.678   6.654   1.694 -0.5023 -0.0768  0.1949
  357MOL0     O47027   1.616   6.701   1.586 -0.6979 -0.1939 -0.4388
  357MOL0     C47028   1.664   6.649   1.460  0.5918 -0.8363  0.3543
  357MOL0     C47029   1.575   6.698   1.348 -0.0378 -0.4848 -0.0798
  357MOL0     C47030   1.577   6.625   1.208  0.0469 -0.8125 -0.8362
  357MOL0     C47031   1.471   6.682   1.117 -0.4351 -0.9778  0.8182
  357MOL0     C47032   1.476   6.622   0.975 -0.8646  0.2693  0.3153
  357MOL0     C47033   1.570   6.683   0.866 -0.7335 -0.2719 -0.4631
  357MOL0     C47034   1.608   6.587   0.756 -0.2381 -0.0863 -1.1719
  357MOL0     C47035   1.709   6.643   0.662  0.1842  0.6621 -0.1326
  357MOL0    Cl47036   1.741   6.531   0.527  0.0818  0.1531  0.0549
  357MOL0     C47037   1.818   6.621   1.695 -0.0107  1.5992  0.0069
  357MOL0     C47038   1.873   6.578   1.815  0.0279  0.9544 -0.5665
  357MOL0     O47039   1.685   6.375   2.084  0.0257 -0.1322  0.2074
  357MOL0     C47040   1.781   6.254   2.293  0.1865  0.3257  0.2334
  357MOL0     C47041   1.834   6.188   2.405 -0.6683  0.0701 -0.0284
  357MOL0     N47042   1.794   6.508   3.037 -0.6558 -0.4598  0.6371
  357MOL0     N47043   1.774   6.554   3.160  0.8210 -0.3402 -0.6841
  357MOL0     C47044   2.378   6.669   4.210  0.3583 -0.6635 -0.3517
  357MOL0     C47045   2.449   6.677   4.330  0.0121 -0.6201 -0.6918
  357MOL0     C47046   2.786   6.632   4.608 -0.5613  0.1138  0.3661
  357MOL0     C47047   2.794   6.751   4.676 -0.0816 -0.2702  0.1098
  357MOL0     C47048   2.843   6.748   4.807 -0.1524 -1.1068  0.6705
  357MOL0     C47049   2.892   6.636   4.863 -0.4158  0.3965 -0.0757
  357MOL0     O47050   2.932   6.648   4.993 -0.4870  0.1912 -0.4317
  357MOL0     C47051   2.951   6.535   5.073  0.6267  0.3338 -0.1253
  357MOL0     C47052   2.981   6.595   5.213 -0.0770 -0.4293  0.0234
  357MOL0     C47053   3.026   6.483   5.315  0.3946  0.3680 -0.2480
  357MOL0     C47054   3.054   6.557   5.454  0.3513 -0.6561  0.5601
  357MOL0     C47055   2.941   6.627   5.518  0.7874  0.3791 -0.1207
  357MOL0     C47056   2.848   6.695   5.559 -0.1438 -0.2174  0.4986
  357MOL0     C47057   2.898   6.520   4.785 -0.5276 -0.1430 -0.3748
  357MOL0     C47058   2.845   6.518   4.659 -0.1139  0.1490 -0.1819
  357MOL0     H47059   2.736   6.811   4.188  0.0497 -1.2469 -0.1987
  357MOL0     H47060   2.629   6.798   4.009 -1.2871 -0.0768 -0.8453
  357MOL0     H47061   2.462   6.714   3.807  0.4780 -0.5932  2.3896
  357MOL0     H47062   2.394   6.867   3.872  1.0165  0.5177 -0.0657
  357MOL0     H47063   2.288   6.829   3.692  2.4641 -3.4653  0.2419
  357MOL0     H47064   2.182   6.816   3.838 -0.7763  1.2229 -1.0967
  357MOL0     H47065   2.085   6.639   3.702 -0.6444 -0.9077  0.0624
  357MOL0     H47066   2.202   6.561   3.819  2.4755  0.7982  0.5420
  357MOL0     H47067   2.245   6.647   3.517  0.8495  0.3903 -0.8898
  357MOL0     H47068   2.359   6.595   3.637 -0.5912  3.0138  2.4965
  357MOL0     H47069   2.238   6.356   3.620 -0.1499 -1.5258 -2.2475
  357MOL0     H47070   2.251   6.415   3.463 -1.1429 -0.4960 -0.7312
  357MOL0     H47071   2.005   6.465   3.629  0.2543  1.0649 -0.6253
  357MOL0     H47072   2.012   6.329   3.520 -3.4716  1.5203 -2.8056
  357MOL0     H47073   2.045   6.630   3.436  1.3025 -0.6679 -1.4388
  357MOL0     H47074   2.077   6.503   3.329  3.5098  4.5795  0.8056
  357MOL0     H47075   1.826   6.613   3.399 -1.7918 -1.5922  1.4095
  357MOL0     H47076   1.822   6.446   3.458  1.2397 -0.2572  1.5681
  357MOL0     H47077   1.962   6.299   3.226  0.6371 -0.4747 -1.4549
  357MOL0     H47078   1.841   6.187   2.960  1.0010 -0.6568 -1.6978
  357MOL0     H47079   2.001   6.254   2.965  0.0995 -0.5043 -4.8395
  357MOL0     H47080   1.961   6.371   2.761 -1.1317  1.9230  0.5696
  357MOL0     H47081   1.787   6.395   2.810  0.5460  1.2317 -0.6970
  357MOL0     H47082   1.736   6.152   2.786  0.8742 -2.3957 -0.3229
  357MOL0     H47083   1.747   6.258   2.648 -4.0838  0.2379  2.7514
  357MOL0     H47084   1.860   6.024   2.647 -0.4817  0.4871 -1.7920
  357MOL0     H47085   1.969   6.089   2.769  1.1590  0.6810 -0.7593
  357MOL0     H47086   2.122   6.346   2.457  0.8674 -0.9430 -0.7800
  357MOL0     H47087   2.048   6.464   2.237 -0.1039 -0.2147 -1.8493
  357MOL0     H47088   1.605   6.601   2.020  0.9535  2.2804  0.7561
  357MOL0     H47089   1.505   6.675   1.820 -0.3489  0.2937  1.6104
  357MOL0     H47090   1.677   6.540   1.454 -0.2398 -0.8551 -1.5864
  357MOL0     H47091   1.762   6.695   1.451 -0.5910  1.8365  0.1844
  357MOL0     H47092   1.597   6.804   1.334 -3.5923  0.5983  1.3900
  357MOL0     H47093   1.471   6.701   1.383  0.5595  0.2663  1.7871
  357MOL0     H47094   1.562   6.517   1.219  1.9661 -0.9661  1.2167
  357MOL0     H47095   1.677   6.638   1.165  1.4575 -0.8258  2.1239
  357MOL0     H47096   1.374   6.660   1.161 -0.4748  0.3601  1.4309
  357MOL0     H47097   1.474   6.790   1.103 -3.6114 -0.5628  2.5393
  357MOL0     H47098   1.374   6.625   0.934 -1.7064  4.3595  2.1808
  357MOL0     H47099   1.509   6.519   0.988  3.7336  0.6644 -4.5106
  357MOL0     H47100   1.665   6.710   0.912 -2.0802  2.1044  1.2016
  357MOL0     H47101   1.531   6.778   0.829 -1.4957 -1.3874 -2.6725
  357MOL0     H47102   1.648   6.495   0.800 -0.1774  0.4760 -0.0104
  357MOL0     H47103   1.522   6.551   0.698 -0.9892 -3.4294  1.6389
  357MOL0     H47104   1.801   6.650   0.720 -0.9715  1.8328  1.6765
  357MOL0     H47105   1.680   6.740   0.621  0.8137 -0.1705 -2.8025
  357MOL0     H47106   1.881   6.635   1.608  0.4530 -2.1792 -0.4391
  357MOL0     H47107   1.980   6.562   1.821  0.7210  3.8168 -2.8811
  357MOL0     H47108   1.689   6.214   2.252  0.7847 -1.1701  0.2832
  357MOL0     H47109   1.776   6.103   2.441  0.5035 -1.3700 -1.3707
  357MOL0     H47110   2.277   6.629   4.214 -1.1637  2.9365  0.6474
  357MOL0     H47111   2.414   6.623   4.418  2.7161 -2.4253 -0.6090
  357MOL0     H47112   2.758   6.847   4.640  0.0362 -0.8575 -1.7062
  357MOL0     H47113   2.847   6.832   4.876 -1.4643  1.2479 -1.8827
  357MOL0     H47114   3.041   6.485   5.035 -0.1852 -1.5676  0.3461
  357MOL0     H47115   2.867   6.465   5.062  1.7800 -0.8908 -1.4888
  357MOL0     H47116   3.062   6.668   5.216  1.2002 -1.7717 -1.0011
  357MOL0     H47117   2.884   6.643   5.234 -0.7498 -1.7275 -0.0422
  357MOL0     H47118   3.116   6.433   5.280 -0.1375 -1.1726  0.4442
  357MOL0     H47119   2.947   6.408   5.326  1.6053 -1.0935 -1.1062
  357MOL0     H47120   3.094   6.494   5.534 -0.3852 -0.8188  0.8129
  357MOL0     H47121   3.125   6.634   5.424 -2.2721  0.3798 -3.8369
  357MOL0     H47122   2.769   6.756   5.598 -0.4333  0.1192 -0.5718
  357MOL0     H47123   2.923   6.424   4.830 -1.9066  0.0932  0.9466
  357MOL0     H47124   2.833   6.421   4.612 -4.0256  1.1405 -1.6046
  358MOL0     O47125   4.578   6.768   2.685  0.1323  0.4139 -0.8717
  358MOL0     C47126   4.593   6.756   2.565 -1.7875 -0.3499 -0.6610
  358MOL0     O47127   4.523   6.810   2.467  0.6142  0.2132 -0.4081
  358MOL0     C47128   4.438   6.912   2.498  0.0793 -0.3960  0.5067
  358MOL0     C47129   4.303   6.889   2.534  0.3709  0.0129  0.8159
  358MOL0     C47130   4.208   6.991   2.541 -0.2539 -1.1315 -0.6384
  358MOL0     C47131   4.249   7.127   2.512 -0.7036 -0.3606 -0.6999
  358MOL0     O47132   4.155   7.217   2.540 -0.3454  0.5531  0.0274
  358MOL0     C47133   4.175   7.355   2.569 -0.6452  0.1067  0.8060
  358MOL0     C47134   4.081   7.404   2.673  0.3795 -0.1810  0.1495
  358MOL0     C47135   3.945   7.460   2.615 -1.0620  0.2707  0.3676
  358MOL0     C47136   3.851   7.347   2.575  0.8808 -0.3302 -0.2364
  358MOL0     C47137   3.713   7.386   2.633  0.0685 -0.0793 -0.0835
  358MOL0     C47138   3.599   7.281   2.618 -0.1954 -0.0966  0.0907
  358MOL0     C47139   3.465   7.326   2.662  0.3817  0.3965  0.1853
  358MOL0     C47140   3.367   7.203   2.665 -0.0996 -0.0426  0.5384
  358MOL0     N47141   3.327   7.174   2.803  0.4954 -0.3895  0.4872
  358MOL0     C47142   3.266   7.262   2.896  0.9205 -0.1411  0.6301
  358MOL0     C47143   3.195   7.179   2.978 -0.2812 -0.9383 -0.5583
  358MOL0     C47144   3.119   7.232   3.096  1.1594 -0.3419  0.2702
  358MOL0     C47145   2.997   7.296   3.045  0.3460 -0.2496  0.1028
  358MOL0     C47146   2.866   7.205   3.029 -0.2460 -0.0139 -0.7589
  358MOL0     C47147   2.822   7.148   3.163 -0.3900 -0.3909 -0.1317
  358MOL0     O47148   2.791   7.259   3.252 -0.0487 -0.1736 -0.3750
  358MOL0     C47149   2.883   7.289   3.350 -0.1555 -0.2106 -0.6514
  358MOL0     C47150   2.886   7.428   3.380 -1.0171  0.1063 -0.1839
  358MOL0     C47151   2.982   7.491   3.475  0.6678  0.3066  0.3755
  358MOL0     C47152   3.078   7.393   3.529 -0.0653 -0.4556  0.8844
  358MOL0     C47153   3.170   7.435   3.634  0.2461  0.0083 -0.1737
  358MOL0     O47154   3.277   7.364   3.645  0.0444  0.0132  0.6082
  358MOL0     C47155   3.318   7.360   3.776  0.7410  1.0970 -0.5156
  358MOL0     C47156   3.320   7.232   3.837  0.0765  0.3706  0.4514
  358MOL0     C47157   3.378   7.212   3.960 -0.8552  0.3354  0.0815
  358MOL0     C47158   3.452   7.306   4.023  0.0743 -0.0272  0.6080
  358MOL0     O47159   3.507   7.286   4.144 -0.0585  0.0880  0.6042
  358MOL0     C47160   3.651   7.262   4.137  1.1166 -0.7893 -0.5090
  358MOL0     C47161   3.683   7.130   4.212 -0.0748 -1.4141  0.2019
  358MOL0     C47162   3.683   7.137   4.361 -0.0207  0.0783 -0.3135
  358MOL0     C47163   3.545   7.100   4.415  0.1184 -0.7429  0.2110
  358MOL0     C47164   3.529   7.101   4.565  0.0120 -0.0346 -0.7366
  358MOL0     C47165   3.613   7.012   4.645  0.0077  1.2378 -0.2002
  358MOL0     C47166   3.568   7.027   4.789  0.1618  0.2617  0.2664
  358MOL0     C47167   3.645   6.928   4.875  0.1086 -0.1210 -0.2089
  358MOL0    Cl47168   3.556   6.769   4.899 -0.1355  0.0715 -0.1431
  358MOL0     C47169   3.454   7.433   3.966 -0.0952  0.2249  0.2167
  358MOL0     C47170   3.384   7.464   3.837 -0.8819  0.0849 -1.1868
  358MOL0     O47171   3.133   7.539   3.702  0.1563  0.6661  0.1827
  358MOL0     C47172   3.075   7.256   3.489 -0.4228 -0.3278 -0.1472
  358MOL0     C47173   2.975   7.201   3.409 -0.3396 -0.6338 -0.5835
  358MOL0     N47174   3.231   7.051   2.960 -0.4283  0.1724  0.1631
  358MOL0     N47175   3.308   7.053   2.856  0.2587 -0.2577 -0.0388
  358MOL0     C47176   4.379   7.150   2.462 -0.3058  0.0187  0.1428
  358MOL0     C47177   4.469   7.045   2.459 -0.4061  0.2379 -0.5529
  358MOL0     C47178   4.705   6.667   2.541 -0.4186 -0.3397  1.1464
  358MOL0     C47179   4.685   6.568   2.439 -0.6528  0.4473  0.3615
  358MOL0     C47180   4.777   6.468   2.404 -0.7642  0.2768 -0.5253
  358MOL0     C47181   4.893   6.454   2.471  0.2502  0.0831 -0.9290
  358MOL0     O47182   4.955   6.339   2.435  0.0811 -0.2478 -0.2290
  358MOL0     C47183   5.067   6.304   2.513 -0.4982 -0.1006 -0.7299
  358MOL0     C47184   5.189   6.362   2.446 -0.8861 -0.8411  0.6111
  358MOL0     C47185   5.315   6.325   2.516 -0.6362  0.3747 -0.2423
  358MOL0     C47186   5.332   6.187   2.575 -0.8770  0.8415 -0.6363
  358MOL0     C47187   5.474   6.167   2.616  0.2462  0.0135  0.7158
  358MOL0     C47188   5.585   6.136   2.642 -0.4311 -1.0395 -0.6669
  358MOL0     C47189   4.925   6.552   2.568 -1.2929  1.0521  0.2469
  358MOL0     C47190   4.827   6.650   2.606 -0.2548 -0.3384 -0.2918
  358MOL0     H47191   4.262   6.789   2.534 -2.2598  0.9535  3.2755
  358MOL0     H47192   4.113   6.969   2.589 -0.7097  0.9431 -0.5202
  358MOL0     H47193   4.156   7.405   2.474  1.8740  2.5107  1.4346
  358MOL0     H47194   4.278   7.369   2.603 -0.3363  0.3161 -0.1952
  358MOL0     H47195   4.134   7.483   2.726 -0.0681  2.3665 -2.9262
  358MOL0     H47196   4.051   7.318   2.735  0.4099  0.9162  1.7507
  358MOL0     H47197   3.967   7.505   2.518  1.0043 -1.5025 -0.0572
  358MOL0     H47198   3.894   7.540   2.670 -2.6838  1.8620 -3.1198
  358MOL0     H47199   3.845   7.352   2.466  2.9557  2.0803 -0.3277
  358MOL0     H47200   3.881   7.251   2.617  1.7629  0.4686  1.0162
  358MOL0     H47201   3.692   7.484   2.589  0.1225  0.0567  0.1891
  358MOL0     H47202   3.733   7.402   2.739 -0.1127 -1.1069  0.1130
  358MOL0     H47203   3.627   7.186   2.665  2.6735  0.1556 -0.8656
  358MOL0     H47204   3.574   7.262   2.513 -0.8390 -0.5976  0.3300
  358MOL0     H47205   3.465   7.380   2.757  0.4088 -0.4942  0.7098
  358MOL0     H47206   3.439   7.392   2.579 -1.6726  1.6076  1.6928
  358MOL0     H47207   3.415   7.114   2.623  0.0658  1.1904 -2.0514
  358MOL0     H47208   3.280   7.231   2.605 -1.4014  1.8633  3.1177
  358MOL0     H47209   3.287   7.369   2.894 -0.3312  0.2496  3.5362
  358MOL0     H47210   3.176   7.307   3.152 -1.6165  1.9348  0.2540
  358MOL0     H47211   3.098   7.151   3.167 -1.8728 -0.6773 -0.8657
  358MOL0     H47212   3.007   7.356   2.954  0.3811 -0.9506 -0.3652
  358MOL0     H47213   2.977   7.375   3.118  3.2868  2.9935 -2.2183
  358MOL0     H47214   2.785   7.254   2.973 -3.3062 -0.1462  3.1242
  358MOL0     H47215   2.888   7.110   2.980 -1.1182 -2.6369  3.4596
  358MOL0     H47216   2.901   7.082   3.198 -2.9850 -2.8694  1.5463
  358MOL0     H47217   2.742   7.075   3.148  0.0006 -1.0103  0.8041
  358MOL0     H47218   2.823   7.504   3.335  0.2014  1.2977  0.0414
  358MOL0     H47219   2.988   7.597   3.496 -2.2094  0.7608 -0.6799
  358MOL0     H47220   3.258   7.153   3.796 -1.4987  0.6351  2.1481
  358MOL0     H47221   3.366   7.111   3.998  0.3525 -0.2428 -0.9964
  358MOL0     H47222   3.700   7.341   4.193  1.5849 -1.2315 -0.2880
  358MOL0     H47223   3.680   7.249   4.033  2.7692 -1.9451  0.0587
  358MOL0     H47224   3.779   7.086   4.182  0.2893 -0.7062  0.2964
  358MOL0     H47225   3.608   7.059   4.176  1.2478 -2.2182 -1.0744
  358MOL0     H47226   3.723   7.235   4.387  1.6951  0.3495 -3.4755
  358MOL0     H47227   3.754   7.065   4.403  1.3803  1.0190 -1.0101
  358MOL0     H47228   3.482   7.175   4.367  1.1081  0.3598  0.5783
  358MOL0     H47229   3.514   7.000   4.383 -1.8836  0.2965 -1.2695
  358MOL0     H47230   3.425   7.072   4.582  0.3320 -1.0176 -0.4199
  358MOL0     H47231   3.534   7.206   4.595 -1.2809 -0.2888  0.4532
  358MOL0     H47232   3.720   7.035   4.635 -0.2907  2.2454 -1.2574
  358MOL0     H47233   3.590   6.907   4.624 -3.9735  1.9117  0.0903
  358MOL0     H47234   3.611   7.123   4.817 -1.5969  1.1031  0.2493
  358MOL0     H47235   3.459   7.031   4.803  0.4256 -0.8358  3.6324
  358MOL0     H47236   3.668   6.977   4.971 -0.1188  0.0539 -0.2427
  358MOL0     H47237   3.737   6.910   4.818  0.2079 -2.6756  0.6322
  358MOL0     H47238   3.514   7.510   4.012  0.5835 -1.8515  3.0905
  358MOL0     H47239   3.375   7.563   3.795  0.9593  0.9976  0.4326
  358MOL0     H47240   3.153   7.188   3.520  0.2542  1.6192  2.7570
  358MOL0     H47241   2.972   7.093   3.401  2.0776 -0.9012  1.2689
  358MOL0     H47242   4.426   7.247   2.450  3.5700 -1.8144 -1.2104
  358MOL0     H47243   4.573   7.061   2.431  0.4777  0.2522  2.4767
  358MOL0     H47244   4.604   6.592   2.370 -0.1736 -1.5158 -0.9431
  358MOL0     H47245   4.743   6.407   2.322 -0.0561 -0.5728 -0.2070
  358MOL0     H47246   5.076   6.196   2.529 -0.8207  0.4036  4.6983
  358MOL0     H47247   5.059   6.344   2.614 -0.3253 -0.3874 -0.6018
  358MOL0     H47248   5.210   6.343   2.340  0.5022  0.2664  0.6540
  358MOL0     H47249   5.181   6.470   2.458 -3.6047 -0.8929 -0.0953
  358MOL0     H47250   5.328   6.395   2.599 -0.9776  0.4606 -0.2605
  358MOL0     H47251   5.399   6.352   2.451  0.9241  3.1533  2.6609
  358MOL0     H47252   5.275   6.194   2.668  0.3315  0.5857  0.1438
  358MOL0     H47253   5.292   6.111   2.507 -0.5344 -3.1736  3.2420
  358MOL0     H47254   5.691   6.122   2.652 -0.6156 -0.9917  2.0637
  358MOL0     H47255   5.019   6.546   2.622 -0.7601  1.4979 -0.6080
  358MOL0     H47256   4.838   6.722   2.686 -0.9041 -0.5074 -0.0377
  359MOL0     O47257   9.154   7.218   6.231 -0.6380 -0.1605  0.2578
  359MOL0     C47258   9.065   7.177   6.308  0.0219 -0.7201  0.0954
  359MOL0     O47259   9.049   7.203   6.442  0.2646 -0.0062  0.2130
  359MOL0     C47260   9.166   7.230   6.524  0.3300  0.4404  0.3757
  359MOL0     C47261   9.167   7.308   6.645  0.5273  0.6649 -0.2763
  359MOL0     C47262   9.283   7.326   6.724  0.3573 -0.6703  0.7440
  359MOL0     C47263   9.406   7.276   6.682  0.9013  0.4613 -0.8511
  359MOL0     O47264   9.515   7.295   6.770 -0.4680 -0.0927  0.6246
  359MOL0     C47265   9.649   7.296   6.716 -0.4436  1.1137  0.0283
  359MOL0     C47266   9.739   7.352   6.826 -0.2339  0.3883  0.2272
  359MOL0     C47267   9.744   7.241   6.941  0.9606 -0.6472 -0.7121
  359MOL0     C47268   9.838   7.295   7.047 -0.3077 -0.5364  0.2822
  359MOL0     C47269   9.863   7.179   7.149  0.6851  1.0317  0.0649
  359MOL0     C47270   9.741   7.153   7.240 -0.4211  0.8528 -0.3566
  359MOL0     C47271   9.740   7.003   7.300 -0.0040  0.2018 -0.0037
  359MOL0     C47272   9.857   6.964   7.396  0.8940  0.7746  0.4896
  359MOL0     N47273   9.874   6.812   7.400  0.3314  0.6500  0.2537
  359MOL0     C47274   9.774   6.715   7.401  0.3373 -0.5158 -0.0634
  359MOL0     C47275   9.847   6.590   7.378 -0.6793 -0.1844 -0.0649
  359MOL0     C47276   9.808   6.458   7.330  0.2141  0.3678 -0.7259
  359MOL0     C47277   9.834   6.453   7.178 -1.1771  0.4510 -0.1330
  359MOL0     C47278   9.753   6.550   7.094  0.4368  0.0664  0.0498
  359MOL0     C47279   9.738   6.512   6.944  1.1003  0.0191 -0.2698
  359MOL0     O47280   9.683   6.626   6.868 -0.1135  0.5355 -0.4818
  359MOL0     C47281   9.663   6.628   6.737  0.2326  0.0340  1.8527
  359MOL0     C47282   9.674   6.521   6.649  0.0357  0.1264  0.2892
  359MOL0     C47283   9.628   6.529   6.516  0.5795  0.5125  0.5616
  359MOL0     C47284   9.586   6.660   6.468  0.2651  0.1667 -0.3605
  359MOL0     C47285   9.546   6.672   6.322  0.4245 -0.2755  0.3683
  359MOL0     O47286   9.509   6.795   6.288 -0.2063  0.5221  0.1473
  359MOL0     C47287   9.464   6.819   6.162  0.1528  0.4590  0.8555
  359MOL0     C47288   9.362   6.915   6.139  0.4808 -0.0631  0.5106
  359MOL0     C47289   9.334   6.963   6.009 -0.6973 -0.6858  0.4296
  359MOL0     C47290   9.395   6.909   5.897  0.2113  0.6465 -0.7334
  359MOL0     O47291   9.389   6.958   5.770 -0.4955 -0.2828 -0.3911
  359MOL0     C47292   9.301   7.068   5.753  0.4963  0.0029  0.1505
  359MOL0     C47293   9.309   7.104   5.599 -0.1972 -0.3971 -0.3624
  359MOL0     C47294   9.284   7.240   5.565  0.4913  0.1599  0.4069
  359MOL0     C47295   9.270   7.265   5.419  0.6266 -0.6100 -0.9136
  359MOL0     C47296   9.242   7.411   5.390  0.6781 -0.0467  0.0475
  359MOL0     C47297   9.245   7.450   5.245 -0.5028 -0.0861 -0.5559
  359MOL0     C47298   9.392   7.446   5.200  0.0116  0.7712  0.1758
  359MOL0     C47299   9.441   7.575   5.234 -0.8136 -0.7217  0.9867
  359MOL0    Cl47300   9.596   7.591   5.172  0.3722  0.2568  0.0137
  359MOL0     C47301   9.494   6.817   5.917 -0.0503  0.3428 -0.4416
  359MOL0     C47302   9.533   6.774   6.043 -0.5000 -0.6669  0.1323
  359MOL0     O47303   9.537   6.570   6.251  0.1268  0.6440 -0.9117
  359MOL0     C47304   9.590   6.774   6.555  0.6858 -0.2172  0.5527
  359MOL0     C47305   9.627   6.756   6.690 -0.5647 -0.3624  0.0116
  359MOL0     N47306   9.983   6.632   7.381  0.7078  0.1476 -0.8601
  359MOL0     N47307   9.998   6.755   7.403 -0.1440  0.3940  0.7034
  359MOL0     C47308   9.409   7.196   6.571 -0.6405 -0.8050  1.3113
  359MOL0     C47309   9.293   7.174   6.484  1.0051 -0.3087 -0.8898
  359MOL0     C47310   8.955   7.103   6.254  0.4918 -0.6102 -0.8274
  359MOL0     C47311   8.903   7.007   6.340 -0.5404  0.0154  0.0372
  359MOL0     C47312   8.781   6.943   6.312 -0.5423  0.0878 -0.7349
  359MOL0     C47313   8.714   6.968   6.192  0.0171 -0.7359 -1.0769
  359MOL0     O47314   8.624   6.866   6.167  0.9951  1.0944 -0.4705
  359MOL0     C47315   8.557   6.886   6.041  0.6344  0.0353 -0.3089
  359MOL0     C47316   8.486   6.753   6.028 -0.0380 -0.3956 -0.5031
  359MOL0     C47317   8.383   6.768   5.914 -0.6505  0.1690  0.0748
  359MOL0     C47318   8.280   6.658   5.920 -0.6342  1.0013  0.2434
  359MOL0     C47319   8.182   6.678   5.818  0.8308  0.2165  0.3575
  359MOL0     C47320   8.111   6.702   5.725 -0.6914 -0.0790  0.4946
  359MOL0     C47321   8.763   7.062   6.106 -0.0132  0.2808 -0.2745
  359MOL0     C47322   8.887   7.133   6.138 -0.7914 -0.1526  0.3293
  359MOL0     H47323   9.083   7.364   6.684  1.4755  2.0553 -0.1537
  359MOL0     H47324   9.267   7.393   6.807 -2.5224  0.8300 -0.8555
  359MOL0     H47325   9.633   7.363   6.631 -2.0868  1.8411  0.8620
  359MOL0     H47326   9.681   7.195   6.689 -0.0244  0.8852  1.3191
  359MOL0     H47327   9.675   7.436   6.853 -0.2868  0.7551 -0.9599
  359MOL0     H47328   9.837   7.385   6.792  0.1410 -1.7770 -0.9975
  359MOL0     H47329   9.772   7.142   6.903 -1.2681 -1.7281  0.2648
  359MOL0     H47330   9.646   7.226   6.987  1.6661 -2.2850  0.3528
  359MOL0     H47331   9.934   7.326   7.006 -0.5342 -1.2467 -0.8375
  359MOL0     H47332   9.791   7.377   7.103  0.6604 -0.0790  0.4504
  359MOL0     H47333   9.949   7.201   7.213  0.6216 -0.8960  0.8866
  359MOL0     H47334   9.895   7.094   7.089 -0.5098  0.8356 -0.3267
  359MOL0     H47335   9.653   7.178   7.180  2.2809  0.2244 -5.1137
  359MOL0     H47336   9.738   7.223   7.324 -1.8980  0.4029 -0.0092
  359MOL0     H47337   9.650   6.975   7.355 -0.1331 -3.3392 -1.7412
  359MOL0     H47338   9.736   6.934   7.215  0.0948 -1.6329  1.4245
  359MOL0     H47339   9.845   7.010   7.494  0.6602  1.2358  0.2455
  359MOL0     H47340   9.952   7.001   7.356 -0.2828  0.1817 -3.2487
  359MOL0     H47341   9.667   6.728   7.392  0.3188  0.7127  1.4433
  359MOL0     H47342   9.702   6.437   7.347  0.4260 -2.1865 -2.0432
  359MOL0     H47343   9.849   6.372   7.384  0.6147 -0.0315 -1.6299
  359MOL0     H47344   9.801   6.353   7.152 -0.8202  0.0413  0.9384
  359MOL0     H47345   9.940   6.456   7.150 -1.1347 -3.9608 -1.1469
  359MOL0     H47346   9.655   6.554   7.143  0.7499 -1.0688  0.7909
  359MOL0     H47347   9.803   6.647   7.101  3.0687 -1.0915 -1.5282
  359MOL0     H47348   9.660   6.437   6.933 -0.2016  1.3388 -0.2680
  359MOL0     H47349   9.831   6.477   6.898 -0.4010 -1.1629 -2.5938
  359MOL0     H47350   9.699   6.423   6.687  2.3329  0.0848 -1.1286
  359MOL0     H47351   9.606   6.443   6.455 -1.7262  0.7115  1.0252
  359MOL0     H47352   9.317   6.958   6.228  2.6377 -0.2143  1.7521
  359MOL0     H47353   9.264   7.045   5.996  0.4075 -0.2013 -3.5594
  359MOL0     H47354   9.333   7.157   5.808 -1.5291  1.0187 -0.2286
  359MOL0     H47355   9.203   7.039   5.790  1.0006  0.3447  1.8666
  359MOL0     H47356   9.252   7.036   5.535 -1.9740  0.4168  0.3034
  359MOL0     H47357   9.413   7.090   5.567  0.9940  4.0838  0.8486
  359MOL0     H47358   9.369   7.299   5.600  0.4146  1.9651 -2.2285
  359MOL0     H47359   9.195   7.279   5.616 -0.5491  1.7887 -2.4276
  359MOL0     H47360   9.365   7.228   5.378  1.3964 -1.0392  1.0796
  359MOL0     H47361   9.189   7.210   5.370 -0.1407  1.0929 -1.6149
  359MOL0     H47362   9.303   7.475   5.454  1.2061 -1.1313  0.6708
  359MOL0     H47363   9.141   7.443   5.416  1.8297  3.2582  0.9170
  359MOL0     H47364   9.207   7.551   5.229  2.8534  1.3900 -0.0798
  359MOL0     H47365   9.194   7.382   5.177  2.4948 -1.4970 -1.5640
  359MOL0     H47366   9.452   7.374   5.257  0.9448  0.9021 -0.6213
  359MOL0     H47367   9.403   7.424   5.093  2.8377 -0.6697  0.6751
  359MOL0     H47368   9.426   7.610   5.337 -0.5556  0.8095  0.5372
  359MOL0     H47369   9.394   7.656   5.177  0.6946 -0.8443 -0.5321
  359MOL0     H47370   9.544   6.772   5.833  2.4696  0.1649  1.0511
  359MOL0     H47371   9.614   6.702   6.048 -1.0843 -1.3210  0.3252
  359MOL0     H47372   9.565   6.874   6.521 -2.7456 -0.8378  0.9547
  359MOL0     H47373   9.634   6.837   6.761 -2.0812  1.1632 -1.4952
  359MOL0     H47374   9.502   7.149   6.540 -0.7409 -0.6617  0.7836
  359MOL0     H47375   9.295   7.115   6.393 -3.6670 -2.6430  0.1743
  359MOL0     H47376   8.956   6.977   6.430  0.1922 -0.1702 -0.4571
  359MOL0     H47377   8.740   6.856   6.363  0.0070 -0.6990 -1.6033
  359MOL0     H47378   8.620   6.908   5.954  0.2819 -1.9975 -1.1456
  359MOL0     H47379   8.485   6.968   6.051 -0.2420 -0.5435 -1.6582
  359MOL0     H47380   8.558   6.671   6.024  1.4145  0.7133  1.5113
  359MOL0     H47381   8.434   6.734   6.122  0.5180 -2.3188 -0.5407
  359MOL0     H47382   8.445   6.766   5.824 -1.0716  4.0413 -0.5056
  359MOL0     H47383   8.336   6.866   5.931  2.8495  1.6587  2.4569
  359MOL0     H47384   8.322   6.559   5.901 -4.4605 -0.9875  1.0158
  359MOL0     H47385   8.219   6.654   6.011  1.2760  1.4432  1.6097
  359MOL0     H47386   8.059   6.719   5.633  2.3229  0.2373 -1.2717
  359MOL0     H47387   8.719   7.097   6.013  0.5539  1.5243 -0.0985
  359MOL0     H47388   8.925   7.204   6.065  1.7521 -3.4651 -1.8986
  360MOL0     O47389   1.319   7.693   3.011 -0.1978  0.4972 -0.0625
  360MOL0     C47390   1.351   7.575   3.025 -0.2948 -0.4605  0.2940
  360MOL0     O47391   1.312   7.474   2.944  0.3371  0.5227 -0.7087
  360MOL0     C47392   1.227   7.493   2.851 -0.7297 -0.0961 -0.1160
  360MOL0     C47393   1.098   7.442   2.866  0.4595 -0.3753  0.1343
  360MOL0     C47394   1.005   7.468   2.764 -0.2699  0.4488 -0.0568
  360MOL0     C47395   1.037   7.540   2.649 -1.0637 -0.4480  0.1916
  360MOL0     O47396   0.936   7.568   2.559 -0.7126  0.5930 -0.3274
  360MOL0     C47397   0.957   7.610   2.422  0.0867 -0.5355  0.1955
  360MOL0     C47398   0.817   7.620   2.359 -0.9598 -0.2615 -0.0276
  360MOL0     C47399   0.820   7.708   2.230  0.1189  0.2628 -0.4685
  360MOL0     C47400   0.676   7.727   2.171  0.2758  0.8230 -0.4755
  360MOL0     C47401   0.566   7.770   2.277 -0.2483  0.1837 -0.5502
  360MOL0     C47402   0.459   7.826   2.185 -0.3507 -0.8817  1.2292
  360MOL0     C47403   0.342   7.863   2.275  0.7224 -0.3230  0.9961
  360MOL0     C47404   0.230   7.891   2.181  0.5455  0.0119  1.0664
  360MOL0     N47405   0.115   7.944   2.253  0.7537 -0.3608  0.0577
  360MOL0     C47406   0.022   8.049   2.220  0.0440  0.9727 -0.2824
  360MOL0     C47407  -0.062   8.044   2.327 -0.4798 -0.5852  0.6820
  360MOL0     C47408  -0.175   8.145   2.318 -1.2534 -0.7191 -0.1207
  360MOL0     C47409  -0.305   8.094   2.270 -0.1612 -0.2516 -0.2502
  360MOL0     C47410  -0.306   8.000   2.156  1.1316  0.3762  0.6325
  360MOL0     C47411  -0.459   7.960   2.131 -0.6743  0.2513 -0.2894
  360MOL0     O47412  -0.521   7.904   2.250 -0.5461 -0.2953  0.1167
  360MOL0     C47413  -0.647   7.906   2.295  0.4022  0.6777 -0.0506
  360MOL0     C47414  -0.671   7.846   2.414 -0.0686  0.3927 -0.3795
  360MOL0     C47415  -0.800   7.856   2.479  0.2886  0.0706 -0.3016
  360MOL0     C47416  -0.906   7.934   2.431 -0.4743 -0.1825 -0.1383
  360MOL0     C47417  -1.032   7.960   2.516  0.4267  0.9417  0.5097
  360MOL0     O47418  -1.053   7.880   2.625 -0.4550  0.6624  0.6486
  360MOL0     C47419  -1.185   7.872   2.661  0.9656  0.2310  0.0355
  360MOL0     C47420  -1.269   7.769   2.621 -0.5515  0.3573  1.1829
  360MOL0     C47421  -1.396   7.748   2.683 -0.0661 -0.9556 -0.0610
  360MOL0     C47422  -1.449   7.847   2.768 -0.3656  0.4957 -0.5973
  360MOL0     O47423  -1.582   7.829   2.812  0.4511  0.2987  0.1029
  360MOL0     C47424  -1.648   7.941   2.879  0.2349  0.4577  0.1022
  360MOL0     C47425  -1.778   7.887   2.929  0.2438 -0.0177  0.2526
  360MOL0     C47426  -1.879   7.852   2.816 -0.1357  0.5006  0.2616
  360MOL0     C47427  -2.012   7.815   2.877 -0.0812 -0.9153  0.1153
  360MOL0     C47428  -2.121   7.761   2.784 -1.0686 -0.1458 -0.0512
  360MOL0     C47429  -2.066   7.634   2.706  0.9871 -0.0929  0.4429
  360MOL0     C47430  -2.169   7.556   2.618 -0.9969 -1.8731 -0.2426
  360MOL0     C47431  -2.114   7.433   2.557 -0.2811  0.1871  0.0165
  360MOL0    Cl47432  -1.965   7.472   2.470 -0.0529 -0.0558 -0.0738
  360MOL0     C47433  -1.367   7.957   2.801  0.6247  0.8393 -0.6442
  360MOL0     C47434  -1.239   7.971   2.736  0.5172  0.2443 -0.5085
  360MOL0     O47435  -1.112   8.036   2.474 -0.6610 -0.4466  0.5678
  360MOL0     C47436  -0.881   7.996   2.309  0.1168  0.3536 -0.6660
  360MOL0     C47437  -0.755   7.985   2.250  0.3084  0.3377  0.3647
  360MOL0     N47438  -0.038   7.947   2.413  0.5339  0.5974 -0.0329
  360MOL0     N47439   0.066   7.882   2.369  0.1666 -0.3516 -0.2390
  360MOL0     C47440   1.163   7.609   2.645 -0.2212  0.1514  0.5177
  360MOL0     C47441   1.258   7.583   2.749  0.5861  0.2280 -0.5711
  360MOL0     C47442   1.464   7.535   3.111  1.2138  0.3047  0.0452
  360MOL0     C47443   1.508   7.613   3.210 -0.2214  0.0998  0.7111
  360MOL0     C47444   1.614   7.583   3.298  0.0228  0.0212  0.2345
  360MOL0     C47445   1.671   7.458   3.291  0.7159 -0.1523 -0.3502
  360MOL0     O47446   1.782   7.422   3.364 -0.5642 -0.1233 -0.5660
  360MOL0     C47447   1.779   7.472   3.501  0.0253  0.4586 -0.4933
  360MOL0     C47448   1.883   7.413   3.588 -0.4767 -0.0354 -0.3327
  360MOL0     C47449   1.851   7.449   3.737 -0.4015  0.3391 -0.0261
  360MOL0     C47450   1.988   7.435   3.813  0.7697  0.8225  0.1036
  360MOL0     C47451   1.973   7.447   3.951  0.2986  0.5006 -1.3116
  360MOL0     C47452   1.969   7.479   4.070 -0.5680 -0.7789 -0.1708
  360MOL0     C47453   1.633   7.374   3.185 -0.8643 -0.6889  0.0227
  360MOL0     C47454   1.532   7.413   3.087 -0.6489  0.5924 -0.4380
  360MOL0     H47455   1.052   7.391   2.950 -1.3837 -1.0056 -1.1804
  360MOL0     H47456   0.905   7.428   2.768 -0.8980  1.7963 -1.4983
  360MOL0     H47457   1.014   7.529   2.376  0.4173  0.4480 -1.1756
  360MOL0     H47458   1.010   7.705   2.419  1.1575 -1.1330 -0.1176
  360MOL0     H47459   0.745   7.669   2.427 -0.5454  1.4331 -0.7596
  360MOL0     H47460   0.776   7.520   2.345  1.6754 -1.1681 -1.9378
  360MOL0     H47461   0.888   7.674   2.151  1.5407  1.3908  0.2213
  360MOL0     H47462   0.865   7.805   2.251  1.0296 -0.2578  0.0423
  360MOL0     H47463   0.681   7.805   2.094  2.5552  0.3133 -0.9301
  360MOL0     H47464   0.647   7.642   2.109 -0.5444  1.3635 -0.8422
  360MOL0     H47465   0.604   7.850   2.341  0.9961 -2.2610  1.9915
  360MOL0     H47466   0.535   7.689   2.343  4.0568 -1.3478 -0.1153
  360MOL0     H47467   0.442   7.740   2.119  3.7957 -0.2186 -1.0149
  360MOL0     H47468   0.501   7.905   2.123  0.1749  0.2112  2.9133
  360MOL0     H47469   0.316   7.783   2.344 -1.2295  0.3836  1.1406
  360MOL0     H47470   0.360   7.952   2.335 -2.6186  0.5793  0.8645
  360MOL0     H47471   0.198   7.796   2.136  0.3940 -1.1432  3.4251
  360MOL0     H47472   0.263   7.962   2.106 -1.2556 -0.5261 -0.3082
  360MOL0     H47473   0.024   8.111   2.131  1.8934 -2.4774 -2.8845
  360MOL0     H47474  -0.139   8.232   2.263  0.3678 -1.3121 -0.0574
  360MOL0     H47475  -0.179   8.174   2.424  2.8702 -1.7084  0.4683
  360MOL0     H47476  -0.363   8.185   2.254  1.6136  0.4755 -3.6899
  360MOL0     H47477  -0.359   8.041   2.348 -0.1842 -1.0932 -0.8277
  360MOL0     H47478  -0.259   8.041   2.067 -0.5421 -1.0536 -0.9988
  360MOL0     H47479  -0.268   7.901   2.184 -2.7018 -0.7919  2.4724
  360MOL0     H47480  -0.481   7.897   2.044  0.3632 -1.0813  0.3762
  360MOL0     H47481  -0.514   8.050   2.102  0.1076  0.7149 -0.3695
  360MOL0     H47482  -0.598   7.786   2.467 -2.3651 -2.8104 -0.5090
  360MOL0     H47483  -0.800   7.804   2.574  2.0732  0.9113  0.2057
  360MOL0     H47484  -1.221   7.697   2.554  0.6817  0.9064  1.4414
  360MOL0     H47485  -1.460   7.665   2.655 -0.5493 -0.6957  0.2523
  360MOL0     H47486  -1.669   8.010   2.797 -1.6187  1.0206  0.9894
  360MOL0     H47487  -1.601   7.987   2.967 -2.8346  1.0349  1.5684
  360MOL0     H47488  -1.820   7.969   2.988 -0.7388  1.0497 -1.8394
  360MOL0     H47489  -1.763   7.799   2.992  2.4668  0.8349  1.0195
  360MOL0     H47490  -1.831   7.767   2.767 -0.1977  1.5932 -1.8025
  360MOL0     H47491  -1.889   7.938   2.749 -0.8765  0.5445  0.4271
  360MOL0     H47492  -2.000   7.735   2.951  1.0426 -0.8608  0.0093
  360MOL0     H47493  -2.052   7.905   2.924  0.8329 -1.0623  1.2310
  360MOL0     H47494  -2.141   7.838   2.709  0.4664  0.3491  0.0039
  360MOL0     H47495  -2.207   7.729   2.842  0.9391 -4.3003  0.9841
  360MOL0     H47496  -2.036   7.569   2.789  2.2880  0.3101  0.3134
  360MOL0     H47497  -1.976   7.661   2.650  1.1990  2.0349  1.7250
  360MOL0     H47498  -2.259   7.526   2.673 -1.9161 -0.5773 -0.9675
  360MOL0     H47499  -2.200   7.625   2.539  1.9023  0.3560  0.4225
  360MOL0     H47500  -2.184   7.387   2.487  0.6316  2.2954 -2.4516
  360MOL0     H47501  -2.105   7.360   2.638 -1.0701  0.6037  0.4962
  360MOL0     H47502  -1.416   8.016   2.877 -1.6295  1.2401 -2.2878
  360MOL0     H47503  -1.164   8.040   2.773  0.8064 -0.4699  0.2696
  360MOL0     H47504  -0.951   8.071   2.275 -0.0278  0.7151  0.3860
  360MOL0     H47505  -0.722   8.039   2.162 -0.2964  0.0238 -0.0588
  360MOL0     H47506   1.187   7.681   2.567  0.1936 -0.6869 -0.1520
  360MOL0     H47507   1.353   7.635   2.745 -0.4752  2.5004  1.1155
  360MOL0     H47508   1.447   7.699   3.234  2.1511  2.2256 -0.4369
  360MOL0     H47509   1.639   7.659   3.371 -1.8269  0.5477  0.3720
  360MOL0     H47510   1.678   7.457   3.538  0.6883  0.9839  1.6838
  360MOL0     H47511   1.793   7.581   3.501  2.9321  0.1722  0.6824
  360MOL0     H47512   1.883   7.304   3.574 -3.7503 -0.0356 -1.2764
  360MOL0     H47513   1.976   7.461   3.559 -2.3599  2.1105 -3.5099
  360MOL0     H47514   1.765   7.385   3.761 -0.7530 -1.2682 -4.5297
  360MOL0     H47515   1.811   7.549   3.755 -0.7929 -0.0635  1.4978
  360MOL0     H47516   2.035   7.338   3.794 -1.4732 -0.3269  0.0938
  360MOL0     H47517   2.050   7.516   3.773 -0.0672  0.7646 -1.4199
  360MOL0     H47518   1.976   7.513   4.172  0.5429  0.6800 -0.6904
  360MOL0     H47519   1.685   7.279   3.191  1.3301  0.5194  2.7272
  360MOL0     H47520   1.497   7.344   3.011  1.1138 -3.2799  1.9321
  361MOL0     O47521   1.764   0.424   0.747 -0.3994  0.6835 -0.5259
  361MOL0     C47522   1.836   0.509   0.688 -0.0964 -0.1159  0.9590
  361MOL0     O47523   1.791   0.623   0.631 -0.3890  0.0723  0.1203
  361MOL0     C47524   1.658   0.645   0.643 -0.1442  0.2239 -0.3699
  361MOL0     C47525   1.564   0.614   0.550 -0.2301 -0.2565  0.3177
  361MOL0     C47526   1.427   0.649   0.574 -0.0208 -0.3963  0.1529
  361MOL0     C47527   1.394   0.732   0.684 -0.3679  0.9581  1.0668
  361MOL0     O47528   1.270   0.787   0.704 -0.0418 -0.2588  0.7201
  361MOL0     C47529   1.166   0.774   0.609 -0.2368  0.6379 -0.1766
  361MOL0     C47530   1.049   0.878   0.635 -0.3831  0.3460 -0.2456
  361MOL0     C47531   0.962   0.897   0.511  0.3404 -0.5303  0.9502
  361MOL0     C47532   0.836   0.980   0.544 -0.4176  0.0234 -0.5274
  361MOL0     C47533   0.738   0.988   0.423  0.1828 -0.6750 -0.0022
  361MOL0     C47534   0.630   0.880   0.437  0.0985  0.5895 -0.2802
  361MOL0     C47535   0.525   0.880   0.328  0.7239 -0.6729  0.6167
  361MOL0     C47536   0.426   1.002   0.328 -1.5448  0.0606  0.2320
  361MOL0     N47537   0.312   0.994   0.240  1.1062  0.3712 -0.3138
  361MOL0     C47538   0.250   0.889   0.182 -0.0677 -1.1658  0.2353
  361MOL0     C47539   0.142   0.943   0.127  0.4045 -0.0552  0.1970
  361MOL0     C47540   0.036   0.870   0.038  0.0872 -0.1358 -0.7160
  361MOL0     C47541   0.006   0.739   0.106  0.0264  0.7825 -0.4885
  361MOL0     C47542  -0.121   0.660   0.037  0.0892 -0.0837  0.1041
  361MOL0     C47543  -0.260   0.719   0.050  0.6366  0.4738 -0.0167
  361MOL0     O47544  -0.284   0.750   0.191  0.8995 -0.3974 -0.0024
  361MOL0     C47545  -0.395   0.829   0.210 -0.2050 -0.4154 -0.1527
  361MOL0     C47546  -0.382   0.930   0.304  0.1295  0.8899 -1.4885
  361MOL0     C47547  -0.492   1.005   0.341  0.2586  0.1903  0.0873
  361MOL0     C47548  -0.621   0.979   0.292  0.0441  0.7366 -0.5922
  361MOL0     C47549  -0.741   1.046   0.336  1.0833 -0.2925 -0.4988
  361MOL0     O47550  -0.733   1.143   0.436 -0.7502  0.2357  0.1695
  361MOL0     C47551  -0.839   1.221   0.485  0.5205 -0.6746 -1.1440
  361MOL0     C47552  -0.979   1.209   0.454 -0.8239 -1.0813 -0.2083
  361MOL0     C47553  -1.070   1.297   0.507  0.5055  0.0863 -0.5070
  361MOL0     C47554  -1.033   1.383   0.612  0.3878 -0.3723  0.8657
  361MOL0     O47555  -1.130   1.467   0.668  0.6566 -0.3153  0.8184
  361MOL0     C47556  -1.087   1.611   0.681 -0.1174 -0.2847 -0.4187
  361MOL0     C47557  -1.160   1.695   0.574 -0.1643 -0.3024 -0.7214
  361MOL0     C47558  -1.101   1.830   0.553 -0.4832 -0.3910  0.2045
  361MOL0     C47559  -1.171   1.892   0.431 -0.0073  0.7389  0.6736
  361MOL0     C47560  -1.106   2.013   0.366 -1.2765  0.0674 -0.7941
  361MOL0     C47561  -1.129   2.140   0.448 -0.0895  0.7278 -0.1515
  361MOL0     C47562  -1.115   2.260   0.352 -0.8588  0.4493  1.1604
  361MOL0     C47563  -1.139   2.393   0.412 -0.3265 -1.2568 -0.1637
  361MOL0    Cl47564  -1.043   2.508   0.308 -0.3666  0.1711  0.0952
  361MOL0     C47565  -0.903   1.375   0.660 -0.7649  0.0709  0.2223
  361MOL0     C47566  -0.815   1.297   0.600 -0.3114 -0.3350 -0.1957
  361MOL0     O47567  -0.849   1.016   0.279 -0.3600  0.5297 -0.3662
  361MOL0     C47568  -0.631   0.883   0.190  0.0765  0.4361  0.0139
  361MOL0     C47569  -0.521   0.802   0.155 -0.0065  0.0743 -0.1667
  361MOL0     N47570   0.142   1.074   0.140  0.2241  0.4825 -0.2995
  361MOL0     N47571   0.242   1.109   0.205 -0.0755  0.3918  0.2420
  361MOL0     C47572   1.496   0.764   0.772 -0.8014 -0.2849 -1.3859
  361MOL0     C47573   1.625   0.726   0.751  0.6618  0.2994 -0.2117
  361MOL0     C47574   1.973   0.468   0.655  0.3377 -0.4940  0.2901
  361MOL0     C47575   2.010   0.341   0.672 -0.9614  0.0391 -0.0346
  361MOL0     C47576   2.140   0.294   0.646 -1.1981  0.1586 -0.0418
  361MOL0     C47577   2.245   0.381   0.608 -0.3117  0.2186  0.0423
  361MOL0     O47578   2.379   0.344   0.601  0.4394  0.1493 -0.0549
  361MOL0     C47579   2.441   0.301   0.728 -0.6200 -0.1014  0.2868
  361MOL0     C47580   2.491   0.424   0.800  0.5005  0.0508  0.6977
  361MOL0     C47581   2.604   0.493   0.719 -0.2657  0.2815 -0.0446
  361MOL0     C47582   2.625   0.636   0.772 -0.4936 -0.3980  0.0581
  361MOL0     C47583   2.533   0.730   0.710  0.4717 -0.1145 -0.1967
  361MOL0     C47584   2.445   0.811   0.674 -0.6100  0.6455 -0.1568
  361MOL0     C47585   2.207   0.517   0.571  0.0067  0.4746 -0.9275
  361MOL0     C47586   2.071   0.559   0.606  0.8690 -0.4263 -0.1122
  361MOL0     H47587   1.590   0.560   0.460 -2.1445  2.5883 -2.1418
  361MOL0     H47588   1.352   0.636   0.497  1.3321 -2.9424 -0.8481
  361MOL0     H47589   1.120   0.676   0.595 -0.7551  0.8062  0.3155
  361MOL0     H47590   1.212   0.794   0.512  0.0840  0.0607 -0.1462
  361MOL0     H47591   1.094   0.973   0.667  0.8870  0.6289 -2.6480
  361MOL0     H47592   0.989   0.844   0.720  1.0866 -1.7441  0.0087
  361MOL0     H47593   0.921   0.800   0.480 -0.3997 -0.8985  2.8801
  361MOL0     H47594   1.015   0.935   0.424 -4.0171  3.2418 -0.4405
  361MOL0     H47595   0.784   0.940   0.632  0.2195  0.9127  0.2737
  361MOL0     H47596   0.861   1.084   0.567 -0.7267 -0.0825  0.3273
  361MOL0     H47597   0.806   0.975   0.338 -0.0507  0.3251 -0.3620
  361MOL0     H47598   0.696   1.089   0.414  1.6319  0.2477  2.3880
  361MOL0     H47599   0.585   0.894   0.535  2.5591  0.1491  0.9915
  361MOL0     H47600   0.672   0.782   0.460  2.2473  1.4705 -0.2528
  361MOL0     H47601   0.580   0.875   0.233  1.8331 -1.1508  1.2673
  361MOL0     H47602   0.461   0.791   0.332 -3.3968  2.0549  1.1744
  361MOL0     H47603   0.490   1.087   0.303  1.0103 -1.4291  1.2823
  361MOL0     H47604   0.390   1.010   0.431 -2.6378 -4.1202  0.3615
  361MOL0     H47605   0.289   0.788   0.179 -0.5148 -1.3233 -0.3445
  361MOL0     H47606   0.070   0.856  -0.065  0.1261 -0.7373 -0.6230
  361MOL0     H47607  -0.055   0.929   0.026 -0.1331 -0.2396  0.3365
  361MOL0     H47608  -0.023   0.775   0.205 -0.9073  0.4190 -0.6205
  361MOL0     H47609   0.088   0.666   0.109 -0.2476  0.3726 -2.2374
  361MOL0     H47610  -0.095   0.654  -0.069 -0.5055 -1.3859  0.0209
  361MOL0     H47611  -0.121   0.562   0.084  3.5577  0.1176  0.8583
  361MOL0     H47612  -0.331   0.644   0.014 -1.0325  2.6454 -1.5467
  361MOL0     H47613  -0.272   0.809  -0.011 -2.1770 -0.6578 -1.2905
  361MOL0     H47614  -0.300   0.936   0.375 -0.5514 -0.5587 -0.5514
  361MOL0     H47615  -0.470   1.081   0.415  2.7371  3.1163 -3.2733
  361MOL0     H47616  -1.024   1.153   0.374 -2.4335 -0.9700  0.5770
  361MOL0     H47617  -1.175   1.306   0.481  0.1678  0.2576  0.8352
  361MOL0     H47618  -0.979   1.617   0.672 -0.0423 -1.3660 -0.4613
  361MOL0     H47619  -1.101   1.641   0.786  1.2744 -0.9057 -0.0305
  361MOL0     H47620  -1.260   1.708   0.617  1.4042  0.5368  3.1739
  361MOL0     H47621  -1.166   1.641   0.480 -2.9655 -3.0446  0.8381
  361MOL0     H47622  -0.993   1.822   0.537 -0.1924  2.5531  0.0748
  361MOL0     H47623  -1.119   1.889   0.644 -1.3151 -1.6491  0.8891
  361MOL0     H47624  -1.164   1.823   0.347  1.3410 -0.4794  1.7162
  361MOL0     H47625  -1.275   1.916   0.456  0.3142  1.6104  1.2193
  361MOL0     H47626  -1.146   2.025   0.265 -0.3577  1.3215 -1.0325
  361MOL0     H47627  -1.000   1.991   0.350 -0.7789 -0.5567  2.6334
  361MOL0     H47628  -1.063   2.149   0.535  1.3426 -1.6238 -0.9013
  361MOL0     H47629  -1.229   2.145   0.492 -0.7031  0.9167 -1.5363
  361MOL0     H47630  -1.014   2.254   0.309 -1.0850 -5.0073  0.6634
  361MOL0     H47631  -1.185   2.257   0.269 -0.2097 -1.6569  0.6312
  361MOL0     H47632  -1.087   2.377   0.506 -2.7347 -0.5718  1.3761
  361MOL0     H47633  -1.242   2.427   0.426  0.7758  1.8722  1.0701
  361MOL0     H47634  -0.869   1.438   0.741  0.5131 -0.7103  0.3307
  361MOL0     H47635  -0.716   1.288   0.644 -0.9840  1.2214  1.7598
  361MOL0     H47636  -0.725   0.874   0.136 -0.7937 -0.9410  1.6621
  361MOL0     H47637  -0.540   0.731   0.075 -0.1611  0.4089 -0.4340
  361MOL0     H47638   1.471   0.836   0.850  3.5425 -0.2721  0.2897
  361MOL0     H47639   1.692   0.758   0.831 -0.2907  5.1142 -1.0420
  361MOL0     H47640   1.949   0.258   0.706 -0.4120 -0.4046 -0.0942
  361MOL0     H47641   2.162   0.190   0.667  2.4995  0.2210 -2.5552
  361MOL0     H47642   2.519   0.227   0.707 -1.7323 -1.5072  0.9710
  361MOL0     H47643   2.365   0.251   0.789  0.0507 -0.5754  0.7519
  361MOL0     H47644   2.410   0.495   0.818 -1.0522 -1.1392 -1.1709
  361MOL0     H47645   2.536   0.398   0.897 -0.4463  2.2790  1.8069
  361MOL0     H47646   2.586   0.497   0.611 -2.6871  0.1345  0.3113
  361MOL0     H47647   2.692   0.434   0.745 -1.4495 -1.8643 -0.6881
  361MOL0     H47648   2.620   0.648   0.880 -1.5100  0.5097 -0.0814
  361MOL0     H47649   2.724   0.664   0.736 -1.6164 -1.9655 -5.3113
  361MOL0     H47650   2.365   0.867   0.629  0.3241  1.2960 -1.0841
  361MOL0     H47651   2.290   0.577   0.536  0.5638 -1.7551 -3.8265
  361MOL0     H47652   2.043   0.663   0.597  0.9175 -0.4094 -0.0704
  362MOL0     O47653   5.403   5.990   7.866  0.6460  0.3983  0.5765
  362MOL0     C47654   5.352   6.037   7.970 -0.4717  0.1651  0.3527
  362MOL0     O47655   5.231   6.097   7.978  0.1431 -0.0752  0.1984
  362MOL0     C47656   5.159   6.115   7.861 -0.5987  0.0813  0.7998
  362MOL0     C47657   5.173   6.240   7.803 -0.3294 -0.8818 -0.2525
  362MOL0     C47658   5.101   6.269   7.687  0.3272  0.0419  0.1344
  362MOL0     C47659   5.018   6.174   7.618 -1.2506 -0.0966 -0.4881
  362MOL0     O47660   4.952   6.210   7.499 -0.3608 -0.4363 -0.0715
  362MOL0     C47661   4.911   6.097   7.423  1.4027 -0.1678  0.5557
  362MOL0     C47662   4.865   6.143   7.283  0.6305  0.7932 -0.6252
  362MOL0     C47663   4.958   6.226   7.199 -0.5401 -0.4814  0.1784
  362MOL0     C47664   5.102   6.169   7.194 -0.3087 -1.1595 -0.2026
  362MOL0     C47665   5.197   6.264   7.115  0.2594  0.5110  0.7685
  362MOL0     C47666   5.339   6.218   7.134 -0.1487  0.3727 -0.0166
  362MOL0     C47667   5.444   6.284   7.044 -0.1852 -0.0216 -0.1960
  362MOL0     C47668   5.515   6.393   7.121  0.1422  0.2459 -0.5194
  362MOL0     N47669   5.441   6.530   7.144  0.0255  0.2436  0.8273
  362MOL0     C47670   5.427   6.634   7.054  0.0430 -0.4097  0.9041
  362MOL0     C47671   5.357   6.738   7.117 -0.6011 -0.5260  0.1563
  362MOL0     C47672   5.320   6.865   7.052 -0.4744 -0.5273 -0.6618
  362MOL0     C47673   5.168   6.889   7.077 -0.4500  0.4176 -0.0418
  362MOL0     C47674   5.137   7.038   7.105 -0.4168 -0.0514 -0.1859
  362MOL0     C47675   4.991   7.076   7.133 -0.0666  0.0222 -0.6175
  362MOL0     O47676   4.905   7.010   7.047  0.4260 -0.7163  0.4048
  362MOL0     C47677   4.862   7.071   6.939  0.4387  0.2740 -0.3792
  362MOL0     C47678   4.933   7.153   6.850 -0.3272  0.2360  0.7261
  362MOL0     C47679   4.868   7.222   6.743  0.2456  0.2525 -0.3991
  362MOL0     C47680   4.724   7.213   6.728 -0.1762  1.3851  0.7436
  362MOL0     C47681   4.664   7.286   6.629  0.0613 -0.9445 -0.4961
  362MOL0     O47682   4.547   7.350   6.657 -0.1951 -0.0194 -0.0485
  362MOL0     C47683   4.489   7.433   6.560 -0.6003 -0.8757 -0.3243
  362MOL0     C47684   4.470   7.395   6.429  0.5111 -0.5604 -0.0239
  362MOL0     C47685   4.424   7.482   6.332  0.2196  0.1741  0.4922
  362MOL0     C47686   4.401   7.616   6.364  0.0578  1.0884  0.0033
  362MOL0     O47687   4.376   7.695   6.260  0.6017 -0.6828  0.0122
  362MOL0     C47688   4.245   7.677   6.221  0.4849  0.6143  0.4322
  362MOL0     C47689   4.224   7.785   6.125  0.1119  0.8990  0.3262
  362MOL0     C47690   4.241   7.923   6.184  0.3296  0.4924  0.1194
  362MOL0     C47691   4.195   8.037   6.093  0.4926 -0.6598 -0.3085
  362MOL0     C47692   4.206   8.168   6.173 -0.7831 -0.1215 -0.1167
  362MOL0     C47693   4.113   8.282   6.116  0.3000  0.1490 -0.5898
  362MOL0     C47694   4.136   8.404   6.203 -0.0368  0.0996 -0.1407
  362MOL0     C47695   4.063   8.525   6.176 -1.4085  0.3914  0.4809
  362MOL0    Cl47696   4.080   8.634   6.321  0.3516  0.2380  0.0253
  362MOL0     C47697   4.406   7.649   6.497  1.5178  0.0376  0.0895
  362MOL0     C47698   4.442   7.561   6.597 -0.1713 -0.5080  0.5496
  362MOL0     O47699   4.722   7.295   6.521  0.1196 -0.7622 -0.0735
  362MOL0     C47700   4.651   7.133   6.820  0.0460 -0.7740  1.1289
  362MOL0     C47701   4.720   7.068   6.925 -0.0422 -0.0081  1.1100
  362MOL0     N47702   5.326   6.689   7.237 -1.0436  0.7576 -0.3344
  362MOL0     N47703   5.383   6.568   7.254 -0.1481  0.3711 -0.4885
  362MOL0     C47704   5.023   6.037   7.676  0.1424 -1.0316 -0.2229
  362MOL0     C47705   5.082   6.017   7.801 -0.3924 -0.2101  0.1366
  362MOL0     C47706   5.434   6.010   8.097 -0.9393 -0.0518 -0.3337
  362MOL0     C47707   5.385   6.043   8.220 -0.8044 -0.3661 -0.2197
  362MOL0     C47708   5.464   6.027   8.343  0.1898 -0.1849  0.0862
  362MOL0     C47709   5.581   5.943   8.344 -0.4420 -0.8216  0.5309
  362MOL0     O47710   5.630   5.905   8.474  0.2987  0.3178 -0.2830
  362MOL0     C47711   5.765   5.869   8.487  0.4861 -0.6012 -0.2156
  362MOL0     C47712   5.804   5.821   8.620  0.0409  0.2263 -0.3518
  362MOL0     C47713   5.913   5.719   8.610  0.6909  0.7370 -0.5449
  362MOL0     C47714   5.983   5.685   8.748 -0.1242  0.0293  0.5757
  362MOL0     C47715   6.110   5.612   8.724 -0.0829 -0.1189 -0.6009
  362MOL0     C47716   6.217   5.561   8.721 -0.4336  0.3336  0.4270
  362MOL0     C47717   5.622   5.890   8.218  1.0352  0.6790 -0.6398
  362MOL0     C47718   5.554   5.931   8.103 -0.4953 -0.3741 -0.6180
  362MOL0     H47719   5.220   6.315   7.866  0.8318 -2.6556  1.0751
  362MOL0     H47720   5.099   6.370   7.646  0.2129  1.4027  3.2488
  362MOL0     H47721   4.822   6.063   7.477 -0.3328  0.5218 -1.6666
  362MOL0     H47722   4.983   6.015   7.416  0.4046 -1.6119  4.6845
  362MOL0     H47723   4.772   6.195   7.306 -0.1744  0.1086 -2.1879
  362MOL0     H47724   4.838   6.056   7.223 -0.9240  1.2769 -0.6713
  362MOL0     H47725   4.970   6.325   7.243  1.2629  0.9220 -3.1049
  362MOL0     H47726   4.899   6.243   7.109 -3.7953  0.5141  2.3260
  362MOL0     H47727   5.151   6.152   7.290 -0.9152 -0.4531  0.2428
  362MOL0     H47728   5.106   6.073   7.141  0.0349 -1.7479  0.8642
  362MOL0     H47729   5.190   6.367   7.152  2.3743  0.9660  0.0479
  362MOL0     H47730   5.167   6.268   7.010  3.0544  2.6216 -0.0683
  362MOL0     H47731   5.341   6.111   7.111  1.8614  0.3802 -0.0181
  362MOL0     H47732   5.375   6.220   7.237  1.1337 -1.2287 -0.3895
  362MOL0     H47733   5.515   6.206   7.018 -0.8678 -1.3205  1.6373
  362MOL0     H47734   5.412   6.332   6.951  2.9526 -1.6012 -2.2626
  362MOL0     H47735   5.616   6.406   7.080  1.8769 -2.2549  2.5390
  362MOL0     H47736   5.544   6.353   7.218 -3.0866 -0.6153  0.1917
  362MOL0     H47737   5.466   6.644   6.953 -0.6983 -3.6394  0.2002
  362MOL0     H47738   5.339   6.861   6.944 -0.0213 -1.0069 -0.5654
  362MOL0     H47739   5.379   6.953   7.079 -1.7026  0.5086 -1.1717
  362MOL0     H47740   5.134   6.827   7.160  0.6496 -1.1082 -0.6897
  362MOL0     H47741   5.107   6.846   6.998 -0.7545  1.7260 -0.5484
  362MOL0     H47742   5.214   7.074   7.173 -1.8134  1.0890  0.8449
  362MOL0     H47743   5.164   7.082   7.009 -0.5674  1.1419  0.3108
  362MOL0     H47744   4.969   7.183   7.131 -0.0289  0.1041  1.5347
  362MOL0     H47745   4.969   7.048   7.236 -5.2582  1.7959 -0.9601
  362MOL0     H47746   5.042   7.155   6.853 -0.2745 -1.3205  1.0962
  362MOL0     H47747   4.930   7.285   6.681  1.9033 -0.1491  0.7588
  362MOL0     H47748   4.504   7.295   6.403  2.7575 -0.4683  2.1320
  362MOL0     H47749   4.403   7.439   6.235 -0.2716  1.1628  0.1500
  362MOL0     H47750   4.176   7.685   6.305 -0.9292 -2.4040 -0.2901
  362MOL0     H47751   4.224   7.585   6.165  1.0702  0.3663  0.6180
  362MOL0     H47752   4.123   7.778   6.082  0.1785 -1.7001  0.4289
  362MOL0     H47753   4.296   7.779   6.042 -1.1593  0.3459 -0.7807
  362MOL0     H47754   4.346   7.941   6.208  0.7743 -2.8675  1.3096
  362MOL0     H47755   4.179   7.931   6.274 -0.7409 -2.0912 -0.3028
  362MOL0     H47756   4.247   8.039   5.996  1.5537 -0.0462  0.2584
  362MOL0     H47757   4.089   8.033   6.065 -0.0665  4.1400  0.3828
  362MOL0     H47758   4.312   8.188   6.153 -0.3384 -2.7742 -0.8475
  362MOL0     H47759   4.178   8.149   6.277 -0.2997 -0.4313 -0.0408
  362MOL0     H47760   4.017   8.232   6.130  0.1411  0.2748 -1.2106
  362MOL0     H47761   4.140   8.298   6.011  2.0952  0.5207 -0.1091
  362MOL0     H47762   4.101   8.377   6.303  0.8595 -2.6807 -0.4755
  362MOL0     H47763   4.242   8.431   6.208 -0.3036  1.0791  0.5944
  362MOL0     H47764   3.956   8.507   6.159 -1.5482  0.1170  1.5969
  362MOL0     H47765   4.102   8.570   6.084  0.1441  2.7452  2.1768
  362MOL0     H47766   4.371   7.745   6.536 -0.6542 -0.0471 -1.4916
  362MOL0     H47767   4.455   7.598   6.698 -1.8170 -0.5887  0.8132
  362MOL0     H47768   4.546   7.142   6.793  0.7355  2.4027 -1.1311
  362MOL0     H47769   4.673   7.008   7.003 -0.4785  0.1860  0.9999
  362MOL0     H47770   4.991   5.944   7.631  1.3857 -1.6483  0.1156
  362MOL0     H47771   5.085   5.917   7.843  3.1565  0.1419  0.9686
  362MOL0     H47772   5.286   6.088   8.219  0.2964  2.2963 -2.2311
  362MOL0     H47773   5.422   6.054   8.440  0.4772 -0.6157  0.3349
  362MOL0     H47774   5.832   5.949   8.454  0.6459 -0.6909 -0.1125
  362MOL0     H47775   5.774   5.789   8.412  0.3730  0.3159 -1.2257
  362MOL0     H47776   5.832   5.907   8.681 -0.8318  0.0105  0.3849
  362MOL0     H47777   5.720   5.774   8.673 -0.4067  2.3857  0.9628
  362MOL0     H47778   5.996   5.757   8.550  3.7814 -3.5305  0.4981
  362MOL0     H47779   5.873   5.627   8.566 -2.0172  0.8261  1.4808
  362MOL0     H47780   5.990   5.780   8.802  3.9007  1.6121 -2.2598
  362MOL0     H47781   5.908   5.623   8.798 -1.4913 -0.0232 -1.4302
  362MOL0     H47782   6.303   5.499   8.708  1.1863  1.2132  4.9148
  362MOL0     H47783   5.700   5.813   8.214 -1.0185 -1.5574 -0.0109
  362MOL0     H47784   5.576   5.875   8.013 -0.4102 -0.3432 -0.6157
  363MOL0     O47785  10.208   6.773   1.635  0.1368 -0.2475  0.2919
  363MOL0     C47786  10.171   6.789   1.513 -0.5137 -0.5699  0.2188
  363MOL0     O47787  10.212   6.889   1.431 -0.7579 -0.3882  1.0799
  363MOL0     C47788  10.262   7.001   1.487  0.0573 -0.1092  0.5651
  363MOL0     C47789  10.216   7.126   1.431  0.7014  0.0482  0.0732
  363MOL0     C47790  10.272   7.243   1.479  0.5513  0.1469 -0.8239
  363MOL0     C47791  10.383   7.251   1.560  0.0485  0.0017 -0.6144
  363MOL0     O47792  10.439   7.376   1.582  0.0282 -0.9808 -0.8308
  363MOL0     C47793  10.499   7.394   1.714  0.6262  0.9659  0.2496
  363MOL0     C47794  10.515   7.547   1.755  0.0828  0.5880  0.5732
  363MOL0     C47795  10.618   7.558   1.861  0.7246  0.1806  0.0741
  363MOL0     C47796  10.614   7.697   1.931 -0.1168  0.3857  0.1372
  363MOL0     C47797  10.538   7.708   2.052 -0.6394 -0.1997 -0.2667
  363MOL0     C47798  10.398   7.634   2.056  0.3772  0.4562 -1.0814
  363MOL0     C47799  10.326   7.638   2.188  0.8556 -0.2068  0.0210
  363MOL0     C47800  10.251   7.771   2.201 -0.8110  0.1444 -0.5821
  363MOL0     N47801  10.122   7.756   2.138  0.2906  0.6548 -0.4644
  363MOL0     C47802  10.007   7.705   2.201  0.0343 -0.4797  0.2088
  363MOL0     C47803   9.909   7.708   2.106 -0.6585  0.1811  0.2595
  363MOL0     C47804   9.769   7.658   2.107  0.0347 -0.2963 -0.8368
  363MOL0     C47805   9.653   7.751   2.045 -1.2632 -0.6552  0.2958
  363MOL0     C47806   9.677   7.787   1.897  0.0848 -0.2105  0.0111
  363MOL0     C47807   9.563   7.873   1.844  1.1396  0.5580 -0.2820
  363MOL0     O47808   9.432   7.811   1.843 -0.8843  0.4885  0.3202
  363MOL0     C47809   9.321   7.871   1.796 -0.4802  0.2568  0.7004
  363MOL0     C47810   9.200   7.797   1.785  0.4732  0.3795 -0.5870
  363MOL0     C47811   9.085   7.838   1.712  0.0465 -0.1242  0.9230
  363MOL0     C47812   9.088   7.960   1.651  0.7009 -0.3829  0.8962
  363MOL0     C47813   8.973   8.011   1.563  0.2647  0.3370 -0.2451
  363MOL0     O47814   8.845   7.950   1.579  0.5869  0.2136 -0.5229
  363MOL0     C47815   8.740   8.007   1.511 -0.8970 -0.4247 -0.2829
  363MOL0     C47816   8.696   7.967   1.387  0.2560 -0.5299  0.2738
  363MOL0     C47817   8.595   8.036   1.323 -0.2573  0.1467 -0.9088
  363MOL0     C47818   8.543   8.161   1.376 -0.0302 -0.4321  0.4891
  363MOL0     O47819   8.433   8.222   1.317 -0.2031  0.6221 -0.2457
  363MOL0     C47820   8.450   8.257   1.178  0.4392 -0.0606  0.4539
  363MOL0     C47821   8.317   8.292   1.104 -0.1473  0.4785  1.0369
  363MOL0     C47822   8.238   8.392   1.188  0.4832  0.4993  0.1968
  363MOL0     C47823   8.106   8.419   1.118 -0.1769 -0.4328  0.2981
  363MOL0     C47824   8.009   8.297   1.135  0.3569 -0.0075  0.4707
  363MOL0     C47825   7.865   8.335   1.106  0.1593 -0.6050 -0.2880
  363MOL0     C47826   7.772   8.217   1.139 -0.4592 -1.1257 -0.7576
  363MOL0     C47827   7.633   8.257   1.173  0.1605  0.7639 -0.1281
  363MOL0    Cl47828   7.645   8.346   1.325  0.3821 -0.5639 -0.0459
  363MOL0     C47829   8.582   8.197   1.501  0.5139 -0.6293 -0.0198
  363MOL0     C47830   8.684   8.120   1.564  0.2693  0.4845 -0.3015
  363MOL0     O47831   9.001   8.111   1.493  0.4443  0.4566 -0.2972
  363MOL0     C47832   9.205   8.046   1.669  0.5259 -0.0261 -1.1638
  363MOL0     C47833   9.317   8.001   1.746 -0.1445 -0.1977 -0.6766
  363MOL0     N47834   9.967   7.766   1.991  0.9444  0.8864 -0.5021
  363MOL0     N47835  10.092   7.783   2.008  0.0555  0.1786 -0.2350
  363MOL0     C47836  10.442   7.131   1.598  0.4472 -0.5390 -1.3033
  363MOL0     C47837  10.385   7.010   1.559 -0.1559 -0.0662  0.2365
  363MOL0     C47838  10.089   6.690   1.451  0.8416 -0.2948 -0.5043
  363MOL0     C47839  10.005   6.607   1.527 -0.5174 -0.1886 -0.4770
  363MOL0     C47840   9.926   6.514   1.461 -0.8013  0.2454  0.9673
  363MOL0     C47841   9.926   6.505   1.318 -0.0549 -0.5213 -0.1431
  363MOL0     O47842   9.845   6.423   1.252  0.5120  0.4570  0.2822
  363MOL0     C47843   9.737   6.478   1.186 -0.0463  0.8483  0.1250
  363MOL0     C47844   9.611   6.466   1.273 -0.7562  0.2208  0.1280
  363MOL0     C47845   9.561   6.327   1.317 -0.1726 -0.3541 -0.7112
  363MOL0     C47846   9.460   6.357   1.425 -0.2896  0.7591 -0.5655
  363MOL0     C47847   9.403   6.234   1.469  0.0060 -0.1927 -0.9887
  363MOL0     C47848   9.356   6.126   1.509  0.2223 -0.1912  0.2940
  363MOL0     C47849  10.002   6.593   1.252  0.0950 -0.3807 -0.0621
  363MOL0     C47850  10.089   6.687   1.314 -0.8431  0.5736  0.4698
  363MOL0     H47851  10.138   7.134   1.355  0.1716 -3.5687  0.0476
  363MOL0     H47852  10.220   7.333   1.446 -0.0131  0.6091  1.1709
  363MOL0     H47853  10.594   7.339   1.725  0.7645  0.8785 -1.2280
  363MOL0     H47854  10.432   7.362   1.794  1.4190  3.4288  2.0357
  363MOL0     H47855  10.420   7.577   1.800 -0.1744 -0.2692  0.6014
  363MOL0     H47856  10.552   7.614   1.676  0.4972  0.1011  0.3482
  363MOL0     H47857  10.709   7.549   1.802 -1.8450 -3.5507 -4.0310
  363MOL0     H47858  10.616   7.482   1.939 -1.4522  0.9533  0.8635
  363MOL0     H47859  10.718   7.727   1.943  0.7528 -1.3371 -2.3257
  363MOL0     H47860  10.581   7.773   1.860 -2.1122 -0.9696 -0.4630
  363MOL0     H47861  10.542   7.808   2.096 -4.3641 -1.2303  2.9933
  363MOL0     H47862  10.600   7.654   2.124 -0.4935 -0.7524 -0.7987
  363MOL0     H47863  10.421   7.528   2.042  2.2041  0.4950  1.0658
  363MOL0     H47864  10.338   7.670   1.972  1.4906  0.9986 -1.6666
  363MOL0     H47865  10.242   7.567   2.199  0.5186  0.3032  0.8852
  363MOL0     H47866  10.394   7.624   2.272 -1.1108 -0.8258  1.6183
  363MOL0     H47867  10.319   7.849   2.167  0.4991 -0.0689  1.3918
  363MOL0     H47868  10.245   7.782   2.309  4.6642  0.1308  0.0006
  363MOL0     H47869  10.012   7.658   2.299  1.2323  1.8560  1.3377
  363MOL0     H47870   9.743   7.639   2.212  0.1797  0.5291 -0.6469
  363MOL0     H47871   9.779   7.564   2.052 -0.1693 -1.1909  0.6143
  363MOL0     H47872   9.666   7.847   2.095  2.6489  0.2825 -2.0658
  363MOL0     H47873   9.553   7.708   2.052 -1.1757 -1.8739 -3.4810
  363MOL0     H47874   9.759   7.859   1.905 -1.5659  1.7135  0.3729
  363MOL0     H47875   9.697   7.692   1.848 -0.1710 -0.0179 -0.4729
  363MOL0     H47876   9.587   7.907   1.743 -2.6802  0.3748 -1.4188
  363MOL0     H47877   9.549   7.952   1.919  0.9840  0.0577  0.2236
  363MOL0     H47878   9.184   7.698   1.825 -2.2013  0.7211 -0.6179
  363MOL0     H47879   9.011   7.763   1.687  1.4112 -1.6211  1.2080
  363MOL0     H47880   8.730   7.876   1.339 -0.0641 -1.7169  2.1910
  363MOL0     H47881   8.554   7.994   1.231 -0.2227  2.2697 -1.9591
  363MOL0     H47882   8.487   8.175   1.116  1.8171  2.0112 -1.6177
  363MOL0     H47883   8.523   8.337   1.163 -1.1214  2.1388  3.4594
  363MOL0     H47884   8.261   8.200   1.084 -1.0045  1.3648 -0.9583
  363MOL0     H47885   8.342   8.338   1.008  2.0486  3.0575  2.7024
  363MOL0     H47886   8.300   8.482   1.189  1.9304 -0.4419 -1.0676
  363MOL0     H47887   8.214   8.346   1.285  1.5736 -0.5628 -0.0162
  363MOL0     H47888   8.064   8.512   1.156 -0.8962  0.6515 -2.8674
  363MOL0     H47889   8.125   8.441   1.012 -2.1456 -1.5552 -0.3559
  363MOL0     H47890   8.018   8.261   1.238 -0.0642  1.2951  0.9771
  363MOL0     H47891   8.025   8.213   1.067 -1.1323 -1.2389  1.5632
  363MOL0     H47892   7.863   8.361   1.000  1.0078 -0.4378 -0.2712
  363MOL0     H47893   7.836   8.418   1.170  3.8879  1.4664 -0.9912
  363MOL0     H47894   7.777   8.154   1.049 -1.0467 -1.7151 -0.3825
  363MOL0     H47895   7.813   8.155   1.219 -4.0631 -1.6851  0.8454
  363MOL0     H47896   7.591   8.158   1.194  3.0455 -0.6241 -0.4201
  363MOL0     H47897   7.583   8.310   1.091 -1.4386 -0.3822  0.0550
  363MOL0     H47898   8.521   8.271   1.552  1.0421 -1.1283  1.3872
  363MOL0     H47899   8.714   8.143   1.666  0.2077 -0.3055 -0.1032
  363MOL0     H47900   9.224   8.147   1.633  2.5915 -0.5449 -1.6623
  363MOL0     H47901   9.411   8.056   1.745 -0.4218  0.2808 -0.7372
  363MOL0     H47902  10.529   7.122   1.662  0.2714 -1.7990 -1.2079
  363MOL0     H47903  10.411   6.906   1.573 -2.1389 -0.6244  0.0775
  363MOL0     H47904  10.003   6.599   1.635  1.8677  2.9464 -0.0656
  363MOL0     H47905   9.862   6.445   1.514  1.1039 -2.2224  0.3076
  363MOL0     H47906   9.704   6.424   1.097 -1.6281  2.4335 -0.3124
  363MOL0     H47907   9.754   6.585   1.167  2.8207  0.7893  1.7879
  363MOL0     H47908   9.621   6.538   1.354  0.7867 -1.4458  1.5189
  363MOL0     H47909   9.530   6.496   1.207  0.4720  0.3888 -1.3654
  363MOL0     H47910   9.649   6.277   1.360 -0.1850  0.9848  1.0064
  363MOL0     H47911   9.512   6.271   1.238  0.4952  0.7857 -1.9727
  363MOL0     H47912   9.506   6.421   1.500  2.1790  0.0405 -1.3712
  363MOL0     H47913   9.374   6.413   1.387  0.5712  1.7266 -1.1386
  363MOL0     H47914   9.337   6.025   1.539 -2.2270 -0.9085 -3.0161
  363MOL0     H47915   9.979   6.603   1.146  2.0018 -1.8641 -0.6893
  363MOL0     H47916  10.158   6.731   1.243  0.6555 -4.2735 -1.4293
  364MOL0     O47917   4.926   1.094   8.749 -0.0425 -0.5805 -0.8406
  364MOL0     C47918   4.868   1.015   8.681 -0.6813 -0.0011 -0.8149
  364MOL0     O47919   4.737   1.009   8.668  0.5787  0.6447  0.7755
  364MOL0     C47920   4.651   1.120   8.684  0.0901  0.0400 -0.1919
  364MOL0     C47921   4.656   1.242   8.610  0.0277  0.5658  1.2233
  364MOL0     C47922   4.569   1.339   8.632  0.0846 -0.0083 -0.1278
  364MOL0     C47923   4.491   1.340   8.749  0.3844 -0.3878  0.1877
  364MOL0     O47924   4.405   1.450   8.774  0.3517 -0.3795  0.5354
  364MOL0     C47925   4.311   1.447   8.884 -0.0242  0.6698  0.2773
  364MOL0     C47926   4.216   1.566   8.916 -0.2138 -0.1517 -0.1608
  364MOL0     C47927   4.099   1.533   8.997  0.1967 -0.7801 -0.5341
  364MOL0     C47928   3.998   1.646   9.020  0.9289  0.6295 -0.6481
  364MOL0     C47929   3.876   1.598   9.111  0.1428 -0.2624 -0.1795
  364MOL0     C47930   3.784   1.720   9.127 -0.0682 -0.3528  0.0867
  364MOL0     C47931   3.686   1.700   9.236 -0.5475  0.2927 -0.2748
  364MOL0     C47932   3.579   1.596   9.204 -0.4136 -0.0503 -1.2216
  364MOL0     N47933   3.462   1.651   9.149 -0.1614  0.0921  0.6535
  364MOL0     C47934   3.408   1.613   9.030 -0.1153  0.1862  0.5425
  364MOL0     C47935   3.318   1.711   9.003 -1.0402 -0.4137  0.0340
  364MOL0     C47936   3.255   1.723   8.870  0.2137  0.0092  0.1220
  364MOL0     C47937   3.130   1.651   8.845  0.5230 -0.2140 -0.5135
  364MOL0     C47938   3.079   1.662   8.698 -0.2235  0.3364  0.0485
  364MOL0     C47939   2.936   1.626   8.694  0.3839 -0.4422 -0.5884
  364MOL0     O47940   2.893   1.498   8.752 -0.7709 -0.1388  0.7437
  364MOL0     C47941   2.762   1.481   8.754  0.4160 -0.6336 -0.3097
  364MOL0     C47942   2.663   1.577   8.725  0.3659  0.3609  0.4003
  364MOL0     C47943   2.526   1.535   8.735  0.6051  0.0325  0.4627
  364MOL0     C47944   2.493   1.415   8.792  0.0934 -0.6755  0.6235
  364MOL0     C47945   2.341   1.391   8.811 -0.0725  0.6746  0.6771
  364MOL0     O47946   2.256   1.498   8.808 -0.3491  0.1796 -0.3785
  364MOL0     C47947   2.126   1.482   8.842 -0.0762 -0.9762  0.8570
  364MOL0     C47948   2.088   1.419   8.957 -0.2493 -0.1671 -0.7990
  364MOL0     C47949   1.958   1.424   9.015  0.1034 -0.4468  0.2819
  364MOL0     C47950   1.855   1.490   8.950 -1.0372  0.2826  0.1969
  364MOL0     O47951   1.738   1.517   9.016 -0.6309  0.4275  0.6020
  364MOL0     C47952   1.658   1.630   8.980 -0.3237 -0.2453  0.3725
  364MOL0     C47953   1.702   1.759   9.050 -0.0534 -0.1087  0.3126
  364MOL0     C47954   1.644   1.892   8.995 -0.9968  0.2636  0.2560
  364MOL0     C47955   1.503   1.920   9.052  0.0855 -0.0360  0.0671
  364MOL0     C47956   1.482   2.067   9.099  0.3579  0.6552  0.4532
  364MOL0     C47957   1.551   2.090   9.240 -0.2216 -0.6314 -0.7836
  364MOL0     C47958   1.459   2.038   9.353 -0.4337 -0.0545  0.7332
  364MOL0     C47959   1.533   2.046   9.492 -0.1596 -0.3950  0.1125
  364MOL0    Cl47960   1.671   1.927   9.482 -0.0701  0.6006 -0.5043
  364MOL0     C47961   1.893   1.551   8.823  0.0718 -0.1079 -0.9153
  364MOL0     C47962   2.026   1.558   8.777  0.2110  0.3019 -0.0320
  364MOL0     O47963   2.309   1.276   8.830  0.2478 -0.5340 -0.6232
  364MOL0     C47964   2.584   1.315   8.830 -1.1294 -0.1131  0.4475
  364MOL0     C47965   2.717   1.350   8.802  0.6266  0.3544 -0.0960
  364MOL0     N47966   3.313   1.800   9.106  0.8585 -0.5092 -0.4839
  364MOL0     N47967   3.397   1.763   9.193  0.8756  1.3544 -0.6052
  364MOL0     C47968   4.485   1.225   8.828 -0.4353  0.7195 -0.0209
  364MOL0     C47969   4.557   1.106   8.788 -0.5910 -0.7219 -0.3105
  364MOL0     C47970   4.941   0.906   8.614 -0.4567  0.3242  0.7588
  364MOL0     C47971   5.082   0.900   8.616  0.1578  0.2453  0.8479
  364MOL0     C47972   5.148   0.802   8.541 -0.8135  0.4612  0.6380
  364MOL0     C47973   5.085   0.704   8.461  0.0979 -0.6215  1.4991
  364MOL0     O47974   5.162   0.617   8.386 -0.3342 -0.2293  0.0206
  364MOL0     C47975   5.111   0.516   8.310  0.4134 -0.5619 -0.0334
  364MOL0     C47976   5.228   0.417   8.279  0.0898  0.7163  0.7140
  364MOL0     C47977   5.305   0.397   8.410 -0.4098 -0.0396  0.0029
  364MOL0     C47978   5.414   0.299   8.400  0.1885 -0.4485  0.3757
  364MOL0     C47979   5.471   0.272   8.530 -0.1228 -0.4148 -0.0923
  364MOL0     C47980   5.502   0.239   8.645  0.0405  0.3334  0.5867
  364MOL0     C47981   4.942   0.711   8.462 -1.1150  0.4482  0.4858
  364MOL0     C47982   4.871   0.811   8.535  0.7643 -0.2061 -0.6196
  364MOL0     H47983   4.733   1.254   8.534 -0.2976  5.9625  1.3419
  364MOL0     H47984   4.573   1.431   8.574  0.3218 -0.2699 -0.5315
  364MOL0     H47985   4.355   1.429   8.983 -1.6579  0.6637  1.0532
  364MOL0     H47986   4.250   1.359   8.862  0.1307  1.0024 -1.6155
  364MOL0     H47987   4.182   1.601   8.819 -1.7360 -0.2637  0.3035
  364MOL0     H47988   4.257   1.657   8.961 -1.5211  0.7052 -0.6558
  364MOL0     H47989   4.136   1.513   9.098  0.5794  1.6913 -0.1265
  364MOL0     H47990   4.051   1.441   8.961  1.6421 -1.4067 -0.9134
  364MOL0     H47991   4.049   1.727   9.073  1.3106 -0.1186  0.1693
  364MOL0     H47992   3.949   1.679   8.929 -0.9425  0.0845  0.0969
  364MOL0     H47993   3.909   1.560   9.208 -0.4985  0.7699  0.4641
  364MOL0     H47994   3.832   1.510   9.062  0.1762  0.0202 -0.7215
  364MOL0     H47995   3.746   1.742   9.028  1.2192 -3.9425 -1.3860
  364MOL0     H47996   3.848   1.805   9.152 -2.6462  1.5361  0.6633
  364MOL0     H47997   3.732   1.663   9.329 -1.9991  0.6232  0.5929
  364MOL0     H47998   3.645   1.798   9.262 -0.5589  0.5188 -1.1133
  364MOL0     H47999   3.558   1.540   9.295  1.1041 -0.4323 -1.0773
  364MOL0     H48000   3.619   1.517   9.140  1.3278  1.1118 -1.6327
  364MOL0     H48001   3.419   1.526   8.967  0.3948 -0.4130  1.4493
  364MOL0     H48002   3.328   1.687   8.797  0.6837  2.0059 -0.4610
  364MOL0     H48003   3.239   1.826   8.834  2.2148 -0.2453 -1.7115
  364MOL0     H48004   3.057   1.688   8.918  1.9560  0.8391  0.4422
  364MOL0     H48005   3.137   1.542   8.856  1.2360  0.0520  2.6255
  364MOL0     H48006   3.091   1.758   8.646  2.3597  1.8867  3.1729
  364MOL0     H48007   3.143   1.594   8.641  1.0433  0.4561  1.2517
  364MOL0     H48008   2.897   1.625   8.591 -0.6073  3.2377 -0.3914
  364MOL0     H48009   2.890   1.713   8.742 -1.6400 -1.9789  0.4241
  364MOL0     H48010   2.698   1.671   8.685  1.2722 -0.1012  0.0825
  364MOL0     H48011   2.452   1.608   8.703  0.5415 -0.7896 -1.3612
  364MOL0     H48012   2.170   1.376   9.013 -0.0436  0.4259 -0.6410
  364MOL0     H48013   1.937   1.377   9.111 -1.3203  1.6762  1.0913
  364MOL0     H48014   1.553   1.608   9.003 -0.3300  0.0649  0.6372
  364MOL0     H48015   1.657   1.664   8.875 -0.6474  3.3695  1.4036
  364MOL0     H48016   1.808   1.766   9.022  0.1969  0.0151  1.2485
  364MOL0     H48017   1.714   1.750   9.158 -5.7630 -2.9991  1.0968
  364MOL0     H48018   1.644   1.899   8.886 -0.6828 -0.4955  0.1981
  364MOL0     H48019   1.721   1.962   9.028 -1.4589  0.2839  1.3448
  364MOL0     H48020   1.432   1.896   8.972 -0.1548 -3.9833  1.2725
  364MOL0     H48021   1.478   1.850   9.132  1.5769 -0.4876  0.1710
  364MOL0     H48022   1.375   2.086   9.091  0.3044 -0.3161 -2.6431
  364MOL0     H48023   1.537   2.129   9.028  0.3070  4.6823  3.5838
  364MOL0     H48024   1.569   2.196   9.256  0.3412 -0.8717  0.2502
  364MOL0     H48025   1.645   2.035   9.230  2.2985  2.5629  2.4921
  364MOL0     H48026   1.365   2.092   9.341 -0.5775 -0.7578 -1.9667
  364MOL0     H48027   1.437   1.937   9.319 -3.2075  1.7788 -3.6688
  364MOL0     H48028   1.456   2.009   9.560 -0.7089  0.6540  0.0910
  364MOL0     H48029   1.556   2.150   9.516  0.5925 -0.4738 -0.2428
  364MOL0     H48030   1.821   1.610   8.768  1.0250  1.4170 -0.5871
  364MOL0     H48031   2.062   1.615   8.693  1.5683  0.7365  0.8116
  364MOL0     H48032   2.546   1.219   8.864 -1.1044 -0.6967 -1.1164
  364MOL0     H48033   2.788   1.270   8.821  3.0053  1.3369 -3.8073
  364MOL0     H48034   4.425   1.228   8.918 -1.5946 -3.1940 -0.4663
  364MOL0     H48035   4.550   1.009   8.837 -0.2416 -1.0463 -0.8994
  364MOL0     H48036   5.124   0.986   8.668  0.2255  0.0912  1.0493
  364MOL0     H48037   5.256   0.797   8.531 -0.8804  0.4420 -0.1265
  364MOL0     H48038   5.068   0.556   8.217 -0.6378  1.0244  1.0657
  364MOL0     H48039   5.031   0.469   8.369  0.1318  1.6425  1.5088
  364MOL0     H48040   5.182   0.322   8.251 -0.6247  1.0162  0.8552
  364MOL0     H48041   5.284   0.461   8.196 -0.4689 -0.6366 -0.4123
  364MOL0     H48042   5.230   0.374   8.486 -1.9295  0.1592 -1.3909
  364MOL0     H48043   5.346   0.495   8.437  0.4013 -0.1666 -0.7114
  364MOL0     H48044   5.378   0.206   8.355  1.8696 -0.0046 -2.0480
  364MOL0     H48045   5.501   0.332   8.342  1.1675  0.4075  2.2251
  364MOL0     H48046   5.544   0.203   8.736  0.8900  1.8536  0.8282
  364MOL0     H48047   4.896   0.635   8.400 -0.0762  0.2726 -0.0924
  364MOL0     H48048   4.764   0.820   8.517  1.5226  2.4397 -5.8175
  365MOL0     O48049   7.901   3.148   6.012 -0.4079  0.6596 -0.4505
  365MOL0     C48050   7.958   3.080   5.928  0.4206  0.1722  0.8204
  365MOL0     O48051   7.931   3.054   5.799  0.6440  0.3131 -0.2974
  365MOL0     C48052   7.817   3.106   5.743 -0.2138 -0.6590  0.0170
  365MOL0     C48053   7.746   3.015   5.662  0.0044 -0.2263 -0.2186
  365MOL0     C48054   7.634   3.065   5.601 -0.1842 -0.5324 -0.7386
  365MOL0     C48055   7.584   3.192   5.623  0.1966  1.2556 -1.3976
  365MOL0     O48056   7.455   3.219   5.591 -0.4290 -0.3248  0.5802
  365MOL0     C48057   7.422   3.253   5.459 -0.7121 -0.8872  0.8599
  365MOL0     C48058   7.279   3.214   5.429 -0.2838 -0.1851  0.6815
  365MOL0     C48059   7.233   3.240   5.286 -0.8823 -0.8010  0.0825
  365MOL0     C48060   7.093   3.192   5.275 -0.1043 -0.6702  0.0320
  365MOL0     C48061   7.036   3.225   5.134  0.3470 -0.3074 -0.6111
  365MOL0     C48062   6.898   3.171   5.106 -1.1246 -1.1099  0.3391
  365MOL0     C48063   6.900   3.022   5.109 -0.6920 -0.8394 -0.3093
  365MOL0     C48064   6.761   2.965   5.113  0.7466 -0.7428 -0.6679
  365MOL0     N48065   6.666   3.043   5.026  0.4444 -0.0588  0.3980
  365MOL0     C48066   6.554   3.096   5.069  0.4554  0.1418  0.1983
  365MOL0     C48067   6.505   3.147   4.953  0.5582 -0.8472  0.9459
  365MOL0     C48068   6.396   3.245   4.964 -0.4593  0.4576  0.5533
  365MOL0     C48069   6.256   3.182   4.993  0.4293 -0.3918 -0.6804
  365MOL0     C48070   6.143   3.285   4.974  0.8177  0.4057 -0.7917
  365MOL0     C48071   6.008   3.231   5.013 -0.3018  0.2493  0.9410
  365MOL0     O48072   5.915   3.343   4.989 -0.6485  0.2570  0.1407
  365MOL0     C48073   5.799   3.335   5.059 -0.2453  0.4715 -0.3468
  365MOL0     C48074   5.742   3.212   5.105 -0.1676 -0.2895  1.0838
  365MOL0     C48075   5.623   3.219   5.173  0.5565  0.3502 -0.4077
  365MOL0     C48076   5.570   3.345   5.208  0.0047 -0.0027  0.2913
  365MOL0     C48077   5.440   3.349   5.283 -0.2062  0.1902  0.3219
  365MOL0     O48078   5.399   3.229   5.343  0.6695 -0.9259  0.1280
  365MOL0     C48079   5.275   3.206   5.390 -0.3526 -0.3209  0.5563
  365MOL0     C48080   5.214   3.094   5.342 -0.4794 -0.7860  0.8027
  365MOL0     C48081   5.089   3.060   5.396 -0.6087 -0.5024 -0.3896
  365MOL0     C48082   5.040   3.131   5.503  0.8050 -0.0964 -0.7909
  365MOL0     O48083   4.916   3.109   5.554 -0.2082  0.3001  1.1276
  365MOL0     C48084   4.883   2.967   5.567 -0.0129 -0.3610 -0.1324
  365MOL0     C48085   4.769   2.944   5.660  0.8611  0.2707  0.6946
  365MOL0     C48086   4.802   2.988   5.806 -0.4429  0.0858 -0.1912
  365MOL0     C48087   4.677   2.969   5.888  0.4538 -0.3604  0.3124
  365MOL0     C48088   4.696   3.049   6.024  0.1906 -0.2234  0.3335
  365MOL0     C48089   4.578   3.058   6.130  0.0648 -0.2438  0.9177
  365MOL0     C48090   4.459   3.131   6.058 -0.5100 -0.0199 -0.6528
  365MOL0     C48091   4.378   3.226   6.143 -0.0245  0.3356  0.5230
  365MOL0    Cl48092   4.232   3.149   6.203  0.3567  0.1482  0.1705
  365MOL0     C48093   5.098   3.256   5.541  0.3981  1.3161 -0.9261
  365MOL0     C48094   5.221   3.289   5.489 -0.1505  0.5771  0.7223
  365MOL0     O48095   5.379   3.459   5.275  0.2887  0.6050  0.1832
  365MOL0     C48096   5.629   3.457   5.161  0.5024  0.5882  0.9321
  365MOL0     C48097   5.740   3.453   5.085  0.2347 -0.4836 -0.2783
  365MOL0     N48098   6.578   3.118   4.844  0.6426  0.3057  0.6855
  365MOL0     N48099   6.687   3.058   4.890 -0.2759 -0.1532 -0.1660
  365MOL0     C48100   7.646   3.282   5.710 -0.3903  0.1944  0.2625
  365MOL0     C48101   7.769   3.238   5.763  1.0308 -0.0027 -0.1743
  365MOL0     C48102   8.093   3.018   5.974 -0.0016  0.6970  0.7366
  365MOL0     C48103   8.152   3.045   6.100 -0.0912 -1.0343  0.9212
  365MOL0     C48104   8.264   2.976   6.136 -0.2085 -0.2364 -0.0225
  365MOL0     C48105   8.342   2.896   6.050 -0.0736 -0.3926 -0.0266
  365MOL0     O48106   8.460   2.835   6.068  0.1768  0.9380  0.3840
  365MOL0     C48107   8.516   2.849   6.193 -0.6064  0.6957  0.0029
  365MOL0     C48108   8.668   2.795   6.196 -1.2234 -0.5049 -0.4950
  365MOL0     C48109   8.726   2.846   6.328  0.2336 -0.0679 -0.7164
  365MOL0     C48110   8.883   2.854   6.332 -0.0753 -1.0972 -0.2129
  365MOL0     C48111   8.936   2.720   6.334 -0.1829  0.6885 -0.0072
  365MOL0     C48112   8.990   2.613   6.316  1.0771 -0.3113  0.0254
  365MOL0     C48113   8.291   2.890   5.923 -0.1034 -0.6616 -0.8457
  365MOL0     C48114   8.171   2.947   5.879 -0.1882  0.5997 -0.0429
  365MOL0     H48115   7.789   2.916   5.648 -0.5045 -1.2040  3.8372
  365MOL0     H48116   7.571   2.994   5.548  2.1171 -2.6968 -0.7317
  365MOL0     H48117   7.496   3.208   5.392  1.7096  2.6406  0.9358
  365MOL0     H48118   7.436   3.359   5.436 -2.1204 -0.7953  0.3391
  365MOL0     H48119   7.213   3.262   5.502  0.4798  1.7790  0.1375
  365MOL0     H48120   7.267   3.106   5.445  0.6150 -0.4591 -0.3780
  365MOL0     H48121   7.305   3.196   5.216  0.0862 -1.3412  1.3695
  365MOL0     H48122   7.231   3.343   5.250 -1.0960 -1.8612 -3.3495
  365MOL0     H48123   7.105   3.083   5.282  1.5668 -0.5561 -0.6004
  365MOL0     H48124   7.038   3.237   5.358  2.6978 -0.8046  2.0957
  365MOL0     H48125   7.106   3.175   5.066 -0.5678 -1.4498 -0.7425
  365MOL0     H48126   7.048   3.333   5.118 -0.5825 -0.4516 -2.5160
  365MOL0     H48127   6.877   3.210   5.006 -2.2529  1.2854  1.4321
  365MOL0     H48128   6.818   3.207   5.171 -0.0184 -0.6080  1.4824
  365MOL0     H48129   6.943   2.982   5.016  1.6161 -1.9428  1.1584
  365MOL0     H48130   6.955   2.968   5.186 -1.9744  0.1768  1.3800
  365MOL0     H48131   6.721   2.966   5.215  2.0673  1.8411 -0.0833
  365MOL0     H48132   6.774   2.863   5.076  0.4191 -1.6103  1.4926
  365MOL0     H48133   6.530   3.102   5.174  1.7827 -1.9750  0.6927
  365MOL0     H48134   6.390   3.297   4.868  1.3490 -1.6548 -0.8087
  365MOL0     H48135   6.422   3.312   5.046  2.0375  0.3330 -0.0579
  365MOL0     H48136   6.251   3.156   5.099  2.6842  2.4641  0.2476
  365MOL0     H48137   6.244   3.106   4.915 -0.7028  1.0798 -1.9836
  365MOL0     H48138   6.161   3.359   5.053 -2.7752 -3.5480  4.3730
  365MOL0     H48139   6.141   3.325   4.872  3.1482  1.0425 -0.6560
  365MOL0     H48140   6.016   3.197   5.117  1.7390 -0.6202  0.5402
  365MOL0     H48141   5.979   3.147   4.950  0.8252 -0.2986  1.1295
  365MOL0     H48142   5.774   3.113   5.074 -1.0349 -0.6490  1.3161
  365MOL0     H48143   5.569   3.126   5.191  0.5986 -0.0010 -1.9502
  365MOL0     H48144   5.266   3.036   5.266  0.9255  0.2118  0.9517
  365MOL0     H48145   5.045   2.967   5.363 -0.8206 -1.0540  1.3302
  365MOL0     H48146   4.964   2.908   5.612  1.3027 -3.9543 -6.0585
  365MOL0     H48147   4.866   2.922   5.469 -0.3065  1.1969 -0.8292
  365MOL0     H48148   4.738   2.839   5.653 -2.8921  1.3443 -2.3186
  365MOL0     H48149   4.692   3.004   5.610  3.4873  2.0920 -1.4920
  365MOL0     H48150   4.812   3.097   5.805  1.8889 -0.0685 -2.2736
  365MOL0     H48151   4.889   2.940   5.851 -0.1517  0.1956 -0.6352
  365MOL0     H48152   4.585   3.008   5.844 -0.3086 -0.9139  1.3702
  365MOL0     H48153   4.661   2.866   5.919 -1.7464  0.0048  0.5215
  365MOL0     H48154   4.713   3.151   5.990  3.5785 -1.5980 -2.7708
  365MOL0     H48155   4.790   3.006   6.062 -0.6081 -3.5750 -1.1463
  365MOL0     H48156   4.608   3.132   6.205  1.5361  2.1222 -1.8425
  365MOL0     H48157   4.566   2.959   6.176  0.3447 -1.3378 -1.2452
  365MOL0     H48158   4.505   3.202   5.989  1.7486 -0.4835  0.3187
  365MOL0     H48159   4.402   3.068   5.989  1.5463 -0.7977 -1.7180
  365MOL0     H48160   4.343   3.301   6.072 -0.3819  0.4403  0.8051
  365MOL0     H48161   4.440   3.261   6.226  0.4675 -2.0839  1.2661
  365MOL0     H48162   5.053   3.315   5.620 -0.0465  0.5502 -0.5929
  365MOL0     H48163   5.280   3.374   5.522  2.1208 -0.1549 -1.1479
  365MOL0     H48164   5.575   3.551   5.164  1.7861  1.5262 -1.8095
  365MOL0     H48165   5.785   3.550   5.065 -2.3394  0.8565  0.0067
  365MOL0     H48166   7.616   3.384   5.734  2.0350  1.2772 -0.9775
  365MOL0     H48167   7.830   3.314   5.811 -0.7925  1.2413  0.2689
  365MOL0     H48168   8.096   3.085   6.183  0.5021 -0.1375  0.9071
  365MOL0     H48169   8.292   2.983   6.241 -1.1418  2.0466  0.1466
  365MOL0     H48170   8.464   2.781   6.262  1.3440  1.2025  2.1035
  365MOL0     H48171   8.518   2.954   6.225  2.9610  1.2662 -1.6677
  365MOL0     H48172   8.661   2.686   6.190  0.5637 -0.7041  0.4028
  365MOL0     H48173   8.734   2.823   6.113  4.1402  0.2628  3.4627
  365MOL0     H48174   8.684   2.781   6.406  0.9722  0.7556  0.3887
  365MOL0     H48175   8.680   2.945   6.334 -0.9575 -0.4764 -2.4800
  365MOL0     H48176   8.917   2.927   6.258  3.0787  0.4283  2.4757
  365MOL0     H48177   8.912   2.905   6.424 -2.9227 -1.0941  0.7773
  365MOL0     H48178   9.044   2.522   6.297 -1.7816 -2.1566  0.0956
  365MOL0     H48179   8.346   2.821   5.860 -2.8010 -2.4919 -1.3701
  365MOL0     H48180   8.148   2.944   5.773  1.5697 -1.2454 -0.4126
  366MOL0     O48181   3.458   2.592   8.321  0.5756  0.0331 -0.1714
  366MOL0     C48182   3.477   2.632   8.432 -0.2454  0.5855  1.0994
  366MOL0     O48183   3.393   2.622   8.531 -0.2951  0.7112 -0.6351
  366MOL0     C48184   3.267   2.569   8.510  0.2967  0.8618 -0.0524
  366MOL0     C48185   3.177   2.627   8.419  0.9077  0.2838 -0.3381
  366MOL0     C48186   3.052   2.571   8.398  0.0139  0.0696  0.6619
  366MOL0     C48187   3.003   2.456   8.475 -0.3759 -0.4590  0.7021
  366MOL0     O48188   2.886   2.399   8.431 -0.7764 -0.4741  0.0172
  366MOL0     C48189   2.848   2.264   8.452  1.0400  0.3665  0.8217
  366MOL0     C48190   2.692   2.255   8.508 -0.2293 -0.5280  0.6773
  366MOL0     C48191   2.606   2.280   8.394  0.1270 -0.4950  0.1997
  366MOL0     C48192   2.457   2.255   8.419  0.8852  0.0964 -1.1352
  366MOL0     C48193   2.364   2.282   8.300  0.0173  0.0066  0.3758
  366MOL0     C48194   2.395   2.189   8.179  0.6579 -0.3933  0.3342
  366MOL0     C48195   2.315   2.231   8.060  0.5184 -0.2480  0.6563
  366MOL0     C48196   2.334   2.153   7.933  0.1579  0.3816  0.7808
  366MOL0     N48197   2.418   2.226   7.833  0.6881  0.6870 -0.2994
  366MOL0     C48198   2.432   2.353   7.812 -0.0210  0.0005  0.5305
  366MOL0     C48199   2.526   2.357   7.716 -0.3955 -0.3720  1.0343
  366MOL0     C48200   2.589   2.491   7.655  0.7998  0.5935 -0.1306
  366MOL0     C48201   2.517   2.624   7.688  0.2277  0.3309 -0.9330
  366MOL0     C48202   2.584   2.753   7.637  0.4813  0.2088  0.9515
  366MOL0     C48203   2.732   2.783   7.651  0.6361 -0.4035  0.3200
  366MOL0     O48204   2.765   2.755   7.792  0.1152 -0.5727  0.2455
  366MOL0     C48205   2.886   2.796   7.837 -0.2680 -0.6095  0.6225
  366MOL0     C48206   2.892   2.808   7.977  0.2402 -0.3178 -0.3228
  366MOL0     C48207   3.009   2.870   8.036 -0.5419  0.3398 -0.3082
  366MOL0     C48208   3.129   2.897   7.961  0.4795 -0.2945 -0.3420
  366MOL0     C48209   3.251   2.936   8.023  0.7866  0.6859  0.4973
  366MOL0     O48210   3.257   2.918   8.150  0.1194 -0.5836 -0.7922
  366MOL0     C48211   3.364   2.971   8.220 -0.4298  0.2093 -0.0919
  366MOL0     C48212   3.488   2.905   8.222  0.9379 -0.0726  0.6129
  366MOL0     C48213   3.596   2.966   8.273 -0.7907 -0.4289 -0.3756
  366MOL0     C48214   3.594   3.097   8.325 -0.6561 -0.8228  0.8756
  366MOL0     O48215   3.720   3.157   8.365  0.1810 -0.4795  0.7233
  366MOL0     C48216   3.722   3.224   8.490 -0.1242 -0.5629  0.4223
  366MOL0     C48217   3.782   3.360   8.461  0.0170  0.3809  0.5323
  366MOL0     C48218   3.922   3.332   8.420 -0.3448  0.3855  0.7861
  366MOL0     C48219   3.994   3.456   8.348  0.0063 -0.3663 -0.5957
  366MOL0     C48220   4.123   3.424   8.276  0.6355  0.8201 -0.8684
  366MOL0     C48221   4.178   3.533   8.189 -0.2592 -0.1505  0.2442
  366MOL0     C48222   4.204   3.672   8.242 -0.1791  0.3809 -0.3140
  366MOL0     C48223   4.307   3.742   8.152 -0.5397 -0.5937 -0.3557
  366MOL0    Cl48224   4.383   3.894   8.221  0.5052  0.2226 -0.2160
  366MOL0     C48225   3.466   3.164   8.322  0.8067  0.8607  0.5065
  366MOL0     C48226   3.358   3.088   8.282  0.6062 -0.8918 -0.0329
  366MOL0     O48227   3.333   2.996   7.952 -0.0380  0.2402  0.5927
  366MOL0     C48228   3.115   2.891   7.817 -0.3842  0.4022 -0.6507
  366MOL0     C48229   2.996   2.837   7.759 -0.4617 -0.2306  0.6142
  366MOL0     N48230   2.567   2.237   7.678 -0.6674 -0.0307 -0.0902
  366MOL0     N48231   2.501   2.156   7.753 -0.7727  0.0732 -0.1967
  366MOL0     C48232   3.094   2.400   8.569  1.1508 -0.8407  0.4736
  366MOL0     C48233   3.216   2.462   8.586 -0.5108 -0.1343 -0.2569
  366MOL0     C48234   3.605   2.701   8.461  0.3169  0.6989  0.0222
  366MOL0     C48235   3.716   2.676   8.377  0.1828  0.6348 -0.2519
  366MOL0     C48236   3.824   2.761   8.391 -0.2906 -0.2664  0.1118
  366MOL0     C48237   3.830   2.849   8.500 -0.2573 -0.6864  0.6156
  366MOL0     O48238   3.933   2.937   8.520 -0.0707  0.2374  0.2568
  366MOL0     C48239   4.041   2.942   8.427 -0.0364 -0.5960 -0.0390
  366MOL0     C48240   4.153   3.040   8.476  0.1145 -0.7358  0.3782
  366MOL0     C48241   4.270   3.019   8.388 -0.9567  0.3612  0.0792
  366MOL0     C48242   4.251   3.074   8.244 -0.1981  0.4716  0.2544
  366MOL0     C48243   4.368   3.070   8.153 -0.2188 -0.1279 -0.1754
  366MOL0     C48244   4.467   3.066   8.076  0.5888  0.2830  1.4369
  366MOL0     C48245   3.726   2.857   8.590  0.3567 -0.3056  0.3787
  366MOL0     C48246   3.611   2.781   8.571 -0.1063  0.2045 -0.1901
  366MOL0     H48247   3.213   2.709   8.358 -3.7215  0.9695 -2.5878
  366MOL0     H48248   2.982   2.605   8.323 -1.0476  0.4777  1.8169
  366MOL0     H48249   2.916   2.198   8.508  0.0450  1.0034  2.8895
  366MOL0     H48250   2.848   2.217   8.353 -2.5798  0.6952  0.5377
  366MOL0     H48251   2.679   2.329   8.588 -0.2877 -0.0717  0.2448
  366MOL0     H48252   2.671   2.158   8.554 -0.9385 -0.7614 -0.1175
  366MOL0     H48253   2.640   2.212   8.315  1.4398  0.3218  0.0242
  366MOL0     H48254   2.628   2.383   8.365  0.1706 -1.1229 -2.1282
  366MOL0     H48255   2.430   2.158   8.462 -0.5567  1.1166  0.4022
  366MOL0     H48256   2.420   2.321   8.499  0.0978 -0.8555 -0.6939
  366MOL0     H48257   2.370   2.390   8.285 -0.0632 -0.1850 -1.1891
  366MOL0     H48258   2.270   2.244   8.340  0.4025 -2.0195 -0.4830
  366MOL0     H48259   2.378   2.082   8.198 -0.7896 -0.2152  0.1197
  366MOL0     H48260   2.500   2.193   8.149  0.9616  0.6662  1.4599
  366MOL0     H48261   2.210   2.214   8.084  0.0513  0.4647 -0.7857
  366MOL0     H48262   2.336   2.336   8.040 -0.6298  0.0004  0.7190
  366MOL0     H48263   2.233   2.137   7.893  0.4255  4.2764 -2.0535
  366MOL0     H48264   2.367   2.052   7.958  0.3857  0.5680  1.2559
  366MOL0     H48265   2.383   2.442   7.850  2.3499  1.1954  0.9997
  366MOL0     H48266   2.593   2.476   7.547 -0.5045 -1.9429  0.1123
  366MOL0     H48267   2.687   2.519   7.694 -0.1962  3.1070  0.7966
  366MOL0     H48268   2.514   2.624   7.798  1.2712 -1.4309 -0.8657
  366MOL0     H48269   2.410   2.618   7.663 -0.4189 -2.9972  1.8047
  366MOL0     H48270   2.553   2.756   7.532  2.2344  0.0824  0.3872
  366MOL0     H48271   2.525   2.828   7.689  0.1834 -1.4704  3.1859
  366MOL0     H48272   2.765   2.880   7.613  4.8441 -2.6718 -2.6724
  366MOL0     H48273   2.789   2.711   7.591  0.9433  1.4079 -1.7062
  366MOL0     H48274   2.809   2.791   8.045  0.1172  0.0540 -0.3791
  366MOL0     H48275   3.012   2.883   8.144  0.7603 -2.9073  0.1470
  366MOL0     H48276   3.508   2.803   8.189 -1.2951 -0.4294  0.1852
  366MOL0     H48277   3.695   2.921   8.270  0.2472  1.5610  1.5876
  366MOL0     H48278   3.777   3.174   8.570 -0.7183  0.5511  1.5661
  366MOL0     H48279   3.620   3.244   8.522 -1.1963 -0.6431 -2.6128
  366MOL0     H48280   3.787   3.422   8.552  3.1884  2.2120 -0.7253
  366MOL0     H48281   3.732   3.417   8.383  0.1233 -2.7041 -1.9725
  366MOL0     H48282   3.935   3.243   8.358  1.4069  1.1866 -0.0539
  366MOL0     H48283   3.980   3.313   8.511  0.9190  1.2136  0.1773
  366MOL0     H48284   3.918   3.497   8.281 -2.5163 -1.5015  1.3866
  366MOL0     H48285   4.006   3.533   8.425  2.8529 -0.3280 -0.9977
  366MOL0     H48286   4.105   3.334   8.216  2.8613 -0.4788  0.2807
  366MOL0     H48287   4.220   3.404   8.324  1.2738  2.2555 -1.5081
  366MOL0     H48288   4.100   3.551   8.114 -0.6454  0.4747  0.7827
  366MOL0     H48289   4.270   3.499   8.140  0.1278 -0.2850  1.0431
  366MOL0     H48290   4.115   3.736   8.252 -1.5460 -1.2424 -1.5119
  366MOL0     H48291   4.238   3.656   8.345 -1.6824 -0.6389  0.0555
  366MOL0     H48292   4.262   3.758   8.054  0.6043  1.0018 -0.6529
  366MOL0     H48293   4.385   3.669   8.130 -2.7354 -3.1334 -0.1818
  366MOL0     H48294   3.449   3.271   8.336 -0.2120  0.8026 -0.1427
  366MOL0     H48295   3.260   3.135   8.281 -1.1617 -4.2130  1.6182
  366MOL0     H48296   3.199   2.917   7.752 -0.7002  1.5179 -0.6403
  366MOL0     H48297   2.990   2.809   7.654 -0.4294  0.9047  0.2961
  366MOL0     H48298   3.053   2.317   8.625 -1.6809  0.0389 -0.1353
  366MOL0     H48299   3.278   2.413   8.660  0.8979  0.8378 -0.7398
  366MOL0     H48300   3.720   2.601   8.298  0.3210  1.0738 -0.6631
  366MOL0     H48301   3.906   2.744   8.322  0.0124 -1.0871  0.6603
  366MOL0     H48302   4.003   2.959   8.326 -1.1931  2.3184  0.7597
  366MOL0     H48303   4.079   2.840   8.429 -2.9517 -1.7786  0.7453
  366MOL0     H48304   4.118   3.143   8.482  1.5881 -0.1651 -0.2394
  366MOL0     H48305   4.183   3.009   8.577 -2.7533 -1.3664  1.1152
  366MOL0     H48306   4.295   2.912   8.388 -0.0076  0.5639 -0.9549
  366MOL0     H48307   4.354   3.072   8.435 -1.3048  0.3068  0.7702
  366MOL0     H48308   4.183   3.007   8.191  0.4886 -1.6824  1.9733
  366MOL0     H48309   4.204   3.172   8.259 -1.6948 -0.2709  0.5386
  366MOL0     H48310   4.549   3.047   8.009  1.0702 -1.4903  2.4509
  366MOL0     H48311   3.714   2.936   8.663 -1.1459 -1.2096  1.1651
  366MOL0     H48312   3.518   2.809   8.621  0.8027  2.8283  0.1355
  367MOL0     O48313   9.500  11.403   5.464  0.1133 -0.6184 -0.4746
  367MOL0     C48314   9.470  11.293   5.505  0.0893  0.3528 -0.3910
  367MOL0     O48315   9.568  11.198   5.535 -0.2767  0.2182 -0.9382
  367MOL0     C48316   9.701  11.211   5.491 -1.2421  0.2208  0.0017
  367MOL0     C48317   9.763  11.120   5.397 -0.6665 -0.3126  0.8007
  367MOL0     C48318   9.901  11.133   5.367  0.7029  0.1436  0.0964
  367MOL0     C48319   9.980  11.231   5.430  0.0634  0.4038  1.0333
  367MOL0     O48320  10.110  11.257   5.410  0.0886 -0.0959 -0.1068
  367MOL0     C48321  10.136  11.333   5.290 -0.2788  0.1298 -0.1180
  367MOL0     C48322  10.175  11.250   5.174  0.1693 -0.1792  0.4861
  367MOL0     C48323  10.248  11.323   5.052  0.8962  0.1178  0.2736
  367MOL0     C48324  10.242  11.225   4.930 -0.4655  0.7601  0.1277
  367MOL0     C48325  10.329  11.277   4.822 -0.4788 -0.6133 -0.1735
  367MOL0     C48326  10.325  11.203   4.683 -0.2754  0.5172 -0.4200
  367MOL0     C48327  10.323  11.309   4.574  0.3259  1.1254  0.0846
  367MOL0     C48328  10.416  11.256   4.461 -0.1370 -0.2204 -0.4011
  367MOL0     N48329  10.422  11.345   4.347 -0.2800 -0.0935 -0.5190
  367MOL0     C48330  10.471  11.468   4.361  0.3299 -0.2600  0.5582
  367MOL0     C48331  10.485  11.494   4.225 -0.7872  0.4654 -0.9893
  367MOL0     C48332  10.539  11.614   4.149 -0.0543 -0.6276 -0.3621
  367MOL0     C48333  10.689  11.612   4.146 -0.4564  1.4091  0.2959
  367MOL0     C48334  10.738  11.761   4.147  0.1351  0.3878  0.8177
  367MOL0     C48335  10.699  11.847   4.026  0.2672 -0.9152 -0.6936
  367MOL0     O48336  10.695  11.983   4.057 -0.1211 -0.0957  0.0705
  367MOL0     C48337  10.618  12.064   3.980  0.3235  1.0591 -0.3037
  367MOL0     C48338  10.550  12.169   4.028 -1.8012 -0.1799 -0.4255
  367MOL0     C48339  10.479  12.256   3.946 -0.2854 -0.4716 -0.7206
  367MOL0     C48340  10.461  12.226   3.809 -0.3415  0.3524  0.6776
  367MOL0     C48341  10.388  12.312   3.717  0.0281  0.3637 -0.1334
  367MOL0     O48342  10.354  12.439   3.763  0.3699 -1.0050  0.0181
  367MOL0     C48343  10.285  12.531   3.681 -0.8721 -0.6704  0.5002
  367MOL0     C48344  10.180  12.598   3.738  0.4764  0.3689 -0.3595
  367MOL0     C48345  10.109  12.703   3.675 -0.7742  0.1137  0.9588
  367MOL0     C48346  10.138  12.732   3.538 -1.2247 -0.1147 -0.2703
  367MOL0     O48347  10.054  12.802   3.451  0.3126  0.0918  1.2248
  367MOL0     C48348   9.909  12.826   3.474 -0.4426  0.0837  0.7037
  367MOL0     C48349   9.877  12.928   3.368  0.9649 -0.8017  0.8859
  367MOL0     C48350   9.895  12.886   3.225  0.0313  0.3064  0.2101
  367MOL0     C48351   9.874  13.001   3.127 -0.1380 -0.0396  0.4428
  367MOL0     C48352   9.863  12.941   2.986 -0.4043  0.2302 -0.3732
  367MOL0     C48353   9.911  13.018   2.863  0.2552 -0.5954 -0.0988
  367MOL0     C48354   9.911  12.939   2.727  0.6571 -0.8308 -0.0727
  367MOL0     C48355   9.785  12.854   2.696  0.0183 -0.7112  0.9626
  367MOL0    Cl48356   9.779  12.862   2.517  0.8102  0.0252 -0.7497
  367MOL0     C48357  10.248  12.672   3.485 -0.6882  0.2280 -0.3307
  367MOL0     C48358  10.325  12.570   3.550 -0.5560 -0.4400 -1.2288
  367MOL0     O48359  10.369  12.269   3.606 -0.1386 -0.8092 -0.0897
  367MOL0     C48360  10.536  12.114   3.765  0.2906  0.6244 -0.4104
  367MOL0     C48361  10.621  12.036   3.844  0.8015 -0.4301 -0.5715
  367MOL0     N48362  10.435  11.401   4.142 -1.0595  0.2594 -0.0957
  367MOL0     N48363  10.396  11.306   4.219  0.7285 -0.3771  0.5947
  367MOL0     C48364   9.920  11.310   5.525  0.5184  0.6358 -1.2793
  367MOL0     C48365   9.784  11.297   5.557 -0.8529  0.0573 -0.1763
  367MOL0     C48366   9.324  11.261   5.521  0.4839  0.4240  1.3315
  367MOL0     C48367   9.297  11.125   5.542 -0.3602  0.2687 -1.7247
  367MOL0     C48368   9.161  11.089   5.563  0.4257 -0.1563 -0.0236
  367MOL0     C48369   9.056  11.189   5.554 -0.9280  0.0227  0.1745
  367MOL0     O48370   8.928  11.154   5.581 -0.1960  0.8763  0.3233
  367MOL0     C48371   8.878  11.044   5.505 -0.3428 -0.1238  0.0610
  367MOL0     C48372   8.728  11.033   5.504  0.7763  0.2454 -0.6210
  367MOL0     C48373   8.649  11.155   5.458  0.4048  0.4916 -0.2667
  367MOL0     C48374   8.672  11.175   5.303 -0.6992 -0.2655  0.1504
  367MOL0     C48375   8.796  11.249   5.272  0.1248  0.5379 -0.4388
  367MOL0     C48376   8.892  11.324   5.247  0.1953 -0.3084 -0.5685
  367MOL0     C48377   9.095  11.323   5.525  0.1141  0.1472  0.4069
  367MOL0     C48378   9.230  11.358   5.509  0.4095 -0.0174 -0.3730
  367MOL0     H48379   9.709  11.037   5.353 -1.1165  1.0137 -1.2457
  367MOL0     H48380   9.941  11.073   5.285 -1.5765  0.3940 -1.2756
  367MOL0     H48381  10.206  11.415   5.309 -1.8754  1.8006 -1.0712
  367MOL0     H48382  10.043  11.384   5.262  0.1990  0.3892 -1.3121
  367MOL0     H48383  10.085  11.199   5.137 -1.6150  2.0337  1.5489
  367MOL0     H48384  10.253  11.186   5.216  2.1490  0.0771 -2.4533
  367MOL0     H48385  10.352  11.348   5.075  1.7145 -2.6425 -0.0887
  367MOL0     H48386  10.185  11.411   5.037  4.3640  2.7688  0.0935
  367MOL0     H48387  10.267  11.123   4.960  1.3507  1.5259  1.4079
  367MOL0     H48388  10.143  11.225   4.884  0.6967 -2.0775 -2.7974
  367MOL0     H48389  10.430  11.253   4.856  0.6484 -0.2352 -2.9950
  367MOL0     H48390  10.314  11.385   4.813  1.2859 -0.0740  2.2082
  367MOL0     H48391  10.241  11.136   4.663  0.1160  0.5751 -2.4707
  367MOL0     H48392  10.415  11.142   4.671 -0.7047 -0.1404 -0.3978
  367MOL0     H48393  10.221  11.327   4.539  0.6932 -1.0814 -2.4239
  367MOL0     H48394  10.371  11.404   4.599  0.4168  2.0800 -3.2110
  367MOL0     H48395  10.376  11.158   4.433 -0.3162 -0.5363  0.8920
  367MOL0     H48396  10.514  11.246   4.508 -1.0586 -1.7034  1.3559
  367MOL0     H48397  10.506  11.536   4.438  0.0553  0.3320  0.1692
  367MOL0     H48398  10.505  11.709   4.191  1.1294 -1.2250  2.1680
  367MOL0     H48399  10.510  11.602   4.044  1.2514  0.4282 -0.8786
  367MOL0     H48400  10.726  11.543   4.069  1.2435  0.0466  2.2243
  367MOL0     H48401  10.727  11.572   4.241 -0.8726  0.2200 -0.0262
  367MOL0     H48402  10.714  11.812   4.241 -0.2476 -0.2187  1.0590
  367MOL0     H48403  10.847  11.750   4.144 -0.1000 -3.4366 -2.7995
  367MOL0     H48404  10.605  11.812   3.982  1.0340 -5.5759  0.8267
  367MOL0     H48405  10.776  11.844   3.947 -1.3890  0.5355 -2.4450
  367MOL0     H48406  10.553  12.178   4.136 -3.1681 -0.3970 -0.3537
  367MOL0     H48407  10.414  12.333   3.987 -2.4128 -1.8321 -1.3445
  367MOL0     H48408  10.142  12.568   3.835 -2.0353  0.1680 -1.3282
  367MOL0     H48409  10.022  12.745   3.724 -3.6184 -1.6713 -2.2032
  367MOL0     H48410   9.898  12.869   3.574 -1.4677 -0.9932  1.0795
  367MOL0     H48411   9.855  12.731   3.465 -0.5382  0.1933  0.0740
  367MOL0     H48412   9.934  13.019   3.391 -1.3196  0.9574  0.0240
  367MOL0     H48413   9.768  12.935   3.376  0.6923 -0.4293 -2.1316
  367MOL0     H48414   9.813  12.818   3.201  0.8754 -0.0052 -2.0755
  367MOL0     H48415   9.989  12.835   3.200 -1.3511 -1.5736 -1.4763
  367MOL0     H48416   9.785  13.051   3.165 -1.5455 -1.4097 -0.8635
  367MOL0     H48417   9.968  13.056   3.130 -0.9037  1.3356 -0.2545
  367MOL0     H48418   9.765  12.896   2.971  0.1527 -0.8156 -0.9551
  367MOL0     H48419   9.923  12.850   2.978  0.2925  0.6610 -0.0968
  367MOL0     H48420  10.010  13.060   2.883 -0.2677  0.2480  0.8561
  367MOL0     H48421   9.852  13.108   2.843 -0.4376 -1.0387 -0.0643
  367MOL0     H48422   9.920  13.014   2.647 -1.2588 -1.5044 -0.9925
  367MOL0     H48423  10.001  12.878   2.735  3.9610  3.1936 -2.1740
  367MOL0     H48424   9.699  12.904   2.741  0.0809 -0.4910  0.8409
  367MOL0     H48425   9.799  12.753   2.736 -2.5386 -1.1685  0.8668
  367MOL0     H48426  10.274  12.699   3.383  0.2937 -0.9481 -0.4060
  367MOL0     H48427  10.408  12.519   3.503 -0.6697 -3.2133  1.2657
  367MOL0     H48428  10.566  12.099   3.662  2.8394  3.5531 -0.2457
  367MOL0     H48429  10.679  11.961   3.791 -0.5658 -0.9640 -1.3621
  367MOL0     H48430   9.972  11.391   5.576  0.2030 -1.4472  2.7151
  367MOL0     H48431   9.753  11.361   5.639 -0.3930 -1.6370  1.3866
  367MOL0     H48432   9.375  11.050   5.553  1.1089  2.0335  0.9640
  367MOL0     H48433   9.143  10.987   5.594 -2.9206  1.5711  4.9524
  367MOL0     H48434   8.923  10.948   5.531 -1.1877 -0.3407  0.7821
  367MOL0     H48435   8.903  11.053   5.399 -0.9874 -0.0332 -0.0905
  367MOL0     H48436   8.693  10.949   5.443  0.2754 -0.3922  0.5322
  367MOL0     H48437   8.710  11.007   5.608 -1.2264  1.7836 -0.5270
  367MOL0     H48438   8.668  11.241   5.523  0.1463 -0.5294  1.2027
  367MOL0     H48439   8.545  11.125   5.468  0.8788 -1.2792 -0.3284
  367MOL0     H48440   8.671  11.081   5.248  2.1234  1.4773 -3.2588
  367MOL0     H48441   8.588  11.232   5.262 -1.5467 -1.3817  0.3009
  367MOL0     H48442   8.979  11.385   5.235  0.7328 -0.7216  0.9979
  367MOL0     H48443   9.017  11.398   5.512  0.9695  0.8640 -0.9222
  367MOL0     H48444   9.262  11.462   5.505 -1.3998  0.7658  2.4581
  368MOL0     O48445  10.975   7.051   9.768  1.0275  0.2709 -0.2701
  368MOL0     C48446  11.091   7.101   9.763  0.6056  0.3914  0.0586
  368MOL0     O48447  11.204   7.044   9.808  0.3996  0.2904  0.0007
  368MOL0     C48448  11.186   6.945   9.900 -0.8904 -0.3608  0.6119
  368MOL0     C48449  11.189   6.981  10.036 -0.5768 -0.5500 -0.4578
  368MOL0     C48450  11.186   6.880  10.134 -0.1483 -0.2218 -0.3097
  368MOL0     C48451  11.161   6.750  10.102  0.1272 -0.4023 -0.3988
  368MOL0     O48452  11.133   6.651  10.200  0.2572  0.0562 -0.6522
  368MOL0     C48453  11.249   6.570  10.220 -0.3141 -0.0347 -0.1340
  368MOL0     C48454  11.273   6.549  10.372  0.3989 -0.5105  0.6927
  368MOL0     C48455  11.377   6.440  10.394  0.0968  0.1521 -0.2812
  368MOL0     C48456  11.420   6.418  10.532 -0.2469  1.1362 -0.7007
  368MOL0     C48457  11.523   6.309  10.551 -0.4008  0.0787 -0.4884
  368MOL0     C48458  11.569   6.299  10.698 -0.3170 -0.1420  0.2821
  368MOL0     C48459  11.689   6.202  10.709 -0.8660  0.3525 -0.1817
  368MOL0     C48460  11.704   6.143  10.850  0.9340 -0.6600 -0.9172
  368MOL0     N48461  11.844   6.085  10.866 -0.1147 -0.0015  0.7390
  368MOL0     C48462  11.969   6.144  10.896 -0.5846 -0.2528  0.2527
  368MOL0     C48463  12.058   6.033  10.895  0.0939 -1.4676 -0.5366
  368MOL0     C48464  12.207   6.034  10.919 -0.3270 -0.4284  0.3222
  368MOL0     C48465  12.279   6.058  10.786 -0.0662 -0.1946 -0.2631
  368MOL0     C48466  12.285   5.944  10.683  0.3517 -0.0826  0.2559
  368MOL0     C48467  12.391   5.838  10.709 -0.3775  0.3224  0.5322
  368MOL0     O48468  12.369   5.728  10.620  0.1768 -0.0157  0.4490
  368MOL0     C48469  12.450   5.615  10.624 -0.5170 -0.2673  1.1618
  368MOL0     C48470  12.419   5.517  10.531  1.1102  0.3723  0.6212
  368MOL0     C48471  12.497   5.406  10.514 -0.3076 -0.3291 -0.0510
  368MOL0     C48472  12.615   5.399  10.588 -0.1786 -0.1124 -0.5573
  368MOL0     C48473  12.704   5.281  10.563  0.3255 -0.2129  1.0677
  368MOL0     O48474  12.817   5.269  10.654 -0.1389  0.1767  0.0112
  368MOL0     C48475  12.889   5.154  10.653 -0.8760  0.3693  0.4505
  368MOL0     C48476  12.893   5.067  10.771 -0.1323 -0.2694  0.2503
  368MOL0     C48477  12.995   4.967  10.785 -0.9984 -0.6277 -0.2743
  368MOL0     C48478  13.081   4.934  10.680 -1.4296 -0.6566 -0.4532
  368MOL0     O48479  13.165   4.823  10.693  0.7865  0.3382  0.7370
  368MOL0     C48480  13.310   4.846  10.686 -0.4554  1.3768 -0.8069
  368MOL0     C48481  13.386   4.717  10.723  0.0789  0.7510  0.4950
  368MOL0     C48482  13.344   4.594  10.641  0.4835  0.5208 -0.0058
  368MOL0     C48483  13.358   4.616  10.491 -0.0725 -0.4019 -0.7464
  368MOL0     C48484  13.497   4.638  10.442 -0.3774  0.4694  0.0943
  368MOL0     C48485  13.502   4.711  10.302  0.9338 -0.5609 -0.4620
  368MOL0     C48486  13.447   4.857  10.312  0.7102  0.7224  0.5065
  368MOL0     C48487  13.547   4.949  10.389 -0.0360 -0.0534 -0.1977
  368MOL0    Cl48488  13.465   5.107  10.432 -0.1447 -0.0881 -0.0977
  368MOL0     C48489  13.085   5.015  10.562 -0.1762 -0.4293 -0.1131
  368MOL0     C48490  12.987   5.117  10.548 -0.5532 -0.4217 -0.5374
  368MOL0     O48491  12.674   5.197  10.477 -0.0509  0.2631 -0.3698
  368MOL0     C48492  12.648   5.500  10.684  0.6721 -0.7673  0.2825
  368MOL0     C48493  12.564   5.608  10.700 -0.8556 -0.2931 -0.0935
  368MOL0     N48494  11.985   5.918  10.873 -0.2876  0.1026 -0.5272
  368MOL0     N48495  11.865   5.949  10.859  0.8716 -0.6351 -0.5301
  368MOL0     C48496  11.149   6.715   9.960  1.0388 -0.8762  0.2994
  368MOL0     C48497  11.170   6.814   9.862  0.6892  0.2076 -0.0849
  368MOL0     C48498  11.107   7.226   9.700 -0.4514 -0.3575  0.5877
  368MOL0     C48499  11.240   7.282   9.677 -0.0381  0.7775 -0.5531
  368MOL0     C48500  11.258   7.412   9.617 -0.2330  0.1082 -0.3590
  368MOL0     C48501  11.151   7.480   9.561 -0.2117  0.2159 -0.1002
  368MOL0     O48502  11.168   7.586   9.490 -0.2548  0.4296  0.2484
  368MOL0     C48503  11.112   7.587   9.357  0.1808  0.0005 -0.0623
  368MOL0     C48504  11.207   7.532   9.250 -0.3533  0.6885 -0.4685
  368MOL0     C48505  11.345   7.604   9.244 -0.1537  0.4657  0.4687
  368MOL0     C48506  11.352   7.726   9.149  0.5347 -0.0527  0.0388
  368MOL0     C48507  11.456   7.807   9.197 -0.0016  0.1401 -0.3298
  368MOL0     C48508  11.555   7.870   9.232  0.4510  0.6281  0.5741
  368MOL0     C48509  11.019   7.435   9.592 -0.0767 -0.6845 -0.7783
  368MOL0     C48510  11.003   7.312   9.660  0.5083  0.5140 -0.7662
  368MOL0     H48511  11.197   7.082  10.073  3.7749 -0.9765  0.3812
  368MOL0     H48512  11.198   6.917  10.236  1.9703 -0.6268 -0.3628
  368MOL0     H48513  11.339   6.620  10.182 -1.7852 -0.6344 -5.1041
  368MOL0     H48514  11.229   6.473  10.174  0.5004  0.0183 -0.6050
  368MOL0     H48515  11.179   6.520  10.419 -0.1009 -1.0252 -0.5858
  368MOL0     H48516  11.308   6.643  10.415  2.3881 -0.4231 -0.9569
  368MOL0     H48517  11.469   6.474  10.344  0.2046 -0.2900 -0.3896
  368MOL0     H48518  11.340   6.345  10.354 -0.0634 -0.1389  0.5541
  368MOL0     H48519  11.469   6.508  10.571 -0.2559 -0.0890  2.3567
  368MOL0     H48520  11.336   6.393  10.596  1.7969 -1.2990  1.2191
  368MOL0     H48521  11.613   6.333  10.492 -0.5907  0.5602 -0.5842
  368MOL0     H48522  11.470   6.222  10.512  0.8452 -0.1621 -1.7488
  368MOL0     H48523  11.483   6.260  10.751 -0.1761  0.3239  0.8619
  368MOL0     H48524  11.595   6.395  10.745 -2.3620  1.1548 -1.0776
  368MOL0     H48525  11.671   6.113  10.648  3.4594  0.0167 -1.3255
  368MOL0     H48526  11.785   6.240  10.672 -1.1904  0.5545 -0.8416
  368MOL0     H48527  11.622   6.073  10.869 -0.7310  1.4698  0.0692
  368MOL0     H48528  11.707   6.225  10.922  0.5716 -0.1429 -1.4828
  368MOL0     H48529  11.996   6.247  10.916  1.0423  0.0470 -2.8499
  368MOL0     H48530  12.253   5.941  10.951  3.5076  1.7221  1.8035
  368MOL0     H48531  12.242   6.109  10.991 -1.3724 -1.0147  1.4611
  368MOL0     H48532  12.386   6.068  10.804 -0.2117 -0.9767  1.2086
  368MOL0     H48533  12.247   6.156  10.749  1.3081 -0.1919 -1.5678
  368MOL0     H48534  12.185   5.900  10.677 -0.8486  2.4447  0.4032
  368MOL0     H48535  12.305   5.994  10.588  0.6467  0.3010  0.5167
  368MOL0     H48536  12.381   5.800  10.811  0.8638 -2.5760 -0.3130
  368MOL0     H48537  12.489   5.884  10.693 -1.5531  2.0527 -2.8400
  368MOL0     H48538  12.326   5.523  10.474  1.0645 -1.4752  0.4403
  368MOL0     H48539  12.475   5.334  10.436 -2.8323  2.5148 -2.2319
  368MOL0     H48540  12.829   5.069  10.859 -0.2519  0.3824  0.1577
  368MOL0     H48541  13.004   4.910  10.877 -0.3984  0.1473  0.1514
  368MOL0     H48542  13.321   4.921  10.766 -3.0515 -0.4836  1.5184
  368MOL0     H48543  13.330   4.886  10.587  0.1804 -0.7099 -1.5673
  368MOL0     H48544  13.363   4.693  10.827  1.0898  0.8567  0.7563
  368MOL0     H48545  13.495   4.725  10.725  0.3075 -0.6539 -2.0992
  368MOL0     H48546  13.241   4.561  10.660  0.8169 -0.2648  0.4706
  368MOL0     H48547  13.394   4.501  10.670  1.4880  0.1723 -2.6575
  368MOL0     H48548  13.329   4.527  10.433 -1.3266 -0.7357  0.3375
  368MOL0     H48549  13.293   4.702  10.474 -0.2946  0.3369  2.9964
  368MOL0     H48550  13.552   4.543  10.441  0.9670  1.2206  0.1713
  368MOL0     H48551  13.557   4.689  10.518  1.7491  1.0493 -1.8652
  368MOL0     H48552  13.439   4.661  10.228  0.3720  1.2404 -1.2449
  368MOL0     H48553  13.604   4.707  10.264  0.9602 -1.2298 -0.3299
  368MOL0     H48554  13.421   4.899  10.214 -1.4491 -0.3349  0.5690
  368MOL0     H48555  13.347   4.858  10.357  0.0276 -1.5372 -0.7711
  368MOL0     H48556  13.628   4.959  10.316  1.2947  1.9856  1.4661
  368MOL0     H48557  13.582   4.904  10.482 -3.1592  3.2460  2.8623
  368MOL0     H48558  13.158   4.991  10.485  1.3585 -2.9240  1.9821
  368MOL0     H48559  12.989   5.183  10.462 -0.3596  1.3434  0.7666
  368MOL0     H48560  12.740   5.494  10.742  0.0668  0.7852  1.4792
  368MOL0     H48561  12.586   5.690  10.767  2.4172 -0.2433 -1.0376
  368MOL0     H48562  11.133   6.608   9.950  2.0844 -0.9952 -0.3187
  368MOL0     H48563  11.167   6.794   9.756  2.0650 -1.6495  0.1827
  368MOL0     H48564  11.325   7.218   9.699 -0.4732  0.8266  1.3798
  368MOL0     H48565  11.354   7.459   9.598  0.0978 -0.2689  0.3167
  368MOL0     H48566  11.099   7.692   9.331  1.4182 -0.1206 -1.2370
  368MOL0     H48567  11.014   7.539   9.351  0.4646 -0.4346 -1.4721
  368MOL0     H48568  11.235   7.432   9.285 -2.8825  0.9726  2.8345
  368MOL0     H48569  11.154   7.523   9.155 -1.1060 -1.2038  0.0950
  368MOL0     H48570  11.426   7.540   9.208  0.4139 -0.4525  3.1433
  368MOL0     H48571  11.374   7.628   9.346  2.4915  1.6106 -0.4683
  368MOL0     H48572  11.356   7.694   9.045  3.5284  0.2875 -0.0224
  368MOL0     H48573  11.263   7.791   9.154  0.3286 -0.2915 -0.4635
  368MOL0     H48574  11.645   7.924   9.253  0.0824  0.8808  1.5793
  368MOL0     H48575  10.926   7.482   9.561 -2.0082 -1.6680  2.8972
  368MOL0     H48576  10.902   7.279   9.684  0.3119  0.8684 -1.0799
  369MOL0     O48577   5.222   9.382   5.543 -1.1270 -0.2696  0.1746
  369MOL0     C48578   5.231   9.350   5.430  0.9647  0.3390  0.1446
  369MOL0     O48579   5.292   9.242   5.381  0.4555  0.4786 -0.7701
  369MOL0     C48580   5.350   9.145   5.462  0.3648 -0.1963  0.0622
  369MOL0     C48581   5.426   9.190   5.575  0.0762  0.6125 -0.1151
  369MOL0     C48582   5.488   9.097   5.661 -0.5370  0.4308  0.2115
  369MOL0     C48583   5.485   8.957   5.636  0.1090 -0.1655  0.3859
  369MOL0     O48584   5.542   8.876   5.725 -0.0260  0.1587  0.5234
  369MOL0     C48585   5.513   8.727   5.714 -0.6681  0.4276  0.2254
  369MOL0     C48586   5.513   8.683   5.857  0.3615 -0.4328 -0.5064
  369MOL0     C48587   5.523   8.526   5.853 -0.3751 -0.3816 -0.7575
  369MOL0     C48588   5.549   8.454   5.983  0.5226 -0.8050  0.5495
  369MOL0     C48589   5.587   8.305   5.948  0.3205 -0.2231 -0.0645
  369MOL0     C48590   5.616   8.223   6.074  0.3473 -0.3395 -0.1141
  369MOL0     C48591   5.496   8.155   6.147  0.1169 -0.0649 -0.1284
  369MOL0     C48592   5.525   8.090   6.274 -0.0668 -0.3542  0.4228
  369MOL0     N48593   5.568   8.186   6.377  0.3301 -1.3677  0.4218
  369MOL0     C48594   5.496   8.241   6.487 -0.2959 -0.1202  0.2754
  369MOL0     C48595   5.594   8.308   6.560  0.6287  0.1242  0.7500
  369MOL0     C48596   5.568   8.369   6.698 -0.3395  0.2789 -0.7235
  369MOL0     C48597   5.703   8.377   6.782  0.3641 -1.0829  1.1631
  369MOL0     C48598   5.776   8.518   6.777  0.5901  0.4034 -0.1172
  369MOL0     C48599   5.908   8.497   6.843  0.2683 -0.4329  0.4574
  369MOL0     O48600   5.972   8.625   6.849  0.5763 -0.3402  0.3094
  369MOL0     C48601   6.063   8.650   6.946  0.0625 -0.0282 -0.4292
  369MOL0     C48602   6.116   8.560   7.035 -0.2841 -1.1639 -0.5358
  369MOL0     C48603   6.210   8.594   7.137 -0.6289  0.2593  1.0010
  369MOL0     C48604   6.233   8.736   7.163 -0.2500 -0.3323  0.5264
  369MOL0     C48605   6.333   8.775   7.255  0.6975 -0.0117 -0.9189
  369MOL0     O48606   6.329   8.899   7.315  0.0035  0.1475 -0.8571
  369MOL0     C48607   6.425   8.920   7.417  0.9365  0.1488 -0.0187
  369MOL0     C48608   6.545   8.979   7.390 -0.9155  0.1888 -0.1317
  369MOL0     C48609   6.645   8.998   7.487  0.2944  1.1651 -1.0872
  369MOL0     C48610   6.606   8.971   7.614 -0.9164 -0.2162  0.3331
  369MOL0     O48611   6.702   9.016   7.708  0.1238 -0.4296 -0.5264
  369MOL0     C48612   6.784   8.918   7.763 -0.0714 -0.5363  0.3558
  369MOL0     C48613   6.843   8.959   7.893  0.2829  0.6611  0.1764
  369MOL0     C48614   6.749   8.980   8.013  0.2616 -1.1083  0.3483
  369MOL0     C48615   6.648   8.877   8.057 -0.0584 -0.3831  0.8385
  369MOL0     C48616   6.620   8.891   8.204 -0.4189  0.7942  0.8200
  369MOL0     C48617   6.712   8.824   8.315  0.1390  0.0281  0.2489
  369MOL0     C48618   6.743   8.677   8.283 -0.0151  0.2665  0.2051
  369MOL0     C48619   6.810   8.612   8.406  0.6701  0.0037 -0.8676
  369MOL0    Cl48620   6.930   8.711   8.477  0.5654  0.1865 -0.0333
  369MOL0     C48621   6.488   8.902   7.641 -0.1246 -1.3963 -0.0499
  369MOL0     C48622   6.398   8.875   7.546  0.4021  0.5570  0.5508
  369MOL0     O48623   6.425   8.694   7.277 -0.2024 -1.1578 -0.5812
  369MOL0     C48624   6.179   8.830   7.061 -0.6306 -0.1979 -0.6876
  369MOL0     C48625   6.096   8.788   6.959  0.0447  0.2804 -0.6602
  369MOL0     N48626   5.711   8.304   6.489  0.0863 -0.4127  0.2787
  369MOL0     N48627   5.696   8.232   6.382  0.1252  0.1944  0.5900
  369MOL0     C48628   5.417   8.913   5.514 -0.2224 -0.6385 -0.6485
  369MOL0     C48629   5.351   9.008   5.434 -0.2569 -0.8994  0.2587
  369MOL0     C48630   5.167   9.431   5.325 -0.7435  0.3542 -0.0153
  369MOL0     C48631   5.094   9.541   5.361 -0.6457 -0.7106 -0.0272
  369MOL0     C48632   5.038   9.618   5.265  0.8865 -0.1851 -0.6116
  369MOL0     C48633   5.050   9.595   5.127 -0.2122 -0.5750 -0.5709
  369MOL0     O48634   4.976   9.677   5.045  0.6082 -0.0488 -0.0094
  369MOL0     C48635   5.013   9.712   4.908  1.4260  0.2116  0.1741
  369MOL0     C48636   5.132   9.817   4.904 -0.2494  0.2745  0.2457
  369MOL0     C48637   5.093   9.948   4.961  0.1141 -0.4334 -0.6554
  369MOL0     C48638   5.220  10.035   4.937 -0.5508 -0.1369 -0.0008
  369MOL0     C48639   5.248  10.141   5.031  0.0834  0.0229  0.4021
  369MOL0     C48640   5.230  10.208   5.131  0.1280  0.1283  0.1754
  369MOL0     C48641   5.132   9.491   5.093 -0.9165 -0.6888  0.5606
  369MOL0     C48642   5.184   9.405   5.188 -0.0683  0.6195 -0.0997
  369MOL0     H48643   5.439   9.294   5.604 -1.3122  0.0988  2.7069
  369MOL0     H48644   5.546   9.123   5.750  2.5093 -0.7400 -1.2881
  369MOL0     H48645   5.592   8.683   5.653  0.0625  0.2773  1.2387
  369MOL0     H48646   5.423   8.692   5.664 -0.4138  0.5267 -0.3024
  369MOL0     H48647   5.421   8.720   5.904  1.2130  0.0004  0.8820
  369MOL0     H48648   5.596   8.727   5.911 -1.6794  1.4168  1.3074
  369MOL0     H48649   5.594   8.497   5.775  0.6307 -1.1906  0.4157
  369MOL0     H48650   5.422   8.501   5.821  0.5774 -5.5809 -0.6438
  369MOL0     H48651   5.633   8.503   6.035 -1.6036 -0.8233  4.3357
  369MOL0     H48652   5.460   8.466   6.045  0.2875  3.2868 -0.3190
  369MOL0     H48653   5.673   8.297   5.881  0.2166 -3.8143  0.0747
  369MOL0     H48654   5.502   8.263   5.894 -1.3023  0.1208  2.1192
  369MOL0     H48655   5.666   8.293   6.141  1.6749 -0.9731 -0.4045
  369MOL0     H48656   5.679   8.142   6.037  2.3904 -0.0351  2.3519
  369MOL0     H48657   5.416   8.228   6.163  1.3856  1.8040 -1.7520
  369MOL0     H48658   5.455   8.079   6.080  0.2637 -1.4576  1.2939
  369MOL0     H48659   5.604   8.015   6.262 -0.8162 -0.8340 -2.0814
  369MOL0     H48660   5.435   8.045   6.317  0.3055  0.1864  1.8468
  369MOL0     H48661   5.392   8.220   6.512 -0.5546  1.4982  0.6605
  369MOL0     H48662   5.501   8.306   6.758  1.4156  0.1976  1.2885
  369MOL0     H48663   5.527   8.469   6.683  2.2790  1.9109  1.9175
  369MOL0     H48664   5.767   8.293   6.754 -0.2625 -1.0743 -0.4253
  369MOL0     H48665   5.675   8.363   6.886 -0.4107 -0.4286  1.0446
  369MOL0     H48666   5.800   8.554   6.677  1.6228 -0.5078 -0.2186
  369MOL0     H48667   5.715   8.592   6.830  0.4305 -1.0552  1.8505
  369MOL0     H48668   5.981   8.430   6.797  0.2710 -0.1934  0.1084
  369MOL0     H48669   5.889   8.462   6.945  1.7554 -0.9150  0.5831
  369MOL0     H48670   6.090   8.455   7.025  0.4334 -1.3498 -0.5663
  369MOL0     H48671   6.257   8.518   7.198 -0.9506 -0.6909  0.0963
  369MOL0     H48672   6.561   9.006   7.286 -2.3653  2.1365  0.0895
  369MOL0     H48673   6.744   9.037   7.466  1.1743 -1.8733 -3.2268
  369MOL0     H48674   6.865   8.884   7.697  0.8973  0.4507  1.0069
  369MOL0     H48675   6.725   8.829   7.784  0.5781 -0.9308  0.5623
  369MOL0     H48676   6.891   9.054   7.869  0.9957  0.4760  0.8354
  369MOL0     H48677   6.917   8.889   7.933  0.8517  2.0100  1.6097
  369MOL0     H48678   6.693   9.071   7.991 -0.0125 -1.4717 -0.4589
  369MOL0     H48679   6.810   8.997   8.103  0.3724 -2.4817  0.5568
  369MOL0     H48680   6.554   8.899   8.006  2.1640  1.8639 -2.6861
  369MOL0     H48681   6.677   8.776   8.029  0.1267  0.7840 -3.9266
  369MOL0     H48682   6.518   8.851   8.210  1.1244 -3.4990  2.4992
  369MOL0     H48683   6.610   8.998   8.224 -1.6601  1.3143 -1.9663
  369MOL0     H48684   6.667   8.840   8.413 -1.8040  2.0069 -0.9021
  369MOL0     H48685   6.806   8.880   8.312 -0.0484  0.5078  2.1302
  369MOL0     H48686   6.655   8.613   8.268  1.9658 -2.4867 -0.4085
  369MOL0     H48687   6.808   8.670   8.195 -2.1347 -1.6529 -1.3249
  369MOL0     H48688   6.859   8.518   8.378  0.3422  0.2822 -2.5057
  369MOL0     H48689   6.738   8.591   8.486  1.4064 -0.5373 -0.3322
  369MOL0     H48690   6.461   8.892   7.746  4.2152  1.3873  1.6402
  369MOL0     H48691   6.303   8.828   7.571  0.9592 -0.5145  0.7021
  369MOL0     H48692   6.185   8.934   7.088  1.3759 -0.3292 -0.4758
  369MOL0     H48693   6.035   8.858   6.904  0.4767  0.5745 -0.7702
  369MOL0     H48694   5.411   8.814   5.469  0.0051 -1.1461  0.3947
  369MOL0     H48695   5.313   8.986   5.335 -0.4421  3.1544 -0.7684
  369MOL0     H48696   5.079   9.571   5.464  1.0669  2.1687 -0.5075
  369MOL0     H48697   4.968   9.698   5.286 -0.0363 -0.2547 -3.0416
  369MOL0     H48698   4.932   9.753   4.847  2.7688  1.9370 -0.5333
  369MOL0     H48699   5.045   9.619   4.861  2.8928  2.0008 -2.6390
  369MOL0     H48700   5.214   9.775   4.963  1.5556  2.7294 -0.3622
  369MOL0     H48701   5.176   9.805   4.805 -1.5898 -0.9488 -0.2502
  369MOL0     H48702   5.065   9.935   5.066 -4.5271  1.5969 -1.4239
  369MOL0     H48703   5.015  10.005   4.910 -1.9278 -2.3530  0.1953
  369MOL0     H48704   5.312   9.976   4.945  1.9330  3.6224  2.3740
  369MOL0     H48705   5.209  10.078   4.837 -0.3941 -0.8472 -0.3364
  369MOL0     H48706   5.207  10.263   5.220 -1.1720  0.2600 -0.2192
  369MOL0     H48707   5.164   9.476   4.991  3.9628  1.2442  1.5597
  369MOL0     H48708   5.229   9.313   5.154  1.2920  1.2252 -0.0043
  370MOL0     O48709   7.215   1.903   9.523 -0.2750  0.1654 -0.8095
  370MOL0     C48710   7.172   2.006   9.469 -1.2956 -0.8092  0.0791
  370MOL0     O48711   7.051   2.032   9.416 -0.5063  0.8953 -0.3222
  370MOL0     C48712   6.962   1.937   9.428  0.8615  0.3955 -0.0536
  370MOL0     C48713   6.874   1.942   9.544 -0.7618  0.2383 -0.2335
  370MOL0     C48714   6.772   1.845   9.561  0.0959 -0.5315 -0.7002
  370MOL0     C48715   6.765   1.736   9.478  0.0062 -0.5022 -0.7523
  370MOL0     O48716   6.686   1.628   9.511  0.7246  0.1184  0.1827
  370MOL0     C48717   6.567   1.620   9.424  0.2499  0.2699  0.3551
  370MOL0     C48718   6.491   1.487   9.407  0.2436 -0.0475  0.6933
  370MOL0     C48719   6.438   1.466   9.554 -0.4571  0.8413  0.6408
  370MOL0     C48720   6.361   1.336   9.573 -0.5668 -0.8685 -0.2338
  370MOL0     C48721   6.464   1.226   9.575  0.2423  0.8520 -0.5485
  370MOL0     C48722   6.423   1.112   9.662  0.2181  0.3849 -0.0160
  370MOL0     C48723   6.517   0.998   9.633 -1.0006 -0.0107 -0.6817
  370MOL0     C48724   6.511   0.906   9.751 -0.7250 -0.7456 -0.9422
  370MOL0     N48725   6.378   0.848   9.781 -0.0337 -0.5534  0.2573
  370MOL0     C48726   6.318   0.760   9.693 -0.6005 -0.2403  0.4094
  370MOL0     C48727   6.216   0.717   9.758  0.6902  0.6136 -0.7167
  370MOL0     C48728   6.137   0.615   9.684 -0.3508  0.2251 -0.2398
  370MOL0     C48729   6.063   0.523   9.776 -0.3504 -1.1653 -0.6095
  370MOL0     C48730   6.147   0.431   9.849 -0.1172  0.3611 -0.4364
  370MOL0     C48731   6.097   0.283   9.845  0.8119 -0.2558 -0.0990
  370MOL0     O48732   6.188   0.190   9.891  0.2816 -0.3310 -0.1603
  370MOL0     C48733   6.195   0.170  10.027  0.2959  0.3855  0.1241
  370MOL0     C48734   6.091   0.200  10.114  0.0606  0.2374 -0.5231
  370MOL0     C48735   6.107   0.178  10.247 -0.1413  0.1581 -0.2147
  370MOL0     C48736   6.226   0.132  10.306 -0.3963 -0.0575  0.4174
  370MOL0     C48737   6.216   0.118  10.451 -0.3435 -0.8906 -0.2485
  370MOL0     O48738   6.302   0.026  10.514 -0.6960  0.6226  0.1953
  370MOL0     C48739   6.293   0.017  10.652  0.9434 -0.0808 -0.2099
  370MOL0     C48740   6.276   0.132  10.747 -0.8746  0.2300 -0.5720
  370MOL0     C48741   6.254   0.108  10.883  0.2414 -0.5713  0.2320
  370MOL0     C48742   6.246  -0.023  10.929 -0.4932  0.0334 -1.0458
  370MOL0     O48743   6.233  -0.031  11.070  0.0304 -0.0392 -0.0068
  370MOL0     C48744   6.126  -0.115  11.118 -0.2797  0.4044  0.9982
  370MOL0     C48745   6.164  -0.158  11.257 -0.3105  1.0397  0.7512
  370MOL0     C48746   6.286  -0.253  11.257  0.6655  0.2313 -0.4320
  370MOL0     C48747   6.301  -0.334  11.391 -0.0399  0.4954  0.6119
  370MOL0     C48748   6.209  -0.462  11.398 -0.4047  0.8693  1.0410
  370MOL0     C48749   6.161  -0.520  11.534 -1.1555 -0.4508  0.2039
  370MOL0     C48750   6.108  -0.663  11.529  0.1954 -0.5063  0.1600
  370MOL0     C48751   6.058  -0.701  11.675  0.4602  0.6880  0.1318
  370MOL0    Cl48752   6.100  -0.882  11.687  0.0987 -0.1231  0.3644
  370MOL0     C48753   6.268  -0.134  10.843 -0.4895  0.1480  0.2006
  370MOL0     C48754   6.302  -0.112  10.705  0.2506  0.2146 -0.0038
  370MOL0     O48755   6.135   0.187  10.512  0.1655 -0.3079  0.1826
  370MOL0     C48756   6.330   0.098  10.213 -0.2857  0.1869 -0.4688
  370MOL0     C48757   6.310   0.118  10.076 -0.1390  0.7537 -0.7499
  370MOL0     N48758   6.189   0.796   9.872  0.3829  0.0345  0.7182
  370MOL0     N48759   6.300   0.870   9.882  0.6034 -0.8244  0.1445
  370MOL0     C48760   6.851   1.729   9.364 -0.0042 -0.1158  0.4621
  370MOL0     C48761   6.951   1.830   9.334  0.5229 -0.4620  0.1509
  370MOL0     C48762   7.277   2.108   9.443 -0.0721 -0.6935 -0.4737
  370MOL0     C48763   7.399   2.100   9.509  0.2058  0.1763 -0.1274
  370MOL0     C48764   7.496   2.201   9.481  0.5903  0.8218  0.8703
  370MOL0     C48765   7.477   2.310   9.394 -0.8358 -0.1948 -0.2917
  370MOL0     O48766   7.562   2.410   9.371 -1.1041 -0.9001  0.0361
  370MOL0     C48767   7.689   2.418   9.437 -0.0376  0.4625  1.0216
  370MOL0     C48768   7.662   2.468   9.584 -0.4826  0.7761 -0.4564
  370MOL0     C48769   7.691   2.615   9.614 -0.0231 -0.1579  0.6798
  370MOL0     C48770   7.608   2.668   9.741  0.1107 -0.6935  0.3961
  370MOL0     C48771   7.476   2.715   9.695  0.5229 -0.0301  0.4834
  370MOL0     C48772   7.373   2.742   9.644  0.4714  0.1406  0.7302
  370MOL0     C48773   7.364   2.301   9.312  0.7086  0.6913 -0.6530
  370MOL0     C48774   7.256   2.205   9.342 -0.4753  0.7686 -0.5339
  370MOL0     H48775   6.901   2.030   9.602 -0.2104 -0.6664  0.9183
  370MOL0     H48776   6.710   1.841   9.649  0.9106 -0.8765 -0.1342
  370MOL0     H48777   6.585   1.650   9.321 -0.9912 -0.7311 -0.1919
  370MOL0     H48778   6.496   1.694   9.464  0.0034  2.0192 -2.9879
  370MOL0     H48779   6.562   1.408   9.378 -1.2182 -1.0282 -0.3615
  370MOL0     H48780   6.405   1.497   9.340  1.0762  1.8462 -0.1472
  370MOL0     H48781   6.358   1.529   9.593 -0.6960  0.1438  1.2972
  370MOL0     H48782   6.520   1.467   9.625 -0.6896 -3.3718  1.2395
  370MOL0     H48783   6.322   1.350   9.674  1.1907 -0.5382  0.4250
  370MOL0     H48784   6.277   1.327   9.502 -1.1338 -0.0320  0.3085
  370MOL0     H48785   6.567   1.247   9.604  1.7354 -4.4956 -0.9442
  370MOL0     H48786   6.482   1.205   9.469  0.6935 -0.0761 -0.2957
  370MOL0     H48787   6.318   1.088   9.640 -0.2077  0.9641  1.2527
  370MOL0     H48788   6.424   1.140   9.768 -2.3464  1.5798 -0.2371
  370MOL0     H48789   6.484   0.943   9.544 -1.7881 -1.9667  0.7550
  370MOL0     H48790   6.622   1.030   9.627 -0.7868 -0.5169  0.2694
  370MOL0     H48791   6.543   0.957   9.843 -3.6585  0.4302 -0.4518
  370MOL0     H48792   6.586   0.829   9.732  0.5618 -0.2020  1.4774
  370MOL0     H48793   6.365   0.746   9.597 -1.0171  2.2732 -0.2173
  370MOL0     H48794   6.206   0.567   9.615 -0.3526  1.1275 -0.8896
  370MOL0     H48795   6.056   0.666   9.631 -1.0593 -0.5066  0.1051
  370MOL0     H48796   5.999   0.464   9.710  0.6037 -3.2269  0.2296
  370MOL0     H48797   5.999   0.573   9.849 -2.0315 -1.4853 -1.7898
  370MOL0     H48798   6.246   0.425   9.803 -0.3802 -2.5614 -0.7994
  370MOL0     H48799   6.159   0.460   9.953 -0.2970 -1.7098  0.2215
  370MOL0     H48800   6.085   0.243   9.744 -2.0925 -2.5001  1.0124
  370MOL0     H48801   5.994   0.270   9.879 -1.5496  0.1251 -5.9855
  370MOL0     H48802   5.991   0.226  10.081 -0.3816  1.4457  1.6005
  370MOL0     H48803   6.028   0.202  10.318  2.3043  3.1393  1.7910
  370MOL0     H48804   6.264   0.235  10.715  1.9242  0.2684 -1.7288
  370MOL0     H48805   6.246   0.188  10.956  0.7512 -0.2243 -0.0844
  370MOL0     H48806   6.114  -0.206  11.059 -1.1583  0.1274  1.5958
  370MOL0     H48807   6.029  -0.064  11.117 -1.1150 -0.9444  3.7286
  370MOL0     H48808   6.078  -0.212  11.297  1.8916 -4.5764 -1.1209
  370MOL0     H48809   6.183  -0.077  11.329 -3.6911  3.5289 -0.9046
  370MOL0     H48810   6.371  -0.187  11.236  1.0010 -0.3422 -0.9056
  370MOL0     H48811   6.279  -0.326  11.176 -0.0888 -1.5314  1.1557
  370MOL0     H48812   6.405  -0.366  11.403 -0.0478  0.2545  0.0450
  370MOL0     H48813   6.277  -0.262  11.470 -2.7212  1.7606 -1.2027
  370MOL0     H48814   6.267  -0.542  11.351 -0.9848  1.3370 -0.5337
  370MOL0     H48815   6.119  -0.450  11.337 -0.8257 -0.3722  1.3717
  370MOL0     H48816   6.084  -0.450  11.565 -2.4956 -2.6723  2.1899
  370MOL0     H48817   6.239  -0.511  11.611 -2.1154 -1.8261  1.3837
  370MOL0     H48818   6.030  -0.666  11.453  0.2706 -2.5716  0.1279
  370MOL0     H48819   6.196  -0.724  11.505 -0.4189 -2.3539  2.3110
  370MOL0     H48820   5.954  -0.668  11.684  0.4104  0.1611  1.7036
  370MOL0     H48821   6.113  -0.655  11.757  0.6734 -2.3420  1.8244
  370MOL0     H48822   6.284  -0.232  10.888  0.3903  0.3819  0.4122
  370MOL0     H48823   6.338  -0.185  10.633  0.7596 -0.4134  0.8633
  370MOL0     H48824   6.426   0.067  10.254 -0.5012  1.3507  1.0112
  370MOL0     H48825   6.396   0.112  10.010  1.1626 -0.5377  0.9854
  370MOL0     H48826   6.839   1.648   9.292 -0.9865  0.1175  0.3567
  370MOL0     H48827   7.016   1.827   9.247  1.8489  2.8941  0.8768
  370MOL0     H48828   7.417   2.021   9.581 -0.1263  0.5075  0.3257
  370MOL0     H48829   7.591   2.200   9.533  0.9066 -2.1550  0.4538
  370MOL0     H48830   7.749   2.486   9.376  1.3781 -1.0723  0.6519
  370MOL0     H48831   7.749   2.327   9.429  0.3194  0.7593  0.2150
  370MOL0     H48832   7.555   2.447   9.598 -0.4912  0.0446 -1.5094
  370MOL0     H48833   7.719   2.404   9.653 -3.2230 -0.0217  1.2388
  370MOL0     H48834   7.688   2.681   9.526  1.6166 -0.5626  0.2838
  370MOL0     H48835   7.797   2.621   9.642  0.3107  5.4593 -0.5930
  370MOL0     H48836   7.594   2.579   9.804  0.3552 -1.0981 -0.1105
  370MOL0     H48837   7.657   2.751   9.792 -1.0859 -0.7225  1.6455
  370MOL0     H48838   7.288   2.738   9.578  1.5237 -2.9414 -0.6442
  370MOL0     H48839   7.326   2.377   9.244  1.7305  1.3660 -0.4786
  370MOL0     H48840   7.158   2.215   9.296 -0.7620  0.9555  0.0989
  371MOL0     O48841   5.593  10.618  10.248  0.1973  0.5216  0.2802
  371MOL0     C48842   5.626  10.510  10.201 -0.4033  0.0003  0.5865
  371MOL0     O48843   5.643  10.405  10.275 -0.4359 -0.0525 -0.0757
  371MOL0     C48844   5.616  10.384  10.412  0.3050 -0.2709  0.8335
  371MOL0     C48845   5.630  10.250  10.449 -0.7777  0.1204  0.1020
  371MOL0     C48846   5.603  10.210  10.578 -0.0781 -0.0806  0.0161
  371MOL0     C48847   5.556  10.299  10.669  0.0747 -0.3858 -0.9252
  371MOL0     O48848   5.520  10.265  10.799 -0.0768 -0.9085 -0.3379
  371MOL0     C48849   5.410  10.182  10.813 -0.4630  0.1345 -0.5857
  371MOL0     C48850   5.360  10.186  10.966 -0.1093 -0.3089  0.3204
  371MOL0     C48851   5.459  10.121  11.075  0.1438 -1.2622  0.8985
  371MOL0     C48852   5.395  10.112  11.211  0.1303 -0.0874  0.3620
  371MOL0     C48853   5.466  10.027  11.314  0.1826  0.0742  0.3921
  371MOL0     C48854   5.608  10.073  11.339  0.1526 -0.0782 -0.3030
  371MOL0     C48855   5.665  10.007  11.462  0.8103 -0.5204 -0.1389
  371MOL0     C48856   5.797  10.081  11.516  0.1303  0.6968  0.7286
  371MOL0     N48857   5.757  10.221  11.555 -0.1244 -0.5885  0.3325
  371MOL0     C48858   5.792  10.336  11.493 -0.9569  0.4144 -0.5599
  371MOL0     C48859   5.729  10.439  11.550 -0.0728  0.2411 -0.7791
  371MOL0     C48860   5.726  10.583  11.501 -0.7094 -0.2516  0.4027
  371MOL0     C48861   5.759  10.601  11.349 -0.0453  0.4219 -0.4383
  371MOL0     C48862   5.769  10.752  11.327 -0.3702 -0.4580 -0.3319
  371MOL0     C48863   5.828  10.803  11.201  0.0438 -0.6330 -0.0911
  371MOL0     O48864   5.972  10.820  11.185 -1.2790  0.0138  0.1132
  371MOL0     C48865   6.022  10.846  11.059  0.1875 -1.0682  1.0154
  371MOL0     C48866   6.162  10.842  11.056 -0.5300  0.6035 -0.6637
  371MOL0     C48867   6.242  10.884  10.950  0.1672 -0.5978 -0.4339
  371MOL0     C48868   6.171  10.931  10.838 -0.6769  0.7048  0.1422
  371MOL0     C48869   6.248  10.953  10.715 -0.4025  0.7883 -0.4231
  371MOL0     O48870   6.173  10.978  10.595  0.0245 -0.2001  0.6313
  371MOL0     C48871   6.246  10.998  10.475  0.4798  0.3603  0.2157
  371MOL0     C48872   6.230  11.122  10.402  0.1156 -0.2652 -0.4008
  371MOL0     C48873   6.315  11.145  10.294  0.0612 -0.6514  0.5900
  371MOL0     C48874   6.402  11.047  10.245 -0.1321 -0.1599  0.1001
  371MOL0     O48875   6.491  11.069  10.140 -0.6074 -0.0199 -0.4864
  371MOL0     C48876   6.471  11.183  10.062 -0.6631  0.1820 -0.2261
  371MOL0     C48877   6.565  11.191   9.942 -0.8750 -0.4241  0.0196
  371MOL0     C48878   6.723  11.201   9.978  0.7987 -0.0909 -0.0037
  371MOL0     C48879   6.796  11.222   9.843  0.0180 -0.6026 -0.0817
  371MOL0     C48880   6.946  11.270   9.828  0.9687  0.7151 -0.2551
  371MOL0     C48881   7.041  11.159   9.864 -0.2089  0.3049  0.1354
  371MOL0     C48882   7.177  11.220   9.861 -0.8233 -0.5980  0.6501
  371MOL0     C48883   7.250  11.185   9.726 -0.0455 -0.8761 -0.1275
  371MOL0    Cl48884   7.209  11.340   9.632 -0.1170 -0.3125 -0.1499
  371MOL0     C48885   6.414  10.928  10.316 -0.2739 -0.1927  0.2383
  371MOL0     C48886   6.332  10.897  10.427  0.2229  0.1502  0.8088
  371MOL0     O48887   6.371  10.927  10.720  0.7662 -0.3767  0.6667
  371MOL0     C48888   6.027  10.944  10.840 -0.3406  0.2518  0.6228
  371MOL0     C48889   5.954  10.902  10.955 -0.5206  0.0384  0.2548
  371MOL0     N48890   5.655  10.384  11.658  0.0399 -0.2911 -0.0489
  371MOL0     N48891   5.674  10.263  11.662  0.3536 -0.4220 -0.3035
  371MOL0     C48892   5.536  10.436  10.638 -0.6159 -0.4363  0.1197
  371MOL0     C48893   5.565  10.473  10.511  0.1089 -0.7808  0.6799
  371MOL0     C48894   5.656  10.508  10.052 -0.2007 -0.0302  0.7862
  371MOL0     C48895   5.689  10.386   9.984 -0.3071  0.8619 -0.5742
  371MOL0     C48896   5.723  10.372   9.850 -0.6273  0.1404  0.7646
  371MOL0     C48897   5.721  10.489   9.770 -0.2082 -0.6124 -0.4279
  371MOL0     O48898   5.746  10.499   9.630  0.2099  0.1292 -0.4569
  371MOL0     C48899   5.744  10.377   9.551  0.0343  1.1188  0.2339
  371MOL0     C48900   5.793  10.403   9.405 -0.9444  0.2223 -0.2881
  371MOL0     C48901   5.688  10.474   9.324  0.4529  0.2676  0.4023
  371MOL0     C48902   5.758  10.565   9.213 -0.8066  0.2785  0.1075
  371MOL0     C48903   5.657  10.611   9.124  0.5742  1.1590 -0.6335
  371MOL0     C48904   5.566  10.634   9.048  0.5494  0.6013 -0.0152
  371MOL0     C48905   5.691  10.611   9.829  0.3870  0.4887  0.0039
  371MOL0     C48906   5.660  10.627   9.964  0.0222  0.0713 -0.1236
  371MOL0     H48907   5.660  10.177  10.374 -3.7070 -0.5743 -0.5419
  371MOL0     H48908   5.609  10.108  10.612  1.5638  0.0959  0.3589
  371MOL0     H48909   5.442  10.082  10.782 -1.7088 -0.3297 -0.4555
  371MOL0     H48910   5.335  10.217  10.741 -0.3427 -0.9792 -1.2791
  371MOL0     H48911   5.267  10.128  10.971 -1.1273  1.1498 -0.6436
  371MOL0     H48912   5.341  10.287  11.003 -5.0987 -0.8799  0.0161
  371MOL0     H48913   5.557  10.167  11.061 -0.6162 -0.5817 -3.2249
  371MOL0     H48914   5.468  10.016  11.046  2.8266 -0.7028 -0.6173
  371MOL0     H48915   5.389  10.214  11.251  1.0461  0.4681 -0.8221
  371MOL0     H48916   5.289  10.083  11.209 -0.0047  0.2237  2.0637
  371MOL0     H48917   5.482   9.921  11.293  3.7606  0.4285  0.7223
  371MOL0     H48918   5.407  10.029  11.406 -2.8118 -0.4505 -1.3821
  371MOL0     H48919   5.602  10.182  11.343 -1.2852 -0.1660  0.6162
  371MOL0     H48920   5.661  10.034  11.251 -3.7043 -1.2086 -2.3837
  371MOL0     H48921   5.592  10.015  11.543  2.6977 -1.4908  1.7484
  371MOL0     H48922   5.697   9.905  11.438 -0.7314 -1.1098  0.1777
  371MOL0     H48923   5.877  10.065  11.443 -0.6193  0.3007 -0.0179
  371MOL0     H48924   5.823  10.035  11.611 -1.5030 -1.1817  0.3319
  371MOL0     H48925   5.840  10.352  11.397 -1.4852  0.8870 -0.7509
  371MOL0     H48926   5.806  10.638  11.553  1.0757  1.1911 -3.5001
  371MOL0     H48927   5.634  10.635  11.530 -1.0086 -0.2289 -0.5531
  371MOL0     H48928   5.676  10.545  11.304 -1.4877  0.1321  2.3668
  371MOL0     H48929   5.858  10.557  11.332 -0.7688 -2.2402  1.5797
  371MOL0     H48930   5.666  10.789  11.333 -0.6989 -1.3288 -0.3834
  371MOL0     H48931   5.824  10.806  11.405 -0.5623  0.5886 -0.9051
  371MOL0     H48932   5.768  10.890  11.173 -0.2906  0.3904  3.4185
  371MOL0     H48933   5.797  10.730  11.126  0.7681 -1.4176  0.3593
  371MOL0     H48934   6.204  10.799  11.146 -2.3485  0.1923  0.0268
  371MOL0     H48935   6.350  10.878  10.957  0.1304 -0.1146  1.0783
  371MOL0     H48936   6.165  11.204  10.432 -0.2112 -0.5991 -0.2006
  371MOL0     H48937   6.315  11.247  10.258 -2.1750 -1.4717 -2.0791
  371MOL0     H48938   6.492  11.278  10.112  0.9609  0.0921 -0.6877
  371MOL0     H48939   6.368  11.184  10.027 -1.0587  0.6082  0.8947
  371MOL0     H48940   6.516  11.271   9.885 -0.8910 -1.1053 -0.9326
  371MOL0     H48941   6.551  11.102   9.880  3.0551 -0.3105 -1.3016
  371MOL0     H48942   6.765  11.105  10.011 -0.0223 -0.4330  0.0853
  371MOL0     H48943   6.739  11.279  10.052 -2.9321  1.1839 -0.3146
  371MOL0     H48944   6.785  11.121   9.802 -3.0262 -1.7653  3.0278
  371MOL0     H48945   6.734  11.303   9.803 -0.9831 -0.1812  2.1803
  371MOL0     H48946   6.966  11.353   9.897 -0.8536 -0.3809  1.7074
  371MOL0     H48947   6.973  11.291   9.724  3.5437 -1.3431 -0.0923
  371MOL0     H48948   7.027  11.077   9.792  1.5311 -0.9209  1.1144
  371MOL0     H48949   7.024  11.120   9.964 -0.3816 -1.8905 -0.6945
  371MOL0     H48950   7.177  11.328   9.883  0.5916 -0.2809 -0.7564
  371MOL0     H48951   7.239  11.180   9.941 -1.3546 -3.7521 -0.3884
  371MOL0     H48952   7.226  11.089   9.680 -0.5981 -1.2825  0.9910
  371MOL0     H48953   7.358  11.182   9.744  0.0015  0.9100  0.1063
  371MOL0     H48954   6.488  10.855  10.285  0.9732  0.1806  2.1680
  371MOL0     H48955   6.327  10.795  10.463 -2.0355 -0.9888 -2.2715
  371MOL0     H48956   5.976  10.985  10.753  2.1401  1.0489 -0.5484
  371MOL0     H48957   5.845  10.909  10.951 -0.3826  2.3739 -1.5294
  371MOL0     H48958   5.502  10.505  10.713 -3.0251  0.2545 -1.4955
  371MOL0     H48959   5.561  10.580  10.494  3.5871 -0.8368 -1.6587
  371MOL0     H48960   5.701  10.303  10.053  0.9746  2.3547  1.0939
  371MOL0     H48961   5.751  10.273   9.816 -1.9455 -0.4240  1.2532
  371MOL0     H48962   5.641  10.341   9.553  0.0876  0.9685  2.1921
  371MOL0     H48963   5.804  10.299   9.598 -2.7235 -1.0753  0.3910
  371MOL0     H48964   5.883  10.465   9.407  0.9037 -2.3198  1.2723
  371MOL0     H48965   5.804  10.309   9.351  0.2884 -3.1888  5.0873
  371MOL0     H48966   5.617  10.542   9.372 -2.1669 -0.9304 -1.5496
  371MOL0     H48967   5.619  10.400   9.283  0.0416  0.2800  1.0540
  371MOL0     H48968   5.813  10.648   9.256 -1.4847 -0.4116  2.4853
  371MOL0     H48969   5.827  10.505   9.152 -1.5642  1.1822 -1.7058
  371MOL0     H48970   5.489  10.656   8.977 -0.4494  2.3655  1.5109
  371MOL0     H48971   5.681  10.701   9.769 -1.3286  0.6279  0.4444
  371MOL0     H48972   5.636  10.725  10.005 -0.2558  0.2841 -0.7982
  372MOL0     O48973   0.537   9.969   8.562 -0.2439 -0.0753  0.6475
  372MOL0     C48974   0.595   9.873   8.509 -0.7433  0.0404  0.5683
  372MOL0     O48975   0.535   9.766   8.450 -0.8621  0.1604  0.1768
  372MOL0     C48976   0.404   9.759   8.450  0.2378  0.4223 -0.1205
  372MOL0     C48977   0.340   9.709   8.565 -1.0621 -0.0343  0.2512
  372MOL0     C48978   0.200   9.702   8.559 -1.1349 -0.3983  0.3081
  372MOL0     C48979   0.120   9.751   8.451 -0.0822 -0.8309 -0.0518
  372MOL0     O48980  -0.019   9.739   8.454 -0.4801  0.6984  0.4261
  372MOL0     C48981  -0.067   9.669   8.343  0.1617  0.2510  0.5304
  372MOL0     C48982  -0.218   9.673   8.343 -0.6398 -0.0943  0.1791
  372MOL0     C48983  -0.275   9.662   8.202  0.2127  0.5330 -0.0506
  372MOL0     C48984  -0.430   9.626   8.202 -0.0474  1.0321 -0.5052
  372MOL0     C48985  -0.471   9.503   8.110 -0.6145 -0.4756 -0.3206
  372MOL0     C48986  -0.621   9.479   8.129 -0.6959  0.2514 -0.2361
  372MOL0     C48987  -0.699   9.394   8.021 -0.0614 -0.4127 -0.8268
  372MOL0     C48988  -0.846   9.362   8.071 -0.0260  0.0209  0.0758
  372MOL0     N48989  -0.849   9.342   8.214 -0.3103 -0.2758 -0.5674
  372MOL0     C48990  -0.842   9.218   8.266 -0.4384 -0.2014 -0.0208
  372MOL0     C48991  -0.913   9.226   8.380  0.1979  0.4291  0.3884
  372MOL0     C48992  -0.960   9.110   8.453 -0.1638 -0.3279  0.1104
  372MOL0     C48993  -1.098   9.146   8.515 -0.4019  0.6947  0.2439
  372MOL0     C48994  -1.169   9.039   8.595 -0.6351 -1.0495 -0.2206
  372MOL0     C48995  -1.304   9.064   8.661  0.3536 -0.4556 -0.7292
  372MOL0     O48996  -1.290   9.181   8.756  0.1204  0.4085 -0.2906
  372MOL0     C48997  -1.401   9.238   8.813  0.6132 -0.4956  0.1725
  372MOL0     C48998  -1.531   9.200   8.789 -0.0067  0.5696 -0.7987
  372MOL0     C48999  -1.638   9.266   8.849  0.2623 -0.3763  0.5570
  372MOL0     C49000  -1.622   9.374   8.939 -0.4430 -0.2498  0.2765
  372MOL0     C49001  -1.723   9.445   9.004 -0.5139 -0.1593  0.0699
  372MOL0     O49002  -1.854   9.407   8.966  0.2212  1.0123  0.6312
  372MOL0     C49003  -1.951   9.464   9.037  0.1565  0.5066 -0.4281
  372MOL0     C49004  -2.048   9.388   9.094 -2.0354  0.8575 -0.9289
  372MOL0     C49005  -2.159   9.452   9.151  0.4304 -0.1691 -0.1408
  372MOL0     C49006  -2.186   9.587   9.151  0.3345  0.2354  0.5355
  372MOL0     O49007  -2.303   9.628   9.216 -1.3671 -0.0206  0.5593
  372MOL0     C49008  -2.319   9.769   9.239  0.4921  0.3562 -0.3733
  372MOL0     C49009  -2.404   9.818   9.137 -0.1308  0.0841 -0.3600
  372MOL0     C49010  -2.431   9.970   9.141 -0.0892  0.2163 -0.3396
  372MOL0     C49011  -2.493  10.033   9.270  0.4572  0.0217  0.6831
  372MOL0     C49012  -2.645  10.019   9.277 -0.0084  0.3948 -0.0333
  372MOL0     C49013  -2.683  10.020   9.421  0.3063 -0.2221  0.8996
  372MOL0     C49014  -2.654  10.159   9.473  0.8239  0.0150 -0.3761
  372MOL0     C49015  -2.690  10.169   9.621  0.0162  0.4199 -0.4786
  372MOL0    Cl49016  -2.595  10.285   9.724 -0.4215 -0.1634  0.2988
  372MOL0     C49017  -2.085   9.663   9.090  0.8013  0.1049 -0.2233
  372MOL0     C49018  -1.972   9.604   9.031 -0.6668  0.8518  0.8415
  372MOL0     O49019  -1.701   9.540   9.077  0.3121  0.8154  0.7262
  372MOL0     C49020  -1.489   9.406   8.962 -0.1431 -0.1740  0.8148
  372MOL0     C49021  -1.384   9.341   8.906 -0.0107  0.2849 -0.2333
  372MOL0     N49022  -0.961   9.357   8.395 -0.5298  0.2042  0.4238
  372MOL0     N49023  -0.915   9.429   8.299 -0.5731 -0.0516  0.3687
  372MOL0     C49024   0.191   9.797   8.336 -0.3738 -1.0047  0.9468
  372MOL0     C49025   0.328   9.797   8.333 -0.0122 -0.6687 -1.1323
  372MOL0     C49026   0.733   9.893   8.510 -0.8912  0.0378  0.6628
  372MOL0     C49027   0.798   9.969   8.610 -0.7478  0.3017  0.3936
  372MOL0     C49028   0.934   9.986   8.602  0.6817  0.6379 -0.9690
  372MOL0     C49029   1.015   9.926   8.509  0.1899  0.8815 -0.1505
  372MOL0     O49030   1.153   9.947   8.492 -0.2494 -0.2204 -0.0324
  372MOL0     C49031   1.224  10.045   8.577 -0.1690  0.4407  0.0960
  372MOL0     C49032   1.364  10.050   8.530 -0.5425 -0.9495  0.2939
  372MOL0     C49033   1.450  10.167   8.595 -0.0054 -0.0679  0.7054
  372MOL0     C49034   1.473  10.159   8.744  0.0627  0.6289 -0.8283
  372MOL0     C49035   1.532  10.282   8.802 -0.0930  0.5517  1.0273
  372MOL0     C49036   1.614  10.347   8.864 -0.6240  0.0157  0.2033
  372MOL0     C49037   0.951   9.864   8.405  0.2520 -0.2486  1.0884
  372MOL0     C49038   0.808   9.848   8.400 -0.1670 -0.4036 -0.6346
  372MOL0     H49039   0.396   9.680   8.653 -0.4349  0.4944  0.0347
  372MOL0     H49040   0.153   9.657   8.646 -0.9937 -1.6447 -0.2356
  372MOL0     H49041  -0.042   9.563   8.357 -1.1995  0.1604  2.9536
  372MOL0     H49042  -0.032   9.695   8.243  0.9633 -1.1943  0.4044
  372MOL0     H49043  -0.254   9.772   8.375  1.3572  1.1432 -1.1399
  372MOL0     H49044  -0.260   9.596   8.409  0.3188 -0.7507  0.0423
  372MOL0     H49045  -0.233   9.573   8.153 -3.9079 -1.0362 -1.1872
  372MOL0     H49046  -0.255   9.753   8.146 -0.4382  4.3664  5.2359
  372MOL0     H49047  -0.456   9.603   8.306  1.5262  4.1212  0.6751
  372MOL0     H49048  -0.487   9.715   8.174 -1.2877  0.6657  0.7460
  372MOL0     H49049  -0.405   9.417   8.130  2.4709  1.9167  0.5924
  372MOL0     H49050  -0.459   9.517   8.002 -0.2601 -0.2428 -0.2541
  372MOL0     H49051  -0.676   9.570   8.155 -2.8491 -1.6746  2.6398
  372MOL0     H49052  -0.631   9.420   8.221  0.4286  0.3431 -0.0489
  372MOL0     H49053  -0.707   9.447   7.926 -1.5864  3.1736  1.1300
  372MOL0     H49054  -0.650   9.297   8.004  1.2013  0.3002 -1.3677
  372MOL0     H49055  -0.873   9.273   8.013 -0.2983  0.8385 -1.1083
  372MOL0     H49056  -0.920   9.440   8.051 -0.3216 -0.0873  0.7265
  372MOL0     H49057  -0.794   9.130   8.224  0.0942  0.4301 -0.7597
  372MOL0     H49058  -0.897   9.074   8.535  1.0076 -1.0618 -1.0822
  372MOL0     H49059  -0.981   9.026   8.387  0.3436 -0.5022  0.1652
  372MOL0     H49060  -1.161   9.170   8.429  1.1385  1.3676 -0.7329
  372MOL0     H49061  -1.077   9.231   8.580 -0.5558 -0.6824  2.2109
  372MOL0     H49062  -1.173   8.952   8.529 -1.7952  0.0640 -1.6778
  372MOL0     H49063  -1.100   9.020   8.677 -0.6209  0.8497  0.2578
  372MOL0     H49064  -1.344   8.978   8.715 -0.9641 -0.2562 -1.3462
  372MOL0     H49065  -1.370   9.087   8.578  1.7814 -0.1035 -1.8137
  372MOL0     H49066  -1.540   9.111   8.727  1.3834 -1.5897  1.8525
  372MOL0     H49067  -1.736   9.232   8.818  0.8015 -2.7286  1.2438
  372MOL0     H49068  -2.035   9.282   9.080  1.0488  1.2467 -1.9154
  372MOL0     H49069  -2.231   9.390   9.204  1.8635 -0.8739  1.0503
  372MOL0     H49070  -2.229   9.830   9.251 -0.6252  2.1631 -0.8418
  372MOL0     H49071  -2.363   9.769   9.339  2.0492 -1.4966  0.3827
  372MOL0     H49072  -2.499   9.764   9.133  0.1774 -0.5080  0.1159
  372MOL0     H49073  -2.353   9.792   9.044  4.4209 -3.8465  2.7748
  372MOL0     H49074  -2.493   9.994   9.055 -0.5350 -0.0403 -0.0915
  372MOL0     H49075  -2.335  10.023   9.138  0.3416 -0.5060  0.2482
  372MOL0     H49076  -2.455   9.986   9.362 -2.6368 -1.0793  1.5399
  372MOL0     H49077  -2.451  10.133   9.257  0.7347 -0.2193 -0.3472
  372MOL0     H49078  -2.664   9.916   9.245 -1.4910  0.3688  0.8424
  372MOL0     H49079  -2.700  10.088   9.212 -0.9164  0.1225  0.4253
  372MOL0     H49080  -2.624   9.944   9.474  0.7735 -0.9570 -0.6225
  372MOL0     H49081  -2.784   9.979   9.408  0.9127 -1.0343 -1.9399
  372MOL0     H49082  -2.549  10.187   9.472  0.7650  0.3157  0.6344
  372MOL0     H49083  -2.704  10.242   9.422 -1.4455 -0.2839  1.2317
  372MOL0     H49084  -2.687  10.070   9.667  1.5464  0.2355 -0.9454
  372MOL0     H49085  -2.796  10.198   9.624  0.4829  2.2548 -0.6117
  372MOL0     H49086  -2.099   9.769   9.076  0.7923  0.4321  1.9443
  372MOL0     H49087  -1.892   9.665   8.990 -0.8303  1.0281  0.7834
  372MOL0     H49088  -1.459   9.492   9.020 -0.6263  0.1311  0.6221
  372MOL0     H49089  -1.280   9.373   8.916 -0.1537  0.4709  0.7681
  372MOL0     H49090   0.145   9.820   8.241  1.4130 -2.4195 -0.3304
  372MOL0     H49091   0.374   9.845   8.247  1.0112  2.3647  0.9247
  372MOL0     H49092   0.747  10.008   8.698 -0.1240  3.7836 -0.6367
  372MOL0     H49093   0.993  10.027   8.683 -1.8214 -0.1294  1.3593
  372MOL0     H49094   1.232  10.006   8.679 -0.6121 -0.8729 -0.3416
  372MOL0     H49095   1.170  10.140   8.576 -3.4882 -1.1747  2.9232
  372MOL0     H49096   1.421   9.956   8.526  2.8027  0.9549 -0.3895
  372MOL0     H49097   1.367  10.073   8.423  1.6876  1.0414  0.7084
  372MOL0     H49098   1.401  10.262   8.573 -0.6388 -0.5190  0.1702
  372MOL0     H49099   1.545  10.171   8.540 -0.1361  0.9805  0.5322
  372MOL0     H49100   1.384  10.142   8.806  0.3402  2.1388  0.0327
  372MOL0     H49101   1.537  10.071   8.750 -2.1914 -1.0753 -0.4138
  372MOL0     H49102   1.675  10.416   8.917  1.1697 -1.4768  0.1766
  372MOL0     H49103   1.017   9.827   8.328 -0.3293  0.6803  0.1229
  372MOL0     H49104   0.750   9.798   8.323 -4.9510  1.3803  1.4238
  373MOL0     O49105   2.607   6.323   8.262 -0.0220  0.2782 -0.3237
  373MOL0     C49106   2.571   6.379   8.158  0.3681 -0.7037 -0.8921
  373MOL0     O49107   2.549   6.512   8.141  0.5738  1.1806 -0.8141
  373MOL0     C49108   2.564   6.597   8.253 -0.2511 -0.0630  0.7686
  373MOL0     C49109   2.662   6.695   8.265 -0.3235 -0.8711  0.0256
  373MOL0     C49110   2.676   6.774   8.374 -0.4087 -0.8681  0.2737
  373MOL0     C49111   2.572   6.776   8.471  1.5462  0.3263 -0.9980
  373MOL0     O49112   2.578   6.836   8.595 -0.4917 -0.6317  0.5909
  373MOL0     C49113   2.694   6.918   8.610  0.1373 -0.1084 -0.5816
  373MOL0     C49114   2.800   6.848   8.677  0.1658  0.1718 -0.6178
  373MOL0     C49115   2.938   6.889   8.628 -0.3805 -1.0060 -0.5312
  373MOL0     C49116   3.061   6.803   8.686 -0.5131 -0.1218  0.6243
  373MOL0     C49117   3.058   6.659   8.636  0.4933  0.2276 -0.2566
  373MOL0     C49118   3.095   6.659   8.489 -0.4378 -0.4956 -0.0374
  373MOL0     C49119   3.120   6.512   8.446 -0.4326  0.7549 -0.1754
  373MOL0     C49120   3.200   6.489   8.317 -0.8684 -0.0477  0.9528
  373MOL0     N49121   3.267   6.352   8.285 -0.1021 -1.0459  0.5317
  373MOL0     C49122   3.393   6.318   8.316  0.6136  1.2809  0.9012
  373MOL0     C49123   3.416   6.191   8.270 -0.5959  0.1709  0.4584
  373MOL0     C49124   3.529   6.092   8.290 -0.2809  0.1922 -0.2917
  373MOL0     C49125   3.654   6.143   8.221  0.3560  0.1179 -0.8274
  373MOL0     C49126   3.623   6.192   8.074  1.1352  0.6303 -0.0826
  373MOL0     C49127   3.742   6.251   8.000 -0.5668 -0.2147 -0.1910
  373MOL0     O49128   3.847   6.151   7.980  0.4861 -0.7007  0.5904
  373MOL0     C49129   3.838   6.049   7.889  0.4657 -0.6324  0.2328
  373MOL0     C49130   3.748   6.043   7.785 -0.3570 -1.0525 -0.9265
  373MOL0     C49131   3.745   5.935   7.699  0.3506  0.3961  0.6580
  373MOL0     C49132   3.834   5.825   7.709  0.2209  0.1028 -0.6701
  373MOL0     C49133   3.808   5.709   7.625  0.1200 -1.2291  0.3267
  373MOL0     O49134   3.719   5.720   7.527  0.2473 -0.8959  1.1627
  373MOL0     C49135   3.670   5.619   7.460  0.4771 -0.1518  1.1313
  373MOL0     C49136   3.758   5.533   7.389  0.1397 -0.5001  0.0578
  373MOL0     C49137   3.708   5.420   7.324 -0.1846 -0.0371  0.5868
  373MOL0     C49138   3.574   5.389   7.320  0.0958 -0.1076 -0.4439
  373MOL0     O49139   3.527   5.282   7.248 -0.1548  0.3817  0.1814
  373MOL0     C49140   3.608   5.189   7.183  0.1975  1.1297 -0.9721
  373MOL0     C49141   3.661   5.068   7.269  0.0254 -0.8457  0.5457
  373MOL0     C49142   3.703   4.940   7.195 -0.7956  0.3969 -0.9280
  373MOL0     C49143   3.838   4.963   7.128  0.0187 -0.0843  0.5005
  373MOL0     C49144   3.896   4.828   7.090  0.4195  0.0655  0.1604
  373MOL0     C49145   3.914   4.723   7.197  0.1236 -0.1037  0.6855
  373MOL0     C49146   3.994   4.603   7.139 -0.0480 -0.5717  0.9452
  373MOL0     C49147   3.948   4.468   7.192 -0.3713  0.4726 -1.1505
  373MOL0    Cl49148   3.959   4.476   7.369  0.1153  0.3001 -0.2559
  373MOL0     C49149   3.484   5.470   7.392 -0.8116  0.0732  0.2225
  373MOL0     C49150   3.539   5.589   7.455  0.3001 -0.2051 -1.0717
  373MOL0     O49151   3.860   5.610   7.667  0.5774  0.0529 -0.0045
  373MOL0     C49152   3.928   5.825   7.813 -0.3149 -1.2612 -0.9489
  373MOL0     C49153   3.929   5.939   7.902 -0.9329 -0.8233 -0.5241
  373MOL0     N49154   3.294   6.157   8.213 -1.5505  0.8276  0.2705
  373MOL0     N49155   3.209   6.246   8.220 -0.2819 -1.3740 -0.7476
  373MOL0     C49156   2.464   6.691   8.456 -0.2189 -0.3746 -0.1282
  373MOL0     C49157   2.466   6.597   8.346  0.6672  0.9769 -0.4688
  373MOL0     C49158   2.552   6.301   8.039  0.7420  0.5188 -0.4998
  373MOL0     C49159   2.511   6.354   7.910 -0.8882 -0.4290  0.0346
  373MOL0     C49160   2.486   6.278   7.802 -0.1871  0.2490  0.0498
  373MOL0     C49161   2.513   6.142   7.809  0.2229 -0.1737  0.9157
  373MOL0     O49162   2.496   6.077   7.687 -0.3405 -0.4768  0.6868
  373MOL0     C49163   2.484   5.939   7.667 -0.3570  0.5912  0.5946
  373MOL0     C49164   2.340   5.918   7.617  0.8749  0.9693 -0.9286
  373MOL0     C49165   2.316   5.768   7.583 -0.4660  0.3242 -0.6868
  373MOL0     C49166   2.168   5.747   7.568 -1.1487  0.6219  0.4085
  373MOL0     C49167   2.110   5.808   7.448  0.1105  0.0725  0.6475
  373MOL0     C49168   2.044   5.867   7.363 -0.4905  0.3814  0.0572
  373MOL0     C49169   2.574   6.089   7.919  0.0718  0.5378  0.8285
  373MOL0     C49170   2.570   6.164   8.036  1.0737  0.2037 -0.5847
  373MOL0     H49171   2.736   6.704   8.186  1.1095  1.9636  1.5527
  373MOL0     H49172   2.766   6.834   8.383  0.9830 -2.6117 -1.3102
  373MOL0     H49173   2.663   7.006   8.668 -0.7125 -0.5975 -0.2731
  373MOL0     H49174   2.732   6.962   8.517  0.3767 -0.1628 -0.5075
  373MOL0     H49175   2.779   6.741   8.669 -1.6598  0.3204  1.2234
  373MOL0     H49176   2.802   6.870   8.784 -6.0698 -2.8281  0.6194
  373MOL0     H49177   2.947   6.993   8.662 -1.8647 -0.1895 -2.4862
  373MOL0     H49178   2.938   6.889   8.519  1.7096  1.1278 -0.6164
  373MOL0     H49179   3.161   6.840   8.660 -0.5440  1.5362  2.6051
  373MOL0     H49180   3.049   6.809   8.795 -3.0172  0.0253  0.4013
  373MOL0     H49181   2.966   6.602   8.649  0.9390 -0.1186  1.7414
  373MOL0     H49182   3.138   6.601   8.684 -0.0170 -0.5549 -0.3403
  373MOL0     H49183   3.187   6.715   8.468 -1.1731  0.8797  0.2504
  373MOL0     H49184   3.017   6.706   8.427 -0.5632  1.1599  1.3003
  373MOL0     H49185   3.176   6.467   8.529 -0.4307 -0.1638 -0.6702
  373MOL0     H49186   3.028   6.454   8.439 -0.5404  0.8544  0.3651
  373MOL0     H49187   3.279   6.565   8.312 -2.8745  2.2364 -4.8050
  373MOL0     H49188   3.129   6.505   8.235  1.7746  0.2351 -1.4174
  373MOL0     H49189   3.475   6.379   8.351  1.5657  1.9679 -2.2927
  373MOL0     H49190   3.504   5.998   8.240  0.2901 -0.1102 -0.0108
  373MOL0     H49191   3.553   6.073   8.395  0.8952 -0.4489 -0.6515
  373MOL0     H49192   3.731   6.067   8.228 -1.1921 -1.4167  0.5175
  373MOL0     H49193   3.700   6.227   8.275 -4.1242  2.1752  0.3475
  373MOL0     H49194   3.589   6.117   8.002 -0.5804  1.1727  0.1380
  373MOL0     H49195   3.552   6.275   8.075 -1.5948 -1.5077 -2.2984
  373MOL0     H49196   3.783   6.330   8.064 -0.0264 -2.3442  2.2751
  373MOL0     H49197   3.714   6.296   7.904  0.2658  1.8135  0.4561
  373MOL0     H49198   3.677   6.124   7.771 -1.2313 -1.2776  1.6323
  373MOL0     H49199   3.675   5.943   7.616 -0.6818 -0.3653  1.4395
  373MOL0     H49200   3.864   5.557   7.386  0.0051  0.3970  1.4693
  373MOL0     H49201   3.785   5.355   7.284  1.7172  1.2113  2.0278
  373MOL0     H49202   3.679   5.242   7.119  2.3307  0.7714  0.9824
  373MOL0     H49203   3.539   5.137   7.116 -1.2786 -0.2188  1.4324
  373MOL0     H49204   3.584   5.043   7.342  0.3849  1.4816  1.8483
  373MOL0     H49205   3.747   5.103   7.328 -0.6766 -0.2861  1.2556
  373MOL0     H49206   3.634   4.900   7.121  0.3053 -0.0818 -1.7204
  373MOL0     H49207   3.718   4.873   7.280  1.9310  2.4231  0.3717
  373MOL0     H49208   3.823   5.025   7.039 -2.1487 -1.1700  0.0365
  373MOL0     H49209   3.911   5.006   7.197 -0.2946  3.0920 -0.9587
  373MOL0     H49210   3.995   4.845   7.047  0.1573 -0.6976 -0.7908
  373MOL0     H49211   3.829   4.789   7.013  2.2119 -0.1960 -1.3173
  373MOL0     H49212   3.819   4.697   7.243 -1.0146  2.5516  0.0627
  373MOL0     H49213   3.971   4.771   7.277 -0.1198 -0.4487  1.0700
  373MOL0     H49214   3.991   4.599   7.030  2.3577 -1.3605  0.8621
  373MOL0     H49215   4.098   4.617   7.168 -0.8750  1.2887  3.3968
  373MOL0     H49216   4.029   4.401   7.163  0.7341 -0.5663  3.4922
  373MOL0     H49217   3.854   4.432   7.148 -2.6086  4.2539  0.0885
  373MOL0     H49218   3.379   5.442   7.397 -1.3891  1.6983 -1.7318
  373MOL0     H49219   3.476   5.654   7.515 -1.1854 -0.1048 -2.6906
  373MOL0     H49220   3.996   5.743   7.834 -1.1325 -1.3467  1.6907
  373MOL0     H49221   3.995   5.940   7.989 -2.7422 -1.4701  0.9276
  373MOL0     H49222   2.381   6.686   8.526  0.7768 -1.3803  1.0553
  373MOL0     H49223   2.382   6.529   8.333  1.8624 -0.4883 -0.7778
  373MOL0     H49224   2.497   6.461   7.900  2.6981  0.0781 -0.8899
  373MOL0     H49225   2.442   6.322   7.713 -0.0556 -0.5336 -0.4186
  373MOL0     H49226   2.494   5.882   7.760 -3.6048  1.2185  1.4608
  373MOL0     H49227   2.543   5.903   7.582 -4.0619 -2.1001 -1.1284
  373MOL0     H49228   2.268   5.953   7.691 -1.1928 -1.6316 -1.5884
  373MOL0     H49229   2.315   5.974   7.526 -3.2247  1.2054  0.1596
  373MOL0     H49230   2.350   5.705   7.666 -0.1757 -0.0546 -1.0906
  373MOL0     H49231   2.365   5.745   7.488  0.6207 -1.0037  0.1611
  373MOL0     H49232   2.145   5.640   7.570 -2.2588  0.8621  0.9202
  373MOL0     H49233   2.123   5.789   7.658 -2.5425  2.4205 -1.0482
  373MOL0     H49234   1.990   5.926   7.292 -0.1926  2.1628  1.2483
  373MOL0     H49235   2.601   5.984   7.921  2.5484  0.7959 -4.0293
  373MOL0     H49236   2.592   6.124   8.134 -3.0359  2.6615  1.6161
  374MOL0     O49237   6.394   6.296  11.025  0.3046  0.2940  0.2005
  374MOL0     C49238   6.301   6.246  10.959 -0.7408 -0.1002  0.4156
  374MOL0     O49239   6.166   6.271  10.976 -0.4131  0.0688  0.0164
  374MOL0     C49240   6.128   6.375  11.061 -0.8191 -0.0068  0.2815
  374MOL0     C49241   6.038   6.338  11.167 -1.2336  0.1656  0.5219
  374MOL0     C49242   5.986   6.424  11.263  0.3290 -0.9372  0.7614
  374MOL0     C49243   6.007   6.562  11.252  0.5280 -0.2988  0.8292
  374MOL0     O49244   5.954   6.655  11.335 -0.5641 -0.0092  0.3009
  374MOL0     C49245   5.814   6.636  11.375 -0.2069  0.2896 -0.4431
  374MOL0     C49246   5.713   6.736  11.311  0.3727  0.2723 -0.0119
  374MOL0     C49247   5.752   6.784  11.170 -0.2471  0.0491  0.1375
  374MOL0     C49248   5.644   6.857  11.091 -0.6694  0.4645  0.0613
  374MOL0     C49249   5.672   6.935  10.964 -0.0934 -0.6437 -0.4990
  374MOL0     C49250   5.550   7.019  10.917  0.1921  0.6342  0.7007
  374MOL0     C49251   5.559   7.165  10.942  0.0793  1.2737  0.1580
  374MOL0     C49252   5.426   7.230  10.895  0.1141 -1.1646  0.2169
  374MOL0     N49253   5.441   7.374  10.886  0.6448  0.5559  0.5756
  374MOL0     C49254   5.345   7.464  10.922 -0.3601 -0.3604 -1.0837
  374MOL0     C49255   5.383   7.578  10.871  0.3857 -0.1362 -0.0014
  374MOL0     C49256   5.295   7.696  10.870  1.4600  0.7178  0.0002
  374MOL0     C49257   5.180   7.679  10.769  0.3374 -0.1678 -1.0430
  374MOL0     C49258   5.123   7.806  10.708  0.2403  0.3567  0.1131
  374MOL0     C49259   5.024   7.788  10.599 -0.5300  0.1442 -0.4430
  374MOL0     O49260   4.949   7.913  10.587 -0.8943  0.2296 -0.0586
  374MOL0     C49261   4.817   7.920  10.623 -0.2963 -0.5999  1.5125
  374MOL0     C49262   4.750   7.823  10.701 -0.3975 -0.1614 -0.0169
  374MOL0     C49263   4.616   7.836  10.723  0.2097  0.0692  0.6741
  374MOL0     C49264   4.543   7.938  10.659 -0.2249 -0.5819 -0.7496
  374MOL0     C49265   4.404   7.971  10.696 -0.2055  0.4819  0.1085
  374MOL0     O49266   4.352   8.074  10.622 -0.3458 -0.4637  0.1147
  374MOL0     C49267   4.222   8.121  10.644 -0.1974  0.4114  0.7113
  374MOL0     C49268   4.155   8.132  10.768 -0.4021  0.7412 -0.1196
  374MOL0     C49269   4.030   8.180  10.780  0.2003 -0.4952  0.6232
  374MOL0     C49270   3.956   8.214  10.665 -0.5158  1.0969  0.2440
  374MOL0     O49271   3.830   8.266  10.664  0.4743  0.5427  0.2101
  374MOL0     C49272   3.760   8.272  10.788 -1.0344  0.1516  0.6921
  374MOL0     C49273   3.625   8.338  10.762  0.3571 -0.7350 -0.3803
  374MOL0     C49274   3.521   8.312  10.872  0.2263  0.3786 -0.3578
  374MOL0     C49275   3.392   8.398  10.854 -0.3438  0.3856 -0.7005
  374MOL0     C49276   3.287   8.363  10.959  0.4613 -0.0743  0.5980
  374MOL0     C49277   3.153   8.428  10.919  0.1633  1.0540  0.6482
  374MOL0     C49278   3.165   8.576  10.900  0.4513  0.3105 -0.6093
  374MOL0     C49279   3.043   8.667  10.889  0.4710 -0.4367  0.1052
  374MOL0    Cl49280   2.928   8.641  10.749 -0.0361 -0.1709  0.2539
  374MOL0     C49281   4.009   8.192  10.536 -0.8364 -0.9608 -0.4092
  374MOL0     C49282   4.145   8.153  10.533 -0.4653 -0.4027 -1.2050
  374MOL0     O49283   4.349   7.908  10.780 -0.2425  0.1073 -0.0415
  374MOL0     C49284   4.616   8.032  10.580 -0.1700  1.0860  0.7988
  374MOL0     C49285   4.751   8.027  10.564  0.4313  0.0269 -0.9936
  374MOL0     N49286   5.494   7.556  10.788 -0.5727 -0.1025 -0.1210
  374MOL0     N49287   5.519   7.436  10.790  0.3898  0.4884  1.1118
  374MOL0     C49288   6.109   6.607  11.159  0.6338  0.3213 -0.4590
  374MOL0     C49289   6.162   6.516  11.060 -0.5541 -0.3238  0.2878
  374MOL0     C49290   6.340   6.143  10.865 -0.0009 -0.6945  0.5066
  374MOL0     C49291   6.230   6.073  10.798 -0.2859 -0.0183  0.3439
  374MOL0     C49292   6.263   5.983  10.701 -0.3494 -0.0190  0.0298
  374MOL0     C49293   6.394   5.941  10.680 -0.7362  0.7989 -0.3913
  374MOL0     O49294   6.402   5.846  10.584  0.1523 -0.4184  0.2024
  374MOL0     C49295   6.384   5.716  10.640 -0.4663 -0.2459 -0.3023
  374MOL0     C49296   6.514   5.668  10.706 -0.3063 -0.6422  0.1520
  374MOL0     C49297   6.633   5.690  10.614  0.2322 -0.6389  0.5798
  374MOL0     C49298   6.758   5.637  10.685  0.6344 -0.3104 -0.2543
  374MOL0     C49299   6.877   5.674  10.618  0.2376 -0.5431  0.5591
  374MOL0     C49300   6.971   5.707  10.550  0.0665 -0.0579 -0.3454
  374MOL0     C49301   6.504   6.004  10.743 -0.6558  0.1649 -0.2034
  374MOL0     C49302   6.474   6.104  10.832 -0.3033 -0.3253  1.0653
  374MOL0     H49303   6.007   6.234  11.176 -2.1570  0.2984 -0.8046
  374MOL0     H49304   5.917   6.388  11.339 -2.5885 -1.4227 -1.9042
  374MOL0     H49305   5.825   6.667  11.480  0.7941  0.7284 -0.6646
  374MOL0     H49306   5.773   6.536  11.362  1.8654 -0.6199 -0.4457
  374MOL0     H49307   5.725   6.826  11.372  0.8731 -0.4486  0.9791
  374MOL0     H49308   5.613   6.692  11.312 -0.7582  2.6349  1.0583
  374MOL0     H49309   5.783   6.696  11.113  0.0915  1.5316 -2.1252
  374MOL0     H49310   5.844   6.844  11.167 -1.4630  1.9965 -1.1564
  374MOL0     H49311   5.566   6.782  11.074  1.6465 -2.0748 -0.0852
  374MOL0     H49312   5.602   6.929  11.162 -0.3885  1.9543 -1.2312
  374MOL0     H49313   5.713   6.871  10.885  3.2557  0.7084 -0.0380
  374MOL0     H49314   5.745   7.012  10.991 -1.6977 -0.0501  2.5742
  374MOL0     H49315   5.461   6.971  10.959 -1.7624  4.0370  0.8053
  374MOL0     H49316   5.533   7.001  10.811  2.0517  1.4212  0.2301
  374MOL0     H49317   5.575   7.186  11.048 -0.3174  0.7426  0.3295
  374MOL0     H49318   5.645   7.203  10.885 -2.4830  3.1112 -2.8131
  374MOL0     H49319   5.354   7.207  10.974  1.0289  0.3315  1.5460
  374MOL0     H49320   5.401   7.179  10.801 -0.2661 -0.7555  0.0933
  374MOL0     H49321   5.255   7.443  10.978 -0.6060 -0.9747 -1.6898
  374MOL0     H49322   5.342   7.791  10.843 -0.6396  1.7900 -0.1192
  374MOL0     H49323   5.245   7.724  10.963 -0.7296  0.1210 -0.9154
  374MOL0     H49324   5.101   7.620  10.816  1.7122 -1.3137 -0.0798
  374MOL0     H49325   5.218   7.628  10.680  4.8841  1.9044 -0.5568
  374MOL0     H49326   5.080   7.876  10.780 -1.1542  2.3747 -2.4799
  374MOL0     H49327   5.207   7.870  10.678  2.5899 -1.9165  1.3625
  374MOL0     H49328   4.962   7.701  10.621  1.8417 -1.3153  0.9086
  374MOL0     H49329   5.069   7.779  10.499 -1.4053  0.9039 -0.9234
  374MOL0     H49330   4.811   7.756  10.761 -1.6803  1.0423  2.8685
  374MOL0     H49331   4.561   7.772  10.792 -1.0217  1.1070  0.6896
  374MOL0     H49332   4.214   8.105  10.855  0.5711 -0.2541 -1.0579
  374MOL0     H49333   3.975   8.191  10.873 -1.0677 -2.1940  0.1298
  374MOL0     H49334   3.818   8.322  10.867  1.7810  1.5282 -2.0315
  374MOL0     H49335   3.736   8.169  10.815  0.9229  0.0233  2.2071
  374MOL0     H49336   3.581   8.292  10.673 -0.3764 -0.9722  0.1055
  374MOL0     H49337   3.643   8.445  10.746 -0.0242 -1.0903 -4.4472
  374MOL0     H49338   3.557   8.339  10.972  0.5463 -0.1893 -0.3157
  374MOL0     H49339   3.492   8.209  10.892  0.7101  0.6887  2.3032
  374MOL0     H49340   3.415   8.505  10.855 -1.8045  0.7154  0.8532
  374MOL0     H49341   3.357   8.382  10.751 -0.2829 -1.0903 -0.5014
  374MOL0     H49342   3.321   8.388  11.060  0.0365 -0.5149  0.8502
  374MOL0     H49343   3.272   8.255  10.948 -2.7512  0.4339 -1.0462
  374MOL0     H49344   3.086   8.404  11.002  0.1659 -2.4518 -0.2187
  374MOL0     H49345   3.112   8.381  10.829 -1.4818 -3.3799  3.4057
  374MOL0     H49346   3.240   8.610  10.973 -0.6617 -2.9615  2.3390
  374MOL0     H49347   3.209   8.584  10.800  1.2821  0.6396 -0.2341
  374MOL0     H49348   3.066   8.774  10.898  1.0958 -0.3621 -2.0035
  374MOL0     H49349   2.989   8.653  10.983  1.7466 -2.1434  0.6242
  374MOL0     H49350   3.958   8.209  10.442  2.9246 -0.5831 -2.5894
  374MOL0     H49351   4.190   8.135  10.436  0.2936  3.3182 -1.6855
  374MOL0     H49352   4.563   8.110  10.524  0.7885  3.1014  2.5758
  374MOL0     H49353   4.809   8.101  10.509 -2.1288  3.3662  0.4661
  374MOL0     H49354   6.113   6.715  11.165 -1.4098  0.3561  2.3357
  374MOL0     H49355   6.224   6.564  10.986  0.0186  0.8657  1.4825
  374MOL0     H49356   6.124   6.095  10.805 -1.1916 -3.2765 -1.1411
  374MOL0     H49357   6.178   5.937  10.653  0.3458 -1.7509  0.3808
  374MOL0     H49358   6.370   5.650  10.554  0.7702 -0.0899 -0.6497
  374MOL0     H49359   6.304   5.718  10.714  0.4340  1.7859  0.7046
  374MOL0     H49360   6.528   5.710  10.806  2.5300  0.2766 -0.5455
  374MOL0     H49361   6.503   5.562  10.733 -1.5428 -0.1221  1.8554
  374MOL0     H49362   6.643   5.794  10.579 -1.8448 -1.7141 -3.8869
  374MOL0     H49363   6.623   5.636  10.520  3.2058 -1.0837  0.4222
  374MOL0     H49364   6.750   5.690  10.780 -1.2244  0.8359 -0.9834
  374MOL0     H49365   6.756   5.529  10.705 -2.0105  0.1343  2.7605
  374MOL0     H49366   7.054   5.741  10.491  3.0004 -1.0309  2.9124
  374MOL0     H49367   6.605   5.969  10.723 -0.6419 -1.6473  2.4904
  374MOL0     H49368   6.558   6.140  10.891  0.1774 -1.0823  0.8611
  375MOL0     O49369   0.214   5.669   7.671 -0.1101  0.7356 -0.0094
  375MOL0     C49370   0.235   5.793   7.681 -0.6639 -0.1411 -0.9729
  375MOL0     O49371   0.350   5.846   7.730 -0.7064 -0.1466  0.2220
  375MOL0     C49372   0.457   5.772   7.787  0.9812  0.8130  1.3613
  375MOL0     C49373   0.445   5.654   7.855  0.1870  0.9301  0.1850
  375MOL0     C49374   0.555   5.589   7.915  0.5038  0.2932  0.5778
  375MOL0     C49375   0.682   5.650   7.913  0.3859 -0.1681  0.2938
  375MOL0     O49376   0.796   5.592   7.965 -0.5742 -0.7820 -0.1229
  375MOL0     C49377   0.783   5.486   8.062 -0.5209 -0.2001 -0.5722
  375MOL0     C49378   0.902   5.488   8.157  0.0524 -0.3497 -0.9102
  375MOL0     C49379   0.927   5.626   8.228  0.4919  1.1722 -0.1978
  375MOL0     C49380   1.046   5.596   8.318 -0.5438 -0.0072 -0.0744
  375MOL0     C49381   1.087   5.730   8.392 -0.1085 -0.1737  0.1315
  375MOL0     C49382   1.198   5.723   8.499 -0.9071  0.1667 -0.5069
  375MOL0     C49383   1.330   5.651   8.455  0.1307  0.4223  0.6646
  375MOL0     C49384   1.450   5.696   8.548  0.5315  0.0418  0.5974
  375MOL0     N49385   1.578   5.680   8.479  0.2112 -0.1936  0.4023
  375MOL0     C49386   1.636   5.777   8.401  0.6045  0.3243  0.0402
  375MOL0     C49387   1.757   5.722   8.370 -0.0005  0.0612 -0.1762
  375MOL0     C49388   1.874   5.804   8.323 -0.1061  0.1971 -0.5915
  375MOL0     C49389   1.965   5.815   8.442  0.1710 -0.0957 -0.8699
  375MOL0     C49390   2.058   5.937   8.424 -0.2329 -0.4207 -0.6035
  375MOL0     C49391   2.148   5.930   8.302  0.6662 -0.2956 -0.0777
  375MOL0     O49392   2.254   6.020   8.300 -0.2791  0.7082 -1.3523
  375MOL0     C49393   2.368   5.978   8.361 -0.3176 -0.0961 -0.4918
  375MOL0     C49394   2.471   6.072   8.375 -0.2346  0.2780  1.4294
  375MOL0     C49395   2.590   6.042   8.442  1.1622  0.0481  0.2131
  375MOL0     C49396   2.611   5.919   8.501  0.9697 -0.6826  0.8550
  375MOL0     C49397   2.748   5.887   8.551  0.9035  0.4502 -0.9087
  375MOL0     O49398   2.845   5.971   8.499 -0.4214  0.1761 -0.8040
  375MOL0     C49399   2.980   5.979   8.538  0.2272  0.3539 -0.7833
  375MOL0     C49400   3.060   5.866   8.577 -0.9335  1.4753  0.0129
  375MOL0     C49401   3.200   5.878   8.599  0.3272  0.5748  0.5302
  375MOL0     C49402   3.265   5.999   8.599  0.0503  0.2922  0.7827
  375MOL0     O49403   3.402   6.015   8.625  0.3101  0.6548 -0.9453
  375MOL0     C49404   3.458   5.913   8.707 -0.3874  0.7748  0.3448
  375MOL0     C49405   3.587   5.967   8.769 -0.4627 -0.2158  0.0579
  375MOL0     C49406   3.655   5.861   8.860 -0.2156  0.5477 -1.3048
  375MOL0     C49407   3.784   5.908   8.925 -0.4339 -0.2089 -0.3727
  375MOL0     C49408   3.870   5.803   8.988  0.1319  0.6811 -0.3835
  375MOL0     C49409   3.992   5.861   9.068  0.6174  0.5978  0.2037
  375MOL0     C49410   4.030   5.766   9.182  0.0970  1.3068 -0.1598
  375MOL0     C49411   4.125   5.834   9.282  0.7865 -0.1891 -0.2714
  375MOL0    Cl49412   4.073   5.748   9.435 -0.1614 -0.4254 -0.0335
  375MOL0     C49413   3.178   6.112   8.588  0.1191  0.8374 -0.0319
  375MOL0     C49414   3.039   6.100   8.550 -0.0602 -0.8796 -0.0341
  375MOL0     O49415   2.763   5.782   8.619 -0.0829 -0.1973  1.3019
  375MOL0     C49416   2.515   5.825   8.488 -0.3476  0.0567  0.0142
  375MOL0     C49417   2.392   5.856   8.426  0.1575  0.1379 -0.3706
  375MOL0     N49418   1.763   5.592   8.423  0.1339 -0.6018 -0.1646
  375MOL0     N49419   1.656   5.568   8.485 -0.1751  0.4511  0.0426
  375MOL0     C49420   0.692   5.773   7.849 -0.1613 -0.5038 -1.2545
  375MOL0     C49421   0.580   5.832   7.792  0.0220  0.6379  0.5276
  375MOL0     C49422   0.123   5.888   7.643  0.3407 -0.1648 -0.3705
  375MOL0     C49423   0.137   6.030   7.638  1.0083 -0.8176  0.0874
  375MOL0     C49424   0.029   6.113   7.611 -0.1840 -0.4184 -0.2289
  375MOL0     C49425  -0.097   6.066   7.584  0.7085  0.8374 -0.5787
  375MOL0     O49426  -0.213   6.146   7.567  0.2986 -0.1019  0.1300
  375MOL0     C49427  -0.344   6.100   7.524  0.4002  0.2327 -0.5802
  375MOL0     C49428  -0.430   6.055   7.646  0.0560 -0.5952 -0.0313
  375MOL0     C49429  -0.571   6.097   7.624  0.4266 -0.0750 -0.4565
  375MOL0     C49430  -0.649   6.033   7.503 -0.7364  0.2685  0.4680
  375MOL0     C49431  -0.662   5.894   7.531 -0.7970  0.5440 -0.1985
  375MOL0     C49432  -0.650   5.775   7.547 -1.3532  1.1734  0.1732
  375MOL0     C49433  -0.112   5.924   7.583 -0.1938  0.1078  1.8849
  375MOL0     C49434  -0.003   5.838   7.620  0.7991  0.3869  0.7083
  375MOL0     H49435   0.349   5.606   7.868  0.8304 -0.3376  0.3996
  375MOL0     H49436   0.545   5.488   7.954  1.2786  0.6513  1.7400
  375MOL0     H49437   0.793   5.386   8.017  3.2128  0.3861 -1.3658
  375MOL0     H49438   0.691   5.494   8.121 -0.2161  2.2361 -0.3556
  375MOL0     H49439   0.977   5.457   8.084 -0.6145  0.2035 -1.8472
  375MOL0     H49440   0.900   5.409   8.232  0.5858  0.7705  0.3283
  375MOL0     H49441   0.845   5.654   8.295 -0.8898  0.6431 -1.5866
  375MOL0     H49442   0.946   5.704   8.154  0.5799 -1.8943 -3.7142
  375MOL0     H49443   1.018   5.524   8.396 -1.1141 -0.6817 -0.8942
  375MOL0     H49444   1.130   5.561   8.258 -0.3638  3.6686 -2.3064
  375MOL0     H49445   0.998   5.769   8.442 -0.4950  1.2391 -1.5759
  375MOL0     H49446   1.124   5.809   8.327  3.7247 -2.2379 -0.4811
  375MOL0     H49447   1.152   5.663   8.578 -0.5450 -0.3402 -0.6790
  375MOL0     H49448   1.224   5.821   8.541  4.2611 -2.5746  4.0745
  375MOL0     H49449   1.335   5.542   8.464  3.4488  0.5501  1.8323
  375MOL0     H49450   1.347   5.685   8.352 -0.0262 -0.2007  0.4259
  375MOL0     H49451   1.446   5.643   8.644 -0.2661  0.8248  1.0161
  375MOL0     H49452   1.444   5.804   8.562  3.9923  0.5634 -0.9347
  375MOL0     H49453   1.590   5.875   8.390  0.8409  0.7015  2.0084
  375MOL0     H49454   1.843   5.906   8.298 -3.6929 -0.4085  0.7742
  375MOL0     H49455   1.919   5.753   8.238  0.7188  2.7354 -1.7693
  375MOL0     H49456   2.010   5.720   8.473 -1.5637  0.1489  2.9699
  375MOL0     H49457   1.906   5.834   8.532 -0.2977 -2.2936 -0.6487
  375MOL0     H49458   2.005   6.033   8.430 -1.0343 -0.5037 -4.2756
  375MOL0     H49459   2.122   5.934   8.513 -1.2319 -0.1874  0.1435
  375MOL0     H49460   2.089   5.955   8.214  0.8720 -3.6166 -1.2962
  375MOL0     H49461   2.178   5.826   8.287  0.4693 -0.1616 -1.4762
  375MOL0     H49462   2.460   6.175   8.340 -0.6651 -0.2149  0.0417
  375MOL0     H49463   2.665   6.120   8.450 -1.0258  2.3372 -0.2640
  375MOL0     H49464   3.006   5.773   8.589 -0.2993  0.5920 -3.0490
  375MOL0     H49465   3.251   5.784   8.617 -1.1674 -0.5634 -0.8776
  375MOL0     H49466   3.500   5.829   8.650 -1.6191 -0.1092  0.7060
  375MOL0     H49467   3.395   5.883   8.791  0.7031 -1.3231  0.4846
  375MOL0     H49468   3.559   6.055   8.828 -2.4316  1.3799 -3.0037
  375MOL0     H49469   3.656   6.009   8.695  0.2184  0.4584  1.0447
  375MOL0     H49470   3.671   5.771   8.801  1.8226 -0.5850  0.8172
  375MOL0     H49471   3.586   5.827   8.937  2.3233 -4.3264 -0.7767
  375MOL0     H49472   3.843   5.956   8.848  0.2703  0.6404  0.6777
  375MOL0     H49473   3.757   5.994   8.987 -1.0389 -1.2003  0.8104
  375MOL0     H49474   3.911   5.735   8.913  0.3604 -0.2194  0.5374
  375MOL0     H49475   3.808   5.734   9.046 -0.8828  1.3021 -0.6948
  375MOL0     H49476   3.968   5.957   9.114  1.6452  2.0853 -2.1712
  375MOL0     H49477   4.068   5.867   8.989 -0.8485  0.5516 -1.2871
  375MOL0     H49478   3.945   5.726   9.237  1.1817 -1.3136 -0.2162
  375MOL0     H49479   4.091   5.684   9.143 -3.5052 -1.4715 -0.4581
  375MOL0     H49480   4.108   5.942   9.287  1.8307 -0.0275 -0.0176
  375MOL0     H49481   4.230   5.817   9.256  1.4290  1.3124  1.1723
  375MOL0     H49482   3.238   6.203   8.592  0.8682  0.3787 -0.5654
  375MOL0     H49483   2.987   6.189   8.518  1.1735 -0.3128 -0.5422
  375MOL0     H49484   2.537   5.729   8.534 -2.1428 -1.0367 -1.2699
  375MOL0     H49485   2.312   5.784   8.437 -1.8564  2.4449  1.3967
  375MOL0     H49486   0.779   5.835   7.871 -2.5161  2.3905  0.8656
  375MOL0     H49487   0.590   5.930   7.746 -1.5668  0.3862 -0.4257
  375MOL0     H49488   0.234   6.079   7.642  0.8091 -0.1399 -2.0027
  375MOL0     H49489   0.062   6.215   7.626  0.4989 -1.0356  3.4116
  375MOL0     H49490  -0.335   6.013   7.459 -2.3784  0.5913 -1.5924
  375MOL0     H49491  -0.388   6.174   7.456  0.3326  0.1414 -0.6365
  375MOL0     H49492  -0.426   5.946   7.654 -3.4130 -0.9649 -1.6532
  375MOL0     H49493  -0.393   6.090   7.743  1.5632 -3.4481  0.5391
  375MOL0     H49494  -0.566   6.206   7.620  0.4716 -0.0287  0.6525
  375MOL0     H49495  -0.634   6.073   7.710 -3.6754 -0.1186 -3.1732
  375MOL0     H49496  -0.751   6.071   7.493 -0.9353 -0.2748  0.3559
  375MOL0     H49497  -0.589   6.051   7.414 -0.1460 -0.1357  0.7748
  375MOL0     H49498  -0.638   5.671   7.570  1.0017  1.7694  2.0326
  375MOL0     H49499  -0.203   5.876   7.547  1.7828 -1.2220 -1.7944
  375MOL0     H49500  -0.018   5.732   7.633  0.1534  0.0609 -2.1244
  376MOL0     O49501   4.463   5.388   3.787 -0.9475  0.6713 -0.9511
  376MOL0     C49502   4.586   5.364   3.772 -0.1210  0.0322 -0.5606
  376MOL0     O49503   4.681   5.382   3.867  0.7090  0.2550  0.2485
  376MOL0     C49504   4.637   5.442   3.983 -0.0779  0.6063 -0.5555
  376MOL0     C49505   4.575   5.567   4.002 -0.1874 -0.1446 -0.4027
  376MOL0     C49506   4.550   5.608   4.135 -0.8669  0.0374 -0.7022
  376MOL0     C49507   4.581   5.537   4.251  1.0812 -0.7725 -1.4388
  376MOL0     O49508   4.552   5.593   4.371 -0.6727  0.8632  0.3882
  376MOL0     C49509   4.592   5.519   4.489 -0.2030 -0.5950  0.6593
  376MOL0     C49510   4.555   5.608   4.603  0.0547 -0.7269  0.5051
  376MOL0     C49511   4.623   5.745   4.585 -0.3254  1.2194 -0.1526
  376MOL0     C49512   4.641   5.806   4.730  0.1745  0.3022  0.1571
  376MOL0     C49513   4.693   5.947   4.754 -0.4035 -0.1173 -0.1592
  376MOL0     C49514   4.826   5.979   4.681  0.5664  0.5450 -1.2128
  376MOL0     C49515   4.942   5.879   4.700  0.7891  0.1702  0.1023
  376MOL0     C49516   5.080   5.942   4.699 -0.2586  0.4623 -0.3471
  376MOL0     N49517   5.111   5.996   4.561  0.3574  0.4168 -0.9704
  376MOL0     C49518   5.190   5.944   4.461 -0.6708  0.0317  0.8615
  376MOL0     C49519   5.209   6.050   4.377  0.7081  0.8198 -0.3862
  376MOL0     C49520   5.287   6.022   4.254  0.2143  0.6338 -0.0179
  376MOL0     C49521   5.437   6.023   4.291 -1.3675  0.0230  0.0948
  376MOL0     C49522   5.473   6.168   4.286 -1.0140 -0.7312 -0.1242
  376MOL0     C49523   5.471   6.220   4.145  0.6603 -0.0819 -0.1198
  376MOL0     O49524   5.541   6.150   4.040 -0.1461 -0.8014 -0.4173
  376MOL0     C49525   5.672   6.127   4.057 -0.8033 -0.1068 -0.6991
  376MOL0     C49526   5.717   5.997   4.063  0.7132 -0.3920  0.0992
  376MOL0     C49527   5.856   5.973   4.094 -0.4108  0.5251 -0.0457
  376MOL0     C49528   5.953   6.079   4.110 -0.2188 -0.0906  0.5188
  376MOL0     C49529   6.097   6.043   4.140 -0.7266 -0.2285  0.3599
  376MOL0     O49530   6.151   5.912   4.120  0.9178  0.4553 -0.2728
  376MOL0     C49531   6.283   5.884   4.153  0.5398  0.0250  0.7656
  376MOL0     C49532   6.307   5.756   4.199 -0.0607  0.6702 -0.0447
  376MOL0     C49533   6.441   5.717   4.216 -0.5343 -0.1064 -0.5322
  376MOL0     C49534   6.539   5.793   4.179  1.1893 -0.1909  0.7159
  376MOL0     O49535   6.655   5.734   4.146  0.0926  0.1568 -0.8051
  376MOL0     C49536   6.713   5.641   4.243 -0.9930  0.0529  1.1491
  376MOL0     C49537   6.742   5.705   4.381  0.1990  0.1970  0.1738
  376MOL0     C49538   6.832   5.626   4.478 -0.4972 -0.0081 -1.3726
  376MOL0     C49539   6.972   5.583   4.425  1.1111  0.1697  0.2142
  376MOL0     C49540   7.067   5.564   4.550  0.5431  0.2111  0.0390
  376MOL0     C49541   7.208   5.531   4.510  0.0098 -0.1411  0.5732
  376MOL0     C49542   7.290   5.488   4.630 -0.3435  0.2003 -0.4024
  376MOL0     C49543   7.251   5.337   4.667  0.4019 -0.6858  0.3023
  376MOL0    Cl49544   7.352   5.285   4.812 -0.1610  0.5318  0.0272
  376MOL0     C49545   6.509   5.923   4.135 -0.5248 -0.5712 -0.4252
  376MOL0     C49546   6.385   5.975   4.122  0.1108  0.1103  0.5221
  376MOL0     O49547   6.161   6.143   4.185 -0.9337  1.1792  0.2822
  376MOL0     C49548   5.904   6.215   4.103 -0.1202  0.0917  0.1499
  376MOL0     C49549   5.767   6.233   4.075 -0.3650 -0.0018  0.9712
  376MOL0     N49550   5.138   6.165   4.415  0.5004  0.2372 -0.1180
  376MOL0     N49551   5.099   6.132   4.539 -0.3259 -0.4706  0.3367
  376MOL0     C49552   4.624   5.413   4.228  0.4440 -0.5030  0.6822
  376MOL0     C49553   4.660   5.364   4.102 -0.5545  0.5354 -0.0905
  376MOL0     C49554   4.621   5.314   3.635 -0.4942 -0.7857 -0.2880
  376MOL0     C49555   4.721   5.217   3.636 -0.2854 -0.0031  0.4651
  376MOL0     C49556   4.774   5.174   3.518 -0.3829  0.6921 -0.3087
  376MOL0     C49557   4.742   5.230   3.398  0.6096  0.5767  0.9208
  376MOL0     O49558   4.792   5.180   3.277 -0.0777  0.0147  0.0741
  376MOL0     C49559   4.759   5.038   3.252 -0.6098  0.4802  0.4592
  376MOL0     C49560   4.792   5.005   3.108  0.3956  0.0068  0.4383
  376MOL0     C49561   4.946   4.966   3.090 -0.0822  0.4026  0.3563
  376MOL0     C49562   4.987   4.912   2.949  0.6195 -0.3918 -0.0225
  376MOL0     C49563   5.127   4.865   2.934  0.5655 -0.3064 -0.5260
  376MOL0     C49564   5.235   4.821   2.920 -0.0143 -0.0464  0.5953
  376MOL0     C49565   4.649   5.338   3.389 -0.1416  0.7675 -0.4347
  376MOL0     C49566   4.578   5.376   3.505 -0.1798  0.7147  0.6938
  376MOL0     H49567   4.549   5.640   3.927 -2.0402  0.4844  0.7939
  376MOL0     H49568   4.503   5.706   4.142 -0.0332  0.5308 -1.7791
  376MOL0     H49569   4.700   5.506   4.480 -0.2112  0.2935 -1.1510
  376MOL0     H49570   4.536   5.425   4.499  0.2719 -0.8967  0.5386
  376MOL0     H49571   4.585   5.553   4.693 -0.4700 -2.7655 -0.5279
  376MOL0     H49572   4.447   5.605   4.619  0.0718 -0.2607  0.7345
  376MOL0     H49573   4.560   5.805   4.518 -0.4692 -0.1503 -1.2798
  376MOL0     H49574   4.718   5.733   4.534 -0.1203  4.5251 -0.7824
  376MOL0     H49575   4.543   5.807   4.777  0.1383  0.1511  0.0841
  376MOL0     H49576   4.701   5.729   4.780 -0.0260 -0.5727 -0.9050
  376MOL0     H49577   4.703   5.959   4.862  0.7173  0.9527 -0.3493
  376MOL0     H49578   4.607   6.011   4.731 -1.5587 -1.2663  0.7943
  376MOL0     H49579   4.868   6.079   4.697  1.2271  0.3362 -1.5759
  376MOL0     H49580   4.799   5.985   4.575  2.5247  3.8208 -1.6850
  376MOL0     H49581   4.936   5.838   4.801  3.9987  0.8708  0.6922
  376MOL0     H49582   4.932   5.805   4.620 -0.5298 -0.1328  0.5360
  376MOL0     H49583   5.153   5.862   4.712  0.2605  0.6957 -1.6247
  376MOL0     H49584   5.086   6.014   4.781 -1.0197  0.1858 -0.0387
  376MOL0     H49585   5.219   5.842   4.440 -0.6409  0.4328 -1.2800
  376MOL0     H49586   5.253   6.093   4.177  1.6043  1.7402  0.3457
  376MOL0     H49587   5.244   5.924   4.229  0.5659  0.0936  1.4074
  376MOL0     H49588   5.489   5.947   4.232  0.8039 -0.6033  2.6185
  376MOL0     H49589   5.451   5.988   4.394  3.3601  1.1803  0.0504
  376MOL0     H49590   5.413   6.232   4.351  0.6589  1.9214 -1.0075
  376MOL0     H49591   5.575   6.170   4.325 -0.4223  0.9465 -1.6091
  376MOL0     H49592   5.512   6.321   4.151 -0.7173  0.4621  0.7021
  376MOL0     H49593   5.368   6.245   4.118  1.0610  1.5018 -0.2462
  376MOL0     H49594   5.641   5.920   4.054  0.6517 -0.5200  1.5388
  376MOL0     H49595   5.900   5.874   4.101  1.8620  1.4689 -0.1349
  376MOL0     H49596   6.232   5.685   4.231 -0.0328  0.1989 -0.9986
  376MOL0     H49597   6.469   5.615   4.240  0.6402  0.4737  0.7882
  376MOL0     H49598   6.808   5.602   4.205  0.4827  1.0149  3.6348
  376MOL0     H49599   6.651   5.553   4.263 -1.7032  0.4737  0.8598
  376MOL0     H49600   6.645   5.718   4.430  0.6190  3.5159  0.3114
  376MOL0     H49601   6.776   5.805   4.353 -2.3162  0.4724 -2.4468
  376MOL0     H49602   6.770   5.541   4.507  1.4014 -0.9541  0.1572
  376MOL0     H49603   6.853   5.684   4.569 -0.0491 -1.6766 -0.3703
  376MOL0     H49604   6.959   5.500   4.356 -1.9133  1.7840 -1.3209
  376MOL0     H49605   7.009   5.667   4.366  1.3719  0.2974  0.5581
  376MOL0     H49606   7.020   5.488   4.613 -1.2142 -2.4180 -4.0287
  376MOL0     H49607   7.068   5.651   4.617 -1.8787  1.1381 -1.0148
  376MOL0     H49608   7.247   5.623   4.466 -3.3649  0.2026 -2.1680
  376MOL0     H49609   7.194   5.456   4.431 -1.3824  1.3515 -0.6761
  376MOL0     H49610   7.398   5.493   4.610  0.4290 -3.4540  1.8737
  376MOL0     H49611   7.271   5.558   4.712  0.5378 -0.7284  0.6290
  376MOL0     H49612   7.281   5.277   4.581  1.6721  0.2290  0.0708
  376MOL0     H49613   7.142   5.342   4.679  0.1122  1.3052 -2.2737
  376MOL0     H49614   6.584   5.980   4.082  0.3442 -1.5990 -0.3323
  376MOL0     H49615   6.358   6.071   4.080 -0.2606  0.5988  1.8144
  376MOL0     H49616   5.961   6.305   4.127  2.1703 -0.8083 -1.5433
  376MOL0     H49617   5.733   6.336   4.066  0.0506 -0.0018 -0.8135
  376MOL0     H49618   4.644   5.349   4.313  2.3909  2.6409  2.7952
  376MOL0     H49619   4.701   5.264   4.090  6.2968  2.6123  1.9159
  376MOL0     H49620   4.758   5.174   3.728  2.1686  0.5803 -0.1746
  376MOL0     H49621   4.840   5.087   3.519 -1.6868 -0.3372  1.3733
  376MOL0     H49622   4.653   5.034   3.278 -1.1239  0.7991 -1.4401
  376MOL0     H49623   4.825   4.976   3.313  0.1700 -1.4611 -2.1534
  376MOL0     H49624   4.739   4.912   3.085  0.2137 -0.0730  1.1368
  376MOL0     H49625   4.752   5.083   3.044  1.0678  0.0685  0.0896
  376MOL0     H49626   4.958   4.888   3.166  0.9331  0.0199 -0.1809
  376MOL0     H49627   5.012   5.050   3.113  0.2567 -0.1277  1.3952
  376MOL0     H49628   4.918   4.830   2.926 -0.0856 -0.5281  2.3157
  376MOL0     H49629   4.974   4.986   2.870  0.4313  0.2903  0.6376
  376MOL0     H49630   5.333   4.792   2.886 -0.1200  0.9349 -0.6277
  376MOL0     H49631   4.637   5.379   3.289 -0.4820  0.0518 -0.6951
  376MOL0     H49632   4.502   5.453   3.500 -0.3228  0.5195 -0.2263
  377MOL0     O49633   5.378   3.941   5.301  0.5827  0.2100  0.7852
  377MOL0     C49634   5.307   3.893   5.387  0.1972  0.8660 -1.1149
  377MOL0     O49635   5.347   3.805   5.478  0.8853  0.3110 -0.9030
  377MOL0     C49636   5.478   3.759   5.483 -0.7279 -0.7499 -0.5784
  377MOL0     C49637   5.491   3.640   5.544 -0.0141 -0.6729 -1.0426
  377MOL0     C49638   5.621   3.577   5.551 -0.6443 -0.0785 -0.2882
  377MOL0     C49639   5.736   3.632   5.498 -0.0630  0.2103  0.1350
  377MOL0     O49640   5.853   3.566   5.483 -0.5039  0.4876 -0.2811
  377MOL0     C49641   5.901   3.527   5.361 -0.6352  0.1983  0.7354
  377MOL0     C49642   6.047   3.509   5.360  0.4438 -0.2199  0.4697
  377MOL0     C49643   6.133   3.628   5.317  0.9520 -0.9994 -0.2230
  377MOL0     C49644   6.276   3.588   5.315 -0.4156  0.0121 -0.4797
  377MOL0     C49645   6.363   3.687   5.244 -0.4657  0.0937 -1.0274
  377MOL0     C49646   6.337   3.721   5.096 -0.1268 -1.6743  0.5195
  377MOL0     C49647   6.405   3.853   5.037  0.4717  0.1282  0.0467
  377MOL0     C49648   6.407   3.977   5.118 -0.6891 -0.0870 -0.6098
  377MOL0     N49649   6.278   4.045   5.143  0.7770 -0.1877 -0.9762
  377MOL0     C49650   6.162   3.997   5.209 -0.7048  0.1875  0.5016
  377MOL0     C49651   6.068   4.091   5.209  0.4173  0.0130 -0.6780
  377MOL0     C49652   5.927   4.081   5.256 -0.0636 -1.7167  0.3878
  377MOL0     C49653   5.929   4.058   5.406 -0.5606  0.2706 -0.1005
  377MOL0     C49654   5.966   4.179   5.489 -0.9966 -0.4867 -0.7115
  377MOL0     C49655   6.107   4.223   5.509  0.0384  0.3602 -0.1662
  377MOL0     O49656   6.108   4.326   5.608 -0.8192 -0.2496 -0.0488
  377MOL0     C49657   6.086   4.460   5.565  0.4788 -0.4155 -0.0821
  377MOL0     C49658   6.092   4.555   5.668  0.0943  0.2183  0.1032
  377MOL0     C49659   6.074   4.693   5.643 -0.2208  0.3776  0.3842
  377MOL0     C49660   6.039   4.740   5.515 -0.5714 -0.4356  0.8143
  377MOL0     C49661   6.014   4.885   5.493 -0.2721  0.2035 -0.3869
  377MOL0     O49662   6.002   4.962   5.593 -0.0840 -0.1598 -1.1133
  377MOL0     C49663   5.958   5.096   5.593  0.8538  0.0169 -0.1411
  377MOL0     C49664   6.019   5.186   5.680 -0.2202  0.4517  0.3082
  377MOL0     C49665   5.990   5.325   5.680 -0.1979  0.5558 -0.1544
  377MOL0     C49666   5.873   5.366   5.608  0.0693 -0.2758 -1.0104
  377MOL0     O49667   5.835   5.499   5.596  0.2647  0.1287 -0.2054
  377MOL0     C49668   5.838   5.583   5.715  0.1222  0.2218  0.4336
  377MOL0     C49669   5.709   5.657   5.742  0.2934  0.3412 -0.0304
  377MOL0     C49670   5.729   5.806   5.736  0.5105 -0.5116  1.1088
  377MOL0     C49671   5.605   5.888   5.787 -0.0109  0.1758  0.6734
  377MOL0     C49672   5.613   6.042   5.780  0.2125 -0.3421 -0.0702
  377MOL0     C49673   5.481   6.112   5.840 -0.7852 -0.4618  0.5331
  377MOL0     C49674   5.482   6.262   5.816 -0.5052 -0.1795  0.4749
  377MOL0     C49675   5.567   6.345   5.926 -0.0470  0.4152  0.7450
  377MOL0    Cl49676   5.477   6.341   6.076 -0.6154 -0.6310  0.1861
  377MOL0     C49677   5.806   5.271   5.526  0.3411 -0.4443  0.7837
  377MOL0     C49678   5.849   5.139   5.515  0.0069  0.1621 -0.0714
  377MOL0     O49679   6.000   4.916   5.380 -0.2669 -0.4207  0.6396
  377MOL0     C49680   6.031   4.648   5.414  0.2722  0.2391  0.9497
  377MOL0     C49681   6.054   4.506   5.434 -0.2031  0.1299 -0.9012
  377MOL0     N49682   6.129   4.205   5.146  0.5413 -0.2597 -1.0467
  377MOL0     N49683   6.247   4.169   5.103 -0.2467 -0.2826 -0.4667
  377MOL0     C49684   5.725   3.761   5.445  0.0588 -1.1467  0.0391
  377MOL0     C49685   5.601   3.819   5.435  0.0313 -0.3047 -1.0338
  377MOL0     C49686   5.163   3.935   5.400 -0.6907  0.1402 -0.6192
  377MOL0     C49687   5.093   3.919   5.522 -0.4237  0.2995 -0.2047
  377MOL0     C49688   4.955   3.949   5.530 -0.4226 -0.8626  0.7935
  377MOL0     C49689   4.884   4.004   5.423 -0.9344  0.5010 -0.0558
  377MOL0     O49690   4.753   4.034   5.436  0.2618  0.6398  0.5307
  377MOL0     C49691   4.669   4.024   5.318 -0.4157  1.0686 -1.0008
  377MOL0     C49692   4.534   4.095   5.355 -0.7137  0.8050 -0.6644
  377MOL0     C49693   4.441   4.107   5.231  0.3130 -0.4782 -0.8432
  377MOL0     C49694   4.340   4.219   5.255  0.5333 -0.4130  0.6135
  377MOL0     C49695   4.209   4.183   5.199 -0.4852 -0.7925 -0.3269
  377MOL0     C49696   4.105   4.152   5.142 -0.2782 -0.2951 -0.3162
  377MOL0     C49697   4.957   4.026   5.304  0.1452  0.3740  0.6398
  377MOL0     C49698   5.095   4.006   5.300  0.7568  0.5406 -0.1822
  377MOL0     H49699   5.403   3.590   5.585  0.7267  0.6231  2.5210
  377MOL0     H49700   5.615   3.483   5.605  4.1423 -0.3207  0.2332
  377MOL0     H49701   5.883   3.600   5.281 -1.1212  1.8174  2.2652
  377MOL0     H49702   5.862   3.432   5.325 -1.6562  0.1008  2.0688
  377MOL0     H49703   6.066   3.423   5.293 -2.0573 -1.4752  1.2603
  377MOL0     H49704   6.083   3.482   5.459  2.6032  0.5807 -0.0442
  377MOL0     H49705   6.107   3.706   5.389 -0.8026 -0.5146 -1.3269
  377MOL0     H49706   6.113   3.663   5.215  3.5475 -1.0816 -0.8381
  377MOL0     H49707   6.311   3.565   5.416 -1.4100  0.9133  0.0884
  377MOL0     H49708   6.290   3.494   5.260 -1.0158 -1.2067  1.3711
  377MOL0     H49709   6.461   3.639   5.249  0.8612  2.7611  0.8190
  377MOL0     H49710   6.358   3.773   5.312 -4.8156 -3.0131  3.3107
  377MOL0     H49711   6.233   3.734   5.064 -0.1359  0.6397  1.2796
  377MOL0     H49712   6.366   3.632   5.040  0.3758 -0.6349 -0.9300
  377MOL0     H49713   6.506   3.832   4.998  1.8897  0.1952  3.3832
  377MOL0     H49714   6.342   3.875   4.950  2.3184  3.1944 -0.6491
  377MOL0     H49715   6.451   4.048   5.047 -1.5310 -1.9313 -3.1420
  377MOL0     H49716   6.474   3.966   5.204  0.0405  0.2755 -1.1231
  377MOL0     H49717   6.147   3.896   5.245  1.0998 -0.7041 -1.0639
  377MOL0     H49718   5.874   4.006   5.197 -0.5753 -0.7868 -0.3565
  377MOL0     H49719   5.873   4.173   5.232  3.8992  0.9104  0.5701
  377MOL0     H49720   5.987   3.973   5.444 -1.1653  0.4242  1.2283
  377MOL0     H49721   5.825   4.041   5.435 -0.3903 -0.6981 -0.0255
  377MOL0     H49722   5.908   4.264   5.451  0.0110  0.1053 -0.9488
  377MOL0     H49723   5.923   4.166   5.589  0.0574  0.4266 -0.1157
  377MOL0     H49724   6.149   4.251   5.412 -3.0442 -1.4150 -2.2036
  377MOL0     H49725   6.168   4.136   5.537  3.7145  2.5211 -0.7394
  377MOL0     H49726   6.127   4.533   5.769  0.7662  2.0795  0.3161
  377MOL0     H49727   6.087   4.767   5.721  0.0439  0.2030  0.5088
  377MOL0     H49728   6.100   5.156   5.745 -1.5084  2.6107  3.1365
  377MOL0     H49729   6.050   5.387   5.747 -2.3266  0.1927  2.2309
  377MOL0     H49730   5.911   5.659   5.683 -0.5673  0.7603  0.1128
  377MOL0     H49731   5.872   5.527   5.802  1.7279  1.2741  0.5447
  377MOL0     H49732   5.673   5.627   5.841 -2.3596  2.1795 -0.3309
  377MOL0     H49733   5.630   5.626   5.673  0.5211 -1.4385  0.4453
  377MOL0     H49734   5.763   5.833   5.636  2.2326  1.3400  2.1111
  377MOL0     H49735   5.817   5.837   5.794  2.0729 -1.5505 -0.6175
  377MOL0     H49736   5.514   5.859   5.733  1.3858 -0.0340 -1.7069
  377MOL0     H49737   5.588   5.855   5.890 -0.8153  0.0583  0.5074
  377MOL0     H49738   5.625   6.076   5.677 -0.8307 -1.0767 -0.4439
  377MOL0     H49739   5.704   6.081   5.828 -0.5987  1.7311 -0.1021
  377MOL0     H49740   5.475   6.084   5.945 -0.9246 -0.3356  0.5573
  377MOL0     H49741   5.392   6.067   5.796  0.7594 -3.1522 -0.0882
  377MOL0     H49742   5.537   6.290   5.726 -0.8555  4.8699  1.5804
  377MOL0     H49743   5.382   6.306   5.810  0.2316  1.3310 -2.8702
  377MOL0     H49744   5.568   6.449   5.895 -0.9154  0.6062  1.3197
  377MOL0     H49745   5.670   6.307   5.931  0.5371  2.0004  1.3484
  377MOL0     H49746   5.719   5.295   5.465 -0.5748 -0.7367  1.9275
  377MOL0     H49747   5.783   5.084   5.449  1.0666 -0.4046 -0.7024
  377MOL0     H49748   6.002   4.676   5.314  1.2457  3.8822  1.5660
  377MOL0     H49749   6.057   4.444   5.346 -1.3132  1.2056 -1.7340
  377MOL0     H49750   5.819   3.812   5.423  1.2016 -2.2999  1.9051
  377MOL0     H49751   5.581   3.912   5.382  1.1708 -0.2497 -1.3903
  377MOL0     H49752   5.149   3.880   5.606 -2.0800  2.5298  2.0741
  377MOL0     H49753   4.907   3.935   5.627  2.0908 -0.8008  2.1509
  377MOL0     H49754   4.664   3.918   5.291  2.0249 -0.1905  2.7113
  377MOL0     H49755   4.704   4.087   5.235 -0.3337 -0.4083 -2.1329
  377MOL0     H49756   4.494   4.036   5.438 -0.4950  2.0970  0.3810
  377MOL0     H49757   4.565   4.193   5.391  2.5572  0.0069 -1.0348
  377MOL0     H49758   4.392   4.012   5.208  1.3182 -0.6286 -2.5081
  377MOL0     H49759   4.498   4.133   5.141 -0.7115  0.8197 -1.1532
  377MOL0     H49760   4.328   4.248   5.360 -0.7730 -1.9026  0.9040
  377MOL0     H49761   4.378   4.317   5.224 -0.6271 -0.1462 -0.0270
  377MOL0     H49762   4.005   4.139   5.105 -0.9571  0.3561  1.2264
  377MOL0     H49763   4.907   4.076   5.222  1.6250 -1.2174 -1.3295
  377MOL0     H49764   5.132   4.031   5.201 -1.4197  1.1406 -0.8955
  378MOL0     O49765   9.731   9.410   1.726  0.2746  0.8385  0.8681
  378MOL0     C49766   9.675   9.372   1.828 -0.5936  0.2331  0.2946
  378MOL0     O49767   9.738   9.296   1.922 -0.9537  0.1015 -0.7112
  378MOL0     C49768   9.867   9.283   1.900 -0.5138 -0.5261 -1.5935
  378MOL0     C49769   9.958   9.381   1.934 -0.5531 -1.2084 -0.0100
  378MOL0     C49770  10.091   9.355   1.938  0.8110  0.7136  0.1695
  378MOL0     C49771  10.147   9.235   1.903  0.2933 -0.1811 -0.2777
  378MOL0     O49772  10.276   9.185   1.918  0.3721 -0.2228  0.0787
  378MOL0     C49773  10.376   9.278   1.947  0.8460  0.0466  0.1028
  378MOL0     C49774  10.519   9.232   1.968 -0.1625 -0.0028  0.3011
  378MOL0     C49775  10.565   9.140   1.864 -0.1704 -1.1343 -0.4105
  378MOL0     C49776  10.714   9.092   1.894  1.0982  0.0298  0.1315
  378MOL0     C49777  10.741   8.985   1.790 -0.8166  0.0814  0.2151
  378MOL0     C49778  10.883   8.924   1.792 -0.6413 -0.3529  0.2818
  378MOL0     C49779  10.903   8.827   1.673 -0.4611  0.1977  0.3436
  378MOL0     C49780  11.037   8.752   1.680  0.1808  0.2093  0.9498
  378MOL0     N49781  11.152   8.826   1.731 -0.5100  0.0909  0.3186
  378MOL0     C49782  11.253   8.886   1.666 -0.4524 -0.1749  0.2104
  378MOL0     C49783  11.345   8.916   1.755  0.3464 -0.4625 -0.2056
  378MOL0     C49784  11.475   8.998   1.751  0.2741  0.1673  0.3666
  378MOL0     C49785  11.590   8.914   1.768 -0.3743  0.5505  0.1604
  378MOL0     C49786  11.607   8.789   1.655  0.0384  0.7657  0.0040
  378MOL0     C49787  11.733   8.706   1.673 -0.5655  0.2669  0.2179
  378MOL0     O49788  11.852   8.787   1.669  0.5881 -0.3201  0.3955
  378MOL0     C49789  11.963   8.778   1.586 -0.5654  0.4336 -0.2596
  378MOL0     C49790  12.071   8.869   1.623 -0.9949  0.1526 -0.0079
  378MOL0     C49791  12.186   8.870   1.538 -0.0516 -0.0182  0.5510
  378MOL0     C49792  12.191   8.777   1.432 -0.1312  0.5510  0.7138
  378MOL0     C49793  12.310   8.785   1.343  0.9741  0.1136  0.0713
  378MOL0     O49794  12.361   8.659   1.301  0.2751 -0.0062 -0.4115
  378MOL0     C49795  12.473   8.657   1.226  0.4797  0.2448 -0.4802
  378MOL0     C49796  12.487   8.743   1.116 -0.3015  0.5673 -0.8523
  378MOL0     C49797  12.609   8.751   1.037  0.3857  0.5143 -1.3202
  378MOL0     C49798  12.703   8.645   1.057 -0.0176 -1.3524  0.9207
  378MOL0     O49799  12.810   8.630   0.973 -0.4159 -0.0595  0.6644
  378MOL0     C49800  12.786   8.640   0.828  1.4541  0.0110  0.2055
  378MOL0     C49801  12.897   8.703   0.750  0.8625  0.9915  0.2023
  378MOL0     C49802  13.009   8.611   0.735 -0.5224  0.1831  0.1007
  378MOL0     C49803  13.125   8.678   0.667 -0.0831 -0.3799 -0.4173
  378MOL0     C49804  13.213   8.566   0.614 -0.7622  0.0362  0.2600
  378MOL0     C49805  13.321   8.503   0.715  0.5183 -0.1177 -0.1664
  378MOL0     C49806  13.413   8.408   0.635  0.0598 -0.1837 -0.7262
  378MOL0     C49807  13.495   8.319   0.731  0.3755  1.1683  0.0741
  378MOL0    Cl49808  13.613   8.205   0.651 -0.2171  0.5622  0.0422
  378MOL0     C49809  12.687   8.556   1.168  0.9670  0.7242 -0.1504
  378MOL0     C49810  12.576   8.573   1.251 -0.0686 -0.1665 -0.1215
  378MOL0     O49811  12.355   8.899   1.318  0.5504  0.6822  0.2535
  378MOL0     C49812  12.083   8.698   1.395  0.1375  0.5850 -0.1097
  378MOL0     C49813  11.967   8.705   1.468  0.0072  0.9667 -0.1906
  378MOL0     N49814  11.301   8.877   1.880  0.2864  0.2868 -0.0829
  378MOL0     N49815  11.180   8.824   1.862  1.0096 -0.5554  0.9550
  378MOL0     C49816  10.059   9.150   1.841 -0.6690  0.4578 -0.9492
  378MOL0     C49817   9.915   9.158   1.856  0.7347  0.0591  0.6322
  378MOL0     C49818   9.532   9.392   1.859  0.2749 -0.3494 -0.4959
  378MOL0     C49819   9.476   9.368   1.983 -0.2905  0.3280 -0.0021
  378MOL0     C49820   9.345   9.416   2.020 -0.6298 -0.0309 -0.2937
  378MOL0     C49821   9.261   9.475   1.926 -0.2074 -0.5018  0.5613
  378MOL0     O49822   9.129   9.518   1.946 -0.5010  0.3302  0.7482
  378MOL0     C49823   9.090   9.528   2.083  0.1651  0.2602  1.0339
  378MOL0     C49824   8.960   9.618   2.088 -0.3107  0.5162  0.5521
  378MOL0     C49825   8.955   9.686   2.229  0.3093  0.4642  0.2441
  378MOL0     C49826   8.825   9.771   2.248 -1.2243  0.3412 -0.0136
  378MOL0     C49827   8.809   9.863   2.137  0.3615  0.1207  0.0500
  378MOL0     C49828   8.792   9.938   2.043  0.6841  1.1952 -0.0310
  378MOL0     C49829   9.317   9.500   1.798 -0.4636 -0.5471  0.3900
  378MOL0     C49830   9.451   9.459   1.766  0.1108  0.3308 -0.1156
  378MOL0     H49831   9.919   9.477   1.966  0.2103 -0.6335 -0.7725
  378MOL0     H49832  10.148   9.435   1.985  2.8023 -0.6676  0.2225
  378MOL0     H49833  10.351   9.323   2.043 -0.4918 -2.5903  1.0790
  378MOL0     H49834  10.367   9.353   1.867 -0.2359  0.2638  0.4187
  378MOL0     H49835  10.522   9.179   2.064 -0.9700  2.4626  1.7755
  378MOL0     H49836  10.585   9.319   1.969  0.0687 -0.1382 -1.1070
  378MOL0     H49837  10.544   9.192   1.770 -2.9380 -1.0314  0.1823
  378MOL0     H49838  10.505   9.049   1.865  1.1354 -2.1243  3.3764
  378MOL0     H49839  10.781   9.178   1.887 -0.5787  2.1543  5.1538
  378MOL0     H49840  10.720   9.058   1.998  3.2741  0.8074  0.3098
  378MOL0     H49841  10.718   9.021   1.689 -0.1392  0.8719  0.3289
  378MOL0     H49842  10.672   8.903   1.812 -0.2945  0.1883  2.4493
  378MOL0     H49843  10.901   8.863   1.881  4.5329  2.4171  1.5784
  378MOL0     H49844  10.956   9.006   1.791 -0.3118 -0.6442  0.2954
  378MOL0     H49845  10.829   8.746   1.677  1.7766 -1.9638  0.4101
  378MOL0     H49846  10.905   8.894   1.586 -0.8939 -0.5662 -0.2707
  378MOL0     H49847  11.057   8.715   1.579 -0.2356 -0.6849  1.1857
  378MOL0     H49848  11.025   8.670   1.750 -1.7864  0.0614  0.5201
  378MOL0     H49849  11.265   8.911   1.561  1.4025 -1.7353 -0.0016
  378MOL0     H49850  11.475   9.070   1.833  1.4995 -1.1044  1.5387
  378MOL0     H49851  11.476   9.056   1.658 -1.9947 -0.2912 -0.0148
  378MOL0     H49852  11.591   8.861   1.863 -0.7465  0.8192  0.3174
  378MOL0     H49853  11.677   8.979   1.753 -1.2116  1.3842 -1.3260
  378MOL0     H49854  11.513   8.734   1.662  1.0730 -0.9008  4.3293
  378MOL0     H49855  11.607   8.833   1.555 -1.5242  0.9505  0.0727
  378MOL0     H49856  11.731   8.624   1.600  1.3095  0.9660 -0.6610
  378MOL0     H49857  11.725   8.663   1.774  0.0096  3.0699  1.5366
  378MOL0     H49858  12.070   8.939   1.707 -0.2185  0.1012  0.0603
  378MOL0     H49859  12.262   8.941   1.569 -1.7268  1.0863  2.3531
  378MOL0     H49860  12.401   8.803   1.086 -1.6452 -0.1976  1.2272
  378MOL0     H49861  12.623   8.831   0.966 -1.9645  1.7021 -0.5596
  378MOL0     H49862  12.696   8.699   0.809  0.4068 -1.3299  0.7738
  378MOL0     H49863  12.779   8.540   0.783 -1.1074  0.6472 -0.9950
  378MOL0     H49864  12.933   8.791   0.805  0.2768  0.7799  0.9365
  378MOL0     H49865  12.865   8.729   0.648  0.4183  1.8204  0.5404
  378MOL0     H49866  12.961   8.531   0.679 -0.4679  0.0294  0.2736
  378MOL0     H49867  13.046   8.571   0.830  0.2584  2.2517  0.7296
  378MOL0     H49868  13.095   8.739   0.581 -0.4656  1.0787  0.7124
  378MOL0     H49869  13.176   8.747   0.735  0.7388 -0.0416 -1.3537
  378MOL0     H49870  13.266   8.605   0.526  0.5615  0.4270  1.1923
  378MOL0     H49871  13.156   8.483   0.573  1.8364 -1.8714  0.2899
  378MOL0     H49872  13.268   8.464   0.802 -1.4193 -0.6030 -1.4754
  378MOL0     H49873  13.382   8.586   0.750  1.0348  0.4632 -2.2714
  378MOL0     H49874  13.348   8.334   0.587 -2.0315 -1.8757  4.1590
  378MOL0     H49875  13.489   8.455   0.571 -0.4146 -3.8671 -4.4263
  378MOL0     H49876  13.425   8.255   0.785 -0.6112  1.4658 -0.8266
  378MOL0     H49877  13.556   8.375   0.803  2.7156  0.5047 -1.3024
  378MOL0     H49878  12.753   8.471   1.175  2.1072  1.6411  0.6106
  378MOL0     H49879  12.573   8.508   1.338  3.0791 -2.4260 -1.5199
  378MOL0     H49880  12.085   8.642   1.301  0.8773  5.6494 -3.5238
  378MOL0     H49881  11.877   8.655   1.435  0.2339  0.9792 -0.8417
  378MOL0     H49882  10.095   9.058   1.797  1.7068 -0.6849  2.8853
  378MOL0     H49883   9.856   9.067   1.852  0.4056  0.0069  4.1920
  378MOL0     H49884   9.538   9.312   2.052  0.8161 -3.0130 -3.3458
  378MOL0     H49885   9.322   9.387   2.122  1.0181  1.8919  0.7167
  378MOL0     H49886   9.166   9.577   2.144  1.4043 -1.4915  0.9795
  378MOL0     H49887   9.068   9.424   2.111  4.4315 -1.3735 -0.8816
  378MOL0     H49888   8.970   9.697   2.013 -1.4281  0.8254  0.7171
  378MOL0     H49889   8.864   9.569   2.069 -0.8495  1.3315  1.1264
  378MOL0     H49890   9.041   9.753   2.231  1.0071 -0.4161  0.5098
  378MOL0     H49891   8.955   9.616   2.313 -1.3474  0.5248  0.3225
  378MOL0     H49892   8.732   9.714   2.248  0.5041 -2.7260 -0.5803
  378MOL0     H49893   8.827   9.830   2.340  3.1155  0.0653  0.2962
  378MOL0     H49894   8.776   9.999   1.957 -1.9749 -1.3850 -1.5316
  378MOL0     H49895   9.256   9.567   1.739  1.3948 -0.0588 -1.0609
  378MOL0     H49896   9.483   9.491   1.668 -2.7841 -0.7247 -1.5151
  379MOL0     O49897   4.075  11.192   5.097 -0.5164  0.4579  0.4596
  379MOL0     C49898   3.954  11.217   5.110  0.5543 -0.3635  0.4869
  379MOL0     O49899   3.889  11.332   5.073  0.0044 -1.1901 -0.2113
  379MOL0     C49900   3.970  11.434   5.038 -0.7935 -1.3172  0.0956
  379MOL0     C49901   4.082  11.491   5.107 -0.4490  0.5497  0.4755
  379MOL0     C49902   4.158  11.605   5.074  0.0252  0.4936 -0.7601
  379MOL0     C49903   4.126  11.670   4.953 -0.8712  0.2367  0.1178
  379MOL0     O49904   4.193  11.770   4.886 -0.2104 -0.0627  0.1900
  379MOL0     C49905   4.293  11.850   4.948 -0.6343  0.2013  0.0920
  379MOL0     C49906   4.291  11.977   4.872  0.1696  1.3400  0.0472
  379MOL0     C49907   4.406  12.067   4.903 -0.3347 -1.0080 -0.4503
  379MOL0     C49908   4.413  12.195   4.815 -0.2130  0.2250 -0.2061
  379MOL0     C49909   4.543  12.272   4.830 -0.1212 -0.0619 -0.3564
  379MOL0     C49910   4.578  12.304   4.977 -0.2871 -1.1396  0.1775
  379MOL0     C49911   4.465  12.380   5.052  0.1050  0.4863 -0.2007
  379MOL0     C49912   4.444  12.517   4.988 -0.4556 -0.5753 -0.1805
  379MOL0     N49913   4.456  12.630   5.076 -0.5828  0.6388 -0.1378
  379MOL0     C49914   4.346  12.680   5.138 -0.6810 -0.9643 -0.7167
  379MOL0     C49915   4.395  12.783   5.207 -0.0505 -0.2458  0.1030
  379MOL0     C49916   4.297  12.867   5.291  0.4345  0.2673  0.6630
  379MOL0     C49917   4.255  12.999   5.218 -0.0616  0.5859  1.4025
  379MOL0     C49918   4.152  13.082   5.294  0.7114 -0.9442 -0.1831
  379MOL0     C49919   4.126  13.206   5.220  0.1869  0.3512  1.2341
  379MOL0     O49920   4.048  13.183   5.096  0.4447 -0.2240  0.0514
  379MOL0     C49921   3.913  13.188   5.119  0.5905 -1.5135 -1.1382
  379MOL0     C49922   3.836  13.075   5.091 -0.0419 -0.3218  0.0327
  379MOL0     C49923   3.697  13.077   5.092 -0.8304  0.9927  0.1929
  379MOL0     C49924   3.627  13.190   5.145  0.0780 -0.4557 -0.5046
  379MOL0     C49925   3.478  13.192   5.157  0.4546  0.1598  0.2284
  379MOL0     O49926   3.416  13.091   5.107 -0.7978 -0.4465 -0.1626
  379MOL0     C49927   3.277  13.074   5.118 -0.7785  0.0612  0.1585
  379MOL0     C49928   3.181  13.151   5.192 -0.9622  0.4539 -0.5214
  379MOL0     C49929   3.047  13.136   5.183  0.3353 -0.0469  0.6845
  379MOL0     C49930   2.993  13.025   5.119  0.2293  0.0426 -0.0268
  379MOL0     O49931   2.860  12.985   5.129 -0.3239 -0.3597  0.1756
  379MOL0     C49932   2.812  12.853   5.088  0.3733 -0.1659 -0.4649
  379MOL0     C49933   2.666  12.843   5.134  0.0114 -0.3937 -0.7758
  379MOL0     C49934   2.620  12.706   5.097  0.4577 -0.3415  0.6911
  379MOL0     C49935   2.465  12.684   5.101 -0.1092  0.1714  0.6185
  379MOL0     C49936   2.430  12.536   5.093 -0.5510  0.7692  0.5612
  379MOL0     C49937   2.287  12.494   5.070 -0.4280 -0.3899  0.4613
  379MOL0     C49938   2.273  12.340   5.079 -0.2622  0.7264 -0.2291
  379MOL0     C49939   2.139  12.281   5.070  0.1433  0.8729  1.0755
  379MOL0    Cl49940   2.130  12.119   5.000  0.0814  0.0266  0.1272
  379MOL0     C49941   3.084  12.938   5.050  0.2863 -0.5280 -0.5690
  379MOL0     C49942   3.228  12.959   5.054 -0.1470  0.0153  0.4965
  379MOL0     O49943   3.427  13.294   5.191  0.3208 -0.0191 -0.8412
  379MOL0     C49944   3.706  13.302   5.178  0.2304  0.6715 -0.1907
  379MOL0     C49945   3.850  13.301   5.163  0.7405 -0.6566 -1.0841
  379MOL0     N49946   4.532  12.786   5.200  0.1286  0.6801 -0.1427
  379MOL0     N49947   4.570  12.689   5.119  1.2934 -1.1221 -0.6312
  379MOL0     C49948   4.026  11.608   4.879 -0.5287 -0.9633  0.6819
  379MOL0     C49949   3.957  11.494   4.910  0.1496  0.8716  0.5204
  379MOL0     C49950   3.882  11.110   5.186 -0.2861 -0.3283  0.4332
  379MOL0     C49951   3.751  11.130   5.219  0.2679  0.4025 -0.2578
  379MOL0     C49952   3.680  11.045   5.300 -0.1498 -0.0096  1.2384
  379MOL0     C49953   3.734  10.926   5.349 -0.3861 -0.5556 -0.1205
  379MOL0     O49954   3.645  10.838   5.406  0.8371  0.1534  0.5668
  379MOL0     C49955   3.678  10.708   5.446  0.2736  1.1168 -0.2684
  379MOL0     C49956   3.537  10.639   5.484  0.6205 -0.1320  0.7194
  379MOL0     C49957   3.574  10.499   5.541 -0.5282 -0.6639  0.4162
  379MOL0     C49958   3.464  10.407   5.576  0.7543 -0.0688  0.9675
  379MOL0     C49959   3.378  10.367   5.465  0.1033 -0.8801 -0.0619
  379MOL0     C49960   3.298  10.315   5.386 -0.6249 -1.0490  0.7692
  379MOL0     C49961   3.867  10.892   5.299 -0.4090 -0.4286 -1.0882
  379MOL0     C49962   3.943  10.992   5.239  0.1358  0.0420 -0.1931
  379MOL0     H49963   4.111  11.434   5.195 -1.3683 -0.0361  0.4173
  379MOL0     H49964   4.244  11.630   5.135  0.7483  3.1336 -2.6733
  379MOL0     H49965   4.391  11.803   4.937 -1.5733 -1.5113 -1.7284
  379MOL0     H49966   4.280  11.870   5.055  1.8081 -0.7300  0.6343
  379MOL0     H49967   4.194  12.028   4.869 -0.3753  0.4341 -3.9243
  379MOL0     H49968   4.297  11.946   4.767 -3.4630 -0.0500  0.0939
  379MOL0     H49969   4.502  12.016   4.891  1.7353  2.1940  1.1372
  379MOL0     H49970   4.389  12.096   5.007 -0.1527 -0.5030 -0.5607
  379MOL0     H49971   4.422  12.160   4.712 -0.6632 -3.6386  0.9152
  379MOL0     H49972   4.322  12.256   4.817  0.1681  0.7999 -0.1809
  379MOL0     H49973   4.548  12.362   4.768 -2.0902 -0.6984 -1.5419
  379MOL0     H49974   4.620  12.201   4.797 -1.1154 -1.4876  0.2645
  379MOL0     H49975   4.659  12.378   4.968 -0.5897 -0.7328  0.7557
  379MOL0     H49976   4.599  12.219   5.042 -3.4699  0.7546  4.2067
  379MOL0     H49977   4.369  12.327   5.042 -0.1745  0.6192  1.5605
  379MOL0     H49978   4.488  12.387   5.158 -0.3627  0.0752 -0.0669
  379MOL0     H49979   4.342  12.516   4.949 -0.2637  0.7779 -0.7821
  379MOL0     H49980   4.516  12.524   4.906 -0.5885  0.3326 -0.2299
  379MOL0     H49981   4.242  12.649   5.132 -1.4771  1.4425 -0.4917
  379MOL0     H49982   4.337  12.879   5.392 -2.0197  0.1666  1.7075
  379MOL0     H49983   4.204  12.813   5.311  0.6532  0.4334  2.2555
  379MOL0     H49984   4.203  12.967   5.127 -2.2857  3.2218  1.6549
  379MOL0     H49985   4.347  13.051   5.190  1.2843 -2.3279 -0.1266
  379MOL0     H49986   4.056  13.032   5.307 -0.6066  1.4795  0.0475
  379MOL0     H49987   4.184  13.121   5.391  0.2046  0.3681 -0.5141
  379MOL0     H49988   4.228  13.230   5.191  0.8321 -0.7541  2.4887
  379MOL0     H49989   4.086  13.284   5.286  0.6045  3.1250 -1.5528
  379MOL0     H49990   3.884  12.991   5.043  0.3856 -0.7856  1.2445
  379MOL0     H49991   3.648  12.986   5.058  0.7632  0.2523 -0.2337
  379MOL0     H49992   3.208  13.240   5.248 -0.4165  1.7404 -2.6976
  379MOL0     H49993   2.976  13.200   5.234  1.9861  2.7237 -0.2574
  379MOL0     H49994   2.867  12.769   5.132  0.6292  0.5543  0.6396
  379MOL0     H49995   2.810  12.842   4.979 -1.9022 -1.2167 -0.3716
  379MOL0     H49996   2.610  12.930   5.096 -2.3497 -1.7600 -0.5946
  379MOL0     H49997   2.638  12.842   5.239 -2.7179 -1.9395 -1.4353
  379MOL0     H49998   2.671  12.635   5.162  3.2552  0.8397 -0.0669
  379MOL0     H49999   2.655  12.703   4.994  1.4249  1.1257  0.9436
  379MOL0     H50000   2.430  12.717   5.199 -0.0959 -1.0137  1.0436
  379MOL0     H50001   2.419  12.745   5.023  2.5792  0.1389 -1.1167
  379MOL0     H50002   2.455  12.486   5.188 -1.6103 -1.7449 -0.3969
  379MOL0     H50003   2.498  12.490   5.021  1.3918  1.5136  1.8199
  379MOL0     H50004   2.250  12.539   4.978  4.5161 -1.3326 -2.3649
  379MOL0     H50005   2.228  12.541   5.148  0.2195  0.4934  0.4328
  379MOL0     H50006   2.336  12.302   4.998  2.6150  1.6735  1.4289
  379MOL0     H50007   2.314  12.311   5.176 -2.1743  1.9622  1.0253
  379MOL0     H50008   2.080  12.357   5.017  1.4315  0.5947 -0.8649
  379MOL0     H50009   2.094  12.276   5.170  0.0920  1.9219  1.1193
  379MOL0     H50010   3.051  12.860   4.982 -3.1071  0.2531  0.0212
  379MOL0     H50011   3.304  12.890   5.017 -0.0270  1.7774 -2.9802
  379MOL0     H50012   3.662  13.393   5.218 -0.5091 -0.0134  0.6136
  379MOL0     H50013   3.898  13.391   5.202 -0.7919 -1.2430  2.5954
  379MOL0     H50014   4.015  11.648   4.779  2.2183  1.0231  1.0656
  379MOL0     H50015   3.878  11.442   4.856 -1.0434 -0.1021  3.0884
  379MOL0     H50016   3.709  11.225   5.187 -1.8307 -0.4636 -0.1924
  379MOL0     H50017   3.578  11.078   5.317 -1.3506 -1.7511 -1.8034
  379MOL0     H50018   3.739  10.710   5.537 -2.6050 -2.6693  2.0720
  379MOL0     H50019   3.737  10.647   5.378  0.9117 -1.2673  2.2295
  379MOL0     H50020   3.482  10.707   5.550 -1.1329 -1.5151  0.7606
  379MOL0     H50021   3.473  10.630   5.395 -0.6806  0.1383  1.5953
  379MOL0     H50022   3.641  10.517   5.625  1.1651  2.7003 -1.4244
  379MOL0     H50023   3.634  10.436   5.474  1.0787  1.1505  0.0818
  379MOL0     H50024   3.513  10.326   5.630  2.8643  1.0567  0.8615
  379MOL0     H50025   3.387  10.461   5.632 -2.9901 -1.1166 -2.7043
  379MOL0     H50026   3.224  10.267   5.325 -2.0907  0.1881  1.5088
  379MOL0     H50027   3.895  10.791   5.328  0.7539  1.2571  5.4608
  379MOL0     H50028   4.047  10.977   5.214 -0.3149  1.2457 -3.2677
  380MOL0     O50029   2.562   5.430   3.714  0.1777  0.2699 -0.3840
  380MOL0     C50030   2.579   5.556   3.720 -0.2082  0.5300  0.5286
  380MOL0     O50031   2.601   5.635   3.611  0.0098 -0.6756 -0.7147
  380MOL0     C50032   2.673   5.571   3.509  0.0636  0.4286  0.6358
  380MOL0     C50033   2.620   5.470   3.433  0.8931 -0.4986 -0.0640
  380MOL0     C50034   2.699   5.399   3.334 -0.0427  0.5952  0.2757
  380MOL0     C50035   2.823   5.457   3.299  0.0023 -0.8358 -1.3531
  380MOL0     O50036   2.911   5.406   3.216  0.1039  0.3843 -0.0381
  380MOL0     C50037   2.850   5.310   3.129 -0.6595  0.4633  0.8644
  380MOL0     C50038   2.939   5.300   3.008 -0.4637  0.3066 -0.3626
  380MOL0     C50039   2.912   5.166   2.934 -0.1816  0.1307 -0.4560
  380MOL0     C50040   3.023   5.138   2.834  0.9670  1.0278  0.9105
  380MOL0     C50041   2.973   5.068   2.710  0.3435  0.5985 -0.9216
  380MOL0     C50042   2.918   5.163   2.601  0.2740  0.4221 -0.0265
  380MOL0     C50043   2.849   5.103   2.473  0.3882  0.1650  0.4390
  380MOL0     C50044   2.953   5.020   2.409  0.3669  0.5632 -1.5562
  380MOL0     N50045   2.917   4.961   2.282  0.5963  0.1944 -0.1191
  380MOL0     C50046   2.837   4.848   2.263 -0.6224 -0.0041  0.0922
  380MOL0     C50047   2.835   4.821   2.129 -0.2074  0.3558 -0.2170
  380MOL0     C50048   2.769   4.703   2.064  0.8841  1.0367  0.1054
  380MOL0     C50049   2.621   4.735   2.020  0.1843 -0.0822 -0.3947
  380MOL0     C50050   2.608   4.822   1.891 -0.6317  0.0252 -0.1073
  380MOL0     C50051   2.467   4.861   1.881  0.1951 -0.6798 -0.4437
  380MOL0     O50052   2.446   4.906   1.751  0.6162  0.3731 -0.0929
  380MOL0     C50053   2.330   4.980   1.726 -1.6737  0.3468  0.4997
  380MOL0     C50054   2.345   5.059   1.612 -0.1991 -0.1447 -0.6935
  380MOL0     C50055   2.246   5.149   1.577  0.5093 -0.3379  0.8024
  380MOL0     C50056   2.120   5.142   1.654  1.2415 -0.6019  0.5634
  380MOL0     C50057   1.998   5.234   1.624 -0.6541 -0.1249  0.1352
  380MOL0     O50058   1.872   5.192   1.656  0.2534  0.1349  1.1204
  380MOL0     C50059   1.778   5.289   1.675  0.4746 -0.0013 -0.6328
  380MOL0     C50060   1.671   5.310   1.593 -0.3767  1.2947 -0.3737
  380MOL0     C50061   1.579   5.419   1.611 -0.0194 -1.5115  0.0671
  380MOL0     C50062   1.592   5.500   1.717  0.2278 -0.1514  0.1958
  380MOL0     O50063   1.506   5.600   1.761  0.2993 -0.1201 -0.4333
  380MOL0     C50064   1.383   5.622   1.685  0.7896 -0.0685 -0.5660
  380MOL0     C50065   1.302   5.745   1.752 -0.0760 -0.1292  0.2430
  380MOL0     C50066   1.184   5.800   1.665 -0.0538  0.4953 -0.7601
  380MOL0     C50067   1.223   5.848   1.524 -0.1313  0.4768 -0.3393
  380MOL0     C50068   1.108   5.918   1.438 -0.1020 -0.1041  0.2275
  380MOL0     C50069   1.154   5.984   1.300 -0.4247 -0.9780 -0.5897
  380MOL0     C50070   1.155   5.888   1.189 -0.3314  0.2064  0.8224
  380MOL0     C50071   1.014   5.838   1.156  0.4827  0.1254  0.0829
  380MOL0    Cl50072   0.989   5.756   0.998  0.0736 -0.2387  0.3612
  380MOL0     C50073   1.705   5.483   1.798  0.5092 -0.2064 -0.5249
  380MOL0     C50074   1.793   5.373   1.780  0.3238  0.9333  0.4379
  380MOL0     O50075   2.032   5.349   1.594 -0.5183 -0.1033  0.2255
  380MOL0     C50076   2.107   5.055   1.763 -0.2591 -1.2736 -0.0742
  380MOL0     C50077   2.218   4.979   1.796  0.3738  1.1505 -0.1858
  380MOL0     N50078   2.900   4.932   2.071 -0.1093  0.6572 -0.0233
  380MOL0     N50079   2.947   5.016   2.160 -0.7068  0.1649 -0.0350
  380MOL0     C50080   2.881   5.555   3.384 -0.2982  0.1154 -0.1785
  380MOL0     C50081   2.800   5.606   3.495  0.6084 -0.1337  0.5267
  380MOL0     C50082   2.590   5.619   3.851 -0.5232  0.0728 -0.5386
  380MOL0     C50083   2.597   5.551   3.970 -0.1243  0.6375  0.1756
  380MOL0     C50084   2.628   5.615   4.090  1.0231  0.3198 -0.1846
  380MOL0     C50085   2.634   5.749   4.088 -0.3176 -0.0412 -0.2461
  380MOL0     O50086   2.660   5.822   4.197 -0.3282 -0.0174  0.5497
  380MOL0     C50087   2.630   5.784   4.331 -0.1419 -0.5622  0.6981
  380MOL0     C50088   2.686   5.893   4.419  0.3950  0.2351  1.4405
  380MOL0     C50089   2.663   5.884   4.565 -0.3199 -0.2334 -0.0490
  380MOL0     C50090   2.680   5.741   4.622 -0.5604  0.4850  0.9124
  380MOL0     C50091   2.560   5.651   4.604  0.2836  0.1986 -0.3797
  380MOL0     C50092   2.461   5.581   4.606 -0.7518  0.9746  0.4718
  380MOL0     C50093   2.627   5.821   3.971 -0.8408 -0.5367  0.2155
  380MOL0     C50094   2.606   5.759   3.852 -0.2543  0.3282 -0.3996
  380MOL0     H50095   2.518   5.433   3.439  0.4814  0.6018  0.0268
  380MOL0     H50096   2.648   5.327   3.270 -0.3281  2.2905 -1.4784
  380MOL0     H50097   2.752   5.344   3.094 -1.8361 -0.0923  3.4563
  380MOL0     H50098   2.854   5.213   3.179  0.1352 -1.3323 -2.4110
  380MOL0     H50099   3.048   5.293   3.023 -0.8705 -1.5959  2.4100
  380MOL0     H50100   2.903   5.391   2.959 -0.4174  0.2760 -0.4531
  380MOL0     H50101   2.812   5.164   2.889 -0.0033 -2.0190 -0.8749
  380MOL0     H50102   2.918   5.091   3.013  0.4818 -1.0118 -1.5618
  380MOL0     H50103   3.060   5.234   2.798 -0.5887  0.3150 -3.1518
  380MOL0     H50104   3.111   5.084   2.870  1.4544  0.7600 -0.5971
  380MOL0     H50105   2.903   4.990   2.742  1.9567 -0.4231  0.3095
  380MOL0     H50106   3.055   5.008   2.669  0.7320 -1.2342  2.1489
  380MOL0     H50107   2.996   5.235   2.575 -0.1171  2.0154  2.7924
  380MOL0     H50108   2.832   5.214   2.646  0.2359  1.4169 -1.1668
  380MOL0     H50109   2.766   5.046   2.516 -0.0247 -0.4004 -1.0146
  380MOL0     H50110   2.813   5.187   2.413 -0.0117  1.7884  2.8216
  380MOL0     H50111   2.996   4.948   2.479  0.6382 -0.4013 -2.6641
  380MOL0     H50112   3.042   5.079   2.384  1.2909  0.3890  1.0777
  380MOL0     H50113   2.779   4.802   2.342 -1.6224 -1.8868 -1.6523
  380MOL0     H50114   2.789   4.610   2.118  1.6909 -0.9226 -3.2261
  380MOL0     H50115   2.822   4.686   1.970  0.2711 -0.5166  0.0064
  380MOL0     H50116   2.578   4.785   2.107  0.6222 -0.9868  0.3518
  380MOL0     H50117   2.560   4.645   2.009  2.2772 -1.5739 -0.3260
  380MOL0     H50118   2.673   4.909   1.879 -1.5466  0.6278 -0.8702
  380MOL0     H50119   2.623   4.758   1.803 -2.7890  2.6602 -2.5734
  380MOL0     H50120   2.448   4.941   1.953 -1.9463 -0.9410 -0.6380
  380MOL0     H50121   2.399   4.780   1.908  0.6741 -0.1357  2.7889
  380MOL0     H50122   2.437   5.048   1.557  2.2366 -0.3308  3.0615
  380MOL0     H50123   2.256   5.224   1.499 -1.3528  0.1873  1.0197
  380MOL0     H50124   1.664   5.241   1.509  0.8096 -1.8233  1.8809
  380MOL0     H50125   1.491   5.426   1.548  0.9570 -0.3909 -1.2096
  380MOL0     H50126   1.312   5.539   1.687  0.5334  0.1604  0.1839
  380MOL0     H50127   1.409   5.660   1.586  1.0788  1.1419 -0.0490
  380MOL0     H50128   1.366   5.833   1.760  0.1061 -0.3265  1.0304
  380MOL0     H50129   1.264   5.710   1.849 -5.4420 -1.4899 -1.9970
  380MOL0     H50130   1.155   5.892   1.717  3.0955 -0.1774  2.6095
  380MOL0     H50131   1.107   5.723   1.668  0.6820 -0.3872  4.2096
  380MOL0     H50132   1.307   5.917   1.540 -1.7762  3.1402 -2.3798
  380MOL0     H50133   1.280   5.774   1.467  2.4215  0.8139  1.5683
  380MOL0     H50134   1.052   5.988   1.501  1.0112  2.7245 -1.7735
  380MOL0     H50135   1.033   5.839   1.422 -0.3075  0.1474 -0.0823
  380MOL0     H50136   1.252   6.032   1.306 -0.2947 -1.0399 -1.9115
  380MOL0     H50137   1.070   6.051   1.280 -2.6438 -3.0113  1.3004
  380MOL0     H50138   1.191   5.927   1.093 -0.5508  3.3436  1.8855
  380MOL0     H50139   1.222   5.811   1.226  2.1629  2.6885  1.8740
  380MOL0     H50140   0.942   5.919   1.163  1.8131  1.4446 -0.8699
  380MOL0     H50141   0.989   5.765   1.233  1.0438 -4.0735 -3.2807
  380MOL0     H50142   1.717   5.556   1.877  0.5198  1.5780 -2.0816
  380MOL0     H50143   1.878   5.378   1.848  0.3693  0.4801  0.4144
  380MOL0     H50144   2.012   5.054   1.815 -0.0178  0.0915  0.4223
  380MOL0     H50145   2.208   4.920   1.886  0.1101  0.9615 -0.3370
  380MOL0     H50146   2.987   5.575   3.380  0.0159 -0.9180  1.6115
  380MOL0     H50147   2.845   5.679   3.562  2.9444 -1.9604  1.0873
  380MOL0     H50148   2.569   5.447   3.984  1.3951  0.0407 -1.0082
  380MOL0     H50149   2.628   5.559   4.183 -0.1975  3.2790  1.7459
  380MOL0     H50150   2.687   5.694   4.355 -1.1243 -1.8616 -1.5419
  380MOL0     H50151   2.522   5.774   4.349 -0.7323  2.4101 -0.5091
  380MOL0     H50152   2.792   5.874   4.404 -0.1399 -0.5564 -2.9357
  380MOL0     H50153   2.652   5.991   4.386  0.1921 -0.3736 -0.2800
  380MOL0     H50154   2.565   5.927   4.590  0.1735 -0.5359  2.7918
  380MOL0     H50155   2.732   5.943   4.626 -1.2065 -1.9098  2.8100
  380MOL0     H50156   2.767   5.698   4.572  0.7267  0.0576  3.4223
  380MOL0     H50157   2.703   5.749   4.728  0.7960 -2.5985  0.9578
  380MOL0     H50158   2.371   5.524   4.617  0.1621 -0.4162  1.0921
  380MOL0     H50159   2.627   5.930   3.970  1.8104 -0.3676  2.6182
  380MOL0     H50160   2.603   5.816   3.760 -2.2011 -0.7943 -1.1012
  381MOL0     O50161   9.741  10.297   7.960 -0.2256 -0.4483 -0.3396
  381MOL0     C50162   9.847  10.316   7.907 -0.0597 -0.0536 -0.0281
  381MOL0     O50163   9.969  10.268   7.953 -0.0802 -0.4377  0.8515
  381MOL0     C50164   9.973  10.232   8.084 -0.0943  0.9667 -0.1778
  381MOL0     C50165   9.930  10.107   8.134  0.2905 -0.0460 -0.5509
  381MOL0     C50166   9.936  10.088   8.276 -0.4109  0.4702  0.1126
  381MOL0     C50167   9.972  10.189   8.365 -0.1225 -0.6066 -0.3470
  381MOL0     O50168   9.954  10.184   8.502 -0.8405 -0.0386  0.3737
  381MOL0     C50169   9.906  10.065   8.572 -0.0018  0.3732  0.7640
  381MOL0     C50170   9.874  10.105   8.715 -0.4361  0.3384  0.3835
  381MOL0     C50171   9.727  10.153   8.725  0.4311 -0.0940  0.3165
  381MOL0     C50172   9.616  10.048   8.699 -0.2442 -0.4199  0.0769
  381MOL0     C50173   9.481  10.107   8.743  0.4720  0.3679 -0.1916
  381MOL0     C50174   9.371  10.008   8.724 -0.2619 -0.0757  0.2206
  381MOL0     C50175   9.248  10.058   8.792  0.8331  0.3153  0.3834
  381MOL0     C50176   9.190  10.189   8.724  0.9119 -0.4687 -0.6577
  381MOL0     N50177   9.042  10.214   8.753  1.2769  0.4347  1.2300
  381MOL0     C50178   8.933  10.142   8.709  0.0370  1.5883 -0.4016
  381MOL0     C50179   8.826  10.170   8.782  0.5597 -0.0249  0.2932
  381MOL0     C50180   8.688  10.113   8.761 -0.9897 -0.3742  0.0299
  381MOL0     C50181   8.642  10.133   8.617 -0.6322 -0.5124  0.5947
  381MOL0     C50182   8.630  10.283   8.583  0.3252 -0.9540  0.1737
  381MOL0     C50183   8.539  10.284   8.457 -0.0477  0.5557  0.5615
  381MOL0     O50184   8.539  10.422   8.414 -0.4793  0.2780  0.5486
  381MOL0     C50185   8.434  10.504   8.463  0.1649  1.0426  1.2016
  381MOL0     C50186   8.305  10.456   8.495 -0.9180  0.5679  0.8427
  381MOL0     C50187   8.205  10.541   8.537  0.3311  0.0311 -0.4328
  381MOL0     C50188   8.223  10.677   8.563  0.0001 -0.5840 -1.0094
  381MOL0     C50189   8.108  10.767   8.610 -0.3904 -0.8644 -1.1171
  381MOL0     O50190   8.027  10.712   8.710 -0.5415  0.0883  0.5292
  381MOL0     C50191   7.909  10.787   8.730 -0.0203 -0.3818  0.3832
  381MOL0     C50192   7.899  10.865   8.850 -0.6021 -0.0562  0.4755
  381MOL0     C50193   7.780  10.937   8.857  0.1578 -0.5635  0.2775
  381MOL0     C50194   7.679  10.937   8.763  0.1026  1.2268 -0.4111
  381MOL0     O50195   7.562  11.012   8.769  0.3266 -0.1529  0.1099
  381MOL0     C50196   7.536  11.081   8.890  0.1152  0.2315  0.2674
  381MOL0     C50197   7.395  11.133   8.884 -0.3975 -0.5361  0.3937
  381MOL0     C50198   7.274  11.040   8.854 -0.3694  0.0201 -0.7784
  381MOL0     C50199   7.269  10.913   8.941 -0.4392 -0.6400  0.4468
  381MOL0     C50200   7.253  10.919   9.094 -0.1516  0.9886 -0.0938
  381MOL0     C50201   7.257  10.771   9.134  0.7824 -0.2883 -0.0158
  381MOL0     C50202   7.260  10.751   9.291 -1.6543 -0.7943 -0.8047
  381MOL0     C50203   7.174  10.848   9.377 -0.4479  0.1243 -0.0006
  381MOL0    Cl50204   7.184  10.801   9.544  0.1298  0.2133 -0.1755
  381MOL0     C50205   7.699  10.855   8.644  0.7974  0.1965 -0.2911
  381MOL0     C50206   7.815  10.784   8.624 -0.2383 -0.1116  0.9516
  381MOL0     O50207   8.099  10.885   8.566  0.4118  0.2576 -0.0100
  381MOL0     C50208   8.354  10.718   8.537  1.1702 -0.3169  0.0408
  381MOL0     C50209   8.452  10.638   8.484  0.4806  0.8791 -0.2613
  381MOL0     N50210   8.865  10.267   8.875 -0.1023 -0.5838 -0.4451
  381MOL0     N50211   8.989  10.290   8.849  0.2660  1.3360  0.8420
  381MOL0     C50212  10.017  10.312   8.303 -0.5661  0.0369 -0.0801
  381MOL0     C50213  10.023  10.340   8.163  0.8931 -0.9856 -0.4881
  381MOL0     C50214   9.851  10.373   7.773 -0.8423  0.5238 -0.3550
  381MOL0     C50215   9.738  10.391   7.698  0.0339  0.4217 -0.2819
  381MOL0     C50216   9.747  10.444   7.562  0.1103  0.7963  0.4853
  381MOL0     C50217   9.873  10.470   7.497  0.2559  0.3820 -0.4906
  381MOL0     O50218   9.871  10.521   7.373  0.0101  0.1007  1.1950
  381MOL0     C50219   9.985  10.485   7.296  0.4200  0.4194  0.6237
  381MOL0     C50220   9.967  10.510   7.143 -0.2714  0.1060  0.7083
  381MOL0     C50221  10.085  10.478   7.053 -0.3998  0.3138 -0.6794
  381MOL0     C50222  10.056  10.500   6.900  0.1421  0.3664 -0.4454
  381MOL0     C50223  10.021  10.637   6.869  0.4824 -0.4131  0.3116
  381MOL0     C50224   9.998  10.752   6.837 -0.5223  0.0327  0.4865
  381MOL0     C50225   9.982  10.447   7.581 -1.0937 -0.2072 -0.4275
  381MOL0     C50226   9.971  10.401   7.707  0.2662 -0.5419 -0.4551
  381MOL0     H50227   9.891  10.027   8.072 -0.3002 -1.9229  2.0550
  381MOL0     H50228   9.891  10.002   8.323  1.6485 -0.4117  0.5848
  381MOL0     H50229   9.981   9.986   8.575 -2.9265 -2.7363 -1.2237
  381MOL0     H50230   9.821  10.024   8.515  2.2820 -1.3102 -1.6780
  381MOL0     H50231   9.951  10.174   8.751  0.0589  0.4364 -0.8100
  381MOL0     H50232   9.897  10.024   8.785  0.7199 -1.9210 -2.4116
  381MOL0     H50233   9.709  10.237   8.657  3.5537 -0.2610 -0.8783
  381MOL0     H50234   9.712  10.193   8.826 -0.6549 -0.9278  0.5082
  381MOL0     H50235   9.619  10.010   8.596  0.0685 -0.7186  0.1938
  381MOL0     H50236   9.645   9.964   8.763  3.0457  0.4921 -0.0217
  381MOL0     H50237   9.448  10.200   8.695  1.3415  0.4002 -0.7372
  381MOL0     H50238   9.492  10.113   8.852 -3.1734 -1.9053  0.4907
  381MOL0     H50239   9.398   9.912   8.768 -0.6871 -0.5258 -0.4613
  381MOL0     H50240   9.342   9.988   8.620 -1.5880 -0.8288  0.7042
  381MOL0     H50241   9.167   9.984   8.788 -1.0584  2.2750  0.7403
  381MOL0     H50242   9.278  10.068   8.897  3.2407 -3.7980  0.2924
  381MOL0     H50243   9.204  10.193   8.616 -1.7078  1.0371 -1.0434
  381MOL0     H50244   9.248  10.275   8.759 -0.1987  1.5972 -3.5230
  381MOL0     H50245   8.929  10.070   8.628  0.9210  1.8652 -0.7064
  381MOL0     H50246   8.604  10.158   8.815 -4.4233 -1.5385 -3.8111
  381MOL0     H50247   8.684  10.007   8.786 -2.3448 -0.1958  0.6880
  381MOL0     H50248   8.551  10.076   8.597  0.3469 -2.0700  0.3896
  381MOL0     H50249   8.718  10.089   8.551  0.7138  0.8534  1.1704
  381MOL0     H50250   8.584  10.342   8.662  1.2977  0.3115 -0.1693
  381MOL0     H50251   8.725  10.336   8.570 -1.6893  3.5599  1.9790
  381MOL0     H50252   8.442  10.239   8.481  0.2753 -1.1049 -0.9589
  381MOL0     H50253   8.577  10.234   8.367  0.5281  1.8394  0.0736
  381MOL0     H50254   8.281  10.352   8.474  0.0439  0.6815 -1.0783
  381MOL0     H50255   8.107  10.498   8.554  1.0608 -1.6202 -0.1276
  381MOL0     H50256   7.982  10.881   8.918  0.9493  3.4171 -1.9535
  381MOL0     H50257   7.766  10.987   8.952  1.6633 -1.3286  0.9455
  381MOL0     H50258   7.611  11.159   8.906  2.3146 -1.6047 -0.5526
  381MOL0     H50259   7.538  11.007   8.971 -0.1376 -1.2514 -1.0180
  381MOL0     H50260   7.405  11.211   8.808  2.5211 -0.6116  0.5774
  381MOL0     H50261   7.366  11.195   8.969 -0.9289 -2.2102  1.4714
  381MOL0     H50262   7.272  11.003   8.751 -2.3652 -0.2367 -0.6809
  381MOL0     H50263   7.180  11.093   8.866  0.2924  0.8353  1.2830
  381MOL0     H50264   7.177  10.876   8.895 -0.0501  2.4385 -3.3189
  381MOL0     H50265   7.353  10.853   8.906 -0.4241  0.4622 -1.5146
  381MOL0     H50266   7.166  10.978   9.124 -2.8318 -0.4125 -4.2963
  381MOL0     H50267   7.337  10.964   9.148 -0.9157 -0.7718  2.8173
  381MOL0     H50268   7.344  10.730   9.082  2.8880  2.1801  1.3300
  381MOL0     H50269   7.161  10.728   9.102 -0.0295  0.8571  0.7930
  381MOL0     H50270   7.240  10.645   9.308  2.1577 -1.8226 -1.9248
  381MOL0     H50271   7.366  10.775   9.298 -1.7495 -0.2469 -1.1988
  381MOL0     H50272   7.071  10.845   9.340  0.4148  1.5610 -2.7923
  381MOL0     H50273   7.210  10.951   9.370 -2.0158  0.5804 -3.7633
  381MOL0     H50274   7.621  10.875   8.571 -0.5405  1.9770  1.4849
  381MOL0     H50275   7.836  10.716   8.542 -0.1745  0.2635  0.6544
  381MOL0     H50276   8.362  10.824   8.558 -3.0996  0.1614  0.1379
  381MOL0     H50277   8.543  10.690   8.458 -0.4474  1.5827 -2.3760
  381MOL0     H50278  10.037  10.396   8.370  1.1928  0.6741 -1.3218
  381MOL0     H50279  10.046  10.442   8.132 -2.3840 -0.2408 -0.8608
  381MOL0     H50280   9.637  10.363   7.729  0.2682  0.0888  0.1935
  381MOL0     H50281   9.651  10.462   7.513  1.0922  0.6929 -1.6096
  381MOL0     H50282  10.013  10.380   7.309 -0.8568  0.4434  5.0173
  381MOL0     H50283  10.080  10.534   7.321  1.5629 -0.5169 -1.5857
  381MOL0     H50284   9.875  10.463   7.108  0.4865 -0.2739 -0.8625
  381MOL0     H50285   9.949  10.617   7.131  0.7444  0.0492 -1.8566
  381MOL0     H50286  10.109  10.374   7.078  1.2623  1.4755  3.5324
  381MOL0     H50287  10.174  10.536   7.079 -0.3495 -0.6497  1.5917
  381MOL0     H50288  10.143  10.478   6.838  0.9336  3.4829 -0.6124
  381MOL0     H50289   9.975  10.432   6.873 -0.2045  0.6977 -0.2528
  381MOL0     H50290   9.967  10.854   6.821 -1.0209 -0.1958 -0.0475
  381MOL0     H50291  10.080  10.470   7.540 -2.4938  2.3926 -2.6321
  381MOL0     H50292  10.067  10.386   7.756  0.8042 -0.4860 -1.4614
  382MOL0     O50293   7.604   9.799   1.310 -1.0618  0.3985  0.1972
  382MOL0     C50294   7.554   9.790   1.198  0.1274  0.4070  0.4679
  382MOL0     O50295   7.538   9.894   1.112 -0.0678 -0.1463 -0.3334
  382MOL0     C50296   7.598  10.016   1.138 -0.0102  0.3437  0.3534
  382MOL0     C50297   7.549  10.145   1.119  0.1220 -0.5028  0.5661
  382MOL0     C50298   7.620  10.255   1.156 -0.5171 -0.1469 -0.2132
  382MOL0     C50299   7.749  10.247   1.213  0.4427 -0.9560  0.1600
  382MOL0     O50300   7.798  10.369   1.256 -0.2909  1.0505 -0.2347
  382MOL0     C50301   7.943  10.386   1.265  0.3793 -0.1638  0.3278
  382MOL0     C50302   7.976  10.436   1.121  0.5380 -0.0130 -0.3020
  382MOL0     C50303   7.945  10.588   1.113 -1.4660 -0.4991  0.3822
  382MOL0     C50304   7.969  10.641   0.970  0.0874  0.1078  0.8810
  382MOL0     C50305   7.872  10.758   0.954 -0.2764 -0.5527 -1.2275
  382MOL0     C50306   7.903  10.844   0.835 -0.1070  0.7668  0.9429
  382MOL0     C50307   7.833  10.987   0.848 -0.9279  0.9687 -0.5399
  382MOL0     C50308   7.900  11.092   0.933  0.3138  0.0172  0.3010
  382MOL0     N50309   8.011  11.152   0.860 -0.3173 -0.4447 -0.2942
  382MOL0     C50310   8.136  11.092   0.836 -0.2075 -0.4691 -0.3148
  382MOL0     C50311   8.212  11.174   0.763 -0.3977 -0.0620 -0.2413
  382MOL0     C50312   8.353  11.157   0.705 -0.4396  0.2398  0.4504
  382MOL0     C50313   8.393  11.237   0.576 -1.1662 -0.4414 -0.4347
  382MOL0     C50314   8.544  11.269   0.583  0.3519 -0.2570 -0.1699
  382MOL0     C50315   8.641  11.149   0.562  0.8025  0.2401 -0.5772
  382MOL0     O50316   8.768  11.180   0.508  1.1973 -0.2522 -0.3433
  382MOL0     C50317   8.865  11.093   0.524  0.0862 -0.9481  0.0579
  382MOL0     C50318   8.859  10.963   0.489  0.2130 -0.6579  0.0567
  382MOL0     C50319   8.979  10.885   0.514 -0.4123 -0.9236 -0.3097
  382MOL0     C50320   9.101  10.939   0.568 -0.0259 -0.0540 -0.5255
  382MOL0     C50321   9.219  10.849   0.600 -0.4496  0.0227 -0.4541
  382MOL0     O50322   9.224  10.719   0.549 -0.5231 -0.4363  0.0435
  382MOL0     C50323   9.317  10.635   0.608 -0.3901 -0.6278 -0.1134
  382MOL0     C50324   9.281  10.543   0.711  0.4449  0.0960 -0.1185
  382MOL0     C50325   9.378  10.461   0.778  0.5828  0.5612  0.2194
  382MOL0     C50326   9.507  10.459   0.733  0.3728 -0.3131  0.0165
  382MOL0     O50327   9.603  10.373   0.793 -0.0932 -0.1035 -0.2715
  382MOL0     C50328   9.572  10.261   0.893  0.7675  0.1100 -0.3668
  382MOL0     C50329   9.686  10.158   0.913  0.4021 -0.4505  0.7916
  382MOL0     C50330   9.685  10.068   0.788 -0.1404 -0.3823  0.4231
  382MOL0     C50331   9.708  10.136   0.650 -0.3146 -0.0104  0.1599
  382MOL0     C50332   9.764  10.043   0.545  0.9809  0.0850 -0.3846
  382MOL0     C50333   9.777  10.117   0.408  0.3278  0.6870  1.1004
  382MOL0     C50334   9.885  10.225   0.400  0.0127  0.7280  0.5201
  382MOL0     C50335   9.854  10.329   0.289 -1.2705  0.5558  0.1831
  382MOL0    Cl50336   9.742  10.438   0.363 -0.3658 -0.0889  0.2333
  382MOL0     C50337   9.546  10.535   0.633  0.2494 -0.7493  0.4292
  382MOL0     C50338   9.450  10.631   0.569 -0.2838  0.9317 -0.5229
  382MOL0     O50339   9.304  10.893   0.678 -0.1674 -0.0635 -0.8246
  382MOL0     C50340   9.091  11.071   0.609 -0.0741 -0.8628  0.2512
  382MOL0     C50341   8.980  11.152   0.571  0.1817  0.5330 -0.2472
  382MOL0     N50342   8.132  11.284   0.736 -0.7833  0.0976  0.1227
  382MOL0     N50343   8.013  11.266   0.789  0.4125  0.1617 -0.3642
  382MOL0     C50344   7.807  10.119   1.226  0.8634  0.1387 -0.1830
  382MOL0     C50345   7.738  10.010   1.189  0.2650 -0.3039  0.7979
  382MOL0     C50346   7.501   9.657   1.168 -0.7123 -1.3733 -0.3196
  382MOL0     C50347   7.371   9.657   1.115 -0.6551  0.6194 -1.6481
  382MOL0     C50348   7.302   9.539   1.095 -0.5420 -0.0113 -0.9593
  382MOL0     C50349   7.368   9.413   1.129  0.7283  0.5317 -0.8911
  382MOL0     O50350   7.303   9.293   1.118  0.6247 -0.3657 -0.5039
  382MOL0     C50351   7.161   9.290   1.113 -0.3888 -0.3917  0.1774
  382MOL0     C50352   7.121   9.145   1.088 -0.1846 -0.5513 -0.0410
  382MOL0     C50353   6.980   9.139   1.038 -0.5917  0.6509  0.6745
  382MOL0     C50354   6.921   8.997   1.024  0.4867  0.4650  0.2590
  382MOL0     C50355   6.794   9.014   0.961  0.9372 -0.1979 -0.5363
  382MOL0     C50356   6.682   9.042   0.909 -0.3167  0.0324  0.4492
  382MOL0     C50357   7.502   9.413   1.176 -0.1138 -0.1339  0.0962
  382MOL0     C50358   7.565   9.533   1.201  0.3695  0.2752 -0.1752
  382MOL0     H50359   7.449  10.154   1.078  0.1333  3.8177  1.0092
  382MOL0     H50360   7.577  10.351   1.128  0.4291  1.0943  2.3274
  382MOL0     H50361   8.001  10.299   1.298 -1.1549 -2.1154 -1.7172
  382MOL0     H50362   7.953  10.465   1.339 -0.4968  1.5181 -1.2589
  382MOL0     H50363   7.919  10.373   1.053  0.5508  0.8967 -1.1856
  382MOL0     H50364   8.082  10.418   1.101  0.4226  1.6769 -2.8091
  382MOL0     H50365   7.996  10.657   1.181  0.2249  0.5499 -1.8219
  382MOL0     H50366   7.838  10.609   1.128 -1.0641  1.5242  0.7827
  382MOL0     H50367   8.075  10.660   0.950 -0.0178  0.0867  0.3089
  382MOL0     H50368   7.951  10.563   0.895  2.1897 -0.1831  0.6162
  382MOL0     H50369   7.886  10.819   1.044  0.0714 -1.7661 -0.4300
  382MOL0     H50370   7.765  10.734   0.943  0.0608 -1.5093 -2.5707
  382MOL0     H50371   7.865  10.792   0.747 -0.2614  1.7271  0.4364
  382MOL0     H50372   8.010  10.862   0.818 -0.3004  0.4157 -0.8467
  382MOL0     H50373   7.818  11.042   0.755 -0.7438  3.2434  0.6871
  382MOL0     H50374   7.735  10.956   0.885 -0.0924 -1.0110  0.1672
  382MOL0     H50375   7.926  11.052   1.031 -1.1046 -0.6317  0.4327
  382MOL0     H50376   7.825  11.170   0.949 -2.9204 -2.4029 -1.6844
  382MOL0     H50377   8.155  10.994   0.879 -0.0158 -0.6559 -0.8110
  382MOL0     H50378   8.360  11.052   0.674  0.0436  0.5164 -0.4060
  382MOL0     H50379   8.420  11.172   0.791 -0.3041  1.9525  0.0682
  382MOL0     H50380   8.350  11.334   0.553 -2.8148 -1.1116 -0.3086
  382MOL0     H50381   8.360  11.164   0.502 -4.4096 -0.1925  0.6083
  382MOL0     H50382   8.559  11.335   0.498 -1.1083 -0.3654 -0.5377
  382MOL0     H50383   8.570  11.329   0.671  2.4740 -1.4130  0.0811
  382MOL0     H50384   8.590  11.083   0.491 -1.0137 -0.2945  1.1353
  382MOL0     H50385   8.657  11.092   0.654  3.4173  0.0837 -1.0540
  382MOL0     H50386   8.769  10.920   0.448  0.7414  0.8446 -2.9423
  382MOL0     H50387   8.977  10.778   0.496  4.3377 -1.0599 -1.3110
  382MOL0     H50388   9.176  10.544   0.739  0.1460  0.1004 -1.1996
  382MOL0     H50389   9.342  10.408   0.866 -1.6720  0.1112 -0.9075
  382MOL0     H50390   9.485  10.206   0.854 -2.1263  0.3858  4.8224
  382MOL0     H50391   9.541  10.297   0.991  2.8601 -2.7784  1.5165
  382MOL0     H50392   9.682  10.095   1.003  3.1098  0.3966  1.5932
  382MOL0     H50393   9.786  10.198   0.930  0.3222 -1.0936  3.1406
  382MOL0     H50394   9.587  10.021   0.782  0.2351 -1.0758 -0.5279
  382MOL0     H50395   9.767   9.995   0.790 -0.8161 -1.2117 -0.9755
  382MOL0     H50396   9.608  10.164   0.616  1.0413 -0.2659 -4.7842
  382MOL0     H50397   9.772  10.224   0.663 -0.5045  0.4108 -1.5531
  382MOL0     H50398   9.688   9.966   0.534  0.8164  0.0985  0.5947
  382MOL0     H50399   9.860   9.997   0.571  2.0966  0.7374 -3.0006
  382MOL0     H50400   9.681  10.160   0.377  0.0894  2.1197  3.5617
  382MOL0     H50401   9.805  10.049   0.328 -0.8010  1.9102 -0.3905
  382MOL0     H50402   9.909  10.280   0.491  1.1210 -1.1000  1.3908
  382MOL0     H50403   9.976  10.174   0.370  0.5067  1.8606  0.0553
  382MOL0     H50404   9.819  10.269   0.204 -0.1131 -0.2002  0.2247
  382MOL0     H50405   9.947  10.383   0.270 -1.4521  1.4154  1.5984
  382MOL0     H50406   9.649  10.529   0.597 -0.0654  1.8821 -1.1652
  382MOL0     H50407   9.474  10.671   0.471  2.5596  0.0437 -0.2731
  382MOL0     H50408   9.177  11.123   0.650 -1.1328  1.2162 -0.0369
  382MOL0     H50409   8.981  11.257   0.597 -1.0235  2.0109 -5.1328
  382MOL0     H50410   7.907  10.096   1.262  1.4949 -2.1568 -2.9877
  382MOL0     H50411   7.790   9.917   1.207 -1.2624 -1.0703  1.5023
  382MOL0     H50412   7.319   9.750   1.096  0.4730  0.7775 -4.4109
  382MOL0     H50413   7.203   9.547   1.051 -1.0402  1.6501  0.3421
  382MOL0     H50414   7.115   9.349   1.034 -0.2097 -0.5031 -0.0111
  382MOL0     H50415   7.128   9.318   1.214  1.6009  0.0759  0.7438
  382MOL0     H50416   7.191   9.112   1.011 -0.8832  1.7019 -1.7765
  382MOL0     H50417   7.128   9.082   1.177 -1.6941  0.3992  0.8100
  382MOL0     H50418   6.980   9.196   0.944  1.6506 -2.9052 -1.7700
  382MOL0     H50419   6.908   9.180   1.108 -2.3449  0.2932 -0.8521
  382MOL0     H50420   6.988   8.936   0.964  1.7845  1.1578  0.9559
  382MOL0     H50421   6.907   8.942   1.117 -0.4391  1.8565  0.9889
  382MOL0     H50422   6.584   9.038   0.867 -0.7757 -0.7127  1.5535
  382MOL0     H50423   7.536   9.322   1.225 -2.8172 -0.3322  1.8556
  382MOL0     H50424   7.660   9.523   1.253  0.4631 -4.0263 -0.8249
  383MOL0     O50425   3.613   2.795   5.376  0.6078 -0.0756  0.0615
  383MOL0     C50426   3.712   2.767   5.441  0.2846  0.2428  0.3602
  383MOL0     O50427   3.710   2.723   5.576 -0.0246 -0.4823  0.0860
  383MOL0     C50428   3.609   2.744   5.663  0.0496 -0.3823 -0.9431
  383MOL0     C50429   3.565   2.874   5.684  0.0867 -0.5534  1.2213
  383MOL0     C50430   3.468   2.902   5.775  0.2353  0.9045  0.1048
  383MOL0     C50431   3.409   2.800   5.855  1.1022 -0.2552  0.7081
  383MOL0     O50432   3.289   2.821   5.927  0.3453 -0.2116  0.6841
  383MOL0     C50433   3.172   2.827   5.844  0.0560 -0.2584  0.0985
  383MOL0     C50434   3.118   2.683   5.838 -0.2468  0.3691 -0.0908
  383MOL0     C50435   3.036   2.637   5.966 -0.1707 -0.1827 -0.2229
  383MOL0     C50436   2.949   2.512   5.944  0.3691 -1.0402  1.8425
  383MOL0     C50437   2.840   2.498   6.061 -0.1949 -0.7267 -0.0269
  383MOL0     C50438   2.911   2.477   6.197 -0.3560 -0.5695  0.6387
  383MOL0     C50439   2.821   2.500   6.310  0.1769  0.2542 -0.7887
  383MOL0     C50440   2.882   2.449   6.445  0.0291 -0.5056 -0.5555
  383MOL0     N50441   3.016   2.503   6.472  0.4317 -0.0219 -0.2914
  383MOL0     C50442   3.068   2.630   6.451 -0.3587 -0.1037  0.0099
  383MOL0     C50443   3.197   2.640   6.500  0.1537  0.6945  0.3514
  383MOL0     C50444   3.296   2.764   6.497 -0.9849 -0.2232 -0.3302
  383MOL0     C50445   3.299   2.812   6.350  0.2205 -0.1546  0.4110
  383MOL0     C50446   3.411   2.923   6.348  0.2282 -0.5421  0.4421
  383MOL0     C50447   3.403   2.989   6.208 -0.0567  0.5029 -0.7324
  383MOL0     O50448   3.526   3.058   6.183  0.1129  0.4870  0.0958
  383MOL0     C50449   3.602   3.016   6.078 -1.1853 -0.1277 -0.4524
  383MOL0     C50450   3.651   3.101   5.981 -0.0063  0.1069 -0.1407
  383MOL0     C50451   3.746   3.070   5.888  1.0301  0.5959 -0.2894
  383MOL0     C50452   3.795   2.941   5.890  0.0045  0.3569 -0.8017
  383MOL0     C50453   3.903   2.910   5.793 -0.2310 -0.5124 -0.5462
  383MOL0     O50454   3.936   3.006   5.702 -0.0821  0.2448  0.2197
  383MOL0     C50455   4.057   3.008   5.636 -0.3967 -0.5590 -0.4611
  383MOL0     C50456   4.169   2.956   5.698  0.5148 -0.2651 -0.0456
  383MOL0     C50457   4.295   2.954   5.636 -0.1478 -0.3451  0.4727
  383MOL0     C50458   4.312   3.012   5.509  0.3802 -0.3919  0.5193
  383MOL0     O50459   4.440   3.014   5.472 -0.7065  0.6824 -0.6012
  383MOL0     C50460   4.480   3.141   5.404 -0.0127  0.0900  0.1808
  383MOL0     C50461   4.476   3.261   5.496  0.5350 -0.7959  0.1678
  383MOL0     C50462   4.592   3.270   5.585 -0.4317  0.6195 -0.5899
  383MOL0     C50463   4.603   3.412   5.638 -0.4142 -0.5027 -0.0137
  383MOL0     C50464   4.747   3.420   5.701  0.3299 -1.4458 -0.1995
  383MOL0     C50465   4.781   3.564   5.747  0.3610  0.1941  0.4040
  383MOL0     C50466   4.934   3.590   5.751  1.0002  0.2042 -0.3532
  383MOL0     C50467   5.010   3.507   5.850 -0.3526 -0.3666 -0.3864
  383MOL0    Cl50468   4.947   3.549   6.009 -0.1526  0.1472 -0.8464
  383MOL0     C50469   4.193   3.051   5.433  1.5624 -0.1010 -0.5533
  383MOL0     C50470   4.069   3.048   5.500 -0.0412 -0.2601 -0.2618
  383MOL0     O50471   3.930   2.801   5.785 -0.0258 -0.3025 -0.0666
  383MOL0     C50472   3.744   2.847   5.979 -0.3872 -0.0433 -0.1087
  383MOL0     C50473   3.643   2.881   6.069 -0.9914  0.3282  0.0429
  383MOL0     N50474   3.202   2.515   6.564 -0.4768  0.2477 -0.8736
  383MOL0     N50475   3.100   2.432   6.544 -0.7956  0.3138 -0.2114
  383MOL0     C50476   3.462   2.673   5.849 -0.1974 -0.1050  0.7590
  383MOL0     C50477   3.560   2.642   5.751  0.4939 -0.9741  0.1016
  383MOL0     C50478   3.843   2.778   5.379 -0.2434  0.2763  0.3347
  383MOL0     C50479   3.960   2.726   5.448 -0.2780  0.0190 -0.6229
  383MOL0     C50480   4.081   2.727   5.382  0.3336 -0.4900  0.2057
  383MOL0     C50481   4.098   2.775   5.251  0.7285  1.1014  0.0181
  383MOL0     O50482   4.222   2.786   5.198  0.4287  0.6220 -0.2893
  383MOL0     C50483   4.304   2.662   5.202  0.3152 -0.8207  0.0486
  383MOL0     C50484   4.438   2.694   5.278  0.4087  0.2532 -0.4867
  383MOL0     C50485   4.546   2.791   5.224  1.3344 -0.1279  0.0092
  383MOL0     C50486   4.513   2.873   5.103 -0.0340 -0.3841  0.1387
  383MOL0     C50487   4.607   2.985   5.093 -0.2639 -0.2765 -0.3704
  383MOL0     C50488   4.685   3.076   5.087 -0.1244  0.7459 -0.2874
  383MOL0     C50489   3.980   2.823   5.183  0.4590 -0.8895 -0.2151
  383MOL0     C50490   3.864   2.836   5.249  0.8829 -0.2828  0.2698
  383MOL0     H50491   3.606   2.943   5.612  0.1045 -1.9135 -0.1119
  383MOL0     H50492   3.421   3.000   5.772 -2.5188 -0.3230 -0.3156
  383MOL0     H50493   3.200   2.835   5.738 -1.4285 -2.6440 -0.5526
  383MOL0     H50494   3.105   2.904   5.884  1.2265 -0.4421  2.5609
  383MOL0     H50495   3.205   2.622   5.814 -1.1539  0.2383 -3.5475
  383MOL0     H50496   3.057   2.669   5.748 -0.4527  0.1688  0.0762
  383MOL0     H50497   2.962   2.716   5.980 -0.4182 -0.6070  0.9727
  383MOL0     H50498   3.111   2.628   6.045 -0.7341  1.2267  0.4986
  383MOL0     H50499   2.910   2.514   5.842 -0.8799 -1.5315  2.2920
  383MOL0     H50500   3.015   2.425   5.938  1.8427  0.1171 -0.2226
  383MOL0     H50501   2.767   2.419   6.042 -2.3748  1.2399 -0.2951
  383MOL0     H50502   2.786   2.592   6.078  1.4869  0.0046  1.6488
  383MOL0     H50503   3.007   2.531   6.193  0.7940 -2.4131  1.6481
  383MOL0     H50504   2.933   2.370   6.202  0.4161 -0.3797  1.5242
  383MOL0     H50505   2.778   2.601   6.321  1.4683  0.9060 -1.5183
  383MOL0     H50506   2.734   2.437   6.289 -0.7243  1.1376  0.1339
  383MOL0     H50507   2.899   2.341   6.439  1.5473 -0.5710  2.6597
  383MOL0     H50508   2.817   2.483   6.525 -0.0448 -4.0031  1.0352
  383MOL0     H50509   3.016   2.704   6.390  1.0738 -1.4780 -3.0456
  383MOL0     H50510   3.392   2.721   6.527 -1.0855 -0.0456  0.2386
  383MOL0     H50511   3.266   2.839   6.570  0.5035 -1.1148  1.2702
  383MOL0     H50512   3.196   2.848   6.340  0.2024 -0.4616 -0.5038
  383MOL0     H50513   3.310   2.738   6.271 -2.4347 -1.3859  1.0597
  383MOL0     H50514   3.387   3.001   6.421 -1.4561 -1.5785  1.0524
  383MOL0     H50515   3.512   2.890   6.374  0.4951  0.6003  0.9267
  383MOL0     H50516   3.318   3.059   6.213 -1.0410 -0.7390  0.9592
  383MOL0     H50517   3.392   2.914   6.129  1.2004  0.4677 -0.8934
  383MOL0     H50518   3.624   3.206   5.968  2.4389  0.7007 -0.8647
  383MOL0     H50519   3.782   3.142   5.815  0.3303  1.3494  0.0944
  383MOL0     H50520   4.180   2.922   5.801 -0.3479  0.6712  0.3769
  383MOL0     H50521   4.381   2.922   5.695  0.4139  0.7838  0.3002
  383MOL0     H50522   4.422   3.166   5.315 -0.4318  1.3333  0.7759
  383MOL0     H50523   4.582   3.122   5.369 -0.0028 -2.0927  1.1988
  383MOL0     H50524   4.387   3.276   5.559  0.9449 -1.7760  0.9969
  383MOL0     H50525   4.480   3.350   5.432  1.0342 -2.8239 -2.8569
  383MOL0     H50526   4.672   3.252   5.513 -0.4490  0.6500 -0.6161
  383MOL0     H50527   4.599   3.193   5.663  1.5491  2.3544  1.0548
  383MOL0     H50528   4.594   3.500   5.574  2.7611  2.4319  3.0988
  383MOL0     H50529   4.534   3.433   5.721  0.3838 -0.9399  0.7747
  383MOL0     H50530   4.821   3.382   5.630  0.4742 -1.6406  0.0516
  383MOL0     H50531   4.737   3.356   5.789 -0.6243 -0.3907  0.4848
  383MOL0     H50532   4.733   3.595   5.840  1.1056 -3.4497  2.2013
  383MOL0     H50533   4.742   3.641   5.680 -0.0126 -0.2433  0.1167
  383MOL0     H50534   4.977   3.568   5.652  2.9841 -2.0855  0.8948
  383MOL0     H50535   4.944   3.696   5.775 -4.6480  1.5009 -2.1605
  383MOL0     H50536   5.114   3.537   5.839 -0.8884  2.2557  0.9878
  383MOL0     H50537   5.013   3.400   5.828  1.3147 -0.0666 -1.7969
  383MOL0     H50538   4.213   3.098   5.338  1.4317 -2.0008 -1.5698
  383MOL0     H50539   3.973   3.077   5.457  0.3517  0.9183 -0.3842
  383MOL0     H50540   3.779   2.745   5.966  3.7243  1.1900 -0.3397
  383MOL0     H50541   3.609   2.807   6.140 -0.9905  1.9828  1.8729
  383MOL0     H50542   3.412   2.593   5.903 -2.9710  0.2217 -1.0989
  383MOL0     H50543   3.587   2.538   5.737  3.9864  0.0311 -2.1264
  383MOL0     H50544   3.954   2.684   5.547 -4.1950  2.7025  0.5152
  383MOL0     H50545   4.170   2.693   5.433  1.1783  0.1982 -0.7657
  383MOL0     H50546   4.341   2.655   5.099 -1.1662  0.8110 -0.6393
  383MOL0     H50547   4.252   2.568   5.223  1.3760 -1.9835 -2.2039
  383MOL0     H50548   4.413   2.726   5.380  3.5710 -1.2075  0.8798
  383MOL0     H50549   4.479   2.595   5.300  0.8017  0.1341 -1.7100
  383MOL0     H50550   4.628   2.721   5.203  1.5308 -0.4833  1.8575
  383MOL0     H50551   4.564   2.856   5.310 -5.9285  0.1542  1.9626
  383MOL0     H50552   4.518   2.816   5.009 -0.1255  2.2269 -1.5575
  383MOL0     H50553   4.418   2.925   5.115 -0.3925 -0.9409 -0.2430
  383MOL0     H50554   4.755   3.157   5.072  1.8737 -0.5874  1.3660
  383MOL0     H50555   3.988   2.863   5.082  0.3654  3.0871  1.1540
  383MOL0     H50556   3.775   2.871   5.197  1.6714 -1.3873 -1.9434
  384MOL0     O50557   6.211   5.402   9.991 -0.3786  0.3159  0.3052
  384MOL0     C50558   6.239   5.470  10.086  0.3153 -0.7458  0.1013
  384MOL0     O50559   6.150   5.505  10.186  0.1676 -0.4324  0.1957
  384MOL0     C50560   6.010   5.478  10.180 -0.1230 -0.2515 -0.4943
  384MOL0     C50561   5.919   5.548  10.100  0.7020  0.4752  0.0621
  384MOL0     C50562   5.788   5.494  10.088  0.4637 -0.2901 -0.0531
  384MOL0     C50563   5.744   5.384  10.168 -0.4193 -0.4850  0.1560
  384MOL0     O50564   5.618   5.345  10.175 -0.1740  0.3140 -1.3060
  384MOL0     C50565   5.522   5.451  10.190 -1.3699  0.0439  0.4495
  384MOL0     C50566   5.388   5.391  10.225  0.5203 -0.1750 -1.1119
  384MOL0     C50567   5.380   5.333  10.366  0.6138 -0.2384 -0.7118
  384MOL0     C50568   5.382   5.437  10.476  0.3923 -0.1651  0.6487
  384MOL0     C50569   5.388   5.385  10.620  0.5210  0.5627 -0.2605
  384MOL0     C50570   5.433   5.495  10.712 -0.1887 -0.4652  0.3966
  384MOL0     C50571   5.527   5.447  10.819 -0.5106  1.1895 -0.0390
  384MOL0     C50572   5.481   5.326  10.902 -0.1114  0.0649  0.0076
  384MOL0     N50573   5.551   5.327  11.033  0.1782 -0.7144 -0.3788
  384MOL0     C50574   5.686   5.333  11.043 -0.0825 -0.6682 -1.0782
  384MOL0     C50575   5.717   5.343  11.181 -0.8174 -0.1602  0.5693
  384MOL0     C50576   5.850   5.380  11.227  0.8284  0.0591  0.8515
  384MOL0     C50577   5.942   5.265  11.266 -0.3014 -0.1882 -0.9518
  384MOL0     C50578   6.075   5.326  11.273  0.0893  1.2736  0.2651
  384MOL0     C50579   6.169   5.228  11.358  0.1365  0.8731  0.0151
  384MOL0     O50580   6.309   5.244  11.336 -0.0802 -0.1308 -0.1130
  384MOL0     C50581   6.390   5.279  11.444  0.6913 -0.0127  0.7579
  384MOL0     C50582   6.505   5.208  11.449  0.6947  0.4828 -0.5708
  384MOL0     C50583   6.610   5.250  11.536  1.1866  1.1784  0.3067
  384MOL0     C50584   6.589   5.358  11.615 -0.1312 -0.4914  0.3818
  384MOL0     C50585   6.702   5.393  11.711 -0.0147  0.2837  0.3896
  384MOL0     O50586   6.799   5.296  11.735 -0.1226  0.6213 -0.1699
  384MOL0     C50587   6.914   5.322  11.802 -1.3319  0.1353 -0.5281
  384MOL0     C50588   6.932   5.390  11.918 -0.1226 -0.0506  0.4248
  384MOL0     C50589   7.057   5.415  11.979  0.0656  0.2640  0.4431
  384MOL0     C50590   7.167   5.362  11.920  0.0037  0.6405  0.2469
  384MOL0     O50591   7.290   5.364  11.983  0.4871  0.0693  0.8777
  384MOL0     C50592   7.284   5.352  12.128 -0.4510 -0.6788 -0.2682
  384MOL0     C50593   7.425   5.377  12.178  0.0352 -0.2002 -0.7780
  384MOL0     C50594   7.435   5.329  12.324 -0.1549 -0.2735 -0.8776
  384MOL0     C50595   7.567   5.378  12.380  0.2753 -0.5952 -0.6770
  384MOL0     C50596   7.553   5.352  12.531 -0.6996  0.1888  0.9123
  384MOL0     C50597   7.675   5.409  12.608 -0.4626 -0.3540  0.0316
  384MOL0     C50598   7.818   5.351  12.580  1.3786 -0.6686  0.1810
  384MOL0     C50599   7.898   5.453  12.513  0.1882  0.6855 -0.1196
  384MOL0    Cl50600   8.068   5.399  12.517  0.1341 -0.1912  0.0824
  384MOL0     C50601   7.161   5.293  11.798  0.4388  0.0891  0.7947
  384MOL0     C50602   7.035   5.264  11.744  0.3432 -0.4858  0.4593
  384MOL0     O50603   6.702   5.511  11.752  0.1117  0.4578 -0.9120
  384MOL0     C50604   6.460   5.422  11.613 -0.5429 -0.7705  0.0652
  384MOL0     C50605   6.364   5.392  11.518 -0.5811 -0.7662  0.3774
  384MOL0     N50606   5.601   5.344  11.260 -0.2250 -0.0159 -0.4252
  384MOL0     N50607   5.508   5.329  11.168 -0.7054 -0.3922 -0.5265
  384MOL0     C50608   5.837   5.337  10.265  0.2529 -0.0045  0.4569
  384MOL0     C50609   5.967   5.381  10.268 -0.7035 -0.1676  0.1626
  384MOL0     C50610   6.383   5.524  10.087  0.2693 -0.4880  1.0208
  384MOL0     C50611   6.412   5.630  10.170 -0.5120 -0.1248  0.5335
  384MOL0     C50612   6.537   5.698  10.158  0.1422  0.2972  0.3890
  384MOL0     C50613   6.632   5.649  10.064 -0.4304  0.9423 -0.7123
  384MOL0     O50614   6.749   5.726  10.044 -0.6281 -0.4069 -0.7499
  384MOL0     C50615   6.823   5.717   9.920  0.1206 -0.0524  0.1464
  384MOL0     C50616   6.961   5.801   9.917  0.3324  0.5160  0.5906
  384MOL0     C50617   6.946   5.954   9.888  0.1557 -0.3927  0.7116
  384MOL0     C50618   7.054   6.033   9.966  0.4281 -0.1646 -0.3826
  384MOL0     C50619   7.054   5.995  10.103 -0.3400  0.8906 -0.7133
  384MOL0     C50620   7.057   5.964  10.219  0.0848  0.2436 -1.0824
  384MOL0     C50621   6.603   5.529   9.999  0.5674 -0.6323 -0.9468
  384MOL0     C50622   6.480   5.461  10.010 -0.8430 -0.1542 -0.9395
  384MOL0     H50623   5.976   5.619  10.041  1.0829  0.7209  0.7183
  384MOL0     H50624   5.711   5.534  10.022 -1.3694  1.7657  3.0638
  384MOL0     H50625   5.509   5.497  10.092 -1.3226 -2.8219 -0.9881
  384MOL0     H50626   5.544   5.536  10.256  1.2276 -0.1737 -0.0097
  384MOL0     H50627   5.360   5.316  10.150 -1.1959  1.1309 -1.8385
  384MOL0     H50628   5.318   5.474  10.214 -0.4900 -0.6860  0.9322
  384MOL0     H50629   5.466   5.270  10.390 -0.4426 -1.1416  0.9559
  384MOL0     H50630   5.285   5.279  10.373  0.3585  0.2343 -0.4178
  384MOL0     H50631   5.469   5.501  10.455 -2.1960  2.4727 -3.2677
  384MOL0     H50632   5.304   5.513  10.463  2.5377  2.1865  0.6175
  384MOL0     H50633   5.446   5.292  10.624 -2.4714 -1.7313 -3.5905
  384MOL0     H50634   5.292   5.351  10.660  1.4347 -3.1918 -0.8673
  384MOL0     H50635   5.348   5.541  10.765  1.2132  1.9635  0.7005
  384MOL0     H50636   5.483   5.574  10.655  1.9432 -1.4528  0.7991
  384MOL0     H50637   5.624   5.433  10.770 -0.5532 -0.9064  0.3875
  384MOL0     H50638   5.548   5.522  10.896  0.6154  0.1796  0.6807
  384MOL0     H50639   5.514   5.239  10.844  1.6860 -0.1102  1.1880
  384MOL0     H50640   5.374   5.327  10.922  0.0427 -1.7228  1.1539
  384MOL0     H50641   5.760   5.343  10.964  2.1204  3.2663  1.1588
  384MOL0     H50642   5.832   5.445  11.313 -5.2328  1.6931 -1.1502
  384MOL0     H50643   5.894   5.453  11.159 -1.1878  2.2779  1.7925
  384MOL0     H50644   5.938   5.192  11.184  0.9855 -1.6280  0.1959
  384MOL0     H50645   5.911   5.228  11.364  1.1498 -2.3035 -1.2098
  384MOL0     H50646   6.111   5.338  11.171  1.2187 -0.1750  0.4697
  384MOL0     H50647   6.076   5.429  11.312 -1.2929  2.2403 -2.0520
  384MOL0     H50648   6.135   5.127  11.336 -0.7790  0.7836  1.6454
  384MOL0     H50649   6.154   5.240  11.466  1.4585  0.6708  0.2394
  384MOL0     H50650   6.497   5.110  11.405 -4.9413  1.1442 -1.7666
  384MOL0     H50651   6.690   5.177  11.543 -0.5277 -0.8394  0.0176
  384MOL0     H50652   6.853   5.438  11.975 -0.0383  0.5664  0.0394
  384MOL0     H50653   7.069   5.493  12.054  2.4246  2.1737 -1.7172
  384MOL0     H50654   7.250   5.253  12.161  4.0914 -1.7138  2.1487
  384MOL0     H50655   7.223   5.429  12.175 -1.3711 -1.4512 -0.1623
  384MOL0     H50656   7.456   5.482  12.169  1.9918 -0.8651 -2.8283
  384MOL0     H50657   7.497   5.311  12.128 -0.0991 -0.6934 -0.3213
  384MOL0     H50658   7.437   5.220  12.332  0.8027 -0.0894  2.5845
  384MOL0     H50659   7.354   5.378  12.379 -2.0006 -1.2437 -2.5992
  384MOL0     H50660   7.654   5.323  12.342 -0.2103 -1.6878 -0.2401
  384MOL0     H50661   7.569   5.485  12.360 -1.9079  0.0724  2.0005
  384MOL0     H50662   7.554   5.245  12.555 -0.8156 -0.0180  0.0189
  384MOL0     H50663   7.467   5.399  12.579  0.1026  3.1244 -0.3187
  384MOL0     H50664   7.657   5.399  12.715  2.6643  2.5559  1.0112
  384MOL0     H50665   7.683   5.516  12.588  0.4738 -0.7493 -1.9892
  384MOL0     H50666   7.854   5.301  12.671  1.3504  0.3483  0.7713
  384MOL0     H50667   7.802   5.270  12.509  1.3891 -1.1237  0.6943
  384MOL0     H50668   7.890   5.548  12.566  1.0646 -0.4157  2.1272
  384MOL0     H50669   7.858   5.472  12.413  1.0318  1.6149 -0.2894
  384MOL0     H50670   7.253   5.256  11.755  0.7981  0.9935  0.7619
  384MOL0     H50671   7.039   5.193  11.661  0.3368 -0.5830  0.5426
  384MOL0     H50672   6.435   5.511  11.669  1.3705  1.5597 -2.5066
  384MOL0     H50673   6.272   5.442  11.489  0.1559 -0.7665 -2.1741
  384MOL0     H50674   5.812   5.250  10.325  1.2805 -1.9842 -1.8224
  384MOL0     H50675   6.035   5.329  10.335  1.1108  0.2681 -1.2319
  384MOL0     H50676   6.333   5.674  10.231  0.3458  0.1687  1.4507
  384MOL0     H50677   6.549   5.792  10.209 -1.1218  1.1702 -0.8434
  384MOL0     H50678   6.758   5.747   9.837  0.1238  0.3265  0.2788
  384MOL0     H50679   6.849   5.613   9.897  1.9996  0.5872 -0.8259
  384MOL0     H50680   6.999   5.789  10.019  1.2644  3.6900  0.7442
  384MOL0     H50681   7.038   5.764   9.849  2.3208  1.5149  2.2023
  384MOL0     H50682   6.845   5.972   9.924  0.4636  1.5226  0.7145
  384MOL0     H50683   6.933   5.983   9.783 -0.0919  1.0122  1.1134
  384MOL0     H50684   7.157   6.009   9.939 -0.1526 -3.5496 -0.1139
  384MOL0     H50685   7.013   6.133   9.949 -1.3463 -1.2101 -2.9047
  384MOL0     H50686   7.047   5.931  10.320 -5.4598  2.0487 -0.7010
  384MOL0     H50687   6.669   5.472   9.935  0.3868 -0.3435 -1.3984
  384MOL0     H50688   6.475   5.359   9.974 -4.7603 -0.7168  0.6599
  385MOL0     O50689   3.209   0.368   7.877  0.2938 -0.4600 -0.1756
  385MOL0     C50690   3.320   0.331   7.911  0.2959 -0.3555  0.6251
  385MOL0     O50691   3.373   0.205   7.889  0.6618 -0.6450 -0.8063
  385MOL0     C50692   3.300   0.104   7.828 -0.3471 -0.9932  0.0179
  385MOL0     C50693   3.374  -0.013   7.848 -0.0720 -0.0402 -0.5804
  385MOL0     C50694   3.330  -0.142   7.819 -0.0602 -1.0887 -0.4651
  385MOL0     C50695   3.203  -0.149   7.747 -0.6414  0.0441 -0.7926
  385MOL0     O50696   3.152  -0.268   7.724 -0.3588  0.0307  0.0600
  385MOL0     C50697   3.135  -0.309   7.589  0.3270  0.7914 -0.7354
  385MOL0     C50698   3.262  -0.307   7.509  0.2745  0.6925 -0.9769
  385MOL0     C50699   3.379  -0.372   7.582 -0.1341  1.1210 -0.2001
  385MOL0     C50700   3.418  -0.509   7.521 -0.3926 -0.2243 -0.2922
  385MOL0     C50701   3.309  -0.622   7.510  0.8663 -0.4580 -0.0832
  385MOL0     C50702   3.251  -0.662   7.651 -0.4521 -0.0568 -0.5267
  385MOL0     C50703   3.326  -0.771   7.730  0.4716 -0.9200 -0.3062
  385MOL0     C50704   3.328  -0.903   7.658  0.2687 -0.4915 -0.1546
  385MOL0     N50705   3.384  -1.015   7.745  0.2219  0.1322 -0.1365
  385MOL0     C50706   3.499  -1.100   7.725  0.0725 -0.7452  0.1440
  385MOL0     C50707   3.496  -1.187   7.822 -0.1215  0.7221 -0.2867
  385MOL0     C50708   3.595  -1.296   7.821 -0.0205  0.0990  0.2655
  385MOL0     C50709   3.588  -1.374   7.954  0.6248  0.7591 -0.8758
  385MOL0     C50710   3.677  -1.510   7.965  0.1606  0.9989 -0.4371
  385MOL0     C50711   3.828  -1.474   7.962  0.7166  0.0586 -0.2349
  385MOL0     O50712   3.876  -1.394   8.070  0.2597  0.6385  0.2608
  385MOL0     C50713   3.919  -1.441   8.194 -0.0538  0.9052  0.2006
  385MOL0     C50714   3.921  -1.575   8.243 -0.1477  0.9602  0.3327
  385MOL0     C50715   3.955  -1.611   8.373 -0.0047  0.0064 -0.1658
  385MOL0     C50716   4.006  -1.513   8.463  0.1869 -0.2941 -1.3274
  385MOL0     C50717   4.051  -1.551   8.603  0.3585 -0.2121 -0.0249
  385MOL0     O50718   4.100  -1.443   8.673  0.2689 -0.7949 -0.1025
  385MOL0     C50719   4.114  -1.459   8.810 -0.2305 -0.0832 -0.0460
  385MOL0     C50720   4.198  -1.557   8.869 -0.6065 -0.2246  0.3826
  385MOL0     C50721   4.199  -1.564   9.008 -0.4712 -1.0865  0.6831
  385MOL0     C50722   4.126  -1.487   9.091 -0.6940 -0.9093  0.6564
  385MOL0     O50723   4.140  -1.517   9.224  0.0257 -0.6840  0.6738
  385MOL0     C50724   4.148  -1.408   9.309  0.6313 -0.4988  0.4905
  385MOL0     C50725   4.173  -1.456   9.446 -0.0379  0.3692  0.4842
  385MOL0     C50726   4.077  -1.559   9.505  0.0355 -0.5902  0.0035
  385MOL0     C50727   4.104  -1.576   9.656  0.2104  0.3674 -0.2860
  385MOL0     C50728   3.987  -1.643   9.739  1.3214 -0.4632  0.6867
  385MOL0     C50729   3.852  -1.561   9.710 -0.1573 -0.7219  0.4029
  385MOL0     C50730   3.733  -1.622   9.783 -0.0720  0.3532  0.3673
  385MOL0     C50731   3.623  -1.512   9.791  0.6190 -0.2993  0.1655
  385MOL0    Cl50732   3.490  -1.566   9.888 -0.1361 -0.3901  0.0726
  385MOL0     C50733   4.057  -1.375   9.031 -0.3182  0.2262 -0.5566
  385MOL0     C50734   4.056  -1.364   8.897 -0.4771 -1.3769  0.7043
  385MOL0     O50735   4.028  -1.665   8.644  0.3918 -0.2009 -0.0491
  385MOL0     C50736   4.005  -1.379   8.412 -0.9223 -0.2792  0.2029
  385MOL0     C50737   3.961  -1.346   8.280  0.6982  0.0036 -0.8424
  385MOL0     N50738   3.391  -1.157   7.908 -0.0337 -0.1634  0.6523
  385MOL0     N50739   3.322  -1.051   7.870  0.4002  0.5491  0.0694
  385MOL0     C50740   3.130  -0.023   7.720  0.2012  1.1630  0.7164
  385MOL0     C50741   3.184   0.101   7.753  0.9584 -0.7344 -1.2889
  385MOL0     C50742   3.407   0.436   7.972  0.3828 -0.5287  0.9433
  385MOL0     C50743   3.539   0.402   8.005  0.4094 -0.3335 -0.0593
  385MOL0     C50744   3.614   0.502   8.070  0.0596 -0.1464 -0.1428
  385MOL0     C50745   3.559   0.627   8.107 -0.0750  0.5212  0.1643
  385MOL0     O50746   3.652   0.706   8.177 -0.7684  0.4818 -0.2987
  385MOL0     C50747   3.603   0.823   8.265  0.0676 -0.0783  1.0223
  385MOL0     C50748   3.608   0.959   8.199 -0.2235 -0.4082  0.8328
  385MOL0     C50749   3.738   1.033   8.222  0.3989 -0.0441 -0.0132
  385MOL0     C50750   3.737   1.185   8.188 -0.2542  0.3653  0.4517
  385MOL0     C50751   3.659   1.268   8.281 -0.1517 -0.7300 -0.7090
  385MOL0     C50752   3.575   1.328   8.347 -0.8105  0.3163 -0.1748
  385MOL0     C50753   3.424   0.657   8.072 -0.7023  0.4490 -0.0984
  385MOL0     C50754   3.347   0.561   8.007 -0.2038  0.1564 -0.1707
  385MOL0     H50755   3.463  -0.006   7.910 -0.8403  1.4276  0.4042
  385MOL0     H50756   3.389  -0.230   7.844  0.5655 -0.0926  1.7488
  385MOL0     H50757   3.060  -0.253   7.533  0.7317  0.8470 -1.2319
  385MOL0     H50758   3.088  -0.408   7.587  0.3269  0.7511  0.5469
  385MOL0     H50759   3.276  -0.199   7.493 -0.3825  0.8511 -0.5237
  385MOL0     H50760   3.238  -0.349   7.411 -4.1810 -0.1548  0.2587
  385MOL0     H50761   3.356  -0.390   7.688 -2.1692  0.3749 -0.7250
  385MOL0     H50762   3.470  -0.312   7.570 -0.5820  1.3150 -3.2465
  385MOL0     H50763   3.439  -0.493   7.415 -1.4299  3.0555 -0.0945
  385MOL0     H50764   3.508  -0.556   7.562 -0.5823 -3.1572 -2.8350
  385MOL0     H50765   3.352  -0.709   7.460  1.7580  0.9393 -1.9014
  385MOL0     H50766   3.230  -0.574   7.452  0.0819 -2.5102 -0.8051
  385MOL0     H50767   3.156  -0.712   7.637 -1.2705 -0.2397  4.0214
  385MOL0     H50768   3.231  -0.576   7.716  1.9335 -0.3386  0.7239
  385MOL0     H50769   3.430  -0.735   7.732 -0.1152  0.8726 -0.1709
  385MOL0     H50770   3.289  -0.784   7.831  0.9570  0.0136  0.0005
  385MOL0     H50771   3.393  -0.898   7.570  1.9745  1.1994  1.1176
  385MOL0     H50772   3.227  -0.934   7.631  0.2635 -2.2816  1.6640
  385MOL0     H50773   3.565  -1.092   7.639 -1.7657 -0.2487 -1.2963
  385MOL0     H50774   3.696  -1.253   7.817 -0.6953  1.6547 -1.8084
  385MOL0     H50775   3.586  -1.365   7.737 -0.8023  0.9561 -0.3691
  385MOL0     H50776   3.487  -1.415   7.962  2.2856 -4.0096 -1.3938
  385MOL0     H50777   3.610  -1.321   8.047 -0.7281  2.4860 -1.4682
  385MOL0     H50778   3.662  -1.561   8.061 -0.1787  4.2768  1.4072
  385MOL0     H50779   3.645  -1.587   7.895 -0.2389  1.4511 -0.7601
  385MOL0     H50780   3.849  -1.416   7.872  1.4751  1.1467  0.6189
  385MOL0     H50781   3.884  -1.567   7.967  0.3560 -0.0962  2.3481
  385MOL0     H50782   3.898  -1.662   8.183  0.0588  1.2107 -0.1151
  385MOL0     H50783   3.949  -1.716   8.401 -2.3732  0.1298  0.0312
  385MOL0     H50784   4.264  -1.626   8.818  2.3042  2.1514  0.6524
  385MOL0     H50785   4.269  -1.638   9.047  1.4886 -0.6121 -1.6940
  385MOL0     H50786   4.056  -1.349   9.305 -0.7170 -2.5337 -2.3258
  385MOL0     H50787   4.235  -1.358   9.266 -0.2938 -1.7364 -3.2562
  385MOL0     H50788   4.172  -1.370   9.514 -0.5700 -0.7116  1.9039
  385MOL0     H50789   4.270  -1.504   9.462 -0.8531 -1.8910 -0.9298
  385MOL0     H50790   4.082  -1.654   9.451 -0.6997 -0.6113 -0.0329
  385MOL0     H50791   3.977  -1.515   9.496 -0.4726 -1.7689 -0.3167
  385MOL0     H50792   4.196  -1.633   9.675 -0.9875 -0.8282  2.5807
  385MOL0     H50793   4.113  -1.480   9.707 -2.5755 -0.6242  2.4521
  385MOL0     H50794   4.007  -1.657   9.846 -0.0391 -4.8197  0.5480
  385MOL0     H50795   3.974  -1.747   9.708 -1.1344  0.1942 -0.7750
  385MOL0     H50796   3.827  -1.568   9.603  2.5952  3.3312 -0.7595
  385MOL0     H50797   3.850  -1.454   9.730 -0.5838 -0.0414 -2.7198
  385MOL0     H50798   3.689  -1.710   9.735 -1.8591  0.4766  1.6985
  385MOL0     H50799   3.762  -1.649   9.885 -2.1630 -1.0559  0.6475
  385MOL0     H50800   3.591  -1.479   9.692  3.4212  0.6063 -0.5257
  385MOL0     H50801   3.653  -1.417   9.836  0.4986 -0.0477 -0.2815
  385MOL0     H50802   4.005  -1.309   9.100  2.2023 -0.7694  2.5471
  385MOL0     H50803   4.006  -1.277   8.856 -1.2613 -1.0220  2.3212
  385MOL0     H50804   4.042  -1.291   8.464 -3.1154  0.2836  0.9012
  385MOL0     H50805   3.964  -1.243   8.245 -0.0336 -0.1334 -1.3377
  385MOL0     H50806   3.031  -0.035   7.678  0.0456 -1.8323  1.6291
  385MOL0     H50807   3.114   0.182   7.739  0.8452 -0.5927  0.0066
  385MOL0     H50808   3.575   0.302   7.982  1.2044 -0.0527 -0.0738
  385MOL0     H50809   3.719   0.483   8.085  0.0502 -0.8192 -0.8843
  385MOL0     H50810   3.680   0.829   8.342  4.0816  0.0054 -2.6356
  385MOL0     H50811   3.502   0.796   8.298 -0.5538 -3.3512 -2.8030
  385MOL0     H50812   3.590   0.952   8.091 -1.0649  1.8153  0.7665
  385MOL0     H50813   3.523   1.009   8.246 -1.7298 -2.7068  0.7068
  385MOL0     H50814   3.798   0.977   8.150 -3.2007 -3.4708 -0.6994
  385MOL0     H50815   3.787   1.022   8.319  2.7643 -1.7757 -1.2887
  385MOL0     H50816   3.837   1.227   8.173 -0.9404  1.9902  0.1867
  385MOL0     H50817   3.683   1.206   8.096 -2.2491 -0.3021  1.4118
  385MOL0     H50818   3.503   1.376   8.411 -1.0424  0.6532 -0.6795
  385MOL0     H50819   3.396   0.751   8.118 -0.2693 -0.4688  2.2049
  385MOL0     H50820   3.242   0.581   7.990  0.0484  0.7744 -1.1309
  386MOL0     O50821   8.002   3.124   4.002 -0.0859 -0.2889  0.2381
  386MOL0     C50822   8.091   3.070   4.070 -0.5297  0.3744  0.0455
  386MOL0     O50823   8.108   3.081   4.200  0.1305  0.0519  0.2933
  386MOL0     C50824   8.047   3.177   4.264 -0.6717 -0.5908 -1.2006
  386MOL0     C50825   8.024   3.158   4.398 -1.0289 -0.1394 -0.9086
  386MOL0     C50826   7.944   3.245   4.460 -0.1961  0.0767  0.1413
  386MOL0     C50827   7.895   3.368   4.406  0.3382  0.8503  0.3347
  386MOL0     O50828   7.796   3.444   4.473  0.6565 -0.1789 -0.3752
  386MOL0     C50829   7.687   3.370   4.504 -0.4608 -0.3076 -0.2243
  386MOL0     C50830   7.570   3.460   4.522 -0.5406  0.9327  0.0926
  386MOL0     C50831   7.536   3.540   4.388 -0.4839 -0.7482  0.6944
  386MOL0     C50832   7.421   3.640   4.413  0.0537  0.6367 -0.3072
  386MOL0     C50833   7.401   3.738   4.299 -0.7118  0.6158  0.5093
  386MOL0     C50834   7.304   3.840   4.354  0.2247 -0.7391  0.2102
  386MOL0     C50835   7.282   3.953   4.250  0.0586  0.8333 -0.4273
  386MOL0     C50836   7.163   4.047   4.286 -1.5911 -0.1766 -0.2233
  386MOL0     N50837   7.205   4.140   4.391  0.3615  0.3716  0.3972
  386MOL0     C50838   7.204   4.107   4.526  0.2397  0.5131 -0.2360
  386MOL0     C50839   7.242   4.229   4.570 -0.5896  0.8188  0.3618
  386MOL0     C50840   7.266   4.264   4.711  0.5085 -0.5882  0.0573
  386MOL0     C50841   7.407   4.262   4.761 -0.1021 -0.0803  0.1065
  386MOL0     C50842   7.446   4.119   4.812  0.0461  1.5972  0.1488
  386MOL0     C50843   7.577   4.130   4.883  0.1094 -0.3458  0.2207
  386MOL0     O50844   7.620   3.994   4.910  0.1543 -1.1342 -0.4000
  386MOL0     C50845   7.736   3.971   4.970  0.5793 -0.3572 -0.1746
  386MOL0     C50846   7.754   3.856   5.042  1.6704 -0.5566  0.2607
  386MOL0     C50847   7.873   3.828   5.103 -0.2672  1.2699 -0.7204
  386MOL0     C50848   7.994   3.902   5.089  0.0974 -0.1242 -1.0073
  386MOL0     C50849   8.120   3.877   5.176  0.9778 -0.5944  0.7981
  386MOL0     O50850   8.232   3.967   5.167  0.1539  0.7841  1.3454
  386MOL0     C50851   8.352   3.931   5.221  0.4251  0.3716  0.0583
  386MOL0     C50852   8.401   3.795   5.217  0.6498 -0.6441  0.2623
  386MOL0     C50853   8.517   3.767   5.284  0.0596  0.3342  0.0450
  386MOL0     C50854   8.600   3.866   5.334  0.6774  0.5871 -0.0083
  386MOL0     O50855   8.735   3.846   5.380  0.9677 -0.3728  0.0636
  386MOL0     C50856   8.815   3.770   5.301  0.2546  1.1082  0.9379
  386MOL0     C50857   8.952   3.761   5.357 -0.1444  0.0383  0.3135
  386MOL0     C50858   9.001   3.899   5.392 -0.2987 -0.1714 -0.7437
  386MOL0     C50859   9.144   3.880   5.454 -0.0177  0.2835  0.4157
  386MOL0     C50860   9.189   3.986   5.552  0.4087 -0.5628  0.0166
  386MOL0     C50861   9.307   3.945   5.641 -0.3520 -0.2160 -0.5012
  386MOL0     C50862   9.429   3.916   5.555  0.5583 -0.4299 -0.1303
  386MOL0     C50863   9.555   3.974   5.624 -0.1320  0.5858 -0.5739
  386MOL0    Cl50864   9.592   3.880   5.774  0.1633 -0.1678  0.4405
  386MOL0     C50865   8.555   3.999   5.337  0.3501 -0.2770 -0.6286
  386MOL0     C50866   8.432   4.028   5.283 -0.3719  0.4058  0.6985
  386MOL0     O50867   8.107   3.777   5.243  0.2011  0.3725 -0.3819
  386MOL0     C50868   7.976   4.020   5.010  0.1765  1.3423 -0.2529
  386MOL0     C50869   7.851   4.055   4.953 -0.3797  1.2686  0.1051
  386MOL0     N50870   7.285   4.313   4.466 -0.2478 -1.1165 -0.3488
  386MOL0     N50871   7.275   4.252   4.355 -0.2499 -0.2482 -0.2182
  386MOL0     C50872   7.935   3.398   4.274 -0.3398  0.1031  0.4738
  386MOL0     C50873   8.014   3.303   4.212  1.1340 -0.8246  0.2844
  386MOL0     C50874   8.188   2.967   4.006 -0.2540  0.1981  0.2920
  386MOL0     C50875   8.293   2.904   4.079 -0.6372  1.0867  0.3486
  386MOL0     C50876   8.375   2.808   4.021 -0.8526 -0.6473  0.2129
  386MOL0     C50877   8.351   2.770   3.884  0.3964  0.7322  0.2507
  386MOL0     O50878   8.427   2.672   3.826 -0.8661 -0.4917 -0.2752
  386MOL0     C50879   8.566   2.714   3.808 -0.0592  0.5223  0.2204
  386MOL0     C50880   8.571   2.761   3.665  0.6729 -0.4999  0.7433
  386MOL0     C50881   8.691   2.854   3.638 -0.6884 -0.7658 -0.5753
  386MOL0     C50882   8.699   2.891   3.495 -0.0073 -0.5137  0.9793
  386MOL0     C50883   8.746   2.778   3.412  0.1065 -0.6174 -0.7390
  386MOL0     C50884   8.796   2.680   3.365 -0.3105  0.3712  1.1313
  386MOL0     C50885   8.253   2.825   3.812  0.0390 -0.5508  0.6335
  386MOL0     C50886   8.171   2.928   3.866  0.1589  0.4142 -0.4010
  386MOL0     H50887   8.049   3.066   4.451 -1.0761  0.0341 -0.5826
  386MOL0     H50888   7.908   3.231   4.562 -0.0391  1.8407  0.4708
  386MOL0     H50889   7.702   3.323   4.602 -0.3966  2.7193  1.3630
  386MOL0     H50890   7.672   3.310   4.414  1.1431 -0.3129 -0.5128
  386MOL0     H50891   7.588   3.530   4.605  1.0882  0.0511  0.5371
  386MOL0     H50892   7.476   3.410   4.547 -0.0914  0.7200  1.4354
  386MOL0     H50893   7.514   3.467   4.310  2.3396 -4.4289  2.9788
  386MOL0     H50894   7.621   3.601   4.354  0.4854 -1.7079  1.3100
  386MOL0     H50895   7.331   3.578   4.424  0.7390 -0.2581  0.3397
  386MOL0     H50896   7.447   3.679   4.512  0.4540 -2.5889  0.9942
  386MOL0     H50897   7.369   3.674   4.216  0.1324 -0.1385  0.7472
  386MOL0     H50898   7.492   3.787   4.264  0.7401 -2.2770 -0.0582
  386MOL0     H50899   7.348   3.878   4.446 -2.4884 -1.3241  1.8492
  386MOL0     H50900   7.213   3.795   4.393 -0.4941  0.1461 -0.3886
  386MOL0     H50901   7.362   4.019   4.214  0.3012 -1.0757 -3.7875
  386MOL0     H50902   7.247   3.896   4.163  0.0302 -0.0188  0.1359
  386MOL0     H50903   7.077   3.989   4.319 -0.8435 -1.2978 -0.2111
  386MOL0     H50904   7.135   4.106   4.198 -1.5102  0.4339  0.1556
  386MOL0     H50905   7.164   4.027   4.587  0.6587  1.1397  0.8887
  386MOL0     H50906   7.199   4.209   4.778 -0.4028 -0.7504 -0.9725
  386MOL0     H50907   7.230   4.366   4.725 -0.3471 -0.1657 -4.1877
  386MOL0     H50908   7.414   4.322   4.853  3.2780 -3.4438  2.3584
  386MOL0     H50909   7.485   4.299   4.693  0.2840  0.3021  0.7443
  386MOL0     H50910   7.372   4.057   4.863  1.2202 -0.3982 -0.4801
  386MOL0     H50911   7.451   4.059   4.721 -2.2797  1.6932 -0.1005
  386MOL0     H50912   7.556   4.180   4.978 -3.3607  1.0519 -1.1077
  386MOL0     H50913   7.644   4.193   4.825 -0.4022  2.4882  2.4794
  386MOL0     H50914   7.675   3.784   5.062  2.2718 -0.7737  2.0585
  386MOL0     H50915   7.865   3.749   5.177 -2.2170  1.5797 -0.5448
  386MOL0     H50916   8.334   3.720   5.177  1.3798  0.3271 -3.0664
  386MOL0     H50917   8.554   3.668   5.310  1.0086  1.2136  2.2501
  386MOL0     H50918   8.816   3.811   5.200  3.8535 -2.1606 -0.6250
  386MOL0     H50919   8.779   3.666   5.293 -3.3587  2.1748  1.4918
  386MOL0     H50920   9.024   3.723   5.283 -0.9054  0.8900 -0.9008
  386MOL0     H50921   8.939   3.702   5.448 -0.3576  0.5526  0.6190
  386MOL0     H50922   8.944   3.952   5.469  1.7961  0.4185  0.4615
  386MOL0     H50923   9.005   3.960   5.301 -0.7941  0.5175 -0.3107
  386MOL0     H50924   9.134   3.782   5.502 -1.2219 -0.4251 -1.1613
  386MOL0     H50925   9.226   3.873   5.382 -0.5862 -0.2093 -0.2020
  386MOL0     H50926   9.104   4.018   5.612 -0.6975  0.9149 -2.2247
  386MOL0     H50927   9.212   4.080   5.503 -1.5182 -0.0784 -0.0142
  386MOL0     H50928   9.281   3.855   5.698  2.5754 -0.5218  0.5376
  386MOL0     H50929   9.325   4.024   5.715  1.0254 -2.5681  1.8465
  386MOL0     H50930   9.431   3.809   5.533 -0.5034  0.0813 -3.2329
  386MOL0     H50931   9.428   3.967   5.458  0.7753 -0.2824 -0.0551
  386MOL0     H50932   9.525   4.074   5.657  1.1738  0.2294  1.9464
  386MOL0     H50933   9.642   3.974   5.558  0.3708  0.0181  0.0652
  386MOL0     H50934   8.608   4.080   5.386 -2.6318  1.7069 -0.4143
  386MOL0     H50935   8.411   4.133   5.301 -1.8917 -0.0950  2.0880
  386MOL0     H50936   8.060   4.086   4.992  2.5397 -1.6516 -1.0413
  386MOL0     H50937   7.854   4.145   4.892 -1.7796  0.2864 -1.4915
  386MOL0     H50938   7.922   3.500   4.240  1.1849 -0.3298 -1.6081
  386MOL0     H50939   8.031   3.335   4.110 -0.0497  0.3214  0.4129
  386MOL0     H50940   8.336   2.927   4.176  2.9964 -2.1438 -0.2535
  386MOL0     H50941   8.457   2.755   4.069  1.6264 -2.3312 -5.0154
  386MOL0     H50942   8.638   2.633   3.824  0.4575  1.1671  1.2945
  386MOL0     H50943   8.605   2.795   3.870 -1.8374 -0.3763  2.6681
  386MOL0     H50944   8.579   2.672   3.603 -1.0540  0.8909 -1.6349
  386MOL0     H50945   8.475   2.799   3.631  0.9231 -1.6260 -1.3800
  386MOL0     H50946   8.785   2.812   3.673 -1.0604  0.1860  1.7849
  386MOL0     H50947   8.675   2.947   3.694  2.7145 -1.6709  2.1821
  386MOL0     H50948   8.605   2.936   3.461  0.0066 -0.9423  0.3484
  386MOL0     H50949   8.779   2.965   3.492 -0.6523  0.2059  1.2079
  386MOL0     H50950   8.838   2.596   3.314 -0.5183  2.4480 -2.8261
  386MOL0     H50951   8.225   2.801   3.710  1.1787 -0.3344  0.2528
  386MOL0     H50952   8.087   2.959   3.806  0.4361  0.1798 -0.9228
  387MOL0     O50953   1.627   8.604  10.041  0.2171  0.0406 -0.1524
  387MOL0     C50954   1.613   8.727  10.061 -0.2016  1.4357  0.1653
  387MOL0     O50955   1.715   8.810  10.094  0.4747 -1.0450  0.0389
  387MOL0     C50956   1.848   8.801  10.111  1.0524  0.6798 -0.3513
  387MOL0     C50957   1.934   8.915  10.135  1.3541  1.4723 -0.3019
  387MOL0     C50958   2.076   8.904  10.155  1.1812 -0.0824 -0.2457
  387MOL0     C50959   2.133   8.779  10.163 -0.3169 -0.5455 -0.3057
  387MOL0     O50960   2.272   8.774  10.176  0.5920  0.2351  0.0836
  387MOL0     C50961   2.311   8.754  10.313  0.6512 -1.0853  0.2062
  387MOL0     C50962   2.393   8.626  10.323  1.2098  0.1454 -0.8590
  387MOL0     C50963   2.532   8.625  10.269  0.4457  0.4163 -0.1568
  387MOL0     C50964   2.614   8.741  10.330  0.0588  0.7895  0.1248
  387MOL0     C50965   2.765   8.706  10.315  0.4062  0.2293 -0.5679
  387MOL0     C50966   2.832   8.742  10.182 -0.6863 -0.5093 -0.3541
  387MOL0     C50967   2.982   8.691  10.184  0.6360 -0.5009 -0.1053
  387MOL0     C50968   3.069   8.769  10.074 -0.2360  0.0801 -0.4188
  387MOL0     N50969   3.203   8.707  10.047  0.5330  0.3933 -0.2771
  387MOL0     C50970   3.233   8.597   9.963  0.1536 -0.3928 -0.2887
  387MOL0     C50971   3.361   8.582   9.980 -1.6921  0.0775  0.0237
  387MOL0     C50972   3.440   8.469   9.909  0.5141  0.6067  0.0832
  387MOL0     C50973   3.507   8.522   9.773  0.3109  0.1248 -0.0251
  387MOL0     C50974   3.415   8.536   9.656  0.3425  0.0921  0.6846
  387MOL0     C50975   3.325   8.417   9.620 -0.3758 -0.4603  0.8802
  387MOL0     O50976   3.196   8.427   9.692 -0.9483 -0.1221  0.3011
  387MOL0     C50977   3.098   8.340   9.665  0.0486 -0.6213  0.8375
  387MOL0     C50978   3.124   8.214   9.603 -0.5057  0.4210  0.0340
  387MOL0     C50979   3.009   8.136   9.577  0.1907  0.3750  0.4545
  387MOL0     C50980   2.878   8.174   9.616  0.5956  0.4540  0.2197
  387MOL0     C50981   2.762   8.089   9.589 -0.9057  0.9114  0.8714
  387MOL0     O50982   2.769   7.976   9.514  0.0715  0.1768  0.2037
  387MOL0     C50983   2.680   7.875   9.515 -0.2554  0.6175 -0.3758
  387MOL0     C50984   2.580   7.859   9.616  0.3073 -0.5550  0.0852
  387MOL0     C50985   2.473   7.765   9.598  0.1681 -0.8178  0.3109
  387MOL0     C50986   2.463   7.687   9.482 -0.9602 -1.1636 -0.2875
  387MOL0     O50987   2.358   7.600   9.486  0.3992  0.0273  0.4756
  387MOL0     C50988   2.218   7.646   9.478  0.0653  0.2069 -0.1263
  387MOL0     C50989   2.118   7.532   9.445 -0.2602  0.0957  0.5052
  387MOL0     C50990   2.119   7.487   9.301 -0.9008  0.9372  0.2664
  387MOL0     C50991   2.005   7.385   9.276  0.1307 -1.0189  0.5505
  387MOL0     C50992   2.013   7.334   9.132 -0.6498  0.0675  0.3381
  387MOL0     C50993   1.910   7.226   9.100 -0.2501 -0.0798 -0.5610
  387MOL0     C50994   1.948   7.097   9.180  0.3558  0.4501  0.1137
  387MOL0     C50995   1.900   6.976   9.113  0.3529 -0.0780 -0.1296
  387MOL0    Cl50996   1.733   6.993   9.069  0.1325  0.1456 -0.2183
  387MOL0     C50997   2.564   7.703   9.383  0.3801  0.5834 -0.1119
  387MOL0     C50998   2.670   7.800   9.399  0.2314  0.2402 -0.9557
  387MOL0     O50999   2.657   8.131   9.630 -0.8555  0.2059 -0.1970
  387MOL0     C51000   2.866   8.289   9.692  0.4123 -0.2068  0.2972
  387MOL0     C51001   2.971   8.370   9.714 -0.4958 -0.2333  0.0433
  387MOL0     N51002   3.414   8.693  10.049 -0.4202  0.0589  0.2255
  387MOL0     N51003   3.320   8.752  10.100  1.1722 -0.7777 -0.3547
  387MOL0     C51004   2.043   8.668  10.160 -0.6033 -0.9116 -0.4553
  387MOL0     C51005   1.911   8.674  10.127  0.6480 -0.4124 -0.3565
  387MOL0     C51006   1.478   8.777  10.027 -0.6431  0.5231  0.1776
  387MOL0     C51007   1.454   8.913  10.044  1.0722 -0.0843  0.0493
  387MOL0     C51008   1.333   8.972  10.009 -0.5669  0.7253  0.3607
  387MOL0     C51009   1.222   8.894   9.981  0.4031 -0.1411 -0.9576
  387MOL0     O51010   1.098   8.949   9.955 -0.7315  0.0092 -0.1234
  387MOL0     C51011   0.994   8.861   9.964 -0.4435 -0.6823 -0.2808
  387MOL0     C51012   0.862   8.932   9.959  0.5456 -0.0461 -0.3236
  387MOL0     C51013   0.840   9.025   9.841 -0.5355  0.2737  1.1069
  387MOL0     C51014   0.686   9.066   9.833  0.2090 -0.0959  0.9202
  387MOL0     C51015   0.655   9.138   9.705  1.4294  0.2330  1.0472
  387MOL0     C51016   0.610   9.183   9.598 -0.4095  0.6546 -0.1543
  387MOL0     C51017   1.242   8.758   9.969  0.0141 -0.3441 -0.1844
  387MOL0     C51018   1.368   8.693   9.992  0.7058 -0.5547  0.0208
  387MOL0     H51019   1.900   9.018  10.124 -1.8269  0.6015  0.3041
  387MOL0     H51020   2.131   8.997  10.165  0.2127  0.8295 -2.5137
  387MOL0     H51021   2.232   8.767  10.387  2.7391  3.5289  2.0598
  387MOL0     H51022   2.370   8.844  10.337 -2.0523  1.2045 -1.2389
  387MOL0     H51023   2.336   8.554  10.264  0.7259  1.5448 -2.1671
  387MOL0     H51024   2.404   8.598  10.428  2.8560  2.1917 -0.4229
  387MOL0     H51025   2.524   8.642  10.161  3.4758  0.2496 -0.5128
  387MOL0     H51026   2.571   8.523  10.274  1.2812  0.6150 -1.7710
  387MOL0     H51027   2.588   8.837  10.284 -2.9820 -0.3108 -0.6531
  387MOL0     H51028   2.585   8.737  10.436  2.6826 -2.6849  0.8819
  387MOL0     H51029   2.779   8.600  10.339 -1.7402  0.3582  1.5135
  387MOL0     H51030   2.818   8.749  10.400 -2.1501  0.8804  0.7831
  387MOL0     H51031   2.825   8.848  10.153 -0.4637 -0.7500 -1.3292
  387MOL0     H51032   2.774   8.693  10.103 -0.1663  0.2757 -1.2411
  387MOL0     H51033   3.028   8.707  10.282 -1.7210 -2.1732  1.3770
  387MOL0     H51034   2.991   8.583  10.171 -3.1107 -0.9457 -0.0127
  387MOL0     H51035   3.095   8.870  10.108 -2.4739  1.0727 -1.4575
  387MOL0     H51036   3.014   8.785   9.981 -0.4192 -0.4651 -0.4076
  387MOL0     H51037   3.171   8.529   9.905  1.5306 -1.6410 -0.3593
  387MOL0     H51038   3.380   8.384   9.875  1.4684  1.3362 -3.9916
  387MOL0     H51039   3.520   8.429   9.972  1.6787  2.1288 -0.3624
  387MOL0     H51040   3.584   8.450   9.744  1.5942  1.4692 -0.0672
  387MOL0     H51041   3.561   8.617   9.775  1.6250 -0.5257 -2.1391
  387MOL0     H51042   3.348   8.621   9.665 -1.1738 -0.7458 -1.5376
  387MOL0     H51043   3.477   8.549   9.566  1.0532  0.7625  1.2641
  387MOL0     H51044   3.376   8.323   9.643 -0.3188 -0.5000  0.6011
  387MOL0     H51045   3.311   8.411   9.511  2.5679  0.3121  0.3798
  387MOL0     H51046   3.218   8.178   9.563  0.1913  3.1332 -0.9971
  387MOL0     H51047   3.020   8.040   9.527 -1.0864  0.6864 -0.4654
  387MOL0     H51048   2.575   7.915   9.709 -1.9924 -1.1038  0.3564
  387MOL0     H51049   2.397   7.748   9.675 -1.0297  2.6225  0.0638
  387MOL0     H51050   2.207   7.718   9.397  0.4481 -0.5244 -0.8465
  387MOL0     H51051   2.193   7.698   9.570  1.8627 -1.4022  1.3781
  387MOL0     H51052   2.018   7.559   9.481  0.2339 -0.0326  2.0368
  387MOL0     H51053   2.146   7.448   9.510  1.1840  0.4580  0.3705
  387MOL0     H51054   2.217   7.444   9.281 -0.5553  1.4085  0.8971
  387MOL0     H51055   2.085   7.568   9.235 -0.2575  0.0815 -1.1472
  387MOL0     H51056   1.998   7.301   9.346 -2.7516  0.2938  2.0204
  387MOL0     H51057   1.911   7.440   9.286  0.8493  0.6324 -1.3065
  387MOL0     H51058   2.113   7.290   9.122 -0.1471  1.0832  0.8116
  387MOL0     H51059   2.008   7.415   9.058  0.4733  1.0366  1.2797
  387MOL0     H51060   1.918   7.203   8.993  1.8859 -0.4695 -0.3452
  387MOL0     H51061   1.807   7.259   9.118  0.1780  0.1926  1.7516
  387MOL0     H51062   2.052   7.068   9.197 -0.2147 -1.8050 -0.0109
  387MOL0     H51063   1.891   7.099   9.273  0.9958  0.8797  0.5099
  387MOL0     H51064   1.913   6.889   9.178  1.9778 -0.0399 -0.3600
  387MOL0     H51065   1.964   6.952   9.028  0.4521 -1.9420  0.4297
  387MOL0     H51066   2.555   7.639   9.295  0.3665  0.8894 -0.3361
  387MOL0     H51067   2.744   7.821   9.322  0.2551 -1.7158 -1.5182
  387MOL0     H51068   2.774   8.307   9.745  0.5385  4.1468 -0.5867
  387MOL0     H51069   2.958   8.468   9.757 -2.2472 -0.6240  0.4921
  387MOL0     H51070   2.090   8.572  10.180  0.1491  0.0139  2.8580
  387MOL0     H51071   1.848   8.588  10.149 -1.3913  0.4762 -2.2609
  387MOL0     H51072   1.537   8.980  10.061  1.6329 -0.9464  0.7421
  387MOL0     H51073   1.309   9.077  10.022 -2.2340  0.3038  0.9226
  387MOL0     H51074   0.999   8.799  10.054 -0.0667  0.6108  0.6035
  387MOL0     H51075   0.992   8.804   9.870 -1.0414  0.0358 -0.7165
  387MOL0     H51076   0.783   8.857   9.968 -0.8976  1.3200 -1.1006
  387MOL0     H51077   0.858   8.993  10.050  0.2320 -1.1921  0.4510
  387MOL0     H51078   0.866   8.978   9.746 -2.6827  1.8190 -0.3271
  387MOL0     H51079   0.898   9.118   9.841 -0.8258  0.5295 -1.6354
  387MOL0     H51080   0.624   8.976   9.834  0.2180 -0.2319 -1.7985
  387MOL0     H51081   0.664   9.132   9.917  0.4694 -0.4596  1.2767
  387MOL0     H51082   0.578   9.218   9.502 -1.4417  0.1709 -0.0016
  387MOL0     H51083   1.170   8.693   9.920  0.0658 -0.1968 -0.4605
  387MOL0     H51084   1.370   8.585   9.986  1.4405 -0.4806 -3.1793
  388MOL0     O51085   0.088   8.286   2.683 -0.4038  0.4607 -0.6548
  388MOL0     C51086   0.209   8.267   2.721  0.5795  0.6428 -0.6279
  388MOL0     O51087   0.290   8.354   2.777 -0.3845 -0.6781  0.2630
  388MOL0     C51088   0.257   8.492   2.774  0.4089 -1.0830  0.4384
  388MOL0     C51089   0.214   8.554   2.652  0.1254  0.6674 -0.3381
  388MOL0     C51090   0.187   8.693   2.643 -0.6073 -0.4950 -0.1778
  388MOL0     C51091   0.200   8.779   2.760  0.2982  0.9691 -1.1884
  388MOL0     O51092   0.162   8.911   2.746 -0.9111  0.3612 -0.6746
  388MOL0     C51093   0.164   9.000   2.860 -0.9204  0.5872  0.2237
  388MOL0     C51094   0.132   9.138   2.824 -0.0983 -0.7934  0.1580
  388MOL0     C51095  -0.008   9.175   2.795 -1.1721  0.9775 -0.5835
  388MOL0     C51096  -0.097   9.071   2.721 -0.0989 -0.5279  0.2194
  388MOL0     C51097  -0.229   9.147   2.687  0.3909 -0.4741  0.5489
  388MOL0     C51098  -0.215   9.239   2.567  0.5263  0.2533 -0.0932
  388MOL0     C51099  -0.323   9.355   2.566 -0.9421 -0.2184  0.0264
  388MOL0     C51100  -0.281   9.455   2.679 -0.2916  0.0604  0.1096
  388MOL0     N51101  -0.339   9.584   2.644 -0.6429  0.0291 -0.5189
  388MOL0     C51102  -0.286   9.702   2.692 -0.0952 -0.0487  0.2112
  388MOL0     C51103  -0.398   9.783   2.703 -0.2898 -1.1858 -0.0754
  388MOL0     C51104  -0.414   9.920   2.758 -0.4544  0.9470 -0.9503
  388MOL0     C51105  -0.299   9.957   2.841 -0.6083 -0.1743 -0.0691
  388MOL0     C51106  -0.331  10.097   2.892  0.8723  0.1024  0.1129
  388MOL0     C51107  -0.223  10.157   2.977  0.0183 -0.1624  0.3853
  388MOL0     O51108  -0.191  10.074   3.091 -0.5625 -0.3367 -0.3115
  388MOL0     C51109  -0.237  10.101   3.213  0.6307 -0.1467  0.7270
  388MOL0     C51110  -0.351  10.187   3.250 -1.5200  0.5302 -0.1476
  388MOL0     C51111  -0.381  10.204   3.391  0.0114 -0.2590 -0.3716
  388MOL0     C51112  -0.307  10.125   3.488  0.2219  0.3938  0.3975
  388MOL0     C51113  -0.348  10.125   3.628  0.4205 -0.4861  0.5450
  388MOL0     O51114  -0.319  10.022   3.706  0.5244 -0.9674 -0.1588
  388MOL0     C51115  -0.342  10.022   3.843  0.8574  0.3259 -0.1943
  388MOL0     C51116  -0.247  10.060   3.930  0.3687 -1.0118 -0.2728
  388MOL0     C51117  -0.283  10.057   4.076  0.1205  0.5174  0.6013
  388MOL0     C51118  -0.400  10.018   4.125 -0.4506  0.0408  1.2805
  388MOL0     O51119  -0.411  10.020   4.258 -0.6731  0.3346 -1.0025
  388MOL0     C51120  -0.433   9.893   4.323 -0.3060  0.7100  0.6041
  388MOL0     C51121  -0.579   9.878   4.371 -0.5044 -0.6276  0.1653
  388MOL0     C51122  -0.605   9.947   4.508 -0.1900 -1.1360  0.6370
  388MOL0     C51123  -0.757   9.951   4.535 -0.3918 -0.4087 -0.6499
  388MOL0     C51124  -0.829   9.815   4.532  1.0108  0.3506  0.6416
  388MOL0     C51125  -0.960   9.803   4.612  0.7979 -0.7868  0.5716
  388MOL0     C51126  -1.055   9.676   4.577 -1.0355  0.2596 -0.3723
  388MOL0     C51127  -0.970   9.553   4.566 -0.4259  0.9778  0.6173
  388MOL0    Cl51128  -1.080   9.423   4.510  0.5546  0.1124  0.5278
  388MOL0     C51129  -0.494   9.968   4.037  1.1475  0.1449  0.2557
  388MOL0     C51130  -0.470   9.971   3.893  0.5232  0.2262 -0.3565
  388MOL0     O51131  -0.434  10.208   3.656  0.4541 -0.3917 -0.4161
  388MOL0     C51132  -0.209  10.039   3.453  0.0593 -0.0009  1.4841
  388MOL0     C51133  -0.168  10.034   3.315 -0.2139 -0.5130  0.6019
  388MOL0     N51134  -0.514   9.709   2.679 -0.1427  0.0504  0.1907
  388MOL0     N51135  -0.472   9.597   2.624 -0.3680 -1.2674 -0.4379
  388MOL0     C51136   0.244   8.713   2.881  0.1297  0.2884  0.9165
  388MOL0     C51137   0.261   8.573   2.883 -0.1410  0.1494 -0.5264
  388MOL0     C51138   0.250   8.125   2.706  0.3360 -0.1989 -1.0839
  388MOL0     C51139   0.390   8.113   2.715  0.8954  0.1577 -0.2019
  388MOL0     C51140   0.450   7.981   2.722  0.7736  0.3950  0.4687
  388MOL0     C51141   0.370   7.870   2.690  0.4322 -0.2483  0.4062
  388MOL0     O51142   0.421   7.745   2.676  0.3614  0.6199  0.5839
  388MOL0     C51143   0.568   7.731   2.661  0.1830  1.2278  0.2038
  388MOL0     C51144   0.644   7.684   2.784 -0.5672 -1.0562 -0.2406
  388MOL0     C51145   0.643   7.790   2.901  0.4820 -1.3123 -0.8263
  388MOL0     C51146   0.717   7.755   3.034  0.1018  0.2914  1.4448
  388MOL0     C51147   0.863   7.737   3.012  0.8610 -0.0601  0.5642
  388MOL0     C51148   0.978   7.725   2.971 -0.2091 -0.4369  1.4352
  388MOL0     C51149   0.234   7.885   2.665  0.6669  0.1850  0.0980
  388MOL0     C51150   0.166   8.013   2.692  0.0016 -0.5722  0.4117
  388MOL0     H51151   0.201   8.484   2.570 -1.1820 -3.1403  2.8299
  388MOL0     H51152   0.152   8.733   2.549  3.8214  1.4874 -1.2579
  388MOL0     H51153   0.264   9.011   2.903 -0.1512 -1.8805 -0.8149
  388MOL0     H51154   0.101   8.950   2.934 -1.8077 -0.6855 -1.3376
  388MOL0     H51155   0.195   9.168   2.739  0.0985 -1.2780  0.1342
  388MOL0     H51156   0.153   9.195   2.915 -1.6194 -1.9834  1.3142
  388MOL0     H51157   0.005   9.267   2.738 -1.9636  0.0722 -2.3283
  388MOL0     H51158  -0.049   9.199   2.894  1.4919  1.6199  0.4350
  388MOL0     H51159  -0.046   9.043   2.629  0.0232  3.0833 -0.9464
  388MOL0     H51160  -0.116   8.976   2.772 -1.5858 -0.5130 -0.2589
  388MOL0     H51161  -0.262   9.207   2.772 -2.4930 -1.3611  0.1649
  388MOL0     H51162  -0.301   9.068   2.665  3.5993 -3.4855 -0.2478
  388MOL0     H51163  -0.229   9.165   2.488  0.3943 -0.9517  1.0236
  388MOL0     H51164  -0.113   9.280   2.570  1.5539 -1.7890  5.2133
  388MOL0     H51165  -0.327   9.395   2.464 -1.4269  1.3752  0.6357
  388MOL0     H51166  -0.423   9.324   2.597  0.0845  0.0011  4.0395
  388MOL0     H51167  -0.172   9.454   2.671 -0.2583 -2.9790 -0.0905
  388MOL0     H51168  -0.297   9.424   2.783  0.9670  2.0861  0.9693
  388MOL0     H51169  -0.185   9.725   2.724 -1.3712  0.3336  4.7218
  388MOL0     H51170  -0.506   9.940   2.813  0.8516  0.3046  1.5777
  388MOL0     H51171  -0.419   9.989   2.673 -0.4740 -1.3067 -2.8844
  388MOL0     H51172  -0.209   9.956   2.780  0.0853 -1.7520  0.9187
  388MOL0     H51173  -0.282   9.882   2.919 -0.7550  0.5548  0.6791
  388MOL0     H51174  -0.351  10.160   2.805 -0.0264 -0.3512 -0.0172
  388MOL0     H51175  -0.427  10.077   2.941 -0.0394 -3.8001 -2.7484
  388MOL0     H51176  -0.248  10.257   3.016  1.2235  0.0442  0.6571
  388MOL0     H51177  -0.136  10.188   2.918 -0.0478 -0.8799 -0.0940
  388MOL0     H51178  -0.401  10.240   3.170 -2.8761  0.6696  0.7689
  388MOL0     H51179  -0.466  10.266   3.417  0.1762  1.0598 -2.7097
  388MOL0     H51180  -0.154  10.113   3.910 -1.1735  1.8997 -0.2136
  388MOL0     H51181  -0.199  10.081   4.142 -0.1561 -3.0888  2.5127
  388MOL0     H51182  -0.372   9.895   4.414 -0.1806  2.4533  0.5045
  388MOL0     H51183  -0.400   9.804   4.268  1.4430  1.6873 -0.0139
  388MOL0     H51184  -0.606   9.772   4.376 -0.7005 -0.5392  1.2265
  388MOL0     H51185  -0.646   9.920   4.296  0.3105 -0.5282 -0.5178
  388MOL0     H51186  -0.558  10.045   4.502  1.3776 -1.6948  2.4890
  388MOL0     H51187  -0.557   9.882   4.582  0.6914 -0.3056  0.8170
  388MOL0     H51188  -0.781   9.991   4.634 -5.8945 -1.5206 -1.2569
  388MOL0     H51189  -0.805  10.021   4.467 -2.4851  0.7775  1.8755
  388MOL0     H51190  -0.772   9.730   4.573 -1.1267 -0.8718  1.2255
  388MOL0     H51191  -0.840   9.790   4.426 -1.2958 -0.9527  1.1225
  388MOL0     H51192  -1.019   9.894   4.600 -0.2363 -1.5903 -0.6617
  388MOL0     H51193  -0.921   9.801   4.714  0.7534  1.6349  0.6993
  388MOL0     H51194  -1.123   9.658   4.660  1.4366 -3.0969  1.1483
  388MOL0     H51195  -1.101   9.706   4.483  0.1625  1.3216 -0.6547
  388MOL0     H51196  -0.933   9.526   4.666 -2.9955 -3.7347  0.5985
  388MOL0     H51197  -0.882   9.562   4.501 -0.5570  0.2053  0.3297
  388MOL0     H51198  -0.573   9.912   4.086  0.6975  2.9713  3.0841
  388MOL0     H51199  -0.552   9.933   3.833 -2.5300  0.8187  3.0822
  388MOL0     H51200  -0.156   9.976   3.524 -1.5096 -1.9763  1.0020
  388MOL0     H51201  -0.074   9.981   3.301  0.2875  0.1885  1.2279
  388MOL0     H51202   0.262   8.775   2.968  0.9807  0.6593  0.4917
  388MOL0     H51203   0.279   8.519   2.975 -2.4272 -0.8640 -0.6015
  388MOL0     H51204   0.467   8.189   2.720  3.6194 -2.4675  1.0590
  388MOL0     H51205   0.550   7.969   2.760  0.5053 -2.7697  0.4331
  388MOL0     H51206   0.622   7.818   2.623 -0.0101  1.0281 -0.5320
  388MOL0     H51207   0.579   7.655   2.583  0.4229 -0.1133  1.5005
  388MOL0     H51208   0.595   7.598   2.831  3.1788 -3.6869 -0.7073
  388MOL0     H51209   0.744   7.659   2.747 -0.7963 -0.9729 -0.9125
  388MOL0     H51210   0.537   7.810   2.922  0.9185  4.3513 -2.3689
  388MOL0     H51211   0.680   7.888   2.870  0.8222  0.5059  4.3863
  388MOL0     H51212   0.695   7.839   3.101 -4.9515 -0.5815  1.2406
  388MOL0     H51213   0.663   7.670   3.077 -1.3711  1.3447  1.7646
  388MOL0     H51214   1.077   7.741   2.933 -0.6566  0.4756  0.6268
  388MOL0     H51215   0.177   7.793   2.655  2.1280 -0.7301 -0.1195
  388MOL0     H51216   0.062   8.042   2.698  0.2729  0.6784 -0.4428
  389MOL0     O51217  10.583   5.194   1.382 -0.8853 -0.1828  0.1981
  389MOL0     C51218  10.621   5.223   1.267  0.3627 -0.5274 -0.0349
  389MOL0     O51219  10.666   5.347   1.232 -1.2851 -0.3752  0.2114
  389MOL0     C51220  10.709   5.438   1.331 -0.8952  0.6366  0.1850
  389MOL0     C51221  10.845   5.458   1.336 -0.1085 -0.2737  0.3292
  389MOL0     C51222  10.898   5.548   1.430  0.2843  1.4541 -0.2587
  389MOL0     C51223  10.815   5.615   1.525  0.0740 -0.5028  0.6458
  389MOL0     O51224  10.861   5.704   1.611 -0.0356  0.7713  0.0954
  389MOL0     C51225  10.774   5.766   1.709  0.0662 -0.8638  0.3021
  389MOL0     C51226  10.859   5.845   1.809 -0.2503  0.3459  0.3245
  389MOL0     C51227  10.934   5.957   1.740 -0.6904  0.8616 -0.4224
  389MOL0     C51228  10.835   6.065   1.694  0.3341 -0.2859 -1.3292
  389MOL0     C51229  10.898   6.207   1.702  0.9635 -0.0225 -0.1627
  389MOL0     C51230  11.011   6.240   1.601  0.1819  0.2578  0.0303
  389MOL0     C51231  11.073   6.374   1.642  0.2826 -0.7110 -0.2411
  389MOL0     C51232  11.199   6.406   1.569 -0.6163  0.1376  0.0950
  389MOL0     N51233  11.293   6.496   1.638  0.6718 -0.2529 -0.4298
  389MOL0     C51234  11.270   6.587   1.743  0.3209  0.0930  0.1943
  389MOL0     C51235  11.382   6.668   1.737  0.2110 -0.3718  0.3116
  389MOL0     C51236  11.425   6.761   1.848 -0.4947 -0.7649  0.5908
  389MOL0     C51237  11.542   6.701   1.932  0.0801 -0.3319  0.7425
  389MOL0     C51238  11.668   6.750   1.877 -1.5333  0.0083 -0.3653
  389MOL0     C51239  11.771   6.637   1.912 -0.0630 -0.3832  0.5322
  389MOL0     O51240  11.786   6.639   2.051 -0.6374  0.0304 -0.4466
  389MOL0     C51241  11.913   6.632   2.114  0.0717  0.0979  0.1353
  389MOL0     C51242  11.918   6.658   2.254  0.3537  0.1996 -0.0694
  389MOL0     C51243  12.041   6.643   2.319 -0.2485 -0.9163 -0.2598
  389MOL0     C51244  12.162   6.627   2.248  0.3333 -0.2365  0.2711
  389MOL0     C51245  12.286   6.627   2.322  0.1529 -0.5377 -0.3718
  389MOL0     O51246  12.398   6.614   2.241  0.8036 -0.5033  0.5891
  389MOL0     C51247  12.523   6.631   2.293  0.2475  0.0911 -1.2086
  389MOL0     C51248  12.620   6.538   2.265 -0.2351  0.0854 -0.4739
  389MOL0     C51249  12.757   6.573   2.303 -1.1066  0.3553  0.5160
  389MOL0     C51250  12.783   6.703   2.359  0.2995 -0.9090  0.7414
  389MOL0     O51251  12.904   6.741   2.404  0.1289  0.0119 -0.5416
  389MOL0     C51252  13.023   6.677   2.341 -0.1485 -0.8322 -0.7094
  389MOL0     C51253  13.139   6.770   2.400 -0.0787 -0.1703 -0.0001
  389MOL0     C51254  13.283   6.719   2.357  0.2919 -0.7851  1.0137
  389MOL0     C51255  13.400   6.819   2.368  0.1529  0.2567 -0.8843
  389MOL0     C51256  13.543   6.738   2.355  0.0765  0.2928 -0.5697
  389MOL0     C51257  13.674   6.822   2.384  0.2648  0.5617 -0.7621
  389MOL0     C51258  13.799   6.732   2.357 -0.3089 -0.0804  0.2927
  389MOL0     C51259  13.910   6.773   2.445 -0.8607  0.1850  1.0714
  389MOL0    Cl51260  13.985   6.927   2.389 -0.2739 -0.2090 -0.1527
  389MOL0     C51261  12.681   6.794   2.383  0.9125 -0.8161 -0.2574
  389MOL0     C51262  12.549   6.757   2.356  0.0385 -0.4232  0.3433
  389MOL0     O51263  12.296   6.651   2.441  0.8015 -0.7685  0.8706
  389MOL0     C51264  12.159   6.605   2.108  0.0797  0.0400  0.1746
  389MOL0     C51265  12.035   6.619   2.047  0.2388  0.3588 -0.5174
  389MOL0     N51266  11.468   6.619   1.637  0.2508 -0.2529  1.0013
  389MOL0     N51267  11.413   6.523   1.575 -0.7650 -0.1181  0.3745
  389MOL0     C51268  10.677   5.599   1.508 -0.5475  1.0689 -1.1763
  389MOL0     C51269  10.630   5.506   1.420  0.4294 -0.7756 -0.0410
  389MOL0     C51270  10.602   5.130   1.158  0.7692  1.1351  0.3421
  389MOL0     C51271  10.668   5.146   1.036  0.1644  0.5319  0.6582
  389MOL0     C51272  10.645   5.054   0.928  0.0890 -0.1579 -0.3459
  389MOL0     C51273  10.565   4.946   0.948  0.1316 -0.1035 -0.2540
  389MOL0     O51274  10.550   4.864   0.836 -0.1245  0.9543 -0.2247
  389MOL0     C51275  10.523   4.727   0.854  0.3409  0.9536 -0.8302
  389MOL0     C51276  10.374   4.705   0.825 -0.5334  0.0040  0.6522
  389MOL0     C51277  10.331   4.734   0.678 -0.2677 -0.1098  0.0354
  389MOL0     C51278  10.208   4.659   0.627  0.1376  0.1353 -0.3281
  389MOL0     C51279  10.103   4.650   0.727  0.0677 -0.3458 -0.0907
  389MOL0     C51280  10.015   4.640   0.811  0.4242  0.5323  0.6366
  389MOL0     C51281  10.504   4.928   1.072 -0.4867 -0.0796  0.1874
  389MOL0     C51282  10.522   5.011   1.183 -0.1382  0.3300  0.6663
  389MOL0     H51283  10.919   5.400   1.281  1.8887  2.3127  0.0793
  389MOL0     H51284  11.003   5.573   1.432  0.0211  2.7395 -0.8341
  389MOL0     H51285  10.709   5.688   1.750 -1.7916 -0.1389 -1.1236
  389MOL0     H51286  10.714   5.840   1.655 -0.1230 -0.1626  1.4299
  389MOL0     H51287  10.935   5.777   1.849 -0.1509 -1.5165 -2.7656
  389MOL0     H51288  10.794   5.893   1.883 -0.5611 -0.9298  0.9085
  389MOL0     H51289  10.985   5.916   1.652  1.2982  1.6616  0.3080
  389MOL0     H51290  11.011   5.994   1.807  2.6425 -0.9643 -2.9506
  389MOL0     H51291  10.795   6.033   1.597 -0.7934 -0.6643 -0.7544
  389MOL0     H51292  10.744   6.071   1.755 -0.7863 -4.0193 -2.3634
  389MOL0     H51293  10.929   6.225   1.806  0.8165  1.2822 -0.3278
  389MOL0     H51294  10.812   6.273   1.692  0.2730 -0.6814  1.1359
  389MOL0     H51295  10.957   6.246   1.507  0.7309 -0.8326 -0.3663
  389MOL0     H51296  11.080   6.155   1.605  0.6672  0.6785  1.4504
  389MOL0     H51297  11.000   6.455   1.629 -0.2095 -0.9962  0.6525
  389MOL0     H51298  11.092   6.365   1.749  4.2718  0.2134 -0.7318
  389MOL0     H51299  11.170   6.453   1.475  2.5627 -0.5344 -1.3651
  389MOL0     H51300  11.242   6.306   1.557 -0.2508  0.1725  1.0019
  389MOL0     H51301  11.192   6.585   1.819  1.3611 -0.0633  1.2905
  389MOL0     H51302  11.331   6.778   1.901 -1.5853 -0.5094 -1.3327
  389MOL0     H51303  11.455   6.858   1.808  3.9098 -2.4646 -0.8932
  389MOL0     H51304  11.552   6.594   1.915  2.7045  0.0430 -0.7657
  389MOL0     H51305  11.542   6.722   2.039 -0.7983  3.0703  0.2244
  389MOL0     H51306  11.676   6.750   1.768  2.6297 -0.6463 -0.2208
  389MOL0     H51307  11.685   6.852   1.914 -0.3512  0.1229 -1.1452
  389MOL0     H51308  11.870   6.656   1.869  0.7525 -0.8590  2.0944
  389MOL0     H51309  11.744   6.539   1.872 -0.9437  1.2357 -3.2698
  389MOL0     H51310  11.832   6.672   2.319  0.3137  2.8857 -0.5923
  389MOL0     H51311  12.043   6.667   2.425  0.4749 -0.8088 -0.2918
  389MOL0     H51312  12.594   6.441   2.225 -0.5897  1.1423 -2.9599
  389MOL0     H51313  12.839   6.502   2.307 -1.2943  0.1077  0.0191
  389MOL0     H51314  13.017   6.685   2.232 -0.1491  1.0736 -0.6062
  389MOL0     H51315  13.030   6.570   2.362 -1.6619 -1.6461 -3.7419
  389MOL0     H51316  13.134   6.771   2.509 -1.0693  1.1405 -0.0337
  389MOL0     H51317  13.115   6.872   2.371  0.2971  0.4812  1.8835
  389MOL0     H51318  13.280   6.680   2.255 -0.7912 -1.3401  1.2449
  389MOL0     H51319  13.301   6.628   2.416  1.4274 -1.6677 -0.6411
  389MOL0     H51320  13.396   6.889   2.284  3.0226  0.2834 -1.0961
  389MOL0     H51321  13.397   6.872   2.463  2.4763 -0.6865 -0.2063
  389MOL0     H51322  13.545   6.704   2.251 -1.8381 -1.7231 -0.0268
  389MOL0     H51323  13.537   6.645   2.413 -4.3911  0.8112  0.1177
  389MOL0     H51324  13.671   6.837   2.492 -2.1096 -1.8809 -0.3765
  389MOL0     H51325  13.692   6.915   2.331 -2.8421  1.5128 -0.3170
  389MOL0     H51326  13.768   6.630   2.378  0.5724 -0.5943 -0.7977
  389MOL0     H51327  13.821   6.732   2.250  1.4576 -0.2022  0.6192
  389MOL0     H51328  13.986   6.695   2.452 -0.6088  0.5150  2.1451
  389MOL0     H51329  13.882   6.777   2.551 -1.4073 -2.9776  1.1248
  389MOL0     H51330  12.695   6.896   2.417 -2.5088  0.3868 -1.9721
  389MOL0     H51331  12.467   6.828   2.354  2.1696  2.7947  5.5554
  389MOL0     H51332  12.251   6.583   2.054 -1.2262 -0.2275 -2.0362
  389MOL0     H51333  12.034   6.584   1.944 -1.6589 -4.2287  0.8088
  389MOL0     H51334  10.607   5.650   1.573  0.7394 -1.3651  2.4201
  389MOL0     H51335  10.521   5.501   1.422  0.1858  2.1304  2.7832
  389MOL0     H51336  10.716   5.241   1.015  1.1731  0.8091  3.7084
  389MOL0     H51337  10.689   5.062   0.829  1.0132 -2.1010 -0.1409
  389MOL0     H51338  10.555   4.694   0.954  1.4976  1.6211 -0.9558
  389MOL0     H51339  10.580   4.666   0.784 -1.9629 -4.3214  1.3724
  389MOL0     H51340  10.344   4.606   0.861  3.2724 -1.0445  1.3257
  389MOL0     H51341  10.324   4.783   0.885 -0.8880  1.8879 -1.9179
  389MOL0     H51342  10.416   4.707   0.615  0.7680  4.5253 -0.9158
  389MOL0     H51343  10.321   4.843   0.670  2.4143  0.2970  1.1037
  389MOL0     H51344  10.167   4.694   0.531  0.1762 -0.4959 -0.5805
  389MOL0     H51345  10.258   4.565   0.604  2.0409  1.1269 -0.4245
  389MOL0     H51346   9.938   4.637   0.886 -0.9223  1.9328 -0.6179
  389MOL0     H51347  10.436   4.848   1.099 -0.7158  0.4427  1.2277
  389MOL0     H51348  10.465   4.983   1.271  2.6758 -3.9567  1.4291
  390MOL0     O51349   5.671  10.555   7.960 -0.4759  0.4199 -0.4769
  390MOL0     C51350   5.706  10.675   7.984 -0.4161  1.6053  0.1804
  390MOL0     O51351   5.758  10.761   7.890  0.0641 -0.0051  0.5081
  390MOL0     C51352   5.774  10.719   7.756  0.6916 -0.2310 -0.4165
  390MOL0     C51353   5.904  10.719   7.702 -0.6924 -0.1948 -0.2115
  390MOL0     C51354   5.912  10.700   7.566 -0.4150  0.3618  0.2299
  390MOL0     C51355   5.806  10.655   7.482  1.0137 -0.5809  0.4979
  390MOL0     O51356   5.825  10.616   7.350 -0.1096 -0.5563 -0.3908
  390MOL0     C51357   5.882  10.715   7.270 -0.6490  0.0875 -0.1908
  390MOL0     C51358   5.837  10.689   7.127 -0.4707  0.9932 -0.0647
  390MOL0     C51359   5.692  10.731   7.103  1.1662 -0.2583  0.0521
  390MOL0     C51360   5.636  10.669   6.969  0.0549  0.4441 -0.2346
  390MOL0     C51361   5.540  10.768   6.915 -0.0623  0.1707 -0.3471
  390MOL0     C51362   5.406  10.803   6.987  0.3259 -0.8542 -0.5644
  390MOL0     C51363   5.319  10.685   7.018 -0.9875  0.0466  0.3291
  390MOL0     C51364   5.212  10.721   7.121  0.3085 -0.4933  0.4125
  390MOL0     N51365   5.251  10.689   7.254 -0.5411  0.0791 -0.3327
  390MOL0     C51366   5.184  10.606   7.340  1.1533 -0.1882 -0.5267
  390MOL0     C51367   5.252  10.584   7.448 -0.1358 -1.1052 -0.6663
  390MOL0     C51368   5.224  10.492   7.563  0.1960 -0.1274 -0.1029
  390MOL0     C51369   5.078  10.438   7.576  0.4211  0.3731 -0.4528
  390MOL0     C51370   5.033  10.316   7.498 -0.3009 -0.2329 -0.1784
  390MOL0     C51371   5.014  10.201   7.600 -0.0356  0.3535  0.3562
  390MOL0     O51372   4.882  10.221   7.664 -0.0501  0.4990  0.3621
  390MOL0     C51373   4.884  10.210   7.800  1.5324 -0.2853 -0.6023
  390MOL0     C51374   4.781  10.287   7.862  0.4643 -0.1597  0.3180
  390MOL0     C51375   4.772  10.297   8.003  0.5697  0.2411 -0.3682
  390MOL0     C51376   4.870  10.222   8.079 -0.1023 -0.6674 -0.3441
  390MOL0     C51377   4.882  10.243   8.231 -1.0814  0.7651 -0.3384
  390MOL0     O51378   4.978  10.164   8.300 -0.1296 -0.5634 -0.1058
  390MOL0     C51379   4.975  10.166   8.438 -0.3302  0.1303 -0.0348
  390MOL0     C51380   4.860  10.121   8.504  0.0020  0.6003 -0.2658
  390MOL0     C51381   4.869  10.130   8.653 -0.5829  0.5151  0.5547
  390MOL0     C51382   4.984  10.164   8.721  0.4972 -1.2095  0.3966
  390MOL0     O51383   4.972  10.189   8.861 -0.1971  1.0219 -0.1452
  390MOL0     C51384   5.092  10.216   8.942  0.2730 -0.8104 -0.4758
  390MOL0     C51385   5.076  10.171   9.083 -0.0858  0.4387  0.3851
  390MOL0     C51386   5.199  10.210   9.159 -0.0493  0.5454 -0.4838
  390MOL0     C51387   5.191  10.351   9.197 -0.6424 -0.5446  0.1022
  390MOL0     C51388   5.258  10.366   9.331  0.6050 -0.5180 -0.0008
  390MOL0     C51389   5.264  10.521   9.374  0.2535  0.1272  1.1653
  390MOL0     C51390   5.135  10.613   9.338  0.1658  0.3090 -0.1280
  390MOL0     C51391   5.039  10.562   9.433  0.2220 -0.3673  0.4181
  390MOL0    Cl51392   5.081  10.624   9.600 -0.1806 -0.3133  0.3044
  390MOL0     C51393   5.100  10.196   8.651  0.2034 -0.2041  0.5018
  390MOL0     C51394   5.095  10.191   8.506 -0.8624 -0.3431  0.1225
  390MOL0     O51395   4.816  10.337   8.280 -0.3859 -0.4083 -0.5470
  390MOL0     C51396   4.960  10.146   8.018  0.0067 -0.3034  0.3212
  390MOL0     C51397   4.970  10.139   7.883  0.1469  0.5623 -0.6394
  390MOL0     N51398   5.361  10.665   7.437  1.0868 -0.9505 -0.0979
  390MOL0     N51399   5.353  10.740   7.328 -0.1168  0.5028 -0.4545
  390MOL0     C51400   5.689  10.638   7.545  0.7266  0.2173 -0.0281
  390MOL0     C51401   5.673  10.677   7.674 -0.6826 -0.2166  0.3240
  390MOL0     C51402   5.679  10.729   8.119 -0.0384 -0.3032  0.2480
  390MOL0     C51403   5.662  10.645   8.225 -1.3327 -0.0228 -0.9829
  390MOL0     C51404   5.670  10.692   8.356  0.2233 -1.2503 -0.0379
  390MOL0     C51405   5.670  10.836   8.378 -0.5729 -0.4277 -0.7752
  390MOL0     O51406   5.672  10.903   8.499 -0.1929 -0.0703  0.1484
  390MOL0     C51407   5.618  10.838   8.616  0.1685 -0.3450  0.5691
  390MOL0     C51408   5.666  10.907   8.753 -0.5786 -0.0076 -0.3432
  390MOL0     C51409   5.787  10.829   8.817  0.1881 -0.2229  0.5385
  390MOL0     C51410   5.917  10.897   8.771 -0.0987 -0.9928 -0.2324
  390MOL0     C51411   5.951  11.022   8.828  0.3483  0.0683  0.0138
  390MOL0     C51412   5.984  11.128   8.878 -0.1993 -0.3751 -0.3353
  390MOL0     C51413   5.673  10.923   8.265 -0.2456 -0.0387  0.8518
  390MOL0     C51414   5.671  10.869   8.136  0.2999 -0.3360 -0.5009
  390MOL0     H51415   5.993  10.755   7.753 -0.5475 -4.6032  3.3584
  390MOL0     H51416   6.010  10.712   7.520 -0.0731 -0.3352  0.7482
  390MOL0     H51417   5.990  10.703   7.268 -0.7389 -0.7726  0.0139
  390MOL0     H51418   5.837  10.811   7.297 -3.6580 -0.9489 -1.0944
  390MOL0     H51419   5.844  10.583   7.102  1.3776  0.8328  0.9564
  390MOL0     H51420   5.904  10.738   7.056 -1.3663  1.6828 -0.4518
  390MOL0     H51421   5.680  10.840   7.102 -0.4710 -0.4137 -0.4152
  390MOL0     H51422   5.629  10.694   7.184  3.8199 -2.0337  1.4577
  390MOL0     H51423   5.708  10.672   6.886  1.2105  1.2940  0.7587
  390MOL0     H51424   5.599  10.569   6.992  2.4983 -0.6976 -0.9464
  390MOL0     H51425   5.514  10.730   6.816  0.0927  1.3373 -0.8628
  390MOL0     H51426   5.601  10.858   6.899  0.0642  0.2271  0.4162
  390MOL0     H51427   5.362  10.885   6.930  0.5279 -0.6320 -0.4029
  390MOL0     H51428   5.442  10.857   7.075  1.0994  0.4569 -1.6506
  390MOL0     H51429   5.273  10.645   6.927  1.4540 -1.6492 -0.2682
  390MOL0     H51430   5.380  10.609   7.068  0.7884  1.4559  0.4130
  390MOL0     H51431   5.115  10.676   7.096  0.5037 -0.1341 -1.0429
  390MOL0     H51432   5.199  10.829   7.110 -2.6735 -0.8652 -0.7381
  390MOL0     H51433   5.083  10.571   7.324 -0.5183  2.2258  3.2875
  390MOL0     H51434   5.249  10.562   7.644 -2.1681  1.1602 -0.3769
  390MOL0     H51435   5.295  10.409   7.569  0.4545  0.1933  3.2767
  390MOL0     H51436   5.000  10.512   7.559 -1.1236 -0.5112  2.2046
  390MOL0     H51437   5.069  10.432   7.685  2.6804 -0.5712 -0.2651
  390MOL0     H51438   4.932  10.340   7.461 -1.2518  0.0026  2.4011
  390MOL0     H51439   5.100  10.302   7.413 -1.5203 -1.0087 -1.0608
  390MOL0     H51440   5.095  10.209   7.674 -0.2459  1.6667  0.4581
  390MOL0     H51441   5.016  10.101   7.554  1.3034  0.3029  0.4777
  390MOL0     H51442   4.717  10.349   7.800  0.8570 -1.6076 -1.6439
  390MOL0     H51443   4.704  10.367   8.051 -0.0869 -1.9537  2.1652
  390MOL0     H51444   4.769  10.093   8.452  0.7172 -1.0380 -0.7234
  390MOL0     H51445   4.775  10.096   8.695 -1.3664 -0.9050 -2.1393
  390MOL0     H51446   5.101  10.325   8.943 -1.4821 -0.6478 -0.7586
  390MOL0     H51447   5.190  10.178   8.909  1.7999  2.6854 -0.3403
  390MOL0     H51448   5.090  10.063   9.072 -0.8189 -0.1660  3.9290
  390MOL0     H51449   4.990  10.203   9.142  1.5220  0.6762  2.7331
  390MOL0     H51450   5.290  10.196   9.099  0.3930  0.3687  0.2126
  390MOL0     H51451   5.195  10.150   9.251  1.4761  0.4328 -0.4666
  390MOL0     H51452   5.234  10.422   9.126 -1.1751 -1.3283 -1.0549
  390MOL0     H51453   5.086  10.381   9.206  0.0399  2.0409  0.1749
  390MOL0     H51454   5.361  10.327   9.330 -0.2326 -2.8916 -1.4658
  390MOL0     H51455   5.200  10.308   9.403 -0.7528  0.2551 -0.4482
  390MOL0     H51456   5.348  10.565   9.318 -1.4350 -0.2297 -1.8809
  390MOL0     H51457   5.290  10.525   9.480  1.9562 -1.8123  0.8779
  390MOL0     H51458   5.154  10.719   9.360 -0.4058  1.0435 -2.7590
  390MOL0     H51459   5.087  10.603   9.240 -0.1265 -1.2676  0.1597
  390MOL0     H51460   5.035  10.453   9.446 -3.4525 -0.5686 -1.2003
  390MOL0     H51461   4.939  10.589   9.398  0.3178 -2.6369 -1.9715
  390MOL0     H51462   5.191  10.217   8.705 -1.0424  1.2029  2.1624
  390MOL0     H51463   5.187  10.218   8.455 -2.3073  3.5241 -0.7458
  390MOL0     H51464   5.029  10.082   8.073  0.1633 -0.2721  0.1659
  390MOL0     H51465   5.054  10.075   7.860  1.5471  0.6416  3.4629
  390MOL0     H51466   5.610  10.598   7.481  1.1053  0.2534 -0.5241
  390MOL0     H51467   5.578  10.652   7.720 -1.1317  0.0882 -0.4139
  390MOL0     H51468   5.650  10.538   8.209  0.1206 -0.9935  3.1900
  390MOL0     H51469   5.654  10.624   8.440  5.2049 -0.8599  1.5670
  390MOL0     H51470   5.647  10.732   8.617  1.1599 -0.1374 -1.2878
  390MOL0     H51471   5.510  10.842   8.602  0.4667  0.9909 -1.9274
  390MOL0     H51472   5.704  11.006   8.727  0.9248 -0.9414 -1.9413
  390MOL0     H51473   5.589  10.906   8.831 -2.2140  0.4283 -1.8730
  390MOL0     H51474   5.782  10.727   8.777 -0.1222 -0.0601  0.1616
  390MOL0     H51475   5.775  10.815   8.925  1.0258  1.8296  0.9376
  390MOL0     H51476   5.996  10.825   8.794  0.8837  0.6769  1.9540
  390MOL0     H51477   5.903  10.916   8.664 -1.0293 -0.4563 -0.0324
  390MOL0     H51478   6.015  11.228   8.901  2.5401 -1.0851 -0.6235
  390MOL0     H51479   5.673  11.031   8.270  0.3373  0.3508 -3.7491
  390MOL0     H51480   5.670  10.936   8.050  2.5949 -3.9585 -3.7156
  391MOL0     O51481   9.541   9.922  10.015  0.1153  0.4877 -0.9346
  391MOL0     C51482   9.660   9.943  10.010 -0.8081 -0.4821  0.4186
  391MOL0     O51483   9.764   9.856  10.021  0.2594 -0.0679  0.2672
  391MOL0     C51484   9.730   9.726  10.049  0.8765  0.2041 -1.2603
  391MOL0     C51485   9.796   9.668  10.155 -0.3767  0.0518 -0.6340
  391MOL0     C51486   9.769   9.535  10.185  0.0099  1.0348  0.9589
  391MOL0     C51487   9.670   9.457  10.118 -0.2051  0.0373 -0.2260
  391MOL0     O51488   9.637   9.326  10.141 -0.4116  0.2095  0.2875
  391MOL0     C51489   9.724   9.231  10.195 -0.4988 -0.8116 -0.7496
  391MOL0     C51490   9.636   9.121  10.268 -0.1361 -0.8506  0.3520
  391MOL0     C51491   9.512   9.062  10.186 -1.1784  0.0626 -0.1097
  391MOL0     C51492   9.534   9.027  10.033 -0.1303  1.0912 -0.5712
  391MOL0     C51493   9.408   9.012   9.946  0.8182  0.6949 -0.4781
  391MOL0     C51494   9.301   9.118   9.962 -0.3441  0.6211 -0.0728
  391MOL0     C51495   9.207   9.114   9.845 -0.1059 -0.3500  0.6781
  391MOL0     C51496   9.076   9.194   9.876  0.0131 -0.5034  0.1935
  391MOL0     N51497   9.008   9.220   9.746  0.2631  0.6402 -0.7406
  391MOL0     C51498   9.021   9.341   9.676  0.4662 -0.0722  0.0179
  391MOL0     C51499   8.937   9.328   9.566 -0.2226 -0.0382 -0.5935
  391MOL0     C51500   8.921   9.429   9.457 -0.9542 -1.1308 -0.9030
  391MOL0     C51501   8.775   9.459   9.416 -0.7198  0.9196  0.4026
  391MOL0     C51502   8.759   9.519   9.279 -0.1668  0.0791 -0.1504
  391MOL0     C51503   8.644   9.623   9.259  0.0904  1.1656 -0.0691
  391MOL0     O51504   8.515   9.560   9.297 -0.2668  0.2939 -0.3288
  391MOL0     C51505   8.396   9.593   9.226 -0.7895  0.0581 -0.8828
  391MOL0     C51506   8.294   9.520   9.271 -0.3930  0.2271 -0.6606
  391MOL0     C51507   8.170   9.543   9.218 -0.2512  0.5567 -0.9416
  391MOL0     C51508   8.142   9.636   9.124 -0.2965 -0.3427  0.5771
  391MOL0     C51509   8.012   9.650   9.066 -0.3846  0.1398 -0.2497
  391MOL0     O51510   7.913   9.618   9.146 -0.3799 -0.0747 -0.3176
  391MOL0     C51511   7.798   9.603   9.080 -0.0508 -0.3949 -0.2057
  391MOL0     C51512   7.707   9.704   9.083  0.4230 -0.5416  0.3824
  391MOL0     C51513   7.579   9.689   9.023 -0.3171  0.3195 -0.3805
  391MOL0     C51514   7.541   9.566   8.951  0.1108 -1.3603 -0.1001
  391MOL0     O51515   7.424   9.546   8.882 -0.0918 -0.6916 -0.1514
  391MOL0     C51516   7.315   9.630   8.923 -0.2625 -0.2732  0.5245
  391MOL0     C51517   7.192   9.599   8.842 -0.1760  0.3174 -0.7050
  391MOL0     C51518   7.182   9.667   8.711  0.2716  0.0344  0.0548
  391MOL0     C51519   7.036   9.658   8.638  0.5812 -0.1251  0.0127
  391MOL0     C51520   7.045   9.710   8.494  0.0455 -0.2132  0.3287
  391MOL0     C51521   7.098   9.850   8.480  0.2508 -0.8265  0.6980
  391MOL0     C51522   7.101   9.891   8.332 -0.2183 -0.7614  0.1799
  391MOL0     C51523   7.170  10.024   8.295  0.3584  0.9026  0.1476
  391MOL0    Cl51524   7.318  10.067   8.368  0.5525  0.0340 -0.7446
  391MOL0     C51525   7.633   9.463   8.960 -0.5359  0.4796  0.0963
  391MOL0     C51526   7.761   9.485   9.010 -0.4381 -0.4929 -1.1407
  391MOL0     O51527   8.007   9.701   8.956 -0.4638 -0.3041  1.1219
  391MOL0     C51528   8.253   9.709   9.081  1.0184  0.1100 -0.9835
  391MOL0     C51529   8.389   9.693   9.132  0.6007 -0.1761  0.0401
  391MOL0     N51530   8.889   9.199   9.567  0.0319 -0.6324  0.6584
  391MOL0     N51531   8.923   9.142   9.675 -0.3230  0.3026 -0.8899
  391MOL0     C51532   9.599   9.518  10.009 -0.9930 -0.5207 -0.8388
  391MOL0     C51533   9.632   9.648   9.976 -0.2434 -0.0562  0.1364
  391MOL0     C51534   9.695  10.093  10.008 -0.8872  0.9028 -0.2503
  391MOL0     C51535   9.594  10.188   9.995  0.5676 -0.4191 -0.0484
  391MOL0     C51536   9.629  10.316   9.957  0.0533 -0.0463 -0.2383
  391MOL0     C51537   9.760  10.361   9.967  0.3177  0.0238 -0.0299
  391MOL0     O51538   9.793  10.489   9.933  0.5137 -0.6932 -0.3152
  391MOL0     C51539   9.698  10.601   9.960 -0.1420 -0.6842 -0.2281
  391MOL0     C51540   9.763  10.746   9.942  0.4555 -0.3474  0.1679
  391MOL0     C51541   9.873  10.770  10.053  0.0726 -0.0773  0.5087
  391MOL0     C51542   9.893  10.920  10.057  0.0071 -0.3462  0.5361
  391MOL0     C51543   9.765  10.997  10.088 -0.1393  0.8562  0.2190
  391MOL0     C51544   9.657  11.047  10.111 -0.4271 -0.1441  0.7539
  391MOL0     C51545   9.863  10.269   9.989 -0.2583  0.3497  0.2228
  391MOL0     C51546   9.833  10.134  10.010  1.0987  0.5357 -0.2332
  391MOL0     H51547   9.878   9.723  10.201  0.1853  0.0293 -1.5814
  391MOL0     H51548   9.830   9.491  10.263  0.5851  1.1391  0.5773
  391MOL0     H51549   9.803   9.261  10.264  1.2354 -3.9164 -1.1965
  391MOL0     H51550   9.777   9.183  10.113  0.3159  1.9205 -1.9279
  391MOL0     H51551   9.604   9.158  10.366 -3.0126 -0.6180 -0.5713
  391MOL0     H51552   9.702   9.036  10.284 -0.8386 -1.1534  1.8328
  391MOL0     H51553   9.444   9.148  10.189 -0.7115  0.4375 -0.2173
  391MOL0     H51554   9.465   8.978  10.237 -0.5999 -1.4789 -1.9970
  391MOL0     H51555   9.592   9.101   9.977  0.8164  1.1554  0.4683
  391MOL0     H51556   9.587   8.932  10.021 -3.1774 -0.9599  0.7309
  391MOL0     H51557   9.361   8.914   9.965 -0.6897  0.7218 -3.5590
  391MOL0     H51558   9.451   9.010   9.846  2.2037  0.5261  0.1012
  391MOL0     H51559   9.351   9.215   9.971  1.9633 -0.6641  2.4838
  391MOL0     H51560   9.244   9.099  10.053 -1.8100  1.2842 -0.8128
  391MOL0     H51561   9.253   9.155   9.755  0.2389  0.0849  1.0448
  391MOL0     H51562   9.174   9.013   9.820  0.5028 -0.0990 -1.3586
  391MOL0     H51563   9.104   9.285   9.928 -1.6578 -1.8265  3.7222
  391MOL0     H51564   9.010   9.141   9.945 -0.1688 -0.9512 -0.3102
  391MOL0     H51565   9.063   9.434   9.714 -1.6440  1.1368 -0.4407
  391MOL0     H51566   8.991   9.393   9.382 -1.5159  0.5453 -2.2863
  391MOL0     H51567   8.942   9.530   9.494 -3.0906 -0.3290 -1.6889
  391MOL0     H51568   8.727   9.526   9.488 -0.2231  0.6776  0.9672
  391MOL0     H51569   8.724   9.362   9.417  1.2588 -0.3333 -2.7425
  391MOL0     H51570   8.852   9.568   9.249  0.6794 -1.9793 -1.0155
  391MOL0     H51571   8.740   9.439   9.208 -0.3031  1.3540 -1.5951
  391MOL0     H51572   8.642   9.657   9.155  2.0169  0.5109 -0.3636
  391MOL0     H51573   8.669   9.707   9.324 -1.7151  1.3822  0.3937
  391MOL0     H51574   8.306   9.447   9.351  1.5850 -1.6854 -2.5559
  391MOL0     H51575   8.083   9.489   9.252 -0.1957  1.5331  0.9043
  391MOL0     H51576   7.734   9.800   9.126  1.0619  1.4524 -3.9074
  391MOL0     H51577   7.519   9.780   9.031 -1.4452 -0.4175 -0.2727
  391MOL0     H51578   7.342   9.736   8.920  0.1552 -0.4131 -1.2208
  391MOL0     H51579   7.289   9.596   9.024 -3.2519 -2.1447 -0.7293
  391MOL0     H51580   7.104   9.643   8.890  0.4766 -0.2073  1.0456
  391MOL0     H51581   7.172   9.492   8.835 -3.1937  0.8591 -1.9862
  391MOL0     H51582   7.254   9.617   8.646  3.7489  1.8440  2.1169
  391MOL0     H51583   7.213   9.771   8.732 -0.8744  0.2477  0.7550
  391MOL0     H51584   7.002   9.556   8.619  1.6760  0.1275 -4.5078
  391MOL0     H51585   6.965   9.714   8.700  1.3157  1.2830 -0.3692
  391MOL0     H51586   6.947   9.696   8.448 -0.1468 -1.0117  0.9700
  391MOL0     H51587   7.103   9.642   8.430  1.1992  1.6388 -0.6815
  391MOL0     H51588   7.194   9.865   8.530  1.1248  0.0501 -1.1376
  391MOL0     H51589   7.041   9.932   8.525 -0.6275  0.1549 -2.0115
  391MOL0     H51590   7.166   9.816   8.285 -0.3896 -0.9415  0.2295
  391MOL0     H51591   7.004   9.897   8.283  1.4172  1.6151 -3.1910
  391MOL0     H51592   7.096  10.096   8.333 -2.1803 -0.0678 -2.5591
  391MOL0     H51593   7.185  10.047   8.190  2.8891  3.5397  0.9645
  391MOL0     H51594   7.604   9.377   8.901 -1.7997  0.4086  0.7843
  391MOL0     H51595   7.843   9.415   8.995  2.4476  1.7278  2.5032
  391MOL0     H51596   8.254   9.791   9.010  4.7288  2.3663  1.3306
  391MOL0     H51597   8.470   9.756   9.097 -1.6964  2.0382 -1.6448
  391MOL0     H51598   9.504   9.473   9.979 -0.7475  0.0320 -2.5864
  391MOL0     H51599   9.571   9.680   9.892 -1.3723 -2.5927 -0.1158
  391MOL0     H51600   9.491  10.157  10.013  1.8326 -3.2772  4.0079
  391MOL0     H51601   9.546  10.386   9.953 -2.4851 -2.8580 -2.8697
  391MOL0     H51602   9.640  10.589  10.051  0.7600  0.1960  0.4838
  391MOL0     H51603   9.628  10.598   9.876 -0.4875  0.6362 -0.0004
  391MOL0     H51604   9.814  10.742   9.845  1.0673  0.6364  0.4418
  391MOL0     H51605   9.690  10.825   9.925 -1.1665 -1.4286  1.6688
  391MOL0     H51606   9.966  10.712  10.051  2.2717  2.9692  3.4944
  391MOL0     H51607   9.835  10.742  10.151  0.6941 -2.5016  0.1350
  391MOL0     H51608   9.974  10.935  10.129  1.4672 -1.3289 -0.8152
  391MOL0     H51609   9.926  10.946   9.956 -0.0456  0.6137  0.7615
  391MOL0     H51610   9.565  11.089  10.147 -1.1894 -1.3972  0.3463
  391MOL0     H51611   9.964  10.307   9.980 -0.4447  0.9261  0.4954
  391MOL0     H51612   9.910  10.057  10.014 -0.2181 -0.7559  2.9091
  392MOL0     O51613  10.058  10.285   5.482 -0.1096  0.1226  0.0220
  392MOL0     C51614  10.092  10.309   5.363  0.3321  0.1908  0.2742
  392MOL0     O51615  10.010  10.301   5.250 -0.6682 -0.0104 -0.2703
  392MOL0     C51616   9.882  10.297   5.280  0.0043  0.3815  0.0614
  392MOL0     C51617   9.811  10.405   5.320  0.1632  0.5078  0.7744
  392MOL0     C51618   9.671  10.384   5.352 -0.0333  0.5801  0.6896
  392MOL0     C51619   9.607  10.260   5.324 -0.7135  0.9956  0.9574
  392MOL0     O51620   9.475  10.230   5.355  0.3112 -0.2151 -0.6502
  392MOL0     C51621   9.364  10.318   5.315 -0.5761  0.2498  0.6721
  392MOL0     C51622   9.384  10.354   5.169 -0.1671 -0.5168 -0.0425
  392MOL0     C51623   9.293  10.479   5.132  0.0161  0.4259 -0.2595
  392MOL0     C51624   9.277  10.485   4.983  0.0852  0.6254  0.3743
  392MOL0     C51625   9.182  10.585   4.926  0.0951  0.5524 -0.1197
  392MOL0     C51626   9.192  10.584   4.773 -0.3127 -0.2075  0.3372
  392MOL0     C51627   9.133  10.708   4.714  0.3512  0.7596  0.2018
  392MOL0     C51628   9.130  10.700   4.561  0.1147 -0.3357 -0.6327
  392MOL0     N51629   9.043  10.589   4.513 -0.7723  0.6416 -0.5423
  392MOL0     C51630   8.926  10.539   4.559 -0.6005 -0.2228 -0.6974
  392MOL0     C51631   8.904  10.433   4.473 -0.0950 -1.1970 -1.0553
  392MOL0     C51632   8.782  10.349   4.491  0.0773  0.3591 -0.3299
  392MOL0     C51633   8.666  10.379   4.391  0.4392  0.9709  0.2713
  392MOL0     C51634   8.617  10.522   4.389  0.7585  0.7775  0.5766
  392MOL0     C51635   8.528  10.579   4.503  0.5927  0.1367 -0.7095
  392MOL0     O51636   8.584  10.540   4.626  0.3346 -0.1474  0.4222
  392MOL0     C51637   8.525  10.592   4.735  0.4649 -0.9950 -0.1735
  392MOL0     C51638   8.593  10.681   4.825 -0.1360  0.1688 -0.2255
  392MOL0     C51639   8.534  10.732   4.937  0.0741 -0.0818 -0.1867
  392MOL0     C51640   8.395  10.701   4.963 -0.2480 -0.3287 -0.2859
  392MOL0     C51641   8.317  10.768   5.077  0.2216  0.0491 -0.6144
  392MOL0     O51642   8.390  10.858   5.154 -0.3770  0.3216  0.1405
  392MOL0     C51643   8.315  10.915   5.255  0.1527  0.1664  0.1535
  392MOL0     C51644   8.289  11.050   5.250  0.0244  0.2305 -0.7833
  392MOL0     C51645   8.205  11.110   5.345 -0.7870  0.6263 -0.4299
  392MOL0     C51646   8.150  11.030   5.448  0.9404  0.6779 -0.6727
  392MOL0     O51647   8.065  11.097   5.535 -0.4097  0.6184 -0.3027
  392MOL0     C51648   7.959  11.018   5.585 -0.3695 -0.1840  0.0904
  392MOL0     C51649   7.868  11.083   5.685 -0.8784  0.2738 -0.7515
  392MOL0     C51650   7.946  11.147   5.808  0.7574  0.4675  0.3001
  392MOL0     C51651   7.847  11.234   5.890 -0.3919  0.0154 -0.1259
  392MOL0     C51652   7.905  11.299   6.025  0.6051 -0.0487 -0.1810
  392MOL0     C51653   7.955  11.190   6.116  0.3285 -0.9574 -0.8064
  392MOL0     C51654   7.990  11.263   6.253  0.3052 -0.3134  0.3994
  392MOL0     C51655   8.093  11.182   6.331 -0.8805 -0.3260  0.5090
  392MOL0    Cl51656   8.148  11.247   6.485 -0.7945 -0.2247  0.2572
  392MOL0     C51657   8.165  10.886   5.443  0.2171 -0.7471  0.6712
  392MOL0     C51658   8.257  10.834   5.356  1.1184  0.5667  0.5016
  392MOL0     O51659   8.196  10.736   5.091  0.0288  0.1453  1.0043
  392MOL0     C51660   8.325  10.635   4.863  0.5397  0.0113 -0.6137
  392MOL0     C51661   8.392  10.575   4.755 -0.1905  0.1536  0.0844
  392MOL0     N51662   9.003  10.429   4.371 -0.7034 -0.1578 -0.1061
  392MOL0     N51663   9.092  10.518   4.412 -0.9346  0.9780  0.2186
  392MOL0     C51664   9.685  10.161   5.271 -0.0715 -0.5331 -0.1174
  392MOL0     C51665   9.821  10.174   5.247  0.5211  0.4462  1.2469
  392MOL0     C51666  10.232  10.328   5.340 -0.5328 -0.7779  0.2439
  392MOL0     C51667  10.309  10.382   5.443  0.0842  0.4869 -0.1593
  392MOL0     C51668  10.452  10.402   5.430  0.4940 -0.9284 -0.5145
  392MOL0     C51669  10.518  10.361   5.309  0.6302  0.4600 -0.5241
  392MOL0     O51670  10.660  10.389   5.308  0.6545  0.3125 -0.3218
  392MOL0     C51671  10.728  10.338   5.195 -0.1402  0.5089 -0.4050
  392MOL0     C51672  10.712  10.423   5.073 -0.2403  0.0945  0.4545
  392MOL0     C51673  10.808  10.385   4.960 -1.5345 -0.5751  0.2467
  392MOL0     C51674  10.779  10.449   4.820 -0.6191 -0.7071  0.3411
  392MOL0     C51675  10.848  10.374   4.704 -0.4103 -1.4355 -0.3626
  392MOL0     C51676  10.890  10.316   4.600  0.1659 -0.3652 -0.9230
  392MOL0     C51677  10.438  10.308   5.198 -0.6561  0.0640 -0.4353
  392MOL0     C51678  10.300  10.295   5.214  0.3455  0.3838  0.0140
  392MOL0     H51679   9.866  10.498   5.325  0.0090  0.8557 -2.2345
  392MOL0     H51680   9.603  10.467   5.367 -0.3212  0.5993 -0.5761
  392MOL0     H51681   9.370  10.417   5.362  0.1029  0.3519  0.3915
  392MOL0     H51682   9.262  10.282   5.330 -1.7533  2.3998 -1.5016
  392MOL0     H51683   9.347  10.273   5.105 -0.5537 -0.3223 -0.0618
  392MOL0     H51684   9.487  10.375   5.138 -0.2098  1.7757  1.2290
  392MOL0     H51685   9.336  10.575   5.164 -0.8726  0.3154  1.4111
  392MOL0     H51686   9.193  10.465   5.175 -0.2355 -1.7346 -1.4385
  392MOL0     H51687   9.371  10.491   4.928  0.5335  2.4840  1.2535
  392MOL0     H51688   9.225  10.389   4.974 -0.8552  0.8658  2.4710
  392MOL0     H51689   9.215  10.684   4.959 -0.7290  0.0675  2.4204
  392MOL0     H51690   9.080  10.561   4.959  1.6391 -4.5054  1.8736
  392MOL0     H51691   9.148  10.495   4.727 -1.4387  1.4334 -1.9686
  392MOL0     H51692   9.296  10.585   4.740 -0.6612 -0.8578 -0.8162
  392MOL0     H51693   9.027  10.725   4.737  0.8885  2.8763  1.3470
  392MOL0     H51694   9.176  10.802   4.749 -1.7533  1.3851  1.2916
  392MOL0     H51695   9.234  10.671   4.541  0.8822 -1.2849  3.7551
  392MOL0     H51696   9.115  10.796   4.511  0.3356 -1.1081 -2.2262
  392MOL0     H51697   8.875  10.570   4.649  0.7612  3.8026 -1.1456
  392MOL0     H51698   8.749  10.351   4.595 -2.0954 -2.6419 -0.8320
  392MOL0     H51699   8.815  10.246   4.472 -1.4840 -0.4998  1.3330
  392MOL0     H51700   8.578  10.315   4.399 -1.1260  3.1246  1.3471
  392MOL0     H51701   8.706  10.357   4.291 -1.9802 -0.6240 -0.4358
  392MOL0     H51702   8.701  10.591   4.376  1.0946  0.1590 -0.7552
  392MOL0     H51703   8.560  10.536   4.297  0.9391  1.0504  0.5036
  392MOL0     H51704   8.424  10.547   4.490  0.7426 -1.2127  1.0756
  392MOL0     H51705   8.534  10.688   4.489 -0.6002  0.5949  1.7785
  392MOL0     H51706   8.699  10.691   4.802 -0.4743 -1.6399 -3.0230
  392MOL0     H51707   8.593  10.797   5.001  0.2938 -0.3423 -0.1255
  392MOL0     H51708   8.343  11.119   5.186  2.1372 -0.4758  0.1511
  392MOL0     H51709   8.187  11.216   5.356 -1.2856  0.3088  2.7287
  392MOL0     H51710   7.994  10.929   5.639 -0.4991 -0.3471 -0.0963
  392MOL0     H51711   7.891  10.980   5.509 -0.6956 -1.5495  1.0175
  392MOL0     H51712   7.795  11.014   5.727 -0.2324  0.1265  0.1740
  392MOL0     H51713   7.816  11.155   5.621  0.2286 -1.2582 -3.5226
  392MOL0     H51714   8.026  11.212   5.770  0.3106  2.0013  1.8697
  392MOL0     H51715   7.988  11.070   5.873 -0.1562  0.2773  0.6771
  392MOL0     H51716   7.820  11.315   5.822  0.1288  0.0039 -0.3485
  392MOL0     H51717   7.754  11.181   5.909 -0.3204  0.6032  2.1881
  392MOL0     H51718   7.824  11.353   6.073 -1.2242 -1.9127 -0.9925
  392MOL0     H51719   7.982  11.375   6.012 -1.4241  2.0292 -0.6876
  392MOL0     H51720   8.044  11.127   6.100 -0.9029 -3.5615  1.6338
  392MOL0     H51721   7.878  11.116   6.140  2.4466 -2.4294  2.1443
  392MOL0     H51722   8.030  11.364   6.243  1.4206 -0.8500 -0.9172
  392MOL0     H51723   7.897  11.280   6.308 -1.6259 -1.2644 -2.3701
  392MOL0     H51724   8.174  11.169   6.259  0.1526  2.2857  1.1028
  392MOL0     H51725   8.059  11.083   6.364  0.3229 -0.7723  0.4729
  392MOL0     H51726   8.121  10.819   5.516 -0.6788 -0.7526  0.1526
  392MOL0     H51727   8.289  10.731   5.358  1.0172  0.5487  1.4553
  392MOL0     H51728   8.217  10.637   4.863  0.5407  0.4661 -0.1423
  392MOL0     H51729   8.324  10.520   4.691  0.2731 -3.1236  2.1855
  392MOL0     H51730   9.632  10.073   5.235 -0.1498 -0.3255 -0.5196
  392MOL0     H51731   9.880  10.095   5.202  1.4628  1.3714  0.7916
  392MOL0     H51732  10.263  10.401   5.539 -1.7640  0.7744 -1.0550
  392MOL0     H51733  10.520  10.450   5.499 -0.1761 -0.3484 -0.2406
  392MOL0     H51734  10.689  10.237   5.177  1.6170 -0.1146 -0.9789
  392MOL0     H51735  10.835  10.337   5.219 -0.9054  1.6252  3.6808
  392MOL0     H51736  10.614  10.424   5.025 -1.8216  3.0659  3.3781
  392MOL0     H51737  10.725  10.528   5.101 -3.7091  1.5906 -2.6432
  392MOL0     H51738  10.791  10.277   4.947  2.9023 -1.4332  0.1901
  392MOL0     H51739  10.912  10.403   4.988 -1.7173 -1.0982  1.3529
  392MOL0     H51740  10.672  10.469   4.805 -0.0866  2.6519  0.1802
  392MOL0     H51741  10.828  10.547   4.823 -0.8677 -0.5796  0.2843
  392MOL0     H51742  10.922  10.270   4.509 -2.0717 -0.6388 -1.6394
  392MOL0     H51743  10.480  10.270   5.105 -0.4871 -1.4207  0.2139
  392MOL0     H51744  10.246  10.247   5.133 -0.4879  0.6923  0.3752
  393MOL0     O51745   6.796   7.108   4.316  0.1900  0.0508 -0.4520
  393MOL0     C51746   6.837   7.141   4.427  0.3195 -0.5301  0.8096
  393MOL0     O51747   6.784   7.231   4.517 -1.4546  0.1055  0.6126
  393MOL0     C51748   6.674   7.297   4.476  0.4747  0.5049 -0.1171
  393MOL0     C51749   6.546   7.245   4.447 -0.1293  0.3003  0.2047
  393MOL0     C51750   6.442   7.322   4.412  0.3290 -0.2710  1.0723
  393MOL0     C51751   6.442   7.466   4.425 -0.3509  0.1499 -0.6839
  393MOL0     O51752   6.330   7.547   4.420 -0.0326 -0.8443 -0.4474
  393MOL0     C51753   6.208   7.501   4.485 -0.5172 -0.3968 -0.6448
  393MOL0     C51754   6.121   7.616   4.517 -0.4574  0.0754  0.8076
  393MOL0     C51755   5.992   7.580   4.586 -0.4340  0.0136 -0.3799
  393MOL0     C51756   5.885   7.678   4.559 -0.1171 -1.2830 -0.5266
  393MOL0     C51757   5.757   7.647   4.646 -0.2302 -0.2867 -0.0301
  393MOL0     C51758   5.634   7.734   4.604  0.9515 -0.3112 -1.1680
  393MOL0     C51759   5.499   7.703   4.686 -0.2647  0.7550 -0.3557
  393MOL0     C51760   5.410   7.826   4.675  0.2632  0.1902  0.0434
  393MOL0     N51761   5.277   7.801   4.715  0.1853 -0.4383  0.4941
  393MOL0     C51762   5.178   7.765   4.626  0.0150  0.5910 -0.1162
  393MOL0     C51763   5.057   7.785   4.687 -0.1708  1.3600  0.2033
  393MOL0     C51764   4.923   7.743   4.635  0.0605  0.3565  0.4566
  393MOL0     C51765   4.901   7.792   4.481 -0.0079 -0.7182  0.0705
  393MOL0     C51766   4.748   7.830   4.452  0.3731 -0.1677 -0.1361
  393MOL0     C51767   4.664   7.700   4.439 -0.3197  0.7889  0.1976
  393MOL0     O51768   4.678   7.636   4.303 -0.4577  0.1402 -0.4972
  393MOL0     C51769   4.649   7.704   4.197  0.6465  1.3457  0.2602
  393MOL0     C51770   4.693   7.649   4.080 -0.0204  1.0397  0.5145
  393MOL0     C51771   4.662   7.705   3.954  0.7806 -0.0481  0.4569
  393MOL0     C51772   4.564   7.812   3.947 -0.6621 -0.2948  0.7920
  393MOL0     C51773   4.530   7.870   3.822  0.1797 -0.0693  0.4946
  393MOL0     O51774   4.474   7.998   3.824  0.0011  0.4071 -0.3140
  393MOL0     C51775   4.428   8.068   3.717  0.2960 -0.1702 -0.1344
  393MOL0     C51776   4.435   8.208   3.737 -0.9409  0.5167  1.0651
  393MOL0     C51777   4.406   8.292   3.622 -0.2838  0.2213  0.2379
  393MOL0     C51778   4.369   8.239   3.496  0.3536  0.2951 -0.1529
  393MOL0     O51779   4.356   8.316   3.387 -0.5343 -0.5853  0.5047
  393MOL0     C51780   4.327   8.264   3.253 -0.5604 -1.0427 -0.6415
  393MOL0     C51781   4.270   8.389   3.186  0.0200 -0.3824  0.4120
  393MOL0     C51782   4.301   8.402   3.040 -0.7092  0.3588 -0.3814
  393MOL0     C51783   4.222   8.522   2.987  0.5853 -0.4587 -0.9809
  393MOL0     C51784   4.222   8.519   2.835 -0.1013  0.2877 -0.4704
  393MOL0     C51785   4.361   8.532   2.767  0.7162 -0.2056  0.1111
  393MOL0     C51786   4.368   8.470   2.623  0.3093  0.1255 -0.1797
  393MOL0     C51787   4.290   8.547   2.527  0.0015  0.5729  0.6037
  393MOL0    Cl51788   4.269   8.441   2.379 -0.0554 -0.3756 -0.7946
  393MOL0     C51789   4.342   8.100   3.490  0.6675 -1.1323 -0.9988
  393MOL0     C51790   4.373   8.022   3.601 -1.0773 -0.4458 -0.2628
  393MOL0     O51791   4.563   7.816   3.715  0.8173  0.5033 -0.6857
  393MOL0     C51792   4.505   7.861   4.069 -0.7126  0.1389  0.6620
  393MOL0     C51793   4.554   7.810   4.188 -0.5175 -0.7759  0.9057
  393MOL0     N51794   5.084   7.845   4.815  0.3122  0.7592  0.2821
  393MOL0     N51795   5.212   7.859   4.821  0.0494 -0.1493 -0.8490
  393MOL0     C51796   6.564   7.520   4.430 -1.4609  0.1494 -0.8504
  393MOL0     C51797   6.680   7.439   4.467 -0.5411  0.0711  0.6487
  393MOL0     C51798   6.954   7.060   4.467 -0.3946 -0.0238 -0.2329
  393MOL0     C51799   7.018   7.080   4.590 -0.1609 -0.4209  0.4651
  393MOL0     C51800   7.123   7.000   4.636 -0.9341 -0.7147  0.3815
  393MOL0     C51801   7.180   6.914   4.539 -0.5947 -0.4384 -0.8555
  393MOL0     O51802   7.296   6.834   4.567  0.8845  0.0493  0.0898
  393MOL0     C51803   7.359   6.855   4.700  0.6742 -0.1316  0.0434
  393MOL0     C51804   7.492   6.772   4.689 -0.0202 -0.3931 -0.5709
  393MOL0     C51805   7.474   6.625   4.665  0.0623  0.0921 -0.6823
  393MOL0     C51806   7.607   6.557   4.623 -0.1050  0.5135 -0.0368
  393MOL0     C51807   7.596   6.410   4.610  0.5092  0.1307  0.0456
  393MOL0     C51808   7.580   6.288   4.596  1.0844  0.2959 -0.2151
  393MOL0     C51809   7.120   6.887   4.422  0.4182 -0.7829  0.7743
  393MOL0     C51810   7.006   6.956   4.388  0.0677 -0.7267 -0.5244
  393MOL0     H51811   6.541   7.138   4.433 -0.9047  0.5843 -2.1427
  393MOL0     H51812   6.347   7.285   4.373  0.8755  1.4488 -2.1508
  393MOL0     H51813   6.242   7.446   4.574  1.0652 -0.4333 -1.2379
  393MOL0     H51814   6.151   7.423   4.433 -1.4760 -0.7186  0.8342
  393MOL0     H51815   6.113   7.685   4.433  0.5826  1.2438  1.6226
  393MOL0     H51816   6.185   7.670   4.588 -0.8247  0.9440  0.4806
  393MOL0     H51817   6.003   7.568   4.694  0.6685 -0.5477 -0.5353
  393MOL0     H51818   5.948   7.485   4.554 -2.4394  1.2865 -1.5926
  393MOL0     H51819   5.919   7.780   4.576 -2.0386 -0.8047  0.8411
  393MOL0     H51820   5.853   7.690   4.455  2.2970  0.1170 -1.1713
  393MOL0     H51821   5.793   7.653   4.750  0.0746  1.6594 -0.2096
  393MOL0     H51822   5.739   7.541   4.624  3.1518 -1.3200  1.3869
  393MOL0     H51823   5.600   7.715   4.502 -0.3626 -1.3356 -0.5671
  393MOL0     H51824   5.662   7.839   4.616 -0.6013  0.0411 -0.4387
  393MOL0     H51825   5.454   7.614   4.641  1.5642  1.5466 -4.1603
  393MOL0     H51826   5.517   7.679   4.791 -1.0202 -1.2064 -0.6322
  393MOL0     H51827   5.415   7.864   4.573  4.0265  3.8803  1.3230
  393MOL0     H51828   5.458   7.904   4.735 -1.0865 -0.5517  2.2029
  393MOL0     H51829   5.210   7.720   4.533  0.7258  0.2394  0.2904
  393MOL0     H51830   4.855   7.796   4.703  0.1963  0.2596  0.6696
  393MOL0     H51831   4.910   7.635   4.643 -2.6525  0.6531  0.9960
  393MOL0     H51832   4.963   7.738   4.408 -0.2332  0.8699 -1.3655
  393MOL0     H51833   4.962   7.882   4.468 -1.2371  0.3634  1.4547
  393MOL0     H51834   4.712   7.890   4.535 -0.2424 -0.1594 -0.4063
  393MOL0     H51835   4.756   7.893   4.363  2.7104  0.3924  0.3890
  393MOL0     H51836   4.559   7.729   4.442 -0.7535 -0.5100 -0.9369
  393MOL0     H51837   4.701   7.621   4.506 -1.7786 -2.4685 -2.5132
  393MOL0     H51838   4.753   7.559   4.091  2.3821  2.2829 -1.4504
  393MOL0     H51839   4.700   7.670   3.858 -0.2082 -1.6703  0.6166
  393MOL0     H51840   4.461   8.238   3.837  1.6047 -1.7094  1.1975
  393MOL0     H51841   4.407   8.400   3.629 -0.1209  0.3011 -0.7715
  393MOL0     H51842   4.242   8.196   3.256 -0.2647 -1.3822  1.0260
  393MOL0     H51843   4.417   8.224   3.206 -0.2867  0.7043 -1.7288
  393MOL0     H51844   4.309   8.478   3.236 -3.4116  1.9278 -0.6136
  393MOL0     H51845   4.161   8.396   3.190 -0.4838 -4.4386 -1.0823
  393MOL0     H51846   4.283   8.308   2.988  0.9246 -0.0857 -0.1818
  393MOL0     H51847   4.408   8.422   3.032 -0.8484  2.7904  2.3057
  393MOL0     H51848   4.118   8.512   3.020  0.9820 -2.5230 -0.1576
  393MOL0     H51849   4.268   8.619   3.009  0.0701 -0.2354 -0.8833
  393MOL0     H51850   4.153   8.594   2.796 -0.8582 -0.0831  0.1232
  393MOL0     H51851   4.177   8.427   2.796 -1.7696 -0.5484  3.0288
  393MOL0     H51852   4.442   8.477   2.816  0.1533  0.0032  1.3238
  393MOL0     H51853   4.377   8.640   2.766 -2.4411  0.3580 -0.1757
  393MOL0     H51854   4.469   8.460   2.583  0.0902 -5.8707 -0.1116
  393MOL0     H51855   4.337   8.366   2.632  2.8977 -0.6675  0.3763
  393MOL0     H51856   4.340   8.644   2.517  1.5576 -0.0780  1.5489
  393MOL0     H51857   4.188   8.557   2.565 -1.5574  0.2953 -3.1025
  393MOL0     H51858   4.325   8.050   3.395  3.2325  0.7159 -2.5631
  393MOL0     H51859   4.388   7.917   3.580  0.6316 -0.3740  0.3740
  393MOL0     H51860   4.435   7.943   4.076 -0.5566  0.3467 -0.1193
  393MOL0     H51861   4.512   7.848   4.280 -1.1222  1.1005 -0.0890
  393MOL0     H51862   6.561   7.628   4.432 -1.8783  0.3225 -4.2377
  393MOL0     H51863   6.779   7.482   4.482  1.5650 -3.8938 -0.5247
  393MOL0     H51864   6.982   7.155   4.660 -4.5427  1.8970 -3.6402
  393MOL0     H51865   7.186   7.018   4.722  2.9711  1.9005 -2.6921
  393MOL0     H51866   7.291   6.816   4.777 -2.2234  4.4898  0.2134
  393MOL0     H51867   7.381   6.959   4.727 -2.5459  0.5704  0.3312
  393MOL0     H51868   7.554   6.816   4.610  0.7684  2.6517  1.5562
  393MOL0     H51869   7.541   6.786   4.786 -1.0053 -1.1428  0.0466
  393MOL0     H51870   7.396   6.601   4.592 -1.1657  0.0356  0.5994
  393MOL0     H51871   7.440   6.584   4.761 -1.2705  1.6817 -0.4374
  393MOL0     H51872   7.629   6.601   4.524 -1.3424  1.4592  0.0880
  393MOL0     H51873   7.693   6.577   4.687 -1.0436  0.4031  1.2948
  393MOL0     H51874   7.552   6.186   4.577  1.2102  0.2402 -0.1019
  393MOL0     H51875   7.159   6.814   4.353 -0.7021  0.2521 -1.0261
  393MOL0     H51876   6.942   6.925   4.306 -1.1583  1.1038 -0.3027
  394MOL0     O51877   5.507   7.642   2.371  0.2271 -0.5907  0.2663
  394MOL0     C51878   5.600   7.564   2.323  1.0956  0.7594 -0.0974
  394MOL0     O51879   5.605   7.429   2.335  0.3718 -0.0382 -0.0202
  394MOL0     C51880   5.541   7.378   2.446 -0.1270 -0.2272  0.9151
  394MOL0     C51881   5.589   7.375   2.579  0.0355 -0.4439  0.8737
  394MOL0     C51882   5.511   7.317   2.675  0.1020  0.0873  0.7272
  394MOL0     C51883   5.383   7.267   2.646 -0.2750 -0.0533 -1.0047
  394MOL0     O51884   5.297   7.215   2.747 -0.0070 -0.0513  0.7160
  394MOL0     C51885   5.332   7.211   2.891  0.8944  0.0762 -0.3137
  394MOL0     C51886   5.320   7.345   2.970 -0.1946 -0.3569  0.4905
  394MOL0     C51887   5.395   7.359   3.094 -0.8736 -0.4849 -0.1903
  394MOL0     C51888   5.367   7.480   3.183  0.0417 -1.1609  0.5481
  394MOL0     C51889   5.440   7.477   3.324  0.8673 -0.5357 -0.2655
  394MOL0     C51890   5.427   7.605   3.407 -0.3350  0.5374 -0.0331
  394MOL0     C51891   5.305   7.693   3.420 -1.1459  0.6172  1.1572
  394MOL0     C51892   5.202   7.628   3.505  0.6426  0.3458 -0.5793
  394MOL0     N51893   5.093   7.718   3.513  0.3703  0.5229 -0.0937
  394MOL0     C51894   5.080   7.834   3.577 -0.1835 -0.4713  0.3245
  394MOL0     C51895   4.954   7.876   3.565  0.0736  0.4301 -1.4933
  394MOL0     C51896   4.894   7.988   3.637 -0.3435 -0.6448 -0.6437
  394MOL0     C51897   4.889   8.110   3.546 -0.0082 -0.1632 -0.0183
  394MOL0     C51898   4.776   8.106   3.450  0.9835 -0.0512  0.7037
  394MOL0     C51899   4.779   8.238   3.375  0.5874  0.6596  0.9381
  394MOL0     O51900   4.679   8.241   3.276  1.3039 -0.6295 -0.2305
  394MOL0     C51901   4.660   8.363   3.232 -0.6970  0.9296  0.2095
  394MOL0     C51902   4.613   8.462   3.313 -0.1274  0.1599 -0.8116
  394MOL0     C51903   4.599   8.596   3.269  0.0997 -0.0511  0.5608
  394MOL0     C51904   4.634   8.621   3.128  0.5673  0.0071  0.6842
  394MOL0     C51905   4.621   8.752   3.062  0.1590 -0.4474  0.1497
  394MOL0     O51906   4.557   8.847   3.138 -0.3517 -0.1572  0.3917
  394MOL0     C51907   4.568   8.979   3.085  0.1119 -0.9420  0.3134
  394MOL0     C51908   4.692   9.030   3.060 -0.8557 -1.1237 -0.4405
  394MOL0     C51909   4.701   9.169   3.024 -0.0180 -0.2267 -0.5062
  394MOL0     C51910   4.589   9.253   3.020 -0.5800  0.1739  0.9277
  394MOL0     O51911   4.600   9.389   2.981  0.0054  0.1174  0.6581
  394MOL0     C51912   4.487   9.432   2.897  0.2801 -0.1844 -0.1603
  394MOL0     C51913   4.515   9.576   2.854 -0.5182 -0.7428  0.5068
  394MOL0     C51914   4.413   9.619   2.746  0.1942  0.5053 -0.1686
  394MOL0     C51915   4.460   9.737   2.667  1.1328  0.1525  0.4009
  394MOL0     C51916   4.356   9.788   2.567  0.7201  0.4380 -1.0588
  394MOL0     C51917   4.390   9.742   2.422  0.5505  0.0332 -0.6798
  394MOL0     C51918   4.352   9.588   2.399  0.7144 -0.0541 -0.6497
  394MOL0     C51919   4.364   9.557   2.252 -0.2351  0.0839  0.6034
  394MOL0    Cl51920   4.328   9.396   2.195 -0.2503 -0.1466  0.3268
  394MOL0     C51921   4.473   9.190   3.049  0.2733  0.3699  0.0238
  394MOL0     C51922   4.453   9.055   3.088  0.4934  0.3127  0.2259
  394MOL0     O51923   4.652   8.760   2.943  0.3085  0.5613 -0.1160
  394MOL0     C51924   4.708   8.521   3.060  0.6909 -0.2592 -0.6384
  394MOL0     C51925   4.727   8.401   3.109 -0.1814  0.6238 -0.5753
  394MOL0     N51926   4.894   7.767   3.512  0.0285 -0.3449  0.2081
  394MOL0     N51927   4.975   7.670   3.465 -0.1968  0.1104 -0.0702
  394MOL0     C51928   5.332   7.281   2.516  0.4306  0.0848 -0.4408
  394MOL0     C51929   5.410   7.334   2.419  0.1733 -0.3395  0.0811
  394MOL0     C51930   5.690   7.616   2.217 -0.8441 -0.1733  0.6003
  394MOL0     C51931   5.657   7.740   2.159  1.1686 -0.1540 -0.2138
  394MOL0     C51932   5.756   7.814   2.098 -0.1148  0.3559 -0.2959
  394MOL0     C51933   5.883   7.759   2.079 -1.1166  0.4495 -0.5421
  394MOL0     O51934   5.979   7.834   2.001 -0.2435 -0.1286 -0.6407
  394MOL0     C51935   5.982   7.969   2.040  0.2850  0.2327  0.3451
  394MOL0     C51936   6.108   8.043   1.980 -0.7027 -0.6078 -1.9677
  394MOL0     C51937   6.088   8.066   1.833 -0.1479  0.7598  0.5669
  394MOL0     C51938   6.208   8.127   1.768  0.2682  0.6619 -0.9388
  394MOL0     C51939   6.177   8.130   1.622 -0.1622 -0.0972  0.3299
  394MOL0     C51940   6.155   8.129   1.506  0.0201  0.0669  1.3840
  394MOL0     C51941   5.911   7.620   2.119  0.2742 -0.9078  0.3018
  394MOL0     C51942   5.811   7.557   2.196 -0.2186  1.8143 -0.8460
  394MOL0     H51943   5.686   7.417   2.603  0.5490 -1.3626  0.4869
  394MOL0     H51944   5.538   7.315   2.780 -1.4123 -1.0019  1.1378
  394MOL0     H51945   5.431   7.172   2.916  1.7782  1.8930 -0.8274
  394MOL0     H51946   5.258   7.142   2.933  0.8625 -0.0974 -0.6553
  394MOL0     H51947   5.215   7.359   2.994 -0.7243  1.3001 -2.3109
  394MOL0     H51948   5.348   7.428   2.904 -1.1655 -1.5924 -1.5925
  394MOL0     H51949   5.504   7.365   3.080 -0.9958 -0.9488 -1.4378
  394MOL0     H51950   5.385   7.267   3.153  0.4553 -2.2468 -2.5372
  394MOL0     H51951   5.406   7.565   3.126  0.2753 -1.3093  0.4887
  394MOL0     H51952   5.261   7.500   3.202 -0.3198 -0.9722 -1.5062
  394MOL0     H51953   5.547   7.458   3.314  1.8468  4.2227 -1.4629
  394MOL0     H51954   5.386   7.403   3.383  2.4440 -1.5511 -0.0440
  394MOL0     H51955   5.504   7.669   3.363  0.1507 -1.3731 -2.1663
  394MOL0     H51956   5.458   7.575   3.508 -1.8717  0.6250  0.4871
  394MOL0     H51957   5.341   7.792   3.448  0.2288  0.9106 -1.3753
  394MOL0     H51958   5.263   7.702   3.319  0.8007 -0.7877  0.1391
  394MOL0     H51959   5.243   7.595   3.600  1.7142 -1.1750 -1.5251
  394MOL0     H51960   5.166   7.535   3.460 -1.8139 -0.0333  1.9175
  394MOL0     H51961   5.167   7.882   3.620 -0.5076  1.8658 -1.4190
  394MOL0     H51962   4.961   8.008   3.721 -0.2429 -1.4194 -0.5311
  394MOL0     H51963   4.800   7.951   3.679  0.1351 -1.8941 -0.6391
  394MOL0     H51964   4.983   8.114   3.491  0.6676  2.4266  1.1945
  394MOL0     H51965   4.881   8.197   3.612  1.0493 -1.7158  2.2854
  394MOL0     H51966   4.791   8.022   3.383 -1.6690  2.1570 -3.0597
  394MOL0     H51967   4.692   8.084   3.516 -0.6316  3.1652 -0.0676
  394MOL0     H51968   4.876   8.245   3.324  0.1142  1.2036  0.0830
  394MOL0     H51969   4.776   8.314   3.454 -2.0809  2.1042 -0.4123
  394MOL0     H51970   4.572   8.443   3.412 -1.5899  0.4567 -1.3403
  394MOL0     H51971   4.542   8.674   3.319  0.3997  1.0554 -0.7616
  394MOL0     H51972   4.784   8.973   3.062  1.4258  2.1435 -2.4266
  394MOL0     H51973   4.793   9.225   3.011  0.0444 -0.2744 -0.2621
  394MOL0     H51974   4.391   9.433   2.949 -1.1044  2.9438 -2.4024
  394MOL0     H51975   4.480   9.368   2.809  1.6560 -2.2323  1.1288
  394MOL0     H51976   4.615   9.586   2.810 -1.1030 -0.8069 -0.8869
  394MOL0     H51977   4.504   9.644   2.939 -1.5928  2.7828 -2.2238
  394MOL0     H51978   4.323   9.656   2.795  0.4501  3.3823 -1.6264
  394MOL0     H51979   4.389   9.528   2.690 -1.0562 -0.1076  1.3137
  394MOL0     H51980   4.488   9.810   2.743  0.2591 -1.4283  2.3479
  394MOL0     H51981   4.551   9.708   2.615  2.3118  0.1874  2.3679
  394MOL0     H51982   4.354   9.898   2.568  0.2916  0.4901 -3.2128
  394MOL0     H51983   4.251   9.776   2.597  0.9675  1.4904  0.3650
  394MOL0     H51984   4.494   9.768   2.403  0.0381  2.2325 -0.7378
  394MOL0     H51985   4.331   9.812   2.363  0.9638  1.5945  0.6889
  394MOL0     H51986   4.426   9.525   2.450 -0.1866 -1.0115 -0.4992
  394MOL0     H51987   4.254   9.555   2.433  0.0962 -1.2556 -3.3732
  394MOL0     H51988   4.465   9.582   2.219 -0.5512  0.3945 -0.1690
  394MOL0     H51989   4.301   9.625   2.193 -3.8291 -1.1480  2.7426
  394MOL0     H51990   4.381   9.245   3.031  0.2732 -0.3370 -2.6614
  394MOL0     H51991   4.361   9.011   3.125  0.2603 -1.9756 -2.7543
  394MOL0     H51992   4.754   8.534   2.963  2.7395  2.6473  0.5634
  394MOL0     H51993   4.771   8.322   3.050  1.2227  0.2693  0.8869
  394MOL0     H51994   5.230   7.247   2.501  0.8876 -1.6555  0.1492
  394MOL0     H51995   5.366   7.354   2.322 -0.1757  0.9513  0.4833
  394MOL0     H51996   5.557   7.780   2.162  1.1334 -0.2741  0.3603
  394MOL0     H51997   5.716   7.904   2.050 -1.3301  0.2687  0.5138
  394MOL0     H51998   5.992   7.959   2.149 -0.8379  2.2481  0.6846
  394MOL0     H51999   5.886   8.011   2.010 -1.3645 -3.9462 -0.9793
  394MOL0     H52000   6.120   8.139   2.031 -4.8807 -1.8777  2.1680
  394MOL0     H52001   6.200   7.986   1.994 -0.8409 -0.5351 -0.5540
  394MOL0     H52002   6.002   8.131   1.815 -1.1910 -0.9869 -1.1228
  394MOL0     H52003   6.059   7.969   1.791 -4.4070  1.9879  0.2591
  394MOL0     H52004   6.224   8.231   1.798  1.0659 -0.2886  2.3628
  394MOL0     H52005   6.304   8.077   1.785 -0.3136  0.6807  3.3684
  394MOL0     H52006   6.110   8.133   1.409 -1.7984  3.6261  2.2188
  394MOL0     H52007   6.000   7.568   2.084  1.3186 -0.6115  2.3567
  394MOL0     H52008   5.835   7.460   2.238  1.2772  3.0303  1.2947
  395MOL0     O52009   2.132   3.956   8.491  1.0944 -0.5353  0.2416
  395MOL0     C52010   2.185   4.016   8.579 -0.4025 -0.5106  0.0668
  395MOL0     O52011   2.219   4.148   8.582  0.1498  0.1646 -1.3099
  395MOL0     C52012   2.202   4.209   8.461  0.0708  0.5323  0.2496
  395MOL0     C52013   2.096   4.302   8.468 -0.8881  0.1996 -0.1265
  395MOL0     C52014   2.050   4.363   8.351  0.8332 -0.0329  0.5752
  395MOL0     C52015   2.113   4.337   8.222 -0.3632  0.1653 -1.0079
  395MOL0     O52016   2.060   4.401   8.109 -0.5094  0.8610 -0.5954
  395MOL0     C52017   2.113   4.359   7.983  0.2028  0.8549  0.3946
  395MOL0     C52018   2.035   4.430   7.878  0.0861 -0.5592  0.0713
  395MOL0     C52019   2.069   4.382   7.739  0.4099 -0.1427  0.0212
  395MOL0     C52020   2.017   4.490   7.639  0.7844 -0.9838 -1.0450
  395MOL0     C52021   2.063   4.470   7.490 -0.0777  0.1032  0.2966
  395MOL0     C52022   2.220   4.439   7.481 -0.1452 -0.1405 -0.0080
  395MOL0     C52023   2.280   4.413   7.344  0.0446  0.0989  0.0118
  395MOL0     C52024   2.282   4.534   7.250 -1.0667 -0.0614  0.0210
  395MOL0     N52025   2.162   4.530   7.163 -0.7246  0.3160 -0.4557
  395MOL0     C52026   2.147   4.429   7.075  0.4885 -0.2584  0.1486
  395MOL0     C52027   2.051   4.483   6.990  0.2382  0.2086 -0.0740
  395MOL0     C52028   2.010   4.431   6.862 -0.4565 -0.1204  0.3213
  395MOL0     C52029   1.852   4.419   6.861  0.0390 -0.2978 -0.8246
  395MOL0     C52030   1.800   4.349   6.742  0.3084  0.4981  1.6730
  395MOL0     C52031   1.652   4.306   6.759 -0.1435  0.0591 -0.8991
  395MOL0     O52032   1.599   4.243   6.646 -0.6646 -1.5416 -0.1079
  395MOL0     C52033   1.463   4.214   6.652  0.0561 -0.2077 -0.2051
  395MOL0     C52034   1.403   4.174   6.537 -0.1270  0.1036 -0.4657
  395MOL0     C52035   1.276   4.136   6.528  0.6744 -0.6166 -0.4347
  395MOL0     C52036   1.192   4.133   6.637 -1.0147  1.0251 -0.3952
  395MOL0     C52037   1.046   4.091   6.625 -0.1730 -0.1342 -0.4601
  395MOL0     O52038   0.994   4.106   6.502 -0.3294 -0.5278 -0.0708
  395MOL0     C52039   0.885   4.035   6.461 -0.4734 -0.6350 -0.2007
  395MOL0     C52040   0.781   4.098   6.384 -0.2975 -0.0448  0.1592
  395MOL0     C52041   0.660   4.048   6.352  0.1139  0.1535  0.2124
  395MOL0     C52042   0.634   3.923   6.404 -0.1909  0.3380 -0.2864
  395MOL0     O52043   0.513   3.855   6.370  0.1249 -0.7923 -0.2231
  395MOL0     C52044   0.383   3.923   6.412  0.5662 -0.7813  0.4038
  395MOL0     C52045   0.260   3.833   6.365  0.3041 -0.1437  0.0898
  395MOL0     C52046   0.287   3.688   6.357  0.0068 -0.5371 -0.1596
  395MOL0     C52047   0.268   3.628   6.491  0.1164 -0.3239  0.3604
  395MOL0     C52048   0.302   3.480   6.461  0.5829  0.6807 -1.1024
  395MOL0     C52049   0.193   3.399   6.386 -0.0501  1.3326 -0.6824
  395MOL0     C52050   0.264   3.296   6.312 -0.8929 -0.0235  0.0803
  395MOL0     C52051   0.321   3.327   6.183  0.0934  0.0852  0.5354
  395MOL0    Cl52052   0.494   3.380   6.194  0.0848 -0.0768 -0.4827
  395MOL0     C52053   0.729   3.853   6.478  0.7805  0.3383  0.7700
  395MOL0     C52054   0.857   3.899   6.504 -0.0277  0.3479  0.5964
  395MOL0     O52055   0.992   4.045   6.723  0.1525  0.2928 -0.3754
  395MOL0     C52056   1.245   4.186   6.756 -0.5405  0.5855  0.1845
  395MOL0     C52057   1.379   4.226   6.768  0.5397  0.2997 -0.0662
  395MOL0     N52058   2.001   4.599   7.042 -0.5342  0.1825 -0.7601
  395MOL0     N52059   2.067   4.623   7.152  0.0654 -0.1505 -0.5593
  395MOL0     C52060   2.228   4.258   8.231 -0.5045 -0.3630  0.5368
  395MOL0     C52061   2.278   4.193   8.342 -1.1593 -0.6291 -0.1792
  395MOL0     C52062   2.202   3.941   8.710  0.5178 -0.0926  0.7762
  395MOL0     C52063   2.283   3.981   8.821  0.1360  0.2519 -0.1781
  395MOL0     C52064   2.299   3.905   8.937  0.7746 -0.2062  0.7825
  395MOL0     C52065   2.207   3.803   8.962  0.2695  0.4404  0.2847
  395MOL0     O52066   2.227   3.717   9.069  0.1960 -0.1408 -0.2174
  395MOL0     C52067   2.118   3.643   9.124 -0.0461  0.4334 -0.0419
  395MOL0     C52068   2.118   3.500   9.070 -0.3568 -0.2426  0.4148
  395MOL0     C52069   1.980   3.439   9.077  0.4838  0.1208  0.4526
  395MOL0     C52070   1.982   3.305   9.006  0.3198 -0.9778 -0.1987
  395MOL0     C52071   2.065   3.203   9.067 -0.5181  0.0163  0.8237
  395MOL0     C52072   2.127   3.121   9.129 -0.7796  0.3329 -0.3329
  395MOL0     C52073   2.125   3.767   8.859  0.2366  0.0216 -0.0076
  395MOL0     C52074   2.130   3.824   8.731  0.6921 -0.7139 -0.5663
  395MOL0     H52075   2.053   4.330   8.564 -2.5942 -0.8442 -0.5555
  395MOL0     H52076   1.962   4.425   8.344 -0.2571 -1.6246 -0.5523
  395MOL0     H52077   2.111   4.251   7.965 -1.1784  0.6975  1.3412
  395MOL0     H52078   2.220   4.379   7.969 -0.2263  1.8024 -2.0381
  395MOL0     H52079   2.071   4.533   7.886  0.7185 -0.9013  2.3488
  395MOL0     H52080   1.929   4.433   7.908  0.4092  1.4040  1.2075
  395MOL0     H52081   2.026   4.283   7.725 -0.6855  0.2746  0.3499
  395MOL0     H52082   2.178   4.372   7.744  0.5604  1.4775  0.9371
  395MOL0     H52083   1.908   4.484   7.636  0.6262 -2.0214  2.3116
  395MOL0     H52084   2.051   4.587   7.676  0.9802 -1.5934  0.4696
  395MOL0     H52085   2.027   4.555   7.430 -1.2945 -0.7580 -0.2337
  395MOL0     H52086   2.013   4.386   7.443  1.6082 -0.3495 -0.7628
  395MOL0     H52087   2.238   4.347   7.538 -3.4759 -2.2591 -2.0360
  395MOL0     H52088   2.276   4.516   7.535  0.4292  2.5352 -3.9604
  395MOL0     H52089   2.377   4.364   7.354 -0.2591 -0.5240 -0.0421
  395MOL0     H52090   2.206   4.341   7.306  1.8495 -2.4882  1.0605
  395MOL0     H52091   2.358   4.536   7.172 -0.7076  3.6544  0.2571
  395MOL0     H52092   2.301   4.629   7.301  1.3296  0.4256 -1.5916
  395MOL0     H52093   2.196   4.336   7.049  0.1232  0.1916 -2.3510
  395MOL0     H52094   2.063   4.336   6.847 -4.3535 -2.3551 -0.4875
  395MOL0     H52095   2.049   4.502   6.788  0.6391  0.9508  1.8491
  395MOL0     H52096   1.807   4.518   6.870  1.7296  0.8104 -3.3085
  395MOL0     H52097   1.815   4.364   6.949  0.5622 -0.1475 -0.5054
  395MOL0     H52098   1.810   4.409   6.651  1.5375 -4.0350 -1.5327
  395MOL0     H52099   1.859   4.259   6.718 -0.5215 -0.0009  1.4658
  395MOL0     H52100   1.603   4.395   6.799  1.5826 -0.0525  1.7088
  395MOL0     H52101   1.650   4.242   6.847 -3.8064  2.6772  1.1890
  395MOL0     H52102   1.473   4.164   6.455 -0.5714 -3.2050 -0.5889
  395MOL0     H52103   1.237   4.091   6.437 -0.7879 -1.7377  0.7050
  395MOL0     H52104   0.804   4.196   6.344  0.1754 -0.2490 -0.0821
  395MOL0     H52105   0.585   4.105   6.297  2.4184  5.0235  1.5594
  395MOL0     H52106   0.375   4.021   6.365 -1.2511 -1.5185 -1.0077
  395MOL0     H52107   0.372   3.937   6.520  2.6087  1.1197  0.4137
  395MOL0     H52108   0.237   3.878   6.268 -2.9255 -0.9224  0.3813
  395MOL0     H52109   0.166   3.842   6.421  0.0200 -0.1699 -0.3748
  395MOL0     H52110   0.378   3.654   6.307 -0.4214 -0.1295 -1.2362
  395MOL0     H52111   0.222   3.638   6.285  2.1496 -1.0128 -1.8809
  395MOL0     H52112   0.351   3.661   6.555  1.4382 -2.1621 -0.3318
  395MOL0     H52113   0.175   3.637   6.548  1.6389 -0.0875  2.9667
  395MOL0     H52114   0.329   3.434   6.556 -2.0589  0.7251 -0.2580
  395MOL0     H52115   0.397   3.474   6.407  1.3857  0.9189  0.2407
  395MOL0     H52116   0.131   3.463   6.323 -1.4472 -0.0359 -0.7590
  395MOL0     H52117   0.125   3.349   6.455  0.4417  1.5683 -0.0198
  395MOL0     H52118   0.331   3.237   6.375 -0.2872 -1.7420 -2.0476
  395MOL0     H52119   0.194   3.224   6.268  1.6204 -1.7394 -1.3585
  395MOL0     H52120   0.264   3.401   6.127  1.3646  0.3263 -0.4938
  395MOL0     H52121   0.344   3.240   6.121  0.6926  2.0924 -2.2837
  395MOL0     H52122   0.704   3.750   6.501 -2.0831  1.0786  1.2909
  395MOL0     H52123   0.931   3.835   6.551 -1.4625 -3.2419 -1.6138
  395MOL0     H52124   1.183   4.178   6.845 -0.5282  1.0105  0.2346
  395MOL0     H52125   1.416   4.258   6.865  0.6572  0.1006 -0.0439
  395MOL0     H52126   2.270   4.230   8.134 -3.5088  1.5397 -1.4487
  395MOL0     H52127   2.362   4.124   8.338 -2.4537 -2.2989  0.2918
  395MOL0     H52128   2.351   4.066   8.817 -0.2849  0.6212  0.2890
  395MOL0     H52129   2.361   3.945   9.016  0.8683  2.1625 -0.4261
  395MOL0     H52130   2.021   3.694   9.116  1.0551  2.6208 -0.2406
  395MOL0     H52131   2.130   3.628   9.232 -0.7662 -2.1685 -0.2585
  395MOL0     H52132   2.155   3.513   8.968 -1.7027 -1.4920 -0.2659
  395MOL0     H52133   2.198   3.446   9.122  0.5722  0.8049  0.0927
  395MOL0     H52134   1.904   3.509   9.038 -0.5029 -1.4372 -0.5129
  395MOL0     H52135   1.947   3.437   9.181 -3.3774 -1.1505 -0.6058
  395MOL0     H52136   1.879   3.268   9.010 -0.4034  1.0192  2.1092
  395MOL0     H52137   2.013   3.321   8.903  1.5098 -1.3898  0.0804
  395MOL0     H52138   2.181   3.041   9.175 -2.7430 -2.0134 -1.8615
  395MOL0     H52139   2.053   3.687   8.873 -2.7027  2.4778 -0.0003
  395MOL0     H52140   2.061   3.789   8.654  1.0928 -2.5035 -0.1537
  396MOL0     O52141   6.751   2.557   0.574 -0.7640 -0.8003 -0.4351
  396MOL0     C52142   6.766   2.438   0.545  0.0592  0.2483  0.3862
  396MOL0     O52143   6.863   2.395   0.469 -1.0422  0.9101  0.8790
  396MOL0     C52144   6.962   2.482   0.438  1.6647 -0.1729  0.7155
  396MOL0     C52145   7.093   2.460   0.471 -0.2680  0.1185  0.7007
  396MOL0     C52146   7.194   2.550   0.426 -0.1578  0.3191 -0.0813
  396MOL0     C52147   7.155   2.662   0.349 -0.9642 -0.1132 -0.4803
  396MOL0     O52148   7.258   2.739   0.295  0.3491 -0.3378 -0.2735
  396MOL0     C52149   7.229   2.876   0.259 -0.1992 -0.1992  0.2480
  396MOL0     C52150   7.365   2.934   0.218 -0.1021  0.5159 -0.4574
  396MOL0     C52151   7.364   3.084   0.180 -0.0375  0.3445  0.1535
  396MOL0     C52152   7.493   3.145   0.145 -0.3196 -0.0705  0.6381
  396MOL0     C52153   7.560   3.202   0.273 -0.1679 -0.0529  0.3324
  396MOL0     C52154   7.712   3.195   0.253  0.2167  0.9243 -0.3581
  396MOL0     C52155   7.755   3.301   0.166 -0.3912 -0.3640  0.0908
  396MOL0     C52156   7.911   3.307   0.182  0.2376  0.0078 -0.0132
  396MOL0     N52157   7.959   3.352   0.309  0.9549  0.0829  0.7380
  396MOL0     C52158   8.031   3.269   0.383 -0.8843  0.4630 -0.1908
  396MOL0     C52159   8.089   3.337   0.481  0.5131  1.3339 -0.6940
  396MOL0     C52160   8.177   3.273   0.594  0.0601 -0.3568  0.0290
  396MOL0     C52161   8.096   3.224   0.713  0.0795  0.4232  0.3063
  396MOL0     C52162   8.160   3.089   0.764  1.1265 -0.8251 -0.0190
  396MOL0     C52163   8.113   3.069   0.908  0.1062  1.0647 -1.0066
  396MOL0     O52164   8.172   3.134   1.019 -0.2968 -0.2097  0.0404
  396MOL0     C52165   8.134   3.110   1.156  0.4859  0.2706  0.1851
  396MOL0     C52166   8.044   3.002   1.196 -0.2083  0.0083  0.8738
  396MOL0     C52167   8.010   2.990   1.328  0.1764 -0.7216 -0.4152
  396MOL0     C52168   8.060   3.085   1.424 -0.5882 -1.0776 -0.3329
  396MOL0     C52169   8.021   3.061   1.565  0.5416  0.8286 -0.5350
  396MOL0     O52170   7.932   2.967   1.592 -0.1408 -0.2374  0.4840
  396MOL0     C52171   7.852   2.953   1.708  0.2784  0.3491 -0.3782
  396MOL0     C52172   7.821   3.062   1.792 -0.3059  0.0945  0.3473
  396MOL0     C52173   7.759   3.049   1.914  0.3728  0.1784 -0.6683
  396MOL0     C52174   7.708   2.926   1.958 -0.5077 -0.1692 -0.4012
  396MOL0     O52175   7.646   2.923   2.082  0.5350 -0.1116  0.1677
  396MOL0     C52176   7.604   2.794   2.137  0.2305 -0.7422  0.0993
  396MOL0     C52177   7.723   2.731   2.196  0.3264  0.5211 -0.4403
  396MOL0     C52178   7.681   2.583   2.225 -1.0541  0.6211 -0.2795
  396MOL0     C52179   7.767   2.520   2.334 -0.1041  0.9002  0.0643
  396MOL0     C52180   7.735   2.372   2.362  0.2941 -0.6623  0.1171
  396MOL0     C52181   7.611   2.349   2.439 -0.0250 -0.0168  0.0054
  396MOL0     C52182   7.561   2.205   2.448 -0.9989  0.1669  0.5490
  396MOL0     C52183   7.463   2.182   2.563 -0.0047  0.2098 -0.9256
  396MOL0    Cl52184   7.311   2.260   2.515 -0.3663 -0.2701 -0.1541
  396MOL0     C52185   7.731   2.817   1.874  0.2246 -0.8230 -0.0509
  396MOL0     C52186   7.797   2.831   1.743  0.7991  0.7820 -0.8678
  396MOL0     O52187   8.079   3.122   1.653 -0.0424 -0.1589 -0.0113
  396MOL0     C52188   8.154   3.184   1.385  0.3098 -0.7123 -0.5084
  396MOL0     C52189   8.184   3.193   1.255  0.0610 -0.5080 -0.9320
  396MOL0     N52190   8.031   3.464   0.464 -0.1528 -0.5196 -0.1104
  396MOL0     N52191   7.959   3.475   0.360 -0.5567  0.0959 -1.0046
  396MOL0     C52192   7.019   2.689   0.330  0.5829 -0.5912  0.2010
  396MOL0     C52193   6.926   2.595   0.372  0.5336 -0.3784  0.0028
  396MOL0     C52194   6.678   2.344   0.624  0.1505  0.6104  0.0413
  396MOL0     C52195   6.553   2.379   0.681  0.0118  0.1431  0.2031
  396MOL0     C52196   6.481   2.293   0.759  0.2376 -0.0186 -0.0551
  396MOL0     C52197   6.528   2.165   0.791  0.0039  0.1173 -1.1053
  396MOL0     O52198   6.464   2.076   0.881  0.1033  0.0028  0.1568
  396MOL0     C52199   6.330   2.108   0.921  0.2098  0.5645 -0.3322
  396MOL0     C52200   6.262   2.003   1.017  0.0662 -1.1895  0.0007
  396MOL0     C52201   6.118   2.046   1.041 -0.1857 -0.3219 -0.5639
  396MOL0     C52202   6.094   2.154   1.143 -0.3660  0.1522  0.4470
  396MOL0     C52203   5.959   2.195   1.146 -0.1212 -1.2501 -0.2502
  396MOL0     C52204   5.855   2.252   1.169 -0.2973 -0.2729  1.0066
  396MOL0     C52205   6.656   2.127   0.741 -0.9149 -0.8422  0.6188
  396MOL0     C52206   6.731   2.216   0.658  0.4601 -0.2797  0.0600
  396MOL0     H52207   7.120   2.384   0.543 -2.3348 -0.8539  0.5300
  396MOL0     H52208   7.300   2.527   0.437  0.5639  1.6131 -3.3104
  396MOL0     H52209   7.183   2.926   0.344  2.5299  3.1357  0.0099
  396MOL0     H52210   7.169   2.882   0.168  2.3149 -0.3990 -1.5453
  396MOL0     H52211   7.413   2.876   0.139  0.0848 -1.2840  0.9000
  396MOL0     H52212   7.426   2.912   0.306 -0.6992  1.5266  0.2389
  396MOL0     H52213   7.316   3.132   0.266  2.6320  0.3167  1.7543
  396MOL0     H52214   7.297   3.104   0.095 -0.3857  2.5714  0.8894
  396MOL0     H52215   7.556   3.066   0.103 -1.6409 -0.5733 -0.4882
  396MOL0     H52216   7.464   3.228   0.079 -0.6915 -0.2545  0.5614
  396MOL0     H52217   7.535   3.132   0.354 -2.5833 -0.1405 -0.4057
  396MOL0     H52218   7.520   3.299   0.301 -1.6892 -0.7132  0.5509
  396MOL0     H52219   7.742   3.101   0.205 -0.3484 -0.0390  1.1175
  396MOL0     H52220   7.759   3.201   0.352  1.4458  1.3045 -0.9453
  396MOL0     H52221   7.738   3.277   0.060  0.9644 -5.0887  0.7046
  396MOL0     H52222   7.708   3.390   0.207  0.8133 -0.4364  1.7419
  396MOL0     H52223   7.959   3.373   0.109  0.0790  0.2027  0.0599
  396MOL0     H52224   7.947   3.205   0.162  1.4889  1.0576 -4.1346
  396MOL0     H52225   8.024   3.162   0.369 -2.0153  0.8630 -3.6398
  396MOL0     H52226   8.243   3.357   0.617 -0.7069 -0.2616  2.0891
  396MOL0     H52227   8.244   3.198   0.550 -0.3804 -0.1172 -1.0689
  396MOL0     H52228   7.998   3.191   0.678  0.7928 -2.4863  0.7713
  396MOL0     H52229   8.083   3.300   0.790 -1.6873 -1.5199  2.0379
  396MOL0     H52230   8.137   3.003   0.700 -1.6968 -1.2174  1.3508
  396MOL0     H52231   8.267   3.103   0.750  0.5078  3.9044 -1.8210
  396MOL0     H52232   8.117   2.962   0.932  0.4333  1.7278  2.5178
  396MOL0     H52233   8.009   3.099   0.923  0.0487  0.6082 -0.4331
  396MOL0     H52234   8.004   2.932   1.124 -1.6393  0.1949  1.4570
  396MOL0     H52235   7.954   2.900   1.349 -2.1356  0.8090  0.3386
  396MOL0     H52236   7.862   3.159   1.766  1.8259 -0.5476  1.0500
  396MOL0     H52237   7.738   3.140   1.969 -0.7368  0.5952 -1.7349
  396MOL0     H52238   7.557   2.734   2.059 -1.4325  1.9783 -1.1323
  396MOL0     H52239   7.526   2.816   2.210  2.2743  1.4061  1.8004
  396MOL0     H52240   7.754   2.789   2.284  0.8652  0.0853 -0.3358
  396MOL0     H52241   7.812   2.731   2.133  1.6567  2.1688  1.2822
  396MOL0     H52242   7.709   2.527   2.135 -3.2571  1.3685 -1.4905
  396MOL0     H52243   7.576   2.571   2.252 -1.2266  0.0181 -1.1559
  396MOL0     H52244   7.874   2.519   2.311 -0.0158 -4.2065 -0.6275
  396MOL0     H52245   7.759   2.578   2.426 -0.0062  0.4293  0.3756
  396MOL0     H52246   7.817   2.317   2.409  1.4495  1.2704  0.5065
  396MOL0     H52247   7.718   2.323   2.265  3.2743 -0.7909 -0.4553
  396MOL0     H52248   7.529   2.412   2.404  1.2460 -0.0840 -3.4159
  396MOL0     H52249   7.642   2.372   2.542  0.4092 -0.0358 -0.1194
  396MOL0     H52250   7.513   2.175   2.355  2.9854 -2.1173 -1.0018
  396MOL0     H52251   7.644   2.135   2.462  0.8024  2.3097  1.2107
  396MOL0     H52252   7.492   2.230   2.658 -1.7670 -2.4383  1.0979
  396MOL0     H52253   7.454   2.074   2.574 -2.9317  0.3818 -0.8893
  396MOL0     H52254   7.694   2.717   1.893  1.3955 -2.0916 -3.5126
  396MOL0     H52255   7.818   2.746   1.678  1.2039  1.5078 -1.7168
  396MOL0     H52256   8.199   3.243   1.465 -2.3981  0.7805  0.0342
  396MOL0     H52257   8.250   3.271   1.218 -1.8111  1.5389 -0.1748
  396MOL0     H52258   6.990   2.780   0.278  0.9836 -0.3853  0.3313
  396MOL0     H52259   6.826   2.629   0.351  0.8564  1.4014  1.1831
  396MOL0     H52260   6.522   2.483   0.671 -0.9560  0.0209  1.6555
  396MOL0     H52261   6.379   2.325   0.776 -0.0401  1.1341 -3.3277
  396MOL0     H52262   6.276   2.116   0.826  2.7841 -2.5396 -2.2889
  396MOL0     H52263   6.327   2.205   0.970 -3.7325  1.8265 -2.6698
  396MOL0     H52264   6.261   1.911   0.957 -1.1298  0.0729 -2.0181
  396MOL0     H52265   6.314   1.999   1.114 -2.7646 -0.4653  1.6529
  396MOL0     H52266   6.073   1.961   1.093  1.3982  1.1625  3.7147
  396MOL0     H52267   6.075   2.057   0.941  1.1773  0.3101 -1.0989
  396MOL0     H52268   6.136   2.120   1.238  4.4280  3.5052 -0.1067
  396MOL0     H52269   6.155   2.239   1.113  1.6393 -1.8467 -1.4877
  396MOL0     H52270   5.768   2.314   1.175  0.6871  1.0033  3.8595
  396MOL0     H52271   6.701   2.031   0.764  0.9013  0.0470  0.9125
  396MOL0     H52272   6.824   2.193   0.607  0.8741  0.3007  0.5389
  397MOL0     O52273   8.137   7.722   9.267  0.7367 -0.0619  0.0354
  397MOL0     C52274   8.145   7.786   9.372 -0.0755 -0.3596 -0.1818
  397MOL0     O52275   8.055   7.877   9.418 -0.4009 -0.4511  0.0282
  397MOL0     C52276   7.966   7.940   9.333 -0.2420 -0.4446  0.2602
  397MOL0     C52277   7.840   7.913   9.373  0.3930 -0.4138  0.3774
  397MOL0     C52278   7.735   7.973   9.299 -0.4384 -0.3311 -0.8720
  397MOL0     C52279   7.755   8.050   9.178 -1.2745  0.5169  0.5436
  397MOL0     O52280   7.660   8.104   9.083 -0.4074 -0.4554  0.8283
  397MOL0     C52281   7.527   8.044   9.077 -0.3949 -0.1942  1.2492
  397MOL0     C52282   7.452   8.056   8.953  0.6403 -0.0615  0.0439
  397MOL0     C52283   7.316   7.988   8.962 -0.4292  0.0856  0.6033
  397MOL0     C52284   7.231   7.996   8.836 -0.5317 -0.0872 -0.1007
  397MOL0     C52285   7.092   7.931   8.840  0.2007  0.4657  0.0631
  397MOL0     C52286   7.104   7.781   8.889  0.1191  0.7206  0.3649
  397MOL0     C52287   7.173   7.696   8.777  0.4463  0.2550 -0.3485
  397MOL0     C52288   7.135   7.547   8.801 -0.6299  0.4124  0.6733
  397MOL0     N52289   6.994   7.520   8.784 -0.8547 -0.6198  0.4755
  397MOL0     C52290   6.928   7.538   8.668  0.3263  0.3425  0.5015
  397MOL0     C52291   6.809   7.478   8.677 -0.5496 -0.5147 -0.5626
  397MOL0     C52292   6.722   7.443   8.569  0.0675 -0.1502  1.6772
  397MOL0     C52293   6.749   7.301   8.512 -0.0317 -0.0608 -0.1000
  397MOL0     C52294   6.893   7.295   8.448 -0.5367 -0.6062 -0.5377
  397MOL0     C52295   6.910   7.161   8.386 -0.2160 -0.1392 -0.0835
  397MOL0     O52296   6.991   7.162   8.270  0.2329 -0.0967 -0.1992
  397MOL0     C52297   7.123   7.197   8.296 -0.0665 -0.1545  0.1063
  397MOL0     C52298   7.174   7.302   8.217  0.0413  0.7179  0.3466
  397MOL0     C52299   7.298   7.370   8.235 -1.0384 -0.6647 -0.9191
  397MOL0     C52300   7.376   7.325   8.345 -0.3373  0.6973  0.4794
  397MOL0     C52301   7.517   7.386   8.362  0.7439  1.3387  0.0067
  397MOL0     O52302   7.582   7.333   8.474  0.0544  0.9516  0.1174
  397MOL0     C52303   7.722   7.331   8.469 -0.0097 -0.1022 -0.2079
  397MOL0     C52304   7.782   7.245   8.372 -0.9481  0.3470 -1.1850
  397MOL0     C52305   7.925   7.247   8.374 -0.0676  0.1562  0.5724
  397MOL0     C52306   8.000   7.314   8.466 -1.0171  0.1245 -0.8239
  397MOL0     O52307   8.137   7.293   8.458  0.6251  0.3136  0.3031
  397MOL0     C52308   8.214   7.341   8.572 -0.6717  0.3928  0.1053
  397MOL0     C52309   8.357   7.294   8.541  0.5543  0.6969 -0.2982
  397MOL0     C52310   8.420   7.386   8.432 -0.2138 -0.8100  0.1587
  397MOL0     C52311   8.562   7.348   8.404 -0.3016  0.2001 -1.0840
  397MOL0     C52312   8.617   7.424   8.282  0.2855  0.7828 -0.4346
  397MOL0     C52313   8.774   7.419   8.279 -0.5836 -0.1441  0.8354
  397MOL0     C52314   8.818   7.492   8.144 -0.0275 -0.5440  0.2555
  397MOL0     C52315   8.781   7.639   8.113  0.0227  0.7185 -0.0108
  397MOL0    Cl52316   8.851   7.674   7.958  0.0795  0.0704  0.7137
  397MOL0     C52317   7.932   7.386   8.562  1.0231  0.7827  0.1320
  397MOL0     C52318   7.796   7.405   8.562  0.2319  0.3506 -1.4752
  397MOL0     O52319   7.555   7.459   8.277  0.5314 -0.2758  0.2330
  397MOL0     C52320   7.325   7.222   8.436  1.8842 -0.7015  0.2270
  397MOL0     C52321   7.198   7.170   8.409 -0.0469 -0.2734  0.3359
  397MOL0     N52322   6.799   7.426   8.805  0.0677 -0.6813 -0.2525
  397MOL0     N52323   6.919   7.445   8.863  0.3450 -0.1331 -0.1689
  397MOL0     C52324   7.891   8.079   9.151  0.5120  0.8579 -0.3498
  397MOL0     C52325   7.999   8.020   9.217 -0.2025  0.2547  0.1947
  397MOL0     C52326   8.273   7.790   9.446 -0.1105  0.2209  0.0884
  397MOL0     C52327   8.302   7.870   9.558  0.3816 -0.0068  0.2532
  397MOL0     C52328   8.425   7.895   9.610  0.1392 -0.1000 -0.5807
  397MOL0     C52329   8.532   7.808   9.567  0.6463  0.1441  0.7350
  397MOL0     O52330   8.653   7.840   9.635  0.0505 -0.3824  0.7522
  397MOL0     C52331   8.774   7.785   9.596  0.1415  0.6657 -0.4679
  397MOL0     C52332   8.887   7.825   9.687 -0.3906 -0.5133  0.3392
  397MOL0     C52333   8.887   7.979   9.693  0.2597 -0.0969  1.0492
  397MOL0     C52334   9.016   8.027   9.762  0.0685 -0.6422 -1.2932
  397MOL0     C52335   9.000   8.173   9.767  0.1014  1.1915  0.9507
  397MOL0     C52336   8.976   8.289   9.765 -0.1602 -0.0371  0.2585
  397MOL0     C52337   8.514   7.723   9.462 -0.0412  0.6838 -0.3683
  397MOL0     C52338   8.385   7.719   9.398 -0.5766  0.8559  0.3914
  397MOL0     H52339   7.818   7.864   9.467  0.0698  2.0583  1.6705
  397MOL0     H52340   7.635   7.949   9.333 -0.5056 -0.0869 -0.8988
  397MOL0     H52341   7.466   8.094   9.154  0.9581  1.7154  1.1636
  397MOL0     H52342   7.540   7.940   9.107  0.1576 -0.2804  0.7319
  397MOL0     H52343   7.512   8.017   8.870 -0.8242 -0.3907 -0.8920
  397MOL0     H52344   7.426   8.161   8.940 -0.6921 -0.1052  1.9304
  397MOL0     H52345   7.268   8.047   9.041  1.1189 -0.7734  2.2859
  397MOL0     H52346   7.328   7.881   8.981 -1.0541 -0.3284 -1.1617
  397MOL0     H52347   7.212   8.103   8.826 -0.8980 -0.1539 -0.1365
  397MOL0     H52348   7.294   7.962   8.753  1.4749  0.3154  1.1920
  397MOL0     H52349   7.039   7.934   8.744  0.5755 -1.7390 -0.2790
  397MOL0     H52350   7.032   7.986   8.913 -1.6077 -1.2866 -0.0183
  397MOL0     H52351   7.000   7.748   8.896 -0.3225  2.4400  3.4257
  397MOL0     H52352   7.156   7.766   8.983  0.9453 -1.2239 -0.3506
  397MOL0     H52353   7.143   7.726   8.677  2.4232 -1.7521 -1.6494
  397MOL0     H52354   7.281   7.716   8.775  0.1924  1.6298 -1.8756
  397MOL0     H52355   7.168   7.519   8.902  1.7690  2.1483  0.4422
  397MOL0     H52356   7.192   7.487   8.729 -1.6829  2.8496 -2.4220
  397MOL0     H52357   6.971   7.579   8.578 -0.5802 -2.2813 -1.2306
  397MOL0     H52358   6.726   7.521   8.492 -0.2719 -0.8714  0.9175
  397MOL0     H52359   6.617   7.433   8.595 -0.5584  0.7619 -0.2748
  397MOL0     H52360   6.665   7.290   8.444 -2.4944 -2.2559  3.0175
  397MOL0     H52361   6.742   7.228   8.593  1.1494 -0.5803 -0.4453
  397MOL0     H52362   6.900   7.370   8.369 -0.4823  1.4137  1.2865
  397MOL0     H52363   6.969   7.318   8.523  0.7182 -1.3954 -1.5234
  397MOL0     H52364   6.804   7.139   8.365  0.0067  0.6300 -2.1817
  397MOL0     H52365   6.945   7.087   8.459 -2.7207  1.1507  2.6801
  397MOL0     H52366   7.120   7.324   8.125  0.0980 -0.3943  0.0270
  397MOL0     H52367   7.336   7.449   8.172 -1.0927 -0.3764 -0.5906
  397MOL0     H52368   7.728   7.175   8.309  1.5917 -0.3956 -2.6588
  397MOL0     H52369   7.977   7.180   8.306  1.8865  2.3633 -0.2129
  397MOL0     H52370   8.190   7.287   8.664  0.6245  1.1418  0.9159
  397MOL0     H52371   8.199   7.448   8.589 -2.8581 -0.1606  2.2295
  397MOL0     H52372   8.360   7.189   8.511 -0.9679  0.1460  1.2684
  397MOL0     H52373   8.422   7.291   8.629  1.8713  1.0232 -1.2298
  397MOL0     H52374   8.428   7.485   8.477  2.4310 -1.1542  0.5846
  397MOL0     H52375   8.358   7.384   8.341 -0.2888 -6.4187 -0.0278
  397MOL0     H52376   8.624   7.383   8.487  0.0137 -1.2349 -0.6945
  397MOL0     H52377   8.577   7.240   8.399 -1.7448 -0.3671  2.9823
  397MOL0     H52378   8.588   7.529   8.273 -1.1427  0.4537  0.0176
  397MOL0     H52379   8.567   7.371   8.200  1.8634  0.3329 -1.1312
  397MOL0     H52380   8.812   7.318   8.265  0.3068  0.0686  1.6449
  397MOL0     H52381   8.816   7.470   8.366 -0.9345 -3.1069  2.8935
  397MOL0     H52382   8.927   7.495   8.138  0.0593  2.6351  1.2959
  397MOL0     H52383   8.767   7.440   8.063 -2.1772  0.2710  1.0090
  397MOL0     H52384   8.824   7.705   8.190 -2.6046 -1.0377  3.2195
  397MOL0     H52385   8.672   7.636   8.106 -0.0507 -0.4336  1.2682
  397MOL0     H52386   7.986   7.439   8.640  0.6949  0.4886  0.5660
  397MOL0     H52387   7.749   7.480   8.626 -0.7849  0.3373 -2.1800
  397MOL0     H52388   7.375   7.189   8.527 -1.5262 -1.5498  1.9735
  397MOL0     H52389   7.167   7.081   8.463  0.7725 -0.4005  0.6034
  397MOL0     H52390   7.908   8.129   9.056  3.6789  0.9931  0.1742
  397MOL0     H52391   8.102   8.034   9.186 -0.2002 -1.5300 -0.7156
  397MOL0     H52392   8.222   7.938   9.586  1.0007  1.4793 -1.3842
  397MOL0     H52393   8.441   7.966   9.691  0.8440 -0.4725 -0.3809
  397MOL0     H52394   8.788   7.834   9.499  1.3502 -2.3796 -1.9520
  397MOL0     H52395   8.773   7.677   9.581 -0.4986  0.6506 -0.3344
  397MOL0     H52396   8.886   7.780   9.787  2.4202  0.0373  0.6806
  397MOL0     H52397   8.980   7.791   9.640  0.9845  2.0561  1.0441
  397MOL0     H52398   8.794   8.018   9.736  0.7957  2.6399 -0.0703
  397MOL0     H52399   8.896   8.015   9.590  0.7747  0.3283  1.2422
  397MOL0     H52400   9.030   7.992   9.864 -2.6649 -1.8325 -1.2567
  397MOL0     H52401   9.097   7.997   9.694 -0.8418  2.5940 -4.1323
  397MOL0     H52402   8.958   8.393   9.779 -1.5588 -0.2661  0.3217
  397MOL0     H52403   8.604   7.678   9.422  0.9278  2.7960 -0.6801
  397MOL0     H52404   8.372   7.657   9.311 -1.0507 -0.4725  1.3757
  398MOL0     O52405   5.206   2.051   6.754 -0.3128  0.0561 -0.0161
  398MOL0     C52406   5.229   1.990   6.655 -0.1212 -0.1477 -0.9813
  398MOL0     O52407   5.136   1.943   6.570  0.6507 -0.1864  0.4443
  398MOL0     C52408   5.004   1.965   6.596  0.4810  0.1038 -1.7849
  398MOL0     C52409   4.946   2.100   6.592 -0.3570  0.6005  1.0401
  398MOL0     C52410   4.803   2.114   6.615 -0.2440 -0.6827  0.2302
  398MOL0     C52411   4.725   2.007   6.645 -0.1682 -0.2542 -0.7308
  398MOL0     O52412   4.588   2.016   6.659  0.7858  1.1925 -0.2214
  398MOL0     C52413   4.536   1.987   6.792 -0.2050 -0.6536  0.8748
  398MOL0     C52414   4.418   1.884   6.802  0.0175  0.3613  0.0594
  398MOL0     C52415   4.461   1.749   6.853 -0.0589 -0.4928 -0.6691
  398MOL0     C52416   4.335   1.648   6.868  0.0324 -0.2361 -0.3705
  398MOL0     C52417   4.363   1.507   6.902 -0.3725 -0.2502  0.4012
  398MOL0     C52418   4.387   1.479   7.048  0.2935  0.6684  0.1733
  398MOL0     C52419   4.453   1.344   7.076  0.7277 -0.1232  0.5477
  398MOL0     C52420   4.509   1.325   7.216  0.1288 -0.2699  0.3498
  398MOL0     N52421   4.598   1.439   7.242  0.1973  0.1127  0.3105
  398MOL0     C52422   4.702   1.492   7.167  1.1800  0.1546  0.0310
  398MOL0     C52423   4.749   1.604   7.233 -0.5717 -0.0243 -0.3631
  398MOL0     C52424   4.868   1.694   7.185 -0.1405  0.3528  0.6254
  398MOL0     C52425   4.850   1.751   7.038 -0.3161  0.5888 -0.6674
  398MOL0     C52426   4.943   1.860   6.991  0.6918 -1.0348  0.5728
  398MOL0     C52427   5.085   1.821   6.994  0.1084  0.5404 -0.8006
  398MOL0     O52428   5.114   1.718   6.897  0.4671  0.3659 -0.8262
  398MOL0     C52429   5.244   1.693   6.864 -0.5300  0.3587 -0.2164
  398MOL0     C52430   5.345   1.741   6.943  0.7843 -0.6746 -0.1194
  398MOL0     C52431   5.472   1.697   6.911  0.2002 -0.5153  0.1960
  398MOL0     C52432   5.501   1.607   6.803  0.8155 -0.4332  0.7286
  398MOL0     C52433   5.641   1.573   6.756  0.8812 -0.1841 -0.2311
  398MOL0     O52434   5.653   1.482   6.652 -0.6039 -0.1452  0.7607
  398MOL0     C52435   5.769   1.468   6.585 -1.1162  0.3587  0.9363
  398MOL0     C52436   5.761   1.475   6.444  0.2020 -0.3971  1.4646
  398MOL0     C52437   5.868   1.470   6.362  0.9741  0.1200  0.4532
  398MOL0     C52438   5.994   1.463   6.427 -0.1026  0.4344  0.5596
  398MOL0     O52439   6.106   1.461   6.349 -0.3488  0.3721 -0.4339
  398MOL0     C52440   6.232   1.498   6.405  0.0950 -0.3585 -0.1699
  398MOL0     C52441   6.330   1.528   6.293 -0.3042  0.1366  0.3653
  398MOL0     C52442   6.444   1.433   6.295 -0.1003  0.4449  0.2163
  398MOL0     C52443   6.579   1.494   6.242  0.1364  1.1148  0.7550
  398MOL0     C52444   6.658   1.409   6.150  0.1219  0.5414  0.3665
  398MOL0     C52445   6.717   1.287   6.213 -0.0191  0.8683 -0.3819
  398MOL0     C52446   6.843   1.245   6.150 -0.3223 -0.3930 -1.0982
  398MOL0     C52447   6.854   1.091   6.134 -0.5235  0.4325 -0.1356
  398MOL0    Cl52448   7.000   1.074   6.034 -0.1321 -0.1764 -0.0313
  398MOL0     C52449   6.006   1.452   6.573 -0.0954 -0.5514  0.1670
  398MOL0     C52450   5.890   1.458   6.648 -0.6111 -0.6042 -0.2177
  398MOL0     O52451   5.730   1.622   6.827  0.0580  0.1456  0.0067
  398MOL0     C52452   5.393   1.566   6.726  0.9309 -0.7393 -0.1796
  398MOL0     C52453   5.260   1.597   6.760  0.4763  0.0186  0.4485
  398MOL0     N52454   4.665   1.617   7.345 -0.0665  0.4763 -0.0973
  398MOL0     N52455   4.575   1.526   7.347  0.2539  0.4531  0.6859
  398MOL0     C52456   4.783   1.880   6.655 -1.0892 -0.0672 -0.1460
  398MOL0     C52457   4.919   1.851   6.625 -0.6344 -0.8256 -0.3932
  398MOL0     C52458   5.371   1.954   6.637  0.2928  0.0035 -1.3466
  398MOL0     C52459   5.409   1.855   6.542 -0.1303  0.0423  0.4313
  398MOL0     C52460   5.548   1.824   6.530  0.3081  0.5943 -0.6347
  398MOL0     C52461   5.648   1.887   6.603 -0.8234  0.8341 -0.6688
  398MOL0     O52462   5.782   1.853   6.573  0.7193  0.2758  1.0879
  398MOL0     C52463   5.884   1.905   6.670 -0.7729  0.3955 -0.3211
  398MOL0     C52464   6.018   1.859   6.621  0.2505 -0.3255 -0.6926
  398MOL0     C52465   6.120   1.923   6.719 -0.0127  0.2687 -0.0174
  398MOL0     C52466   6.251   1.874   6.665  0.3159 -0.2990 -0.1953
  398MOL0     C52467   6.277   1.737   6.708 -0.0759  0.0226 -0.0321
  398MOL0     C52468   6.310   1.622   6.737 -0.0395 -0.4011  0.0866
  398MOL0     C52469   5.609   1.986   6.698  0.8830  0.5901 -0.5357
  398MOL0     C52470   5.469   2.007   6.719 -0.6801  0.6451  0.0075
  398MOL0     H52471   5.013   2.183   6.573 -0.7169  0.0497 -4.1663
  398MOL0     H52472   4.756   2.209   6.590 -1.2873 -1.7933 -2.3669
  398MOL0     H52473   4.491   2.080   6.827 -1.1997 -0.6619 -0.3121
  398MOL0     H52474   4.622   1.980   6.858  0.7523  2.0980  0.0551
  398MOL0     H52475   4.361   1.882   6.708  0.3364  0.5947 -0.1455
  398MOL0     H52476   4.349   1.924   6.876 -0.3867  0.7213 -0.5076
  398MOL0     H52477   4.515   1.753   6.948 -1.2307 -1.9801  0.0993
  398MOL0     H52478   4.532   1.717   6.776 -1.1604  0.3058 -2.0728
  398MOL0     H52479   4.264   1.694   6.937 -0.1654  4.5930 -3.2959
  398MOL0     H52480   4.294   1.642   6.767  1.5144 -3.5507 -0.9196
  398MOL0     H52481   4.455   1.470   6.854 -0.4857  0.4386 -0.3544
  398MOL0     H52482   4.278   1.445   6.873 -1.8501  1.7363  0.3101
  398MOL0     H52483   4.293   1.483   7.104  0.5465  1.8083  0.5396
  398MOL0     H52484   4.455   1.555   7.087  0.5796 -0.4060  1.8688
  398MOL0     H52485   4.387   1.262   7.048  2.5758 -0.5695 -3.0508
  398MOL0     H52486   4.536   1.345   7.005 -1.3250  3.3148 -2.1363
  398MOL0     H52487   4.571   1.236   7.226  3.1310  1.7679  1.2528
  398MOL0     H52488   4.425   1.325   7.286  0.1609 -3.5267  0.5377
  398MOL0     H52489   4.739   1.455   7.072 -2.8060  2.1684 -2.6083
  398MOL0     H52490   4.963   1.640   7.190  0.2286  0.5553 -2.2753
  398MOL0     H52491   4.874   1.780   7.252  2.9877  2.8553 -2.4447
  398MOL0     H52492   4.750   1.795   7.029  0.1953  1.9093 -0.2573
  398MOL0     H52493   4.853   1.663   6.974  1.2659  0.0313  0.1108
  398MOL0     H52494   4.926   1.893   6.888  1.7042 -0.0717  0.6934
  398MOL0     H52495   4.936   1.947   7.056  0.1993 -1.1634  0.6937
  398MOL0     H52496   5.105   1.781   7.094 -1.9550 -0.9313 -0.9175
  398MOL0     H52497   5.147   1.909   6.974  2.1114 -0.6000  0.1049
  398MOL0     H52498   5.338   1.815   7.022  0.6434 -0.5165 -0.2803
  398MOL0     H52499   5.565   1.730   6.958  0.2613 -1.2760  0.6214
  398MOL0     H52500   5.658   1.485   6.410  0.2435 -0.1213  1.4199
  398MOL0     H52501   5.857   1.468   6.254  3.5924 -2.0830  0.1066
  398MOL0     H52502   6.264   1.420   6.474 -0.5194 -0.1598  0.3592
  398MOL0     H52503   6.210   1.589   6.463 -3.2901  0.4158 -2.3510
  398MOL0     H52504   6.367   1.629   6.314  1.8058 -0.6244  0.5304
  398MOL0     H52505   6.282   1.525   6.195  0.9482 -0.7117 -0.2562
  398MOL0     H52506   6.417   1.346   6.235 -0.9012 -1.4757  3.1162
  398MOL0     H52507   6.470   1.391   6.393  0.9270  0.2698 -0.1148
  398MOL0     H52508   6.565   1.596   6.207  2.7031  2.4334  3.1866
  398MOL0     H52509   6.648   1.506   6.326  1.9283  3.1470 -0.8727
  398MOL0     H52510   6.747   1.457   6.108  0.8993  1.6770  3.1242
  398MOL0     H52511   6.593   1.379   6.067 -2.2863 -0.2262  2.4153
  398MOL0     H52512   6.646   1.204   6.205 -2.4266  2.1995  3.9564
  398MOL0     H52513   6.738   1.300   6.320  0.0077 -1.2480 -0.0928
  398MOL0     H52514   6.856   1.300   6.056 -1.5943  2.8607  0.4911
  398MOL0     H52515   6.922   1.272   6.220 -2.1854  0.8053  0.6588
  398MOL0     H52516   6.768   1.036   6.098  1.4161 -1.2778 -2.4807
  398MOL0     H52517   6.875   1.061   6.237 -5.8765  1.8538  1.6803
  398MOL0     H52518   6.098   1.448   6.630  0.6071 -0.7301 -0.9532
  398MOL0     H52519   5.899   1.449   6.755  2.9475 -1.8721 -0.4887
  398MOL0     H52520   5.403   1.504   6.638 -1.3946 -1.6651  0.1238
  398MOL0     H52521   5.179   1.551   6.704 -0.5480  0.0011  1.8635
  398MOL0     H52522   4.722   1.797   6.688 -0.4605  0.1167  1.6008
  398MOL0     H52523   4.954   1.748   6.618 -2.9575 -1.5725 -4.8252
  398MOL0     H52524   5.341   1.784   6.496  0.8525  0.0818 -1.1596
  398MOL0     H52525   5.579   1.753   6.453 -0.6137 -1.1263  0.5134
  398MOL0     H52526   5.841   1.855   6.758 -4.1452  2.3410 -0.7179
  398MOL0     H52527   5.873   2.013   6.678 -3.9312  0.3771 -2.6494
  398MOL0     H52528   6.025   1.751   6.603  0.1723 -0.4276 -0.1377
  398MOL0     H52529   6.030   1.892   6.517 -2.5176 -0.7289 -1.2154
  398MOL0     H52530   6.101   1.884   6.819 -0.7755 -1.5763 -0.8328
  398MOL0     H52531   6.114   2.032   6.716  2.4216  0.4597 -0.2191
  398MOL0     H52532   6.256   1.871   6.556  1.5262 -0.1864 -0.1613
  398MOL0     H52533   6.332   1.944   6.690 -1.4580  1.6726  0.3061
  398MOL0     H52534   6.350   1.526   6.762  4.6645 -0.2084 -4.8308
  398MOL0     H52535   5.681   2.048   6.750  1.3437  0.2677 -0.7760
  398MOL0     H52536   5.443   2.079   6.795  0.7682 -0.3111  1.4771
  399MOL0     O52537   0.759   0.550   5.103  0.5790 -0.7465  0.2393
  399MOL0     C52538   0.728   0.667   5.129 -0.4375  0.9728  0.3119
  399MOL0     O52539   0.781   0.774   5.067 -0.8204  0.3610  0.3099
  399MOL0     C52540   0.873   0.751   4.971 -0.9983 -0.0431  0.0763
  399MOL0     C52541   1.005   0.782   4.992 -0.2311  0.0535 -0.6926
  399MOL0     C52542   1.096   0.778   4.880 -0.2392  0.5739 -0.2080
  399MOL0     C52543   1.064   0.747   4.755  0.3613 -0.1213  1.1595
  399MOL0     O52544   1.168   0.752   4.666 -0.1034 -0.6928 -0.5198
  399MOL0     C52545   1.166   0.641   4.570 -0.6254 -0.0989 -0.9504
  399MOL0     C52546   1.283   0.641   4.472 -0.8864 -0.4376  0.2164
  399MOL0     C52547   1.402   0.570   4.530  0.0210 -0.5788 -0.4260
  399MOL0     C52548   1.532   0.578   4.451  1.2057 -0.3599  1.2018
  399MOL0     C52549   1.637   0.496   4.526 -0.4643 -0.1187  0.0847
  399MOL0     C52550   1.756   0.462   4.435  0.4988  0.5394 -0.3102
  399MOL0     C52551   1.885   0.415   4.491  0.1104 -0.4467 -0.1303
  399MOL0     C52552   1.989   0.371   4.386 -0.2333 -0.2835  0.2213
  399MOL0     N52553   2.048   0.468   4.302 -0.7878  0.5434  0.5962
  399MOL0     C52554   2.136   0.576   4.322  0.1440 -0.7084 -0.4626
  399MOL0     C52555   2.148   0.630   4.200 -0.2570  0.3994  0.4463
  399MOL0     C52556   2.219   0.758   4.175 -0.0658  0.2945 -0.1702
  399MOL0     C52557   2.380   0.749   4.193  0.6242 -0.3301  0.8057
  399MOL0     C52558   2.441   0.815   4.321  0.4511  0.9849  0.8381
  399MOL0     C52559   2.585   0.780   4.321 -0.1439  0.0692 -0.5236
  399MOL0     O52560   2.652   0.834   4.203  0.5859  0.2364 -1.0040
  399MOL0     C52561   2.789   0.816   4.186  0.0471  0.1833 -0.9503
  399MOL0     C52562   2.847   0.889   4.078 -0.0683 -0.2280 -0.5035
  399MOL0     C52563   2.987   0.878   4.064  0.1273  0.8776  0.8268
  399MOL0     C52564   3.065   0.795   4.142 -0.0655 -0.7496  0.2513
  399MOL0     C52565   3.218   0.792   4.116  0.1768  0.1707 -0.5240
  399MOL0     O52566   3.272   0.912   4.093  0.0396 -0.1192 -0.3150
  399MOL0     C52567   3.390   0.932   4.021  1.0056  0.3576 -0.8216
  399MOL0     C52568   3.415   0.879   3.897  0.1307  0.2864  0.7117
  399MOL0     C52569   3.540   0.894   3.837  0.6562 -0.3902  0.3028
  399MOL0     C52570   3.649   0.943   3.907  0.6178 -1.3065  0.2638
  399MOL0     O52571   3.772   0.927   3.849 -0.2798 -0.3685  0.2138
  399MOL0     C52572   3.900   0.934   3.915  0.3617  0.3025 -0.1582
  399MOL0     C52573   4.018   0.872   3.842 -0.3245  0.1089  0.1417
  399MOL0     C52574   4.031   0.951   3.716  0.1591 -0.4939  0.6554
  399MOL0     C52575   4.167   0.918   3.646 -0.4035 -0.4383  0.9028
  399MOL0     C52576   4.174   0.999   3.511 -0.7939 -0.3392  0.6916
  399MOL0     C52577   4.317   1.043   3.479  0.9147 -0.1175 -0.0203
  399MOL0     C52578   4.317   1.147   3.366 -0.4768  0.7552 -0.1283
  399MOL0     C52579   4.443   1.233   3.348  0.4005  0.9226  0.3836
  399MOL0    Cl52580   4.459   1.336   3.494  0.0180  0.3346  0.4290
  399MOL0     C52581   3.628   0.994   4.029  1.3806 -0.9829 -0.3833
  399MOL0     C52582   3.500   0.986   4.092 -0.0989  0.6427  0.0860
  399MOL0     O52583   3.287   0.688   4.123  0.5754  0.1972  0.2295
  399MOL0     C52584   2.998   0.726   4.234 -0.5448  0.6748  0.6519
  399MOL0     C52585   2.860   0.726   4.258 -0.4815 -0.0214 -0.5714
  399MOL0     N52586   2.059   0.567   4.108  0.0036 -0.8801 -0.1868
  399MOL0     N52587   1.999   0.469   4.174  0.0724  0.2356  0.0849
  399MOL0     C52588   0.930   0.723   4.728 -0.7920 -0.0266 -0.3998
  399MOL0     C52589   0.833   0.713   4.831  0.5591  0.4933  0.6329
  399MOL0     C52590   0.610   0.692   5.217 -0.5215  0.7828 -0.6851
  399MOL0     C52591   0.575   0.620   5.334 -0.0669  0.2161 -0.0106
  399MOL0     C52592   0.463   0.656   5.409 -0.1028  0.5233  0.8312
  399MOL0     C52593   0.389   0.765   5.373  0.6516 -0.0837  0.0849
  399MOL0     O52594   0.286   0.793   5.464 -0.2285  0.2044 -0.4245
  399MOL0     C52595   0.167   0.877   5.430  0.9339  0.8791 -0.5282
  399MOL0     C52596   0.084   0.889   5.558 -0.0831  0.1666 -0.0552
  399MOL0     C52597   0.151   0.972   5.668 -0.2259  0.5398  0.1506
  399MOL0     C52598   0.260   0.905   5.755  0.7234 -0.4227 -0.4159
  399MOL0     C52599   0.208   0.817   5.858  0.7037  0.0310  0.6500
  399MOL0     C52600   0.146   0.730   5.914 -0.6326  0.5301  1.0358
  399MOL0     C52601   0.431   0.850   5.270 -0.8567 -0.2345  0.6594
  399MOL0     C52602   0.547   0.815   5.195  0.2229  0.0519  0.3181
  399MOL0     H52603   1.048   0.820   5.084  0.2196 -0.5611 -0.6416
  399MOL0     H52604   1.200   0.803   4.896  0.5821 -0.8597 -2.7627
  399MOL0     H52605   1.073   0.640   4.513 -1.3257  0.6279  0.1572
  399MOL0     H52606   1.165   0.554   4.637 -0.0808  1.2316  0.8621
  399MOL0     H52607   1.307   0.746   4.451  0.9211 -0.6730  0.9657
  399MOL0     H52608   1.262   0.605   4.371  1.9163  1.2739 -1.1104
  399MOL0     H52609   1.369   0.466   4.538 -0.8191 -0.3074 -0.2432
  399MOL0     H52610   1.444   0.609   4.623 -2.6438  2.5832 -0.3614
  399MOL0     H52611   1.514   0.529   4.354  0.8976  0.9227  0.5851
  399MOL0     H52612   1.569   0.680   4.443  0.4272 -0.1519 -0.1652
  399MOL0     H52613   1.582   0.408   4.562  3.0166 -1.7580  1.9540
  399MOL0     H52614   1.665   0.545   4.620 -1.0624 -0.4250  0.4360
  399MOL0     H52615   1.768   0.558   4.384 -0.8194  0.4154 -0.8819
  399MOL0     H52616   1.723   0.379   4.373 -3.2355  2.7217 -1.5644
  399MOL0     H52617   1.928   0.489   4.558  1.1608 -2.3167  1.3355
  399MOL0     H52618   1.860   0.326   4.550 -2.5477 -0.2610 -0.8114
  399MOL0     H52619   1.937   0.301   4.320  0.6497 -0.7085 -0.0453
  399MOL0     H52620   2.064   0.312   4.439  0.0974  0.8058  0.9917
  399MOL0     H52621   2.186   0.604   4.414 -1.1383  0.2625 -0.0244
  399MOL0     H52622   2.195   0.840   4.243  0.0120 -0.6747  1.0462
  399MOL0     H52623   2.182   0.800   4.080  0.1770 -2.9160 -1.8097
  399MOL0     H52624   2.428   0.793   4.105  0.5248 -3.4143 -0.9335
  399MOL0     H52625   2.410   0.643   4.193 -0.0125 -0.5928  3.8379
  399MOL0     H52626   2.430   0.924   4.321 -1.0333  0.8589  0.6790
  399MOL0     H52627   2.391   0.774   4.409  1.0940 -1.9957 -0.0648
  399MOL0     H52628   2.604   0.672   4.321  3.1918  0.5578  0.2709
  399MOL0     H52629   2.636   0.819   4.410 -1.7179  1.0528 -0.0079
  399MOL0     H52630   2.774   0.952   4.029 -1.8101 -0.9316  1.0808
  399MOL0     H52631   3.027   0.922   3.972  0.1491 -2.3292 -0.8461
  399MOL0     H52632   3.333   0.829   3.847  3.1135 -5.1339  0.4275
  399MOL0     H52633   3.551   0.852   3.737  1.2578  0.0662  0.1667
  399MOL0     H52634   3.894   0.870   4.004  0.5405  0.2303 -0.1971
  399MOL0     H52635   3.914   1.040   3.939 -1.1968  0.6185 -0.5293
  399MOL0     H52636   4.018   0.765   3.822 -2.1845  0.4026 -1.8450
  399MOL0     H52637   4.108   0.881   3.904  0.3627 -2.5849 -0.3479
  399MOL0     H52638   4.040   1.057   3.742 -0.4419 -0.4833  0.8517
  399MOL0     H52639   3.950   0.931   3.646  0.1462 -1.2122  0.8602
  399MOL0     H52640   4.251   0.946   3.709  1.8733  2.0368 -2.8398
  399MOL0     H52641   4.175   0.812   3.619 -1.2650 -0.1823 -0.4740
  399MOL0     H52642   4.118   1.092   3.525  2.0900  1.3999  1.5662
  399MOL0     H52643   4.117   0.946   3.434 -0.7709  1.4980 -0.6798
  399MOL0     H52644   4.365   0.954   3.436 -0.6885 -1.1423  0.2409
  399MOL0     H52645   4.365   1.083   3.569 -0.4834  1.4334  0.0695
  399MOL0     H52646   4.297   1.104   3.268  3.2729  3.4417 -2.3340
  399MOL0     H52647   4.232   1.214   3.378  0.6810  2.1393  0.6626
  399MOL0     H52648   4.419   1.304   3.268  0.7350 -0.5818 -1.1065
  399MOL0     H52649   4.522   1.162   3.320 -1.5035 -1.3067  0.3897
  399MOL0     H52650   3.702   1.043   4.092  0.2973  2.7167 -1.7036
  399MOL0     H52651   3.481   1.015   4.195  2.1991 -0.4656  0.8805
  399MOL0     H52652   3.046   0.661   4.306 -3.1730  0.7834  2.6627
  399MOL0     H52653   2.820   0.662   4.336  3.7214  1.4900  3.3092
  399MOL0     H52654   0.895   0.715   4.626 -0.9925  0.2808 -0.3593
  399MOL0     H52655   0.727   0.708   4.809  0.4689  0.9691  0.9358
  399MOL0     H52656   0.635   0.542   5.378 -0.7765  1.6260  3.8372
  399MOL0     H52657   0.432   0.583   5.483 -0.6838 -1.3430 -1.1632
  399MOL0     H52658   0.099   0.827   5.360 -0.8461  1.9915  0.3249
  399MOL0     H52659   0.183   0.976   5.387  1.9641  1.0950  0.3183
  399MOL0     H52660  -0.020   0.920   5.550  0.6054  2.8126  0.3919
  399MOL0     H52661   0.080   0.781   5.576  1.2173 -0.2289 -1.8201
  399MOL0     H52662   0.066   1.008   5.726 -1.2940  1.4949 -1.9150
  399MOL0     H52663   0.199   1.057   5.619 -0.2099  0.4330 -0.0219
  399MOL0     H52664   0.341   0.858   5.698  1.8312  0.9299 -0.0095
  399MOL0     H52665   0.313   0.982   5.812 -0.5580 -1.7451  2.7793
  399MOL0     H52666   0.083   0.662   5.968 -1.1920 -1.2327 -1.6231
  399MOL0     H52667   0.385   0.947   5.257 -0.1046  0.1277  0.6154
  399MOL0     H52668   0.575   0.875   5.109 -1.6156  0.9971  0.3235
  400MOL0     O52669  10.511   9.802   9.966  0.1292 -0.2605  0.0914
  400MOL0     C52670  10.523   9.911  10.022  0.0781  0.5495  0.6278
  400MOL0     O52671  10.633   9.990  10.000 -0.0570  0.2724 -0.0781
  400MOL0     C52672  10.734   9.940   9.924 -1.3553 -0.5643  0.1355
  400MOL0     C52673  10.717   9.916   9.789 -0.8141  0.1813  0.1145
  400MOL0     C52674  10.818   9.854   9.720 -0.2652  0.0796 -1.0403
  400MOL0     C52675  10.947   9.838   9.777 -0.5326  0.8531  0.1079
  400MOL0     O52676  11.031   9.753   9.709 -0.1396  0.2915 -0.0965
  400MOL0     C52677  11.173   9.768   9.739  0.5028  0.7606  0.9234
  400MOL0     C52678  11.250   9.746   9.595  0.3600  0.5779 -1.3679
  400MOL0     C52679  11.282   9.877   9.530  0.7955  0.4694 -0.7166
  400MOL0     C52680  11.370   9.859   9.405  1.1849  0.1588 -0.7670
  400MOL0     C52681  11.376   9.973   9.316 -0.7520 -0.2293  0.4688
  400MOL0     C52682  11.245  10.011   9.236 -0.1202  0.0301 -1.0183
  400MOL0     C52683  11.263  10.135   9.143  0.6310  0.7808  0.3462
  400MOL0     C52684  11.229  10.256   9.225 -0.5737 -0.3830 -0.2221
  400MOL0     N52685  11.085  10.270   9.241  0.4213 -0.4236 -1.2325
  400MOL0     C52686  10.998  10.323   9.147 -0.3137  0.5285  0.0617
  400MOL0     C52687  10.887  10.328   9.220  0.4829  0.2830  0.4891
  400MOL0     C52688  10.751  10.388   9.155 -0.3088 -0.0543  0.0424
  400MOL0     C52689  10.722  10.329   9.019 -0.8624 -0.9248  0.3378
  400MOL0     C52690  10.583  10.300   8.992  0.3837 -0.6012  0.0008
  400MOL0     C52691  10.536  10.245   8.859 -0.5395  0.6488 -0.3899
  400MOL0     O52692  10.402  10.203   8.841 -0.1504  1.0844 -0.8734
  400MOL0     C52693  10.315  10.301   8.878 -0.0562 -0.1775 -0.1727
  400MOL0     C52694  10.252  10.294   9.004  0.8007  0.2316  0.1310
  400MOL0     C52695  10.169  10.391   9.047  0.0797  0.3421 -0.3477
  400MOL0     C52696  10.138  10.503   8.965 -0.3936 -0.3411  0.0101
  400MOL0     C52697  10.051  10.617   9.007  1.2024 -0.0475 -0.7687
  400MOL0     O52698   9.959  10.569   9.108 -0.8139 -0.1387  0.7584
  400MOL0     C52699   9.861  10.644   9.173 -0.0325 -1.1713 -0.4154
  400MOL0     C52700   9.832  10.621   9.313 -0.0408  0.1978  0.8038
  400MOL0     C52701   9.742  10.696   9.394 -0.4018  0.3450  0.8151
  400MOL0     C52702   9.672  10.807   9.343 -0.5847 -0.2319  0.1227
  400MOL0     O52703   9.594  10.899   9.407 -0.3960 -0.2155  0.2386
  400MOL0     C52704   9.632  10.934   9.538  0.7183 -0.2816 -0.0325
  400MOL0     C52705   9.535  10.868   9.627  0.3437 -0.4999  0.0235
  400MOL0     C52706   9.390  10.929   9.623 -0.8086 -0.4092 -0.0177
  400MOL0     C52707   9.319  10.904   9.747 -0.1748 -0.0922 -0.4084
  400MOL0     C52708   9.189  10.975   9.734  0.2610  0.0289 -0.8223
  400MOL0     C52709   9.100  10.978   9.861 -1.3699  1.3338  0.1825
  400MOL0     C52710   8.966  11.059   9.848 -0.2349 -0.8065  0.0330
  400MOL0     C52711   8.877  11.069   9.973 -0.5534  0.2400  0.1896
  400MOL0    Cl52712   8.770  10.925   9.998 -0.6856  0.2065 -0.1616
  400MOL0     C52713   9.712  10.841   9.211  0.1020 -0.2968 -1.1750
  400MOL0     C52714   9.801  10.766   9.132 -1.0939  0.5555  0.2795
  400MOL0     O52715  10.066  10.735   8.973 -0.9649 -0.0534 -0.6523
  400MOL0     C52716  10.201  10.511   8.840 -0.6020  0.0358 -0.2589
  400MOL0     C52717  10.292  10.414   8.795 -0.8950 -0.5451 -0.9775
  400MOL0     N52718  10.902  10.283   9.349  0.2583 -0.7642 -0.0391
  400MOL0     N52719  11.023  10.246   9.361  0.2629  0.0944  0.0064
  400MOL0     C52720  10.967   9.891   9.904 -0.1887  0.7325  0.5065
  400MOL0     C52721  10.859   9.938   9.983 -0.5893  0.1367 -0.0912
  400MOL0     C52722  10.405   9.965  10.105 -0.3204 -0.2953  1.4030
  400MOL0     C52723  10.278   9.908  10.111  0.9372  0.3141  0.5073
  400MOL0     C52724  10.177   9.975  10.171 -0.1720 -1.2620  0.2233
  400MOL0     C52725  10.206  10.093  10.239  0.3393 -0.8261  0.8330
  400MOL0     O52726  10.098  10.150  10.293  0.1298 -0.1108 -0.1379
  400MOL0     C52727  10.115  10.267  10.374 -0.5547  0.0084 -0.4920
  400MOL0     C52728   9.985  10.306  10.443  0.3186 -0.2476  0.1599
  400MOL0     C52729   9.922  10.208  10.546 -0.1338 -0.3616  0.7418
  400MOL0     C52730   9.769  10.184  10.542  0.8507  0.0605 -0.4766
  400MOL0     C52731   9.743  10.104  10.432 -0.8107 -0.0728 -0.4969
  400MOL0     C52732   9.723  10.019  10.345  0.0126  0.1114 -0.1237
  400MOL0     C52733  10.331  10.156  10.238 -0.8192  0.6227  0.0956
  400MOL0     C52734  10.422  10.089  10.170 -0.2996  0.5890 -0.8022
  400MOL0     H52735  10.614   9.919   9.753 -0.4177  1.0332 -0.9992
  400MOL0     H52736  10.793   9.815   9.622  0.4198  0.6075 -1.4322
  400MOL0     H52737  11.215   9.678   9.785 -1.9022 -0.0338  1.6575
  400MOL0     H52738  11.214   9.847   9.803  1.6393  0.2256  0.8890
  400MOL0     H52739  11.186   9.686   9.530 -0.3014 -1.4621  0.9824
  400MOL0     H52740  11.344   9.694   9.613 -0.0764  0.6133  1.6497
  400MOL0     H52741  11.316   9.952   9.602 -1.1364  0.8626 -0.1550
  400MOL0     H52742  11.186   9.922   9.501 -0.0268 -0.4769  0.4352
  400MOL0     H52743  11.473   9.834   9.431  0.5501 -0.2070  1.6451
  400MOL0     H52744  11.325   9.774   9.352 -1.1626  0.6277  0.3585
  400MOL0     H52745  11.435   9.942   9.230 -0.1767 -0.0387  0.7847
  400MOL0     H52746  11.424  10.057   9.369  1.3894 -1.3979  0.4707
  400MOL0     H52747  11.164  10.024   9.309  0.9492 -2.5996  0.7570
  400MOL0     H52748  11.199   9.920   9.197 -0.5661  0.1175 -0.7076
  400MOL0     H52749  11.360  10.123   9.094  0.6202  0.3968  0.4209
  400MOL0     H52750  11.192  10.134   9.060 -1.9431 -2.0975  2.3403
  400MOL0     H52751  11.260  10.345   9.168 -2.0215  1.6853  2.0138
  400MOL0     H52752  11.281  10.247   9.321  1.3297 -3.4821 -1.3754
  400MOL0     H52753  11.021  10.347   9.044  0.2195  2.8757  0.6719
  400MOL0     H52754  10.765  10.496   9.152 -0.0298 -0.0884  0.1233
  400MOL0     H52755  10.669  10.368   9.225 -0.0082 -1.3168  0.0520
  400MOL0     H52756  10.773  10.233   9.003 -2.1425 -2.0586  2.4756
  400MOL0     H52757  10.749  10.403   8.944  0.6872  1.3045  2.9354
  400MOL0     H52758  10.552  10.225   9.066 -0.2530 -1.8318 -1.4555
  400MOL0     H52759  10.514  10.384   9.006 -0.5572 -1.3810  0.1048
  400MOL0     H52760  10.601  10.161   8.833 -1.3021  0.5739 -2.1240
  400MOL0     H52761  10.571  10.325   8.793 -0.0670  2.1365  1.5554
  400MOL0     H52762  10.283  10.206   9.061  0.8763  0.4837  0.4803
  400MOL0     H52763  10.130  10.407   9.147 -1.0804  3.2905 -1.1421
  400MOL0     H52764   9.893  10.546   9.363  0.3025  1.1848  1.9302
  400MOL0     H52765   9.733  10.691   9.502 -2.4987  1.3743  0.7422
  400MOL0     H52766   9.619  11.042   9.552 -0.5330 -0.5867  1.4782
  400MOL0     H52767   9.735  10.916   9.571  0.7412  1.0150  0.6828
  400MOL0     H52768   9.576  10.886   9.727  1.0760  1.8077 -0.6092
  400MOL0     H52769   9.525  10.763   9.599  1.5306 -0.6488  0.1056
  400MOL0     H52770   9.337  10.887   9.537 -0.7678 -0.7124  0.1049
  400MOL0     H52771   9.391  11.037   9.603 -0.1758 -1.0187 -4.0682
  400MOL0     H52772   9.307  10.796   9.766  1.7337 -0.0467  1.3681
  400MOL0     H52773   9.373  10.954   9.828 -0.4090 -1.5077  0.6896
  400MOL0     H52774   9.134  10.936   9.648 -2.1540  1.5097 -0.0319
  400MOL0     H52775   9.213  11.079   9.710 -1.1778  0.9179  1.3025
  400MOL0     H52776   9.163  11.013   9.943  1.2672 -3.4446  0.5153
  400MOL0     H52777   9.080  10.874   9.888 -1.6675  1.4726  0.5099
  400MOL0     H52778   8.987  11.157   9.804  1.8578 -0.7253  1.1327
  400MOL0     H52779   8.915  11.022   9.758 -1.0121  4.2576 -1.9915
  400MOL0     H52780   8.813  11.158   9.967  2.6428  2.7046  0.2711
  400MOL0     H52781   8.934  11.071  10.066  2.2499  2.5836 -1.4224
  400MOL0     H52782   9.680  10.938   9.173 -0.2793  0.6596  1.4000
  400MOL0     H52783   9.829  10.813   9.038 -1.9478  0.5722  0.0269
  400MOL0     H52784  10.201  10.600   8.778  1.6683  0.1514 -0.1571
  400MOL0     H52785  10.346  10.440   8.705  0.7888  1.5231  0.5255
  400MOL0     H52786  11.063   9.868   9.949  0.3618 -0.9602 -1.3833
  400MOL0     H52787  10.886   9.970  10.084 -0.9138  0.7468 -0.1941
  400MOL0     H52788  10.252   9.820  10.054  2.5621 -1.1060  1.8635
  400MOL0     H52789  10.079   9.927  10.165  0.1102 -1.6530 -2.0614
  400MOL0     H52790  10.158  10.346  10.312 -0.8328 -1.0516 -2.1228
  400MOL0     H52791  10.188  10.253  10.454  0.8633  0.6012 -1.6325
  400MOL0     H52792  10.015  10.384  10.513 -4.8650  0.3159  2.1556
  400MOL0     H52793   9.906  10.350  10.382 -1.3618 -1.8072  1.1316
  400MOL0     H52794   9.947  10.258  10.640 -0.1366 -3.4474  2.5329
  400MOL0     H52795   9.981  10.116  10.557 -0.0032 -0.2406  1.0964
  400MOL0     H52796   9.733  10.144  10.637 -0.3759  0.2625 -0.8386
  400MOL0     H52797   9.707  10.267  10.508 -0.4266 -1.0368 -0.9298
  400MOL0     H52798   9.714   9.946  10.267  0.3877 -2.0398  1.7324
  400MOL0     H52799  10.359  10.239  10.303  1.3386 -0.2570  0.3681
  400MOL0     H52800  10.518  10.138  10.152  0.8193 -0.2124  2.3047
  401MOL0     O52801   4.120   8.565  11.280 -0.1563 -0.4441 -0.2757
  401MOL0     C52802   4.008   8.544  11.244  1.2018  0.5403 -0.0506
  401MOL0     O52803   3.954   8.435  11.183  0.0166 -0.3070  0.4457
  401MOL0     C52804   4.017   8.316  11.177 -0.5304  0.6164 -0.0585
  401MOL0     C52805   3.933   8.200  11.180  0.5414  0.1226  0.1723
  401MOL0     C52806   3.988   8.066  11.177  0.0325 -0.8930 -0.5253
  401MOL0     C52807   4.132   8.055  11.186  0.4388  0.2029 -0.3048
  401MOL0     O52808   4.176   7.928  11.197 -0.0837  0.6737  0.8527
  401MOL0     C52809   4.315   7.898  11.166  0.1416 -0.5091 -0.5943
  401MOL0     C52810   4.340   7.754  11.201 -0.9628  0.4911  0.1956
  401MOL0     C52811   4.442   7.685  11.108  0.5073  0.1232  0.2076
  401MOL0     C52812   4.474   7.548  11.170  0.2955 -0.0011  0.3260
  401MOL0     C52813   4.595   7.491  11.118  0.8607 -0.0835  0.9436
  401MOL0     C52814   4.610   7.492  10.972  0.3036 -0.1500  0.5444
  401MOL0     C52815   4.518   7.398  10.899 -0.6053 -0.5277 -0.3677
  401MOL0     C52816   4.539   7.411  10.748 -0.3739 -0.0495  1.2858
  401MOL0     N52817   4.669   7.387  10.698 -0.2858  0.7641  0.1007
  401MOL0     C52818   4.717   7.264  10.661  0.2500 -0.0058  0.4212
  401MOL0     C52819   4.848   7.290  10.630 -0.1591  0.7435  0.5974
  401MOL0     C52820   4.959   7.182  10.602  0.6425  0.0316  0.4958
  401MOL0     C52821   5.090   7.219  10.662 -0.4270 -0.4721  0.5872
  401MOL0     C52822   5.160   7.349  10.623 -0.1746 -0.7382  1.3151
  401MOL0     C52823   5.180   7.380  10.479  0.3554 -1.0199 -0.3680
  401MOL0     O52824   5.230   7.265  10.409 -0.3690 -0.5357  0.3585
  401MOL0     C52825   5.184   7.235  10.282 -0.0132 -0.6069 -0.3720
  401MOL0     C52826   5.140   7.111  10.254 -0.5618 -0.0845  0.3096
  401MOL0     C52827   5.110   7.071  10.121  0.6984  0.4046  0.3619
  401MOL0     C52828   5.103   7.173  10.019  0.8586 -0.2534  0.2402
  401MOL0     C52829   5.042   7.143   9.886 -0.4008 -1.1560 -0.7315
  401MOL0     O52830   4.980   7.022   9.884  0.3638 -0.2007 -0.2525
  401MOL0     C52831   4.896   6.971   9.780 -0.8736 -0.8001 -0.6181
  401MOL0     C52832   4.846   6.838   9.795 -1.2437  0.1351  0.1252
  401MOL0     C52833   4.760   6.784   9.710  0.6803  0.3002  0.3317
  401MOL0     C52834   4.734   6.845   9.584 -0.6265  0.8359 -1.0133
  401MOL0     O52835   4.662   6.780   9.486  0.2210 -0.6136 -0.4556
  401MOL0     C52836   4.564   6.861   9.418 -0.2807 -0.2191 -0.3607
  401MOL0     C52837   4.460   6.764   9.362  0.0864 -0.5490  0.4898
  401MOL0     C52838   4.326   6.831   9.319 -0.2517  0.9642  0.2431
  401MOL0     C52839   4.222   6.736   9.252 -0.9263  0.0627  0.3849
  401MOL0     C52840   4.185   6.613   9.339 -0.3744  0.2406  0.1951
  401MOL0     C52841   4.125   6.637   9.483 -0.5762  0.4716  0.1793
  401MOL0     C52842   4.011   6.729   9.522  0.3280 -0.9069  0.4557
  401MOL0     C52843   3.877   6.695   9.455 -0.3796  0.1924 -0.5490
  401MOL0    Cl52844   3.813   6.546   9.516 -0.0630 -0.3207 -0.1497
  401MOL0     C52845   4.776   6.983   9.569  0.1715 -0.1640 -0.2347
  401MOL0     C52846   4.855   7.041   9.663  0.3794  0.5758 -0.1480
  401MOL0     O52847   5.063   7.217   9.793 -0.0028 -0.1082 -0.4851
  401MOL0     C52848   5.142   7.301  10.057  0.5553 -0.7407  0.5938
  401MOL0     C52849   5.177   7.333  10.184  0.5393 -0.6074 -0.5445
  401MOL0     N52850   4.866   7.427  10.637 -1.0938 -0.6544 -0.2361
  401MOL0     N52851   4.761   7.478  10.683  0.3921 -0.1462  0.5995
  401MOL0     C52852   4.216   8.174  11.181  0.6359  0.6991 -0.1392
  401MOL0     C52853   4.157   8.303  11.182 -0.8360  0.0068  0.8431
  401MOL0     C52854   3.909   8.654  11.251  0.1644 -0.7164 -1.1218
  401MOL0     C52855   3.786   8.677  11.177 -0.8176 -0.0204  1.1045
  401MOL0     C52856   3.700   8.782  11.184 -0.1077  0.2626 -0.0877
  401MOL0     C52857   3.724   8.867  11.298  0.7392  0.5940 -0.3192
  401MOL0     O52858   3.620   8.952  11.314  0.7812 -0.4912 -0.9255
  401MOL0     C52859   3.618   9.049  11.421 -0.2646  0.4787  0.1348
  401MOL0     C52860   3.484   9.129  11.425  0.2973  0.2787 -0.3496
  401MOL0     C52861   3.465   9.209  11.301  0.5083  0.0944 -0.1023
  401MOL0     C52862   3.335   9.295  11.296  0.6762 -0.4907  0.0638
  401MOL0     C52863   3.333   9.385  11.411  1.1624 -0.4301 -0.0397
  401MOL0     C52864   3.320   9.460  11.505  0.2361 -0.3579 -0.1507
  401MOL0     C52865   3.852   8.871  11.359 -0.5630 -0.2290  0.1025
  401MOL0     C52866   3.933   8.764  11.337 -0.6166  0.2557  0.1431
  401MOL0     H52867   3.825   8.209  11.188  0.3244 -2.4399  1.0131
  401MOL0     H52868   3.934   7.974  11.196 -0.3228 -0.3113  1.5993
  401MOL0     H52869   4.385   7.954  11.229 -1.6417 -0.0960  1.1271
  401MOL0     H52870   4.350   7.916  11.063  3.1801  1.9460  0.6980
  401MOL0     H52871   4.245   7.703  11.221 -0.1677 -0.6158  1.3184
  401MOL0     H52872   4.387   7.760  11.300  1.6158  0.3942 -0.9350
  401MOL0     H52873   4.527   7.752  11.091  0.7985 -0.4350 -0.5627
  401MOL0     H52874   4.380   7.672  11.018 -0.1638  0.7694  0.5587
  401MOL0     H52875   4.494   7.557  11.277 -0.3703 -2.3421  0.7166
  401MOL0     H52876   4.390   7.480  11.153  1.4056 -1.4484  0.3735
  401MOL0     H52877   4.608   7.390  11.157  0.6380 -0.0554  1.0932
  401MOL0     H52878   4.685   7.543  11.152  0.5632  0.5827  0.7337
  401MOL0     H52879   4.715   7.467  10.953  0.1074 -0.9887  0.4989
  401MOL0     H52880   4.596   7.593  10.932  0.9860  0.0183  0.7113
  401MOL0     H52881   4.552   7.302  10.939 -1.0338 -0.7293 -0.4831
  401MOL0     H52882   4.410   7.409  10.917 -1.3520 -5.4638 -0.4603
  401MOL0     H52883   4.506   7.512  10.721  1.9221  0.5825  0.6646
  401MOL0     H52884   4.471   7.336  10.706 -3.8627  3.1151  0.7732
  401MOL0     H52885   4.688   7.159  10.665 -0.0545  0.1188  2.8334
  401MOL0     H52886   4.966   7.150  10.498  0.6454 -0.3855  0.6213
  401MOL0     H52887   4.911   7.101  10.658 -1.5437  0.5265 -0.5551
  401MOL0     H52888   5.153   7.133  10.639 -2.4327 -1.0143 -4.1103
  401MOL0     H52889   5.092   7.222  10.771  0.7127 -0.2689  0.5698
  401MOL0     H52890   5.101   7.431  10.665 -2.5118 -1.0690 -1.0154
  401MOL0     H52891   5.264   7.345  10.657  0.9544  2.1272 -1.3418
  401MOL0     H52892   5.239   7.470  10.459  0.6790 -1.2325 -0.3768
  401MOL0     H52893   5.077   7.406  10.451  0.4968 -1.6210 -1.5221
  401MOL0     H52894   5.156   7.030  10.324 -5.8989 -0.8995  0.9951
  401MOL0     H52895   5.095   6.965  10.107 -2.1716  0.9828 -1.9379
  401MOL0     H52896   4.895   6.791   9.880 -1.0786  3.0488  1.7590
  401MOL0     H52897   4.729   6.683   9.735 -3.9827  1.6058  0.6113
  401MOL0     H52898   4.596   6.913   9.328  1.3152  0.4157  0.5367
  401MOL0     H52899   4.516   6.929   9.490  2.4451  0.4953  0.8904
  401MOL0     H52900   4.438   6.706   9.452 -1.3217 -0.8503 -0.0259
  401MOL0     H52901   4.499   6.705   9.278 -1.9391 -1.4473  0.1248
  401MOL0     H52902   4.355   6.921   9.264  0.0746  0.5216 -0.3176
  401MOL0     H52903   4.264   6.857   9.405 -2.1913 -0.3634 -0.6844
  401MOL0     H52904   4.130   6.792   9.232  1.1379  3.0158 -1.6185
  401MOL0     H52905   4.257   6.708   9.153  4.3595  0.0274  1.9830
  401MOL0     H52906   4.274   6.553   9.357 -2.4943 -2.4218  2.9892
  401MOL0     H52907   4.105   6.560   9.286  1.0386 -2.2840  0.4944
  401MOL0     H52908   4.212   6.668   9.541 -0.5109 -0.3982  0.5611
  401MOL0     H52909   4.098   6.539   9.523 -0.2960 -0.3875 -1.6299
  401MOL0     H52910   4.000   6.723   9.631 -0.2016  1.8449  0.6131
  401MOL0     H52911   4.033   6.834   9.499  0.2145 -0.6357  1.5158
  401MOL0     H52912   3.879   6.679   9.346 -0.2563 -1.4614 -0.3328
  401MOL0     H52913   3.805   6.768   9.490  2.0217  2.4847 -0.0736
  401MOL0     H52914   4.767   7.045   9.480  1.8900 -0.2535 -0.5064
  401MOL0     H52915   4.887   7.141   9.637 -1.1139  1.1134  0.0220
  401MOL0     H52916   5.129   7.383   9.986 -1.7217 -1.1753  0.4308
  401MOL0     H52917   5.213   7.433  10.205 -1.7251 -0.2856  2.4855
  401MOL0     H52918   4.324   8.180  11.171  0.5720  2.2426 -0.1352
  401MOL0     H52919   4.224   8.388  11.179  1.4075 -1.5880  2.2946
  401MOL0     H52920   3.749   8.602  11.107 -2.0812  1.3187  0.2753
  401MOL0     H52921   3.612   8.780  11.121 -0.9747 -2.2938  1.0748
  401MOL0     H52922   3.699   9.115  11.389  2.0512 -2.1986  0.1169
  401MOL0     H52923   3.631   9.017  11.525  0.6203 -1.0996 -0.4285
  401MOL0     H52924   3.402   9.060  11.449  0.0824  0.5844 -0.2045
  401MOL0     H52925   3.490   9.194  11.512  0.6838  0.5054 -0.5454
  401MOL0     H52926   3.451   9.132  11.224  1.6569 -0.7294  0.4916
  401MOL0     H52927   3.551   9.274  11.282  0.5705 -0.0409 -0.2919
  401MOL0     H52928   3.347   9.355  11.205  2.2621  0.6120  0.9449
  401MOL0     H52929   3.246   9.232  11.297  0.2453  0.0400 -1.3805
  401MOL0     H52930   3.290   9.515  11.592 -1.5091  0.4287 -1.2089
  401MOL0     H52931   3.878   8.959  11.416  5.0828  0.5806 -3.0055
  401MOL0     H52932   4.027   8.750  11.389  1.4088  2.1118 -2.7014
  402MOL0     O52933   0.680   8.864   0.674  0.2509 -0.5376 -0.4743
  402MOL0     C52934   0.804   8.857   0.687  0.3759  1.0048 -0.0889
  402MOL0     O52935   0.874   8.740   0.702 -0.1628  1.2565  0.8884
  402MOL0     C52936   0.815   8.617   0.710 -0.0451 -0.2870 -0.0711
  402MOL0     C52937   0.849   8.527   0.820  0.0267 -1.1561  0.0613
  402MOL0     C52938   0.762   8.414   0.843  0.2270 -0.1624 -0.1150
  402MOL0     C52939   0.653   8.375   0.755 -0.4370  0.9815  0.2099
  402MOL0     O52940   0.577   8.260   0.770 -0.3895  0.5684 -0.6255
  402MOL0     C52941   0.596   8.165   0.876  0.6331 -0.1865 -0.2802
  402MOL0     C52942   0.492   8.053   0.855  0.8095 -0.2453  0.6697
  402MOL0     C52943   0.536   7.918   0.919  0.5792 -0.5119  0.7836
  402MOL0     C52944   0.557   7.954   1.064  0.1444  0.4598 -0.5588
  402MOL0     C52945   0.532   7.832   1.150 -0.7924 -0.1321 -0.1399
  402MOL0     C52946   0.624   7.707   1.124 -0.3070  1.6833  0.0098
  402MOL0     C52947   0.622   7.595   1.235  0.1342  0.5485 -0.5697
  402MOL0     C52948   0.723   7.639   1.348  0.3632  0.5750  0.1583
  402MOL0     N52949   0.869   7.628   1.315  1.4676 -0.1478  0.1709
  402MOL0     C52950   0.962   7.557   1.397  0.6391  1.1372  0.0677
  402MOL0     C52951   1.080   7.605   1.343 -0.6284  0.4218  0.1891
  402MOL0     C52952   1.220   7.565   1.390  0.6739 -0.7255 -0.1618
  402MOL0     C52953   1.248   7.431   1.328  0.7771  0.2326  0.3274
  402MOL0     C52954   1.253   7.411   1.174 -0.7561 -0.5458  0.0480
  402MOL0     C52955   1.384   7.460   1.117  0.0171  0.4026 -0.0152
  402MOL0     O52956   1.407   7.435   0.974 -0.7606 -0.0856 -0.0538
  402MOL0     C52957   1.389   7.535   0.881  0.2809  0.0515  0.2318
  402MOL0     C52958   1.424   7.506   0.754  0.0721  0.0521  0.4074
  402MOL0     C52959   1.415   7.590   0.649 -0.5840 -0.3648 -0.5772
  402MOL0     C52960   1.340   7.711   0.672 -0.3618 -0.0738 -0.0612
  402MOL0     C52961   1.331   7.806   0.561  0.5234  0.1878 -1.0524
  402MOL0     O52962   1.336   7.755   0.429 -0.0210 -0.2734 -0.3620
  402MOL0     C52963   1.326   7.846   0.325  0.2652  0.1848  0.1707
  402MOL0     C52964   1.373   7.977   0.320 -0.1270  0.6092 -0.2464
  402MOL0     C52965   1.360   8.065   0.211 -0.0718 -0.1576 -0.3122
  402MOL0     C52966   1.287   8.031   0.101  0.9118 -0.1634  0.1319
  402MOL0     O52967   1.269   8.112  -0.000  0.8527 -0.1098  0.0387
  402MOL0     C52968   1.384   8.199  -0.035 -0.4088 -0.1642  0.5085
  402MOL0     C52969   1.368   8.252  -0.177 -0.5149 -0.2028 -0.1871
  402MOL0     C52970   1.370   8.141  -0.281 -0.7633 -0.5664 -0.8969
  402MOL0     C52971   1.339   8.177  -0.429 -0.1862  0.5826 -0.9184
  402MOL0     C52972   1.425   8.108  -0.536  0.1239 -0.1337  0.2964
  402MOL0     C52973   1.579   8.115  -0.513 -0.9000  0.9088  0.0210
  402MOL0     C52974   1.660   8.033  -0.624  0.5049 -0.3788  0.0710
  402MOL0     C52975   1.777   7.946  -0.554  0.2606 -0.7571 -0.3977
  402MOL0    Cl52976   1.698   7.844  -0.448  0.0158 -0.0600 -0.5803
  402MOL0     C52977   1.236   7.902   0.100 -1.1445 -0.7616 -0.4107
  402MOL0     C52978   1.253   7.814   0.209 -0.5720 -0.7601 -0.0637
  402MOL0     O52979   1.301   7.924   0.592  0.4918 -0.1054  1.3443
  402MOL0     C52980   1.288   7.733   0.803 -0.0154 -0.3383  0.2764
  402MOL0     C52981   1.312   7.645   0.902  0.1816  0.3572  0.0894
  402MOL0     N52982   1.058   7.696   1.241 -0.7636  0.3614 -0.2520
  402MOL0     N52983   0.932   7.702   1.228 -0.1046 -0.0430  0.1514
  402MOL0     C52984   0.629   8.456   0.647  0.2550 -0.1198  0.6760
  402MOL0     C52985   0.704   8.579   0.629  0.4380 -0.3797 -0.8679
  402MOL0     C52986   0.879   8.977   0.682  0.1535  0.2024 -0.2438
  402MOL0     C52987   1.010   8.983   0.730 -1.4645  0.2272  0.4518
  402MOL0     C52988   1.084   9.103   0.731 -0.9275 -0.3511  0.6922
  402MOL0     C52989   1.027   9.218   0.678  0.2811 -0.2765  0.5600
  402MOL0     O52990   1.112   9.321   0.673  0.9064  0.4003 -0.6063
  402MOL0     C52991   1.066   9.455   0.646  0.3753 -0.0887 -1.3229
  402MOL0     C52992   0.996   9.507   0.777  0.1642 -0.0418 -0.3272
  402MOL0     C52993   1.091   9.481   0.900  0.2813  0.4786 -0.2456
  402MOL0     C52994   1.219   9.563   0.894  0.3073  0.6020  0.2056
  402MOL0     C52995   1.262   9.583   1.038 -0.0743  0.7341  0.6070
  402MOL0     C52996   1.303   9.590   1.149  1.0155 -0.4927  0.4613
  402MOL0     C52997   0.895   9.213   0.627  0.3307 -0.7131  0.1633
  402MOL0     C52998   0.818   9.094   0.616 -0.0473 -0.6847 -0.5516
  402MOL0     H52999   0.936   8.549   0.881 -0.0697 -1.9718  0.5051
  402MOL0     H53000   0.759   8.356   0.935 -0.5380 -0.5903 -0.4025
  402MOL0     H53001   0.569   8.219   0.968 -2.3511 -1.8807 -0.0483
  402MOL0     H53002   0.697   8.123   0.875  2.4099  3.6439 -0.0084
  402MOL0     H53003   0.477   8.038   0.748 -0.0342  2.0766  0.4155
  402MOL0     H53004   0.396   8.088   0.894  0.0504 -0.9770 -0.4735
  402MOL0     H53005   0.634   7.879   0.888  0.6068 -1.7888  2.3410
  402MOL0     H53006   0.458   7.845   0.899  0.2124  0.6140 -2.3474
  402MOL0     H53007   0.657   7.999   1.063  0.0329  0.7359 -2.0700
  402MOL0     H53008   0.488   8.035   1.087  0.4446  0.9793 -1.4308
  402MOL0     H53009   0.431   7.807   1.118 -0.7296  0.8542 -1.1599
  402MOL0     H53010   0.535   7.861   1.256 -0.3759  0.4099 -0.2943
  402MOL0     H53011   0.729   7.730   1.105  1.0148 -2.4226  1.3427
  402MOL0     H53012   0.588   7.659   1.033  1.4382 -0.6226  0.4263
  402MOL0     H53013   0.524   7.593   1.284 -0.5006 -2.1585 -1.7668
  402MOL0     H53014   0.646   7.495   1.198  1.2878  0.7380 -0.3855
  402MOL0     H53015   0.697   7.569   1.428  1.0556  1.4241  1.1565
  402MOL0     H53016   0.691   7.738   1.384 -0.3507  0.2331  0.4821
  402MOL0     H53017   0.955   7.471   1.463  0.4448  0.4301 -0.8541
  402MOL0     H53018   1.229   7.564   1.499 -0.5956 -0.8612 -0.0357
  402MOL0     H53019   1.301   7.629   1.354 -1.0298  0.3063 -2.4589
  402MOL0     H53020   1.184   7.359   1.380 -0.7417  2.2090  1.3239
  402MOL0     H53021   1.350   7.403   1.358  1.2853  0.0923 -1.4208
  402MOL0     H53022   1.245   7.304   1.156  0.3163 -0.8534  1.2422
  402MOL0     H53023   1.175   7.467   1.122  1.0068  0.2646 -1.8341
  402MOL0     H53024   1.472   7.420   1.169 -0.5460  2.3783  2.7068
  402MOL0     H53025   1.392   7.566   1.140  0.6583  0.6698 -1.3792
  402MOL0     H53026   1.478   7.414   0.732 -0.8959 -0.5555  0.5216
  402MOL0     H53027   1.448   7.582   0.546 -3.7608  2.9939 -2.0837
  402MOL0     H53028   1.439   8.015   0.397  1.0533  0.5628 -1.1985
  402MOL0     H53029   1.415   8.158   0.221 -1.2319  0.6302 -0.9569
  402MOL0     H53030   1.475   8.139  -0.034 -0.0442  0.3766  0.4155
  402MOL0     H53031   1.393   8.286   0.032 -1.5634 -2.4539  3.9089
  402MOL0     H53032   1.438   8.332  -0.201 -0.4610 -0.0651  0.4231
  402MOL0     H53033   1.272   8.304  -0.178  0.5924  1.9436  0.3118
  402MOL0     H53034   1.296   8.065  -0.253  1.8153 -3.0578 -0.4373
  402MOL0     H53035   1.470   8.099  -0.272 -0.5074  0.3309  0.6822
  402MOL0     H53036   1.232   8.152  -0.436 -1.5690  3.6853  3.8005
  402MOL0     H53037   1.346   8.286  -0.433  0.9226  0.5241 -0.8981
  402MOL0     H53038   1.392   8.152  -0.630 -1.8156  0.2164  1.0998
  402MOL0     H53039   1.394   8.004  -0.543 -0.1420  0.0502 -1.9538
  402MOL0     H53040   1.602   8.082  -0.411 -1.3095  4.1273  1.2713
  402MOL0     H53041   1.608   8.219  -0.525  1.2874  0.1602 -1.7634
  402MOL0     H53042   1.597   7.966  -0.683 -1.6033  0.9654  0.6842
  402MOL0     H53043   1.707   8.106  -0.689 -1.8801  0.5750 -0.7052
  402MOL0     H53044   1.836   8.012  -0.491 -0.3562  0.0897 -0.6857
  402MOL0     H53045   1.844   7.899  -0.627  1.0674  0.7132 -0.6503
  402MOL0     H53046   1.177   7.870   0.015 -1.4048 -0.4354 -0.3565
  402MOL0     H53047   1.208   7.715   0.203 -0.1214 -0.9963  0.3320
  402MOL0     H53048   1.241   7.826   0.836  0.1249 -0.0810 -0.2306
  402MOL0     H53049   1.270   7.669   0.999  0.3728 -1.6273  0.6934
  402MOL0     H53050   0.559   8.431   0.568  1.0434 -0.8215  0.1774
  402MOL0     H53051   0.679   8.648   0.550 -1.0334  0.4890  0.3077
  402MOL0     H53052   1.068   8.897   0.764 -1.5131 -0.4257 -1.0656
  402MOL0     H53053   1.188   9.111   0.761 -0.8828 -0.6898  0.6388
  402MOL0     H53054   0.996   9.452   0.562 -0.7168 -1.2128 -0.4067
  402MOL0     H53055   1.152   9.519   0.624 -0.1526  1.1777  0.1227
  402MOL0     H53056   0.979   9.614   0.761  4.0848  0.5453 -1.4565
  402MOL0     H53057   0.902   9.451   0.786  1.7804 -2.8330  0.2982
  402MOL0     H53058   1.126   9.378   0.908  0.2749  0.4850 -0.1326
  402MOL0     H53059   1.025   9.496   0.986  0.2230 -0.8316 -0.0377
  402MOL0     H53060   1.299   9.506   0.847  0.3536  1.6252 -1.0132
  402MOL0     H53061   1.217   9.656   0.837  0.6831  0.5179  0.0485
  402MOL0     H53062   1.357   9.607   1.240  1.1236  0.4207  0.2361
  402MOL0     H53063   0.858   9.305   0.583  3.3074  0.9467  0.8613
  402MOL0     H53064   0.721   9.091   0.566  0.5526 -1.0571 -1.7296
  403MOL0     O53065   5.283   3.642   1.681  0.1569  0.2465  0.0515
  403MOL0     C53066   5.399   3.655   1.720 -1.1593  0.5112 -0.4432
  403MOL0     O53067   5.479   3.551   1.753 -0.6123 -1.1533  1.0381
  403MOL0     C53068   5.425   3.428   1.774  0.1623 -0.6615 -0.3070
  403MOL0     C53069   5.309   3.403   1.852 -0.3415  0.1640  0.3886
  403MOL0     C53070   5.258   3.272   1.861  0.6006  0.0277 -0.1453
  403MOL0     C53071   5.303   3.173   1.776  0.2315  0.3001 -0.1865
  403MOL0     O53072   5.238   3.052   1.782  0.1945 -0.0421 -0.0554
  403MOL0     C53073   5.277   2.938   1.710 -0.3100  0.1227 -0.0684
  403MOL0     C53074   5.169   2.830   1.730  0.0421 -0.8247 -0.2375
  403MOL0     C53075   5.223   2.686   1.711  0.0071 -0.1898  0.5598
  403MOL0     C53076   5.105   2.587   1.696  0.3101 -0.0486  0.1827
  403MOL0     C53077   5.143   2.440   1.660  0.5569  0.3809 -0.3296
  403MOL0     C53078   5.190   2.435   1.514  0.5316 -0.1324  0.6470
  403MOL0     C53079   5.209   2.292   1.479  0.3516  0.0910  0.3514
  403MOL0     C53080   5.286   2.303   1.347 -0.1443  0.1753  0.3576
  403MOL0     N53081   5.430   2.299   1.376  0.2912  0.1979  0.0577
  403MOL0     C53082   5.525   2.400   1.358 -0.0094 -0.4779 -0.5529
  403MOL0     C53083   5.637   2.362   1.425 -0.5484 -0.1029  0.2987
  403MOL0     C53084   5.769   2.435   1.459  0.4286 -0.1465 -0.1745
  403MOL0     C53085   5.785   2.559   1.369  0.3406 -0.7014  0.5513
  403MOL0     C53086   5.928   2.617   1.380  0.5637 -0.2247  0.0161
  403MOL0     C53087   5.925   2.765   1.351 -0.1322 -0.0900  0.0034
  403MOL0     O53088   5.884   2.784   1.222 -1.0101 -0.3887  0.2355
  403MOL0     C53089   5.921   2.905   1.167  0.1056 -0.0927 -0.2998
  403MOL0     C53090   6.056   2.936   1.155  0.0168  0.6151  0.2011
  403MOL0     C53091   6.097   3.060   1.107  0.4577 -0.1535 -0.1527
  403MOL0     C53092   6.003   3.146   1.057  0.3685 -0.1751 -0.0291
  403MOL0     C53093   6.039   3.280   1.000 -0.0572 -0.4135 -0.5586
  403MOL0     O53094   6.170   3.310   0.974  0.1971  0.7932  0.7950
  403MOL0     C53095   6.211   3.440   0.959 -1.0572  0.0718 -0.3213
  403MOL0     C53096   6.185   3.500   0.832  0.5495  0.0882  0.6921
  403MOL0     C53097   6.226   3.623   0.801 -0.8620  0.8509 -0.0181
  403MOL0     C53098   6.300   3.699   0.889 -0.2910 -0.5598 -1.0071
  403MOL0     O53099   6.350   3.832   0.882 -0.2512  0.0537 -0.4144
  403MOL0     C53100   6.288   3.920   0.792  0.9798 -0.1782 -0.1322
  403MOL0     C53101   6.342   3.912   0.651  0.1000  0.5719  0.2459
  403MOL0     C53102   6.241   3.969   0.556  0.3109 -0.3478 -0.4068
  403MOL0     C53103   6.209   4.119   0.570 -0.2912 -0.4137  0.6571
  403MOL0     C53104   6.077   4.153   0.492 -0.6140  0.2261  0.6020
  403MOL0     C53105   6.071   4.168   0.343 -0.2743  0.9336  0.4814
  403MOL0     C53106   6.188   4.237   0.280  0.1749  0.7353 -0.2982
  403MOL0     C53107   6.163   4.249   0.131 -0.6255 -1.4019 -0.4185
  403MOL0    Cl53108   6.238   4.401   0.073  0.1952  0.2069  0.1354
  403MOL0     C53109   6.333   3.646   1.017 -0.9295  0.7880  0.6089
  403MOL0     C53110   6.283   3.515   1.054 -0.5823  0.1181 -0.0696
  403MOL0     O53111   5.948   3.362   1.001  0.0608  0.9652 -0.0942
  403MOL0     C53112   5.867   3.107   1.061  0.0813  0.6668  0.0315
  403MOL0     C53113   5.826   2.986   1.121  0.1916 -0.6507  0.6633
  403MOL0     N53114   5.609   2.232   1.462  0.3062 -0.4298 -0.5134
  403MOL0     N53115   5.486   2.191   1.430 -0.7277  0.1780 -0.0632
  403MOL0     C53116   5.417   3.201   1.694  0.5367  0.1555  0.0594
  403MOL0     C53117   5.475   3.330   1.688 -0.2121  0.4339 -0.3065
  403MOL0     C53118   5.462   3.786   1.697 -0.1481  0.4230 -0.4636
  403MOL0     C53119   5.604   3.786   1.687  0.3251  0.3156 -0.6323
  403MOL0     C53120   5.658   3.909   1.663 -0.3083  0.4054 -0.1069
  403MOL0     C53121   5.585   4.027   1.679  0.0943  0.1948  0.6181
  403MOL0     O53122   5.637   4.149   1.677 -0.2863 -0.5121 -0.1124
  403MOL0     C53123   5.750   4.173   1.763 -0.1187 -0.4030 -0.4980
  403MOL0     C53124   5.811   4.306   1.715  0.0707 -0.5352 -0.0392
  403MOL0     C53125   5.926   4.353   1.804 -0.0090  0.5760  0.0109
  403MOL0     C53126   6.026   4.444   1.732  0.3927  1.2156 -0.8321
  403MOL0     C53127   5.981   4.579   1.741  0.1826  0.5069  0.1556
  403MOL0     C53128   5.945   4.694   1.754 -0.1568  0.2647 -0.9935
  403MOL0     C53129   5.452   4.026   1.695 -0.3881  0.1561 -0.4118
  403MOL0     C53130   5.383   3.900   1.699  0.9350  0.6919  0.1958
  403MOL0     H53131   5.268   3.482   1.914 -1.5284  0.7614 -1.0892
  403MOL0     H53132   5.176   3.266   1.932  0.4363 -0.8450 -0.4031
  403MOL0     H53133   5.378   2.912   1.744 -0.9571 -2.4095  0.1124
  403MOL0     H53134   5.284   2.948   1.601  0.1245  0.4918 -0.0106
  403MOL0     H53135   5.094   2.852   1.653  1.0236 -1.5521 -1.4465
  403MOL0     H53136   5.131   2.831   1.833 -0.6166 -2.2936 -0.4448
  403MOL0     H53137   5.290   2.661   1.794  2.0285 -0.0657 -0.9380
  403MOL0     H53138   5.277   2.705   1.617  1.6370 -0.5943  1.3750
  403MOL0     H53139   5.045   2.586   1.788 -3.0428 -0.8574 -1.8580
  403MOL0     H53140   5.030   2.617   1.622  2.1715 -0.1040 -1.8139
  403MOL0     H53141   5.056   2.375   1.665 -0.6870  2.0910  1.6336
  403MOL0     H53142   5.215   2.396   1.729  0.3641  1.6992  0.7528
  403MOL0     H53143   5.277   2.501   1.507  0.4476 -0.1719 -1.1564
  403MOL0     H53144   5.106   2.484   1.464 -0.0962 -1.1564  0.6692
  403MOL0     H53145   5.269   2.240   1.554  0.4741 -0.1854  0.0644
  403MOL0     H53146   5.109   2.248   1.471 -1.4598  3.5174  2.0356
  403MOL0     H53147   5.266   2.392   1.287  1.2620 -0.4573 -1.1357
  403MOL0     H53148   5.262   2.212   1.292 -0.7183 -2.1224  4.0723
  403MOL0     H53149   5.523   2.499   1.313  0.6920 -0.5757 -0.8219
  403MOL0     H53150   5.856   2.368   1.451  0.3589 -0.4577  1.4520
  403MOL0     H53151   5.769   2.466   1.563  0.7307  0.9997 -0.5020
  403MOL0     H53152   5.712   2.637   1.392 -2.1002 -2.8115  0.5218
  403MOL0     H53153   5.782   2.525   1.265  0.0017  2.0937 -0.4202
  403MOL0     H53154   5.961   2.611   1.484 -0.0199 -2.0086  0.1218
  403MOL0     H53155   5.995   2.564   1.311  0.4056 -2.2306  1.3297
  403MOL0     H53156   6.022   2.812   1.372 -0.3765  0.1664  0.5671
  403MOL0     H53157   5.842   2.817   1.398  1.0912  1.8958  0.0591
  403MOL0     H53158   6.136   2.875   1.197  0.2135 -0.0921 -1.1661
  403MOL0     H53159   6.198   3.099   1.117  0.4360 -0.2075  0.3142
  403MOL0     H53160   6.149   3.426   0.761  0.5983 -0.3252  1.0994
  403MOL0     H53161   6.209   3.660   0.700  2.7897  0.4079 -0.9036
  403MOL0     H53162   6.302   4.022   0.829  0.6486 -0.0591 -0.3310
  403MOL0     H53163   6.179   3.917   0.789  0.9805  0.5894 -1.6436
  403MOL0     H53164   6.377   3.810   0.633  1.0919  0.1413  3.7683
  403MOL0     H53165   6.428   3.979   0.652  0.9062 -0.2351  4.5080
  403MOL0     H53166   6.146   3.918   0.575 -1.6790  3.1156 -0.2100
  403MOL0     H53167   6.281   3.942   0.458  2.0146 -0.9349  0.4229
  403MOL0     H53168   6.199   4.136   0.677  0.1363  0.0671  0.6271
  403MOL0     H53169   6.291   4.184   0.537 -0.2769 -0.2075  1.0959
  403MOL0     H53170   6.035   4.241   0.541 -0.8121  2.5236 -3.3403
  403MOL0     H53171   6.022   4.063   0.521  1.9822 -1.5276  0.4528
  403MOL0     H53172   5.985   4.229   0.314 -0.7612  0.6590  1.3118
  403MOL0     H53173   6.064   4.069   0.297  1.3126 -0.0846  2.3180
  403MOL0     H53174   6.190   4.338   0.321 -0.9259  0.0961  1.4503
  403MOL0     H53175   6.285   4.189   0.298  1.4437  2.6896 -1.6084
  403MOL0     H53176   6.056   4.254   0.107 -0.8095 -1.4435  0.3437
  403MOL0     H53177   6.207   4.162   0.081  0.1891 -1.0081 -0.3940
  403MOL0     H53178   6.402   3.703   1.077 -0.0649  0.6273 -0.2103
  403MOL0     H53179   6.305   3.471   1.151 -3.4877 -3.0922 -0.6521
  403MOL0     H53180   5.789   3.171   1.021  1.0802  0.5637 -2.2276
  403MOL0     H53181   5.719   2.967   1.124  0.1012 -0.1535  0.5604
  403MOL0     H53182   5.461   3.126   1.628  0.7069 -0.7829  1.2147
  403MOL0     H53183   5.565   3.337   1.627 -0.4186 -0.2302 -0.6960
  403MOL0     H53184   5.663   3.696   1.698  0.6590  0.4623 -1.2223
  403MOL0     H53185   5.766   3.914   1.673 -0.1245 -2.0165 -0.3425
  403MOL0     H53186   5.821   4.090   1.752  0.1712 -0.3095  0.5323
  403MOL0     H53187   5.726   4.182   1.870  1.4414 -2.9933  0.1419
  403MOL0     H53188   5.861   4.278   1.621  0.7711 -1.0773  0.4772
  403MOL0     H53189   5.740   4.387   1.694  0.8226  1.0241  2.9217
  403MOL0     H53190   5.975   4.264   1.844 -0.7037  0.4535  0.6040
  403MOL0     H53191   5.904   4.406   1.897  1.6056  2.5263 -0.6437
  403MOL0     H53192   6.109   4.440   1.803 -1.2909 -0.8153  1.2073
  403MOL0     H53193   6.053   4.401   1.636  2.0802 -2.2345  0.9836
  403MOL0     H53194   5.926   4.799   1.756  0.2417  0.3381  1.4992
  403MOL0     H53195   5.387   4.113   1.692 -2.0218 -0.9894  0.1220
  403MOL0     H53196   5.278   3.905   1.729  0.0727  2.6057 -2.6466
  404MOL0     O53197   7.509  11.337   0.994  0.1979  0.0666  0.2224
  404MOL0     C53198   7.544  11.316   1.115 -0.4742 -0.2699  1.0993
  404MOL0     O53199   7.597  11.401   1.203 -0.8004  0.4309  0.0093
  404MOL0     C53200   7.628  11.529   1.167 -0.0824 -0.5337  0.2747
  404MOL0     C53201   7.528  11.622   1.134  0.7354 -0.2931  0.0081
  404MOL0     C53202   7.571  11.749   1.099 -0.6554 -0.9106 -0.1710
  404MOL0     C53203   7.700  11.784   1.079 -0.7147 -0.1818 -0.2751
  404MOL0     O53204   7.742  11.909   1.038 -0.1624 -0.8911 -0.1589
  404MOL0     C53205   7.645  11.993   0.970  0.4060  0.3099 -0.1986
  404MOL0     C53206   7.702  12.023   0.834  0.6378 -0.1308 -0.0931
  404MOL0     C53207   7.648  12.152   0.764 -0.3630 -0.2501 -0.5217
  404MOL0     C53208   7.636  12.142   0.607  0.0589 -0.4468  0.2634
  404MOL0     C53209   7.621  12.271   0.536 -1.0173  0.2411  0.1153
  404MOL0     C53210   7.491  12.340   0.577 -0.0511  1.2036  0.8106
  404MOL0     C53211   7.450  12.461   0.501 -0.7395  0.1551  0.1000
  404MOL0     C53212   7.525  12.592   0.529 -0.8061  0.3894  0.0462
  404MOL0     N53213   7.658  12.604   0.460 -0.1696  0.5569 -0.0107
  404MOL0     C53214   7.783  12.590   0.514  0.4070  0.4429 -0.3302
  404MOL0     C53215   7.864  12.600   0.407  0.1320  0.8567  0.7689
  404MOL0     C53216   8.009  12.618   0.411  0.5355 -0.3575 -0.5915
  404MOL0     C53217   8.064  12.745   0.333  0.0705 -0.0904  0.5862
  404MOL0     C53218   8.212  12.770   0.338  0.2779 -0.6343 -0.3231
  404MOL0     C53219   8.294  12.638   0.303  0.8991  0.0902  0.1431
  404MOL0     O53220   8.435  12.656   0.319  0.6736  0.7456  0.3685
  404MOL0     C53221   8.511  12.555   0.257  0.5813 -0.3392 -0.9554
  404MOL0     C53222   8.629  12.595   0.187  0.2167  0.0656 -0.2784
  404MOL0     C53223   8.714  12.501   0.142  0.1826 -1.2097  0.8403
  404MOL0     C53224   8.684  12.361   0.155  0.7488  1.3712  0.3076
  404MOL0     C53225   8.770  12.262   0.100 -0.3151 -0.0394 -0.5840
  404MOL0     O53226   8.728  12.128   0.116 -0.7037  0.0647 -0.3955
  404MOL0     C53227   8.793  12.020   0.067  0.4795  0.8252 -0.1877
  404MOL0     C53228   8.932  12.010   0.036  0.0258 -0.4642  0.4848
  404MOL0     C53229   8.980  11.895  -0.028  0.5705  0.1651  0.3241
  404MOL0     C53230   8.899  11.780  -0.048 -0.7026 -0.3147 -0.1622
  404MOL0     O53231   8.956  11.673  -0.121 -0.1192  0.1107 -0.3882
  404MOL0     C53232   8.905  11.538  -0.107  0.4215 -0.2626 -0.9505
  404MOL0     C53233   8.975  11.439  -0.213  0.7406 -0.8279  0.1215
  404MOL0     C53234   9.112  11.386  -0.164 -0.2328 -0.1779  0.3597
  404MOL0     C53235   9.219  11.485  -0.190 -0.0942 -1.2125  0.2147
  404MOL0     C53236   9.355  11.438  -0.133  0.7711  0.3478 -0.1543
  404MOL0     C53237   9.420  11.331  -0.228  0.6488 -0.2673 -0.0593
  404MOL0     C53238   9.573  11.348  -0.256  0.7796 -0.0073 -0.3924
  404MOL0     C53239   9.629  11.476  -0.316  0.7893  0.0082 -0.2664
  404MOL0    Cl53240   9.543  11.506  -0.474  0.1354 -0.0837 -0.2732
  404MOL0     C53241   8.762  11.786  -0.010 -0.6228  0.7525  0.3524
  404MOL0     C53242   8.712  11.902   0.046  0.4336 -0.6316  0.2371
  404MOL0     O53243   8.879  12.297   0.050 -0.3610  0.1274  0.6038
  404MOL0     C53244   8.570  12.322   0.226  0.8667 -1.1329 -0.3230
  404MOL0     C53245   8.481  12.422   0.270  0.1542  1.7810 -0.3166
  404MOL0     N53246   7.787  12.606   0.289 -0.0721  0.4542 -0.4654
  404MOL0     N53247   7.662  12.612   0.323  0.7160 -0.8050 -0.4934
  404MOL0     C53248   7.797  11.689   1.105  0.0756  0.0046  0.2918
  404MOL0     C53249   7.759  11.561   1.152 -0.7646  0.5815  0.4425
  404MOL0     C53250   7.505  11.188   1.174 -0.0591  0.1883 -0.7469
  404MOL0     C53251   7.474  11.171   1.312 -0.0077  1.3274  0.5380
  404MOL0     C53252   7.466  11.037   1.366 -0.8110  0.5056 -0.4317
  404MOL0     C53253   7.456  10.926   1.284 -0.3782  0.2942  0.2535
  404MOL0     O53254   7.458  10.808   1.341 -0.2704  0.8667 -0.7343
  404MOL0     C53255   7.502  10.686   1.266  0.8374 -1.4003 -0.3471
  404MOL0     C53256   7.379  10.631   1.183  0.6081 -0.4485  0.0165
  404MOL0     C53257   7.269  10.567   1.271  0.6514 -0.7270 -0.1355
  404MOL0     C53258   7.156  10.513   1.179  0.0532 -0.2465 -0.0939
  404MOL0     C53259   7.206  10.418   1.073 -0.4967  0.2630  0.2885
  404MOL0     C53260   7.255  10.355   0.982  0.1279  0.2797 -0.1454
  404MOL0     C53261   7.486  10.947   1.145 -0.9830 -0.1952 -0.1173
  404MOL0     C53262   7.515  11.069   1.092  0.4641 -0.9673  0.2108
  404MOL0     H53263   7.422  11.605   1.121  0.7274  0.4234 -1.0167
  404MOL0     H53264   7.496  11.827   1.102 -0.4117 -0.7062  1.5523
  404MOL0     H53265   7.629  12.088   1.022 -1.2154 -0.5259  0.9058
  404MOL0     H53266   7.547  11.946   0.952  0.8625 -0.4491 -0.7716
  404MOL0     H53267   7.670  11.950   0.759 -0.5161  1.4152 -1.1859
  404MOL0     H53268   7.811  12.024   0.833  0.6865  2.4835 -0.4260
  404MOL0     H53269   7.708  12.236   0.800 -0.2495 -1.2613  1.8136
  404MOL0     H53270   7.545  12.165   0.800 -1.6024  2.5413 -4.3205
  404MOL0     H53271   7.732  12.104   0.572 -0.7021 -0.5815 -1.8127
  404MOL0     H53272   7.559  12.071   0.576 -0.5086  0.7041 -1.0582
  404MOL0     H53273   7.612  12.245   0.430  0.2892 -3.9423  0.8178
  404MOL0     H53274   7.706  12.336   0.553 -0.5231 -0.2347 -0.5104
  404MOL0     H53275   7.499  12.368   0.682 -2.6635  0.6571  1.2067
  404MOL0     H53276   7.411  12.269   0.555 -0.0110  1.4516 -0.2186
  404MOL0     H53277   7.452  12.446   0.393  0.5297 -0.7659  0.2272
  404MOL0     H53278   7.349  12.484   0.537  0.9633  3.4981  3.4039
  404MOL0     H53279   7.547  12.603   0.636  0.5145  0.9898 -0.2616
  404MOL0     H53280   7.463  12.672   0.490  2.9769  1.5532 -4.5163
  404MOL0     H53281   7.813  12.572   0.616 -1.2642 -1.7862 -0.1468
  404MOL0     H53282   8.054  12.528   0.368  0.0295  0.1444 -2.2435
  404MOL0     H53283   8.040  12.614   0.516 -2.9265  0.2407  0.6089
  404MOL0     H53284   8.012  12.833   0.371  0.1637  2.1710 -3.9157
  404MOL0     H53285   8.031  12.728   0.230  1.4716  0.7230 -0.0233
  404MOL0     H53286   8.236  12.859   0.280 -1.0210 -1.3565 -2.0900
  404MOL0     H53287   8.231  12.788   0.444 -1.9395 -4.2488  0.9084
  404MOL0     H53288   8.269  12.616   0.198  0.8800 -2.0614  0.5431
  404MOL0     H53289   8.254  12.553   0.359  3.1080 -2.0038 -1.2363
  404MOL0     H53290   8.652  12.699   0.167 -0.8428  0.1457 -1.1329
  404MOL0     H53291   8.803  12.538   0.092 -1.4099  0.0857 -1.1714
  404MOL0     H53292   8.996  12.097   0.041 -3.0929  2.2182 -1.7831
  404MOL0     H53293   9.083  11.878  -0.058  0.2313  2.0423 -2.1756
  404MOL0     H53294   8.798  11.546  -0.128 -0.2043  0.2765  2.0138
  404MOL0     H53295   8.932  11.501  -0.008  2.4212  1.9171 -0.5743
  404MOL0     H53296   8.980  11.493  -0.309 -2.6995 -0.1367  0.1851
  404MOL0     H53297   8.919  11.346  -0.223 -1.5533  0.3617  1.0147
  404MOL0     H53298   9.137  11.287  -0.205  1.3750  0.4015 -0.1380
  404MOL0     H53299   9.105  11.371  -0.056 -0.5632  2.0719  0.6942
  404MOL0     H53300   9.239  11.519  -0.292  1.6402  2.2920  1.5628
  404MOL0     H53301   9.203  11.575  -0.130  1.2102 -2.3698  2.4676
  404MOL0     H53302   9.346  11.390  -0.035  1.0584 -1.2591 -0.8965
  404MOL0     H53303   9.426  11.520  -0.113  0.2322  0.3085  2.2624
  404MOL0     H53304   9.377  11.333  -0.329 -1.9966  0.3084  0.9971
  404MOL0     H53305   9.406  11.230  -0.188 -2.7169  0.2791  0.4892
  404MOL0     H53306   9.608  11.322  -0.155 -0.9051 -1.7213 -0.1971
  404MOL0     H53307   9.601  11.263  -0.318 -0.0261 -0.1749 -0.5355
  404MOL0     H53308   9.734  11.454  -0.336  0.1910 -1.4318 -2.0366
  404MOL0     H53309   9.620  11.564  -0.251  2.4790  0.9222 -1.1922
  404MOL0     H53310   8.697  11.699  -0.008  1.4842 -0.8909  1.2236
  404MOL0     H53311   8.607  11.904   0.070 -0.0896 -1.8027 -1.7615
  404MOL0     H53312   8.555  12.218   0.253  2.4861 -1.5408 -0.9157
  404MOL0     H53313   8.390  12.391   0.319 -0.7560  2.5160 -1.4838
  404MOL0     H53314   7.903  11.711   1.108  0.2415 -0.7355  0.0356
  404MOL0     H53315   7.836  11.485   1.146 -2.2110 -0.9800  0.8952
  404MOL0     H53316   7.475  11.244   1.392  1.4221  0.4978  1.3079
  404MOL0     H53317   7.461  11.029   1.474  0.8418  0.7807 -0.3079
  404MOL0     H53318   7.526  10.607   1.337 -1.6112 -1.6882  0.2273
  404MOL0     H53319   7.585  10.717   1.201 -0.0392  2.3259  0.0710
  404MOL0     H53320   7.326  10.703   1.121  0.0321 -1.4987 -0.7601
  404MOL0     H53321   7.434  10.555   1.126  1.9210  0.2911  0.2582
  404MOL0     H53322   7.216  10.628   1.344  0.7036  0.5345 -1.1213
  404MOL0     H53323   7.313  10.491   1.337 -0.0964  0.2588  1.5641
  404MOL0     H53324   7.088  10.458   1.244  0.6904 -0.6610  0.2442
  404MOL0     H53325   7.096  10.595   1.139  0.4094  1.7149  3.0020
  404MOL0     H53326   7.294  10.313   0.891 -0.5361 -1.7497  0.4643
  404MOL0     H53327   7.473  10.863   1.078 -0.4438 -1.7317  1.6204
  404MOL0     H53328   7.546  11.081   0.989  1.7802 -1.1600  0.5652
  405MOL0     O53329   8.540   1.284   9.672  0.2202 -0.4530  0.3403
  405MOL0     C53330   8.482   1.259   9.562  0.8172  1.4740 -0.7342
  405MOL0     O53331   8.378   1.159   9.549  0.1999  0.1475 -0.2691
  405MOL0     C53332   8.314   1.104   9.655  1.7507 -0.1207  0.3726
  405MOL0     C53333   8.355   1.092   9.789 -0.8103 -0.3423  0.3860
  405MOL0     C53334   8.272   1.025   9.882 -0.5236 -0.7500 -0.5995
  405MOL0     C53335   8.148   0.978   9.841 -0.0751 -0.3976 -0.4709
  405MOL0     O53336   8.070   0.932   9.951  0.4751 -0.4167  0.0850
  405MOL0     C53337   7.988   0.816   9.940 -1.1000  0.4464  1.1055
  405MOL0     C53338   7.926   0.787  10.073  0.5911  0.3255 -1.1057
  405MOL0     C53339   7.797   0.864  10.083 -0.3275  0.1733  0.2222
  405MOL0     C53340   7.754   0.862  10.231  1.0417 -0.6289 -1.2254
  405MOL0     C53341   7.616   0.935  10.221  1.1921 -0.1474 -0.3236
  405MOL0     C53342   7.535   0.911  10.349  0.2268  0.5481  0.4600
  405MOL0     C53343   7.484   0.773  10.393  0.6076 -0.1140 -0.5815
  405MOL0     C53344   7.332   0.746  10.358  0.2799 -0.5661 -0.1582
  405MOL0     N53345   7.317   0.699  10.218  0.0976  0.0810  0.5644
  405MOL0     C53346   7.308   0.773  10.104 -0.1171  0.9030  1.3442
  405MOL0     C53347   7.304   0.690  10.005  0.6226 -0.9044  1.1043
  405MOL0     C53348   7.304   0.733   9.864 -0.3461  0.2792 -0.1149
  405MOL0     C53349   7.235   0.630   9.781 -0.4395  0.9422 -0.3478
  405MOL0     C53350   7.341   0.535   9.723 -0.2774  0.8148  1.0816
  405MOL0     C53351   7.269   0.423   9.638 -0.2754  0.1051  0.7970
  405MOL0     O53352   7.362   0.374   9.532  0.2374 -0.1137  0.8692
  405MOL0     C53353   7.485   0.322   9.560 -0.2351 -0.8700  0.6074
  405MOL0     C53354   7.512   0.224   9.659  0.7478  0.1925 -0.1501
  405MOL0     C53355   7.640   0.164   9.665 -0.4383  0.9065  0.3738
  405MOL0     C53356   7.737   0.215   9.576 -0.6010  0.3890  1.0016
  405MOL0     C53357   7.869   0.155   9.584 -0.4867  0.3644 -1.0055
  405MOL0     O53358   7.898   0.111   9.713 -0.3738 -0.2303 -0.1194
  405MOL0     C53359   8.022   0.065   9.747  0.4355  0.0987 -0.3119
  405MOL0     C53360   8.095  -0.032   9.681  0.3070 -0.3139  0.5629
  405MOL0     C53361   8.194  -0.097   9.750  0.3473 -0.1391 -0.0234
  405MOL0     C53362   8.230  -0.063   9.882  0.0844  0.5446 -0.1821
  405MOL0     O53363   8.329  -0.133   9.955  0.0630 -0.2349  0.4251
  405MOL0     C53364   8.441  -0.180   9.881  0.4238 -0.2612  0.5684
  405MOL0     C53365   8.538  -0.061   9.833  0.2386  0.8977 -0.1341
  405MOL0     C53366   8.649  -0.126   9.736 -0.6253  0.7384 -0.2669
  405MOL0     C53367   8.593  -0.166   9.601  0.4368 -0.2714 -0.2935
  405MOL0     C53368   8.699  -0.247   9.528  0.0665 -0.5093  0.3247
  405MOL0     C53369   8.648  -0.295   9.391  0.1141 -0.0863 -0.0987
  405MOL0     C53370   8.603  -0.196   9.289 -0.4337  0.2554  0.3084
  405MOL0     C53371   8.698  -0.074   9.269 -0.2216 -0.5308 -0.6977
  405MOL0    Cl53372   8.636   0.029   9.123 -0.2843  0.5832  0.0938
  405MOL0     C53373   8.165   0.039   9.952 -0.9587 -0.3529  0.1568
  405MOL0     C53374   8.060   0.099   9.880 -0.0832  0.2163  0.1488
  405MOL0     O53375   7.940   0.163   9.490 -0.4614 -0.3191 -0.2163
  405MOL0     C53376   7.707   0.308   9.481 -0.0789  0.1762  0.1264
  405MOL0     C53377   7.581   0.360   9.467 -0.2822  0.0620 -0.6990
  405MOL0     N53378   7.292   0.569  10.051  0.0242  0.8161 -0.1915
  405MOL0     N53379   7.293   0.567  10.182  0.2908  0.4136 -0.5861
  405MOL0     C53380   8.105   0.975   9.709 -0.7858 -0.5089  0.7062
  405MOL0     C53381   8.187   1.043   9.623  0.7664 -1.1934  0.4302
  405MOL0     C53382   8.531   1.322   9.442 -0.0397  0.2951 -0.9644
  405MOL0     C53383   8.652   1.390   9.452 -0.3795  0.2782  0.5981
  405MOL0     C53384   8.705   1.445   9.333 -0.1861 -0.3919 -0.7610
  405MOL0     C53385   8.639   1.434   9.211  0.1341 -0.1012  0.1849
  405MOL0     O53386   8.694   1.484   9.097  1.0524 -0.4367 -0.2309
  405MOL0     C53387   8.615   1.537   8.996 -0.5256 -0.8246  0.2415
  405MOL0     C53388   8.677   1.529   8.859 -1.3510  0.4931  0.8554
  405MOL0     C53389   8.829   1.573   8.843  0.0702 -0.1795  0.0280
  405MOL0     C53390   8.893   1.501   8.726 -0.1013 -0.6054 -1.0550
  405MOL0     C53391   8.892   1.352   8.727  0.0423 -0.8536  0.6838
  405MOL0     C53392   8.886   1.228   8.724 -0.1505  0.1193  0.1541
  405MOL0     C53393   8.512   1.371   9.209 -0.4659 -0.7280 -0.0317
  405MOL0     C53394   8.462   1.317   9.328 -0.6475  0.6046  1.5822
  405MOL0     H53395   8.452   1.122   9.828 -0.6222 -1.0197  0.4502
  405MOL0     H53396   8.309   1.016   9.984 -0.4208 -0.7434 -0.6370
  405MOL0     H53397   8.049   0.730   9.908 -1.8161  0.9014 -1.7598
  405MOL0     H53398   7.922   0.835   9.855  0.9725  2.1419 -0.2350
  405MOL0     H53399   7.986   0.826  10.156 -0.6484  1.8066 -0.8760
  405MOL0     H53400   7.909   0.679  10.087 -1.1204  0.8875  2.1349
  405MOL0     H53401   7.727   0.810  10.020  2.4138 -1.4883 -1.6320
  405MOL0     H53402   7.804   0.970  10.056 -2.9469  1.2190  3.0739
  405MOL0     H53403   7.745   0.760  10.270 -0.9875  0.2067  0.6780
  405MOL0     H53404   7.824   0.916  10.295 -0.3407 -0.4788  0.2126
  405MOL0     H53405   7.552   0.907  10.137  3.4009 -2.3342 -1.4302
  405MOL0     H53406   7.640   1.041  10.209  1.0365 -0.0183  0.4375
  405MOL0     H53407   7.444   0.971  10.342 -0.4190 -0.4147  0.3537
  405MOL0     H53408   7.595   0.958  10.427  0.5813  1.2604 -0.2316
  405MOL0     H53409   7.543   0.686  10.359 -0.7381 -1.0710 -0.5434
  405MOL0     H53410   7.492   0.775  10.502  1.4070 -0.1310 -0.6268
  405MOL0     H53411   7.292   0.847  10.370  3.5973  0.9636 -0.8463
  405MOL0     H53412   7.281   0.673  10.421 -0.6477 -0.2488 -0.5194
  405MOL0     H53413   7.316   0.881  10.100 -1.4315  1.0228  1.4092
  405MOL0     H53414   7.406   0.753   9.832  0.3358  0.5163  2.0404
  405MOL0     H53415   7.243   0.823   9.859 -1.1700 -0.1059  1.8230
  405MOL0     H53416   7.173   0.662   9.696 -1.0585 -2.9881 -1.5877
  405MOL0     H53417   7.172   0.572   9.850  0.9562  0.2417  0.3743
  405MOL0     H53418   7.407   0.603   9.669  0.4088 -0.0494  0.8144
  405MOL0     H53419   7.395   0.489   9.806 -3.2041 -2.1136  1.5941
  405MOL0     H53420   7.176   0.452   9.589  0.5410  1.3749 -0.0439
  405MOL0     H53421   7.252   0.335   9.702  1.4076 -0.0730  1.0418
  405MOL0     H53422   7.435   0.182   9.723  1.9379 -3.6915 -0.9840
  405MOL0     H53423   7.667   0.081   9.729  0.2186 -0.4599 -1.5688
  405MOL0     H53424   8.086  -0.070   9.580  1.9023 -0.7811  0.5545
  405MOL0     H53425   8.244  -0.178   9.699 -1.6540 -0.4441 -1.6231
  405MOL0     H53426   8.414  -0.231   9.788  1.8554  2.9354 -1.8033
  405MOL0     H53427   8.491  -0.248   9.951  0.7012  1.3713  2.0160
  405MOL0     H53428   8.579  -0.006   9.918  3.2020  3.0538 -2.7363
  405MOL0     H53429   8.473   0.005   9.774 -2.2900 -0.6176  0.7978
  405MOL0     H53430   8.694  -0.207   9.794 -1.7171 -0.3010 -0.8413
  405MOL0     H53431   8.723  -0.046   9.718 -0.1852  0.1527 -1.1124
  405MOL0     H53432   8.502  -0.227   9.608 -0.1206  0.6168  0.5973
  405MOL0     H53433   8.558  -0.074   9.553  1.4876  0.9271  1.1413
  405MOL0     H53434   8.735  -0.336   9.583 -2.0109 -1.0071  0.9506
  405MOL0     H53435   8.782  -0.179   9.507 -2.4416  1.4645 -4.6120
  405MOL0     H53436   8.578  -0.377   9.409 -0.2555  0.5972  1.8844
  405MOL0     H53437   8.741  -0.327   9.343  1.3434  4.7485 -1.5951
  405MOL0     H53438   8.596  -0.256   9.198 -0.2076 -0.8184  0.9854
  405MOL0     H53439   8.498  -0.171   9.308 -0.1677 -0.7045  3.6676
  405MOL0     H53440   8.800  -0.112   9.260  0.7391  1.4883  0.7116
  405MOL0     H53441   8.699  -0.021   9.365 -2.3171 -2.9083  0.7422
  405MOL0     H53442   8.190   0.069  10.053 -0.6609  1.8514 -0.5135
  405MOL0     H53443   7.996   0.172   9.928  0.8007 -0.4869  2.5251
  405MOL0     H53444   7.785   0.330   9.409  0.2657 -2.1475 -0.2659
  405MOL0     H53445   7.562   0.433   9.389 -0.5592  2.4281  1.4269
  405MOL0     H53446   8.003   0.945   9.687 -0.5559 -0.6892 -0.1506
  405MOL0     H53447   8.151   1.047   9.521  0.3584  1.7564  0.5952
  405MOL0     H53448   8.705   1.407   9.545  1.2886 -1.8915  0.1269
  405MOL0     H53449   8.811   1.470   9.338 -0.5286  0.8700  1.2683
  405MOL0     H53450   8.616   1.642   9.027 -1.3740 -1.4475  2.5811
  405MOL0     H53451   8.509   1.512   8.981 -0.8667  0.9899 -0.7296
  405MOL0     H53452   8.661   1.427   8.823 -1.2994  0.7698  0.0388
  405MOL0     H53453   8.624   1.597   8.793 -1.2300  0.8849  1.1593
  405MOL0     H53454   8.873   1.537   8.937  0.0255  0.1507  0.1768
  405MOL0     H53455   8.827   1.682   8.838  2.6604 -0.1280 -2.2820
  405MOL0     H53456   8.834   1.525   8.637 -1.5054  0.4304  0.1030
  405MOL0     H53457   8.995   1.538   8.715 -0.2162 -0.1695 -0.7090
  405MOL0     H53458   8.875   1.122   8.712 -2.5780  0.3632 -0.4134
  405MOL0     H53459   8.461   1.368   9.114 -1.6306 -1.1855  0.5910
  405MOL0     H53460   8.373   1.257   9.323  1.7082 -3.1219  0.2085
  406MOL0     O53461   7.637   2.077   4.938  0.3828  0.3506 -0.2381
  406MOL0     C53462   7.744   2.092   4.889 -0.5579 -0.9084 -0.5760
  406MOL0     O53463   7.786   2.192   4.812  0.8696  0.1019 -0.2746
  406MOL0     C53464   7.701   2.285   4.752 -0.8018 -0.0572  1.1879
  406MOL0     C53465   7.563   2.273   4.735  0.2533  0.9912 -0.8559
  406MOL0     C53466   7.490   2.380   4.678  0.4826  0.7576 -0.8736
  406MOL0     C53467   7.559   2.492   4.627 -0.6250 -1.1286 -0.0459
  406MOL0     O53468   7.497   2.588   4.556 -0.3427 -0.1831  0.9851
  406MOL0     C53469   7.480   2.722   4.624  0.3984 -0.7565 -0.2113
  406MOL0     C53470   7.406   2.718   4.756 -0.0778 -0.5650  0.3613
  406MOL0     C53471   7.255   2.692   4.739 -0.0269  0.6960 -0.7819
  406MOL0     C53472   7.168   2.749   4.858 -0.2142  0.2944  0.9593
  406MOL0     C53473   7.035   2.675   4.857  0.2669 -1.0576  0.9373
  406MOL0     C53474   6.953   2.668   4.734 -1.2901 -0.1730 -0.5173
  406MOL0     C53475   6.893   2.803   4.701  0.3107 -0.3127 -0.8566
  406MOL0     C53476   6.861   2.822   4.556 -0.0418 -0.5398  0.1533
  406MOL0     N53477   6.830   2.960   4.518 -0.1614 -0.1755 -0.5001
  406MOL0     C53478   6.723   3.037   4.561 -0.5282 -0.2728  0.0174
  406MOL0     C53479   6.725   3.147   4.483 -0.0519 -0.3604 -0.3192
  406MOL0     C53480   6.640   3.271   4.481 -0.3533 -0.0892 -0.6290
  406MOL0     C53481   6.495   3.248   4.444  0.2651  0.0921  1.5018
  406MOL0     C53482   6.422   3.373   4.402  0.3799  0.0228  0.1233
  406MOL0     C53483   6.275   3.346   4.358 -0.2143  0.2898  0.2576
  406MOL0     O53484   6.216   3.473   4.322  0.2985 -0.2710 -0.4818
  406MOL0     C53485   6.082   3.503   4.326  0.4120  0.8636 -0.0004
  406MOL0     C53486   6.046   3.628   4.258  0.2345  0.6852  0.7167
  406MOL0     C53487   5.908   3.656   4.259  0.1599 -0.9541 -0.1924
  406MOL0     C53488   5.811   3.567   4.321 -1.1541  0.2362  0.7497
  406MOL0     C53489   5.665   3.594   4.318  1.0540  0.3658 -0.2932
  406MOL0     O53490   5.585   3.497   4.383  0.1078  0.6279  0.4328
  406MOL0     C53491   5.455   3.531   4.404 -0.6473 -0.1295  1.0527
  406MOL0     C53492   5.363   3.426   4.376 -0.0836 -0.4189 -0.6517
  406MOL0     C53493   5.226   3.459   4.381 -0.9527  0.1205  0.6697
  406MOL0     C53494   5.185   3.585   4.423  0.3309  0.4059 -0.1973
  406MOL0     O53495   5.052   3.602   4.440  0.4120  0.1109  0.0905
  406MOL0     C53496   4.986   3.727   4.487  1.0080 -0.5333  1.0325
  406MOL0     C53497   4.842   3.695   4.525 -0.0387 -0.3085 -0.3253
  406MOL0     C53498   4.758   3.614   4.427  0.6769  0.7818 -0.3099
  406MOL0     C53499   4.607   3.596   4.441  0.2374 -0.0051  0.0004
  406MOL0     C53500   4.538   3.717   4.383 -0.0261 -0.8012  0.1062
  406MOL0     C53501   4.386   3.709   4.427  0.1000  0.3206  0.3253
  406MOL0     C53502   4.302   3.591   4.374 -0.3325 -0.5441 -1.2536
  406MOL0     C53503   4.155   3.621   4.366 -0.4780 -0.6838 -0.0446
  406MOL0    Cl53504   4.087   3.677   4.515 -0.3075 -0.2706 -0.0597
  406MOL0     C53505   5.282   3.683   4.456 -0.3206  0.3940  0.7102
  406MOL0     C53506   5.414   3.660   4.446  0.3807 -0.2332  0.2102
  406MOL0     O53507   5.620   3.695   4.262 -0.6205 -0.1516  0.3294
  406MOL0     C53508   5.854   3.444   4.377  0.1520 -0.8204  0.3331
  406MOL0     C53509   5.986   3.409   4.368  0.1502  0.2114 -0.3489
  406MOL0     N53510   6.828   3.130   4.396 -0.3971 -0.9048 -0.0675
  406MOL0     N53511   6.897   3.030   4.422  0.2404 -0.3808  0.2736
  406MOL0     C53512   7.695   2.499   4.643 -0.0974 -0.7674 -0.0493
  406MOL0     C53513   7.768   2.400   4.702  0.7897  0.4148 -0.1187
  406MOL0     C53514   7.828   1.982   4.928  0.3595  0.7953  0.3794
  406MOL0     C53515   7.804   1.885   5.024 -1.1776  0.0358  0.0327
  406MOL0     C53516   7.897   1.777   5.047  0.0891 -0.1608 -0.2194
  406MOL0     C53517   8.017   1.772   4.978  0.5923 -0.1121 -0.1011
  406MOL0     O53518   8.101   1.666   5.008 -0.7809 -0.0611 -0.7043
  406MOL0     C53519   8.204   1.632   4.920  0.5619  0.0108  0.7993
  406MOL0     C53520   8.144   1.539   4.802  0.3604  0.5814  1.4609
  406MOL0     C53521   8.259   1.488   4.712 -0.9528  0.4897  0.7180
  406MOL0     C53522   8.198   1.454   4.580 -0.6692  0.7109  0.4076
  406MOL0     C53523   8.174   1.565   4.494 -0.2397  0.5740  0.1771
  406MOL0     C53524   8.150   1.644   4.415 -0.1555  0.6908  0.2280
  406MOL0     C53525   8.044   1.872   4.888 -0.1071  0.4063  0.2520
  406MOL0     C53526   7.946   1.971   4.859  0.3905 -0.0456 -0.5208
  406MOL0     H53527   7.493   2.202   4.777  1.5177  0.9284  1.2608
  406MOL0     H53528   7.382   2.381   4.670  0.5018 -0.3492 -1.3945
  406MOL0     H53529   7.420   2.784   4.557  2.3838  2.1309  0.4962
  406MOL0     H53530   7.565   2.791   4.623 -0.3275  0.3144 -3.8156
  406MOL0     H53531   7.428   2.813   4.805 -1.2961 -0.7993  1.3987
  406MOL0     H53532   7.446   2.635   4.815  1.6875 -0.8995 -1.2062
  406MOL0     H53533   7.237   2.585   4.725 -0.4527  0.6212  0.2875
  406MOL0     H53534   7.218   2.747   4.652  1.0976 -0.2144 -1.8742
  406MOL0     H53535   7.218   2.741   4.955  0.0235 -0.9652  0.7509
  406MOL0     H53536   7.146   2.856   4.855 -2.5037 -0.1249  0.8401
  406MOL0     H53537   6.981   2.719   4.942  1.9723 -0.0577  1.5570
  406MOL0     H53538   7.051   2.569   4.879  0.6432 -1.1672  0.1879
  406MOL0     H53539   6.883   2.586   4.755 -0.8928 -1.4353 -3.6581
  406MOL0     H53540   7.015   2.628   4.653 -0.1206  3.7872 -1.7759
  406MOL0     H53541   6.799   2.793   4.755  0.9862 -6.1001 -0.1473
  406MOL0     H53542   6.948   2.886   4.746 -3.1529  0.3690  2.6893
  406MOL0     H53543   6.781   2.751   4.534 -0.5133 -0.1052  0.4368
  406MOL0     H53544   6.955   2.797   4.506 -0.0992  1.1157 -0.8811
  406MOL0     H53545   6.656   3.016   4.644 -1.5284  1.4983 -0.2978
  406MOL0     H53546   6.681   3.342   4.408 -0.5633  1.9667  1.1531
  406MOL0     H53547   6.647   3.297   4.587  4.0269 -1.3910 -0.3773
  406MOL0     H53548   6.446   3.203   4.530 -2.7983 -0.6183 -0.4509
  406MOL0     H53549   6.498   3.175   4.363  0.2794  1.3843  0.2876
  406MOL0     H53550   6.404   3.431   4.492 -1.1707 -1.1713  0.6288
  406MOL0     H53551   6.473   3.428   4.323  1.0545  0.7654  1.0622
  406MOL0     H53552   6.221   3.297   4.438  1.3493 -0.6514  0.7824
  406MOL0     H53553   6.266   3.276   4.274 -3.2155 -1.0943  1.5921
  406MOL0     H53554   6.122   3.701   4.233  0.8889 -0.0200  0.5952
  406MOL0     H53555   5.880   3.752   4.216  2.1846 -0.7548 -1.1673
  406MOL0     H53556   5.407   3.328   4.358 -2.4449 -1.2790 -2.2051
  406MOL0     H53557   5.152   3.382   4.361  1.5247 -1.8934 -1.2663
  406MOL0     H53558   4.990   3.792   4.400  4.1543  1.6410  2.5952
  406MOL0     H53559   5.043   3.784   4.562  1.7269  1.4313 -0.8912
  406MOL0     H53560   4.795   3.794   4.532  1.0414  0.3182 -1.6260
  406MOL0     H53561   4.859   3.647   4.623  5.5140 -0.0368 -0.8455
  406MOL0     H53562   4.808   3.516   4.429 -1.0882 -0.1790  2.5542
  406MOL0     H53563   4.761   3.656   4.326 -1.6204 -0.8401 -1.1309
  406MOL0     H53564   4.558   3.509   4.397  0.0296 -0.3936  0.9708
  406MOL0     H53565   4.593   3.585   4.549  2.7453 -0.8393  0.2865
  406MOL0     H53566   4.537   3.708   4.274 -2.4487 -0.4434  0.0580
  406MOL0     H53567   4.578   3.813   4.419 -1.5132 -0.8380  2.0772
  406MOL0     H53568   4.340   3.798   4.386 -0.7710  0.5171  1.6582
  406MOL0     H53569   4.359   3.709   4.533 -1.1685  0.3250  0.0171
  406MOL0     H53570   4.334   3.568   4.272 -2.4036  0.8270 -2.2830
  406MOL0     H53571   4.310   3.498   4.431  2.7574  0.1205 -0.4096
  406MOL0     H53572   4.091   3.537   4.337 -2.4830  0.0771  1.8336
  406MOL0     H53573   4.134   3.696   4.289 -2.2165  0.4094  1.3936
  406MOL0     H53574   5.248   3.778   4.495 -0.8234  0.2177  0.7227
  406MOL0     H53575   5.490   3.735   4.470  1.0486 -0.7194 -0.3360
  406MOL0     H53576   5.778   3.381   4.422 -2.8859  2.6698  0.5452
  406MOL0     H53577   6.026   3.310   4.385  1.8121  0.6944 -1.2189
  406MOL0     H53578   7.739   2.590   4.604 -1.9030 -0.4802 -1.5899
  406MOL0     H53579   7.871   2.418   4.730  1.7542 -0.1109 -3.0111
  406MOL0     H53580   7.709   1.894   5.075 -1.0549  0.7780  0.1376
  406MOL0     H53581   7.887   1.693   5.114  1.4241  0.3100  0.6133
  406MOL0     H53582   8.276   1.576   4.980  0.5117 -0.1105  0.7460
  406MOL0     H53583   8.257   1.717   4.876  0.5598  0.8815  2.3666
  406MOL0     H53584   8.092   1.456   4.850  0.4445 -0.5233 -0.2374
  406MOL0     H53585   8.074   1.597   4.741 -1.3712 -1.0657  1.8004
  406MOL0     H53586   8.306   1.399   4.756 -2.1978 -2.4879 -3.4301
  406MOL0     H53587   8.330   1.571   4.704 -0.1889  0.1391  3.1144
  406MOL0     H53588   8.263   1.387   4.523 -0.6896  1.1989 -0.1970
  406MOL0     H53589   8.101   1.404   4.592  0.5908 -3.4665 -3.6691
  406MOL0     H53590   8.115   1.718   4.346 -1.2222 -0.8275 -0.9288
  406MOL0     H53591   8.140   1.875   4.838 -0.4531 -2.4562 -0.7324
  406MOL0     H53592   7.982   2.036   4.780 -0.1557  0.5099 -0.3180
  407MOL0     O53593  10.008   8.706  10.511 -0.0714  0.1081 -0.4189
  407MOL0     C53594   9.967   8.660  10.619 -0.6502  2.0191  0.1732
  407MOL0     O53595   9.909   8.728  10.722  0.0121 -0.5776 -0.6243
  407MOL0     C53596   9.886   8.866  10.698 -0.8627 -0.2798 -0.8649
  407MOL0     C53597   9.982   8.960  10.745  0.3840 -0.2152 -0.3403
  407MOL0     C53598   9.960   9.096  10.737 -0.1898 -0.6225  0.1321
  407MOL0     C53599   9.834   9.146  10.695  0.5440 -0.1242  0.4858
  407MOL0     O53600   9.806   9.279  10.699 -0.0978  0.0973 -0.1191
  407MOL0     C53601   9.883   9.381  10.617 -0.7447  0.3237 -0.7761
  407MOL0     C53602   9.803   9.512  10.602  0.0224  0.0503  0.4044
  407MOL0     C53603   9.665   9.492  10.531  0.3993 -0.5179  1.0531
  407MOL0     C53604   9.596   9.618  10.493  0.3737  0.4356  0.1475
  407MOL0     C53605   9.468   9.579  10.415  0.1287  0.0124  0.7069
  407MOL0     C53606   9.427   9.682  10.309  0.9185  0.4642 -0.7830
  407MOL0     C53607   9.304   9.625  10.247  0.8735  0.5089 -0.5860
  407MOL0     C53608   9.252   9.730  10.141  0.2405 -0.6585  0.3011
  407MOL0     N53609   9.137   9.685  10.056 -0.1342 -0.3698 -0.1610
  407MOL0     C53610   9.005   9.701  10.088 -0.6371  0.2980 -0.5190
  407MOL0     C53611   8.939   9.623  10.004 -0.3290  0.2908  0.7546
  407MOL0     C53612   8.793   9.595  10.016  0.0141  0.5630 -0.4850
  407MOL0     C53613   8.736   9.498   9.913 -0.4692 -0.3100 -0.0393
  407MOL0     C53614   8.614   9.415   9.953 -0.4952 -0.1717 -0.0603
  407MOL0     C53615   8.502   9.485  10.035 -0.6391  0.5775 -0.4386
  407MOL0     O53616   8.459   9.611   9.989  0.4215  0.0583  0.2247
  407MOL0     C53617   8.359   9.688  10.046  0.3303 -1.1766 -0.6104
  407MOL0     C53618   8.227   9.653  10.086  0.0149 -0.2664  1.1562
  407MOL0     C53619   8.157   9.733  10.173  0.1606  1.0281  0.5396
  407MOL0     C53620   8.203   9.860  10.214 -0.3742 -0.2000  0.0367
  407MOL0     C53621   8.125   9.936  10.315  0.2202  0.6655  0.8247
  407MOL0     O53622   8.046   9.864  10.390 -0.1163 -0.7612 -0.7100
  407MOL0     C53623   7.970   9.921  10.487  1.0456 -0.5603 -0.9425
  407MOL0     C53624   7.836   9.887  10.499 -0.4659 -0.0744 -0.4947
  407MOL0     C53625   7.756   9.927  10.606 -0.2023  0.0891  0.4765
  407MOL0     C53626   7.795  10.025  10.695  0.2909  0.0765 -0.1054
  407MOL0     O53627   7.694  10.072  10.779 -0.4611  0.2360 -0.2273
  407MOL0     C53628   7.729  10.129  10.912  0.2074  0.7407  0.5264
  407MOL0     C53629   7.605  10.146  10.983 -0.0673  0.3010  0.8551
  407MOL0     C53630   7.536  10.276  10.947  0.0645 -0.0288 -0.5415
  407MOL0     C53631   7.413  10.312  11.039 -0.5361  0.0567  0.2549
  407MOL0     C53632   7.297  10.209  11.029 -0.6365 -0.1238  0.3134
  407MOL0     C53633   7.171  10.256  11.083  0.2476 -0.3389 -0.4744
  407MOL0     C53634   7.055  10.148  11.093 -0.7136  0.1532 -0.1292
  407MOL0     C53635   6.926  10.214  11.127  0.7895  0.8625 -1.0800
  407MOL0    Cl53636   6.883  10.333  11.002  0.3557 -0.2818  0.1142
  407MOL0     C53637   7.930  10.064  10.698 -0.5300 -0.1478 -0.5472
  407MOL0     C53638   8.013  10.018  10.588 -0.8650 -0.5980 -0.5282
  407MOL0     O53639   8.155  10.053  10.320  0.4352  0.3122 -0.7699
  407MOL0     C53640   8.320   9.903  10.155  0.1290 -0.0485 -0.5091
  407MOL0     C53641   8.403   9.820  10.074  0.1152 -0.0084 -0.4003
  407MOL0     N53642   9.024   9.567   9.911 -0.6759 -0.2385  0.4734
  407MOL0     N53643   9.146   9.607   9.940  0.3936 -0.2695 -1.1874
  407MOL0     C53644   9.737   9.057  10.664 -0.2725 -0.0212 -0.1124
  407MOL0     C53645   9.765   8.924  10.658  0.1538 -0.4916  0.5353
  407MOL0     C53646  10.004   8.518  10.643 -0.7691  0.3930 -0.3679
  407MOL0     C53647  10.005   8.422  10.540  0.7048  0.5851 -0.3880
  407MOL0     C53648  10.034   8.286  10.561  0.1391 -0.1781  0.0222
  407MOL0     C53649  10.067   8.239  10.688 -0.4363  0.6848  1.1377
  407MOL0     O53650  10.106   8.106  10.712 -0.4231  0.7232 -0.0350
  407MOL0     C53651  10.056   8.004  10.622 -0.3497 -0.1986 -0.8776
  407MOL0     C53652   9.948   7.923  10.689  0.2626 -0.3489  0.4861
  407MOL0     C53653   9.977   7.860  10.826 -0.1265  0.2657 -0.1423
  407MOL0     C53654  10.106   7.786  10.828  0.1981  0.1466 -0.3507
  407MOL0     C53655  10.088   7.670  10.737  1.0082  0.1694 -0.0853
  407MOL0     C53656  10.067   7.578  10.666 -0.0295 -0.8944  0.8455
  407MOL0     C53657  10.074   8.331  10.791  0.6433  0.2566 -0.0267
  407MOL0     C53658  10.048   8.465  10.771 -0.2430 -0.8097  0.4908
  407MOL0     H53659  10.064   8.910  10.794  0.8157 -0.5386 -1.3757
  407MOL0     H53660  10.023   9.161  10.797 -2.6378  1.4429  0.6395
  407MOL0     H53661   9.918   9.332  10.526  0.8002 -1.8439  0.8851
  407MOL0     H53662   9.975   9.405  10.671 -1.7603 -0.0685  1.2519
  407MOL0     H53663   9.851   9.593  10.546 -1.1723  0.0403 -0.6743
  407MOL0     H53664   9.800   9.540  10.707 -2.0282 -3.0815  1.3083
  407MOL0     H53665   9.597   9.426  10.587 -3.3291  2.3539  0.2761
  407MOL0     H53666   9.684   9.435  10.440  1.8109 -1.2406  1.7604
  407MOL0     H53667   9.554   9.674  10.577  2.0646  3.1349 -0.6844
  407MOL0     H53668   9.656   9.680  10.426  1.5837 -1.0901 -0.2528
  407MOL0     H53669   9.400   9.538  10.490 -1.9851  0.6975 -0.7258
  407MOL0     H53670   9.496   9.495  10.351  1.1586  0.2570  0.8281
  407MOL0     H53671   9.512   9.722  10.253  1.3702  0.9152  0.2020
  407MOL0     H53672   9.384   9.766  10.365 -1.1005 -1.4669  0.7403
  407MOL0     H53673   9.322   9.532  10.192 -0.4643 -0.8739  1.1673
  407MOL0     H53674   9.224   9.607  10.320  1.7044  1.8939  0.7345
  407MOL0     H53675   9.337   9.739  10.072 -0.6651 -1.8988 -1.0325
  407MOL0     H53676   9.237   9.825  10.192  1.4469  0.6730 -1.6809
  407MOL0     H53677   8.967   9.747  10.178 -1.3893  0.8231 -1.0926
  407MOL0     H53678   8.756   9.698  10.007  3.0754  1.7178 -1.2292
  407MOL0     H53679   8.781   9.557  10.117  2.8463  0.6856 -0.0089
  407MOL0     H53680   8.808   9.418   9.893 -0.5225 -0.3559 -0.0488
  407MOL0     H53681   8.718   9.556   9.822 -0.7292  1.2990  0.9917
  407MOL0     H53682   8.568   9.379   9.860  0.9354 -1.2140 -0.3885
  407MOL0     H53683   8.652   9.323   9.998  1.5511 -0.3767 -2.0153
  407MOL0     H53684   8.551   9.500  10.131  2.3028 -0.6593 -1.6038
  407MOL0     H53685   8.426   9.409  10.056  1.9254 -1.4857  2.1935
  407MOL0     H53686   8.184   9.561  10.049 -0.6492 -0.0570  1.4016
  407MOL0     H53687   8.068   9.698  10.224  1.0959 -2.4567  0.0314
  407MOL0     H53688   7.807   9.810  10.429 -2.0321 -0.2863  0.3342
  407MOL0     H53689   7.655   9.887  10.611  1.4444 -4.6280  0.4428
  407MOL0     H53690   7.772  10.229  10.897 -1.3958  1.1613 -1.9851
  407MOL0     H53691   7.801  10.071  10.970  1.6676  2.2373  0.2882
  407MOL0     H53692   7.642  10.152  11.086 -0.0448  2.0048  0.7715
  407MOL0     H53693   7.537  10.062  10.964  1.4494 -0.8797  0.4957
  407MOL0     H53694   7.504  10.278  10.842  0.5454 -1.7528 -0.7544
  407MOL0     H53695   7.612  10.353  10.965  1.0036 -0.2674 -3.0507
  407MOL0     H53696   7.434  10.334  11.144 -1.4547  0.0053  0.4553
  407MOL0     H53697   7.375  10.404  10.995 -2.2417 -1.5990 -1.9690
  407MOL0     H53698   7.334  10.116  11.073  1.0215 -1.1918 -2.9654
  407MOL0     H53699   7.274  10.182  10.925  0.8231 -2.5662  0.5357
  407MOL0     H53700   7.150  10.337  11.014  3.6886  0.4968 -0.7522
  407MOL0     H53701   7.182  10.297  11.184  1.4979 -1.9242  0.0828
  407MOL0     H53702   7.043  10.086  11.004 -2.1887 -0.4417  0.4440
  407MOL0     H53703   7.073  10.074  11.171 -3.6378 -0.3075  0.2393
  407MOL0     H53704   6.941  10.271  11.220  1.2240  2.5058 -2.1226
  407MOL0     H53705   6.848  10.138  11.140 -1.3936  3.3677  2.4439
  407MOL0     H53706   7.982  10.125  10.771  1.4050 -3.7725  1.4172
  407MOL0     H53707   8.117  10.048  10.581 -0.6989 -1.0594 -0.0921
  407MOL0     H53708   8.355  10.000  10.188  1.7411 -1.3252  1.7679
  407MOL0     H53709   8.507   9.843  10.051  0.3106 -3.4600 -3.8962
  407MOL0     H53710   9.633   9.084  10.647 -0.4001  0.2254  0.9668
  407MOL0     H53711   9.690   8.851  10.631  2.4894 -2.7694 -0.2507
  407MOL0     H53712   9.991   8.463  10.440 -1.4812  2.8442  0.7164
  407MOL0     H53713  10.044   8.231  10.468  2.2997  3.4313 -2.1189
  407MOL0     H53714  10.148   7.951  10.595  1.4509  2.2334  0.0842
  407MOL0     H53715  10.021   8.044  10.526 -0.8037  0.2796 -0.5175
  407MOL0     H53716   9.860   7.985  10.708  1.7457  1.2202  2.7990
  407MOL0     H53717   9.928   7.841  10.619  1.2135  2.3177 -3.2317
  407MOL0     H53718   9.898   7.791  10.859  0.8186  0.2399  2.2491
  407MOL0     H53719   9.980   7.933  10.907 -2.1258  1.2281 -0.8683
  407MOL0     H53720  10.184   7.850  10.786 -2.0982  2.5135 -1.3300
  407MOL0     H53721  10.135   7.749  10.926  0.1843 -0.2638 -0.4993
  407MOL0     H53722  10.039   7.499  10.599 -1.8183 -1.8421  2.5952
  407MOL0     H53723  10.097   8.292  10.890  1.0750 -1.2112 -0.6697
  407MOL0     H53724  10.060   8.535  10.852 -1.5726 -0.5867  0.5221
  408MOL0     O53725   2.875   9.133  10.346 -0.2734  0.0755  0.2968
  408MOL0     C53726   2.874   9.249  10.398  0.2600  1.2924 -0.1504
  408MOL0     O53727   2.781   9.346  10.369  0.5180  0.0831 -0.3337
  408MOL0     C53728   2.654   9.319  10.321  0.2711  0.0259 -0.0267
  408MOL0     C53729   2.594   9.425  10.254  0.4888  0.7116  0.0997
  408MOL0     C53730   2.480   9.396  10.174  0.4983  0.2179 -0.7531
  408MOL0     C53731   2.424   9.268  10.171  0.4023  0.6290  0.9230
  408MOL0     O53732   2.306   9.246  10.103  0.5841 -0.1363 -0.1386
  408MOL0     C53733   2.236   9.346  10.027  0.2565  0.4240 -0.0947
  408MOL0     C53734   2.109   9.282   9.971 -0.3755  0.6521 -1.3034
  408MOL0     C53735   2.150   9.175   9.877  0.5350 -0.3677  0.7137
  408MOL0     C53736   2.028   9.123   9.797  0.2196 -0.1339  0.7872
  408MOL0     C53737   2.065   9.041   9.668  1.4160 -0.3737  0.8830
  408MOL0     C53738   2.146   8.917   9.691  0.1797 -0.3604  0.3600
  408MOL0     C53739   2.102   8.823   9.798  0.1520  0.3574  0.5143
  408MOL0     C53740   2.160   8.696   9.767  1.0216 -0.2569  1.0239
  408MOL0     N53741   2.309   8.703   9.777 -0.0796 -0.0366 -0.4059
  408MOL0     C53742   2.388   8.763   9.870  1.0471 -0.6185  0.9245
  408MOL0     C53743   2.514   8.749   9.825 -0.3307  0.2657 -0.5822
  408MOL0     C53744   2.632   8.815   9.889  0.6885 -0.1470  1.4081
  408MOL0     C53745   2.658   8.959   9.839  0.1028 -0.1250 -0.0618
  408MOL0     C53746   2.532   9.052   9.862  0.5627 -0.3289  0.1405
  408MOL0     C53747   2.585   9.197   9.859 -0.0672  0.4109  0.3092
  408MOL0     O53748   2.668   9.218   9.739 -0.2694 -0.2431  0.9757
  408MOL0     C53749   2.606   9.246   9.620 -0.5149 -0.6450  0.5999
  408MOL0     C53750   2.472   9.270   9.600 -0.5382 -0.1780 -0.7122
  408MOL0     C53751   2.414   9.286   9.469 -0.6157  0.6647  0.4522
  408MOL0     C53752   2.496   9.272   9.350  0.2718  0.2473 -0.5322
  408MOL0     C53753   2.427   9.256   9.221 -0.1625  0.6467  0.0138
  408MOL0     O53754   2.299   9.260   9.206  0.1094  0.8360 -0.2739
  408MOL0     C53755   2.241   9.271   9.079 -0.6661  0.1158 -0.0674
  408MOL0     C53756   2.224   9.398   9.016 -0.8638 -0.0517 -0.4188
  408MOL0     C53757   2.156   9.400   8.890 -0.4604 -0.0613  0.6784
  408MOL0     C53758   2.106   9.283   8.833 -0.3548  0.1550  0.0446
  408MOL0     O53759   2.058   9.280   8.708  0.0952 -1.1000  0.3649
  408MOL0     C53760   1.921   9.334   8.704 -0.4252  0.2592  0.7150
  408MOL0     C53761   1.865   9.325   8.556 -0.3965 -0.3065 -0.9585
  408MOL0     C53762   1.718   9.389   8.552  1.0791 -0.1630 -0.3371
  408MOL0     C53763   1.641   9.350   8.420  0.7252  0.0639 -0.5549
  408MOL0     C53764   1.535   9.452   8.383  0.3560 -0.8907 -0.2235
  408MOL0     C53765   1.434   9.506   8.491 -0.4879  0.2054  0.6269
  408MOL0     C53766   1.318   9.585   8.440  0.0227  0.1641  0.2721
  408MOL0     C53767   1.240   9.646   8.551  0.3589 -0.0344 -0.4713
  408MOL0    Cl53768   1.220   9.520   8.676  0.1087  0.0926 -0.1935
  408MOL0     C53769   2.140   9.157   8.888 -0.7466  0.3254 -0.2712
  408MOL0     C53770   2.215   9.154   9.010  0.1051 -0.3125  0.4072
  408MOL0     O53771   2.508   9.224   9.134  0.3114  0.4773  0.2307
  408MOL0     C53772   2.636   9.255   9.367 -0.2859  0.2469 -0.7682
  408MOL0     C53773   2.683   9.238   9.499 -0.3234 -0.1408  0.2985
  408MOL0     N53774   2.509   8.703   9.697 -0.7349  1.1841  0.2736
  408MOL0     N53775   2.392   8.663   9.682  0.2146 -0.1134 -0.2276
  408MOL0     C53776   2.481   9.161  10.241  0.6146 -0.9216  0.2344
  408MOL0     C53777   2.599   9.191  10.320  0.5246  0.3032  0.4894
  408MOL0     C53778   2.981   9.289  10.483  0.2671 -0.3947  0.0272
  408MOL0     C53779   3.101   9.213  10.479 -0.5968 -0.2830 -0.0463
  408MOL0     C53780   3.210   9.259  10.557 -0.4331 -0.1981 -1.1910
  408MOL0     C53781   3.196   9.361  10.659 -0.8242  0.1189 -0.1033
  408MOL0     O53782   3.275   9.402  10.759  0.6605  0.6483 -0.0221
  408MOL0     C53783   3.409   9.349  10.775 -0.0324 -0.6018  0.8181
  408MOL0     C53784   3.420   9.208  10.824  1.0332  0.0544  0.0672
  408MOL0     C53785   3.551   9.160  10.887 -0.5781 -0.4016  0.3484
  408MOL0     C53786   3.537   9.006  10.903  0.5487  0.2692 -0.4491
  408MOL0     C53787   3.425   8.957  10.992 -0.6851  0.4147  0.1181
  408MOL0     C53788   3.327   8.912  11.049  0.9000  0.2576 -0.4231
  408MOL0     C53789   3.067   9.424  10.670  0.5302  0.7271  1.4194
  408MOL0     C53790   2.966   9.399  10.573 -0.3153 -0.8672  0.3250
  408MOL0     H53791   2.632   9.526  10.244  0.1725  0.8044 -0.2056
  408MOL0     H53792   2.431   9.479  10.124 -2.6381 -0.8074  0.4360
  408MOL0     H53793   2.305   9.357   9.943  0.5384  0.7890  0.1863
  408MOL0     H53794   2.215   9.432  10.091 -1.5714  1.2449 -1.7245
  408MOL0     H53795   2.044   9.359   9.929  0.1789  2.1516  0.4137
  408MOL0     H53796   2.048   9.237  10.050  0.1446  1.1315 -0.6051
  408MOL0     H53797   2.204   9.096   9.929  3.3115  0.4568 -0.6813
  408MOL0     H53798   2.222   9.226   9.812  0.5389  0.2459  1.1905
  408MOL0     H53799   1.980   9.044   9.854 -1.6414 -1.1878 -2.0565
  408MOL0     H53800   1.950   9.197   9.776  1.1484  1.2460  1.9814
  408MOL0     H53801   2.116   9.103   9.594  0.3370  0.8760  1.1586
  408MOL0     H53802   1.967   9.024   9.622  1.4214  3.0713 -0.7687
  408MOL0     H53803   2.251   8.946   9.700 -0.0643  0.8345 -0.4404
  408MOL0     H53804   2.158   8.867   9.595  0.1006 -1.1728  0.7590
  408MOL0     H53805   2.126   8.857   9.899 -1.4465 -1.0502  1.4197
  408MOL0     H53806   1.994   8.804   9.795  0.3555 -1.6965  2.9026
  408MOL0     H53807   2.129   8.666   9.666  2.2180  1.0227  0.2434
  408MOL0     H53808   2.111   8.621   9.830 -1.2989  0.0590 -0.3159
  408MOL0     H53809   2.366   8.834   9.948 -0.6494 -0.8802  0.7155
  408MOL0     H53810   2.712   8.741   9.878  0.0339 -0.5400 -1.7846
  408MOL0     H53811   2.614   8.833   9.995  2.2732  3.1705  1.2638
  408MOL0     H53812   2.675   8.957   9.731 -1.3999 -2.6021 -0.3368
  408MOL0     H53813   2.746   8.997   9.892  0.4768 -1.4264  0.2983
  408MOL0     H53814   2.470   9.043   9.773 -1.4129 -0.2616  1.4521
  408MOL0     H53815   2.479   9.030   9.955  0.1441  0.6259  0.1447
  408MOL0     H53816   2.650   9.203   9.946 -1.0913  3.2380  0.9789
  408MOL0     H53817   2.514   9.279   9.872  0.7917  0.9583  1.7408
  408MOL0     H53818   2.413   9.282   9.690 -0.2936  1.5505 -0.7336
  408MOL0     H53819   2.308   9.299   9.452 -0.1139  1.6247 -2.5059
  408MOL0     H53820   2.252   9.487   9.071  0.9429  1.2818 -3.2444
  408MOL0     H53821   2.135   9.499   8.851  0.7768  0.2982  0.8729
  408MOL0     H53822   1.922   9.438   8.739  1.6076  0.8396 -0.8962
  408MOL0     H53823   1.872   9.256   8.763  1.8608 -1.3471  0.6194
  408MOL0     H53824   1.858   9.218   8.534 -2.4490 -0.7245  1.4416
  408MOL0     H53825   1.949   9.356   8.492  0.4479 -0.5124  0.0195
  408MOL0     H53826   1.732   9.497   8.555  0.5262 -0.1046  1.6508
  408MOL0     H53827   1.652   9.366   8.637 -0.5386  0.0721 -1.4749
  408MOL0     H53828   1.719   9.326   8.348  0.3428 -3.9676  0.1496
  408MOL0     H53829   1.596   9.252   8.439  1.5790 -0.5557 -1.6605
  408MOL0     H53830   1.474   9.415   8.300 -0.6389  0.7957 -0.2875
  408MOL0     H53831   1.587   9.543   8.349 -0.7145  0.1478  0.8297
  408MOL0     H53832   1.490   9.567   8.564 -1.8406 -0.1128  1.9734
  408MOL0     H53833   1.406   9.414   8.542  2.4851 -0.1801  1.8024
  408MOL0     H53834   1.349   9.669   8.377  0.0705 -1.0287 -1.3650
  408MOL0     H53835   1.240   9.525   8.391 -0.0027  1.0819 -0.8553
  408MOL0     H53836   1.142   9.677   8.513  0.7968  0.7683 -0.9673
  408MOL0     H53837   1.286   9.733   8.598  1.6771 -1.3978  0.8819
  408MOL0     H53838   2.106   9.074   8.828 -0.6215 -0.9501  1.3557
  408MOL0     H53839   2.234   9.053   9.043  2.3709  0.7259  2.6855
  408MOL0     H53840   2.715   9.248   9.294  1.6829  1.0064  1.1896
  408MOL0     H53841   2.790   9.230   9.516 -0.2876 -0.0463  0.1284
  408MOL0     H53842   2.435   9.063  10.247  1.2930 -1.3059 -0.7040
  408MOL0     H53843   2.648   9.108  10.370 -0.1216 -0.0547  0.5362
  408MOL0     H53844   3.098   9.117  10.429 -1.7642 -0.6112  0.6148
  408MOL0     H53845   3.307   9.208  10.557  0.5807  1.5923  0.5634
  408MOL0     H53846   3.460   9.421  10.840  0.1945 -0.0748  0.0690
  408MOL0     H53847   3.457   9.349  10.677 -0.6394 -1.8319  0.4970
  408MOL0     H53848   3.342   9.195  10.899 -2.4072  0.8186 -3.1067
  408MOL0     H53849   3.389   9.132  10.752  1.5214 -1.6904  1.6325
  408MOL0     H53850   3.588   9.214  10.975 -1.3860  0.5303  0.1364
  408MOL0     H53851   3.631   9.161  10.813  2.2552 -1.5663  3.1532
  408MOL0     H53852   3.521   8.959  10.806  2.6621 -2.1228  0.2298
  408MOL0     H53853   3.637   8.973  10.934 -0.5350  0.3215  3.7708
  408MOL0     H53854   3.244   8.856  11.087  0.5649  0.1028 -1.3755
  408MOL0     H53855   3.050   9.493  10.751  1.3353  0.7043  1.6193
  408MOL0     H53856   2.869   9.447  10.581 -0.6185 -1.1676 -1.2610
  409MOL0     O53857   2.841  11.092   5.774 -0.1319  0.4648 -0.4224
  409MOL0     C53858   2.857  11.216   5.756 -0.0875  0.6529  0.7034
  409MOL0     O53859   2.962  11.276   5.721 -0.3692  1.0651 -0.2433
  409MOL0     C53860   3.079  11.221   5.751 -0.9309  0.4874  0.0223
  409MOL0     C53861   3.109  11.166   5.873 -0.3678  0.1179  0.5172
  409MOL0     C53862   3.236  11.126   5.898  0.7865  0.7271 -0.2092
  409MOL0     C53863   3.336  11.124   5.799 -0.4984 -0.0989 -0.0443
  409MOL0     O53864   3.448  11.055   5.827 -1.3354 -0.4790  0.4679
  409MOL0     C53865   3.512  11.115   5.942 -0.6189 -0.0678  0.3736
  409MOL0     C53866   3.664  11.118   5.931  0.4989  0.6931 -0.4228
  409MOL0     C53867   3.716  11.196   6.054 -0.1572  0.1589  0.3798
  409MOL0     C53868   3.869  11.209   6.056  0.8868  0.8114 -0.0345
  409MOL0     C53869   3.930  11.293   5.933 -0.4644 -0.4812  0.1268
  409MOL0     C53870   4.087  11.264   5.950  0.1220  0.0780 -0.5314
  409MOL0     C53871   4.170  11.327   5.838  0.1280  0.8203  0.8172
  409MOL0     C53872   4.265  11.413   5.913 -1.1354  0.5462 -0.6259
  409MOL0     N53873   4.369  11.459   5.823  0.4234 -0.2359  0.4220
  409MOL0     C53874   4.500  11.420   5.814 -0.1650  0.2412  0.0071
  409MOL0     C53875   4.561  11.490   5.717 -0.2784 -0.1174 -0.3344
  409MOL0     C53876   4.700  11.480   5.658 -0.5669  0.4246  0.6014
  409MOL0     C53877   4.705  11.481   5.503  0.5431  0.3449 -0.9203
  409MOL0     C53878   4.824  11.401   5.445 -0.8011 -0.1548  0.2199
  409MOL0     C53879   4.792  11.251   5.421  0.4722  0.1767 -0.3695
  409MOL0     O53880   4.904  11.179   5.384 -0.2457 -0.7145  0.6340
  409MOL0     C53881   4.891  11.105   5.278  0.9709  0.1100 -0.3749
  409MOL0     C53882   4.895  10.967   5.286  0.6448 -0.8320  0.1778
  409MOL0     C53883   4.905  10.882   5.179 -0.1658  0.1711 -0.2441
  409MOL0     C53884   4.915  10.931   5.050 -0.7320 -0.3198 -0.6731
  409MOL0     C53885   4.938  10.838   4.939  0.4051  0.3466  0.5889
  409MOL0     O53886   4.906  10.903   4.816 -0.3280 -0.7376  0.2642
  409MOL0     C53887   4.948  10.837   4.702 -0.4650  0.4114 -0.8583
  409MOL0     C53888   4.855  10.809   4.604  0.1335 -0.8567  0.2766
  409MOL0     C53889   4.906  10.756   4.481  0.0843 -0.4202  0.0234
  409MOL0     C53890   5.032  10.715   4.459 -1.0544  0.3465 -0.5770
  409MOL0     O53891   5.067  10.658   4.339  0.2937 -0.8045  0.2128
  409MOL0     C53892   5.163  10.547   4.341 -0.2952 -0.7170  0.4982
  409MOL0     C53893   5.168  10.518   4.191  0.2196  0.5137  0.8124
  409MOL0     C53894   5.048  10.461   4.113  0.0699  0.3798  0.9897
  409MOL0     C53895   4.995  10.332   4.175 -0.2127 -0.0543  0.3554
  409MOL0     C53896   4.906  10.255   4.082 -0.2448  0.4593  0.3496
  409MOL0     C53897   4.841  10.150   4.176  0.2795  0.8600 -0.2224
  409MOL0     C53898   4.755  10.045   4.116  1.2865  0.0020 -0.1007
  409MOL0     C53899   4.597  10.048   4.146  0.3006  0.2589  0.1709
  409MOL0    Cl53900   4.533  10.006   4.300  0.0262  0.0272  0.4849
  409MOL0     C53901   5.123  10.737   4.555 -0.0088 -0.1679  0.4077
  409MOL0     C53902   5.079  10.803   4.675  0.1079  0.2402  0.4591
  409MOL0     O53903   4.991  10.724   4.954 -1.7457 -0.1959 -0.0098
  409MOL0     C53904   4.912  11.075   5.039 -0.0478 -0.8414  0.0519
  409MOL0     C53905   4.900  11.161   5.155 -0.5959 -0.2873  0.4253
  409MOL0     N53906   4.469  11.590   5.688 -0.3814  0.0992  0.2364
  409MOL0     N53907   4.355  11.578   5.749  0.2764 -0.1014 -0.2999
  409MOL0     C53908   3.305  11.182   5.676 -1.0182 -0.5398  0.6310
  409MOL0     C53909   3.173  11.224   5.646  0.8118 -0.0226 -0.2918
  409MOL0     C53910   2.741  11.310   5.748 -0.5331  0.9386  0.5532
  409MOL0     C53911   2.633  11.283   5.825  0.1700 -0.5978 -0.2512
  409MOL0     C53912   2.510  11.348   5.801 -0.9175  0.0737  1.1184
  409MOL0     C53913   2.496  11.439   5.694 -0.2383 -0.0447  0.1892
  409MOL0     O53914   2.377  11.513   5.699 -0.4640  0.1794  0.5224
  409MOL0     C53915   2.353  11.615   5.603  0.1006  0.0542 -0.6834
  409MOL0     C53916   2.331  11.581   5.460 -0.4017 -0.3432  0.1700
  409MOL0     C53917   2.424  11.669   5.376 -0.3359  0.1454  0.5440
  409MOL0     C53918   2.410  11.632   5.230 -0.0835  0.5533 -0.4274
  409MOL0     C53919   2.499  11.515   5.208 -0.1244  0.4199  0.2328
  409MOL0     C53920   2.546  11.407   5.182 -0.4772 -0.6110 -0.0492
  409MOL0     C53921   2.612  11.471   5.621 -0.0805 -0.4744  0.2534
  409MOL0     C53922   2.734  11.404   5.637  0.2885 -1.3051  0.1930
  409MOL0     H53923   3.035  11.181   5.951 -0.9327  3.0927 -0.4509
  409MOL0     H53924   3.252  11.080   5.994  1.8088  0.2945 -0.5748
  409MOL0     H53925   3.477  11.053   6.025  0.0762 -2.4497 -1.0221
  409MOL0     H53926   3.488  11.220   5.962 -0.2614 -0.1017  1.0240
  409MOL0     H53927   3.698  11.160   5.836  1.1884  0.5924 -0.2239
  409MOL0     H53928   3.707  11.017   5.935 -0.3297  0.3441  0.1706
  409MOL0     H53929   3.693  11.141   6.145  1.1048 -2.4271 -0.7674
  409MOL0     H53930   3.657  11.288   6.062 -0.0642  0.1838  0.7857
  409MOL0     H53931   3.902  11.253   6.150  3.0629 -1.1808  0.2164
  409MOL0     H53932   3.914  11.110   6.051  0.2794  0.4419  1.3472
  409MOL0     H53933   3.925  11.402   5.940  2.9943 -0.2874  1.4219
  409MOL0     H53934   3.885  11.262   5.838 -3.6030  1.6681  0.7402
  409MOL0     H53935   4.092  11.154   5.952  2.8032  0.1473  0.0337
  409MOL0     H53936   4.092  11.305   6.051 -1.2489 -1.9734  0.4541
  409MOL0     H53937   4.224  11.251   5.780 -4.3071 -0.8601 -1.5771
  409MOL0     H53938   4.111  11.397   5.779 -2.6886 -0.2583  2.1978
  409MOL0     H53939   4.321  11.359   5.990 -1.1585  0.1055 -0.9149
  409MOL0     H53940   4.218  11.496   5.967 -0.5695 -0.4606  1.5020
  409MOL0     H53941   4.539  11.329   5.858 -3.7918 -1.0514  0.8176
  409MOL0     H53942   4.747  11.387   5.689 -0.8052  0.8381  2.3456
  409MOL0     H53943   4.769  11.552   5.704 -5.3924  3.6737  3.8361
  409MOL0     H53944   4.715  11.588   5.480  1.7420  0.4190 -0.1095
  409MOL0     H53945   4.609  11.446   5.461  0.8567 -0.2098 -1.1834
  409MOL0     H53946   4.855  11.442   5.348  0.2747 -3.8786 -1.1926
  409MOL0     H53947   4.903  11.410   5.520 -0.9143  1.2257  0.1962
  409MOL0     H53948   4.709  11.250   5.350 -1.6940  1.4241  2.0016
  409MOL0     H53949   4.753  11.213   5.515 -1.5507  2.0799 -0.3653
  409MOL0     H53950   4.891  10.934   5.389  2.5015  0.0235  0.5591
  409MOL0     H53951   4.905  10.775   5.198  2.0418 -0.2851 -2.2528
  409MOL0     H53952   4.748  10.826   4.615  0.2063  0.5628 -0.9382
  409MOL0     H53953   4.849  10.742   4.390  2.8064  0.5188 -1.9460
  409MOL0     H53954   5.134  10.452   4.386 -0.3404 -0.9563 -0.0221
  409MOL0     H53955   5.262  10.583   4.371  0.3661  0.1440 -2.4002
  409MOL0     H53956   5.249  10.446   4.179 -1.3655 -1.2566  0.0766
  409MOL0     H53957   5.195  10.608   4.134 -1.2322  0.2861 -0.3047
  409MOL0     H53958   5.077  10.446   4.008 -0.1945  1.6883  0.7154
  409MOL0     H53959   4.976  10.542   4.096  2.0428  1.3828 -4.9078
  409MOL0     H53960   5.074  10.265   4.208  3.2921  2.3487 -2.4019
  409MOL0     H53961   4.948  10.364   4.268 -1.2482  0.5307 -0.3339
  409MOL0     H53962   4.959  10.196   4.006 -1.5984 -0.6540  0.2420
  409MOL0     H53963   4.826  10.318   4.043 -0.4098 -0.6805 -1.2679
  409MOL0     H53964   4.770  10.205   4.239 -1.2367 -1.8400  0.5973
  409MOL0     H53965   4.906  10.097   4.246 -0.8539 -2.0237 -1.1787
  409MOL0     H53966   4.758  10.053   4.007  0.8205  1.6566 -0.0219
  409MOL0     H53967   4.802   9.951   4.146  0.8465  0.9468  4.1576
  409MOL0     H53968   4.554   9.973   4.079  2.4165 -1.4211  0.5751
  409MOL0     H53969   4.561  10.150   4.129  0.6889  0.5928  1.2981
  409MOL0     H53970   5.226  10.706   4.537 -0.5597 -0.0980 -3.8250
  409MOL0     H53971   5.157  10.818   4.749 -0.5272  3.8468  0.5960
  409MOL0     H53972   4.897  11.123   4.943 -1.2547  0.0996  0.6862
  409MOL0     H53973   4.874  11.266   5.142 -0.7454 -0.2953  0.6480
  409MOL0     H53974   3.382  11.180   5.600 -1.3112 -2.8728  0.3201
  409MOL0     H53975   3.140  11.279   5.558  0.9257  0.2816 -0.1438
  409MOL0     H53976   2.637  11.202   5.897 -0.0805 -1.7598 -1.5000
  409MOL0     H53977   2.429  11.326   5.869 -1.2090 -1.7266  0.2475
  409MOL0     H53978   2.429  11.692   5.610 -0.6451  0.9391 -1.8701
  409MOL0     H53979   2.259  11.663   5.633 -0.2117 -1.1358  0.3112
  409MOL0     H53980   2.374  11.481   5.454 -0.6923 -0.4135 -1.2168
  409MOL0     H53981   2.229  11.579   5.419 -1.0087 -2.0790  1.6537
  409MOL0     H53982   2.531  11.666   5.400  0.5197  2.3256 -2.3951
  409MOL0     H53983   2.402  11.775   5.395  3.0871  1.6910 -2.8098
  409MOL0     H53984   2.304  11.608   5.214 -0.0107 -0.6674  0.7958
  409MOL0     H53985   2.434  11.718   5.166  1.5714 -1.0714 -2.1019
  409MOL0     H53986   2.586  11.314   5.146 -1.6928 -1.7216  1.3572
  409MOL0     H53987   2.609  11.536   5.534  1.6769 -0.6758 -0.0110
  409MOL0     H53988   2.818  11.436   5.577 -1.2612  1.6591 -0.5717
  410MOL0     O53989   2.023   9.037   5.895 -0.7891  0.3817 -0.5484
  410MOL0     C53990   2.039   9.116   5.806 -0.5823  0.1249 -0.1979
  410MOL0     O53991   2.021   9.098   5.672 -0.1777 -0.0864 -0.1747
  410MOL0     C53992   1.962   8.981   5.634 -0.0464 -0.3488  0.3081
  410MOL0     C53993   1.835   8.980   5.560 -0.2016  0.5963  1.2301
  410MOL0     C53994   1.772   8.852   5.515 -0.0423 -0.8099 -0.0350
  410MOL0     C53995   1.846   8.730   5.529 -0.1622  0.3476 -0.1360
  410MOL0     O53996   1.784   8.612   5.488 -0.1931 -0.1589 -0.0699
  410MOL0     C53997   1.875   8.518   5.415 -0.5108  0.2353 -0.0761
  410MOL0     C53998   1.780   8.404   5.351 -0.4511 -0.5980 -0.3044
  410MOL0     C53999   1.672   8.457   5.259 -0.2668 -0.5574  0.1530
  410MOL0     C54000   1.585   8.360   5.183 -0.3773  0.4850  0.8769
  410MOL0     C54001   1.441   8.407   5.171  0.2190 -0.4927  0.1981
  410MOL0     C54002   1.433   8.527   5.073 -0.2044  0.7593  0.2143
  410MOL0     C54003   1.295   8.575   5.077 -0.4565  0.7832 -0.7006
  410MOL0     C54004   1.197   8.511   4.979  0.5767 -0.6227  0.3893
  410MOL0     N54005   1.207   8.576   4.846 -0.2051 -0.4610 -0.4510
  410MOL0     C54006   1.257   8.506   4.738  0.0536  0.1914 -0.2727
  410MOL0     C54007   1.289   8.605   4.653  0.1819 -0.6592  0.2133
  410MOL0     C54008   1.364   8.588   4.524  0.5954  0.2066  0.6673
  410MOL0     C54009   1.511   8.550   4.550  0.9869 -0.7465 -0.7234
  410MOL0     C54010   1.579   8.482   4.435 -0.3851 -0.4083 -0.2989
  410MOL0     C54011   1.552   8.336   4.432  0.0942 -0.0936  0.3220
  410MOL0     O54012   1.422   8.300   4.463 -0.1135  0.6207 -0.0791
  410MOL0     C54013   1.389   8.168   4.454  0.3862 -0.7855 -0.2894
  410MOL0     C54014   1.453   8.076   4.375 -0.4660  0.4323  0.1264
  410MOL0     C54015   1.408   7.944   4.372 -0.0632  0.0127  1.4368
  410MOL0     C54016   1.295   7.906   4.438 -0.0376  0.1084 -0.0094
  410MOL0     C54017   1.260   7.760   4.419  0.5457 -0.5495 -0.0112
  410MOL0     O54018   1.161   7.722   4.497  0.3074  0.7000  0.0605
  410MOL0     C54019   1.110   7.595   4.477  0.5737 -0.1435 -0.5966
  410MOL0     C54020   0.982   7.587   4.417  0.3182 -0.6002 -0.2596
  410MOL0     C54021   0.919   7.465   4.393  0.0790  0.6267  0.2596
  410MOL0     C54022   0.972   7.344   4.433 -0.1410  0.3467  0.4267
  410MOL0     O54023   0.889   7.232   4.414  0.2241  0.2778 -0.3406
  410MOL0     C54024   0.930   7.098   4.451 -0.1271 -1.0445  0.4055
  410MOL0     C54025   0.850   6.986   4.375  0.0195  0.4843  0.2131
  410MOL0     C54026   0.849   6.839   4.421  0.3352 -0.1290 -0.2586
  410MOL0     C54027   0.793   6.734   4.329 -0.4668  0.9506 -0.2733
  410MOL0     C54028   0.640   6.733   4.307 -0.3731 -0.4185 -0.4540
  410MOL0     C54029   0.588   6.592   4.333  1.1356 -0.2267  1.0019
  410MOL0     C54030   0.446   6.595   4.288 -0.1825  0.0480  0.5977
  410MOL0     C54031   0.393   6.451   4.279  0.6359  0.0057 -0.5770
  410MOL0    Cl54032   0.232   6.439   4.204 -0.2407 -0.6205 -0.8376
  410MOL0     C54033   1.093   7.344   4.498  0.6350  1.0444 -0.1869
  410MOL0     C54034   1.169   7.470   4.517  0.1646 -0.0558 -0.2841
  410MOL0     O54035   1.319   7.686   4.344 -0.1363  0.1061 -0.6930
  410MOL0     C54036   1.224   8.008   4.509 -0.4897 -0.7823  0.3660
  410MOL0     C54037   1.274   8.140   4.515  0.1242 -0.2860  0.3279
  410MOL0     N54038   1.245   8.731   4.691  0.4287 -0.2801 -1.3228
  410MOL0     N54039   1.195   8.711   4.813  0.6851 -0.0862 -0.0249
  410MOL0     C54040   1.973   8.736   5.597  0.7997  0.1531 -0.1281
  410MOL0     C54041   2.036   8.853   5.643  0.2090 -0.4203 -0.2447
  410MOL0     C54042   2.093   9.254   5.845 -0.3984 -0.2242 -0.3343
  410MOL0     C54043   2.154   9.327   5.747  0.1415  0.3397  1.1523
  410MOL0     C54044   2.207   9.457   5.772  0.1958  0.2776 -0.1861
  410MOL0     C54045   2.192   9.511   5.897 -0.2790 -0.4237  0.2237
  410MOL0     O54046   2.227   9.647   5.913 -0.1839  0.6216  0.5120
  410MOL0     C54047   2.128   9.737   5.970  0.1302  0.0519  0.7839
  410MOL0     C54048   2.026   9.773   5.866 -0.3449 -0.6938  0.5754
  410MOL0     C54049   2.084   9.856   5.739  0.3294  0.4811 -0.2044
  410MOL0     C54050   1.980   9.880   5.627 -0.4400 -0.0957  0.5023
  410MOL0     C54051   1.957   9.763   5.539 -0.2868  0.1415 -0.7532
  410MOL0     C54052   1.907   9.655   5.495 -0.4082 -0.3456  0.0564
  410MOL0     C54053   2.129   9.435   6.000  0.2517 -0.1909  0.5489
  410MOL0     C54054   2.079   9.307   5.978 -0.3914  0.2590  0.8285
  410MOL0     H54055   1.782   9.072   5.537  0.8905  0.6305 -1.5130
  410MOL0     H54056   1.672   8.854   5.474 -1.4707 -2.5413  3.0470
  410MOL0     H54057   1.952   8.478   5.482  1.5175  0.7584 -2.0109
  410MOL0     H54058   1.922   8.565   5.329 -0.5062 -1.6177 -1.1515
  410MOL0     H54059   1.730   8.353   5.434  1.6812  0.0023  1.4508
  410MOL0     H54060   1.852   8.344   5.295 -3.6388 -1.4102 -4.0102
  410MOL0     H54061   1.720   8.517   5.181 -0.4779 -1.3302 -0.5871
  410MOL0     H54062   1.597   8.513   5.316 -2.2179 -0.3920 -2.3640
  410MOL0     H54063   1.625   8.337   5.083 -2.2063  1.3736 -0.1152
  410MOL0     H54064   1.579   8.274   5.250 -2.9097  1.9033  2.5935
  410MOL0     H54065   1.394   8.437   5.265  3.5496  0.8979  1.5661
  410MOL0     H54066   1.387   8.322   5.128  1.1488  0.1162 -2.4060
  410MOL0     H54067   1.463   8.493   4.974 -0.8649 -3.2298  1.1956
  410MOL0     H54068   1.491   8.609   5.116 -0.4644 -0.0187  2.1736
  410MOL0     H54069   1.246   8.562   5.173 -1.7074 -0.0738 -1.4321
  410MOL0     H54070   1.295   8.683   5.058 -1.4196  0.7697 -0.8195
  410MOL0     H54071   1.092   8.524   5.009 -0.0191 -1.2550 -1.3048
  410MOL0     H54072   1.205   8.402   4.976  1.4678 -0.5632  0.3786
  410MOL0     H54073   1.272   8.399   4.726 -0.5087  0.4091 -4.8451
  410MOL0     H54074   1.342   8.676   4.462 -1.1907  0.3981  1.5161
  410MOL0     H54075   1.317   8.501   4.479  2.4868 -0.3771 -0.2825
  410MOL0     H54076   1.516   8.489   4.641 -2.6955  1.9430  1.6045
  410MOL0     H54077   1.564   8.643   4.573 -1.6395  0.2333  2.0449
  410MOL0     H54078   1.558   8.539   4.344 -0.7569  1.7551  1.0540
  410MOL0     H54079   1.687   8.479   4.455  0.0443  0.6744 -2.1911
  410MOL0     H54080   1.622   8.271   4.485 -2.3350 -2.5085  0.7597
  410MOL0     H54081   1.567   8.302   4.329  1.0351  0.7333  0.1649
  410MOL0     H54082   1.538   8.101   4.312  0.4157 -0.0418  1.0971
  410MOL0     H54083   1.452   7.870   4.306 -0.4459 -0.8791  2.1454
  410MOL0     H54084   0.928   7.679   4.396 -0.3200 -0.9539 -0.1833
  410MOL0     H54085   0.819   7.456   4.353  0.0694 -2.5739  0.7390
  410MOL0     H54086   0.904   7.106   4.557  0.7694  1.3274  0.4905
  410MOL0     H54087   1.037   7.082   4.437 -0.2062  0.1788 -1.9907
  410MOL0     H54088   0.892   6.980   4.274 -2.5165 -1.7575 -0.8144
  410MOL0     H54089   0.745   7.013   4.371 -0.7702 -2.1459  1.1499
  410MOL0     H54090   0.788   6.832   4.512  0.4748 -0.3068 -0.1786
  410MOL0     H54091   0.951   6.815   4.452 -0.1138 -6.0647 -2.0127
  410MOL0     H54092   0.844   6.731   4.232 -0.4886 -4.6123 -0.4031
  410MOL0     H54093   0.821   6.639   4.375 -1.9112  0.9485  0.6517
  410MOL0     H54094   0.619   6.764   4.204 -0.4930 -0.9474 -0.5903
  410MOL0     H54095   0.581   6.800   4.370  1.7640  1.0650  0.0868
  410MOL0     H54096   0.604   6.545   4.430 -0.6313 -4.4173 -0.4870
  410MOL0     H54097   0.634   6.527   4.258  1.6270  1.9170 -0.6654
  410MOL0     H54098   0.383   6.646   4.362  0.5779  2.6717 -0.4348
  410MOL0     H54099   0.438   6.644   4.190  0.2134 -1.0453  0.0132
  410MOL0     H54100   0.381   6.408   4.379  0.1638 -1.0663 -1.0805
  410MOL0     H54101   0.461   6.387   4.223  0.9010 -0.1012 -0.1354
  410MOL0     H54102   1.144   7.252   4.526 -0.9780  0.6878  1.8468
  410MOL0     H54103   1.273   7.472   4.549 -0.6915 -1.2686  3.0480
  410MOL0     H54104   1.134   7.989   4.566  0.7121  0.2254  2.7279
  410MOL0     H54105   1.215   8.213   4.569 -3.8671 -0.9687 -2.6031
  410MOL0     H54106   2.031   8.653   5.634  1.8744  1.7967  2.0215
  410MOL0     H54107   2.134   8.850   5.689 -0.7336  1.1981  2.0563
  410MOL0     H54108   2.173   9.283   5.649 -0.1468  1.6487  0.4936
  410MOL0     H54109   2.233   9.526   5.692  1.0657 -0.0117 -0.1655
  410MOL0     H54110   2.173   9.831   6.004 -0.0725  0.3236  0.3137
  410MOL0     H54111   2.078   9.698   6.059 -1.0185  1.1949  0.6746
  410MOL0     H54112   1.975   9.684   5.830  0.7240 -0.7803 -0.8160
  410MOL0     H54113   1.947   9.833   5.912 -0.8757 -1.0156  0.0873
  410MOL0     H54114   2.170   9.816   5.686  2.0269  2.7985  0.6373
  410MOL0     H54115   2.120   9.955   5.770  0.9089  1.4088 -3.4811
  410MOL0     H54116   1.885   9.913   5.668 -1.6362  0.2859 -2.3240
  410MOL0     H54117   2.006   9.962   5.560  0.7644 -0.1691  0.8435
  410MOL0     H54118   1.858   9.569   5.455  0.0407 -1.3512  1.5978
  410MOL0     H54119   2.115   9.479   6.098  1.0175 -2.0192  1.5197
  410MOL0     H54120   2.032   9.258   6.063  1.7598 -1.9077  0.8757
  411MOL0     O54121  10.314   3.011   4.831  0.1648  0.4360 -0.3655
  411MOL0     C54122  10.269   3.002   4.951 -0.6479  0.5344 -0.2737
  411MOL0     O54123  10.141   3.033   4.993 -0.5662  0.1101  0.5437
  411MOL0     C54124  10.047   3.080   4.909 -1.1944  0.5479 -0.7401
  411MOL0     C54125   9.944   3.160   4.968 -0.3274  1.1270  0.3968
  411MOL0     C54126   9.845   3.218   4.896  0.0239  0.5195 -0.2640
  411MOL0     C54127   9.852   3.212   4.759 -0.7703 -0.1228  0.9979
  411MOL0     O54128   9.748   3.270   4.693  0.5605  0.5236  0.3318
  411MOL0     C54129   9.672   3.191   4.605 -0.7708  0.0378  0.7647
  411MOL0     C54130   9.575   3.282   4.526  0.0004  0.1038 -0.1153
  411MOL0     C54131   9.453   3.323   4.613  0.1091 -0.2578  0.3261
  411MOL0     C54132   9.334   3.366   4.525  0.7739  0.3405 -0.3795
  411MOL0     C54133   9.380   3.491   4.451  0.1408  0.5110  0.4455
  411MOL0     C54134   9.269   3.584   4.414  0.2721  0.1469 -1.5951
  411MOL0     C54135   9.326   3.709   4.345 -0.1240 -0.1370  0.5860
  411MOL0     C54136   9.422   3.798   4.416 -0.3414  0.9900 -0.2479
  411MOL0     N54137   9.564   3.757   4.413  1.3236  0.2024 -0.9806
  411MOL0     C54138   9.644   3.725   4.309  0.4724 -0.4760  0.4707
  411MOL0     C54139   9.768   3.692   4.360  0.5357 -0.5688 -0.0403
  411MOL0     C54140   9.900   3.671   4.292  0.1191  0.5589 -0.1554
  411MOL0     C54141   9.964   3.547   4.359  0.0119 -0.5525  0.1474
  411MOL0     C54142   9.887   3.418   4.341 -0.0228  0.5663  0.3608
  411MOL0     C54143   9.923   3.348   4.206  0.1261 -0.5952 -0.5924
  411MOL0     O54144   9.841   3.227   4.196 -0.8487 -0.7014 -0.1265
  411MOL0     C54145   9.907   3.111   4.222  0.2463 -0.4562  0.1870
  411MOL0     C54146   9.863   2.995   4.169 -0.8270  0.5315  0.1434
  411MOL0     C54147   9.937   2.884   4.179  0.1115 -0.0123 -0.3608
  411MOL0     C54148  10.065   2.881   4.249  0.0086  0.4920 -0.8564
  411MOL0     C54149  10.150   2.760   4.246 -0.0649 -0.4998 -0.7175
  411MOL0     O54150  10.096   2.639   4.198  0.5189 -0.3671 -0.1095
  411MOL0     C54151  10.187   2.536   4.215  0.0029  0.3521 -0.2576
  411MOL0     C54152  10.171   2.451   4.328 -0.2564 -0.6180 -0.3068
  411MOL0     C54153  10.268   2.351   4.349  0.1204 -0.2493 -0.0648
  411MOL0     C54154  10.373   2.315   4.258  0.3605  0.0921 -0.3878
  411MOL0     O54155  10.467   2.226   4.294 -0.1541  0.3183  0.6677
  411MOL0     C54156  10.541   2.170   4.188  0.0686  0.3805 -0.7056
  411MOL0     C54157  10.634   2.068   4.257 -0.8069  0.9793  0.1798
  411MOL0     C54158  10.572   1.948   4.327 -0.5047 -0.1467 -0.4553
  411MOL0     C54159  10.517   1.827   4.243  0.2660 -0.4808  0.2216
  411MOL0     C54160  10.622   1.751   4.166 -0.1242 -0.1537 -0.5527
  411MOL0     C54161  10.747   1.712   4.242  0.6101  0.4589  1.1807
  411MOL0     C54162  10.837   1.642   4.147  0.5691  0.1822  0.6707
  411MOL0     C54163  10.791   1.495   4.124  1.0451  0.2343  0.2609
  411MOL0    Cl54164  10.901   1.373   4.208 -0.0480 -0.2479  0.0218
  411MOL0     C54165  10.376   2.397   4.141  0.0199 -0.6782  0.2889
  411MOL0     C54166  10.272   2.497   4.116 -0.8401  0.1280 -0.0086
  411MOL0     O54167  10.265   2.784   4.280 -0.3409 -0.0256  0.3476
  411MOL0     C54168  10.086   2.986   4.329  1.0680  0.0107 -0.3874
  411MOL0     C54169  10.014   3.107   4.316 -0.3021 -0.5229  0.2729
  411MOL0     N54170   9.754   3.715   4.496 -0.5748 -0.3866  0.0842
  411MOL0     N54171   9.636   3.755   4.534 -0.0978 -0.7402  0.6898
  411MOL0     C54172   9.947   3.137   4.689 -0.0092  0.4508 -1.2047
  411MOL0     C54173  10.042   3.067   4.767 -0.5375 -0.1581  0.7955
  411MOL0     C54174  10.356   2.922   5.052 -0.1028  0.2716 -0.2550
  411MOL0     C54175  10.310   2.852   5.163 -1.0767  0.3199 -0.2058
  411MOL0     C54176  10.392   2.763   5.225  0.4476  1.1922 -0.9861
  411MOL0     C54177  10.521   2.748   5.192  0.8284 -0.1375  0.6304
  411MOL0     O54178  10.602   2.641   5.234  0.7985 -0.1720 -0.4711
  411MOL0     C54179  10.556   2.520   5.169  0.1802  0.0272 -0.7394
  411MOL0     C54180  10.628   2.498   5.039 -0.0450 -0.9852  0.5434
  411MOL0     C54181  10.780   2.470   5.064 -0.3229 -0.1637  0.2122
  411MOL0     C54182  10.861   2.507   4.928  0.0491  0.6338  0.5622
  411MOL0     C54183  11.010   2.496   4.938  0.0491 -0.0185  0.4209
  411MOL0     C54184  11.128   2.497   4.949 -0.0855 -0.5570  0.5093
  411MOL0     C54185  10.568   2.829   5.094 -0.3139  0.3591 -0.3514
  411MOL0     C54186  10.489   2.914   5.022  0.1986 -0.1497  0.4599
  411MOL0     H54187   9.954   3.162   5.076  3.0249 -1.2640  0.2657
  411MOL0     H54188   9.763   3.268   4.946 -0.4316 -0.1203 -0.3744
  411MOL0     H54189   9.616   3.125   4.672 -1.0564 -2.2784 -1.6225
  411MOL0     H54190   9.715   3.127   4.528 -0.9268  2.7202 -1.7415
  411MOL0     H54191   9.543   3.228   4.436 -1.3063 -0.8521  0.8960
  411MOL0     H54192   9.633   3.360   4.477  2.8064 -1.4541  0.4870
  411MOL0     H54193   9.488   3.412   4.667  0.0258  2.8244 -4.1334
  411MOL0     H54194   9.430   3.245   4.686 -0.0764  0.0160  0.5651
  411MOL0     H54195   9.308   3.283   4.459  0.1878  0.2836 -0.0875
  411MOL0     H54196   9.252   3.381   4.596  1.4379 -0.0457  0.4868
  411MOL0     H54197   9.439   3.455   4.365  3.3048 -1.3886  3.1634
  411MOL0     H54198   9.460   3.535   4.511 -0.1747  0.0107  1.2564
  411MOL0     H54199   9.223   3.618   4.508  3.8484 -0.0698  0.4106
  411MOL0     H54200   9.189   3.539   4.354 -0.3936 -0.9973  0.0704
  411MOL0     H54201   9.363   3.681   4.246  0.9976 -0.0313  0.9647
  411MOL0     H54202   9.243   3.776   4.320  0.6584  0.4139 -0.6662
  411MOL0     H54203   9.401   3.822   4.521  0.4616  2.0653 -0.3092
  411MOL0     H54204   9.414   3.899   4.374 -0.6078  0.8456 -0.5446
  411MOL0     H54205   9.628   3.729   4.202 -1.1551 -0.8479  0.6747
  411MOL0     H54206   9.964   3.760   4.301 -1.0569  1.3802  0.3323
  411MOL0     H54207   9.893   3.662   4.184  1.9670 -1.9194 -0.1457
  411MOL0     H54208   9.959   3.549   4.468 -1.1258  0.0085  0.1091
  411MOL0     H54209  10.067   3.525   4.330 -0.0337 -2.7193  1.4098
  411MOL0     H54210   9.887   3.343   4.421  0.5718  1.6447  1.4024
  411MOL0     H54211   9.782   3.447   4.349 -0.7303 -2.1513  2.4206
  411MOL0     H54212  10.030   3.324   4.207 -0.2199 -2.4943  1.9863
  411MOL0     H54213   9.905   3.416   4.123  1.5088  0.3769 -0.1347
  411MOL0     H54214   9.781   3.000   4.097  0.0202  0.8538 -0.8197
  411MOL0     H54215   9.916   2.799   4.115 -0.8599 -0.2997  0.3138
  411MOL0     H54216  10.089   2.462   4.398 -1.8849  0.6643 -2.2938
  411MOL0     H54217  10.263   2.283   4.433  1.6741  2.3807  2.3489
  411MOL0     H54218  10.608   2.249   4.152 -1.5595  2.8131  1.3180
  411MOL0     H54219  10.488   2.127   4.102  0.4581 -1.6201 -0.0149
  411MOL0     H54220  10.711   2.113   4.319 -0.0261 -0.9805  0.7256
  411MOL0     H54221  10.687   2.018   4.175 -2.0892  0.6510 -0.4815
  411MOL0     H54222  10.490   1.983   4.391 -0.6541 -0.3592 -0.5259
  411MOL0     H54223  10.647   1.909   4.397 -1.1663  1.3750  1.1804
  411MOL0     H54224  10.455   1.764   4.308  1.5870 -1.4533  0.5792
  411MOL0     H54225  10.443   1.875   4.177  2.1653  0.1519 -1.5492
  411MOL0     H54226  10.655   1.809   4.080  0.4134  0.2972 -0.0505
  411MOL0     H54227  10.578   1.656   4.133  3.3677 -2.2483  0.2090
  411MOL0     H54228  10.725   1.655   4.333 -1.6752 -1.8739 -0.6892
  411MOL0     H54229  10.797   1.802   4.278  0.1972  1.3404 -0.3940
  411MOL0     H54230  10.817   1.683   4.048 -5.5954 -1.5927  0.7446
  411MOL0     H54231  10.940   1.646   4.184  0.6044 -1.3256  0.7821
  411MOL0     H54232  10.786   1.474   4.016  0.8628 -1.6748  0.6014
  411MOL0     H54233  10.690   1.477   4.162  1.9499 -1.9778  1.8084
  411MOL0     H54234  10.464   2.391   4.078  1.0856 -4.0482  1.8229
  411MOL0     H54235  10.265   2.549   4.021 -0.7349 -1.8118 -1.1365
  411MOL0     H54236  10.159   2.979   4.409 -2.0946  0.9304  2.8425
  411MOL0     H54237  10.028   3.200   4.371 -1.1237  0.0859 -0.4974
  411MOL0     H54238   9.943   3.108   4.585  2.9039  1.2341 -1.6401
  411MOL0     H54239  10.108   3.005   4.708  0.0971  1.6981 -0.5123
  411MOL0     H54240  10.203   2.858   5.182 -1.5509 -1.0853 -2.1094
  411MOL0     H54241  10.339   2.690   5.285  1.0632  2.7831  1.6243
  411MOL0     H54242  10.448   2.532   5.160  0.0518 -2.0495 -3.3615
  411MOL0     H54243  10.572   2.431   5.230  0.0180 -0.1114 -0.8994
  411MOL0     H54244  10.590   2.416   4.977 -1.3785  0.6016 -0.8364
  411MOL0     H54245  10.622   2.585   4.974  0.8057 -1.1941  0.1792
  411MOL0     H54246  10.779   2.364   5.093  0.2212 -0.4188 -0.6773
  411MOL0     H54247  10.822   2.522   5.151  1.1857 -1.0501  0.0575
  411MOL0     H54248  10.827   2.444   4.846  1.2567  1.0653 -0.2910
  411MOL0     H54249  10.831   2.604   4.889  2.6706  0.4987 -2.1768
  411MOL0     H54250  11.232   2.494   4.972 -0.1644 -2.7300  0.8835
  411MOL0     H54251  10.675   2.827   5.077  0.3753  0.6382  3.2842
  411MOL0     H54252  10.528   2.960   4.932 -1.6686 -3.2487 -2.1394
  412MOL0     O54253   5.968  11.238   5.119  0.5062  0.5972 -0.4664
  412MOL0     C54254   6.048  11.323   5.077 -0.4296 -1.5119  1.0814
  412MOL0     O54255   6.013  11.450   5.044  0.3078 -0.1060 -0.1248
  412MOL0     C54256   5.881  11.488   5.036 -0.6890 -0.1380  0.2934
  412MOL0     C54257   5.818  11.534   5.151  0.2848  0.0380 -0.4407
  412MOL0     C54258   5.684  11.579   5.157 -0.5289  0.4876 -0.6707
  412MOL0     C54259   5.606  11.559   5.051  0.6381 -0.5191  0.4414
  412MOL0     O54260   5.470  11.595   5.063 -0.4277 -0.3950  0.0677
  412MOL0     C54261   5.382  11.603   4.954  1.0687 -0.9516  0.0266
  412MOL0     C54262   5.241  11.558   4.992 -0.2411  0.3776  0.3482
  412MOL0     C54263   5.131  11.580   4.883  0.4241 -0.1411 -0.5580
  412MOL0     C54264   4.993  11.522   4.943  0.0561  0.2863 -0.0264
  412MOL0     C54265   4.905  11.621   5.020 -0.4606 -0.8192 -0.0275
  412MOL0     C54266   4.900  11.758   4.962 -0.6859 -0.1982  0.2276
  412MOL0     C54267   4.779  11.834   5.022 -0.8644  0.3833  0.7162
  412MOL0     C54268   4.797  11.873   5.167  0.6997 -0.5299  1.0089
  412MOL0     N54269   4.672  11.916   5.227 -0.0982  0.8999  0.6379
  412MOL0     C54270   4.592  11.845   5.314  0.2562 -0.3946  0.3499
  412MOL0     C54271   4.499  11.925   5.344 -0.5585  0.2835 -0.4986
  412MOL0     C54272   4.378  11.880   5.434  0.2925  0.1139 -0.3354
  412MOL0     C54273   4.244  11.884   5.353 -0.9425  0.4245 -0.5994
  412MOL0     C54274   4.146  11.858   5.466 -1.0542  0.2694  0.1385
  412MOL0     C54275   4.006  11.811   5.404  0.1708 -0.8473 -1.2956
  412MOL0     O54276   3.947  11.925   5.335 -1.0654  0.2218  0.5471
  412MOL0     C54277   3.849  11.884   5.252  0.6482  0.7814  1.6309
  412MOL0     C54278   3.883  11.816   5.131  0.2857 -1.0811 -0.7285
  412MOL0     C54279   3.781  11.748   5.061 -0.8948  0.5934  0.9656
  412MOL0     C54280   3.647  11.744   5.109 -0.9963  1.0014 -0.1576
  412MOL0     C54281   3.539  11.669   5.025  0.0114 -0.2039 -0.7584
  412MOL0     O54282   3.585  11.589   4.932  0.0294 -0.2886  0.2314
  412MOL0     C54283   3.507  11.518   4.849  0.8649  0.4912 -0.2694
  412MOL0     C54284   3.484  11.381   4.860 -0.4315  1.1825 -0.4864
  412MOL0     C54285   3.408  11.311   4.764  1.2571 -0.5237 -0.4359
  412MOL0     C54286   3.337  11.384   4.677  1.1451 -0.4643  0.5184
  412MOL0     O54287   3.244  11.320   4.597 -0.0285 -0.7953 -0.1779
  412MOL0     C54288   3.290  11.207   4.522 -0.2453 -0.9768  0.9154
  412MOL0     C54289   3.257  11.074   4.583 -0.6057 -0.6723  0.0352
  412MOL0     C54290   3.105  11.052   4.591 -0.5799  0.1769  0.9336
  412MOL0     C54291   3.060  10.912   4.614  0.3989 -0.9458  0.3286
  412MOL0     C54292   2.916  10.914   4.669  0.3074 -0.0818 -0.5733
  412MOL0     C54293   2.895  10.894   4.819  0.0914 -0.4930 -0.7197
  412MOL0     C54294   2.774  10.940   4.883  0.2860 -0.0143  0.3539
  412MOL0     C54295   2.644  10.899   4.814 -0.1050  0.2097 -0.1238
  412MOL0    Cl54296   2.506  10.946   4.917  0.0877 -0.3425  0.2252
  412MOL0     C54297   3.354  11.522   4.661 -0.2181 -0.3689  0.3390
  412MOL0     C54298   3.437  11.591   4.751  0.1606  0.1863 -0.0783
  412MOL0     O54299   3.420  11.706   5.042  0.1893  0.8729  0.6441
  412MOL0     C54300   3.619  11.822   5.223  0.1906 -0.4903  0.3535
  412MOL0     C54301   3.716  11.885   5.296  0.1153 -1.3631 -0.4102
  412MOL0     N54302   4.502  12.042   5.277  1.4915 -0.6088 -0.1457
  412MOL0     N54303   4.611  12.036   5.201  0.6757 -0.2869  0.2398
  412MOL0     C54304   5.670  11.524   4.928 -0.3243 -1.2619 -0.1060
  412MOL0     C54305   5.804  11.494   4.919 -0.7773  0.5619  0.3768
  412MOL0     C54306   6.188  11.289   5.049 -0.1917 -0.0631 -0.8717
  412MOL0     C54307   6.220  11.155   5.033 -0.1335  0.1898  0.0960
  412MOL0     C54308   6.361  11.123   5.012  0.5848 -0.7227 -0.9438
  412MOL0     C54309   6.460  11.221   5.012  1.0827 -0.1150  0.1831
  412MOL0     O54310   6.587  11.183   5.012 -0.1729  0.9422 -0.7116
  412MOL0     C54311   6.690  11.269   4.980  0.0183  0.4970  0.1824
  412MOL0     C54312   6.814  11.203   4.927 -0.1233 -0.1088  0.3581
  412MOL0     C54313   6.868  11.098   5.019  0.4569 -0.8767  0.1052
  412MOL0     C54314   7.000  11.042   4.971 -0.0927  0.5952 -0.4342
  412MOL0     C54315   7.077  10.996   5.088  0.5414 -0.0595 -0.5951
  412MOL0     C54316   7.117  10.955   5.194  0.8345  0.8624  0.0337
  412MOL0     C54317   6.421  11.357   5.033 -0.1537 -0.5806  0.0907
  412MOL0     C54318   6.281  11.387   5.037  0.0228 -0.2677  0.1638
  412MOL0     H54319   5.872  11.509   5.242 -1.6977  0.3916  0.9033
  412MOL0     H54320   5.654  11.603   5.258 -0.1360  0.1625 -0.4730
  412MOL0     H54321   5.421  11.532   4.881  1.5674 -0.6918  0.0387
  412MOL0     H54322   5.385  11.702   4.909  2.2083 -1.4622 -1.0931
  412MOL0     H54323   5.216  11.615   5.082 -0.0230 -1.2698  1.5000
  412MOL0     H54324   5.243  11.452   5.018  1.8689  0.7392  2.0168
  412MOL0     H54325   5.147  11.538   4.784  0.3980  2.6861 -1.8708
  412MOL0     H54326   5.123  11.688   4.867 -0.1348  0.0732  0.9601
  412MOL0     H54327   4.926  11.500   4.860  2.4381  1.5535 -2.4537
  412MOL0     H54328   5.017  11.435   5.005 -1.5700 -0.2815 -0.1621
  412MOL0     H54329   4.933  11.632   5.125 -4.7850 -2.5889  1.5215
  412MOL0     H54330   4.803  11.582   5.013 -0.6701 -0.6336  1.7119
  412MOL0     H54331   4.884  11.745   4.855 -0.6820 -0.7012  0.2860
  412MOL0     H54332   4.989  11.817   4.984  0.4918 -2.0174  0.5042
  412MOL0     H54333   4.773  11.935   4.982  1.2091  0.2857  0.0429
  412MOL0     H54334   4.686  11.776   5.018 -1.8035  1.7511  1.6222
  412MOL0     H54335   4.873  11.952   5.167 -1.8336  2.0906  0.0582
  412MOL0     H54336   4.824  11.784   5.225  1.0483 -2.3498 -1.7537
  412MOL0     H54337   4.608  11.744   5.351 -2.4217 -0.9498  0.1546
  412MOL0     H54338   4.376  11.951   5.517  2.6424  0.3279 -0.3965
  412MOL0     H54339   4.405  11.784   5.479  2.1329  1.4421  1.5307
  412MOL0     H54340   4.253  11.798   5.287  2.5677  0.2073 -0.0464
  412MOL0     H54341   4.222  11.975   5.296  2.8740  0.9131 -1.5998
  412MOL0     H54342   4.178  11.782   5.538 -0.0455  0.9653  0.4492
  412MOL0     H54343   4.133  11.952   5.521 -1.3439  1.4204 -1.8342
  412MOL0     H54344   3.938  11.792   5.487 -3.6687  0.4137 -3.8937
  412MOL0     H54345   4.026  11.722   5.343 -0.7693 -1.6922 -0.4117
  412MOL0     H54346   3.987  11.806   5.103  1.5205 -0.6528  3.1376
  412MOL0     H54347   3.811  11.703   4.967  2.4651  0.8622  1.7854
  412MOL0     H54348   3.534  11.320   4.935 -0.4548 -2.1194 -2.9137
  412MOL0     H54349   3.399  11.203   4.769  2.7715 -0.6182  1.6062
  412MOL0     H54350   3.398  11.210   4.510 -0.3773  2.1825 -0.6793
  412MOL0     H54351   3.243  11.215   4.423  2.7022  4.5044 -0.4474
  412MOL0     H54352   3.295  11.078   4.685 -2.3752 -1.1542  0.7489
  412MOL0     H54353   3.298  10.988   4.528 -1.4156 -0.8075 -0.3819
  412MOL0     H54354   3.056  11.086   4.500 -0.1612  0.9821  1.0048
  412MOL0     H54355   3.063  11.118   4.668 -0.5080  1.3272  0.0123
  412MOL0     H54356   3.069  10.862   4.517 -0.2336 -4.2052  1.8276
  412MOL0     H54357   3.128  10.869   4.688  2.2239  1.4600  0.1538
  412MOL0     H54358   2.866  10.836   4.610  1.7626 -1.7255  0.2722
  412MOL0     H54359   2.865  11.008   4.644  1.0730  0.1185 -1.4667
  412MOL0     H54360   2.975  10.946   4.873 -0.6546 -0.7594  0.6830
  412MOL0     H54361   2.901  10.787   4.843 -2.0935 -0.9866 -2.0476
  412MOL0     H54362   2.787  10.899   4.984  0.4091 -1.3366 -0.1799
  412MOL0     H54363   2.780  11.050   4.881 -1.3105  0.0946 -1.8118
  412MOL0     H54364   2.641  10.790   4.813 -1.3690  0.2249  0.7415
  412MOL0     H54365   2.634  10.938   4.712 -1.5038  0.9099  0.2628
  412MOL0     H54366   3.310  11.580   4.581  1.9489  1.6021  0.4823
  412MOL0     H54367   3.464  11.696   4.748  2.4983 -0.3919 -1.7493
  412MOL0     H54368   3.517  11.831   5.258 -0.6464  1.1577 -2.2524
  412MOL0     H54369   3.703  11.932   5.393 -1.5507 -0.6562 -0.9449
  412MOL0     H54370   5.616  11.525   4.834 -0.8352  3.3720  0.0178
  412MOL0     H54371   5.854  11.455   4.831  1.5721 -1.9847  2.6215
  412MOL0     H54372   6.158  11.066   5.038 -0.2678  0.0539 -2.5204
  412MOL0     H54373   6.389  11.019   5.018 -0.2017 -0.9537 -1.1054
  412MOL0     H54374   6.727  11.307   5.076 -1.9997 -1.9750  2.0672
  412MOL0     H54375   6.659  11.348   4.911 -1.1267 -0.6510 -0.6512
  412MOL0     H54376   6.792  11.163   4.828  2.6094  0.0130 -0.3617
  412MOL0     H54377   6.896  11.274   4.918  0.6176 -0.8950  0.8258
  412MOL0     H54378   6.800  11.015   5.038  0.9136 -0.6180  3.4858
  412MOL0     H54379   6.869  11.140   5.120 -1.3377 -2.5743  0.8826
  412MOL0     H54380   6.988  10.955   4.906  3.9008 -0.4225 -0.0166
  412MOL0     H54381   7.070  11.113   4.927  1.0883 -1.5457 -2.1747
  412MOL0     H54382   7.155  10.917   5.286  1.2295 -0.7859 -0.7731
  412MOL0     H54383   6.498  11.434   5.023 -0.6887 -0.0199  0.2422
  412MOL0     H54384   6.245  11.489   5.045 -0.1603 -0.3583  0.5197
  413MOL0     O54385   5.402   0.921   1.355  0.4774  0.0897  0.2552
  413MOL0     C54386   5.511   0.907   1.406 -0.3422 -0.2519 -0.1932
  413MOL0     O54387   5.622   0.975   1.374  0.1028  0.1989 -0.3114
  413MOL0     C54388   5.618   1.070   1.273 -0.3888  0.5685 -0.0066
  413MOL0     C54389   5.671   1.197   1.294  0.0227 -0.4183 -0.8915
  413MOL0     C54390   5.662   1.300   1.197  0.5335  0.6042 -0.1242
  413MOL0     C54391   5.635   1.273   1.062  0.4290 -0.7198 -1.0009
  413MOL0     O54392   5.629   1.379   0.980 -0.3897  0.6426  0.6751
  413MOL0     C54393   5.673   1.338   0.849 -0.8587 -0.4029  0.1303
  413MOL0     C54394   5.675   1.454   0.752  1.1174 -0.6312 -0.2222
  413MOL0     C54395   5.763   1.566   0.813  0.6066 -0.2851 -0.3939
  413MOL0     C54396   5.817   1.665   0.712  0.2264 -0.5714 -0.1652
  413MOL0     C54397   5.783   1.803   0.749  0.3174 -0.2133  0.4331
  413MOL0     C54398   5.831   1.904   0.646  0.3059  0.1056 -1.2729
  413MOL0     C54399   5.858   2.040   0.701  0.7154 -0.0171  1.0240
  413MOL0     C54400   5.908   2.150   0.598 -0.5626  0.6887  0.2105
  413MOL0     N54401   5.973   2.263   0.682 -0.0097  0.3952  0.3686
  413MOL0     C54402   5.902   2.352   0.757  0.6864 -0.9189  0.7474
  413MOL0     C54403   5.996   2.425   0.818 -0.4082  0.2629  0.1616
  413MOL0     C54404   5.976   2.530   0.923  0.3851  0.0192  0.1459
  413MOL0     C54405   6.067   2.650   0.905 -0.9733  0.1705 -1.0326
  413MOL0     C54406   6.045   2.751   0.786  0.0939  0.3879  0.1025
  413MOL0     C54407   6.154   2.859   0.794 -0.1423 -0.7470 -0.3782
  413MOL0     O54408   6.160   2.955   0.684 -0.3031  0.1142  0.4368
  413MOL0     C54409   6.249   3.062   0.663  1.0249 -0.2479 -0.0866
  413MOL0     C54410   6.326   3.105   0.771 -0.4091  0.3049 -0.7649
  413MOL0     C54411   6.432   3.197   0.750 -0.5178  0.2294 -0.2599
  413MOL0     C54412   6.452   3.260   0.628 -0.8934 -0.0835 -0.0862
  413MOL0     C54413   6.563   3.369   0.621  0.7437 -0.0163 -0.1891
  413MOL0     O54414   6.570   3.447   0.512 -0.1973 -0.8721  0.1214
  413MOL0     C54415   6.663   3.551   0.495  1.1653 -0.2943 -1.0214
  413MOL0     C54416   6.654   3.670   0.576 -0.6900 -0.4681 -0.3967
  413MOL0     C54417   6.731   3.783   0.540  0.8818  0.4406  0.2928
  413MOL0     C54418   6.822   3.776   0.435  0.3757 -0.0536 -0.8428
  413MOL0     O54419   6.891   3.895   0.410  0.1678 -0.1862 -0.2837
  413MOL0     C54420   6.969   3.890   0.291 -0.1384 -1.8901 -0.5584
  413MOL0     C54421   7.051   4.016   0.290  0.3015 -0.2302 -0.2023
  413MOL0     C54422   6.985   4.156   0.269  0.1257 -0.3777 -0.8851
  413MOL0     C54423   6.907   4.193   0.395  0.0292  1.2659 -0.2386
  413MOL0     C54424   6.858   4.346   0.388 -0.4122 -0.5507 -0.2772
  413MOL0     C54425   6.734   4.353   0.298 -0.4296 -0.2432  0.6338
  413MOL0     C54426   6.691   4.502   0.285  0.0333 -0.4944 -0.7713
  413MOL0     C54427   6.568   4.522   0.187  0.8447  0.3479 -0.1728
  413MOL0    Cl54428   6.602   4.437   0.037  0.1972 -0.1090 -0.5168
  413MOL0     C54429   6.827   3.658   0.351  0.1174  0.0606 -0.1633
  413MOL0     C54430   6.746   3.551   0.380  0.4314 -0.0497 -0.6639
  413MOL0     O54431   6.636   3.378   0.726  0.4923 -0.3605  0.8006
  413MOL0     C54432   6.372   3.217   0.518 -0.9030 -0.4291 -0.6025
  413MOL0     C54433   6.272   3.111   0.539  0.2997 -1.1513  0.1753
  413MOL0     N54434   6.120   2.365   0.793 -1.2524  0.4749 -0.4332
  413MOL0     N54435   6.105   2.267   0.709  0.6498  0.6209 -0.1401
  413MOL0     C54436   5.602   1.137   1.037 -0.0592  0.9639 -0.6946
  413MOL0     C54437   5.585   1.043   1.141 -0.1567 -0.4583 -0.3403
  413MOL0     C54438   5.519   0.794   1.501 -0.4936  0.3955 -0.5716
  413MOL0     C54439   5.647   0.751   1.540 -0.1219  0.3398 -0.5479
  413MOL0     C54440   5.665   0.652   1.633 -0.1060  1.9564  0.4945
  413MOL0     C54441   5.557   0.591   1.691  0.4688 -0.4729  0.7664
  413MOL0     O54442   5.551   0.484   1.779  0.4176 -0.1328  0.5270
  413MOL0     C54443   5.648   0.490   1.875 -0.3190  0.1138 -0.1843
  413MOL0     C54444   5.724   0.356   1.887 -0.6880  0.3028 -0.6579
  413MOL0     C54445   5.650   0.222   1.886  1.3511  0.1802  0.0032
  413MOL0     C54446   5.733   0.103   1.947 -0.5967 -1.6098  0.3096
  413MOL0     C54447   5.664  -0.017   1.931  1.4496 -0.1398  0.3469
  413MOL0     C54448   5.604  -0.122   1.926  0.6913 -0.3462 -0.2951
  413MOL0     C54449   5.430   0.622   1.645 -0.1110  0.7152 -0.3188
  413MOL0     C54450   5.413   0.726   1.557  0.3367 -0.9463 -0.0458
  413MOL0     H54451   5.706   1.217   1.395 -0.0949  1.4662 -1.1977
  413MOL0     H54452   5.673   1.401   1.236 -2.1730  0.0076  2.5776
  413MOL0     H54453   5.596   1.270   0.811  0.1215 -0.9322 -0.9687
  413MOL0     H54454   5.775   1.303   0.865  0.3027  2.7519  0.4162
  413MOL0     H54455   5.571   1.488   0.741  1.3300 -0.6904 -3.1532
  413MOL0     H54456   5.719   1.415   0.660 -1.2954  1.1011 -2.2668
  413MOL0     H54457   5.859   1.533   0.854  1.5350  3.2768  0.6252
  413MOL0     H54458   5.703   1.605   0.896  0.7858 -2.0489  0.6197
  413MOL0     H54459   5.926   1.665   0.700  0.1596  2.8718 -2.0535
  413MOL0     H54460   5.781   1.641   0.611 -2.6424 -2.1460  1.0910
  413MOL0     H54461   5.821   1.835   0.846  1.5164  0.1909 -0.1565
  413MOL0     H54462   5.674   1.813   0.758  0.1388 -1.3141 -0.2321
  413MOL0     H54463   5.752   1.918   0.571 -0.7418  0.4570 -0.1334
  413MOL0     H54464   5.923   1.876   0.594  1.4262  2.3270 -0.6362
  413MOL0     H54465   5.765   2.079   0.744  0.7152  2.7489 -1.1793
  413MOL0     H54466   5.923   2.042   0.789  1.6696 -0.4632  0.3407
  413MOL0     H54467   5.828   2.194   0.539 -0.5086 -0.3209 -0.6548
  413MOL0     H54468   5.982   2.104   0.531 -2.1926 -0.0907 -1.1193
  413MOL0     H54469   5.797   2.379   0.764  0.8170  0.4077 -1.5060
  413MOL0     H54470   6.008   2.483   1.017  1.3976  2.1594  0.9374
  413MOL0     H54471   5.867   2.541   0.918  0.3187 -0.1744  0.9959
  413MOL0     H54472   6.169   2.610   0.906  0.1041  2.7015 -0.4314
  413MOL0     H54473   6.060   2.708   0.997  1.8090  0.0628 -0.6613
  413MOL0     H54474   6.055   2.688   0.697  1.1887  0.4756  0.1440
  413MOL0     H54475   5.947   2.799   0.790  0.0102  0.1885  3.0989
  413MOL0     H54476   6.254   2.814   0.804 -1.1124 -3.0860 -0.6822
  413MOL0     H54477   6.125   2.916   0.883  1.8217  0.8440 -0.6594
  413MOL0     H54478   6.307   3.066   0.871 -0.4872  0.3211 -0.7737
  413MOL0     H54479   6.489   3.222   0.839  1.0577 -3.4801 -0.0511
  413MOL0     H54480   6.585   3.666   0.659 -0.6218 -2.7584 -0.3838
  413MOL0     H54481   6.729   3.872   0.603 -3.3436 -0.5003  1.8625
  413MOL0     H54482   6.916   3.890   0.195 -1.0675  2.6100 -0.2512
  413MOL0     H54483   7.045   3.812   0.299 -1.3442 -3.0659 -0.1224
  413MOL0     H54484   7.119   3.981   0.212 -0.5252 -1.1601 -0.5257
  413MOL0     H54485   7.096   4.024   0.389 -3.2520  4.0723  1.4258
  413MOL0     H54486   6.923   4.157   0.179 -0.3192  0.2282 -0.5773
  413MOL0     H54487   7.063   4.232   0.262 -1.8210  1.7887 -0.2394
  413MOL0     H54488   6.817   4.130   0.399 -0.5198  2.0797  2.1243
  413MOL0     H54489   6.974   4.177   0.479  1.1879 -0.4551 -1.4204
  413MOL0     H54490   6.931   4.422   0.358  1.7924 -1.2722  2.7932
  413MOL0     H54491   6.840   4.390   0.486  2.1244  1.3281 -0.5539
  413MOL0     H54492   6.644   4.296   0.321 -0.0825 -1.0731 -0.0150
  413MOL0     H54493   6.773   4.316   0.203 -0.4644 -0.2783  0.6334
  413MOL0     H54494   6.660   4.545   0.380  0.4274  1.6946 -1.5624
  413MOL0     H54495   6.776   4.571   0.273 -0.3840  0.0760 -0.4812
  413MOL0     H54496   6.537   4.626   0.173 -2.9705 -0.8397 -1.9782
  413MOL0     H54497   6.482   4.474   0.235  1.7924 -0.9112  0.3194
  413MOL0     H54498   6.885   3.643   0.260  1.7783  2.6226  0.3715
  413MOL0     H54499   6.749   3.468   0.311 -0.0060 -0.8584  0.2770
  413MOL0     H54500   6.395   3.247   0.416  0.2295 -0.7248 -0.4546
  413MOL0     H54501   6.223   3.067   0.453  5.7485  0.4487 -4.2754
  413MOL0     H54502   5.569   1.095   0.942 -0.2227 -1.4910  0.3905
  413MOL0     H54503   5.546   0.946   1.113  0.0695 -0.9135  0.8760
  413MOL0     H54504   5.733   0.791   1.487  1.3640  0.7346  1.9729
  413MOL0     H54505   5.766   0.621   1.655 -0.4693  2.7206  3.8328
  413MOL0     H54506   5.621   0.509   1.979  0.0705  0.8591 -0.2083
  413MOL0     H54507   5.709   0.580   1.860 -1.0142  1.0396  2.1539
  413MOL0     H54508   5.811   0.342   1.822 -0.9701 -3.4418 -0.4776
  413MOL0     H54509   5.779   0.362   1.981  0.7746  1.9482 -1.5704
  413MOL0     H54510   5.612   0.201   1.785  2.5407  0.8366 -0.6110
  413MOL0     H54511   5.563   0.240   1.950  0.3942 -2.1663 -0.5337
  413MOL0     H54512   5.827   0.088   1.892  0.1156 -0.2316  1.1150
  413MOL0     H54513   5.755   0.123   2.052  1.8553 -1.3760 -0.1738
  413MOL0     H54514   5.538  -0.204   1.904 -2.3251  2.0354 -0.7373
  413MOL0     H54515   5.343   0.568   1.682 -1.2933  0.9630 -2.6117
  413MOL0     H54516   5.309   0.746   1.532  0.8095 -0.5575 -1.8719
  414MOL0     O54517   2.004   2.012   4.826  0.1515  0.0504  0.1521
  414MOL0     C54518   2.046   1.909   4.883  0.1059  0.7475 -0.0040
  414MOL0     O54519   2.171   1.851   4.877  0.6264 -0.6538 -0.6978
  414MOL0     C54520   2.264   1.922   4.817 -1.3421  1.0064  0.3922
  414MOL0     C54521   2.315   2.037   4.866  0.4017  0.3310  0.0907
  414MOL0     C54522   2.428   2.087   4.813 -1.1574 -0.7406  0.0490
  414MOL0     C54523   2.475   2.029   4.691 -0.0466 -0.7118  0.1734
  414MOL0     O54524   2.572   2.107   4.622 -0.2422 -0.3315 -0.6096
  414MOL0     C54525   2.673   2.040   4.540  0.4178 -0.4007  0.8085
  414MOL0     C54526   2.783   2.144   4.529  0.4564  0.3748  1.1221
  414MOL0     C54527   2.839   2.163   4.381  0.1564  0.6096 -0.1898
  414MOL0     C54528   2.913   2.045   4.332 -0.5739  0.6493  0.1979
  414MOL0     C54529   3.036   2.073   4.245 -0.6402 -0.3771  0.1260
  414MOL0     C54530   3.164   2.074   4.326  0.8142 -0.2782  0.3991
  414MOL0     C54531   3.292   2.090   4.234  0.4724 -0.3269  0.0554
  414MOL0     C54532   3.414   2.121   4.326 -0.2663 -1.0176  0.4972
  414MOL0     N54533   3.395   2.248   4.391 -0.2416 -0.5635 -0.0330
  414MOL0     C54534   3.347   2.281   4.511 -0.1605  0.5474  0.0047
  414MOL0     C54535   3.353   2.415   4.516 -0.5254 -0.5595  0.3002
  414MOL0     C54536   3.322   2.509   4.628  0.1606  0.2771 -0.7335
  414MOL0     C54537   3.183   2.463   4.689  0.3915  0.3297  0.4349
  414MOL0     C54538   3.059   2.524   4.612  0.5162 -0.3661  0.2962
  414MOL0     C54539   2.940   2.514   4.705  0.1056 -0.3965  0.7854
  414MOL0     O54540   2.815   2.549   4.627 -0.0813 -0.0006 -0.4466
  414MOL0     C54541   2.702   2.504   4.681 -0.2296 -0.7049  0.8058
  414MOL0     C54542   2.687   2.469   4.809 -0.6320  0.1629  0.1349
  414MOL0     C54543   2.563   2.425   4.854 -0.8325  0.3627 -0.5906
  414MOL0     C54544   2.443   2.436   4.781 -0.4704 -0.0537 -0.2207
  414MOL0     C54545   2.304   2.417   4.827  0.0768 -0.1007 -0.2494
  414MOL0     O54546   2.292   2.387   4.957 -0.2313  0.8977 -0.7955
  414MOL0     C54547   2.171   2.370   5.020  0.3112 -0.1155 -0.7045
  414MOL0     C54548   2.078   2.273   4.976  0.0529 -0.4088 -0.0318
  414MOL0     C54549   1.956   2.280   5.043  0.9018 -0.1008 -0.0999
  414MOL0     C54550   1.923   2.361   5.149 -0.3714 -0.7576 -0.5461
  414MOL0     O54551   1.801   2.351   5.218  0.1577  0.5335 -0.3081
  414MOL0     C54552   1.785   2.250   5.318 -0.1094  0.8990 -0.0072
  414MOL0     C54553   1.654   2.185   5.313 -0.2495 -0.3203  0.0599
  414MOL0     C54554   1.630   2.093   5.197 -0.3126 -0.4011 -0.1528
  414MOL0     C54555   1.510   2.002   5.220  1.1559  0.3278 -0.1038
  414MOL0     C54556   1.543   1.891   5.318 -0.1333 -0.4673 -0.4932
  414MOL0     C54557   1.452   1.769   5.316  0.8568  0.6848 -0.4006
  414MOL0     C54558   1.305   1.800   5.359 -0.1376  0.9518 -0.2899
  414MOL0     C54559   1.223   1.690   5.416 -0.4198  0.0688  0.5801
  414MOL0    Cl54560   1.194   1.561   5.311 -0.4635  0.5010 -0.2871
  414MOL0     C54561   2.006   2.463   5.175  0.0214  0.4826  0.3790
  414MOL0     C54562   2.137   2.459   5.123 -0.2071  0.6362 -0.8747
  414MOL0     O54563   2.214   2.423   4.748  0.5839  0.1970  0.2622
  414MOL0     C54564   2.460   2.480   4.647 -0.5265 -0.3703  0.3081
  414MOL0     C54565   2.585   2.518   4.605  0.0177 -0.4043  0.4136
  414MOL0     N54566   3.402   2.459   4.397 -0.3806 -0.8783  0.4460
  414MOL0     N54567   3.426   2.359   4.320 -1.6441 -0.3469  0.1685
  414MOL0     C54568   2.424   1.918   4.630  0.4730 -0.8410 -0.0836
  414MOL0     C54569   2.315   1.866   4.696  0.4179  0.8571 -0.2194
  414MOL0     C54570   1.937   1.818   4.929  0.3087  0.0713  0.3516
  414MOL0     C54571   1.954   1.708   5.018 -0.6029 -0.1819 -0.3797
  414MOL0     C54572   1.847   1.630   5.056 -0.3498 -1.0580 -0.2179
  414MOL0     C54573   1.714   1.657   5.016 -0.0107 -0.4463  0.3553
  414MOL0     O54574   1.600   1.586   5.054 -0.4660  1.0683  0.2992
  414MOL0     C54575   1.615   1.449   5.015 -0.5388 -0.6194 -0.5295
  414MOL0     C54576   1.522   1.349   5.075  0.4522 -0.6388 -0.1603
  414MOL0     C54577   1.370   1.390   5.057 -0.0515  0.3661  0.4149
  414MOL0     C54578   1.276   1.300   5.128 -0.2451 -0.2716  0.5108
  414MOL0     C54579   1.298   1.157   5.094 -0.7462  0.2000  0.0701
  414MOL0     C54580   1.328   1.034   5.088  0.4457 -0.4321 -0.2638
  414MOL0     C54581   1.700   1.772   4.937  0.3528 -0.2093 -0.0433
  414MOL0     C54582   1.803   1.847   4.885 -0.4320 -1.9009 -0.6051
  414MOL0     H54583   2.273   2.088   4.952  0.2107 -1.5494  1.1590
  414MOL0     H54584   2.468   2.175   4.863 -2.5277 -0.7096  1.1283
  414MOL0     H54585   2.614   2.026   4.449 -0.3595 -0.7977  1.3603
  414MOL0     H54586   2.709   1.940   4.568 -0.4520 -1.2148 -0.8593
  414MOL0     H54587   2.873   2.109   4.581  0.5575 -1.4970 -0.2056
  414MOL0     H54588   2.744   2.237   4.570 -1.5904 -0.5107  1.3209
  414MOL0     H54589   2.897   2.255   4.367 -0.2608  0.6191 -2.2882
  414MOL0     H54590   2.757   2.168   4.308 -0.1230  2.5077  0.1829
  414MOL0     H54591   2.951   1.988   4.418 -1.7649  0.3422  0.5352
  414MOL0     H54592   2.852   1.970   4.281 -0.9994 -0.9326  2.8181
  414MOL0     H54593   3.037   2.174   4.204  2.3812  1.0447  3.2218
  414MOL0     H54594   3.053   2.016   4.153 -0.8828  1.6669 -1.2505
  414MOL0     H54595   3.173   1.991   4.398 -0.3503 -0.9403 -0.1881
  414MOL0     H54596   3.145   2.168   4.378 -1.4225 -0.1276 -0.5995
  414MOL0     H54597   3.292   1.998   4.175 -3.8867 -0.9665  0.7297
  414MOL0     H54598   3.279   2.177   4.170 -3.4226 -2.1919 -2.0429
  414MOL0     H54599   3.505   2.120   4.265 -0.4822 -1.2439  0.1768
  414MOL0     H54600   3.425   2.043   4.401  0.0562 -2.4992 -1.0327
  414MOL0     H54601   3.312   2.231   4.601 -0.3749  3.0557  1.4380
  414MOL0     H54602   3.324   2.612   4.592  1.4546  0.0341 -1.4324
  414MOL0     H54603   3.403   2.496   4.700  0.7046 -0.0432 -1.3910
  414MOL0     H54604   3.189   2.498   4.792 -2.8544 -1.2408  1.2744
  414MOL0     H54605   3.164   2.356   4.680  0.1915  0.4334 -0.5526
  414MOL0     H54606   3.086   2.629   4.600  0.2658 -0.3745 -0.3444
  414MOL0     H54607   3.044   2.487   4.511  2.2977  0.6413 -0.3721
  414MOL0     H54608   2.958   2.581   4.789 -1.4745  1.0422  0.0235
  414MOL0     H54609   2.935   2.409   4.738  2.5746 -0.2078  2.0115
  414MOL0     H54610   2.760   2.470   4.890 -1.4016 -2.6990  0.9756
  414MOL0     H54611   2.551   2.382   4.953 -2.9540  0.9559 -0.5424
  414MOL0     H54612   2.107   2.217   4.888  1.5477  2.5197 -1.5418
  414MOL0     H54613   1.876   2.210   5.022  0.2189  0.2330  1.3066
  414MOL0     H54614   1.803   2.306   5.410  1.1549  0.2712  0.1545
  414MOL0     H54615   1.862   2.172   5.318 -0.5523  0.3793 -2.6429
  414MOL0     H54616   1.577   2.261   5.298 -0.2828 -0.3057  0.3074
  414MOL0     H54617   1.632   2.142   5.411 -4.6561  1.3170 -0.0130
  414MOL0     H54618   1.720   2.033   5.175 -1.4250 -1.9943 -0.5523
  414MOL0     H54619   1.603   2.158   5.113  0.3508  0.5534  0.3534
  414MOL0     H54620   1.420   2.063   5.234  1.2864  0.8020 -1.2618
  414MOL0     H54621   1.486   1.939   5.135 -0.1378 -2.2515  2.0476
  414MOL0     H54622   1.558   1.936   5.417  2.4723 -0.6372 -0.7485
  414MOL0     H54623   1.640   1.856   5.282  1.2072  2.8082 -0.4174
  414MOL0     H54624   1.497   1.685   5.369 -0.0583 -0.5684 -1.5218
  414MOL0     H54625   1.447   1.724   5.216 -1.9531 -0.8320  0.3141
  414MOL0     H54626   1.299   1.890   5.421 -3.7956  1.7611 -1.5475
  414MOL0     H54627   1.254   1.819   5.264 -0.9426 -4.1101 -1.1599
  414MOL0     H54628   1.127   1.729   5.449 -1.2231  1.1332 -2.5755
  414MOL0     H54629   1.275   1.647   5.502  0.2799  1.1668  0.7281
  414MOL0     H54630   1.988   2.545   5.244  1.5710  1.7032 -0.5988
  414MOL0     H54631   2.204   2.540   5.149 -0.4611  1.4581 -2.6159
  414MOL0     H54632   2.385   2.485   4.568 -0.5382  1.5160  0.3827
  414MOL0     H54633   2.602   2.555   4.505 -0.2827  1.2013  0.9180
  414MOL0     H54634   2.463   1.875   4.537 -0.5226  0.9100 -1.3589
  414MOL0     H54635   2.258   1.779   4.665  2.0737 -1.7388  3.3795
  414MOL0     H54636   2.056   1.688   5.048 -0.8598  0.4753  1.0121
  414MOL0     H54637   1.857   1.537   5.111  4.2344 -2.0490 -2.2519
  414MOL0     H54638   1.716   1.409   5.030 -0.3893 -0.8674 -1.9871
  414MOL0     H54639   1.591   1.443   4.908 -0.8781  2.9034 -0.7723
  414MOL0     H54640   1.532   1.250   5.030  1.9750 -1.2961  1.4959
  414MOL0     H54641   1.536   1.337   5.183 -1.4920 -1.5874  0.0390
  414MOL0     H54642   1.338   1.378   4.953 -1.4249  0.2899  0.8380
  414MOL0     H54643   1.356   1.496   5.078 -2.5265  0.2596 -0.4050
  414MOL0     H54644   1.288   1.313   5.236  4.8775 -4.3148  0.8146
  414MOL0     H54645   1.174   1.333   5.106  0.8794  2.4621 -1.1499
  414MOL0     H54646   1.352   0.931   5.073 -2.3090 -1.0294 -1.1274
  414MOL0     H54647   1.595   1.799   4.930 -0.1435 -1.9022  0.5396
  414MOL0     H54648   1.778   1.920   4.809 -1.2322 -1.6578 -0.1202
  415MOL0     O54649   0.201   4.117  11.286  0.3636  0.3356 -0.0585
  415MOL0     C54650   0.197   4.226  11.232 -0.4893 -0.2169 -0.5201
  415MOL0     O54651   0.267   4.262  11.121 -0.5147 -0.0606  0.6120
  415MOL0     C54652   0.358   4.174  11.065 -0.9641 -0.6360 -0.5400
  415MOL0     C54653   0.332   4.043  11.020  0.4256 -0.0551  0.3211
  415MOL0     C54654   0.436   3.979  10.952  0.1275  0.8070 -0.6274
  415MOL0     C54655   0.555   4.040  10.912 -0.0889  0.3981 -0.4221
  415MOL0     O54656   0.653   3.956  10.864  0.0535  0.0931  0.9877
  415MOL0     C54657   0.793   3.981  10.907  0.6199 -0.6934  0.1066
  415MOL0     C54658   0.891   3.876  10.884 -0.4853 -1.0674 -0.0452
  415MOL0     C54659   1.038   3.911  10.913  0.5978  0.8068 -0.4905
  415MOL0     C54660   1.048   3.880  11.061  0.0353  0.1865 -0.0203
  415MOL0     C54661   1.174   3.937  11.136  1.1469  0.0314 -0.2385
  415MOL0     C54662   1.302   3.874  11.074 -0.1300  0.1736 -0.5137
  415MOL0     C54663   1.421   3.973  11.093 -0.2116 -0.0579 -0.8664
  415MOL0     C54664   1.434   4.077  10.978  0.5832 -0.6803  0.0847
  415MOL0     N54665   1.444   4.013  10.839 -0.9411 -0.6643 -1.1790
  415MOL0     C54666   1.547   3.923  10.807  0.4392  0.2101  0.4857
  415MOL0     C54667   1.501   3.872  10.682 -0.3014  0.2720 -0.0487
  415MOL0     C54668   1.569   3.774  10.596 -0.4907  0.4188  0.1876
  415MOL0     C54669   1.662   3.846  10.500 -0.3902  0.0006 -0.4302
  415MOL0     C54670   1.735   3.758  10.403  0.5292  0.0812  0.3133
  415MOL0     C54671   1.780   3.839  10.275  0.6660 -0.1191 -0.3739
  415MOL0     O54672   1.850   3.768  10.174 -0.2518 -0.6950 -0.2351
  415MOL0     C54673   1.893   3.836  10.059 -0.8889  0.0876 -0.7828
  415MOL0     C54674   1.878   3.970  10.030  0.2026  0.5837 -0.4651
  415MOL0     C54675   1.933   4.028   9.920 -0.1400 -0.5685 -0.0406
  415MOL0     C54676   2.007   3.949   9.827 -0.4714  0.8752 -0.2770
  415MOL0     C54677   2.054   4.012   9.698  0.8300  0.7379  0.1233
  415MOL0     O54678   2.134   3.939   9.618 -0.1683  0.3331  0.3592
  415MOL0     C54679   2.185   3.999   9.509 -0.0222 -0.4461 -0.4635
  415MOL0     C54680   2.256   4.126   9.519 -0.0123 -0.6906  0.1912
  415MOL0     C54681   2.317   4.183   9.412  0.4822  0.1540 -0.1450
  415MOL0     C54682   2.297   4.126   9.289  0.3052  0.3822 -0.6237
  415MOL0     O54683   2.348   4.177   9.169 -1.3451 -0.1323 -0.7246
  415MOL0     C54684   2.373   4.317   9.161 -0.0226 -0.4228  0.3608
  415MOL0     C54685   2.362   4.344   9.010 -0.9438 -1.5932  0.2710
  415MOL0     C54686   2.461   4.467   8.985  0.3464  0.1476 -0.2628
  415MOL0     C54687   2.491   4.501   8.841  0.1507 -0.6193  0.3517
  415MOL0     C54688   2.363   4.512   8.753 -0.1195 -0.4539  0.6029
  415MOL0     C54689   2.325   4.657   8.716 -0.0487  0.0141  0.1464
  415MOL0     C54690   2.297   4.751   8.835 -0.5760 -1.1243 -0.1248
  415MOL0     C54691   2.413   4.840   8.871 -0.4353 -0.0709 -0.5476
  415MOL0    Cl54692   2.362   4.970   8.977 -0.1589  0.6629 -0.5086
  415MOL0     C54693   2.213   4.017   9.271  0.3163  1.2308 -0.5268
  415MOL0     C54694   2.158   3.945   9.386 -0.4403 -0.5045  0.2584
  415MOL0     O54695   2.019   4.133   9.674 -0.1092  0.7702  0.5742
  415MOL0     C54696   2.029   3.814   9.857 -0.6856  0.2566  0.4610
  415MOL0     C54697   1.965   3.760   9.969 -0.8066 -0.0460  0.4535
  415MOL0     N54698   1.376   3.925  10.651 -0.0921  0.5464 -0.5288
  415MOL0     N54699   1.351   4.013  10.745 -0.4683  0.1462 -0.1440
  415MOL0     C54700   0.563   4.177  10.943  0.8255  0.1010 -0.1124
  415MOL0     C54701   0.464   4.235  11.012 -0.2529 -0.1560 -0.4812
  415MOL0     C54702   0.101   4.328  11.287  0.2868 -0.0670 -0.0342
  415MOL0     C54703   0.121   4.466  11.264  0.9814  0.2718 -0.1328
  415MOL0     C54704   0.039   4.549  11.330  0.1976  0.0156  0.0115
  415MOL0     C54705  -0.057   4.517  11.425 -0.6314 -0.5194 -0.7523
  415MOL0     O54706  -0.135   4.613  11.483 -0.0514  0.4749 -0.4682
  415MOL0     C54707  -0.072   4.682  11.596  1.0314  0.0891 -0.2127
  415MOL0     C54708   0.048   4.770  11.567 -1.0614  0.3997 -0.6688
  415MOL0     C54709   0.051   4.856  11.694  0.2821 -0.5196  0.6736
  415MOL0     C54710   0.183   4.957  11.686  0.3976 -0.0172  0.5823
  415MOL0     C54711   0.188   5.056  11.795 -0.8459  0.4924  0.3266
  415MOL0     C54712   0.204   5.146  11.870  0.2530  0.0990 -0.1941
  415MOL0     C54713  -0.077   4.387  11.444 -0.2641  0.4817  0.1442
  415MOL0     C54714  -0.001   4.295  11.373  0.3517  0.7339  0.1296
  415MOL0     H54715   0.234   4.005  11.049 -2.4378  3.2779 -3.8076
  415MOL0     H54716   0.427   3.873  10.933 -1.8073  0.9058 -0.4621
  415MOL0     H54717   0.789   4.013  11.012  0.7356 -2.7516  0.7739
  415MOL0     H54718   0.816   4.075  10.855 -0.8279  0.0240  0.6899
  415MOL0     H54719   0.888   3.864  10.775  0.5988 -0.8721 -0.1111
  415MOL0     H54720   0.861   3.782  10.931  0.3109 -2.4458 -2.1345
  415MOL0     H54721   1.058   4.012  10.876 -0.8158  1.0963 -0.5139
  415MOL0     H54722   1.082   3.826  10.861 -0.0623  0.0301  0.1949
  415MOL0     H54723   0.969   3.924  11.122  1.2698  0.3957  1.4936
  415MOL0     H54724   1.050   3.774  11.088  2.7588  0.3995  0.9620
  415MOL0     H54725   1.165   3.925  11.244 -3.4258  2.7143 -0.0722
  415MOL0     H54726   1.179   4.046  11.130 -1.6582  0.2161 -0.3426
  415MOL0     H54727   1.283   3.865  10.967 -0.2781  2.0974 -0.6894
  415MOL0     H54728   1.315   3.778  11.124 -0.0308  1.4590  2.1100
  415MOL0     H54729   1.420   4.027  11.188  3.1585 -0.8069 -0.2772
  415MOL0     H54730   1.516   3.920  11.092 -0.1700  0.0150 -0.7473
  415MOL0     H54731   1.515   4.148  10.993 -0.0306 -0.2873  1.8496
  415MOL0     H54732   1.341   4.135  10.980 -0.1642 -1.6383 -2.5691
  415MOL0     H54733   1.638   3.900  10.861 -1.2440  0.7450  3.8331
  415MOL0     H54734   1.489   3.743  10.527  0.0985  2.3614 -1.4321
  415MOL0     H54735   1.606   3.688  10.652 -2.5700  0.5547  1.9169
  415MOL0     H54736   1.744   3.898  10.550 -1.2048  1.3026 -0.4300
  415MOL0     H54737   1.601   3.908  10.434 -0.7081 -0.7980 -0.9113
  415MOL0     H54738   1.816   3.703  10.451 -2.2815 -5.2918 -0.3242
  415MOL0     H54739   1.668   3.683  10.360 -2.7382  2.0692  1.5126
  415MOL0     H54740   1.843   3.920  10.311  3.5968 -1.6793 -1.6885
  415MOL0     H54741   1.683   3.875  10.237 -1.1136 -3.8825  0.0858
  415MOL0     H54742   1.835   4.038  10.103  0.7771 -0.5375  0.9564
  415MOL0     H54743   1.924   4.134   9.900 -0.4168 -0.4232  0.8000
  415MOL0     H54744   2.267   4.166   9.619 -0.1715 -2.3232  0.8893
  415MOL0     H54745   2.381   4.269   9.431 -0.2814  1.0447 -1.4047
  415MOL0     H54746   2.478   4.328   9.189  0.7779 -2.6402 -1.5151
  415MOL0     H54747   2.304   4.377   9.222  2.0885  0.5790  1.8944
  415MOL0     H54748   2.261   4.365   8.975  0.8192  2.1336 -3.5304
  415MOL0     H54749   2.398   4.255   8.958 -1.2847 -1.2173 -0.6317
  415MOL0     H54750   2.558   4.443   9.030 -2.0079 -4.3428  3.4037
  415MOL0     H54751   2.432   4.553   9.046  1.0157 -1.2755  2.1977
  415MOL0     H54752   2.546   4.595   8.828  0.1825 -1.0306 -4.0889
  415MOL0     H54753   2.544   4.417   8.796 -0.5943 -1.2435  0.6211
  415MOL0     H54754   2.284   4.442   8.781  0.7436 -1.3878  0.7996
  415MOL0     H54755   2.401   4.467   8.661 -1.1333 -2.2167  1.0020
  415MOL0     H54756   2.229   4.649   8.663 -1.1531 -2.7275  2.2904
  415MOL0     H54757   2.395   4.704   8.648 -1.3560  3.3843  0.9101
  415MOL0     H54758   2.232   4.833   8.805  1.1572 -0.6650 -3.0488
  415MOL0     H54759   2.259   4.694   8.921 -2.3866 -2.0904 -1.5011
  415MOL0     H54760   2.450   4.887   8.780 -0.3872  1.2705  0.1437
  415MOL0     H54761   2.492   4.790   8.927  1.6240  3.1529 -0.3029
  415MOL0     H54762   2.204   3.974   9.171 -1.9964 -5.9527  2.1238
  415MOL0     H54763   2.093   3.858   9.385  1.1911 -1.7790 -0.3295
  415MOL0     H54764   2.081   3.745   9.792 -0.2959 -0.9284  1.9823
  415MOL0     H54765   1.975   3.653   9.983 -3.1803  0.0049  3.4658
  415MOL0     H54766   0.657   4.225  10.916  0.9285  1.0672  1.7386
  415MOL0     H54767   0.476   4.343  11.022 -0.5448  0.1225 -2.5468
  415MOL0     H54768   0.199   4.506  11.201  1.1731 -0.1502 -0.1657
  415MOL0     H54769   0.039   4.655  11.306 -1.8503  0.9438  3.3723
  415MOL0     H54770  -0.051   4.630  11.690  0.3234  0.0623 -0.0615
  415MOL0     H54771  -0.154   4.744  11.634  1.6871  0.2721  0.9450
  415MOL0     H54772   0.144   4.719  11.558  0.9749  2.3516  5.2145
  415MOL0     H54773   0.023   4.832  11.481  0.1433 -1.8983 -2.8244
  415MOL0     H54774   0.061   4.796  11.784  2.4649  2.6302  2.7690
  415MOL0     H54775  -0.033   4.926  11.691  2.5152  2.4119  0.7146
  415MOL0     H54776   0.276   4.900  11.680  0.6389  0.5067 -2.6421
  415MOL0     H54777   0.166   5.018  11.596 -3.4053  1.5181  2.1669
  415MOL0     H54778   0.246   5.224  11.930 -3.2996  1.2874  0.9456
  415MOL0     H54779  -0.155   4.354  11.512 -0.6405 -0.6414 -0.7820
  415MOL0     H54780  -0.012   4.187  11.380  5.6231 -0.0991 -0.1796
  416MOL0     O54781   8.876   2.172   2.459 -0.2925  0.0241  1.1866
  416MOL0     C54782   8.945   2.116   2.544  0.2663  0.4694 -0.0342
  416MOL0     O54783   8.898   2.032   2.645  0.4923  0.3764 -0.5629
  416MOL0     C54784   8.767   2.003   2.676 -0.6967 -0.0414  0.1943
  416MOL0     C54785   8.655   2.072   2.630  0.3155  0.4962 -1.0088
  416MOL0     C54786   8.530   2.023   2.667  0.6317  0.1029  0.0004
  416MOL0     C54787   8.505   1.914   2.752  0.2412 -0.0870 -0.2830
  416MOL0     O54788   8.387   1.870   2.800  0.7216  1.2336  0.0835
  416MOL0     C54789   8.272   1.956   2.812 -0.4745 -0.0293 -1.0419
  416MOL0     C54790   8.144   1.901   2.885  0.8232  0.3814 -0.5734
  416MOL0     C54791   8.041   1.796   2.818 -0.4012  0.3438 -0.1824
  416MOL0     C54792   7.924   1.781   2.920  0.2148 -0.3923 -0.3952
  416MOL0     C54793   7.822   1.686   2.863 -0.0428 -0.2541  0.8351
  416MOL0     C54794   7.691   1.693   2.933 -0.0503  1.1680  0.4356
  416MOL0     C54795   7.587   1.617   2.856  1.0673 -0.2075 -0.1236
  416MOL0     C54796   7.453   1.641   2.927  0.0649  0.0509  0.1214
  416MOL0     N54797   7.348   1.556   2.866 -1.1195 -0.0520  0.6231
  416MOL0     C54798   7.273   1.603   2.761 -0.3850 -0.7600  0.2332
  416MOL0     C54799   7.183   1.497   2.753 -0.4045  0.5521 -0.2695
  416MOL0     C54800   7.059   1.501   2.678  1.0254  0.9694 -0.4378
  416MOL0     C54801   7.088   1.513   2.533  0.3434  0.8672 -0.0318
  416MOL0     C54802   7.178   1.405   2.471 -0.3019 -0.2274 -0.6664
  416MOL0     C54803   7.182   1.429   2.316  0.4260  0.1346  0.4586
  416MOL0     O54804   7.268   1.321   2.278  0.8307 -0.2159  0.4302
  416MOL0     C54805   7.396   1.345   2.242  0.1313 -0.8092 -0.5112
  416MOL0     C54806   7.495   1.277   2.302 -0.1323 -0.3122  0.0984
  416MOL0     C54807   7.627   1.293   2.265  0.2265 -0.5899 -1.2214
  416MOL0     C54808   7.659   1.386   2.165 -0.0641 -0.9294 -0.9378
  416MOL0     C54809   7.800   1.422   2.133  0.5765  0.4854  0.0865
  416MOL0     O54810   7.893   1.327   2.174  0.4646  0.8101  0.0180
  416MOL0     C54811   8.028   1.352   2.162  0.4160  0.1034 -0.0211
  416MOL0     C54812   8.100   1.243   2.140 -1.3463  0.4752 -0.2098
  416MOL0     C54813   8.242   1.257   2.133 -0.3866 -0.3112  0.2339
  416MOL0     C54814   8.307   1.381   2.150  0.0639 -0.9261  0.0242
  416MOL0     O54815   8.441   1.407   2.144 -0.2381  0.0912 -0.3193
  416MOL0     C54816   8.529   1.303   2.174 -0.4195  1.6542  0.2384
  416MOL0     C54817   8.660   1.363   2.137  0.5068  0.5199 -0.4312
  416MOL0     C54818   8.779   1.266   2.113 -0.6112  0.4852 -0.0508
  416MOL0     C54819   8.739   1.118   2.104 -0.2986  0.8647 -0.0703
  416MOL0     C54820   8.851   1.021   2.058  0.5868  0.2306  0.6156
  416MOL0     C54821   8.790   0.878   2.056 -0.1345  0.3103  0.2074
  416MOL0     C54822   8.903   0.774   2.088 -0.2278 -0.8006  0.3165
  416MOL0     C54823   8.833   0.642   2.063  0.5570 -0.3577 -0.6658
  416MOL0    Cl54824   8.970   0.519   2.096 -0.2571  0.1015  0.4201
  416MOL0     C54825   8.221   1.494   2.179 -0.5611  0.8632  0.9010
  416MOL0     C54826   8.086   1.476   2.191 -0.7484 -0.5522 -0.2007
  416MOL0     O54827   7.822   1.521   2.076 -0.2157  0.4143  0.6058
  416MOL0     C54828   7.552   1.455   2.098 -0.4503  0.1863  0.2148
  416MOL0     C54829   7.421   1.438   2.143 -0.8377 -0.6323  0.4963
  416MOL0     N54830   7.220   1.394   2.830 -0.5647  0.0338  0.2160
  416MOL0     N54831   7.316   1.425   2.901  0.2895  0.1642  0.4120
  416MOL0     C54832   8.619   1.835   2.786  0.7667  0.1774  0.8807
  416MOL0     C54833   8.750   1.888   2.753  0.0527  0.7322 -0.0152
  416MOL0     C54834   9.092   2.149   2.534 -0.5610 -0.0129  0.5754
  416MOL0     C54835   9.138   2.265   2.464 -0.5257 -0.0961  0.0443
  416MOL0     C54836   9.276   2.300   2.458 -0.4446  0.2307 -0.1473
  416MOL0     C54837   9.366   2.215   2.522 -0.0823 -0.5765  0.0184
  416MOL0     O54838   9.495   2.249   2.520 -0.0605  0.1964 -0.2812
  416MOL0     C54839   9.561   2.251   2.392  0.2670 -0.6302  0.0978
  416MOL0     C54840   9.644   2.133   2.381 -0.4481  0.6148  0.2450
  416MOL0     C54841   9.765   2.153   2.471 -0.2555 -0.1123 -0.1321
  416MOL0     C54842   9.853   2.025   2.481 -0.5231 -0.1795  0.0656
  416MOL0     C54843   9.779   1.910   2.522  0.3671  0.7956  0.5999
  416MOL0     C54844   9.715   1.803   2.528  0.4477  1.1473  0.2335
  416MOL0     C54845   9.324   2.103   2.597 -0.4093 -0.5703  0.8798
  416MOL0     C54846   9.188   2.073   2.595 -1.0081  0.0436 -0.1366
  416MOL0     H54847   8.664   2.161   2.568  3.2468  1.2851  0.3799
  416MOL0     H54848   8.442   2.077   2.632  1.3595  0.8446 -0.7225
  416MOL0     H54849   8.241   1.992   2.713  1.0699 -0.6633 -1.8051
  416MOL0     H54850   8.302   2.047   2.863  4.7104 -1.3454 -1.1269
  416MOL0     H54851   8.091   1.996   2.892 -0.1426 -0.0457 -1.8747
  416MOL0     H54852   8.151   1.865   2.988 -5.2174 -0.7380 -0.2303
  416MOL0     H54853   8.085   1.696   2.810  0.2530  0.6325 -0.2819
  416MOL0     H54854   8.010   1.834   2.721 -1.9128  1.7357  0.8049
  416MOL0     H54855   7.963   1.752   3.018 -0.8433  1.0444  0.5008
  416MOL0     H54856   7.874   1.878   2.931  0.4378 -0.1725 -1.2483
  416MOL0     H54857   7.864   1.588   2.886  0.6801 -0.0680  0.3365
  416MOL0     H54858   7.813   1.701   2.755 -0.7922  1.1946  1.0732
  416MOL0     H54859   7.664   1.798   2.947  0.8000  1.6273 -1.1108
  416MOL0     H54860   7.688   1.640   3.029  0.6316  0.8270  0.2830
  416MOL0     H54861   7.568   1.642   2.752  1.8269 -0.9452 -0.4508
  416MOL0     H54862   7.610   1.511   2.840 -0.7658 -0.5345 -0.8627
  416MOL0     H54863   7.438   1.749   2.930  0.2601  0.0643  2.1274
  416MOL0     H54864   7.478   1.615   3.030 -2.4875  1.5044  1.1770
  416MOL0     H54865   7.257   1.694   2.704 -4.8354 -1.9681 -0.8774
  416MOL0     H54866   6.986   1.577   2.709  1.3476  2.0139 -2.1361
  416MOL0     H54867   7.018   1.400   2.690  0.8444  0.7991 -2.1798
  416MOL0     H54868   7.131   1.613   2.524  0.4387  0.8408  0.1208
  416MOL0     H54869   6.994   1.503   2.478  0.5207 -0.3981 -0.1429
  416MOL0     H54870   7.275   1.403   2.522 -1.5823  0.0639  1.9452
  416MOL0     H54871   7.132   1.307   2.488 -1.0090  0.5390  2.4925
  416MOL0     H54872   7.219   1.526   2.282 -2.7883  0.4473 -2.7610
  416MOL0     H54873   7.075   1.421   2.293 -0.2474  2.9751  2.1636
  416MOL0     H54874   7.480   1.209   2.386 -1.9749  1.7542  1.5360
  416MOL0     H54875   7.703   1.232   2.313 -0.1629  0.7224  1.2662
  416MOL0     H54876   8.050   1.149   2.119  0.0972  0.3479 -3.6451
  416MOL0     H54877   8.309   1.178   2.102  1.0573  1.2704 -0.8483
  416MOL0     H54878   8.508   1.215   2.113 -1.4833  1.2651  1.1116
  416MOL0     H54879   8.533   1.282   2.281 -0.9120 -1.8503 -0.2948
  416MOL0     H54880   8.685   1.432   2.218  0.7353 -0.7928  0.6553
  416MOL0     H54881   8.642   1.421   2.045  0.2705  0.6325 -0.3160
  416MOL0     H54882   8.850   1.277   2.195  4.1559 -0.1735 -3.6711
  416MOL0     H54883   8.829   1.300   2.022 -2.3612  0.5022 -1.0417
  416MOL0     H54884   8.699   1.083   2.200  0.1275 -1.2480 -0.6018
  416MOL0     H54885   8.659   1.095   2.033  1.1383 -7.6050  0.0166
  416MOL0     H54886   8.933   1.026   2.130 -1.4145 -1.0432  3.1531
  416MOL0     H54887   8.889   1.050   1.960  0.2159  0.9263  0.6713
  416MOL0     H54888   8.749   0.849   1.959  2.3673 -0.3422 -0.7408
  416MOL0     H54889   8.713   0.865   2.133  0.1800  4.7854  1.5364
  416MOL0     H54890   8.989   0.787   2.022 -3.8341 -1.8427 -5.1846
  416MOL0     H54891   8.933   0.789   2.192 -0.3091 -2.0318  0.5356
  416MOL0     H54892   8.796   0.627   1.961  1.9881  2.5870 -1.7270
  416MOL0     H54893   8.751   0.630   2.134 -0.0006  0.0206 -1.2361
  416MOL0     H54894   8.276   1.587   2.188  0.9700  0.0088  0.9160
  416MOL0     H54895   8.021   1.559   2.217 -2.9727 -2.3743  0.3732
  416MOL0     H54896   7.559   1.533   2.023  0.1579 -1.2351 -1.2667
  416MOL0     H54897   7.350   1.510   2.103 -1.5112 -1.0341  0.9266
  416MOL0     H54898   8.610   1.745   2.845  1.3188  0.1875  0.9855
  416MOL0     H54899   8.837   1.827   2.778 -2.1580 -2.1847  1.2737
  416MOL0     H54900   9.061   2.328   2.421 -1.4412 -0.3870  1.1801
  416MOL0     H54901   9.302   2.392   2.406  1.7262  0.3150  0.9808
  416MOL0     H54902   9.631   2.334   2.387  0.0371 -0.2614  2.1896
  416MOL0     H54903   9.499   2.258   2.301  1.2083  3.4120 -0.4052
  416MOL0     H54904   9.579   2.049   2.407 -0.8335  1.3532  1.7733
  416MOL0     H54905   9.677   2.134   2.276  1.5013  3.7183  0.7745
  416MOL0     H54906   9.730   2.173   2.572  4.2091 -2.1435  2.0762
  416MOL0     H54907   9.824   2.240   2.439 -0.1090 -0.5486 -1.0737
  416MOL0     H54908   9.909   2.001   2.391  0.1088 -3.0566  1.1100
  416MOL0     H54909   9.937   2.036   2.551  1.0468 -1.6297 -1.5073
  416MOL0     H54910   9.685   1.703   2.551  2.2574  0.3721 -0.5530
  416MOL0     H54911   9.389   2.047   2.663  0.3700 -0.6952  0.0322
  416MOL0     H54912   9.148   1.991   2.654 -2.2258  0.5574 -0.2091
  417MOL0     O54913   8.643   1.827   6.730 -0.1828 -0.4309  0.1494
  417MOL0     C54914   8.548   1.749   6.743 -0.6519 -0.8085 -0.5888
  417MOL0     O54915   8.536   1.633   6.677 -0.6800  0.6831  0.7591
  417MOL0     C54916   8.639   1.596   6.589  0.0079 -0.7416  1.0171
  417MOL0     C54917   8.710   1.481   6.622  0.3890  0.1790 -0.6115
  417MOL0     C54918   8.830   1.453   6.558 -0.4152  0.1779  0.0362
  417MOL0     C54919   8.872   1.541   6.467  0.3841  1.2747  0.3111
  417MOL0     O54920   8.999   1.534   6.416 -0.4811  0.4079 -0.8414
  417MOL0     C54921   9.012   1.444   6.305 -1.1619 -0.9059 -0.0398
  417MOL0     C54922   9.123   1.518   6.219  0.1569  0.3548  0.2025
  417MOL0     C54923   9.134   1.456   6.080  0.6666  0.3363 -0.0302
  417MOL0     C54924   9.185   1.311   6.082  0.0609 -0.0140 -0.0518
  417MOL0     C54925   9.225   1.264   5.951 -1.3528 -0.8557 -0.1315
  417MOL0     C54926   9.108   1.267   5.854 -0.0607  0.7090  0.5271
  417MOL0     C54927   9.112   1.183   5.730  0.1248 -0.5781  0.1493
  417MOL0     C54928   9.038   1.231   5.603  0.2511 -0.3644 -0.1851
  417MOL0     N54929   8.899   1.193   5.600 -0.3837 -0.3450 -0.6700
  417MOL0     C54930   8.849   1.089   5.529  0.4614 -0.7944 -0.3426
  417MOL0     C54931   8.715   1.088   5.553  0.1510 -0.3631  0.3013
  417MOL0     C54932   8.613   1.011   5.461  0.3532  0.6009 -0.0211
  417MOL0     C54933   8.591   1.075   5.329  0.8422  0.4601 -0.3468
  417MOL0     C54934   8.527   0.977   5.235  1.1067  1.3835  0.0306
  417MOL0     C54935   8.497   1.047   5.097  0.2919 -0.2110  0.0105
  417MOL0     O54936   8.614   1.072   5.022 -0.0762  0.1111 -0.6726
  417MOL0     C54937   8.669   0.973   4.938 -0.0894  0.2053 -0.7755
  417MOL0     C54938   8.777   1.004   4.855  0.7007 -0.4044 -0.1410
  417MOL0     C54939   8.827   0.914   4.761  0.3082  0.0371  0.1199
  417MOL0     C54940   8.768   0.782   4.747  0.8085 -0.1005  0.2833
  417MOL0     C54941   8.809   0.687   4.641  0.4520  0.2578 -0.5065
  417MOL0     O54942   8.738   0.569   4.643  0.9510 -0.3217  0.0882
  417MOL0     C54943   8.758   0.481   4.552  0.0001  0.4945 -0.3945
  417MOL0     C54944   8.877   0.404   4.543  1.1121 -0.4668 -0.1914
  417MOL0     C54945   8.894   0.311   4.443 -0.4433 -0.4100  0.2849
  417MOL0     C54946   8.798   0.298   4.337  0.5705  1.0540 -0.9861
  417MOL0     O54947   8.819   0.226   4.224 -0.5680 -0.1372 -0.3356
  417MOL0     C54948   8.951   0.210   4.170  0.7887  0.2278 -0.0857
  417MOL0     C54949   9.021   0.343   4.143  0.1264 -0.9243 -1.0090
  417MOL0     C54950   8.957   0.436   4.042  0.4015 -1.2038  0.3695
  417MOL0     C54951   9.051   0.564   4.026  0.0611 -0.3392 -0.6416
  417MOL0     C54952   8.992   0.679   3.943  0.5437  1.1607  0.5117
  417MOL0     C54953   9.020   0.651   3.795 -0.5090 -0.0491  0.0035
  417MOL0     C54954   8.952   0.749   3.698  0.0266  0.2041 -0.5065
  417MOL0     C54955   8.978   0.895   3.715  0.2721 -0.3780 -0.2145
  417MOL0    Cl54956   9.151   0.915   3.673  0.1116 -0.4156  0.0261
  417MOL0     C54957   8.679   0.375   4.353 -0.4927 -0.4758  0.0497
  417MOL0     C54958   8.654   0.455   4.464 -0.2808 -0.1632  0.4211
  417MOL0     O54959   8.886   0.726   4.548  0.0565  0.0871 -0.3831
  417MOL0     C54960   8.666   0.750   4.836 -0.3854 -0.0901 -0.5897
  417MOL0     C54961   8.624   0.842   4.934 -0.9445  0.3185  0.9097
  417MOL0     N54962   8.690   1.188   5.644  0.3813 -0.2562  0.1124
  417MOL0     N54963   8.796   1.250   5.672 -0.8531  0.6696  0.3829
  417MOL0     C54964   8.799   1.655   6.436 -0.2289  0.2651 -1.6701
  417MOL0     C54965   8.680   1.686   6.494 -0.7650 -0.7080 -0.5066
  417MOL0     C54966   8.429   1.801   6.818  0.2140  0.4205  0.0829
  417MOL0     C54967   8.420   1.936   6.849  0.0158  0.6399  0.0680
  417MOL0     C54968   8.314   1.979   6.926 -0.9794 -0.6769  0.8989
  417MOL0     C54969   8.198   1.904   6.961  0.3370 -0.7966 -0.2450
  417MOL0     O54970   8.078   1.950   7.006  0.0668 -0.0945  0.2050
  417MOL0     C54971   8.077   2.083   7.070  0.5835  0.0363 -0.0512
  417MOL0     C54972   7.980   2.091   7.182  0.6339  0.0859  0.3158
  417MOL0     C54973   7.837   2.042   7.152 -0.4375  0.8977  0.3571
  417MOL0     C54974   7.769   2.121   7.038 -0.0378  0.3694 -0.3742
  417MOL0     C54975   7.624   2.103   7.037 -0.0074 -0.8426  0.0095
  417MOL0     C54976   7.507   2.088   7.021 -0.0376  0.4731 -0.8583
  417MOL0     C54977   8.200   1.777   6.916  0.0420 -0.8826  0.1174
  417MOL0     C54978   8.319   1.726   6.852  0.0175  0.9731 -0.4832
  417MOL0     H54979   8.668   1.421   6.702  3.3175  1.3299  1.9451
  417MOL0     H54980   8.896   1.376   6.595  1.0922  0.6407 -1.5491
  417MOL0     H54981   8.918   1.433   6.250 -2.3985  4.8376  0.2916
  417MOL0     H54982   9.030   1.345   6.346 -4.9251 -2.0756 -0.7921
  417MOL0     H54983   9.221   1.510   6.267 -0.5783 -0.1000  1.7051
  417MOL0     H54984   9.103   1.626   6.214 -1.8249  0.1419  2.0045
  417MOL0     H54985   9.207   1.513   6.022 -0.3613  0.2241 -1.4855
  417MOL0     H54986   9.042   1.457   6.021  0.6756 -2.3324 -0.2404
  417MOL0     H54987   9.275   1.301   6.145 -1.1331 -2.3220  1.4341
  417MOL0     H54988   9.100   1.252   6.118  0.3844  0.0290  0.8232
  417MOL0     H54989   9.272   1.167   5.967  0.1994 -0.0037  0.5915
  417MOL0     H54990   9.311   1.322   5.917 -1.4256  0.4032  1.6636
  417MOL0     H54991   9.111   1.375   5.836 -1.6803  1.0158  1.8564
  417MOL0     H54992   9.020   1.232   5.909  0.2079 -4.4018 -1.7890
  417MOL0     H54993   9.220   1.177   5.713  0.4652 -2.5560  2.4893
  417MOL0     H54994   9.070   1.086   5.758 -2.1735  0.8258  1.9910
  417MOL0     H54995   9.097   1.191   5.519  0.0967  0.8229 -0.8724
  417MOL0     H54996   9.038   1.340   5.608  1.1345 -0.4177  2.6519
  417MOL0     H54997   8.899   1.024   5.457  0.0023 -1.0111 -0.4666
  417MOL0     H54998   8.516   1.010   5.511  1.2301 -0.3601  1.7829
  417MOL0     H54999   8.644   0.907   5.447 -0.3099  0.6408 -1.9655
  417MOL0     H55000   8.693   1.100   5.301  1.9113  1.4618  3.7660
  417MOL0     H55001   8.547   1.174   5.346  1.7050  0.5030  1.9522
  417MOL0     H55002   8.590   0.889   5.220  0.2898  0.8682 -0.4678
  417MOL0     H55003   8.430   0.941   5.270  1.7737 -2.8383 -1.8783
  417MOL0     H55004   8.451   1.140   5.130  0.0340 -0.1732 -0.4388
  417MOL0     H55005   8.419   0.990   5.045  0.1943  0.5744 -0.7252
  417MOL0     H55006   8.811   1.107   4.858 -1.3976  0.3651 -0.8012
  417MOL0     H55007   8.912   0.937   4.698  0.1822  0.5114  0.1158
  417MOL0     H55008   8.948   0.414   4.624 -0.7264  0.4177  1.3972
  417MOL0     H55009   8.989   0.261   4.448  1.0005  2.0998 -0.2183
  417MOL0     H55010   8.930   0.157   4.077 -6.0677  0.5317  0.7619
  417MOL0     H55011   8.998   0.134   4.234 -0.2766  0.6558  1.2662
  417MOL0     H55012   9.125   0.324   4.117  1.8111  3.7898  1.2375
  417MOL0     H55013   9.039   0.391   4.240  1.7641  0.4635 -1.9684
  417MOL0     H55014   8.857   0.466   4.074  0.6019 -3.7304  3.8733
  417MOL0     H55015   8.954   0.379   3.949  2.0418  1.8040 -1.7121
  417MOL0     H55016   9.066   0.599   4.129  0.5374 -0.8412 -0.5351
  417MOL0     H55017   9.145   0.525   3.987  1.1365  1.0881  0.4274
  417MOL0     H55018   9.032   0.777   3.973  1.5950  0.3857  1.7207
  417MOL0     H55019   8.884   0.662   3.946  1.1028 -4.0426 -0.5026
  417MOL0     H55020   8.988   0.549   3.771  0.3738 -0.0965 -1.0677
  417MOL0     H55021   9.129   0.661   3.784 -0.8884  2.2014 -2.8794
  417MOL0     H55022   8.963   0.718   3.594  6.2144  2.9745 -1.0828
  417MOL0     H55023   8.846   0.728   3.720  0.1498  1.6042  1.7605
  417MOL0     H55024   8.955   0.939   3.812 -1.3384 -3.0528  0.7196
  417MOL0     H55025   8.933   0.947   3.630 -2.7554 -2.0015  0.2738
  417MOL0     H55026   8.596   0.356   4.287  0.9109 -3.4620 -1.0454
  417MOL0     H55027   8.555   0.496   4.482 -0.4372 -0.8545  1.2037
  417MOL0     H55028   8.635   0.646   4.841  0.1304 -0.2551 -0.8107
  417MOL0     H55029   8.535   0.810   4.986 -3.0822  1.0266 -2.0641
  417MOL0     H55030   8.846   1.729   6.371  0.6033 -0.7760 -2.2853
  417MOL0     H55031   8.636   1.784   6.476 -0.6328 -0.2199  1.5253
  417MOL0     H55032   8.501   2.004   6.824 -0.0810  0.6300 -0.2746
  417MOL0     H55033   8.333   2.081   6.960  1.9128 -1.6258  2.4406
  417MOL0     H55034   8.055   2.159   6.994  0.4970 -0.9825 -1.0610
  417MOL0     H55035   8.167   2.110   7.125 -0.5401  1.5119  1.1806
  417MOL0     H55036   8.024   2.051   7.274 -0.1623  1.1652  1.1989
  417MOL0     H55037   7.969   2.199   7.197  2.7361  0.5848 -1.3924
  417MOL0     H55038   7.783   2.047   7.247  0.1562  2.8543  0.6340
  417MOL0     H55039   7.851   1.938   7.121  0.4748  1.3437 -0.7960
  417MOL0     H55040   7.810   2.222   7.038 -0.5924  0.6101 -1.1304
  417MOL0     H55041   7.817   2.077   6.949  2.9201 -0.0103  1.2841
  417MOL0     H55042   7.403   2.067   7.003  0.7755 -2.0402 -3.4464
  417MOL0     H55043   8.116   1.712   6.940 -0.6784 -0.9999 -2.3893
  417MOL0     H55044   8.309   1.620   6.830  1.2606  0.5168  0.9798
  418MOL0     O55045   3.197   2.036   1.268 -0.1881 -0.4613  0.3449
  418MOL0     C55046   3.124   2.000   1.182  1.5834 -0.1677 -0.6454
  418MOL0     O55047   3.031   2.076   1.116  0.0707  0.0483  0.6048
  418MOL0     C55048   3.001   2.210   1.147 -0.1189 -0.2955 -0.3664
  418MOL0     C55049   2.991   2.301   1.044 -0.0137  0.4042  0.5844
  418MOL0     C55050   2.967   2.439   1.069 -0.1626  0.6353 -0.2006
  418MOL0     C55051   2.935   2.485   1.196 -1.0767 -0.1569 -0.2577
  418MOL0     O55052   2.922   2.615   1.232 -0.8553 -0.2585  0.4678
  418MOL0     C55053   2.903   2.709   1.130  0.5627  0.4407 -0.0645
  418MOL0     C55054   2.851   2.844   1.199 -1.0402 -0.4214  0.4601
  418MOL0     C55055   2.752   2.911   1.107 -0.3009  0.1335  1.5666
  418MOL0     C55056   2.716   3.053   1.148 -0.4249  1.1235 -1.0339
  418MOL0     C55057   2.582   3.096   1.090  1.0336 -0.3687 -0.2038
  418MOL0     C55058   2.549   3.247   1.128  0.7542 -0.6030 -0.2835
  418MOL0     C55059   2.410   3.310   1.083 -1.2170 -0.1798 -0.3135
  418MOL0     C55060   2.299   3.300   1.195 -0.6081  0.5763  0.3625
  418MOL0     N55061   2.171   3.348   1.149  0.8066 -0.8434  0.3733
  418MOL0     C55062   2.130   3.480   1.142  0.3855  0.2504 -1.2828
  418MOL0     C55063   1.992   3.467   1.125 -0.0208 -0.2966 -0.0880
  418MOL0     C55064   1.884   3.568   1.100 -0.1128  0.9246 -0.0809
  418MOL0     C55065   1.742   3.524   1.140 -0.4113  0.1602 -0.1304
  418MOL0     C55066   1.638   3.638   1.108 -0.9047  0.3484  0.2904
  418MOL0     C55067   1.499   3.580   1.133 -0.3255 -0.2493  0.0421
  418MOL0     O55068   1.455   3.489   1.037 -0.0488 -0.1185  0.2393
  418MOL0     C55069   1.358   3.518   0.949  0.5636 -0.3158 -0.3770
  418MOL0     C55070   1.231   3.455   0.958 -0.1618 -0.1777  0.2043
  418MOL0     C55071   1.128   3.494   0.867  0.5311 -0.1916 -0.1758
  418MOL0     C55072   1.159   3.599   0.776  0.0947 -0.2717  0.2832
  418MOL0     C55073   1.056   3.634   0.685  0.5237  0.4267  0.8183
  418MOL0     O55074   0.963   3.543   0.651 -0.1839  0.0793 -0.2968
  418MOL0     C55075   0.854   3.589   0.581  0.1789 -0.0031  0.3824
  418MOL0     C55076   0.868   3.637   0.446  1.5544 -0.9173 -0.4717
  418MOL0     C55077   0.752   3.677   0.378  0.0584 -0.2432 -0.4080
  418MOL0     C55078   0.624   3.660   0.430  0.1872  0.4000  0.1112
  418MOL0     O55079   0.506   3.691   0.362 -0.9217 -0.5524  0.1544
  418MOL0     C55080   0.428   3.577   0.325  0.5144  0.1476  0.2245
  418MOL0     C55081   0.287   3.623   0.369  0.7676  0.1192  0.6999
  418MOL0     C55082   0.266   3.638   0.520  0.7531 -0.1835  0.8478
  418MOL0     C55083   0.115   3.637   0.555 -0.0884 -0.0251 -0.5717
  418MOL0     C55084   0.096   3.627   0.708 -0.4702  0.6241  0.3078
  418MOL0     C55085  -0.051   3.628   0.735 -0.1404  0.2990 -0.3575
  418MOL0     C55086  -0.081   3.638   0.884  0.0094  0.3711  0.4142
  418MOL0     C55087  -0.064   3.786   0.935 -0.6813 -0.0681  0.5796
  418MOL0    Cl55088  -0.192   3.892   0.855 -0.2523  0.4495  0.2476
  418MOL0     C55089   0.616   3.606   0.562 -0.3195 -0.1657 -1.2343
  418MOL0     C55090   0.733   3.569   0.637  0.2376  0.2525 -0.0515
  418MOL0     O55091   1.052   3.753   0.661 -0.5732  0.5585  0.0983
  418MOL0     C55092   1.281   3.670   0.779  0.1768  0.5233 -0.2473
  418MOL0     C55093   1.376   3.621   0.860  0.5213 -0.7564 -0.3704
  418MOL0     N55094   1.961   3.334   1.111 -0.6123  0.1603  0.2309
  418MOL0     N55095   2.063   3.260   1.126  0.3838  0.6724  0.4782
  418MOL0     C55096   2.949   2.396   1.300  0.4158  0.6436 -1.2958
  418MOL0     C55097   2.992   2.258   1.279  0.6679  0.4880 -1.1599
  418MOL0     C55098   3.143   1.859   1.138 -1.0495  0.4663  0.4254
  418MOL0     C55099   3.228   1.773   1.210 -0.9331  0.4492 -0.7135
  418MOL0     C55100   3.235   1.632   1.180  0.0605  0.3221 -0.0430
  418MOL0     C55101   3.158   1.585   1.065 -1.0634  0.6531 -0.2984
  418MOL0     O55102   3.130   1.449   1.039 -0.3990 -0.0413  1.4987
  418MOL0     C55103   3.161   1.349   1.134  0.0920  0.6166 -0.2345
  418MOL0     C55104   3.150   1.193   1.087  0.0403 -0.7099  0.5002
  418MOL0     C55105   3.207   1.104   1.194 -0.2100 -0.4390  0.3720
  418MOL0     C55106   3.178   0.957   1.166 -0.8213  0.2588 -0.3501
  418MOL0     C55107   3.174   0.888   1.290  0.6346  0.0989 -0.5161
  418MOL0     C55108   3.186   0.818   1.384 -0.3487  0.1898 -0.2508
  418MOL0     C55109   3.089   1.674   0.993  1.0987 -0.9938  0.0632
  418MOL0     C55110   3.075   1.810   1.025  0.4490  0.4077  0.3327
  418MOL0     H55111   3.018   2.264   0.945  0.2481  1.1753  0.3658
  418MOL0     H55112   2.972   2.497   0.977 -2.0954 -2.3729 -2.3677
  418MOL0     H55113   2.825   2.668   1.066  0.3527 -0.8643  0.9953
  418MOL0     H55114   2.999   2.719   1.078 -1.0182  1.4885 -3.0485
  418MOL0     H55115   2.940   2.908   1.198  0.6879 -2.6821  1.0836
  418MOL0     H55116   2.810   2.838   1.300  0.9031 -1.4185  1.2387
  418MOL0     H55117   2.664   2.848   1.096  0.7929 -2.2092  4.5678
  418MOL0     H55118   2.802   2.922   1.010  1.2516  0.1762  2.3332
  418MOL0     H55119   2.723   3.058   1.257 -2.2095 -3.0463 -0.5434
  418MOL0     H55120   2.795   3.117   1.107 -0.1631  1.6273  0.2144
  418MOL0     H55121   2.503   3.027   1.120  1.0347 -1.1208 -1.8270
  418MOL0     H55122   2.605   3.111   0.984  3.9012  3.5315  0.7370
  418MOL0     H55123   2.626   3.318   1.098 -1.4893  1.9945 -0.2918
  418MOL0     H55124   2.549   3.247   1.237  0.6124  4.1268 -0.0963
  418MOL0     H55125   2.428   3.412   1.047  1.3687 -1.3358 -2.6557
  418MOL0     H55126   2.386   3.257   0.990 -2.2498  1.7091 -1.1957
  418MOL0     H55127   2.340   3.347   1.284 -0.7804  1.9646 -0.2676
  418MOL0     H55128   2.300   3.196   1.230 -1.7573  0.7068  0.8486
  418MOL0     H55129   2.192   3.566   1.165  1.4627 -1.0396  0.9803
  418MOL0     H55130   1.880   3.583   0.992  0.4165 -0.8385 -0.3831
  418MOL0     H55131   1.909   3.658   1.157  1.4992  1.0455 -0.9015
  418MOL0     H55132   1.738   3.502   1.247 -0.2479  0.3739 -0.0768
  418MOL0     H55133   1.711   3.430   1.094  1.4452 -1.7555  2.2206
  418MOL0     H55134   1.651   3.733   1.161 -2.5217  0.7793 -0.0248
  418MOL0     H55135   1.642   3.660   1.001  0.9047  1.2689  0.5028
  418MOL0     H55136   1.425   3.661   1.135  0.0493  0.0961  0.1395
  418MOL0     H55137   1.497   3.534   1.233 -1.9834  2.0429  1.1675
  418MOL0     H55138   1.221   3.371   1.027  1.7303 -2.9768 -2.6555
  418MOL0     H55139   1.031   3.447   0.862 -0.7280  1.9318  1.9817
  418MOL0     H55140   0.968   3.632   0.404  0.9446  0.5085 -2.2472
  418MOL0     H55141   0.764   3.713   0.276  2.2368  1.3951  0.3448
  418MOL0     H55142   0.474   3.492   0.375  2.8290  1.4128  0.4024
  418MOL0     H55143   0.443   3.554   0.219  3.1452  1.7739  0.1475
  418MOL0     H55144   0.223   3.541   0.335  0.4551  0.9918 -0.9068
  418MOL0     H55145   0.258   3.718   0.325 -0.2248 -0.1935  0.6515
  418MOL0     H55146   0.316   3.726   0.562 -0.0364  1.5136 -1.5511
  418MOL0     H55147   0.305   3.540   0.551 -0.4897 -1.8377 -2.3489
  418MOL0     H55148   0.065   3.727   0.518  1.4553  0.9267 -0.3961
  418MOL0     H55149   0.075   3.550   0.501 -0.5892 -0.1124 -0.0662
  418MOL0     H55150   0.148   3.712   0.753 -0.7548  0.9768 -0.0192
  418MOL0     H55151   0.150   3.541   0.749 -1.6119  0.4378  1.4948
  418MOL0     H55152  -0.090   3.532   0.701  5.3110 -2.9721  1.3876
  418MOL0     H55153  -0.109   3.701   0.677 -0.1213  1.0013  0.4821
  418MOL0     H55154  -0.184   3.606   0.899 -0.3342 -0.4689 -2.9413
  418MOL0     H55155  -0.014   3.569   0.936 -0.3988 -0.0391  0.3966
  418MOL0     H55156   0.033   3.827   0.908 -1.6320  2.6335  0.8906
  418MOL0     H55157  -0.075   3.807   1.042 -1.1427  1.0238  0.3394
  418MOL0     H55158   0.522   3.593   0.614 -0.0421 -1.2988 -0.9890
  418MOL0     H55159   0.729   3.533   0.739  1.0963  0.2888 -0.0014
  418MOL0     H55160   1.308   3.763   0.730  0.5272  3.5759  4.9319
  418MOL0     H55161   1.473   3.670   0.857 -0.3628  1.1720  0.4924
  418MOL0     H55162   2.934   2.431   1.402  2.9874 -0.3491 -0.5136
  418MOL0     H55163   3.007   2.200   1.369  4.1213  1.5202 -0.9407
  418MOL0     H55164   3.291   1.815   1.289  0.3504 -2.2260 -0.1846
  418MOL0     H55165   3.280   1.571   1.257  1.7919  0.1981 -1.0973
  418MOL0     H55166   3.093   1.360   1.219 -0.7086  1.7448 -0.9893
  418MOL0     H55167   3.264   1.376   1.162 -0.4072  2.4059 -0.0124
  418MOL0     H55168   3.045   1.164   1.070  0.5225 -2.1721 -0.1725
  418MOL0     H55169   3.210   1.173   0.998  3.6146 -3.2381  3.1724
  418MOL0     H55170   3.155   1.123   1.288 -1.4400  0.8725 -0.5221
  418MOL0     H55171   3.315   1.120   1.197 -0.0544 -1.2321 -0.4048
  418MOL0     H55172   3.088   0.950   1.105  0.5936 -1.4507 -2.3619
  418MOL0     H55173   3.255   0.914   1.102 -0.5784  0.4092 -0.1618
  418MOL0     H55174   3.192   0.765   1.477 -1.2135  0.7460  0.1418
  418MOL0     H55175   3.037   1.657   0.899  1.0502 -0.9763  0.0869
  418MOL0     H55176   3.014   1.874   0.962 -0.1465  0.1138  0.6061
  419MOL0     O55177   2.958   5.993   1.516  0.3504  0.0100  0.3999
  419MOL0     C55178   3.051   6.063   1.478 -0.2923  0.5882  0.1900
  419MOL0     O55179   3.057   6.131   1.356 -0.1490  0.1004 -0.4108
  419MOL0     C55180   2.951   6.110   1.267 -0.8914  0.7734 -0.8047
  419MOL0     C55181   2.945   5.983   1.197  0.7753 -0.7236  0.5120
  419MOL0     C55182   2.836   5.964   1.112  0.7343 -0.2300 -0.3507
  419MOL0     C55183   2.744   6.070   1.088  0.0112  1.1448 -0.2608
  419MOL0     O55184   2.628   6.048   1.004 -0.2289 -0.1627 -0.4496
  419MOL0     C55185   2.644   5.950   0.902 -0.5873  0.4213  0.0869
  419MOL0     C55186   2.517   5.967   0.816  0.1105  0.6498 -0.1013
  419MOL0     C55187   2.527   6.100   0.750 -0.0159  0.1638  0.5582
  419MOL0     C55188   2.394   6.117   0.663  0.3641  0.6560  0.2261
  419MOL0     C55189   2.410   6.070   0.521 -0.6594  0.1856  0.0193
  419MOL0     C55190   2.310   6.126   0.420 -0.4006 -0.3003 -0.1109
  419MOL0     C55191   2.326   6.054   0.285 -0.1297 -0.3413  0.0259
  419MOL0     C55192   2.213   6.101   0.200 -0.8778  0.9890 -0.2456
  419MOL0     N55193   2.198   6.037   0.068 -0.0521  0.0689 -0.3916
  419MOL0     C55194   2.279   6.069  -0.040  0.4334  0.7939  0.1592
  419MOL0     C55195   2.204   6.022  -0.148 -0.2197 -0.3502 -0.1122
  419MOL0     C55196   2.256   6.034  -0.303  0.5542 -0.0712 -1.0186
  419MOL0     C55197   2.189   5.940  -0.387  1.1202  0.4169  0.7887
  419MOL0     C55198   2.230   5.796  -0.371  0.6580  0.0047 -0.0355
  419MOL0     C55199   2.127   5.699  -0.437 -0.2772 -0.8293  0.5451
  419MOL0     O55200   2.150   5.562  -0.400  0.8549 -0.1919  0.8397
  419MOL0     C55201   2.128   5.504  -0.269 -0.4818  0.6223  0.3542
  419MOL0     C55202   2.201   5.386  -0.258 -0.3021  0.1308 -0.0742
  419MOL0     C55203   2.218   5.324  -0.132  0.6021  0.4039  0.3870
  419MOL0     C55204   2.150   5.373  -0.013 -0.6445  0.3100  0.1729
  419MOL0     C55205   2.179   5.323   0.119  0.3251  0.5668 -0.6268
  419MOL0     O55206   2.261   5.219   0.124 -0.2224  0.6718 -0.2109
  419MOL0     C55207   2.268   5.155   0.254 -0.2663  0.7410  0.0350
  419MOL0     C55208   2.368   5.168   0.347 -0.9689 -0.7803  0.6911
  419MOL0     C55209   2.357   5.102   0.473 -0.6578 -1.6558  0.0191
  419MOL0     C55210   2.250   5.022   0.500 -0.4789 -0.1929 -0.2274
  419MOL0     O55211   2.248   4.951   0.615 -0.3338 -0.4577 -0.2304
  419MOL0     C55212   2.160   4.998   0.714 -0.3165 -0.9908 -0.6776
  419MOL0     C55213   2.174   4.933   0.855  0.4193  0.3332 -0.5352
  419MOL0     C55214   2.324   4.887   0.894  0.3840  0.5076 -0.5257
  419MOL0     C55215   2.328   4.787   1.004  0.8939  0.0140 -0.4945
  419MOL0     C55216   2.468   4.758   1.066  0.0730 -0.4678 -0.3011
  419MOL0     C55217   2.459   4.647   1.164  0.6063  0.9861 -0.6237
  419MOL0     C55218   2.601   4.595   1.217 -0.0387 -0.9134 -1.2933
  419MOL0     C55219   2.635   4.676   1.347  0.5776 -0.5198  0.8519
  419MOL0    Cl55220   2.519   4.636   1.479  0.1964 -0.6253  0.6592
  419MOL0     C55221   2.144   5.019   0.413  0.2975 -0.2988 -0.1434
  419MOL0     C55222   2.151   5.084   0.292 -0.3957 -0.6270 -0.3928
  419MOL0     O55223   2.119   5.379   0.214 -0.4097 -0.0604  0.3278
  419MOL0     C55224   2.063   5.481  -0.042  0.2564  0.0693 -0.3897
  419MOL0     C55225   2.048   5.545  -0.164  0.2768  0.3464 -0.1596
  419MOL0     N55226   2.108   5.939  -0.097 -0.2405  0.5632 -1.2536
  419MOL0     N55227   2.103   5.947   0.026 -0.2214 -0.6791  0.2055
  419MOL0     C55228   2.752   6.193   1.156 -1.6367  0.2561  0.5717
  419MOL0     C55229   2.851   6.207   1.249 -0.4775 -0.1142  0.3342
  419MOL0     C55230   3.176   6.075   1.551 -0.2714  0.0530  0.6079
  419MOL0     C55231   3.295   6.102   1.485 -0.2775 -0.4849  0.2340
  419MOL0     C55232   3.417   6.127   1.546 -0.0114  0.1264 -0.3863
  419MOL0     C55233   3.428   6.130   1.683  1.2303 -0.1010  0.0861
  419MOL0     O55234   3.543   6.185   1.734 -0.1404 -0.4170  0.2664
  419MOL0     C55235   3.552   6.199   1.872  0.1644  0.2399 -0.7461
  419MOL0     C55236   3.697   6.237   1.897  0.8472  0.8952 -0.6429
  419MOL0     C55237   3.694   6.338   2.009 -0.4981  1.0721  0.0899
  419MOL0     C55238   3.767   6.291   2.139  0.2005  0.4119 -0.6098
  419MOL0     C55239   3.721   6.152   2.169 -0.5746  0.5691 -0.5488
  419MOL0     C55240   3.677   6.039   2.190 -0.8965 -0.4725 -0.3911
  419MOL0     C55241   3.311   6.099   1.759  0.1430 -0.7190 -0.1009
  419MOL0     C55242   3.189   6.062   1.688 -0.6816  0.4361  0.4298
  419MOL0     H55243   3.023   5.908   1.199  1.1179 -0.7068 -3.7985
  419MOL0     H55244   2.824   5.866   1.068  0.1482 -1.5435  2.5496
  419MOL0     H55245   2.644   5.851   0.949  0.3522  0.2179 -0.3311
  419MOL0     H55246   2.733   5.954   0.839 -1.9245  1.8154 -1.8482
  419MOL0     H55247   2.423   5.973   0.872  2.0193  0.5337  3.3983
  419MOL0     H55248   2.514   5.880   0.751 -0.0972  0.9464 -0.4961
  419MOL0     H55249   2.621   6.129   0.702 -0.2770 -1.6441 -1.1903
  419MOL0     H55250   2.518   6.176   0.828 -2.6875 -1.0433  1.5466
  419MOL0     H55251   2.304   6.066   0.698  2.3819 -2.9564  0.6151
  419MOL0     H55252   2.380   6.225   0.654  2.4346  0.9339 -0.1798
  419MOL0     H55253   2.408   5.960   0.525 -0.5056  0.1718 -0.3242
  419MOL0     H55254   2.510   6.091   0.482 -0.7278  0.1855 -0.1559
  419MOL0     H55255   2.342   6.228   0.398  0.5123 -0.2196  1.4509
  419MOL0     H55256   2.211   6.132   0.466 -0.8953  2.0513 -1.3012
  419MOL0     H55257   2.421   6.080   0.237  1.3621  1.1185  3.4380
  419MOL0     H55258   2.324   5.947   0.308  0.7218 -0.6889 -1.3819
  419MOL0     H55259   2.213   6.210   0.202 -0.4280  0.9992  2.8328
  419MOL0     H55260   2.127   6.072   0.260  0.0295 -1.3680  0.0336
  419MOL0     H55261   2.371   6.125  -0.056  0.6370  0.3494 -0.2594
  419MOL0     H55262   2.364   6.022  -0.315  0.5100 -0.2163 -1.2706
  419MOL0     H55263   2.226   6.136  -0.329 -1.8024 -0.2624  0.6168
  419MOL0     H55264   2.215   5.965  -0.490  0.6409 -0.4841  0.4341
  419MOL0     H55265   2.080   5.948  -0.375  0.6563 -0.1741 -2.2736
  419MOL0     H55266   2.323   5.792  -0.430 -1.3278 -0.1774 -3.4487
  419MOL0     H55267   2.238   5.765  -0.267  1.5455  1.1377  0.2483
  419MOL0     H55268   2.143   5.710  -0.544 -0.6380  2.9269  0.7356
  419MOL0     H55269   2.023   5.733  -0.431 -0.1058 -0.3459  0.9466
  419MOL0     H55270   2.257   5.349  -0.343 -0.8023 -0.2739 -0.2362
  419MOL0     H55271   2.288   5.242  -0.134 -2.0799 -2.1502  2.6047
  419MOL0     H55272   2.458   5.218   0.314 -2.3490  0.2021 -1.8240
  419MOL0     H55273   2.433   5.117   0.549 -2.0986  2.3541  0.9364
  419MOL0     H55274   2.056   4.990   0.680 -0.3261 -0.1348 -0.8673
  419MOL0     H55275   2.176   5.105   0.727  0.7701 -1.0262 -1.5706
  419MOL0     H55276   2.107   4.847   0.871  2.5477 -1.2414  0.3356
  419MOL0     H55277   2.139   5.013   0.922  0.4055  0.5585 -0.8117
  419MOL0     H55278   2.393   4.970   0.909  2.9613 -1.5995  0.0150
  419MOL0     H55279   2.372   4.835   0.810  2.6279  0.4277  0.7322
  419MOL0     H55280   2.253   4.810   1.080  0.4344 -0.3860 -0.8240
  419MOL0     H55281   2.307   4.694   0.951 -1.7912  1.3336 -1.9527
  419MOL0     H55282   2.515   4.843   1.117  0.6449  0.1566 -1.7854
  419MOL0     H55283   2.543   4.732   0.990  2.4985  2.7542  0.7244
  419MOL0     H55284   2.402   4.563   1.123  1.1768 -0.6593  1.7014
  419MOL0     H55285   2.394   4.681   1.245 -0.0723  0.9461 -1.1452
  419MOL0     H55286   2.595   4.488   1.239 -1.0658 -0.7220 -0.5687
  419MOL0     H55287   2.684   4.616   1.150  2.9718  0.7274  2.5196
  419MOL0     H55288   2.638   4.783   1.326 -1.8709 -0.7355 -0.9356
  419MOL0     H55289   2.739   4.646   1.368  1.0800  0.1890 -0.5011
  419MOL0     H55290   2.057   4.960   0.439 -1.0698  1.4304 -0.6272
  419MOL0     H55291   2.072   5.084   0.217 -1.1626  2.3966  0.2497
  419MOL0     H55292   2.010   5.540   0.033  2.6138  0.4817  1.0558
  419MOL0     H55293   1.980   5.627  -0.182  0.8247  0.3735 -2.4221
  419MOL0     H55294   2.668   6.261   1.149 -1.3022  0.8127  1.7309
  419MOL0     H55295   2.842   6.292   1.316  0.9513 -0.3772  0.8990
  419MOL0     H55296   3.299   6.103   1.377 -2.5373  1.6816  0.0774
  419MOL0     H55297   3.509   6.146   1.492  0.7625 -2.8065 -0.2795
  419MOL0     H55298   3.533   6.101   1.917 -0.5205  1.2302  1.2456
  419MOL0     H55299   3.470   6.262   1.909 -1.2902 -1.6106 -0.6882
  419MOL0     H55300   3.743   6.142   1.927  0.5774  0.8923 -0.2272
  419MOL0     H55301   3.744   6.282   1.810 -0.7370  3.3216 -0.3319
  419MOL0     H55302   3.590   6.340   2.042 -0.5060 -1.8664  0.4964
  419MOL0     H55303   3.737   6.434   1.978  3.2572  0.3517  2.3941
  419MOL0     H55304   3.876   6.301   2.138  0.1300  1.2462 -0.1602
  419MOL0     H55305   3.741   6.348   2.228  0.2051 -2.0788  1.1013
  419MOL0     H55306   3.632   5.942   2.196 -1.9349  0.0821  1.9831
  419MOL0     H55307   3.331   6.101   1.866 -0.5269  0.0676  0.0119
  419MOL0     H55308   3.101   6.035   1.745 -1.4317  0.0577 -0.8721
  420MOL0     O55309   0.959   6.063   8.425 -0.0455 -0.0021 -0.3558
  420MOL0     C55310   1.002   6.050   8.315  0.4396 -0.5089  0.5537
  420MOL0     O55311   0.930   6.035   8.186  1.5414  0.6441 -0.1207
  420MOL0     C55312   0.792   6.055   8.187  1.1410 -0.7124  0.3565
  420MOL0     C55313   0.721   6.176   8.210  0.5826 -0.5045 -0.3046
  420MOL0     C55314   0.577   6.185   8.210 -0.8564  0.5431 -0.1662
  420MOL0     C55315   0.509   6.084   8.149  0.4573  1.5813 -0.1145
  420MOL0     O55316   0.368   6.090   8.148  0.1931  0.2270  0.2800
  420MOL0     C55317   0.296   5.973   8.119  0.6377 -0.3196 -0.2999
  420MOL0     C55318   0.155   6.025   8.150  0.3406 -0.6407  0.0745
  420MOL0     C55319   0.107   6.135   8.042 -0.4207  0.2309 -0.4407
  420MOL0     C55320   0.001   6.224   8.108 -0.3208  0.2665 -0.0342
  420MOL0     C55321  -0.034   6.353   8.032  0.3240 -0.4262  0.3353
  420MOL0     C55322  -0.055   6.339   7.881  0.0303 -0.7246 -0.2545
  420MOL0     C55323  -0.121   6.463   7.830  0.2517  0.4770  0.5549
  420MOL0     C55324  -0.277   6.451   7.814  0.6307 -0.1034 -0.9129
  420MOL0     N55325  -0.344   6.567   7.759 -0.4177 -0.4022  0.0855
  420MOL0     C55326  -0.401   6.559   7.634  0.3939 -0.2736  0.5214
  420MOL0     C55327  -0.416   6.689   7.605  0.7233  0.2748  0.3862
  420MOL0     C55328  -0.474   6.713   7.470  0.0957 -0.1959  0.0627
  420MOL0     C55329  -0.509   6.861   7.457  0.7294 -1.0147 -0.5864
  420MOL0     C55330  -0.553   6.905   7.315 -0.1548 -0.0045 -0.3945
  420MOL0     C55331  -0.612   7.048   7.319 -0.4359 -0.2660 -0.6421
  420MOL0     O55332  -0.603   7.088   7.183  0.0153 -0.1648 -0.4570
  420MOL0     C55333  -0.677   7.202   7.182  0.3786  0.1996 -0.3300
  420MOL0     C55334  -0.812   7.193   7.174  0.3547 -0.4104  0.1398
  420MOL0     C55335  -0.881   7.312   7.156  0.0846  0.0636  0.3502
  420MOL0     C55336  -0.824   7.444   7.160  0.2103 -0.0568 -0.3372
  420MOL0     C55337  -0.905   7.570   7.167 -0.0388  0.8945  0.3595
  420MOL0     O55338  -0.845   7.669   7.246  0.4176  1.0284  0.4006
  420MOL0     C55339  -0.887   7.793   7.226 -0.6606  0.0286  0.1403
  420MOL0     C55340  -1.016   7.820   7.264 -0.3539  0.3376  0.1469
  420MOL0     C55341  -1.049   7.958   7.281  0.9342  0.7380  0.4574
  420MOL0     C55342  -0.964   8.066   7.241  0.7348  0.3803 -0.2677
  420MOL0     O55343  -1.001   8.201   7.235 -0.3952  0.2047  1.0046
  420MOL0     C55344  -1.132   8.236   7.281 -1.0435 -0.9455 -0.4787
  420MOL0     C55345  -1.242   8.205   7.185 -0.2004  1.2319  0.1783
  420MOL0     C55346  -1.273   8.339   7.112 -0.6176  0.0987  0.3932
  420MOL0     C55347  -1.398   8.340   7.028 -0.3941 -1.2689  0.3100
  420MOL0     C55348  -1.412   8.482   6.959  0.3890  0.4602  0.2333
  420MOL0     C55349  -1.549   8.507   6.901  0.5207  0.5791  0.6980
  420MOL0     C55350  -1.554   8.635   6.806 -0.4216  0.0537  0.2000
  420MOL0     C55351  -1.681   8.638   6.731 -0.2533  0.3809 -0.2994
  420MOL0    Cl55352  -1.730   8.490   6.637 -0.1248  0.2807 -0.0082
  420MOL0     C55353  -0.837   8.031   7.186  0.4658 -0.2219  0.6472
  420MOL0     C55354  -0.798   7.896   7.181 -0.0630  0.2274 -0.0014
  420MOL0     O55355  -1.006   7.580   7.102 -0.5147 -0.7380 -0.5909
  420MOL0     C55356  -0.686   7.444   7.188 -0.2283  0.0798  0.6677
  420MOL0     C55357  -0.611   7.325   7.186 -1.1904 -1.0375 -0.9741
  420MOL0     N55358  -0.367   6.771   7.708 -0.1303 -0.3440  0.6416
  420MOL0     N55359  -0.315   6.693   7.796 -0.6749 -0.7680 -0.6491
  420MOL0     C55360   0.574   5.961   8.128  0.4539  0.1478  0.1515
  420MOL0     C55361   0.719   5.950   8.147  0.3095 -0.2184 -0.3519
  420MOL0     C55362   1.153   6.061   8.295 -0.3967  0.2719  0.1564
  420MOL0     C55363   1.208   6.059   8.163  0.5793 -0.2019  0.7795
  420MOL0     C55364   1.344   6.057   8.142  0.1709  0.0045 -0.6482
  420MOL0     C55365   1.437   6.075   8.254 -0.7294 -0.0183 -0.6634
  420MOL0     O55366   1.575   6.068   8.238  0.9226 -0.1929  0.0841
  420MOL0     C55367   1.634   6.010   8.120  0.5430 -0.3027 -0.4258
  420MOL0     C55368   1.746   6.104   8.077  1.1617 -0.0642 -0.5062
  420MOL0     C55369   1.710   6.256   8.074  0.0248 -0.2184 -0.3678
  420MOL0     C55370   1.768   6.329   8.190 -0.8330 -0.4507  0.2113
  420MOL0     C55371   1.735   6.471   8.186 -0.3744  0.4119  0.6268
  420MOL0     C55372   1.732   6.594   8.201  0.3211  0.2559  0.1289
  420MOL0     C55373   1.387   6.064   8.382 -0.1298 -0.3981  0.3385
  420MOL0     C55374   1.246   6.065   8.400 -1.4961  0.0610 -0.1456
  420MOL0     H55375   0.769   6.268   8.242 -2.0221  1.2494 -1.1190
  420MOL0     H55376   0.531   6.278   8.243  2.1039  2.0740 -0.0857
  420MOL0     H55377   0.319   5.889   8.186  1.4482 -0.0721 -0.2609
  420MOL0     H55378   0.296   5.950   8.013  1.7224  5.0559 -1.7786
  420MOL0     H55379   0.150   6.061   8.253 -1.2544  0.5762 -0.3934
  420MOL0     H55380   0.082   5.945   8.135 -1.6248  1.1878 -0.5765
  420MOL0     H55381   0.064   6.085   7.954  0.2766  2.1476 -1.9372
  420MOL0     H55382   0.184   6.204   8.007  0.7323 -0.6897  0.2265
  420MOL0     H55383  -0.087   6.163   8.127 -0.7720  0.9750  0.2164
  420MOL0     H55384   0.033   6.259   8.207  4.8256 -2.5661 -0.3521
  420MOL0     H55385   0.033   6.433   8.062  1.6171 -2.5429  3.6150
  420MOL0     H55386  -0.128   6.396   8.068  2.2012  2.9048  1.6057
  420MOL0     H55387  -0.117   6.254   7.852 -0.6618 -0.3198  0.0297
  420MOL0     H55388   0.035   6.327   7.820  1.4913 -1.0994  1.8709
  420MOL0     H55389  -0.097   6.551   7.891  1.1771  0.9417 -0.4333
  420MOL0     H55390  -0.092   6.480   7.725  0.0886 -5.1103 -0.7264
  420MOL0     H55391  -0.330   6.429   7.907  1.9410 -6.2698 -1.2005
  420MOL0     H55392  -0.299   6.366   7.749 -2.3176 -2.2060  2.4727
  420MOL0     H55393  -0.422   6.476   7.568  1.4263  0.0019 -0.1832
  420MOL0     H55394  -0.570   6.663   7.455 -0.5790  0.7717  0.9690
  420MOL0     H55395  -0.398   6.688   7.396 -0.1052  4.3536 -2.0786
  420MOL0     H55396  -0.430   6.930   7.489 -0.3139 -0.4080  0.7812
  420MOL0     H55397  -0.597   6.886   7.516  0.1371  0.4754 -2.0269
  420MOL0     H55398  -0.465   6.899   7.251 -1.3855  3.1933 -2.6112
  420MOL0     H55399  -0.641   6.856   7.272 -2.1406  0.6743  2.5937
  420MOL0     H55400  -0.539   7.110   7.372  1.5103 -1.1931 -2.0695
  420MOL0     H55401  -0.706   7.055   7.373  1.3492 -0.9775  2.8143
  420MOL0     H55402  -0.862   7.097   7.178  0.3752 -0.4089  0.4993
  420MOL0     H55403  -0.989   7.300   7.148  0.5228 -3.8148 -1.7713
  420MOL0     H55404  -1.074   7.738   7.306 -0.0816 -1.4148 -2.6623
  420MOL0     H55405  -1.136   7.979   7.343  0.1000 -2.1697  0.4482
  420MOL0     H55406  -1.140   8.339   7.317 -0.2317 -1.3478  0.8875
  420MOL0     H55407  -1.159   8.182   7.371 -0.0580 -1.5214 -0.5192
  420MOL0     H55408  -1.321   8.177   7.255  2.2000  2.7856  3.7818
  420MOL0     H55409  -1.207   8.122   7.123 -0.4755  0.0453  1.5815
  420MOL0     H55410  -1.192   8.354   7.041 -1.7767  0.0373 -0.9940
  420MOL0     H55411  -1.275   8.431   7.171  1.9952  0.6538 -0.2819
  420MOL0     H55412  -1.391   8.270   6.943 -3.9963 -2.0732  0.5243
  420MOL0     H55413  -1.483   8.315   7.092 -2.6063 -0.0876 -1.9924
  420MOL0     H55414  -1.324   8.494   6.895 -1.2453 -0.7703 -2.3754
  420MOL0     H55415  -1.399   8.568   7.026 -1.4070  1.3899 -0.5445
  420MOL0     H55416  -1.621   8.511   6.982  0.1086 -1.5338  0.4955
  420MOL0     H55417  -1.567   8.420   6.838  0.9821 -0.0195  1.3817
  420MOL0     H55418  -1.543   8.728   6.863  1.0015  0.4211 -0.6373
  420MOL0     H55419  -1.478   8.622   6.728  1.8399 -1.9148  2.5515
  420MOL0     H55420  -1.672   8.718   6.657 -1.8017 -1.2255 -2.3488
  420MOL0     H55421  -1.768   8.661   6.793 -1.1881 -1.0306 -1.0297
  420MOL0     H55422  -0.766   8.103   7.147 -1.1955  2.1431  1.7762
  420MOL0     H55423  -0.701   7.877   7.138 -1.5956 -0.1363 -3.6101
  420MOL0     H55424  -0.642   7.543   7.200 -2.3806  0.8005  3.5438
  420MOL0     H55425  -0.504   7.333   7.194 -1.1519 -0.0385 -2.2560
  420MOL0     H55426   0.526   5.872   8.090  2.8274 -1.0393 -0.2605
  420MOL0     H55427   0.780   5.867   8.111  1.0260  0.4522 -0.7095
  420MOL0     H55428   1.143   6.058   8.076 -0.9667  4.0073  1.6472
  420MOL0     H55429   1.386   6.072   8.043  0.3179  1.1231 -0.4303
  420MOL0     H55430   1.567   5.984   8.038  0.7161 -2.0752 -0.0473
  420MOL0     H55431   1.671   5.910   8.145  0.7070  0.1825  1.3994
  420MOL0     H55432   1.835   6.075   8.134  0.5271  0.1135  0.6014
  420MOL0     H55433   1.789   6.083   7.979  1.7943  0.9281 -0.4561
  420MOL0     H55434   1.604   6.281   8.064  0.7043  2.7110 -1.2258
  420MOL0     H55435   1.756   6.294   7.982 -2.2148  1.7768 -0.7499
  420MOL0     H55436   1.738   6.289   8.287 -1.2819  0.7766  0.5974
  420MOL0     H55437   1.878   6.329   8.189 -0.7946 -0.6327 -2.6612
  420MOL0     H55438   1.727   6.697   8.231 -0.3359  0.0250  0.8303
  420MOL0     H55439   1.451   6.060   8.470  0.1795 -0.9597  0.0951
  420MOL0     H55440   1.205   6.058   8.500 -0.2185 -2.2486  0.2715
  421MOL0     O55441   3.472  10.388  10.569  0.6807 -0.2634 -0.8155
  421MOL0     C55442   3.539  10.472  10.633  0.8542 -0.8110  0.3956
  421MOL0     O55443   3.643  10.441  10.718  0.1194 -0.0923 -0.5784
  421MOL0     C55444   3.675  10.306  10.717  0.0182 -0.2628  0.3243
  421MOL0     C55445   3.642  10.238  10.835 -0.8074 -0.5886  1.4932
  421MOL0     C55446   3.663  10.095  10.839  0.0643  0.7157 -0.7329
  421MOL0     C55447   3.710  10.020  10.730  0.3191 -0.2453 -0.4892
  421MOL0     O55448   3.732   9.893  10.714  0.7259 -0.3466  0.4081
  421MOL0     C55449   3.730   9.812  10.835  0.8414 -0.9335 -0.7629
  421MOL0     C55450   3.700   9.674  10.779 -0.9598  0.7099  0.6575
  421MOL0     C55451   3.836   9.606  10.757 -0.3343  0.8360  0.3475
  421MOL0     C55452   3.817   9.479  10.679 -0.2664 -0.2177 -0.2633
  421MOL0     C55453   3.951   9.406  10.652 -0.6214  0.1771  0.9927
  421MOL0     C55454   3.925   9.270  10.595 -0.6803  0.7157 -0.2086
  421MOL0     C55455   4.045   9.178  10.593  0.8880 -0.2349 -1.1597
  421MOL0     C55456   4.074   9.110  10.732 -0.0724 -0.2646 -0.0451
  421MOL0     N55457   3.996   8.996  10.747 -0.6769  0.2152 -0.0540
  421MOL0     C55458   4.010   8.877  10.684  0.7593  0.9271 -0.0670
  421MOL0     C55459   3.932   8.787  10.744 -0.4217 -0.2781  0.2282
  421MOL0     C55460   3.924   8.639  10.723  0.7000 -0.0327  0.8138
  421MOL0     C55461   4.073   8.582  10.750 -0.1228  0.2638 -0.5772
  421MOL0     C55462   4.099   8.559  10.901  0.4366 -0.4417  0.3362
  421MOL0     C55463   4.249   8.572  10.934  0.4265  0.1791 -0.4988
  421MOL0     O55464   4.322   8.471  10.866 -0.4465  0.6297 -0.0560
  421MOL0     C55465   4.456   8.457  10.892  0.2817 -0.6370 -0.0007
  421MOL0     C55466   4.529   8.356  10.821 -0.1178  0.6580 -0.2216
  421MOL0     C55467   4.669   8.348  10.818 -0.1131  0.1850 -0.2285
  421MOL0     C55468   4.741   8.444  10.895 -0.3696 -0.3287 -0.1502
  421MOL0     C55469   4.896   8.448  10.895  0.4202  0.8960 -0.1233
  421MOL0     O55470   4.945   8.331  10.831 -0.1939 -0.1810 -0.5195
  421MOL0     C55471   5.080   8.324  10.817 -0.6349 -0.5223 -0.0281
  421MOL0     C55472   5.134   8.205  10.864  0.5947  0.4068 -0.3008
  421MOL0     C55473   5.271   8.174  10.867  1.3604 -0.4161 -0.2980
  421MOL0     C55474   5.360   8.265  10.807 -0.6332  0.8678  0.1928
  421MOL0     O55475   5.498   8.249  10.803 -0.1431  0.6172 -0.2901
  421MOL0     C55476   5.564   8.119  10.806  0.5904 -0.4186 -0.2645
  421MOL0     C55477   5.566   8.067  10.950 -0.6932  0.6572 -0.1346
  421MOL0     C55478   5.695   7.997  10.989  0.8890 -0.4122  0.0165
  421MOL0     C55479   5.691   7.941  11.127 -0.3516  0.3636 -0.0063
  421MOL0     C55480   5.630   7.797  11.141  0.3835  0.2475 -0.4408
  421MOL0     C55481   5.612   7.765  11.295 -0.1403 -0.0087  1.6090
  421MOL0     C55482   5.526   7.857  11.379 -0.3552 -0.6649 -0.0380
  421MOL0     C55483   5.438   7.783  11.484 -0.1044  0.2579 -0.3093
  421MOL0    Cl55484   5.312   7.670  11.420 -0.0729 -0.1717  0.2770
  421MOL0     C55485   5.307   8.384  10.757 -0.3112 -0.2096  0.3516
  421MOL0     C55486   5.175   8.418  10.779 -0.3713  1.1305  0.3417
  421MOL0     O55487   4.956   8.526  10.964 -0.4719 -0.2390  0.3351
  421MOL0     C55488   4.676   8.538  10.969  0.7972  0.9639  1.0211
  421MOL0     C55489   4.534   8.543  10.973  1.2422  0.2718  0.6402
  421MOL0     N55490   3.856   8.861  10.835 -0.1006 -0.2486 -0.3122
  421MOL0     N55491   3.913   8.978  10.849  1.1911 -0.2570 -0.6794
  421MOL0     C55492   3.757  10.102  10.625  0.6420  0.5830  0.1258
  421MOL0     C55493   3.736  10.236  10.612  1.3194  0.0815  0.1852
  421MOL0     C55494   3.510  10.618  10.610 -0.4703 -0.2571  0.2850
  421MOL0     C55495   3.444  10.654  10.494 -0.1124  0.9454  0.4263
  421MOL0     C55496   3.405  10.784  10.474 -0.5208 -0.2253  0.3794
  421MOL0     C55497   3.444  10.894  10.562  0.3932 -1.3216 -0.8832
  421MOL0     O55498   3.406  11.021  10.530 -0.0979 -0.1321 -1.1974
  421MOL0     C55499   3.436  11.118  10.629 -0.5930 -0.2891  0.5824
  421MOL0     C55500   3.385  11.251  10.579  0.0005 -0.3982  0.1434
  421MOL0     C55501   3.225  11.249  10.569 -0.2268 -0.0270  0.5655
  421MOL0     C55502   3.161  11.381  10.521 -0.0046  0.5169  0.4817
  421MOL0     C55503   3.184  11.504  10.597 -0.1008  0.2351 -0.0034
  421MOL0     C55504   3.212  11.616  10.655  0.0682  0.2254  0.5278
  421MOL0     C55505   3.510  10.857  10.682 -0.4626  0.5123  0.5298
  421MOL0     C55506   3.539  10.718  10.712 -0.4245  0.1707 -0.3620
  421MOL0     H55507   3.593  10.289  10.917 -2.3999 -1.8183  1.3628
  421MOL0     H55508   3.630  10.053  10.933 -2.2326  1.6565 -1.0452
  421MOL0     H55509   3.654   9.844  10.906  2.9279 -2.4088  2.3379
  421MOL0     H55510   3.821   9.815  10.896  0.2276 -0.0597  0.1403
  421MOL0     H55511   3.652   9.685  10.682  1.1926  3.5793 -0.2303
  421MOL0     H55512   3.644   9.623  10.858  4.4914 -0.9174  4.0615
  421MOL0     H55513   3.873   9.581  10.857 -1.6078 -1.8325  0.2223
  421MOL0     H55514   3.914   9.668  10.711 -0.1981  1.7313  1.7119
  421MOL0     H55515   3.752   9.422  10.744  0.3090 -0.0360  0.4849
  421MOL0     H55516   3.762   9.498  10.586 -1.3523  3.2972  0.9382
  421MOL0     H55517   4.003   9.395  10.748  2.2985  2.8815 -0.1249
  421MOL0     H55518   4.013   9.465  10.584 -0.9027 -0.4916  0.1288
  421MOL0     H55519   3.895   9.278  10.490  0.4611 -1.6701 -0.7893
  421MOL0     H55520   3.846   9.221  10.653  0.3720  1.5346  1.9998
  421MOL0     H55521   4.020   9.103  10.517  1.1739 -2.6808  1.0295
  421MOL0     H55522   4.124   9.246  10.559 -1.4453  2.1046 -2.3359
  421MOL0     H55523   4.046   9.180  10.812 -0.1911  1.0484 -1.2007
  421MOL0     H55524   4.181   9.090  10.738  0.3469  1.4397 -1.0327
  421MOL0     H55525   4.080   8.857  10.603  1.2615 -1.6481  0.8793
  421MOL0     H55526   3.906   8.617  10.618  0.3309  1.1408  0.6245
  421MOL0     H55527   3.846   8.585  10.777  1.3757 -1.7420  0.1503
  421MOL0     H55528   4.154   8.633  10.697 -1.9505  2.8265 -1.0643
  421MOL0     H55529   4.068   8.482  10.706 -0.5805 -0.0853  0.2472
  421MOL0     H55530   4.046   8.643  10.947 -0.5466 -0.3134 -0.9662
  421MOL0     H55531   4.060   8.462  10.934 -1.3673 -1.0824 -3.2057
  421MOL0     H55532   4.259   8.573  11.043 -0.3019  1.6135 -0.4230
  421MOL0     H55533   4.287   8.669  10.899  1.2045  0.0336 -0.0773
  421MOL0     H55534   4.462   8.284  10.775  0.0224  0.7563 -0.5817
  421MOL0     H55535   4.717   8.271  10.758  0.0186 -0.0207  0.1351
  421MOL0     H55536   5.067   8.127  10.900  1.7884 -1.4854 -1.9263
  421MOL0     H55537   5.305   8.084  10.917 -2.4969 -0.8596  1.9051
  421MOL0     H55538   5.664   8.130  10.762 -0.1952  1.2919 -1.7592
  421MOL0     H55539   5.519   8.055  10.731  1.1705  1.4398 -2.3142
  421MOL0     H55540   5.485   7.993  10.956  1.7433 -2.0908  1.0269
  421MOL0     H55541   5.553   8.150  11.022  0.9570  0.9830 -0.1848
  421MOL0     H55542   5.782   8.062  10.974  1.3659 -1.1134 -0.3208
  421MOL0     H55543   5.712   7.914  10.919  1.3404 -1.6003  1.4841
  421MOL0     H55544   5.797   7.929  11.152 -0.1575 -0.0012 -0.9337
  421MOL0     H55545   5.643   8.011  11.196 -0.4447  0.6586 -0.3695
  421MOL0     H55546   5.684   7.720  11.086  0.8156 -0.9295  1.5191
  421MOL0     H55547   5.532   7.796  11.092  0.1554 -4.1850 -0.3138
  421MOL0     H55548   5.714   7.771  11.334  1.4945 -1.1259 -2.1328
  421MOL0     H55549   5.579   7.661  11.281 -2.1801  0.9709 -1.8792
  421MOL0     H55550   5.587   7.929  11.434  0.1499 -0.0170 -1.4003
  421MOL0     H55551   5.453   7.903  11.312 -0.2981  2.4287  1.8214
  421MOL0     H55552   5.391   7.857  11.549 -2.6436 -1.8593  0.4397
  421MOL0     H55553   5.513   7.746  11.555 -1.1096  0.0464  0.6596
  421MOL0     H55554   5.373   8.460  10.714  1.0669 -1.1953  0.6625
  421MOL0     H55555   5.141   8.508  10.729 -0.3398 -0.0660 -1.9873
  421MOL0     H55556   4.730   8.605  11.035  0.4300 -0.1993  2.5727
  421MOL0     H55557   4.475   8.614  11.029 -1.8758  1.2144 -3.3516
  421MOL0     H55558   3.816  10.050  10.550 -1.2486 -2.2066  0.4413
  421MOL0     H55559   3.781  10.291  10.530  4.0111 -0.2638  1.3271
  421MOL0     H55560   3.407  10.579  10.424 -2.0209  0.2349  2.0946
  421MOL0     H55561   3.356  10.792  10.377 -2.9111  0.2952  1.5519
  421MOL0     H55562   3.544  11.113  10.643 -0.1279  1.3508 -1.9411
  421MOL0     H55563   3.385  11.089  10.722 -1.1149 -2.7807 -0.4273
  421MOL0     H55564   3.422  11.338  10.633 -0.2983  0.2166 -0.6204
  421MOL0     H55565   3.423  11.257  10.476 -0.5819 -1.7305 -0.1760
  421MOL0     H55566   3.183  11.215  10.664  0.7533 -1.8581  0.3965
  421MOL0     H55567   3.192  11.188  10.484  0.3897  1.7945 -1.0570
  421MOL0     H55568   3.207  11.389  10.423 -0.6654  0.4430  0.1593
  421MOL0     H55569   3.056  11.357  10.500  1.0137 -1.5366 -2.9475
  421MOL0     H55570   3.209  11.717  10.691 -1.3011  0.7196 -0.8553
  421MOL0     H55571   3.541  10.918  10.766 -1.6505 -2.3779  3.2866
  421MOL0     H55572   3.579  10.684  10.807  0.5952  0.1682 -0.7818
  422MOL0     O55573   3.948  11.201   1.680  0.1334  0.6352  0.4003
  422MOL0     C55574   3.953  11.308   1.626  0.0871 -0.4597  0.1426
  422MOL0     O55575   4.051  11.354   1.539  0.1739  0.2914 -0.8738
  422MOL0     C55576   4.155  11.270   1.518  0.0420  0.0965 -0.7960
  422MOL0     C55577   4.144  11.175   1.423  0.3381 -0.3671  1.8056
  422MOL0     C55578   4.248  11.090   1.395  0.0565  0.3753 -0.6751
  422MOL0     C55579   4.372  11.088   1.460  0.1465  0.3788 -0.0282
  422MOL0     O55580   4.471  10.995   1.428  0.3517  0.1984  0.0512
  422MOL0     C55581   4.425  10.857   1.388 -0.0736 -0.6510 -0.4416
  422MOL0     C55582   4.551  10.771   1.377 -0.7156 -0.0466  0.0444
  422MOL0     C55583   4.499  10.624   1.357  1.0547  0.2751 -0.2107
  422MOL0     C55584   4.605  10.514   1.392  0.3235 -0.3503  0.2883
  422MOL0     C55585   4.597  10.394   1.301  0.2963  0.6122 -0.4250
  422MOL0     C55586   4.491  10.314   1.365  0.4097 -0.2327 -0.0923
  422MOL0     C55587   4.443  10.183   1.286  0.6518  0.2414 -0.2778
  422MOL0     C55588   4.344  10.220   1.161  0.6201 -0.3434 -0.2857
  422MOL0     N55589   4.259  10.339   1.195  0.3591  0.2389  0.0109
  422MOL0     C55590   4.167  10.350   1.294 -0.5276  0.5978 -0.4207
  422MOL0     C55591   4.130  10.477   1.291 -0.1035  0.5584 -0.2702
  422MOL0     C55592   4.015  10.523   1.378 -0.1608  0.2439 -0.1658
  422MOL0     C55593   4.024  10.678   1.404 -0.5295  0.6788 -0.3036
  422MOL0     C55594   3.902  10.730   1.484 -1.2130 -0.4759  0.5597
  422MOL0     C55595   3.918  10.873   1.548  0.1246  0.4841 -0.3903
  422MOL0     O55596   3.936  10.953   1.427 -0.1423 -0.5127  0.2201
  422MOL0     C55597   3.827  10.974   1.341 -0.4925  0.1352 -0.0431
  422MOL0     C55598   3.855  10.961   1.202  0.1451  0.2406 -0.6010
  422MOL0     C55599   3.759  10.976   1.103  0.7622  0.5955  0.1160
  422MOL0     C55600   3.625  11.013   1.139 -0.7998  0.2650 -0.0011
  422MOL0     C55601   3.525  11.037   1.029 -0.1427  0.0757  0.8142
  422MOL0     O55602   3.423  11.114   1.071 -0.2735 -0.5329  0.7316
  422MOL0     C55603   3.310  11.123   0.982 -0.0154 -0.9840 -0.0895
  422MOL0     C55604   3.200  11.041   0.987 -0.2331  0.0236 -0.7873
  422MOL0     C55605   3.094  11.057   0.890  0.2239  0.6650 -0.2072
  422MOL0     C55606   3.087  11.159   0.796  1.0748  0.5384  0.3338
  422MOL0     O55607   2.977  11.182   0.722  0.5444  0.0348  1.1599
  422MOL0     C55608   2.995  11.166   0.583  0.9239  0.2542  0.2065
  422MOL0     C55609   2.861  11.183   0.514 -0.0292  0.1414  0.1047
  422MOL0     C55610   2.884  11.167   0.357  0.8205  0.7610 -0.1453
  422MOL0     C55611   2.748  11.214   0.307 -0.9916  0.6507 -0.2124
  422MOL0     C55612   2.770  11.206   0.155  0.2171  0.5075  0.9439
  422MOL0     C55613   2.659  11.265   0.074 -0.5890  0.3394 -0.9957
  422MOL0     C55614   2.675  11.250  -0.082  0.5241 -0.8330  0.5107
  422MOL0     C55615   2.538  11.273  -0.167  0.3952  0.5315  0.0387
  422MOL0    Cl55616   2.434  11.408  -0.110  0.1085  0.1816 -0.1830
  422MOL0     C55617   3.197  11.245   0.796 -0.3979 -0.8847  0.4901
  422MOL0     C55618   3.305  11.222   0.882  0.5770  0.4889  0.6713
  422MOL0     O55619   3.548  10.988   0.918  0.6490 -0.5407  0.1892
  422MOL0     C55620   3.600  11.031   1.276  0.0925  0.2755 -0.2176
  422MOL0     C55621   3.700  11.008   1.375  0.8501  0.4014 -0.5182
  422MOL0     N55622   4.210  10.541   1.197 -0.5227  0.8474 -0.1589
  422MOL0     N55623   4.290  10.461   1.136 -0.3469  1.0314  0.5016
  422MOL0     C55624   4.391  11.189   1.549 -0.3533  0.0368 -0.3198
  422MOL0     C55625   4.283  11.276   1.583 -0.1521  0.2414 -0.1408
  422MOL0     C55626   3.837  11.396   1.647 -0.2116 -0.1550  0.7283
  422MOL0     C55627   3.859  11.534   1.649 -0.4477  0.7780 -0.8058
  422MOL0     C55628   3.753  11.618   1.683  1.5540  0.3690 -0.1432
  422MOL0     C55629   3.623  11.572   1.706  0.1599 -0.0453 -0.2944
  422MOL0     O55630   3.519  11.661   1.736  0.0188 -0.3793 -0.5130
  422MOL0     C55631   3.388  11.617   1.787  0.2099 -0.0632 -0.6180
  422MOL0     C55632   3.302  11.571   1.670 -0.6446 -0.0317  0.1758
  422MOL0     C55633   3.224  11.688   1.607  0.9065 -0.3609  0.5051
  422MOL0     C55634   3.132  11.637   1.485  0.5574  0.6060  0.4455
  422MOL0     C55635   3.047  11.739   1.435 -0.0218  0.2952  0.6269
  422MOL0     C55636   2.969  11.824   1.387 -1.9627  0.3995 -0.1522
  422MOL0     C55637   3.601  11.433   1.686 -0.4337 -0.0484  0.8139
  422MOL0     C55638   3.706  11.347   1.671 -0.7640  0.0646 -0.1717
  422MOL0     H55639   4.048  11.172   1.372  0.8979 -0.4801  0.7288
  422MOL0     H55640   4.218  11.025   1.313  0.1702  1.7912 -1.8802
  422MOL0     H55641   4.372  10.865   1.293  0.7157  0.1407 -0.8353
  422MOL0     H55642   4.352  10.834   1.466  0.2428  2.2143  0.7978
  422MOL0     H55643   4.624  10.777   1.458 -0.9528 -2.6065  0.5288
  422MOL0     H55644   4.605  10.805   1.288  0.6891  0.2046  0.9682
  422MOL0     H55645   4.458  10.598   1.259 -1.5656 -0.1404  0.8895
  422MOL0     H55646   4.413  10.613   1.424 -0.0674 -2.1825 -1.8838
  422MOL0     H55647   4.702  10.561   1.371  0.9896 -2.1113 -0.7909
  422MOL0     H55648   4.605  10.492   1.499  0.5049  3.1187  1.1183
  422MOL0     H55649   4.693  10.341   1.310 -1.2637 -2.0996  2.2392
  422MOL0     H55650   4.577  10.414   1.196 -0.2544 -0.1043 -0.4650
  422MOL0     H55651   4.411  10.386   1.383 -1.1083 -2.2100  1.5453
  422MOL0     H55652   4.536  10.270   1.454 -0.0977 -2.0161 -0.6686
  422MOL0     H55653   4.522  10.117   1.250  1.4087  1.2275 -0.4630
  422MOL0     H55654   4.380  10.121   1.350  0.9714 -0.2622 -0.4498
  422MOL0     H55655   4.272  10.141   1.136  0.3894  0.3859 -2.0508
  422MOL0     H55656   4.403  10.254   1.075 -1.0800 -0.0396 -1.3833
  422MOL0     H55657   4.129  10.262   1.346 -0.3987  0.8519  0.1063
  422MOL0     H55658   4.039  10.475   1.474 -0.7725  1.5473  0.6799
  422MOL0     H55659   3.918  10.495   1.336 -0.1429  3.5314 -2.7522
  422MOL0     H55660   4.026  10.722   1.304 -3.4802 -0.4618 -0.9656
  422MOL0     H55661   4.117  10.687   1.461  0.8449 -3.5057 -1.4936
  422MOL0     H55662   3.816  10.732   1.416 -0.7265 -0.8211 -0.0668
  422MOL0     H55663   3.877  10.665   1.568  0.2141 -0.1433  1.2770
  422MOL0     H55664   4.006  10.876   1.615  0.8432 -2.7093 -1.0255
  422MOL0     H55665   3.827  10.909   1.597  0.2216 -0.1227  0.2537
  422MOL0     H55666   3.949  10.922   1.166 -1.5640 -2.8406 -2.0868
  422MOL0     H55667   3.771  10.964   0.996 -0.8663  2.8839 -0.3941
  422MOL0     H55668   3.184  10.964   1.061  1.6918  0.5299  0.2145
  422MOL0     H55669   3.006  10.995   0.903  0.5831  0.4924  1.6590
  422MOL0     H55670   3.034  11.068   0.554 -0.0996  0.1739 -1.0268
  422MOL0     H55671   3.066  11.239   0.542  0.9060  1.2062  1.7967
  422MOL0     H55672   2.818  11.280   0.537 -2.3547 -0.8314  0.1128
  422MOL0     H55673   2.786  11.110   0.546 -1.4256  0.8225 -1.4768
  422MOL0     H55674   2.916  11.070   0.318  0.9681  0.0907  1.5259
  422MOL0     H55675   2.955  11.241   0.321 -0.3868  0.3952 -3.6077
  422MOL0     H55676   2.663  11.148   0.330 -0.1853 -0.8546 -1.3595
  422MOL0     H55677   2.726  11.315   0.342  1.2106  1.2477 -0.4313
  422MOL0     H55678   2.762  11.100   0.129  0.7199  1.0199 -1.5082
  422MOL0     H55679   2.861  11.255   0.119 -0.0683  0.3873  0.0539
  422MOL0     H55680   2.655  11.373   0.089  1.9847  0.2894  0.7055
  422MOL0     H55681   2.573  11.207   0.110  0.8987 -0.0620  2.2583
  422MOL0     H55682   2.735  11.334  -0.118 -0.3621 -0.1042  0.7003
  422MOL0     H55683   2.720  11.154  -0.110  0.2981 -0.8139  0.0615
  422MOL0     H55684   2.482  11.180  -0.157  0.7566  0.2579 -0.4455
  422MOL0     H55685   2.555  11.286  -0.274  2.2665 -1.1667  0.0699
  422MOL0     H55686   3.210  11.324   0.723  0.2270 -1.4020  0.0338
  422MOL0     H55687   3.385  11.294   0.888  1.1467 -0.1034  0.2803
  422MOL0     H55688   3.498  11.059   1.300 -0.9785 -2.1344 -1.6268
  422MOL0     H55689   3.679  11.031   1.479  0.1357  4.0734 -1.3141
  422MOL0     H55690   4.487  11.210   1.595  0.5627  0.1276 -2.2237
  422MOL0     H55691   4.303  11.339   1.669  3.5800 -2.0222  0.8744
  422MOL0     H55692   3.958  11.565   1.616  0.5243 -1.7464 -0.5539
  422MOL0     H55693   3.757  11.726   1.677 -2.6769  1.0318  3.5586
  422MOL0     H55694   3.335  11.686   1.854 -2.3282 -1.8821 -0.6277
  422MOL0     H55695   3.411  11.528   1.846 -0.0294  0.6263  0.5717
  422MOL0     H55696   3.364  11.529   1.590 -1.1674 -2.1038  0.8115
  422MOL0     H55697   3.237  11.489   1.701  0.4884 -0.3192  1.9621
  422MOL0     H55698   3.298  11.761   1.573 -0.7405 -0.6536 -4.5294
  422MOL0     H55699   3.154  11.726   1.682  0.8685 -1.3056  0.9594
  422MOL0     H55700   3.203  11.607   1.407 -1.3646  1.0579 -1.5665
  422MOL0     H55701   3.068  11.559   1.525 -0.2557 -0.2853 -2.3976
  422MOL0     H55702   2.899  11.886   1.334 -0.3231  3.4363  1.0208
  422MOL0     H55703   3.507  11.378   1.688  0.6198 -2.0029 -0.4486
  422MOL0     H55704   3.685  11.241   1.664  1.5595 -0.4296 -0.3677
  423MOL0     O55705  10.530   0.030   7.446  0.0685  0.6633  0.3631
  423MOL0     C55706  10.567  -0.065   7.374  0.2642 -0.3298 -0.0373
  423MOL0     O55707  10.496  -0.162   7.322 -0.0190  0.7913  0.1491
  423MOL0     C55708  10.360  -0.145   7.328 -0.6410  0.5152  0.2935
  423MOL0     C55709  10.289  -0.160   7.449 -0.0106  0.1034  0.6737
  423MOL0     C55710  10.160  -0.111   7.456 -0.2608  0.1744 -1.1168
  423MOL0     C55711  10.091  -0.066   7.344  0.0886 -0.2884 -0.2570
  423MOL0     O55712   9.969  -0.003   7.366  0.5465  0.6465 -0.0710
  423MOL0     C55713   9.909   0.053   7.248 -0.6526 -0.1718  0.7677
  423MOL0     C55714   9.771   0.093   7.288 -0.0292  0.0581  0.5220
  423MOL0     C55715   9.684   0.121   7.165  0.4406 -0.3324 -0.0798
  423MOL0     C55716   9.711   0.260   7.103 -0.1431 -0.3237 -0.5612
  423MOL0     C55717   9.659   0.273   6.953 -0.3952  0.5510 -0.4580
  423MOL0     C55718   9.658   0.409   6.899 -0.2014 -0.0246 -0.3941
  423MOL0     C55719   9.528   0.472   6.957 -0.4964 -0.8663  0.7481
  423MOL0     C55720   9.504   0.615   6.921 -0.0652 -0.1154  0.1480
  423MOL0     N55721   9.557   0.668   6.789  0.4722  0.5072 -1.0824
  423MOL0     C55722   9.673   0.729   6.779 -0.6907 -0.6752  0.4037
  423MOL0     C55723   9.700   0.743   6.646 -0.5390  0.3018  0.8930
  423MOL0     C55724   9.831   0.787   6.575 -0.5211 -0.5956  0.0934
  423MOL0     C55725   9.839   0.942   6.542  0.4451  1.1509 -0.9680
  423MOL0     C55726   9.767   1.027   6.634  1.1451 -0.0443  0.3535
  423MOL0     C55727   9.789   1.172   6.618 -0.3769  0.2304 -0.4636
  423MOL0     O55728   9.915   1.214   6.661 -0.2581  0.1273  0.4240
  423MOL0     C55729   9.971   1.322   6.598  0.2578  0.3209 -0.4260
  423MOL0     C55730  10.109   1.334   6.598  0.1942  0.1735  0.0703
  423MOL0     C55731  10.169   1.432   6.527  0.4910 -0.3184  0.2936
  423MOL0     C55732  10.094   1.531   6.452 -0.2102  0.4192 -0.1889
  423MOL0     C55733  10.167   1.631   6.374  1.0775 -0.0747  0.3469
  423MOL0     O55734  10.094   1.746   6.344  0.0712 -0.1336  0.4099
  423MOL0     C55735  10.165   1.828   6.257  0.0613 -0.4239  0.0742
  423MOL0     C55736  10.150   1.813   6.116  0.4405 -0.0795 -0.2323
  423MOL0     C55737  10.224   1.895   6.019 -0.5928  0.4655 -0.0329
  423MOL0     C55738  10.317   1.987   6.062  0.3666 -0.2048 -1.0373
  423MOL0     O55739  10.377   2.054   5.960  0.2273  0.9690 -0.3824
  423MOL0     C55740  10.451   2.175   5.993 -1.2949 -0.0387  0.1633
  423MOL0     C55741  10.382   2.301   6.058  0.0270  0.2517  0.0197
  423MOL0     C55742  10.253   2.343   5.990 -0.1443 -0.1862  0.0799
  423MOL0     C55743  10.199   2.473   6.060  1.1440  0.4180  0.0675
  423MOL0     C55744  10.241   2.610   6.007 -0.3138  0.7046  0.4242
  423MOL0     C55745  10.268   2.700   6.128 -0.4766  0.9069 -0.8923
  423MOL0     C55746  10.336   2.835   6.094  0.5241 -0.1928 -0.4418
  423MOL0     C55747  10.235   2.936   6.043  0.8169  0.3125  0.6814
  423MOL0    Cl55748  10.329   3.089   6.006  0.1721 -0.1119 -0.6525
  423MOL0     C55749  10.337   1.998   6.200  0.1630  0.1906 -0.0978
  423MOL0     C55750  10.265   1.913   6.297 -0.6813 -0.2361 -0.2901
  423MOL0     O55751  10.288   1.606   6.348 -0.1416  0.2767 -0.3360
  423MOL0     C55752   9.951   1.518   6.452  0.2449 -0.1010 -0.4674
  423MOL0     C55753   9.899   1.412   6.523 -0.0924  0.3241  0.3731
  423MOL0     N55754   9.587   0.701   6.579 -0.0417 -0.3200 -0.1357
  423MOL0     N55755   9.490   0.676   6.669 -0.1441 -0.4521  0.5590
  423MOL0     C55756  10.157  -0.063   7.221 -0.0505 -0.0349  0.9199
  423MOL0     C55757  10.293  -0.105   7.209  0.7915  0.0383  0.2665
  423MOL0     C55758  10.715  -0.084   7.347  0.6195  0.0560  0.1872
  423MOL0     C55759  10.763  -0.198   7.273  0.0526 -0.4463 -0.1392
  423MOL0     C55760  10.901  -0.216   7.262 -0.2375 -0.6257 -1.0260
  423MOL0     C55761  10.995  -0.123   7.306 -0.1921  0.6489 -1.0335
  423MOL0     O55762  11.129  -0.152   7.295  0.1351  0.7446 -0.4327
  423MOL0     C55763  11.168  -0.269   7.223 -0.5394  0.4409 -0.4742
  423MOL0     C55764  11.314  -0.283   7.231 -0.1802  0.4008 -0.1174
  423MOL0     C55765  11.364  -0.343   7.367 -0.1812  0.3389 -0.5795
  423MOL0     C55766  11.360  -0.244   7.481 -0.4404  0.1964 -0.6041
  423MOL0     C55767  11.391  -0.306   7.609  0.3121 -0.9271 -1.1922
  423MOL0     C55768  11.434  -0.378   7.698 -0.4608 -0.2399  0.7197
  423MOL0     C55769  10.949  -0.014   7.367 -0.8444  0.5701 -0.1965
  423MOL0     C55770  10.814   0.011   7.390  0.3398 -0.5373 -0.4435
  423MOL0     H55771  10.341  -0.192   7.539 -2.8681 -4.2504  1.0715
  423MOL0     H55772  10.106  -0.123   7.549 -1.1721  1.2594 -1.4736
  423MOL0     H55773   9.887  -0.016   7.166 -0.2108 -0.0252  0.5272
  423MOL0     H55774   9.967   0.140   7.214 -1.3824  0.6957  1.6774
  423MOL0     H55775   9.779   0.183   7.351  2.5268 -3.0234  5.1794
  423MOL0     H55776   9.724   0.009   7.340 -0.3904 -0.6697 -0.9360
  423MOL0     H55777   9.584   0.128   7.209  0.5177 -1.4046  0.3088
  423MOL0     H55778   9.685   0.049   7.082  0.3086 -0.0893 -0.2949
  423MOL0     H55779   9.670   0.341   7.164 -0.6893 -0.9946 -0.0186
  423MOL0     H55780   9.817   0.282   7.088 -0.3528  0.9916 -0.2870
  423MOL0     H55781   9.558   0.234   6.945  0.0859 -0.7503 -0.3997
  423MOL0     H55782   9.728   0.210   6.896  1.2100  1.5187  0.3449
  423MOL0     H55783   9.659   0.403   6.790 -0.9888  2.0513 -0.5676
  423MOL0     H55784   9.750   0.464   6.920  2.0884 -2.8905 -2.2488
  423MOL0     H55785   9.448   0.419   6.905  0.5299 -1.3063 -0.4457
  423MOL0     H55786   9.526   0.454   7.065  2.2824  0.6981  1.1533
  423MOL0     H55787   9.552   0.677   6.997 -0.1268 -2.2927  2.1014
  423MOL0     H55788   9.395   0.628   6.924 -0.3202 -1.9807  0.7619
  423MOL0     H55789   9.744   0.743   6.861 -1.5496  2.4437  0.7137
  423MOL0     H55790   9.823   0.740   6.477  0.9742  1.3274 -1.0450
  423MOL0     H55791   9.919   0.761   6.634  0.5886  2.0702 -0.2123
  423MOL0     H55792   9.813   0.963   6.438 -2.0771  2.3819 -0.1973
  423MOL0     H55793   9.944   0.970   6.538  1.0292 -0.8248 -0.5346
  423MOL0     H55794   9.662   1.014   6.606 -0.1233  4.1168  2.3231
  423MOL0     H55795   9.776   1.005   6.741  2.1140  2.0382  0.7461
  423MOL0     H55796   9.723   1.232   6.683 -1.5426 -1.0744 -0.3893
  423MOL0     H55797   9.763   1.198   6.515  0.0151 -0.7406 -0.8140
  423MOL0     H55798  10.161   1.259   6.657  2.1362  1.1000 -0.4080
  423MOL0     H55799  10.275   1.452   6.538  1.2636 -3.6668  0.0993
  423MOL0     H55800  10.074   1.741   6.088  0.0600  1.1855 -2.7315
  423MOL0     H55801  10.205   1.885   5.913  1.0860  1.0630 -0.4295
  423MOL0     H55802  10.482   2.208   5.893  2.2747  0.6595  1.3360
  423MOL0     H55803  10.543   2.140   6.040 -1.2463 -2.2009 -1.4073
  423MOL0     H55804  10.455   2.381   6.044  0.3173 -0.2848 -1.7309
  423MOL0     H55805  10.360   2.285   6.164  0.6716  5.8603  1.3130
  423MOL0     H55806  10.181   2.262   6.005 -0.6976  0.6491  2.4799
  423MOL0     H55807  10.271   2.354   5.883 -1.0826 -4.5759 -0.6848
  423MOL0     H55808  10.090   2.483   6.060  1.2144  1.2740 -0.0515
  423MOL0     H55809  10.210   2.466   6.169 -2.4050  1.2680  0.6292
  423MOL0     H55810  10.165   2.654   5.941  0.9656  2.0939 -0.1669
  423MOL0     H55811  10.329   2.596   5.944  0.8039  3.2307  1.3064
  423MOL0     H55812  10.348   2.650   6.183 -2.4485 -1.2827  0.1430
  423MOL0     H55813  10.174   2.715   6.183 -1.1933  0.7620 -2.0335
  423MOL0     H55814  10.358   2.873   6.194 -1.6338  0.7669 -0.2717
  423MOL0     H55815  10.417   2.826   6.021 -0.1735  2.1553 -1.6152
  423MOL0     H55816  10.155   2.949   6.116  2.4136  2.2624  2.2175
  423MOL0     H55817  10.196   2.899   5.948  0.2459  0.2526  0.9358
  423MOL0     H55818  10.408   2.067   6.246 -1.4288  1.6744  0.2555
  423MOL0     H55819  10.274   1.919   6.406  0.2036  1.1960 -0.4062
  423MOL0     H55820   9.890   1.599   6.412  0.0918  1.5400  2.7469
  423MOL0     H55821   9.792   1.407   6.506  0.2280  0.4407 -1.9004
  423MOL0     H55822  10.105  -0.027   7.133  2.0416  0.0380 -0.3453
  423MOL0     H55823  10.338  -0.085   7.112  0.2732  0.5743  0.1321
  423MOL0     H55824  10.702  -0.282   7.241 -1.7511  0.6641  0.2687
  423MOL0     H55825  10.927  -0.320   7.243 -2.8017 -1.2984 -1.2881
  423MOL0     H55826  11.140  -0.262   7.118 -1.4795 -2.2384 -0.4858
  423MOL0     H55827  11.121  -0.362   7.257 -1.5649  1.6211  1.5382
  423MOL0     H55828  11.344  -0.355   7.154  2.3347  0.5727  0.6341
  423MOL0     H55829  11.365  -0.191   7.203  1.2337 -0.5060 -0.6402
  423MOL0     H55830  11.466  -0.382   7.364 -0.2378 -0.2648  2.5921
  423MOL0     H55831  11.299  -0.430   7.382  0.0179  0.0496 -1.3257
  423MOL0     H55832  11.427  -0.161   7.457  0.0198 -0.0908 -0.3228
  423MOL0     H55833  11.258  -0.204   7.481 -0.6040  0.3748  4.3331
  423MOL0     H55834  11.478  -0.438   7.775  1.3338 -1.2772 -1.0065
  423MOL0     H55835  11.011   0.068   7.402 -2.8825  1.3894  1.7117
  423MOL0     H55836  10.776   0.101   7.437 -0.7969  0.2019 -2.6051
  424MOL0     O55837   5.502   8.379   4.535 -0.4597 -0.0534  0.0430
  424MOL0     C55838   5.578   8.391   4.632  0.0926 -0.7183 -0.1425
  424MOL0     O55839   5.556   8.470   4.748  0.2966  0.1443  0.2186
  424MOL0     C55840   5.434   8.530   4.771 -1.0691  0.1679  1.3079
  424MOL0     C55841   5.333   8.575   4.680  0.0668  0.2742  0.9135
  424MOL0     C55842   5.233   8.663   4.718 -0.1966 -0.1885 -0.8085
  424MOL0     C55843   5.225   8.706   4.849 -0.3550  0.1427 -0.3097
  424MOL0     O55844   5.129   8.801   4.884 -0.7648 -0.3325 -0.4098
  424MOL0     C55845   5.055   8.788   5.007 -0.7389  0.4388  0.1110
  424MOL0     C55846   5.073   8.905   5.097 -0.5991 -0.3332 -0.4792
  424MOL0     C55847   4.985   8.888   5.216 -0.3411 -0.2769  0.1981
  424MOL0     C55848   5.000   9.006   5.309  0.0780 -0.5051 -0.4721
  424MOL0     C55849   4.956   8.969   5.455  0.3770  0.5563  0.5455
  424MOL0     C55850   4.950   9.085   5.546 -0.2113  0.2486  0.5130
  424MOL0     C55851   4.818   9.169   5.526  0.0310  0.1309 -0.4913
  424MOL0     C55852   4.826   9.320   5.549 -0.0182 -0.5441 -1.4403
  424MOL0     N55853   4.752   9.407   5.444 -0.7363 -1.1726  0.0462
  424MOL0     C55854   4.787   9.424   5.311  0.0741  0.5448 -0.0498
  424MOL0     C55855   4.685   9.499   5.266 -0.5801 -1.1137  0.1701
  424MOL0     C55856   4.666   9.536   5.114  0.8164 -0.6116  1.0575
  424MOL0     C55857   4.641   9.694   5.109  0.5374  0.6570  0.3083
  424MOL0     C55858   4.615   9.741   4.965  0.4635 -0.0605  0.0071
  424MOL0     C55859   4.624   9.894   4.960 -1.3631  0.0512 -0.4251
  424MOL0     O55860   4.579   9.931   4.824 -0.3670  0.0108 -0.0456
  424MOL0     C55861   4.605  10.058   4.780  0.7708 -0.2408  0.3602
  424MOL0     C55862   4.601  10.178   4.858  0.5888  0.5412  0.0961
  424MOL0     C55863   4.595  10.304   4.796 -0.3816  0.0469 -0.7444
  424MOL0     C55864   4.592  10.316   4.653 -1.1688 -0.3321 -0.0257
  424MOL0     C55865   4.585  10.449   4.592  0.3324 -1.1363 -0.3291
  424MOL0     O55866   4.482  10.537   4.629 -0.2269  0.1157  0.0078
  424MOL0     C55867   4.447  10.650   4.563 -1.0568 -0.2870 -1.3159
  424MOL0     C55868   4.515  10.730   4.466  0.2309  0.3736 -0.1884
  424MOL0     C55869   4.459  10.845   4.411  0.4492 -0.7493  0.3440
  424MOL0     C55870   4.327  10.883   4.448 -0.0093  1.0900 -0.3532
  424MOL0     O55871   4.275  11.009   4.416 -0.0485  0.3489  0.4316
  424MOL0     C55872   4.271  11.106   4.522  1.0278 -0.0234 -0.4846
  424MOL0     C55873   4.169  11.219   4.501  0.5470  0.1255  0.3302
  424MOL0     C55874   4.187  11.333   4.595 -0.7226 -0.6589 -0.3050
  424MOL0     C55875   4.321  11.409   4.585 -1.6356  0.8996 -0.5536
  424MOL0     C55876   4.298  11.551   4.648  0.6912  0.2112 -0.1253
  424MOL0     C55877   4.410  11.645   4.657 -0.8246 -0.3812  0.4387
  424MOL0     C55878   4.476  11.678   4.529 -0.6830  0.4822  0.8821
  424MOL0     C55879   4.577  11.783   4.548 -0.0187  0.5203  0.0826
  424MOL0    Cl55880   4.713  11.717   4.646  0.4936 -0.3375 -0.5563
  424MOL0     C55881   4.260  10.804   4.548 -0.3556 -0.7995 -0.0404
  424MOL0     C55882   4.319  10.691   4.596  0.7922 -0.3999 -0.5242
  424MOL0     O55883   4.673  10.476   4.515  0.0963 -0.3902 -0.6621
  424MOL0     C55884   4.593  10.199   4.578 -0.0637  0.1601  1.6846
  424MOL0     C55885   4.598  10.075   4.644  0.4527  0.5794 -0.4612
  424MOL0     N55886   4.589   9.532   5.358 -0.0260 -0.5239  0.4359
  424MOL0     N55887   4.635   9.478   5.468 -1.4491 -0.3073 -0.2583
  424MOL0     C55888   5.316   8.657   4.938 -0.4237 -0.7900  0.0385
  424MOL0     C55889   5.421   8.581   4.898  0.1803 -0.9096 -0.9090
  424MOL0     C55890   5.702   8.298   4.632 -0.6143  1.1747  0.0681
  424MOL0     C55891   5.799   8.316   4.734  0.9728 -0.3256  0.1801
  424MOL0     C55892   5.923   8.243   4.734 -0.6562 -0.6483  0.4326
  424MOL0     C55893   5.961   8.160   4.625 -0.1247 -1.3255  0.0566
  424MOL0     O55894   6.085   8.099   4.625 -0.7101  0.5455  0.5561
  424MOL0     C55895   6.128   8.016   4.516 -0.1266 -0.1246 -0.6367
  424MOL0     C55896   6.281   7.995   4.534 -0.1296 -0.2679  0.7732
  424MOL0     C55897   6.331   7.924   4.668  0.5119  0.3271 -0.0723
  424MOL0     C55898   6.482   7.898   4.675 -0.3676  0.2915  0.3463
  424MOL0     C55899   6.497   7.786   4.771 -0.0264  0.5025  0.5016
  424MOL0     C55900   6.496   7.702   4.858  1.2185  0.0978  0.4544
  424MOL0     C55901   5.864   8.142   4.517  0.8227  0.1195 -1.2856
  424MOL0     C55902   5.736   8.210   4.519 -0.9932 -0.3026 -0.1857
  424MOL0     H55903   5.338   8.553   4.574  0.9004 -0.0232  1.0101
  424MOL0     H55904   5.156   8.691   4.646  0.3077 -1.0152 -1.6945
  424MOL0     H55905   5.085   8.691   5.048  1.4992  0.5431 -1.0921
  424MOL0     H55906   4.953   8.776   4.970  0.0226  1.8461 -2.8158
  424MOL0     H55907   5.051   8.999   5.047  0.3842  0.5161  0.6246
  424MOL0     H55908   5.180   8.900   5.120 -0.4030  0.2812 -1.2271
  424MOL0     H55909   5.011   8.794   5.266  4.3014  0.6599  0.0034
  424MOL0     H55910   4.884   8.883   5.176 -0.6071  2.0586  0.4304
  424MOL0     H55911   5.098   9.054   5.316 -1.2782  2.5675 -1.0349
  424MOL0     H55912   4.941   9.090   5.273  2.6325  1.4263 -0.4066
  424MOL0     H55913   5.018   8.892   5.502  0.3071  0.8745  1.1619
  424MOL0     H55914   4.854   8.931   5.442  0.9590 -0.5715 -1.2151
  424MOL0     H55915   5.045   9.138   5.538 -1.1333  1.6004 -3.1329
  424MOL0     H55916   4.956   9.061   5.653  3.3152 -3.4001 -0.2626
  424MOL0     H55917   4.771   9.158   5.428 -2.3531 -2.0956  0.7897
  424MOL0     H55918   4.745   9.134   5.599  1.3219 -2.0192 -0.1280
  424MOL0     H55919   4.931   9.343   5.564 -0.0038 -0.6313 -1.4054
  424MOL0     H55920   4.776   9.349   5.642 -0.1438  0.9165 -1.9326
  424MOL0     H55921   4.863   9.372   5.255 -0.8951 -0.5874 -0.3704
  424MOL0     H55922   4.588   9.473   5.071  0.6795 -0.2819  0.8117
  424MOL0     H55923   4.760   9.514   5.064  1.4602  2.1368  0.8921
  424MOL0     H55924   4.735   9.743   5.139  1.2942 -1.5952  1.8441
  424MOL0     H55925   4.566   9.718   5.185  0.1343 -3.8526  1.5729
  424MOL0     H55926   4.684   9.697   4.893 -1.6841 -0.2035 -2.1064
  424MOL0     H55927   4.516   9.706   4.933  0.3175  0.2567  0.1106
  424MOL0     H55928   4.723   9.939   4.975 -2.7308  3.4512 -0.7051
  424MOL0     H55929   4.558   9.933   5.038  0.4141 -0.6479  1.5278
  424MOL0     H55930   4.593  10.178   4.967 -0.1942  1.1455  0.0469
  424MOL0     H55931   4.602  10.400   4.846  1.5724 -0.3195 -0.2071
  424MOL0     H55932   4.618  10.704   4.443 -0.2276 -2.3115  0.4255
  424MOL0     H55933   4.513  10.924   4.360 -2.8210 -0.1639 -2.5878
  424MOL0     H55934   4.375  11.138   4.536  1.4327  0.1423 -3.3111
  424MOL0     H55935   4.238  11.047   4.608 -1.3232 -0.5643 -1.6615
  424MOL0     H55936   4.074  11.173   4.531  0.7742  0.2125  1.2031
  424MOL0     H55937   4.173  11.248   4.396 -0.6980  0.1746  0.2858
  424MOL0     H55938   4.187  11.273   4.686 -0.8993  1.3140  1.0527
  424MOL0     H55939   4.103  11.403   4.589  0.4846  0.9088  0.2325
  424MOL0     H55940   4.392  11.354   4.647 -0.5709 -0.2001 -2.6602
  424MOL0     H55941   4.368  11.425   4.487  0.5100  2.3568  0.6252
  424MOL0     H55942   4.258  11.524   4.746 -0.0342  1.9164  0.0895
  424MOL0     H55943   4.225  11.595   4.580 -0.5901 -1.9588 -0.2420
  424MOL0     H55944   4.478  11.601   4.730  1.6781  0.3452 -1.3205
  424MOL0     H55945   4.364  11.731   4.706 -5.3547 -3.7761  2.9435
  424MOL0     H55946   4.526  11.589   4.491 -0.0239  0.2463  2.2646
  424MOL0     H55947   4.403  11.723   4.460 -1.6723 -2.0878  0.1366
  424MOL0     H55948   4.524  11.866   4.594  1.0510 -0.3948  3.2614
  424MOL0     H55949   4.612  11.819   4.451 -0.6828 -2.5549 -1.4226
  424MOL0     H55950   4.170  10.844   4.592 -0.8859 -1.0116 -0.9090
  424MOL0     H55951   4.260  10.646   4.675 -2.0315  0.5703 -1.9693
  424MOL0     H55952   4.591  10.205   4.469 -0.0294  0.3501  1.6929
  424MOL0     H55953   4.601   9.979   4.594  0.0350  0.6238 -0.5842
  424MOL0     H55954   5.328   8.705   5.035 -0.1969  1.0573 -0.8692
  424MOL0     H55955   5.507   8.573   4.964  0.4396 -2.2255 -1.3740
  424MOL0     H55956   5.782   8.382   4.818  0.9171 -2.1481  1.6758
  424MOL0     H55957   5.995   8.244   4.816  0.1388 -0.0860 -0.2471
  424MOL0     H55958   6.114   8.065   4.419 -0.9539  4.0298  1.3448
  424MOL0     H55959   6.070   7.924   4.510 -0.9323 -0.0225  3.2455
  424MOL0     H55960   6.314   7.938   4.446 -2.0092 -2.0518  1.1352
  424MOL0     H55961   6.312   8.100   4.530 -4.8570  1.4777  2.6488
  424MOL0     H55962   6.270   7.833   4.668  1.0614 -0.0499  0.3046
  424MOL0     H55963   6.293   7.971   4.759  1.7711  0.5884  0.3326
  424MOL0     H55964   6.522   7.876   4.575 -2.0578 -2.6759  0.1990
  424MOL0     H55965   6.533   7.987   4.712  0.0240 -0.3939  1.5206
  424MOL0     H55966   6.489   7.613   4.918 -2.0137  0.6277  1.0585
  424MOL0     H55967   5.881   8.065   4.442 -0.0714 -2.0645  0.6456
  424MOL0     H55968   5.674   8.196   4.431 -1.2218 -2.4500  0.2451
  425MOL0     O55969   5.552   2.342   0.670  0.3082 -0.2343 -0.7116
  425MOL0     C55970   5.564   2.380   0.558 -0.4095 -0.4222 -0.6579
  425MOL0     O55971   5.542   2.306   0.449 -0.5443  0.3340  0.2728
  425MOL0     C55972   5.505   2.172   0.465  0.5558  0.4620  0.5388
  425MOL0     C55973   5.585   2.062   0.428 -0.2502 -0.3230  0.4866
  425MOL0     C55974   5.521   1.935   0.429 -1.2404  0.4360 -0.0105
  425MOL0     C55975   5.395   1.907   0.469 -0.3204  0.5466 -0.5511
  425MOL0     O55976   5.334   1.783   0.470  0.4522  0.0465 -0.0994
  425MOL0     C55977   5.409   1.664   0.457 -0.5374  0.0864 -0.3692
  425MOL0     C55978   5.330   1.552   0.520 -0.8293 -1.0941  0.8346
  425MOL0     C55979   5.368   1.413   0.477 -0.6889 -0.8682 -0.2918
  425MOL0     C55980   5.281   1.305   0.539  0.4623 -0.1649 -0.6448
  425MOL0     C55981   5.305   1.158   0.492  0.5058  0.8575  0.0166
  425MOL0     C55982   5.212   1.058   0.552  0.4826  0.7985  0.3759
  425MOL0     C55983   5.235   0.913   0.500 -0.1319  0.2167  0.1520
  425MOL0     C55984   5.383   0.864   0.502 -0.2599 -0.2234 -0.8944
  425MOL0     N55985   5.429   0.824   0.635  0.7008  0.3643  0.4515
  425MOL0     C55986   5.404   0.711   0.710 -0.0657 -0.1784  0.1993
  425MOL0     C55987   5.461   0.736   0.831 -0.1852 -1.0708 -0.1861
  425MOL0     C55988   5.436   0.652   0.960  0.4229 -0.2410  0.8540
  425MOL0     C55989   5.563   0.642   1.044  0.3689  0.4635 -0.8638
  425MOL0     C55990   5.595   0.512   1.115 -0.7970  0.0040  0.3291
  425MOL0     C55991   5.486   0.463   1.210 -0.4493  0.1463  0.5572
  425MOL0     O55992   5.530   0.343   1.265 -0.4267  0.3071  0.0065
  425MOL0     C55993   5.466   0.272   1.364 -1.2567 -1.0594  0.6295
  425MOL0     C55994   5.437   0.334   1.481 -0.5862  1.2481 -0.8377
  425MOL0     C55995   5.388   0.263   1.592  0.0511  0.8707  0.3213
  425MOL0     C55996   5.371   0.127   1.585 -0.0121 -0.8419  0.7187
  425MOL0     C55997   5.316   0.048   1.707  0.1732 -0.2231 -0.1290
  425MOL0     O55998   5.278   0.112   1.816 -0.0769  0.2660  0.8690
  425MOL0     C55999   5.210   0.074   1.919  0.5165 -0.6382 -0.6456
  425MOL0     C56000   5.124  -0.043   1.914 -0.7230 -0.1096  0.2889
  425MOL0     C56001   5.056  -0.091   2.022  0.0020 -0.6177 -0.0551
  425MOL0     C56002   5.078  -0.031   2.144 -0.6051 -0.1902 -0.1226
  425MOL0     O56003   5.037  -0.090   2.265 -0.4640  0.0612  0.2666
  425MOL0     C56004   4.895  -0.115   2.282  0.5259  0.0893  0.4686
  425MOL0     C56005   4.840  -0.023   2.386 -0.6499  0.0967  0.0149
  425MOL0     C56006   4.688  -0.053   2.394  0.5763 -0.0491 -0.6806
  425MOL0     C56007   4.640   0.032   2.516 -0.1813 -0.4199  0.3651
  425MOL0     C56008   4.494   0.054   2.541  1.2585  0.0707 -0.7649
  425MOL0     C56009   4.406  -0.069   2.568  0.2351  0.0005  0.6917
  425MOL0     C56010   4.285  -0.013   2.647  0.2438  1.1295  0.7916
  425MOL0     C56011   4.180   0.064   2.567 -0.3219  0.1873 -1.1081
  425MOL0    Cl56012   4.091  -0.054   2.469  0.1542 -0.1323 -0.2250
  425MOL0     C56013   5.159   0.082   2.159 -0.1524 -0.1375 -0.2724
  425MOL0     C56014   5.218   0.138   2.044  0.3578 -0.6057 -0.2034
  425MOL0     O56015   5.301  -0.073   1.685  0.3678 -0.1831  0.1989
  425MOL0     C56016   5.386   0.071   1.457 -0.3116  0.4918  0.3559
  425MOL0     C56017   5.437   0.136   1.345  0.5927 -0.9067  0.6228
  425MOL0     N56018   5.530   0.853   0.825 -0.2143 -0.8837  0.4663
  425MOL0     N56019   5.504   0.907   0.715  0.3872  0.1764 -0.0869
  425MOL0     C56020   5.319   2.007   0.525 -0.0212  0.7981 -0.5352
  425MOL0     C56021   5.372   2.134   0.520 -0.0238  0.8026 -0.1841
  425MOL0     C56022   5.609   2.518   0.538 -0.1719 -0.4590  0.0619
  425MOL0     C56023   5.641   2.552   0.405 -1.3491 -0.7466  0.2903
  425MOL0     C56024   5.683   2.681   0.379 -0.0342 -0.1702 -0.0804
  425MOL0     C56025   5.699   2.772   0.476 -0.0352  0.1410 -0.2811
  425MOL0     O56026   5.745   2.893   0.431  0.3520 -0.4026  0.6306
  425MOL0     C56027   5.852   2.954   0.502 -1.1186  0.7150 -0.4784
  425MOL0     C56028   5.879   3.085   0.426 -0.1034  0.0433 -0.1449
  425MOL0     C56029   5.753   3.177   0.404  1.3251  0.4154 -0.0812
  425MOL0     C56030   5.685   3.231   0.527 -0.3016 -0.5042  0.1003
  425MOL0     C56031   5.774   3.317   0.617  0.1584  0.1894  1.1657
  425MOL0     C56032   5.838   3.368   0.696 -0.7275 -0.8634  0.6439
  425MOL0     C56033   5.664   2.740   0.610  0.3737 -0.4423 -0.4045
  425MOL0     C56034   5.617   2.616   0.638 -0.1102  0.3428 -0.8067
  425MOL0     H56035   5.680   2.063   0.376  0.4306  0.8921  1.6969
  425MOL0     H56036   5.578   1.854   0.383  1.9969  3.2542 -1.3505
  425MOL0     H56037   5.498   1.668   0.521 -2.2202 -0.5782  2.1218
  425MOL0     H56038   5.434   1.668   0.350  1.0853  2.7614  0.0151
  425MOL0     H56039   5.228   1.571   0.484  0.1458  1.6664 -0.7327
  425MOL0     H56040   5.326   1.565   0.628  3.0818  1.1895  0.8753
  425MOL0     H56041   5.469   1.390   0.511  0.1742  0.4324 -1.8302
  425MOL0     H56042   5.357   1.406   0.368  0.1709 -0.0620 -0.4454
  425MOL0     H56043   5.299   1.312   0.647  2.9606 -1.0226 -0.9377
  425MOL0     H56044   5.175   1.318   0.517  1.0380 -0.8321 -4.5171
  425MOL0     H56045   5.411   1.147   0.516  0.3484 -0.8135  0.0904
  425MOL0     H56046   5.285   1.137   0.387 -1.7845 -1.4723  0.8074
  425MOL0     H56047   5.109   1.091   0.536  0.0863 -0.6640 -0.2672
  425MOL0     H56048   5.226   1.067   0.660 -0.0453  3.3034  0.3010
  425MOL0     H56049   5.164   0.844   0.545 -4.2681  2.7060 -1.9865
  425MOL0     H56050   5.197   0.912   0.397  1.4704 -2.4435 -0.5223
  425MOL0     H56051   5.437   0.947   0.456 -0.1542  0.9243  1.1597
  425MOL0     H56052   5.387   0.772   0.444  2.3296 -2.8960  3.0300
  425MOL0     H56053   5.352   0.619   0.684 -0.2219 -0.8837  2.7556
  425MOL0     H56054   5.392   0.556   0.931 -1.1207  0.4684  0.7584
  425MOL0     H56055   5.356   0.703   1.015 -1.3926  1.0771 -2.6443
  425MOL0     H56056   5.561   0.716   1.124  0.9926  0.4130 -0.7938
  425MOL0     H56057   5.643   0.667   0.973  0.7579  1.5030 -0.0869
  425MOL0     H56058   5.615   0.432   1.043 -0.6288 -0.3826  0.8026
  425MOL0     H56059   5.688   0.529   1.170 -1.2480 -0.5734  1.2875
  425MOL0     H56060   5.381   0.458   1.178 -0.9816 -0.0125  2.2304
  425MOL0     H56061   5.483   0.542   1.285  1.4104  1.1515 -0.3598
  425MOL0     H56062   5.476   0.436   1.482 -1.7611  1.7301 -1.6835
  425MOL0     H56063   5.363   0.321   1.681  0.6026 -1.3483  2.0136
  425MOL0     H56064   5.110  -0.093   1.818  0.4595 -0.8299  0.4760
  425MOL0     H56065   4.996  -0.178   2.002 -2.6666  1.3024 -0.9801
  425MOL0     H56066   4.875  -0.219   2.309  0.9999 -0.4903 -1.2632
  425MOL0     H56067   4.843  -0.114   2.186  0.8380 -3.9516  0.0915
  425MOL0     H56068   4.863   0.081   2.361  1.8552 -0.3256  0.2853
  425MOL0     H56069   4.902  -0.041   2.474  4.2568  2.2302 -2.5980
  425MOL0     H56070   4.682  -0.161   2.409  3.7559 -0.0489  1.6642
  425MOL0     H56071   4.629  -0.027   2.305 -2.9235  1.3636  1.8207
  425MOL0     H56072   4.673  -0.022   2.605 -2.2642 -2.6016 -0.0921
  425MOL0     H56073   4.688   0.130   2.505 -1.7437  0.2437 -1.0472
  425MOL0     H56074   4.436   0.097   2.459 -1.2475  1.3725  1.5503
  425MOL0     H56075   4.486   0.111   2.634  0.2567  0.7526 -1.2553
  425MOL0     H56076   4.452  -0.147   2.628 -2.7073 -1.2557  1.4901
  425MOL0     H56077   4.370  -0.120   2.478 -0.2885  0.4000  0.6691
  425MOL0     H56078   4.231  -0.096   2.693  1.6199 -0.5466 -0.4403
  425MOL0     H56079   4.325   0.054   2.723  3.2543  1.4326 -0.8598
  425MOL0     H56080   4.232   0.138   2.504 -1.0917  1.3701 -0.3999
  425MOL0     H56081   4.112   0.120   2.632 -0.7461 -0.5313 -0.9361
  425MOL0     H56082   5.173   0.112   2.263 -0.2122  1.4022 -0.6892
  425MOL0     H56083   5.286   0.221   2.062 -0.5944  0.3800 -1.0143
  425MOL0     H56084   5.357  -0.031   1.436  1.3203 -0.2376  1.4606
  425MOL0     H56085   5.464   0.097   1.248  2.6495 -0.9539  1.1484
  425MOL0     H56086   5.222   1.990   0.570 -1.4895  0.2390 -3.5993
  425MOL0     H56087   5.302   2.213   0.547 -0.2105  0.1367  1.3791
  425MOL0     H56088   5.640   2.480   0.323  1.3358  0.1262 -0.6137
  425MOL0     H56089   5.704   2.700   0.274  0.7529 -0.4109  0.0299
  425MOL0     H56090   5.939   2.888   0.510 -1.3584  0.6236  3.3045
  425MOL0     H56091   5.841   2.976   0.608  1.2622  1.3231 -0.3022
  425MOL0     H56092   5.958   3.141   0.476 -0.7969  3.1369 -2.2137
  425MOL0     H56093   5.912   3.070   0.323  1.3507 -2.0925  0.5508
  425MOL0     H56094   5.679   3.127   0.341  2.4052 -3.5111  1.4611
  425MOL0     H56095   5.777   3.271   0.355 -0.5085  0.5214 -0.8564
  425MOL0     H56096   5.597   3.287   0.494  0.3631 -0.7081 -2.1733
  425MOL0     H56097   5.650   3.146   0.588 -1.1895 -0.6825 -0.6268
  425MOL0     H56098   5.895   3.428   0.764 -0.4036 -0.4101 -0.0274
  425MOL0     H56099   5.673   2.812   0.691  1.2355 -0.5466 -0.4012
  425MOL0     H56100   5.578   2.600   0.738  1.3288  0.8280 -0.1377
  426MOL0     O56101   9.720   7.737   9.010  0.4983  0.2083  0.3311
  426MOL0     C56102   9.637   7.825   9.043  0.8856 -0.1470 -0.2628
  426MOL0     O56103   9.513   7.844   8.979  0.2031  0.2698  0.1432
  426MOL0     C56104   9.483   7.755   8.879 -0.5799  0.5798 -0.2835
  426MOL0     C56105   9.451   7.796   8.748 -0.2080 -0.5535 -0.0330
  426MOL0     C56106   9.405   7.710   8.653 -1.1188  0.0464  0.0052
  426MOL0     C56107   9.423   7.567   8.672  0.4097 -0.6570 -0.2759
  426MOL0     O56108   9.388   7.468   8.584  0.0648 -0.0756  0.0592
  426MOL0     C56109   9.370   7.500   8.453  1.2442  0.7084  0.7384
  426MOL0     C56110   9.342   7.368   8.372  0.6542 -0.1055  0.2729
  426MOL0     C56111   9.220   7.299   8.428 -0.7810  0.9190 -0.6127
  426MOL0     C56112   9.175   7.176   8.344  0.0228 -0.1529  0.1228
  426MOL0     C56113   9.048   7.107   8.406 -0.7322 -0.8481  0.7601
  426MOL0     C56114   8.992   6.983   8.331  1.0878  0.3356 -0.3458
  426MOL0     C56115   8.937   7.015   8.191 -0.2472  0.0390  0.8593
  426MOL0     C56116   8.860   6.901   8.120 -0.0816 -0.3495  0.2282
  426MOL0     N56117   8.716   6.913   8.160 -0.3265  0.1845  0.2053
  426MOL0     C56118   8.626   7.005   8.104  0.7747  0.3703 -0.3334
  426MOL0     C56119   8.521   6.993   8.185 -0.3091 -0.8989 -0.2376
  426MOL0     C56120   8.398   7.081   8.183  0.1840 -0.0734 -0.5672
  426MOL0     C56121   8.268   7.017   8.203  0.7773 -0.3579 -0.5776
  426MOL0     C56122   8.186   6.954   8.088 -0.3135 -0.5200 -0.2456
  426MOL0     C56123   8.066   6.877   8.143  0.2569 -0.1612 -0.4234
  426MOL0     O56124   8.003   6.791   8.041  0.0040  0.1813  0.0734
  426MOL0     C56125   7.910   6.858   7.969 -0.1218  0.1349  1.2859
  426MOL0     C56126   7.772   6.859   8.008  0.6948 -0.1331  0.2011
  426MOL0     C56127   7.681   6.931   7.930 -0.6330  0.2612 -0.8909
  426MOL0     C56128   7.716   6.992   7.811 -0.1298 -0.2168 -0.5808
  426MOL0     C56129   7.615   7.054   7.724  0.1796 -0.5139  0.0509
  426MOL0     O56130   7.639   7.076   7.593  0.5067 -0.7621 -0.6120
  426MOL0     C56131   7.535   7.125   7.516 -0.4781  0.7676  0.1986
  426MOL0     C56132   7.498   7.256   7.545 -0.0019 -0.1268 -0.0185
  426MOL0     C56133   7.398   7.319   7.465 -0.0064 -0.1392 -0.3382
  426MOL0     C56134   7.335   7.250   7.366  1.1016 -0.0973  0.1661
  426MOL0     O56135   7.224   7.295   7.299 -0.5545  0.2041 -0.1918
  426MOL0     C56136   7.250   7.333   7.160  0.2529 -0.3345 -0.1112
  426MOL0     C56137   7.265   7.484   7.147  0.6720 -0.1718 -0.3489
  426MOL0     C56138   7.146   7.570   7.196 -1.2300  0.8109  1.3879
  426MOL0     C56139   7.149   7.717   7.134 -0.5986  0.6921 -0.6255
  426MOL0     C56140   7.027   7.784   7.173  0.9603  1.0449  0.4065
  426MOL0     C56141   7.036   7.933   7.133  0.0364  1.2572 -0.6280
  426MOL0     C56142   6.896   7.984   7.117  0.4198  0.3471  0.8117
  426MOL0     C56143   6.898   8.141   7.090 -0.2020  0.7080  0.0550
  426MOL0    Cl56144   6.958   8.160   6.921 -0.5436 -0.4127  0.1577
  426MOL0     C56145   7.363   7.114   7.349 -0.7850  0.0805  0.1940
  426MOL0     C56146   7.469   7.048   7.419 -0.4380  0.2531  0.9276
  426MOL0     O56147   7.499   7.062   7.779 -0.1799 -0.6829  0.8015
  426MOL0     C56148   7.853   6.993   7.774  0.2249  0.4586 -0.0423
  426MOL0     C56149   7.954   6.920   7.837 -0.9699 -0.6622 -0.0085
  426MOL0     N56150   8.551   6.914   8.293  0.3899  0.6046  0.1905
  426MOL0     N56151   8.662   6.861   8.275  0.5696 -0.0254  0.5969
  426MOL0     C56152   9.458   7.528   8.801  0.0332  0.1900  0.2813
  426MOL0     C56153   9.489   7.620   8.902  1.1402  0.0317  0.6031
  426MOL0     C56154   9.664   7.898   9.170  0.2019  0.4412  0.1396
  426MOL0     C56155   9.780   7.879   9.249 -0.3600  0.3885  0.7662
  426MOL0     C56156   9.797   7.942   9.367  0.3457  0.4810 -0.7938
  426MOL0     C56157   9.710   8.039   9.410  1.5783 -0.2724  0.1287
  426MOL0     O56158   9.720   8.110   9.525 -0.0895  0.6315 -0.2697
  426MOL0     C56159   9.849   8.117   9.585 -0.9453  0.5403 -0.4888
  426MOL0     C56160   9.845   8.198   9.710 -0.6563  0.0620 -0.5786
  426MOL0     C56161   9.985   8.200   9.778  0.1368 -0.7171  0.5114
  426MOL0     C56162   9.992   8.313   9.881  0.3416  0.7398 -0.8333
  426MOL0     C56163   9.890   8.296   9.987 -0.5358 -0.3425 -0.8153
  426MOL0     C56164   9.831   8.249  10.087 -0.4258 -0.1554 -0.0649
  426MOL0     C56165   9.601   8.071   9.338  1.0896 -0.6622  0.8263
  426MOL0     C56166   9.576   7.996   9.221  0.6361  0.3908 -0.2882
  426MOL0     H56167   9.437   7.903   8.736  5.0448  0.5161  1.0962
  426MOL0     H56168   9.350   7.720   8.560 -2.0333 -2.4941  0.1814
  426MOL0     H56169   9.462   7.546   8.415  0.5212  1.2870 -0.3547
  426MOL0     H56170   9.287   7.570   8.444 -1.5594 -2.2863  1.5908
  426MOL0     H56171   9.426   7.299   8.377  0.6425 -0.1852 -0.5411
  426MOL0     H56172   9.336   7.387   8.265 -0.9919 -0.4879  0.2644
  426MOL0     H56173   9.138   7.366   8.454 -0.7919  0.1134  1.6496
  426MOL0     H56174   9.253   7.260   8.524  1.7201  1.5185 -1.1511
  426MOL0     H56175   9.141   7.192   8.242 -0.8805 -0.1202  0.4181
  426MOL0     H56176   9.260   7.109   8.334  1.2834  1.5774 -1.2639
  426MOL0     H56177   8.974   7.186   8.417 -0.0912  0.5380 -3.3203
  426MOL0     H56178   9.066   7.080   8.511  1.4288  0.0937  0.6868
  426MOL0     H56179   8.908   6.941   8.387  0.9633 -0.4489 -1.1016
  426MOL0     H56180   9.079   6.916   8.321 -0.5481 -3.2472  4.8838
  426MOL0     H56181   8.884   7.110   8.201  2.4261  1.7899 -0.3060
  426MOL0     H56182   9.020   7.034   8.122 -1.7562 -1.0048 -1.3569
  426MOL0     H56183   8.888   6.800   8.153 -2.0429 -1.6876 -1.8827
  426MOL0     H56184   8.870   6.899   8.011 -2.5230  0.6560 -0.0868
  426MOL0     H56185   8.630   7.084   8.030  0.5472  0.2665 -0.4554
  426MOL0     H56186   8.390   7.133   8.088 -2.0237 -0.0540 -0.4240
  426MOL0     H56187   8.421   7.155   8.260  1.4830 -1.7289  0.7353
  426MOL0     H56188   8.198   7.086   8.251  0.3299 -1.3617  0.2552
  426MOL0     H56189   8.271   6.936   8.276  0.1323  1.5948  1.7602
  426MOL0     H56190   8.141   7.028   8.021 -0.6286  0.0567  0.5779
  426MOL0     H56191   8.245   6.882   8.031 -1.9566 -0.5357 -2.0110
  426MOL0     H56192   7.993   6.951   8.177  1.6386  0.4688  1.2966
  426MOL0     H56193   8.103   6.814   8.224  3.2531  1.4148 -0.4192
  426MOL0     H56194   7.740   6.818   8.103  1.3716  2.5666  1.6926
  426MOL0     H56195   7.578   6.939   7.964 -0.6761 -2.6007 -0.0878
  426MOL0     H56196   7.541   7.319   7.622  0.9538 -1.6358  0.7259
  426MOL0     H56197   7.366   7.417   7.499  0.9338 -0.0089  0.1997
  426MOL0     H56198   7.161   7.298   7.107 -0.1634 -1.2410  1.1156
  426MOL0     H56199   7.335   7.283   7.114  0.2973 -0.5626  0.2074
  426MOL0     H56200   7.283   7.504   7.041  1.0051 -2.6260 -0.8224
  426MOL0     H56201   7.354   7.500   7.208 -0.2470 -0.5010  1.1300
  426MOL0     H56202   7.155   7.584   7.304 -2.4125 -1.3205  1.8176
  426MOL0     H56203   7.057   7.509   7.178  0.4592 -1.1632 -1.0424
  426MOL0     H56204   7.237   7.767   7.176 -1.4006  0.7860  1.0142
  426MOL0     H56205   7.157   7.702   7.026  2.7698 -4.0493 -0.0658
  426MOL0     H56206   7.008   7.777   7.280  2.3068 -1.1538  0.5791
  426MOL0     H56207   6.938   7.741   7.125  1.0305  0.4770  0.7758
  426MOL0     H56208   7.083   7.948   7.036  1.2130 -0.0103 -0.2820
  426MOL0     H56209   7.090   7.986   7.212 -0.9622  1.7231 -0.2290
  426MOL0     H56210   6.863   7.929   7.029 -0.1341  1.6137  0.2040
  426MOL0     H56211   6.832   7.952   7.200 -1.4709 -0.6562 -0.9318
  426MOL0     H56212   6.975   8.188   7.152  0.6925  2.4693 -2.2102
  426MOL0     H56213   6.802   8.191   7.105  0.7464  2.4203  0.8245
  426MOL0     H56214   7.300   7.058   7.281 -1.5216 -0.3304  1.1917
  426MOL0     H56215   7.479   6.943   7.392  1.0250  0.3138  1.1573
  426MOL0     H56216   7.872   7.053   7.686 -1.0100  0.0830 -0.5997
  426MOL0     H56217   8.056   6.928   7.801 -1.7664  0.7729 -2.1804
  426MOL0     H56218   9.462   7.420   8.809 -1.7361  0.0201 -0.4854
  426MOL0     H56219   9.501   7.584   9.004  0.3817 -1.0589  0.3260
  426MOL0     H56220   9.856   7.804   9.227 -3.9219 -3.3642  0.0895
  426MOL0     H56221   9.883   7.917   9.429 -1.1272 -1.6952  0.5159
  426MOL0     H56222   9.916   8.173   9.520 -0.7645  0.2668 -0.5376
  426MOL0     H56223   9.899   8.023   9.607  3.5334  3.4205  3.6018
  426MOL0     H56224   9.810   8.300   9.688 -1.0019 -0.2663 -1.6084
  426MOL0     H56225   9.771   8.152   9.776  1.1689  1.3379  2.5578
  426MOL0     H56226  10.056   8.222   9.698 -1.6091 -2.4034 -1.6242
  426MOL0     H56227  10.006   8.101   9.820  1.2023 -0.0905  1.5230
  426MOL0     H56228  10.094   8.323   9.920  0.3311 -0.7866 -0.3543
  426MOL0     H56229   9.971   8.412   9.840 -1.9314  0.6789  0.0475
  426MOL0     H56230   9.770   8.210  10.166 -0.1873  0.6676  0.5439
  426MOL0     H56231   9.527   8.137   9.382 -0.5891 -1.3198 -0.8784
  426MOL0     H56232   9.485   8.008   9.163 -1.8903 -0.2942  3.2406
  427MOL0     O56233   7.061   3.880   5.208 -0.5796 -1.1038 -0.1594
  427MOL0     C56234   7.172   3.936   5.185  0.6409  0.0139  0.5671
  427MOL0     O56235   7.197   4.039   5.098 -0.2778  0.2486  0.3137
  427MOL0     C56236   7.094   4.085   5.026  0.5902  0.0432 -0.5506
  427MOL0     C56237   7.039   4.214   5.058  0.9429 -0.8231 -0.2346
  427MOL0     C56238   6.937   4.260   4.975  0.2269  0.3103  0.3158
  427MOL0     C56239   6.884   4.191   4.875 -0.1232 -0.3324 -0.0843
  427MOL0     O56240   6.778   4.231   4.795 -0.0648 -0.2632 -0.2328
  427MOL0     C56241   6.698   4.340   4.838  0.5197 -0.5231  0.2314
  427MOL0     C56242   6.571   4.354   4.762 -1.3147 -1.0680  0.2829
  427MOL0     C56243   6.484   4.233   4.772 -0.0513 -0.3257 -0.1538
  427MOL0     C56244   6.385   4.218   4.658  0.8974 -0.1045 -0.4176
  427MOL0     C56245   6.273   4.130   4.707  0.0776 -0.3483 -0.2482
  427MOL0     C56246   6.132   4.164   4.659 -0.0256 -0.6505  0.4659
  427MOL0     C56247   6.066   4.266   4.756 -0.4147 -0.4644 -0.0999
  427MOL0     C56248   5.935   4.313   4.699 -0.7456  0.1989 -0.3067
  427MOL0     N56249   5.872   4.418   4.773 -0.4428 -0.9462 -0.9881
  427MOL0     C56250   5.884   4.430   4.911  1.1907 -0.3523  0.2278
  427MOL0     C56251   5.808   4.536   4.943  0.2441  0.0624 -0.2454
  427MOL0     C56252   5.811   4.605   5.077  0.3375 -0.7530 -0.2254
  427MOL0     C56253   5.682   4.676   5.114  0.3149  1.2346 -0.3919
  427MOL0     C56254   5.666   4.703   5.266 -0.2554 -0.0400 -0.1881
  427MOL0     C56255   5.602   4.841   5.295  0.0527  0.3333  0.1868
  427MOL0     O56256   5.593   4.848   5.436 -0.4294 -0.1228  0.6949
  427MOL0     C56257   5.537   4.958   5.488  0.7983  0.8945  0.2104
  427MOL0     C56258   5.566   4.974   5.627  0.1838 -0.3013  0.2761
  427MOL0     C56259   5.497   5.064   5.700  0.9098 -1.1900 -0.4265
  427MOL0     C56260   5.423   5.164   5.631 -0.2318  0.5121 -0.0222
  427MOL0     C56261   5.362   5.272   5.705  1.2150  0.0334  0.1961
  427MOL0     O56262   5.324   5.380   5.632  0.0499 -0.2862  0.5960
  427MOL0     C56263   5.261   5.489   5.687  0.5937 -1.0730 -0.1018
  427MOL0     C56264   5.140   5.533   5.628  0.3758  0.2368  0.0205
  427MOL0     C56265   5.089   5.658   5.660  0.0854  0.4486 -1.1869
  427MOL0     C56266   5.142   5.739   5.765  0.1375 -0.3502  0.5440
  427MOL0     O56267   5.086   5.867   5.800  0.0311 -0.1257 -0.1500
  427MOL0     C56268   5.141   5.937   5.914 -0.1078 -1.4845 -0.6629
  427MOL0     C56269   5.062   6.059   5.956  0.0660  0.0533  0.4919
  427MOL0     C56270   5.110   6.185   5.879  0.7321 -0.5072  0.2128
  427MOL0     C56271   5.015   6.297   5.922  0.1096  0.2642 -0.9635
  427MOL0     C56272   5.076   6.414   5.844  0.2861  0.0241 -0.0029
  427MOL0     C56273   4.994   6.547   5.885  0.4599 -0.3624 -0.5179
  427MOL0     C56274   5.076   6.665   5.842 -0.9638  0.0460  0.2909
  427MOL0     C56275   5.018   6.807   5.891 -0.3294  0.4494  1.1876
  427MOL0    Cl56276   4.844   6.794   5.897 -0.3704 -0.1405  0.2771
  427MOL0     C56277   5.254   5.686   5.834 -0.2737 -0.8360 -0.7331
  427MOL0     C56278   5.309   5.559   5.801 -0.2435  0.5550  0.5778
  427MOL0     O56279   5.349   5.263   5.830  0.0891  0.3897  0.4579
  427MOL0     C56280   5.412   5.160   5.488 -0.1954  0.8528 -0.3651
  427MOL0     C56281   5.456   5.040   5.418 -0.2727 -0.7989 -0.4075
  427MOL0     N56282   5.772   4.596   4.823  0.1477 -0.3234 -0.3289
  427MOL0     N56283   5.809   4.527   4.721 -0.3911 -0.5166  0.1504
  427MOL0     C56284   6.938   4.069   4.832 -0.5733  0.3387  0.3353
  427MOL0     C56285   7.044   4.021   4.905 -0.4593  0.4237 -0.3353
  427MOL0     C56286   7.303   3.879   5.241  0.3363  1.0445 -0.1925
  427MOL0     C56287   7.306   3.741   5.288 -0.5998  0.1546 -0.0271
  427MOL0     C56288   7.425   3.689   5.344  0.1636 -0.3868  0.4579
  427MOL0     C56289   7.543   3.763   5.352 -0.1118  0.5897 -0.2459
  427MOL0     O56290   7.661   3.712   5.404 -0.1697 -0.1313  0.2933
  427MOL0     C56291   7.662   3.731   5.546 -0.0371 -0.6010 -0.4573
  427MOL0     C56292   7.683   3.873   5.588  0.1135 -0.2601 -0.3388
  427MOL0     C56293   7.715   3.895   5.737  0.3539 -0.4225  0.2833
  427MOL0     C56294   7.785   4.034   5.750  0.1498 -0.1051 -0.4868
  427MOL0     C56295   7.805   4.088   5.885  0.1999  0.7043  0.7405
  427MOL0     C56296   7.831   4.128   6.000 -0.3664  1.0804 -0.2268
  427MOL0     C56297   7.541   3.897   5.306 -0.4642  0.5543  0.3072
  427MOL0     C56298   7.423   3.956   5.253 -0.1058  0.3714 -0.1823
  427MOL0     H56299   7.066   4.276   5.142 -0.0864  1.1231 -1.2837
  427MOL0     H56300   6.903   4.360   5.000  3.2826  1.3544  0.8078
  427MOL0     H56301   6.753   4.434   4.825 -1.8890  1.1960  1.7219
  427MOL0     H56302   6.670   4.326   4.942 -0.5779 -1.1684 -0.1425
  427MOL0     H56303   6.588   4.384   4.659 -1.2887  0.6078  0.7438
  427MOL0     H56304   6.523   4.437   4.815 -1.8233 -0.8277 -0.5337
  427MOL0     H56305   6.431   4.254   4.865  3.4242  3.2566  1.2964
  427MOL0     H56306   6.543   4.140   4.779  1.5272  0.7872  3.5182
  427MOL0     H56307   6.354   4.316   4.619  2.8475  0.9562  0.5327
  427MOL0     H56308   6.432   4.169   4.573 -2.5811 -3.5354 -0.6406
  427MOL0     H56309   6.273   4.110   4.814  1.8292 -2.5013 -0.5732
  427MOL0     H56310   6.284   4.031   4.661  0.5753 -1.7876  2.7347
  427MOL0     H56311   6.079   4.069   4.673  2.4596 -1.8542  2.5487
  427MOL0     H56312   6.122   4.202   4.557 -3.0955  3.4073  2.0111
  427MOL0     H56313   6.061   4.228   4.858 -0.6181 -0.5134 -0.1282
  427MOL0     H56314   6.135   4.350   4.767  1.0273 -1.8270  1.9965
  427MOL0     H56315   5.867   4.228   4.701 -1.2627  0.5251  3.3116
  427MOL0     H56316   5.956   4.357   4.601 -0.3400 -0.8408 -0.6908
  427MOL0     H56317   5.932   4.362   4.981 -0.9285 -3.7576 -1.3634
  427MOL0     H56318   5.894   4.676   5.065  0.0275 -0.6271 -1.9012
  427MOL0     H56319   5.840   4.530   5.150  1.0724  0.7765  1.1203
  427MOL0     H56320   5.593   4.616   5.090  0.4145  1.1413 -0.5264
  427MOL0     H56321   5.666   4.769   5.058 -0.9925  0.4240 -1.4424
  427MOL0     H56322   5.612   4.620   5.311  0.1045 -0.4373 -0.4765
  427MOL0     H56323   5.765   4.706   5.312 -0.3790 -0.3204  0.1012
  427MOL0     H56324   5.503   4.849   5.249  0.4301  0.5291 -0.6167
  427MOL0     H56325   5.664   4.917   5.247  1.2286 -1.3158 -1.0062
  427MOL0     H56326   5.625   4.898   5.677 -3.5155 -3.7837 -0.1401
  427MOL0     H56327   5.509   5.070   5.808 -0.8367  1.5921 -0.2776
  427MOL0     H56328   5.093   5.478   5.547 -0.8177  0.6384  0.4214
  427MOL0     H56329   4.996   5.685   5.610 -0.6809  1.4961  0.6974
  427MOL0     H56330   5.245   5.963   5.894  0.1911 -3.1310 -1.4729
  427MOL0     H56331   5.150   5.876   6.005 -1.9096  0.8427  1.2099
  427MOL0     H56332   5.079   6.085   6.061 -2.4226 -1.1753  1.2622
  427MOL0     H56333   4.954   6.051   5.939 -0.0705  2.1623  0.0279
  427MOL0     H56334   5.097   6.165   5.773 -2.9171  0.2590  0.3670
  427MOL0     H56335   5.211   6.208   5.914  1.8625 -0.8089 -2.6390
  427MOL0     H56336   4.909   6.283   5.896 -0.6297  1.1012  1.3281
  427MOL0     H56337   5.014   6.310   6.030 -1.9312  3.8175 -1.2366
  427MOL0     H56338   5.066   6.400   5.736  2.5151  0.7161 -0.3552
  427MOL0     H56339   5.183   6.422   5.866  0.2898 -0.5827  0.2276
  427MOL0     H56340   4.964   6.554   5.990 -4.7222  0.8297 -1.7873
  427MOL0     H56341   4.899   6.549   5.832  1.1035  0.2043 -1.6657
  427MOL0     H56342   5.163   6.651   5.907  0.2061  2.6701 -0.5512
  427MOL0     H56343   5.110   6.658   5.739 -4.2648  0.0805 -0.9051
  427MOL0     H56344   5.049   6.892   5.828  4.2414 -1.8486 -0.1611
  427MOL0     H56345   5.049   6.821   5.994  1.2670  1.7242  0.5735
  427MOL0     H56346   5.296   5.739   5.918 -3.1445 -0.8927  0.8949
  427MOL0     H56347   5.382   5.522   5.871 -0.8341 -0.9211  0.4503
  427MOL0     H56348   5.376   5.237   5.420 -1.8388 -0.9547 -1.6477
  427MOL0     H56349   5.451   5.039   5.310  0.4491  1.2322 -0.5023
  427MOL0     H56350   6.911   4.020   4.739  1.9503  0.1643 -0.3766
  427MOL0     H56351   7.083   3.930   4.862  4.8651  2.3171 -0.2207
  427MOL0     H56352   7.218   3.682   5.265  0.6316 -2.3286  1.1820
  427MOL0     H56353   7.435   3.585   5.375  4.3366 -0.5463 -0.8346
  427MOL0     H56354   7.740   3.662   5.578  0.4577 -0.5292 -1.4841
  427MOL0     H56355   7.564   3.698   5.581  0.6067 -4.2962 -1.7040
  427MOL0     H56356   7.770   3.901   5.528 -0.6445  1.9055 -0.4907
  427MOL0     H56357   7.597   3.932   5.557 -1.2082 -1.0087  1.6643
  427MOL0     H56358   7.768   3.807   5.775  1.0756  0.7671  2.1851
  427MOL0     H56359   7.611   3.897   5.770 -0.1482  0.1138 -1.2269
  427MOL0     H56360   7.884   4.017   5.706  0.2369  2.4909 -1.4672
  427MOL0     H56361   7.737   4.114   5.693  0.9455 -0.2306 -1.3572
  427MOL0     H56362   7.853   4.181   6.089  1.1038  0.9763 -0.4991
  427MOL0     H56363   7.630   3.958   5.306  0.4451 -0.7040  1.9037
  427MOL0     H56364   7.441   4.051   5.203 -0.2502 -0.0582 -1.0859
  428MOL0     O56365   8.012   6.659   2.566 -0.3721  0.6611 -0.2554
  428MOL0     C56366   7.983   6.539   2.576 -0.5116  0.2218  0.0956
  428MOL0     O56367   8.033   6.452   2.674  0.6976  0.3277  0.7162
  428MOL0     C56368   8.102   6.506   2.774  0.4574 -0.8222  0.2409
  428MOL0     C56369   8.239   6.497   2.776  0.2199 -0.6444  0.1428
  428MOL0     C56370   8.306   6.564   2.876 -0.1988  0.8040 -0.4197
  428MOL0     C56371   8.243   6.633   2.988 -0.0277 -0.1053  0.3700
  428MOL0     O56372   8.322   6.684   3.088 -0.8316 -0.0068  0.0564
  428MOL0     C56373   8.265   6.798   3.155 -1.0948  0.8654  0.0326
  428MOL0     C56374   8.373   6.865   3.244 -0.3264  0.1660  0.5327
  428MOL0     C56375   8.401   6.777   3.366  0.4238  0.7699 -0.0423
  428MOL0     C56376   8.507   6.852   3.442 -0.4738  0.3690 -0.0086
  428MOL0     C56377   8.576   6.782   3.558  0.6421  0.5482 -0.3709
  428MOL0     C56378   8.470   6.690   3.645  0.0388  0.1264  0.1563
  428MOL0     C56379   8.522   6.650   3.786 -0.3196  0.6061  0.3692
  428MOL0     C56380   8.425   6.560   3.858 -0.0914  0.6980  0.3581
  428MOL0     N56381   8.423   6.425   3.801 -0.1527  0.2785 -0.4636
  428MOL0     C56382   8.332   6.377   3.709 -1.0189 -0.5263 -0.2018
  428MOL0     C56383   8.370   6.259   3.675 -0.1201  1.0465 -0.8257
  428MOL0     C56384   8.296   6.163   3.595 -0.3216 -0.4396 -0.5144
  428MOL0     C56385   8.343   6.197   3.443 -0.6314  0.8502 -1.5560
  428MOL0     C56386   8.308   6.332   3.389  0.0405  0.0454 -0.2841
  428MOL0     C56387   8.296   6.335   3.240 -0.4537  0.2576 -1.2124
  428MOL0     O56388   8.428   6.318   3.183 -0.0782  0.3655  0.2428
  428MOL0     C56389   8.464   6.208   3.111  0.4675  0.4169  0.3790
  428MOL0     C56390   8.512   6.241   2.987  0.1609 -1.0908 -0.0951
  428MOL0     C56391   8.544   6.147   2.890 -0.5959  0.3601 -0.3318
  428MOL0     C56392   8.537   6.011   2.924 -0.6393  0.1330 -0.6537
  428MOL0     C56393   8.583   5.907   2.829 -0.9363  0.4407 -0.2895
  428MOL0     O56394   8.692   5.943   2.748 -0.3693  0.4606  0.0666
  428MOL0     C56395   8.737   5.860   2.648  0.8126  0.2433 -0.5926
  428MOL0     C56396   8.787   5.729   2.684 -0.1143  0.6056  0.4921
  428MOL0     C56397   8.871   5.659   2.596 -0.3532 -0.3657  0.2208
  428MOL0     C56398   8.917   5.724   2.481  0.4811  0.0110 -0.3146
  428MOL0     O56399   8.987   5.664   2.381  0.1499 -0.3890 -0.2772
  428MOL0     C56400   9.095   5.733   2.314 -0.7653 -0.0799 -1.0859
  428MOL0     C56401   9.234   5.698   2.375  0.5173  0.2891  0.0034
  428MOL0     C56402   9.239   5.718   2.528 -0.2081  0.4047 -0.2598
  428MOL0     C56403   9.385   5.674   2.577 -0.0807 -1.0409 -0.4224
  428MOL0     C56404   9.401   5.710   2.724 -1.0783  0.2581 -0.0887
  428MOL0     C56405   9.355   5.587   2.802 -0.0401  0.6196 -0.6368
  428MOL0     C56406   9.362   5.605   2.951  0.2158 -0.0282 -0.9415
  428MOL0     C56407   9.504   5.645   3.008 -0.1664 -0.3529 -0.0605
  428MOL0    Cl56408   9.614   5.510   2.984  0.2520  0.0713  0.1641
  428MOL0     C56409   8.872   5.853   2.447 -0.0537 -0.4037 -0.3305
  428MOL0     C56410   8.776   5.915   2.529 -0.8379 -0.9155 -0.0126
  428MOL0     O56411   8.529   5.800   2.821  0.2214  0.0750 -0.6075
  428MOL0     C56412   8.470   5.979   3.049 -0.2841 -0.0538 -0.1818
  428MOL0     C56413   8.432   6.077   3.140  0.4441  1.0340 -0.1382
  428MOL0     N56414   8.485   6.228   3.739  0.5857  0.2691  0.8618
  428MOL0     N56415   8.517   6.330   3.815  0.2196  0.8094 -0.5601
  428MOL0     C56416   8.095   6.651   2.979  0.1967  0.1979  0.2429
  428MOL0     C56417   8.028   6.585   2.871 -0.3144  0.3501 -0.7407
  428MOL0     C56418   7.894   6.491   2.470  0.2120  0.2883 -1.0054
  428MOL0     C56419   7.849   6.575   2.365  0.4989  0.5037  0.1080
  428MOL0     C56420   7.759   6.528   2.266 -0.0357  0.8565  0.3652
  428MOL0     C56421   7.725   6.392   2.255  0.3579  0.3284 -1.6054
  428MOL0     O56422   7.654   6.363   2.143  0.1821 -0.3093  0.5419
  428MOL0     C56423   7.652   6.217   2.107  0.6707 -0.2117 -0.0474
  428MOL0     C56424   7.785   6.160   2.068  0.4506 -0.1352 -0.9402
  428MOL0     C56425   7.833   6.208   1.935  0.2889 -0.2491  0.6577
  428MOL0     C56426   7.980   6.197   1.927 -0.5502 -0.0528  0.5008
  428MOL0     C56427   8.037   6.232   1.791 -0.3267  0.4376  0.0100
  428MOL0     C56428   8.078   6.253   1.680 -0.3194 -0.2797  0.7176
  428MOL0     C56429   7.783   6.313   2.359  0.1399  0.4556 -0.1297
  428MOL0     C56430   7.854   6.358   2.469  0.6787 -0.3865  0.2636
  428MOL0     H56431   8.285   6.429   2.705 -2.1668 -0.6912 -1.4831
  428MOL0     H56432   8.413   6.551   2.893 -0.2667  2.8992  2.3297
  428MOL0     H56433   8.184   6.756   3.216  0.6080 -1.4156  0.8830
  428MOL0     H56434   8.210   6.866   3.089 -0.5116 -0.8511 -2.3741
  428MOL0     H56435   8.324   6.959   3.272 -0.7425  0.1773 -0.1784
  428MOL0     H56436   8.462   6.900   3.191  0.5543  0.0740  1.8955
  428MOL0     H56437   8.428   6.676   3.333 -0.7890  0.6327 -0.6728
  428MOL0     H56438   8.305   6.764   3.417 -1.8697 -0.1668 -4.1268
  428MOL0     H56439   8.579   6.903   3.377  0.9171 -2.3649 -0.7689
  428MOL0     H56440   8.463   6.943   3.484  1.4885  0.2579  2.5246
  428MOL0     H56441   8.620   6.863   3.617 -0.3679  0.6193  0.3113
  428MOL0     H56442   8.652   6.708   3.532 -0.0739 -0.2281 -0.3066
  428MOL0     H56443   8.442   6.600   3.590 -0.3300 -0.6167  1.4979
  428MOL0     H56444   8.383   6.757   3.653 -1.5782 -1.6145 -1.7748
  428MOL0     H56445   8.621   6.605   3.781  0.0750  1.4759  0.2148
  428MOL0     H56446   8.533   6.744   3.842  1.8408 -0.7921  2.4586
  428MOL0     H56447   8.326   6.602   3.877  0.9961  1.8801  4.4368
  428MOL0     H56448   8.459   6.559   3.962 -1.3254 -0.3921  0.7760
  428MOL0     H56449   8.246   6.434   3.673 -1.8844  0.8406  3.5288
  428MOL0     H56450   8.188   6.179   3.589 -0.5844 -1.9124 -0.0218
  428MOL0     H56451   8.318   6.059   3.620  1.8921 -0.2860 -1.5989
  428MOL0     H56452   8.283   6.124   3.387 -1.1518  0.8663 -1.0336
  428MOL0     H56453   8.448   6.172   3.429 -0.5018  0.4572 -0.0809
  428MOL0     H56454   8.218   6.369   3.438  2.7213  2.8348  3.0780
  428MOL0     H56455   8.389   6.398   3.422 -0.8106  1.1319 -0.3250
  428MOL0     H56456   8.262   6.433   3.205  0.2439  0.6760 -0.7435
  428MOL0     H56457   8.233   6.254   3.202 -1.8699  0.6170  0.2461
  428MOL0     H56458   8.508   6.348   2.967 -1.3917 -1.6933 -3.8276
  428MOL0     H56459   8.568   6.183   2.790  0.3874 -0.1706 -0.3078
  428MOL0     H56460   8.777   5.682   2.782  3.5186 -3.9003 -0.9427
  428MOL0     H56461   8.920   5.570   2.634  0.4568 -0.0595 -0.0867
  428MOL0     H56462   9.082   5.842   2.312 -2.1188 -0.0609  1.9143
  428MOL0     H56463   9.102   5.706   2.208  1.7806 -0.5444 -0.8674
  428MOL0     H56464   9.300   5.764   2.319 -0.2473  0.3264 -0.8911
  428MOL0     H56465   9.268   5.600   2.340  1.7928  1.7026 -3.1433
  428MOL0     H56466   9.172   5.648   2.577  0.8666  0.5906  1.5630
  428MOL0     H56467   9.210   5.824   2.530 -0.9753  0.3241 -2.9593
  428MOL0     H56468   9.396   5.566   2.563 -2.2266 -1.3207 -0.2850
  428MOL0     H56469   9.470   5.719   2.526  1.0910 -0.4649  1.8992
  428MOL0     H56470   9.335   5.788   2.763 -2.9530 -1.2926  0.0258
  428MOL0     H56471   9.502   5.746   2.746 -1.1080  2.2355 -2.7559
  428MOL0     H56472   9.430   5.512   2.776 -0.4311 -0.6665  1.6562
  428MOL0     H56473   9.258   5.547   2.769 -0.2066 -1.4263  1.9940
  428MOL0     H56474   9.292   5.686   2.971 -0.1097  0.4289 -3.5411
  428MOL0     H56475   9.332   5.512   3.002  0.5027  1.0422  1.2644
  428MOL0     H56476   9.496   5.664   3.116 -1.1489  1.0998 -0.3631
  428MOL0     H56477   9.539   5.735   2.958  1.1560 -0.3723  0.7614
  428MOL0     H56478   8.885   5.908   2.355 -2.7414  0.4031 -0.3168
  428MOL0     H56479   8.741   6.016   2.506  0.0209 -0.7806 -0.8082
  428MOL0     H56480   8.445   5.874   3.062  0.1092 -0.0149  1.0294
  428MOL0     H56481   8.375   6.065   3.232  1.7158 -0.0679  0.5296
  428MOL0     H56482   8.042   6.713   3.050  0.8345  1.9211 -0.7443
  428MOL0     H56483   7.921   6.582   2.855 -0.7342  0.3801  1.6882
  428MOL0     H56484   7.876   6.680   2.363 -2.4075  1.3739  0.7592
  428MOL0     H56485   7.711   6.581   2.184 -1.1891  1.3924  1.3604
  428MOL0     H56486   7.573   6.196   2.034  2.1879  0.2560 -1.9123
  428MOL0     H56487   7.617   6.160   2.193 -0.7493 -1.1647 -1.1988
  428MOL0     H56488   7.858   6.175   2.148 -0.4044  0.3153 -0.2261
  428MOL0     H56489   7.768   6.053   2.057  1.3671 -0.5133  0.9938
  428MOL0     H56490   7.803   6.313   1.929 -3.0404 -1.1293 -0.7096
  428MOL0     H56491   7.784   6.146   1.859  1.0144 -0.8059  0.6387
  428MOL0     H56492   8.011   6.263   2.008  1.5875 -0.9833  0.5176
  428MOL0     H56493   8.002   6.091   1.938  0.8385  0.2471  0.8060
  428MOL0     H56494   8.099   6.277   1.577 -2.5637 -2.3801 -0.3274
  428MOL0     H56495   7.768   6.206   2.349 -0.3721  0.6568 -1.8977
  428MOL0     H56496   7.889   6.295   2.550  0.0289  2.1091  2.6380
  429MOL0     O56497   4.296   0.411   1.093  0.1093  0.8812 -0.5670
  429MOL0     C56498   4.204   0.351   1.159 -0.2206  0.4001 -0.6918
  429MOL0     O56499   4.167   0.217   1.158  0.5172 -0.0191  0.1884
  429MOL0     C56500   4.270   0.125   1.129 -0.3697  0.6568 -0.3286
  429MOL0     C56501   4.301   0.033   1.232  1.3267 -0.4386  0.0198
  429MOL0     C56502   4.399  -0.068   1.214 -0.2502  0.4007 -0.5538
  429MOL0     C56503   4.459  -0.091   1.090  0.3229  0.1882  0.5772
  429MOL0     O56504   4.551  -0.191   1.090  0.1396 -0.3454  0.1071
  429MOL0     C56505   4.597  -0.239   0.967 -0.0545  1.4264 -0.1523
  429MOL0     C56506   4.713  -0.181   0.895 -0.6771 -1.1980 -0.0605
  429MOL0     C56507   4.842  -0.174   0.981  0.2393  0.9815  0.1662
  429MOL0     C56508   4.947  -0.109   0.902 -0.3390  0.2200  0.6652
  429MOL0     C56509   5.081  -0.085   0.972 -1.1427 -0.1874  0.7752
  429MOL0     C56510   5.143   0.055   0.935  0.1518 -0.0668  0.2712
  429MOL0     C56511   5.103   0.153   1.046 -0.3522  0.5377 -0.0356
  429MOL0     C56512   5.210   0.259   1.067 -0.7428 -0.7762 -0.7966
  429MOL0     N56513   5.167   0.349   1.175 -0.3958  0.0727 -0.5302
  429MOL0     C56514   5.147   0.298   1.300  0.4724  0.2365  0.6661
  429MOL0     C56515   5.090   0.401   1.370  0.5909 -0.5381 -0.8874
  429MOL0     C56516   5.069   0.422   1.524 -0.1293 -0.7936  0.7212
  429MOL0     C56517   5.054   0.288   1.596 -0.1140 -0.4018 -0.8688
  429MOL0     C56518   4.897   0.254   1.624  0.3876 -0.4714  0.0639
  429MOL0     C56519   4.893   0.136   1.730 -0.3359  1.2414 -0.4673
  429MOL0     O56520   4.757   0.108   1.777  0.0238  0.0116  0.0764
  429MOL0     C56521   4.713   0.181   1.890  0.0383 -0.1548 -0.0905
  429MOL0     C56522   4.596   0.252   1.888  0.6874 -0.7174 -0.1791
  429MOL0     C56523   4.545   0.328   1.997 -0.2362 -0.3453 -0.2432
  429MOL0     C56524   4.605   0.323   2.121  0.1257 -0.7663  0.8360
  429MOL0     C56525   4.546   0.386   2.249 -0.4636 -0.0666 -0.5403
  429MOL0     O56526   4.419   0.409   2.251 -0.6115  0.1025 -0.1403
  429MOL0     C56527   4.340   0.436   2.357 -0.1003 -0.0555  0.2410
  429MOL0     C56528   4.203   0.440   2.332 -0.2856  0.6680 -0.2170
  429MOL0     C56529   4.112   0.464   2.424  0.0581  0.1860  0.6219
  429MOL0     C56530   4.152   0.489   2.555 -0.2381  0.3684  0.6429
  429MOL0     O56531   4.068   0.513   2.655 -0.9872 -0.4305  0.5568
  429MOL0     C56532   3.948   0.440   2.690 -0.4819  0.2597  0.0567
  429MOL0     C56533   3.968   0.389   2.836  0.4017  0.9194 -0.5203
  429MOL0     C56534   3.836   0.328   2.875 -0.1597  0.8942 -0.1488
  429MOL0     C56535   3.845   0.246   3.003 -0.7840  0.4457  0.3415
  429MOL0     C56536   3.717   0.182   3.057 -0.4404 -0.0813  0.5797
  429MOL0     C56537   3.743   0.138   3.209 -0.5475 -0.7463 -0.0393
  429MOL0     C56538   3.669   0.011   3.227 -0.7093 -0.0074 -0.0559
  429MOL0     C56539   3.726  -0.055   3.358 -0.2621  0.1882 -0.6692
  429MOL0    Cl56540   3.904  -0.073   3.373 -0.2310  0.3953  0.4189
  429MOL0     C56541   4.286   0.471   2.587  0.0559 -0.5613 -0.0005
  429MOL0     C56542   4.383   0.444   2.493 -0.1382 -0.8736  0.3317
  429MOL0     O56543   4.625   0.416   2.334  0.3440  0.4994 -0.5643
  429MOL0     C56544   4.735   0.261   2.123 -0.2619 -0.2801 -0.0023
  429MOL0     C56545   4.782   0.191   2.017  0.4040 -0.5299  0.4984
  429MOL0     N56546   5.069   0.509   1.283  0.0847  0.7350 -0.7184
  429MOL0     N56547   5.123   0.477   1.169 -0.7434 -0.7208 -0.2375
  429MOL0     C56548   4.411  -0.005   0.981 -0.8686  0.5151 -0.4874
  429MOL0     C56549   4.313   0.092   0.997 -1.0128  0.6259 -0.3597
  429MOL0     C56550   4.123   0.432   1.252  0.4156 -1.3359 -0.4091
  429MOL0     C56551   4.077   0.553   1.209  1.0942  0.7879  0.3484
  429MOL0     C56552   3.984   0.625   1.289 -0.5370  0.0587  0.4390
  429MOL0     C56553   3.923   0.575   1.407 -0.2338 -0.1184 -0.2353
  429MOL0     O56554   3.836   0.648   1.484  0.5205 -0.3110 -0.6157
  429MOL0     C56555   3.845   0.635   1.629 -0.8624  0.1235 -0.0130
  429MOL0     C56556   3.726   0.719   1.705 -0.3708  0.4231 -0.0092
  429MOL0     C56557   3.587   0.675   1.661 -0.1336  0.6290  0.3139
  429MOL0     C56558   3.479   0.766   1.700  0.0480  0.0472 -0.5265
  429MOL0     C56559   3.487   0.887   1.624 -0.0805 -0.2384  0.4854
  429MOL0     C56560   3.491   0.985   1.546 -0.0074  0.1476  0.1990
  429MOL0     C56561   3.965   0.442   1.445 -0.0276 -0.2504  0.1810
  429MOL0     C56562   4.069   0.375   1.371  0.5260  0.5859 -0.9321
  429MOL0     H56563   4.252   0.052   1.328  1.4942 -3.1354  0.7136
  429MOL0     H56564   4.439  -0.119   1.301 -0.4052  2.7105  0.9460
  429MOL0     H56565   4.524  -0.252   0.886 -1.8617 -1.8018  1.7786
  429MOL0     H56566   4.639  -0.338   0.984  0.3999  1.3572 -1.5671
  429MOL0     H56567   4.698  -0.078   0.861  3.1013 -0.3823  0.3173
  429MOL0     H56568   4.727  -0.236   0.802  2.5629 -1.2347  0.3488
  429MOL0     H56569   4.871  -0.273   1.017 -1.3946 -0.2717 -1.7209
  429MOL0     H56570   4.819  -0.116   1.071  0.1525  1.6080 -0.2551
  429MOL0     H56571   4.970  -0.155   0.805 -0.4881 -0.7251  1.0731
  429MOL0     H56572   4.917  -0.006   0.878  1.0124 -0.1854 -3.5730
  429MOL0     H56573   5.154  -0.149   0.922 -1.7366  0.5850 -1.2009
  429MOL0     H56574   5.083  -0.115   1.077  0.2201  1.5451  1.2848
  429MOL0     H56575   5.099   0.095   0.843 -3.1686  0.7132  2.0252
  429MOL0     H56576   5.252   0.044   0.929  0.1782 -0.9462  1.7421
  429MOL0     H56577   5.009   0.205   1.025 -1.5016 -1.8690 -1.2322
  429MOL0     H56578   5.091   0.088   1.133 -2.2787  3.1411  1.7742
  429MOL0     H56579   5.233   0.307   0.972 -1.3618 -3.2811 -2.3187
  429MOL0     H56580   5.299   0.202   1.094  2.0464  2.3725 -2.6370
  429MOL0     H56581   5.173   0.196   1.327 -1.7596 -0.9040 -1.1698
  429MOL0     H56582   4.992   0.490   1.562  1.1121 -0.7072  3.3070
  429MOL0     H56583   5.162   0.474   1.547  0.5860 -0.9124 -1.6467
  429MOL0     H56584   5.105   0.299   1.692 -0.9533 -4.7319  0.3177
  429MOL0     H56585   5.095   0.203   1.540  0.0411 -1.2915  0.5219
  429MOL0     H56586   4.842   0.333   1.676  2.0527  0.9928 -0.2850
  429MOL0     H56587   4.851   0.233   1.527  0.2400  2.3910 -0.5730
  429MOL0     H56588   4.957   0.149   1.818 -0.1393  0.6228 -0.5148
  429MOL0     H56589   4.919   0.054   1.662 -0.6403  1.7355 -1.1907
  429MOL0     H56590   4.531   0.241   1.802  0.3708  0.2757 -0.0763
  429MOL0     H56591   4.456   0.390   1.998  1.9488  3.0376  1.2193
  429MOL0     H56592   4.182   0.429   2.226  0.6278  0.8102 -0.4212
  429MOL0     H56593   4.012   0.485   2.388 -0.2522 -0.2720  1.1885
  429MOL0     H56594   3.931   0.356   2.622 -0.2729 -0.7020  1.1676
  429MOL0     H56595   3.858   0.502   2.684 -1.1943 -0.8003 -0.6912
  429MOL0     H56596   4.004   0.468   2.904 -0.2577 -1.0952  2.3300
  429MOL0     H56597   4.047   0.313   2.827  1.1593  1.5656  0.4111
  429MOL0     H56598   3.815   0.262   2.790  1.8678  1.1216 -0.8874
  429MOL0     H56599   3.756   0.401   2.885 -0.3534  0.5699  0.7199
  429MOL0     H56600   3.917   0.164   2.991  0.6689  1.8601 -1.2596
  429MOL0     H56601   3.887   0.311   3.080  0.2280 -0.9416  0.9988
  429MOL0     H56602   3.686   0.106   2.984  2.4371  0.2666 -1.1826
  429MOL0     H56603   3.642   0.261   3.051 -2.8333 -2.3477 -1.6630
  429MOL0     H56604   3.703   0.219   3.271  3.6487  1.1852  0.5555
  429MOL0     H56605   3.849   0.117   3.226 -0.3713 -0.0815 -0.2963
  429MOL0     H56606   3.562   0.030   3.238 -1.5699 -3.8996  0.0130
  429MOL0     H56607   3.680  -0.061   3.146 -2.3152  0.7032 -0.9491
  429MOL0     H56608   3.679  -0.154   3.355 -0.7139  0.3924 -4.0712
  429MOL0     H56609   3.694  -0.010   3.452 -0.7067 -1.2275 -0.1127
  429MOL0     H56610   4.316   0.491   2.690  2.3706  0.2936 -0.7920
  429MOL0     H56611   4.487   0.432   2.521 -0.1255  1.7438  1.6467
  429MOL0     H56612   4.780   0.263   2.222 -0.1094 -0.9203 -0.0554
  429MOL0     H56613   4.867   0.127   2.040  2.3010  2.1014  1.2215
  429MOL0     H56614   4.454  -0.026   0.884  2.3369  0.5110  0.8135
  429MOL0     H56615   4.266   0.143   0.914 -0.4805  0.9103 -0.4937
  429MOL0     H56616   4.118   0.584   1.113  1.3983 -1.5462 -0.3383
  429MOL0     H56617   3.955   0.718   1.242  0.3953  1.2768  2.1461
  429MOL0     H56618   3.945   0.674   1.651 -0.2503 -1.2370 -0.2908
  429MOL0     H56619   3.835   0.532   1.664 -1.5176  0.1166 -0.2040
  429MOL0     H56620   3.724   0.722   1.814 -1.5209 -0.8432  0.0342
  429MOL0     H56621   3.741   0.822   1.669 -1.5023  0.2433 -1.1157
  429MOL0     H56622   3.574   0.571   1.691 -2.2246  0.4323 -1.0980
  429MOL0     H56623   3.588   0.669   1.552  1.1097 -2.7845  0.3956
  429MOL0     H56624   3.376   0.729   1.698 -1.4097  3.6796 -2.2467
  429MOL0     H56625   3.510   0.796   1.801  3.5002  0.6510 -1.6098
  429MOL0     H56626   3.505   1.078   1.494 -1.9579  1.3647  1.7235
  429MOL0     H56627   3.930   0.394   1.536 -0.0328  0.0836  0.3601
  429MOL0     H56628   4.107   0.277   1.398  1.6404  0.7752 -1.7569
  430MOL0     O56629  10.701   6.445   7.374 -0.1505 -0.3733 -0.0985
  430MOL0     C56630  10.586   6.477   7.373  0.7331 -0.1347  0.2878
  430MOL0     O56631  10.512   6.530   7.474  0.7470 -0.3512  0.6312
  430MOL0     C56632  10.583   6.535   7.597  0.7119 -1.2846  0.5281
  430MOL0     C56633  10.619   6.405   7.646 -0.6286 -0.1378 -0.2096
  430MOL0     C56634  10.685   6.390   7.763 -0.4032  0.1290 -0.4913
  430MOL0     C56635  10.717   6.507   7.834 -0.5825  0.3487 -0.2213
  430MOL0     O56636  10.809   6.513   7.938  0.7602 -0.1934  0.1346
  430MOL0     C56637  10.806   6.409   8.035 -0.9670 -0.0949 -0.2123
  430MOL0     C56638  10.843   6.476   8.164  0.5147 -0.3838  0.0171
  430MOL0     C56639  10.994   6.516   8.166 -0.2925 -0.0419  0.5041
  430MOL0     C56640  11.017   6.587   8.300  0.2115 -0.4558 -0.0214
  430MOL0     C56641  11.154   6.617   8.342 -0.3213 -0.1966 -0.3073
  430MOL0     C56642  11.242   6.702   8.250  0.0986  0.0881 -0.4186
  430MOL0     C56643  11.393   6.683   8.282  0.1337 -0.4824 -0.2259
  430MOL0     C56644  11.468   6.816   8.305 -0.4618 -0.4891 -0.1446
  430MOL0     N56645  11.592   6.823   8.220 -0.1658  0.6615  0.0108
  430MOL0     C56646  11.609   6.832   8.088 -0.0187  0.8180 -0.0831
  430MOL0     C56647  11.738   6.787   8.066 -0.8135  0.4353  1.1096
  430MOL0     C56648  11.789   6.777   7.926  0.0507  0.1922 -0.4483
  430MOL0     C56649  11.852   6.911   7.895  0.6277 -0.5033 -0.1074
  430MOL0     C56650  11.947   6.901   7.774  0.7862  0.8450 -0.2003
  430MOL0     C56651  11.892   6.832   7.648  0.1081 -0.8884 -0.0626
  430MOL0     O56652  11.959   6.873   7.525  0.2960 -0.2489  0.3343
  430MOL0     C56653  12.079   6.812   7.509 -0.4297  0.1310 -0.0437
  430MOL0     C56654  12.201   6.889   7.528  0.7378 -0.4299  0.2718
  430MOL0     C56655  12.328   6.833   7.508 -0.7346 -0.3167 -0.8057
  430MOL0     C56656  12.335   6.689   7.480  0.2014  1.1115 -0.4236
  430MOL0     C56657  12.463   6.621   7.452  0.2504 -0.8053 -1.5978
  430MOL0     O56658  12.455   6.493   7.418  0.2539 -0.9880 -0.1828
  430MOL0     C56659  12.583   6.431   7.400  0.7061  0.0039  0.7900
  430MOL0     C56660  12.692   6.452   7.481  0.2419  0.1390  0.2579
  430MOL0     C56661  12.811   6.384   7.453  0.4182 -0.8043 -1.0894
  430MOL0     C56662  12.827   6.300   7.344 -0.4086 -0.7979  0.6366
  430MOL0     O56663  12.953   6.270   7.327  0.2071  0.0833 -0.2405
  430MOL0     C56664  12.996   6.237   7.194  0.3170 -0.5296 -0.4938
  430MOL0     C56665  13.143   6.192   7.209 -0.5066 -0.1024 -0.2547
  430MOL0     C56666  13.232   6.207   7.083  0.0620 -0.1387  0.4009
  430MOL0     C56667  13.226   6.080   7.006 -0.8350  0.2268  0.3724
  430MOL0     C56668  13.332   6.094   6.891  0.1385  0.2615  0.4331
  430MOL0     C56669  13.338   5.962   6.817 -0.1599 -0.3139 -0.1979
  430MOL0     C56670  13.446   5.980   6.705 -0.3234 -0.2733  0.3625
  430MOL0     C56671  13.439   5.869   6.599  0.2575 -0.1056  0.3003
  430MOL0    Cl56672  13.405   5.715   6.673  0.3183 -0.1770 -0.4859
  430MOL0     C56673  12.712   6.260   7.276  0.6155  0.2847 -0.1654
  430MOL0     C56674  12.599   6.329   7.302  0.2002  0.1546 -0.0201
  430MOL0     O56675  12.556   6.694   7.446 -0.4775 -0.6168  0.6356
  430MOL0     C56676  12.219   6.609   7.481 -0.0681 -0.3656  0.3418
  430MOL0     C56677  12.094   6.672   7.485  0.1856  0.0085  1.0356
  430MOL0     N56678  11.802   6.761   8.187  0.5198 -0.6689 -0.4538
  430MOL0     N56679  11.709   6.786   8.273 -0.7933 -0.0253  0.0545
  430MOL0     C56680  10.678   6.641   7.787 -0.7285 -0.5014  0.5237
  430MOL0     C56681  10.610   6.654   7.661  0.5947 -0.1713  0.4584
  430MOL0     C56682  10.510   6.437   7.245 -0.5892 -0.4979 -0.7723
  430MOL0     C56683  10.581   6.414   7.127  0.7234  0.6101 -0.6807
  430MOL0     C56684  10.509   6.380   7.011 -1.1226  0.7899 -0.4474
  430MOL0     C56685  10.377   6.377   7.007  0.8683 -0.0541 -0.4581
  430MOL0     O56686  10.313   6.328   6.898 -0.0943 -0.4998 -0.2948
  430MOL0     C56687  10.189   6.388   6.861  1.0551  0.4623 -0.7888
  430MOL0     C56688  10.091   6.284   6.822  0.1128  0.8955  0.7040
  430MOL0     C56689  10.028   6.199   6.932  0.7333  0.4429  0.1711
  430MOL0     C56690  10.119   6.120   7.022  0.9859  1.2467 -0.5754
  430MOL0     C56691  10.023   6.033   7.093 -0.4003  0.1731 -0.5533
  430MOL0     C56692   9.959   5.946   7.151 -0.8181  0.2145  1.4698
  430MOL0     C56693  10.306   6.399   7.129 -0.3081 -0.4030  1.4383
  430MOL0     C56694  10.374   6.437   7.242 -0.2682  0.3615 -0.0448
  430MOL0     H56695  10.600   6.323   7.578  0.9158  0.8181 -1.8769
  430MOL0     H56696  10.722   6.295   7.801  2.1010  0.2254 -2.4292
  430MOL0     H56697  10.883   6.339   8.001 -0.7898  1.3152 -2.9562
  430MOL0     H56698  10.713   6.350   8.035 -0.5923 -0.7567 -2.1022
  430MOL0     H56699  10.818   6.413   8.250 -1.7360  3.8404  2.8535
  430MOL0     H56700  10.791   6.572   8.167  2.0284  0.4833 -0.6605
  430MOL0     H56701  11.012   6.585   8.083  1.6185 -0.0060  0.8983
  430MOL0     H56702  11.055   6.428   8.146 -0.9653 -0.9723  2.2917
  430MOL0     H56703  10.958   6.679   8.297  0.1992 -0.4794 -1.7807
  430MOL0     H56704  10.974   6.512   8.367 -0.1249 -2.2885 -2.1603
  430MOL0     H56705  11.208   6.523   8.355 -1.6527 -1.5819 -3.5840
  430MOL0     H56706  11.142   6.670   8.437  0.0575  0.5271 -0.6534
  430MOL0     H56707  11.220   6.807   8.273  0.7071 -0.2953  2.2006
  430MOL0     H56708  11.225   6.692   8.142  0.6114  0.8597 -0.5859
  430MOL0     H56709  11.408   6.621   8.370  1.2921 -0.5736 -0.4767
  430MOL0     H56710  11.425   6.651   8.182  1.1784  0.1238 -0.0959
  430MOL0     H56711  11.497   6.835   8.409 -2.0945 -0.6803  0.3761
  430MOL0     H56712  11.400   6.892   8.265 -1.2709 -1.0339  0.1878
  430MOL0     H56713  11.526   6.855   8.022 -2.1125 -2.4104  1.1768
  430MOL0     H56714  11.722   6.738   7.849 -1.2224  0.8398  0.2924
  430MOL0     H56715  11.863   6.697   7.935 -1.3656 -1.1919 -0.6925
  430MOL0     H56716  11.910   6.943   7.983  0.6696 -2.9453  0.8215
  430MOL0     H56717  11.771   6.981   7.875 -0.1455 -1.2973  0.2087
  430MOL0     H56718  11.990   7.000   7.755  1.2580  0.8068  0.6195
  430MOL0     H56719  12.028   6.840   7.815 -2.6829 -0.4903  5.7824
  430MOL0     H56720  11.787   6.856   7.634  0.1615 -1.0654 -0.8404
  430MOL0     H56721  11.901   6.724   7.655 -0.3240 -0.8922  0.4503
  430MOL0     H56722  12.175   6.994   7.542 -1.7024 -0.9060 -0.2046
  430MOL0     H56723  12.420   6.890   7.507 -1.1532  0.3721 -0.5907
  430MOL0     H56724  12.674   6.527   7.557 -0.4309  1.5745 -1.2574
  430MOL0     H56725  12.905   6.400   7.505 -0.4626 -0.0144  0.2944
  430MOL0     H56726  12.987   6.330   7.137 -0.1495  0.3460  0.9579
  430MOL0     H56727  12.941   6.153   7.151  1.0253 -0.9315 -0.6278
  430MOL0     H56728  13.152   6.089   7.246 -0.1708  0.0423  0.0722
  430MOL0     H56729  13.194   6.260   7.278 -0.9186  0.5838 -0.6245
  430MOL0     H56730  13.338   6.219   7.107  0.0388  1.1763 -0.0666
  430MOL0     H56731  13.205   6.295   7.022  2.7834  1.5383  1.4505
  430MOL0     H56732  13.254   5.994   7.068  1.9567 -0.4297 -1.6202
  430MOL0     H56733  13.124   6.070   6.968 -1.5385  2.6402  1.4052
  430MOL0     H56734  13.432   6.122   6.925 -0.6471  0.0140  3.1335
  430MOL0     H56735  13.290   6.170   6.824  1.5797  0.6169 -0.0955
  430MOL0     H56736  13.247   5.938   6.761  0.5346 -0.1368 -1.4324
  430MOL0     H56737  13.371   5.886   6.889 -3.7714  1.5035  3.8097
  430MOL0     H56738  13.459   6.075   6.653  1.7443 -0.8227 -0.2253
  430MOL0     H56739  13.544   5.972   6.751  0.5216  4.1347 -0.2827
  430MOL0     H56740  13.527   5.871   6.533 -0.9987  3.3551 -1.5116
  430MOL0     H56741  13.358   5.888   6.528  0.4918  1.2608  0.3678
  430MOL0     H56742  12.705   6.177   7.206  2.5158  1.1085 -1.4392
  430MOL0     H56743  12.513   6.281   7.256  0.7061 -0.5236 -0.2738
  430MOL0     H56744  12.212   6.503   7.457 -3.2731  0.3552 -2.8252
  430MOL0     H56745  12.005   6.611   7.468 -0.7032  1.6641 -0.6875
  430MOL0     H56746  10.719   6.730   7.834  1.9406 -1.3368 -0.0258
  430MOL0     H56747  10.562   6.749   7.637 -2.1074 -1.0965  1.7404
  430MOL0     H56748  10.686   6.435   7.139  0.5483 -0.1864  3.6434
  430MOL0     H56749  10.560   6.359   6.918 -0.8628 -1.1297  0.1008
  430MOL0     H56750  10.205   6.458   6.779 -0.9269  0.6963 -1.0344
  430MOL0     H56751  10.130   6.445   6.933 -2.1101 -2.9898 -0.3194
  430MOL0     H56752  10.006   6.334   6.775 -0.5517 -1.9285 -1.3405
  430MOL0     H56753  10.128   6.226   6.737 -0.3725  0.2315  0.9344
  430MOL0     H56754   9.956   6.126   6.894  1.3071 -0.0879  0.0942
  430MOL0     H56755   9.970   6.270   6.991 -0.6214 -0.2674 -0.2737
  430MOL0     H56756  10.187   6.056   6.964  0.2686  2.6058 -3.0484
  430MOL0     H56757  10.180   6.181   7.090 -1.7508  0.2246  3.1281
  430MOL0     H56758   9.927   5.859   7.205  1.3495 -0.9593  0.9713
  430MOL0     H56759  10.198   6.410   7.121 -0.0913  1.9404  1.1409
  430MOL0     H56760  10.334   6.483   7.331  0.9648  1.5115 -0.0550
  431MOL0     O56761   2.687   8.743   2.755 -0.3132 -0.1017  0.2693
  431MOL0     C56762   2.567   8.763   2.771 -0.6448 -0.1952  0.3209
  431MOL0     O56763   2.473   8.665   2.814 -0.0674  0.3250  0.5741
  431MOL0     C56764   2.496   8.531   2.807 -0.1864  1.0011  0.2452
  431MOL0     C56765   2.522   8.449   2.919 -0.6681 -0.7281  0.0828
  431MOL0     C56766   2.551   8.310   2.907 -0.0931 -0.6123 -0.6624
  431MOL0     C56767   2.567   8.259   2.777  0.5980 -0.8174  0.1234
  431MOL0     O56768   2.583   8.118   2.783  0.1723 -0.3606  0.1436
  431MOL0     C56769   2.572   8.053   2.667 -0.2067  0.4884  1.5507
  431MOL0     C56770   2.605   7.902   2.682  0.3867  0.5667  0.1076
  431MOL0     C56771   2.724   7.884   2.768 -0.9013  0.2138 -0.2956
  431MOL0     C56772   2.848   7.966   2.736  0.5477 -0.2564  0.5554
  431MOL0     C56773   2.968   7.942   2.835  1.0625 -0.1639  0.6410
  431MOL0     C56774   3.075   8.047   2.818  0.0756  0.5592  1.4525
  431MOL0     C56775   3.188   8.055   2.927  0.0015  0.2392 -0.0631
  431MOL0     C56776   3.219   7.921   2.993 -0.0207 -0.6170 -0.8901
  431MOL0     N56777   3.351   7.942   3.059  0.0326 -0.0871  0.9454
  431MOL0     C56778   3.378   8.030   3.157 -0.7729 -0.7748  0.3901
  431MOL0     C56779   3.511   8.011   3.180  0.7243  0.5377  0.6786
  431MOL0     C56780   3.598   8.075   3.284  0.7192 -0.5305  0.1970
  431MOL0     C56781   3.540   8.179   3.380  0.8666  0.0303  0.0295
  431MOL0     C56782   3.432   8.118   3.482  0.2031 -1.1791  1.5775
  431MOL0     C56783   3.511   8.059   3.591  0.1363 -0.3932  0.0161
  431MOL0     O56784   3.432   7.964   3.659  0.2105  0.7563 -0.7239
  431MOL0     C56785   3.484   7.909   3.780  0.2183 -0.5792 -0.2585
  431MOL0     C56786   3.399   7.829   3.851  0.5707 -0.1352  0.1761
  431MOL0     C56787   3.418   7.779   3.977 -0.8666 -0.1518  0.0965
  431MOL0     C56788   3.544   7.799   4.032 -0.0810 -0.1296 -0.5446
  431MOL0     C56789   3.587   7.751   4.171  0.9946 -0.6033 -0.1029
  431MOL0     O56790   3.510   7.645   4.223  1.0344 -0.1898 -0.1118
  431MOL0     C56791   3.540   7.579   4.337  0.2370  0.1703  0.2256
  431MOL0     C56792   3.443   7.493   4.391 -0.0997  0.0511  0.1161
  431MOL0     C56793   3.471   7.431   4.506  0.1831  0.4669 -0.1694
  431MOL0     C56794   3.592   7.449   4.575 -0.4095  0.3152 -0.4621
  431MOL0     O56795   3.610   7.400   4.703 -0.4393  0.3783 -0.9637
  431MOL0     C56796   3.593   7.494   4.811 -0.0806 -0.2836  0.1388
  431MOL0     C56797   3.639   7.424   4.940 -0.0480  0.4644 -0.1466
  431MOL0     C56798   3.671   7.527   5.052  0.3209  0.6376 -0.0278
  431MOL0     C56799   3.557   7.610   5.090  0.7728  0.1787  0.6069
  431MOL0     C56800   3.573   7.712   5.208 -0.2551 -0.9145 -0.2446
  431MOL0     C56801   3.557   7.649   5.346 -0.3138 -0.4923  0.5555
  431MOL0     C56802   3.563   7.752   5.465 -0.0111 -0.2170  0.9528
  431MOL0     C56803   3.649   7.711   5.579  0.7816 -0.0644  0.4777
  431MOL0    Cl56804   3.664   7.839   5.693 -0.4492  0.3248  0.0236
  431MOL0     C56805   3.689   7.533   4.514 -0.2861  0.5380  0.4118
  431MOL0     C56806   3.661   7.588   4.390 -0.2462 -0.6411 -0.8137
  431MOL0     O56807   3.677   7.816   4.226  0.1044  0.3511  1.3280
  431MOL0     C56808   3.642   7.879   3.960 -0.5535 -0.0984  0.4645
  431MOL0     C56809   3.612   7.943   3.842 -0.2835  0.6546  1.4627
  431MOL0     N56810   3.559   7.928   3.078  1.4446  0.2110 -0.7984
  431MOL0     N56811   3.458   7.889   3.003 -0.4649  0.1700 -0.0766
  431MOL0     C56812   2.549   8.343   2.657 -0.0074  0.2478 -0.2014
  431MOL0     C56813   2.512   8.478   2.670  0.0660 -0.0976 -0.0740
  431MOL0     C56814   2.526   8.892   2.733  0.7540 -0.6594 -0.1912
  431MOL0     C56815   2.604   9.001   2.772 -0.1793  0.1329 -0.4389
  431MOL0     C56816   2.558   9.130   2.753  0.4057  0.0065  0.3242
  431MOL0     C56817   2.446   9.160   2.683 -0.0691 -0.0718  0.4981
  431MOL0     O56818   2.437   9.295   2.669 -0.1185 -0.4941 -0.1356
  431MOL0     C56819   2.334   9.354   2.579 -1.2859 -0.1405 -0.0577
  431MOL0     C56820   2.321   9.503   2.590  0.3235 -1.1282 -0.1141
  431MOL0     C56821   2.212   9.535   2.693 -0.0835 -0.3915 -0.6014
  431MOL0     C56822   2.173   9.681   2.707  0.1707 -0.3143 -0.5233
  431MOL0     C56823   2.292   9.772   2.738 -0.2929  0.4747  0.6911
  431MOL0     C56824   2.397   9.840   2.759  0.1088  0.3963  0.1260
  431MOL0     C56825   2.364   9.051   2.651  0.9828  0.5423 -0.0345
  431MOL0     C56826   2.402   8.919   2.675 -0.7272  0.4153  0.1060
  431MOL0     H56827   2.524   8.494   3.018  0.1248 -1.0049  0.1956
  431MOL0     H56828   2.554   8.248   2.996 -0.6170  1.5588  0.9403
  431MOL0     H56829   2.640   8.087   2.587  1.0529 -2.9919  0.9670
  431MOL0     H56830   2.472   8.056   2.623  1.9924  0.9528 -4.4608
  431MOL0     H56831   2.619   7.847   2.589  0.6154 -0.2507  0.6136
  431MOL0     H56832   2.520   7.859   2.736  1.3549 -1.9748 -0.2565
  431MOL0     H56833   2.749   7.778   2.754  1.1541  0.6747 -0.3967
  431MOL0     H56834   2.710   7.897   2.876  1.1364 -1.5037  0.2360
  431MOL0     H56835   2.879   7.936   2.635 -1.3691 -0.6570  0.0473
  431MOL0     H56836   2.836   8.075   2.733 -1.1418 -0.4474 -1.1316
  431MOL0     H56837   3.011   7.844   2.813  3.5452  1.3837 -2.1427
  431MOL0     H56838   2.926   7.944   2.935  0.4853  1.0653  0.3925
  431MOL0     H56839   3.043   8.152   2.810 -0.6649  0.1992 -2.5002
  431MOL0     H56840   3.111   8.004   2.724 -2.0966 -3.9690  2.4067
  431MOL0     H56841   3.272   8.103   2.876 -1.7384  4.0160  0.2426
  431MOL0     H56842   3.156   8.124   3.006  2.4185  1.1898  0.1869
  431MOL0     H56843   3.225   7.845   2.914  1.7811 -4.0317  2.2004
  431MOL0     H56844   3.134   7.895   3.057  0.3245  0.8023  0.1788
  431MOL0     H56845   3.302   8.086   3.211 -0.7119  2.0311 -2.1854
  431MOL0     H56846   3.668   8.127   3.218  1.4892 -0.8271  0.7795
  431MOL0     H56847   3.653   8.012   3.354  1.0035  0.6625  1.0890
  431MOL0     H56848   3.476   8.250   3.326 -0.8601 -0.9380  0.7133
  431MOL0     H56849   3.617   8.238   3.430  0.3284  2.1040 -1.4466
  431MOL0     H56850   3.352   8.184   3.516 -2.8788 -3.0558 -1.3810
  431MOL0     H56851   3.371   8.044   3.429 -0.4741  1.7337 -2.1212
  431MOL0     H56852   3.540   8.141   3.658  0.0088  0.9315 -1.4792
  431MOL0     H56853   3.612   8.026   3.563  0.6035  1.2884 -0.3922
  431MOL0     H56854   3.297   7.822   3.815  0.0148 -0.9189  1.8004
  431MOL0     H56855   3.347   7.727   4.041 -0.6332  0.4119  0.8392
  431MOL0     H56856   3.344   7.470   4.353 -0.5102 -4.0988  3.0192
  431MOL0     H56857   3.386   7.372   4.539 -0.2304  1.3203  0.3441
  431MOL0     H56858   3.489   7.528   4.816  0.3809  1.4070 -0.8688
  431MOL0     H56859   3.652   7.585   4.793 -1.1034  0.2073 -0.8304
  431MOL0     H56860   3.721   7.354   4.921  2.1798  3.3585 -1.9723
  431MOL0     H56861   3.557   7.361   4.977 -1.6569  1.0903 -2.4161
  431MOL0     H56862   3.763   7.582   5.030 -1.7031  3.9099 -1.0061
  431MOL0     H56863   3.689   7.480   5.149  1.8684  0.9938 -0.1183
  431MOL0     H56864   3.538   7.679   5.008 -2.9795  0.3885  1.4870
  431MOL0     H56865   3.471   7.546   5.112 -0.4496  0.5659 -2.5508
  431MOL0     H56866   3.489   7.781   5.200  0.3364  0.3457  2.9660
  431MOL0     H56867   3.669   7.764   5.210 -1.1209  0.7543  1.7496
  431MOL0     H56868   3.649   7.589   5.355  0.7241  0.6785 -1.5320
  431MOL0     H56869   3.467   7.588   5.340 -1.0562  0.6481 -0.4223
  431MOL0     H56870   3.610   7.845   5.432  1.2353 -0.0871  2.8985
  431MOL0     H56871   3.462   7.774   5.500 -0.4691 -2.8879  1.5138
  431MOL0     H56872   3.748   7.684   5.542 -1.0847 -2.8408 -3.1605
  431MOL0     H56873   3.614   7.620   5.629 -0.1220 -0.8538 -1.5009
  431MOL0     H56874   3.785   7.556   4.560  0.7365  1.6134 -2.0474
  431MOL0     H56875   3.740   7.649   4.347  1.3927 -0.9141  1.5708
  431MOL0     H56876   3.741   7.900   3.999 -0.8492  1.9777  0.2040
  431MOL0     H56877   3.691   8.009   3.806  1.0847 -0.1793  2.8496
  431MOL0     H56878   2.557   8.290   2.562 -3.4316  2.1567 -1.7296
  431MOL0     H56879   2.501   8.542   2.583  3.4100  0.8338  0.0370
  431MOL0     H56880   2.703   8.983   2.814 -1.0482 -1.1112  1.2200
  431MOL0     H56881   2.614   9.210   2.801 -0.0465 -0.0122  0.8849
  431MOL0     H56882   2.235   9.309   2.584 -1.7217  0.8580  3.6632
  431MOL0     H56883   2.363   9.341   2.475  1.4993  0.3914  0.5598
  431MOL0     H56884   2.415   9.540   2.633 -0.0558 -0.8943  0.5280
  431MOL0     H56885   2.309   9.539   2.488  1.9836 -2.7836 -0.9475
  431MOL0     H56886   2.252   9.500   2.789 -0.4222 -0.6003 -0.5350
  431MOL0     H56887   2.127   9.471   2.669  1.4643 -1.6574 -3.2287
  431MOL0     H56888   2.140   9.715   2.608  1.8640 -0.6178 -1.2338
  431MOL0     H56889   2.093   9.694   2.780  0.6986 -1.2146  0.2368
  431MOL0     H56890   2.478   9.901   2.793  0.1698 -0.4132  1.5313
  431MOL0     H56891   2.270   9.055   2.597  0.1569 -2.0442  1.0267
  431MOL0     H56892   2.334   8.837   2.658  1.2374 -1.9984  2.9243
  432MOL0     O56893   0.233   4.569   8.803 -1.3989  0.2438  0.3768
  432MOL0     C56894   0.208   4.678   8.759  0.1834 -0.1210 -0.4909
  432MOL0     O56895   0.276   4.746   8.657  0.6003  0.4643 -0.6046
  432MOL0     C56896   0.391   4.693   8.608  0.6305 -0.3565 -0.0055
  432MOL0     C56897   0.401   4.677   8.468 -0.0004 -0.4963 -0.2761
  432MOL0     C56898   0.518   4.613   8.413  0.0328 -0.2744  0.1207
  432MOL0     C56899   0.617   4.563   8.493 -0.4926 -0.8579  0.2091
  432MOL0     O56900   0.726   4.501   8.436  0.3230  0.2489  0.5830
  432MOL0     C56901   0.836   4.467   8.517 -1.1221 -0.8080  0.4388
  432MOL0     C56902   0.942   4.375   8.437  0.3068 -1.2146  0.8058
  432MOL0     C56903   0.970   4.448   8.305  0.4779  0.3286 -0.5285
  432MOL0     C56904   1.082   4.383   8.237  0.3229 -0.0229  0.1744
  432MOL0     C56905   1.114   4.418   8.096  0.1035  0.7802  0.3599
  432MOL0     C56906   1.001   4.424   7.998 -0.4293 -0.2022  0.3438
  432MOL0     C56907   0.946   4.287   7.967  0.2504  0.4124  0.0069
  432MOL0     C56908   0.823   4.310   7.871 -0.3599 -0.3288 -0.7164
  432MOL0     N56909   0.713   4.377   7.940 -0.3077 -0.0624 -0.6483
  432MOL0     C56910   0.626   4.325   8.027  0.0217  0.1432 -0.7275
  432MOL0     C56911   0.524   4.412   8.028  0.3029 -0.2005 -0.3120
  432MOL0     C56912   0.404   4.404   8.119  0.3792  0.4137  0.4285
  432MOL0     C56913   0.279   4.342   8.048 -0.9041 -0.0567  0.4521
  432MOL0     C56914   0.174   4.287   8.138 -0.6511 -0.5147  0.0039
  432MOL0     C56915   0.032   4.264   8.079  0.2414 -0.4016 -0.1862
  432MOL0     O56916   0.016   4.166   7.972 -0.3374 -0.3756 -0.7469
  432MOL0     C56917  -0.094   4.170   7.888 -0.3666  0.4719 -0.5551
  432MOL0     C56918  -0.208   4.234   7.934  0.3622 -0.1839  0.1780
  432MOL0     C56919  -0.315   4.257   7.862  0.0883  1.6964 -0.4419
  432MOL0     C56920  -0.323   4.204   7.725  0.4955  0.0137 -0.1424
  432MOL0     C56921  -0.437   4.225   7.637  0.9391 -0.1717 -1.0663
  432MOL0     O56922  -0.430   4.181   7.511  1.0596  0.5508 -0.1708
  432MOL0     C56923  -0.548   4.179   7.446 -0.2770  0.8043  0.3499
  432MOL0     C56924  -0.645   4.082   7.495 -0.0958  0.9138  0.0937
  432MOL0     C56925  -0.772   4.078   7.430 -0.8857 -0.3993  0.2296
  432MOL0     C56926  -0.795   4.147   7.315  0.5749  0.0120 -0.3823
  432MOL0     O56927  -0.917   4.126   7.268 -1.0197 -0.2067 -0.0299
  432MOL0     C56928  -0.925   4.097   7.130  0.3098 -0.1425  0.0384
  432MOL0     C56929  -1.068   4.067   7.097  0.2874  0.4090  0.3456
  432MOL0     C56930  -1.080   4.006   6.952  0.1978  0.9134 -0.5534
  432MOL0     C56931  -1.224   3.956   6.912 -0.3764 -0.4403 -0.0870
  432MOL0     C56932  -1.220   3.898   6.760  0.9392 -0.1067 -0.1613
  432MOL0     C56933  -1.126   3.782   6.739  0.0148 -0.0118  0.0876
  432MOL0     C56934  -1.178   3.648   6.799 -0.0393  0.6464  0.1640
  432MOL0     C56935  -1.109   3.522   6.741 -0.2608 -0.7127  0.2852
  432MOL0    Cl56936  -1.159   3.501   6.564  0.1670  0.2265 -0.2352
  432MOL0     C56937  -0.695   4.234   7.263 -0.5774 -0.3298 -0.2219
  432MOL0     C56938  -0.583   4.254   7.333 -0.2610 -0.3245 -1.2406
  432MOL0     O56939  -0.526   4.294   7.687  0.3898 -0.3902  0.5298
  432MOL0     C56940  -0.212   4.126   7.681 -0.0297  1.1475  0.0779
  432MOL0     C56941  -0.101   4.118   7.759  0.2387 -0.7074  0.3186
  432MOL0     N56942   0.542   4.517   7.948 -0.3408  0.1875  0.1785
  432MOL0     N56943   0.656   4.501   7.888 -0.3293 -1.2905  0.1170
  432MOL0     C56944   0.608   4.591   8.632 -0.3179 -0.2292 -0.8839
  432MOL0     C56945   0.498   4.651   8.689  0.9495  0.4533  0.3719
  432MOL0     C56946   0.073   4.722   8.800 -1.3607  0.4025  0.4673
  432MOL0     C56947   0.043   4.849   8.767  0.2632  0.7919  0.1017
  432MOL0     C56948  -0.072   4.907   8.819 -0.8504  0.9447  0.1785
  432MOL0     C56949  -0.172   4.830   8.880 -0.1274 -0.6305 -0.7058
  432MOL0     O56950  -0.293   4.866   8.932 -0.6323 -0.1228  1.0519
  432MOL0     C56951  -0.332   5.003   8.913  0.1750  0.9746  0.1180
  432MOL0     C56952  -0.308   5.071   9.048 -0.4534  0.5406  0.3255
  432MOL0     C56953  -0.303   5.230   9.048  0.0493 -1.0063 -0.5932
  432MOL0     C56954  -0.416   5.315   8.985 -0.8013 -0.4892  0.3960
  432MOL0     C56955  -0.541   5.317   9.052  0.2777 -0.5730 -1.1416
  432MOL0     C56956  -0.659   5.323   9.092  0.2238 -0.0519  0.5720
  432MOL0     C56957  -0.146   4.692   8.906 -0.0527 -0.0629  0.9084
  432MOL0     C56958  -0.020   4.643   8.864 -0.0992  0.0036  0.3232
  432MOL0     H56959   0.329   4.713   8.396 -0.2300 -0.9092 -0.2540
  432MOL0     H56960   0.540   4.609   8.306  1.5623  1.5978  0.3107
  432MOL0     H56961   0.801   4.421   8.609 -2.9191 -1.0378 -0.3315
  432MOL0     H56962   0.884   4.562   8.543  0.8489 -0.9662 -2.1521
  432MOL0     H56963   0.883   4.283   8.424  0.1057 -1.5507  3.5196
  432MOL0     H56964   1.037   4.362   8.489  0.4134  0.3938  1.0550
  432MOL0     H56965   1.000   4.551   8.327 -0.4181  0.7619 -1.2769
  432MOL0     H56966   0.882   4.447   8.241  0.7979  3.2904 -1.1533
  432MOL0     H56967   1.172   4.368   8.298  0.8598 -0.0962 -0.6225
  432MOL0     H56968   1.045   4.280   8.240 -0.8403  0.1698 -3.3082
  432MOL0     H56969   1.185   4.340   8.070 -0.7248 -0.1320  0.7883
  432MOL0     H56970   1.168   4.513   8.096  2.6091 -0.5697 -0.0476
  432MOL0     H56971   1.031   4.477   7.908  2.1651  3.1313  2.9033
  432MOL0     H56972   0.916   4.482   8.035 -1.4081  0.4375 -2.6874
  432MOL0     H56973   1.023   4.221   7.926 -2.1351 -1.8764 -1.1275
  432MOL0     H56974   0.913   4.241   8.060  1.5992  0.2693  0.4233
  432MOL0     H56975   0.794   4.207   7.851  1.4416 -1.7773  3.0995
  432MOL0     H56976   0.853   4.369   7.784 -1.1866 -0.1613 -0.9009
  432MOL0     H56977   0.635   4.229   8.076  0.4847  1.0577  1.0435
  432MOL0     H56978   0.373   4.504   8.151  3.0167  2.1871 -2.0367
  432MOL0     H56979   0.433   4.348   8.208 -1.6464  3.8561  3.5082
  432MOL0     H56980   0.311   4.272   7.970 -0.3233  2.6075 -1.8548
  432MOL0     H56981   0.233   4.415   7.981  1.4495  2.8941  1.8604
  432MOL0     H56982   0.207   4.192   8.181  2.5650 -0.0288 -1.0520
  432MOL0     H56983   0.169   4.358   8.221  0.2366  0.3783 -0.6824
  432MOL0     H56984  -0.007   4.362   8.049  1.0601 -0.4746 -1.5756
  432MOL0     H56985  -0.028   4.229   8.164 -2.1997 -1.1072 -2.0944
  432MOL0     H56986  -0.231   4.276   8.031  0.4591 -1.7012  0.8860
  432MOL0     H56987  -0.395   4.313   7.910 -0.7368 -0.2269  0.5684
  432MOL0     H56988  -0.623   4.018   7.579 -2.7772 -0.0507  0.1458
  432MOL0     H56989  -0.840   3.996   7.447 -0.5188 -0.5680  0.9278
  432MOL0     H56990  -0.861   4.012   7.108  2.3226  0.9660  1.2944
  432MOL0     H56991  -0.893   4.186   7.074  0.1954 -0.9440 -1.3505
  432MOL0     H56992  -1.118   4.165   7.092 -0.1466  0.2582  1.3200
  432MOL0     H56993  -1.104   4.003   7.178  1.2596 -2.2832 -1.2126
  432MOL0     H56994  -1.017   3.916   6.959 -1.4892 -0.2044  1.6612
  432MOL0     H56995  -1.044   4.080   6.880  0.3341  2.3130  0.8949
  432MOL0     H56996  -1.244   3.886   6.994 -1.0386  0.4566  0.5377
  432MOL0     H56997  -1.283   4.047   6.923  0.6583  0.4204 -1.4436
  432MOL0     H56998  -1.178   3.974   6.693  1.5437 -1.5376 -1.4742
  432MOL0     H56999  -1.322   3.865   6.741  1.3134 -4.4477  3.5104
  432MOL0     H57000  -1.026   3.803   6.778  0.7800  0.6820 -2.1309
  432MOL0     H57001  -1.125   3.770   6.631  0.1359  2.8988 -0.3275
  432MOL0     H57002  -1.179   3.646   6.908 -1.2660  0.4068  0.1685
  432MOL0     H57003  -1.284   3.637   6.772 -0.1740  1.0367  0.5396
  432MOL0     H57004  -1.126   3.434   6.804  2.0625  0.3568  2.6028
  432MOL0     H57005  -1.001   3.534   6.753 -0.3216 -1.1208  1.3746
  432MOL0     H57006  -0.717   4.295   7.176  2.4748 -1.0323 -1.6072
  432MOL0     H57007  -0.505   4.327   7.311  0.5537  0.3231  2.8701
  432MOL0     H57008  -0.196   4.075   7.587  1.6798  2.3782 -0.3606
  432MOL0     H57009  -0.017   4.056   7.729  1.0205  0.3383  0.3007
  432MOL0     H57010   0.686   4.553   8.697 -1.3593 -0.5473  0.2140
  432MOL0     H57011   0.482   4.662   8.796 -2.6134 -0.9901  0.1243
  432MOL0     H57012   0.100   4.919   8.706 -0.7230  1.2416 -0.3326
  432MOL0     H57013  -0.071   5.016   8.823  0.8859  0.9420  0.6870
  432MOL0     H57014  -0.441   5.001   8.906 -0.1882 -1.4213  3.7252
  432MOL0     H57015  -0.298   5.072   8.836  0.2492  1.3787  0.5094
  432MOL0     H57016  -0.391   5.040   9.112 -1.7613  0.3116 -1.4162
  432MOL0     H57017  -0.215   5.035   9.093 -0.2368  0.9651  0.2281
  432MOL0     H57018  -0.211   5.251   8.992 -0.3605  0.3568 -0.7869
  432MOL0     H57019  -0.295   5.259   9.153  0.9992  1.1627 -1.2209
  432MOL0     H57020  -0.387   5.419   8.967 -0.6164 -0.8537 -1.7438
  432MOL0     H57021  -0.431   5.282   8.881  1.0101 -0.5605  0.1342
  432MOL0     H57022  -0.760   5.325   9.126  0.1024 -1.4051  0.3460
  432MOL0     H57023  -0.208   4.622   8.960 -1.5100 -0.5812 -1.3121
  432MOL0     H57024   0.008   4.539   8.881 -1.2748 -1.1271 -3.6709
  433MOL0     O57025   5.046   9.102   6.631  0.2029  0.4524  0.3513
  433MOL0     C57026   4.961   9.016   6.612  0.2893 -0.2293  0.4628
  433MOL0     O57027   4.874   8.978   6.714 -0.2151 -0.0918 -0.2844
  433MOL0     C57028   4.874   9.039   6.831 -0.1136  0.4730  0.1028
  433MOL0     C57029   4.832   9.171   6.844  0.0883 -0.6069 -0.2110
  433MOL0     C57030   4.839   9.230   6.967  0.1896 -0.3440  1.1080
  433MOL0     C57031   4.864   9.163   7.086 -0.5670  1.1719  0.1435
  433MOL0     O57032   4.902   9.233   7.199  0.4569 -0.3069 -0.8486
  433MOL0     C57033   5.041   9.257   7.209 -0.7114  0.4303  0.8066
  433MOL0     C57034   5.083   9.215   7.350 -0.6096  0.1598  0.8448
  433MOL0     C57035   5.036   9.314   7.452 -1.1881  0.2321 -0.6321
  433MOL0     C57036   5.040   9.245   7.592 -1.1752 -0.9043 -1.1042
  433MOL0     C57037   5.042   9.355   7.700 -1.3168 -0.2037  0.8069
  433MOL0     C57038   5.060   9.294   7.838 -0.3620  0.4936  0.1119
  433MOL0     C57039   5.110   9.392   7.950  0.5472 -0.1592  0.3121
  433MOL0     C57040   5.013   9.502   7.987  0.8282 -0.2650  0.3598
  433MOL0     N57041   4.905   9.450   8.069  0.1039  0.4213 -1.0869
  433MOL0     C57042   4.786   9.378   8.037  0.3538  0.3287 -0.8919
  433MOL0     C57043   4.744   9.332   8.158 -0.9402 -0.0943  0.6001
  433MOL0     C57044   4.603   9.290   8.178 -0.3180  0.2643  0.7217
  433MOL0     C57045   4.550   9.196   8.080 -0.4538  0.4729 -1.1431
  433MOL0     C57046   4.434   9.252   7.992  0.1050  0.0053  0.2450
  433MOL0     C57047   4.458   9.387   7.907 -0.9067  0.6545 -0.0478
  433MOL0     O57048   4.548   9.341   7.805  0.0757  0.4821  0.0613
  433MOL0     C57049   4.535   9.406   7.686  0.4281  0.4924  0.2950
  433MOL0     C57050   4.509   9.541   7.673 -0.8115 -0.4490 -0.4884
  433MOL0     C57051   4.507   9.604   7.545  0.8919  0.3807 -0.7576
  433MOL0     C57052   4.523   9.515   7.435  0.2252  0.3386  1.0349
  433MOL0     C57053   4.502   9.569   7.294 -0.6100  0.7816  0.1334
  433MOL0     O57054   4.448   9.690   7.274  0.1614 -0.0699 -0.9421
  433MOL0     C57055   4.441   9.758   7.155 -0.2826 -0.6998  0.8245
  433MOL0     C57056   4.420   9.695   7.032  0.5681  0.7257 -0.4150
  433MOL0     C57057   4.428   9.762   6.907  1.0031  0.9805 -0.3557
  433MOL0     C57058   4.427   9.902   6.908  0.3814 -0.1519 -0.0625
  433MOL0     O57059   4.403   9.990   6.804 -0.5703 -0.8061 -0.8905
  433MOL0     C57060   4.391   9.923   6.676 -1.3159  0.0983 -0.5097
  433MOL0     C57061   4.255   9.861   6.663 -0.8004 -0.2226 -0.7706
  433MOL0     C57062   4.232   9.822   6.519  0.0627 -1.0239  0.3206
  433MOL0     C57063   4.112   9.723   6.508  0.6143 -0.3559  1.3865
  433MOL0     C57064   4.088   9.698   6.364  0.0441  1.1049  0.4873
  433MOL0     C57065   3.979   9.593   6.341  0.3726 -0.1086  0.2686
  433MOL0     C57066   3.936   9.579   6.191 -0.3172 -0.3203 -0.0071
  433MOL0     C57067   3.839   9.459   6.175  0.9333  0.7211 -0.1780
  433MOL0    Cl57068   3.915   9.297   6.168 -0.2301 -0.5555  0.5322
  433MOL0     C57069   4.452   9.962   7.033 -0.1132 -0.0073 -0.3624
  433MOL0     C57070   4.461   9.897   7.153  0.2472  0.2775 -0.0509
  433MOL0     O57071   4.561   9.502   7.208  0.0593  0.5176 -0.1297
  433MOL0     C57072   4.579   9.378   7.453  0.8839  0.2209  0.7521
  433MOL0     C57073   4.585   9.326   7.579 -0.0480 -0.9038  1.2574
  433MOL0     N57074   4.826   9.361   8.267 -0.4549  0.3347  0.1228
  433MOL0     N57075   4.920   9.439   8.214  0.0104 -0.2369 -0.6635
  433MOL0     C57076   4.881   9.030   7.084  0.5066  1.1146  0.1104
  433MOL0     C57077   4.884   8.969   6.955  0.0675 -0.1457  0.0161
  433MOL0     C57078   4.951   8.939   6.483  0.6885 -0.1064 -0.4096
  433MOL0     C57079   4.848   8.848   6.457 -0.1676 -0.2749 -0.6336
  433MOL0     C57080   4.842   8.796   6.325  0.1844 -0.0194 -1.1276
  433MOL0     C57081   4.939   8.815   6.224 -0.0846 -0.2773  0.3866
  433MOL0     O57082   4.920   8.743   6.106 -0.3700 -0.3143  0.0901
  433MOL0     C57083   5.019   8.742   6.004  0.2203 -0.0964 -0.0937
  433MOL0     C57084   4.971   8.649   5.895  0.6408 -0.2610 -0.1462
  433MOL0     C57085   5.064   8.631   5.775  0.4851 -0.0342 -0.0242
  433MOL0     C57086   5.028   8.523   5.676  0.2077  0.2416 -0.4443
  433MOL0     C57087   4.897   8.536   5.629  0.7539 -0.2078  0.7504
  433MOL0     C57088   4.776   8.530   5.600 -0.0159  0.5512  0.7472
  433MOL0     C57089   5.035   8.910   6.252 -0.4547 -0.1909  0.3050
  433MOL0     C57090   5.042   8.977   6.383 -0.3038 -0.1091  0.0784
  433MOL0     H57091   4.809   9.232   6.757 -0.6555 -1.9938 -1.0271
  433MOL0     H57092   4.821   9.337   6.962  0.5057 -0.2959  0.9290
  433MOL0     H57093   5.065   9.362   7.186  0.9254 -0.3384 -1.3132
  433MOL0     H57094   5.090   9.193   7.135 -0.7987  2.0564 -0.7505
  433MOL0     H57095   5.191   9.203   7.356 -0.6650 -0.0828  1.4420
  433MOL0     H57096   5.027   9.122   7.366 -2.9301  1.2530 -0.3863
  433MOL0     H57097   4.933   9.346   7.434 -1.0003  0.4792 -1.3065
  433MOL0     H57098   5.097   9.404   7.440  0.6051 -1.1842 -3.1217
  433MOL0     H57099   4.958   9.176   7.615  0.3447 -1.2333  5.3327
  433MOL0     H57100   5.129   9.181   7.602 -2.0184 -1.8155  1.2979
  433MOL0     H57101   4.942   9.398   7.700 -1.4015 -0.0110 -3.2198
  433MOL0     H57102   5.126   9.418   7.670 -2.0608  0.7199  0.6191
  433MOL0     H57103   5.134   9.214   7.831  0.3851  1.0725  1.1295
  433MOL0     H57104   4.962   9.259   7.870 -0.8317  0.8463 -0.9239
  433MOL0     H57105   5.147   9.347   8.042  2.0708  2.0255  0.8435
  433MOL0     H57106   5.198   9.437   7.902 -0.1131  1.1230  0.2624
  433MOL0     H57107   4.972   9.547   7.896 -0.3045 -0.2047  0.8895
  433MOL0     H57108   5.068   9.581   8.039  2.4755  0.4889 -2.3071
  433MOL0     H57109   4.739   9.378   7.940 -0.5280 -0.3540 -0.4810
  433MOL0     H57110   4.542   9.381   8.171  0.5946  0.7438 -2.0648
  433MOL0     H57111   4.589   9.243   8.276  3.8841 -3.3893 -0.1372
  433MOL0     H57112   4.529   9.109   8.143  1.5115  2.4343  2.5717
  433MOL0     H57113   4.622   9.166   8.004 -0.7085 -0.2244 -1.1208
  433MOL0     H57114   4.392   9.169   7.935 -0.9327  0.2022  0.7055
  433MOL0     H57115   4.354   9.269   8.065 -0.8226 -0.8354 -0.5585
  433MOL0     H57116   4.499   9.470   7.966 -3.1000  1.7695  0.0071
  433MOL0     H57117   4.361   9.409   7.863 -0.1641 -1.2735 -2.9092
  433MOL0     H57118   4.502   9.592   7.769  1.9808 -3.3005  1.4175
  433MOL0     H57119   4.491   9.711   7.533 -1.1496  0.3102  0.6722
  433MOL0     H57120   4.426   9.587   7.038 -0.0657  0.7423  0.7801
  433MOL0     H57121   4.422   9.701   6.817  2.3500 -1.3337  1.0174
  433MOL0     H57122   4.462   9.841   6.660 -3.3052 -1.3832 -2.2982
  433MOL0     H57123   4.407   9.995   6.596  1.7023 -0.0532 -0.1617
  433MOL0     H57124   4.180   9.940   6.673  1.5805  1.9589  0.7651
  433MOL0     H57125   4.227   9.792   6.743 -1.8472  1.4214  0.3476
  433MOL0     H57126   4.325   9.775   6.485  0.9462  1.6976 -1.3990
  433MOL0     H57127   4.218   9.910   6.456  0.3378 -3.3163 -3.2385
  433MOL0     H57128   4.134   9.626   6.554 -0.5167 -0.8051  1.0301
  433MOL0     H57129   4.017   9.753   6.553  1.3177  0.4794  2.3518
  433MOL0     H57130   4.182   9.673   6.313 -0.1267  2.6513 -0.6436
  433MOL0     H57131   4.073   9.794   6.314 -0.6413  2.1332  2.5693
  433MOL0     H57132   3.890   9.631   6.391 -0.1419  1.1326 -1.4793
  433MOL0     H57133   4.001   9.494   6.383  3.8712  0.2442 -0.4584
  433MOL0     H57134   3.892   9.669   6.146 -3.2429 -0.8614  1.5077
  433MOL0     H57135   4.021   9.542   6.134 -1.2535 -1.7530 -0.5186
  433MOL0     H57136   3.789   9.469   6.078  2.2281  1.1033 -0.8265
  433MOL0     H57137   3.759   9.460   6.249  1.3311  0.6868  0.2559
  433MOL0     H57138   4.467  10.069   7.043 -0.5940  0.0137  0.2195
  433MOL0     H57139   4.486   9.942   7.249  1.7336 -2.3690  0.8929
  433MOL0     H57140   4.610   9.324   7.364 -1.5618  0.0922 -0.1077
  433MOL0     H57141   4.612   9.221   7.591 -2.6810 -1.4144  4.1695
  433MOL0     H57142   4.893   8.976   7.178  2.0196  0.9120 -0.1857
  433MOL0     H57143   4.883   8.862   6.938  0.7607 -0.0904 -0.3998
  433MOL0     H57144   4.765   8.819   6.520 -1.1069 -3.8773 -3.2016
  433MOL0     H57145   4.762   8.725   6.308 -2.1495  2.5256 -1.5640
  433MOL0     H57146   5.117   8.715   6.045  0.9155  2.4726  0.0994
  433MOL0     H57147   5.034   8.848   5.981 -2.2907  0.5631  0.9501
  433MOL0     H57148   4.958   8.554   5.947  1.0726 -1.7391 -2.5728
  433MOL0     H57149   4.872   8.685   5.865  0.1782  0.7312  2.3202
  433MOL0     H57150   5.165   8.610   5.813  0.0392 -0.0796  1.1869
  433MOL0     H57151   5.065   8.717   5.707  0.0755 -0.8102 -1.0242
  433MOL0     H57152   5.094   8.528   5.589  0.2227  1.4446 -0.3809
  433MOL0     H57153   5.031   8.425   5.723 -1.5441  1.1487  1.7386
  433MOL0     H57154   4.671   8.516   5.586  0.1402 -0.2986  0.3462
  433MOL0     H57155   5.121   8.932   6.190  0.6847 -1.7946  1.2388
  433MOL0     H57156   5.134   9.032   6.389  0.6966 -1.5635 -1.1097
  434MOL0     O57157   7.559  10.428   2.841  0.0996  0.4655 -0.4211
  434MOL0     C57158   7.595  10.546   2.845 -0.2065  0.2434  0.8731
  434MOL0     O57159   7.606  10.616   2.729  0.3804 -1.0190 -0.6405
  434MOL0     C57160   7.551  10.568   2.619 -0.1078 -0.3809 -0.7340
  434MOL0     C57161   7.626  10.504   2.517 -1.0204  0.4391 -0.5160
  434MOL0     C57162   7.545  10.457   2.405 -0.8182  0.5564 -0.8290
  434MOL0     C57163   7.406  10.473   2.399  0.3401 -0.1565 -0.0586
  434MOL0     O57164   7.326  10.422   2.295  0.0385 -0.1524 -0.5856
  434MOL0     C57165   7.345  10.283   2.263  0.8327 -1.3067 -1.0136
  434MOL0     C57166   7.254  10.244   2.142  0.1462  0.0363 -0.5273
  434MOL0     C57167   7.196  10.105   2.168  1.0222  0.4889 -0.0848
  434MOL0     C57168   7.074  10.070   2.076 -0.8621 -0.3986 -0.4733
  434MOL0     C57169   7.022   9.928   2.100  0.7861 -0.1800  0.6304
  434MOL0     C57170   6.979   9.873   2.239 -0.1373 -0.0903  0.2625
  434MOL0     C57171   6.879   9.956   2.311 -0.5344  0.6939 -0.7743
  434MOL0     C57172   6.817   9.881   2.435  0.9488 -0.2017 -0.1650
  434MOL0     N57173   6.718   9.962   2.507 -0.2355 -0.5754  0.3987
  434MOL0     C57174   6.580   9.943   2.491  0.3887 -0.0110  0.2568
  434MOL0     C57175   6.528  10.060   2.544 -0.1444 -0.0136 -0.1295
  434MOL0     C57176   6.391  10.108   2.532 -0.3088 -0.5465 -0.7925
  434MOL0     C57177   6.311  10.101   2.662 -0.3761  0.1486 -0.0494
  434MOL0     C57178   6.196  10.204   2.687  0.8859  0.8166  1.1690
  434MOL0     C57179   6.163  10.218   2.834  0.5016  0.0206 -0.3175
  434MOL0     O57180   6.050  10.293   2.878 -0.9633 -0.2451  0.0653
  434MOL0     C57181   5.920  10.259   2.850 -0.2321 -0.1151 -0.0876
  434MOL0     C57182   5.824  10.342   2.910  0.9804  0.7368  0.3046
  434MOL0     C57183   5.686  10.324   2.894  1.1532 -0.5171 -0.4818
  434MOL0     C57184   5.640  10.217   2.815 -0.4430  1.5471  0.2088
  434MOL0     C57185   5.500  10.175   2.797  0.5981  0.0370  0.6297
  434MOL0     O57186   5.420  10.235   2.879 -0.8690  0.0238  0.1700
  434MOL0     C57187   5.292  10.186   2.913 -0.0919 -0.1743  0.0513
  434MOL0     C57188   5.201  10.283   2.956 -0.4643  0.4453 -1.0725
  434MOL0     C57189   5.064  10.247   2.971  0.0499 -0.8600  0.3424
  434MOL0     C57190   5.020  10.113   2.952 -0.3819  0.2820  0.1926
  434MOL0     O57191   4.892  10.086   2.987 -0.1599  0.2491  0.4543
  434MOL0     C57192   4.820  10.004   2.889 -0.0547 -0.6349  0.0185
  434MOL0     C57193   4.666  10.014   2.915  0.3507 -0.0650 -0.4194
  434MOL0     C57194   4.629   9.920   3.034 -0.2654  0.2339 -0.1331
  434MOL0     C57195   4.487   9.953   3.084  0.5886 -0.5008  0.2949
  434MOL0     C57196   4.372   9.919   2.990  0.3770 -0.3734  0.5382
  434MOL0     C57197   4.236   9.929   3.049 -1.1880 -0.4329 -0.1076
  434MOL0     C57198   4.131   9.884   2.946 -0.2987  0.2689 -1.2078
  434MOL0     C57199   3.989   9.893   3.003 -0.2013 -0.1196  0.4218
  434MOL0    Cl57200   3.957   9.753   3.097 -0.2198 -0.2660 -0.1345
  434MOL0     C57201   5.120  10.014   2.935  0.3698  0.7221 -0.1169
  434MOL0     C57202   5.251  10.049   2.917  0.4526 -0.5626  1.2275
  434MOL0     O57203   5.478  10.080   2.713 -0.2177 -0.3406 -0.6973
  434MOL0     C57204   5.738  10.131   2.754 -0.9033 -0.3651 -0.3091
  434MOL0     C57205   5.879  10.141   2.785 -0.9826  0.3513  0.7143
  434MOL0     N57206   6.639  10.147   2.589  0.0220  0.2896  0.2208
  434MOL0     N57207   6.745  10.080   2.570  0.1120 -0.3238 -1.1965
  434MOL0     C57208   7.334  10.540   2.498 -0.2896  0.5149 -0.0612
  434MOL0     C57209   7.408  10.585   2.611  0.3071  0.4994 -0.3852
  434MOL0     C57210   7.624  10.607   2.974 -0.6164 -0.0867 -0.0133
  434MOL0     C57211   7.729  10.698   2.980  0.9023 -0.4242  0.1619
  434MOL0     C57212   7.759  10.763   3.094 -1.4061  0.3112 -0.2526
  434MOL0     C57213   7.667  10.753   3.197 -0.2156  0.9767 -0.5948
  434MOL0     O57214   7.677  10.826   3.312  0.7841  0.2780  0.8059
  434MOL0     C57215   7.780  10.920   3.332 -0.6360 -0.1547 -0.0396
  434MOL0     C57216   7.733  10.994   3.457  0.2112 -1.1332  0.0027
  434MOL0     C57217   7.852  11.097   3.481  0.5704  0.6062 -0.4965
  434MOL0     C57218   7.836  11.169   3.610  0.5028  0.6817 -0.4490
  434MOL0     C57219   7.701  11.235   3.625  0.0690 -0.1429  0.4848
  434MOL0     C57220   7.592  11.290   3.630 -0.2711  0.4716 -0.9851
  434MOL0     C57221   7.553  10.675   3.189  0.5824 -0.2234  0.2715
  434MOL0     C57222   7.530  10.598   3.077  0.1177  0.4741  0.2210
  434MOL0     H57223   7.734  10.492   2.521 -0.9643  0.9636 -0.4133
  434MOL0     H57224   7.590  10.412   2.317 -2.6793 -2.9689 -0.1828
  434MOL0     H57225   7.323  10.210   2.341  2.4027 -0.0529  0.7019
  434MOL0     H57226   7.446  10.272   2.223 -0.1654 -0.5287 -3.9982
  434MOL0     H57227   7.314  10.261   2.052  1.1876 -0.1628  0.1033
  434MOL0     H57228   7.170  10.312   2.133  1.1391  1.0204 -3.6609
  434MOL0     H57229   7.163  10.091   2.271  1.7062 -1.7445 -0.1159
  434MOL0     H57230   7.278  10.038   2.140 -1.7878 -3.1987 -0.3659
  434MOL0     H57231   7.000  10.147   2.099  0.5873  1.4982 -1.8664
  434MOL0     H57232   7.109  10.081   1.974  0.4860  0.2022  0.0363
  434MOL0     H57233   7.104   9.859   2.077  0.1934 -2.1297  3.7411
  434MOL0     H57234   6.943   9.916   2.026  1.9066 -0.7910 -0.5080
  434MOL0     H57235   7.064   9.843   2.301 -1.5189 -0.4740  2.0491
  434MOL0     H57236   6.940   9.774   2.216  1.4408 -1.3294  2.5096
  434MOL0     H57237   6.919  10.052   2.347  0.4005 -1.0279  3.3333
  434MOL0     H57238   6.793   9.986   2.251 -0.9881 -0.6521 -0.8127
  434MOL0     H57239   6.896   9.858   2.507 -1.0063  0.3093  2.2663
  434MOL0     H57240   6.786   9.784   2.395  1.0424  0.4085 -1.7665
  434MOL0     H57241   6.523   9.856   2.458 -0.2118  0.2854  0.4909
  434MOL0     H57242   6.335  10.046   2.462 -0.7087  0.4408 -1.3719
  434MOL0     H57243   6.412  10.209   2.495 -0.9669  0.9658  2.6399
  434MOL0     H57244   6.376  10.097   2.750 -0.1000 -1.5960 -0.2960
  434MOL0     H57245   6.258  10.006   2.662  0.5634 -0.4112  1.5350
  434MOL0     H57246   6.226  10.305   2.656  1.2875  1.8097  4.3251
  434MOL0     H57247   6.112  10.181   2.621  3.2383  1.7629 -2.4368
  434MOL0     H57248   6.247  10.264   2.888  0.5052  0.0535 -0.3509
  434MOL0     H57249   6.159  10.120   2.881  0.3652  1.2026  2.3297
  434MOL0     H57250   5.852  10.410   2.989 -1.0445  1.9391  0.0648
  434MOL0     H57251   5.624  10.374   2.968  1.4739 -1.4563  0.4398
  434MOL0     H57252   5.252  10.377   2.972  0.7862 -0.6922  2.5001
  434MOL0     H57253   4.983  10.319   2.978 -1.0756 -1.9121 -1.3877
  434MOL0     H57254   4.843   9.898   2.901  0.7529 -0.3166  1.6532
  434MOL0     H57255   4.836  10.038   2.786  0.0086 -1.3026 -0.1922
  434MOL0     H57256   4.620   9.982   2.820  0.7108  2.6450 -1.5983
  434MOL0     H57257   4.639  10.116   2.943 -0.9764  0.3478 -2.8694
  434MOL0     H57258   4.703   9.928   3.114  0.0050  0.3644 -0.3944
  434MOL0     H57259   4.632   9.815   3.004 -1.8667 -0.7217  2.6870
  434MOL0     H57260   4.463   9.904   3.179 -0.0847  2.1267  1.5649
  434MOL0     H57261   4.489  10.062   3.089  0.2295 -0.1051 -4.2195
  434MOL0     H57262   4.392   9.814   2.963 -1.4729 -0.2884 -1.4386
  434MOL0     H57263   4.373   9.974   2.896 -3.2220  1.6484  1.5111
  434MOL0     H57264   4.220  10.026   3.096 -2.1113  0.0892 -1.4432
  434MOL0     H57265   4.242   9.859   3.133  0.3651  0.3427  0.4739
  434MOL0     H57266   4.149   9.936   2.851 -0.5975 -0.5236 -1.7029
  434MOL0     H57267   4.152   9.781   2.918  2.5556  0.0265  1.2645
  434MOL0     H57268   3.930   9.890   2.911  1.0973 -1.7955 -0.4202
  434MOL0     H57269   3.966   9.987   3.054  2.9402  2.2126 -2.0001
  434MOL0     H57270   5.089   9.910   2.934  2.9974 -0.1512  0.7557
  434MOL0     H57271   5.326   9.975   2.890  3.0365  1.4779  2.4146
  434MOL0     H57272   5.716  10.051   2.684  0.3876 -1.6108  0.6483
  434MOL0     H57273   5.941  10.068   2.735 -1.9565  0.9714 -1.5205
  434MOL0     H57274   7.232  10.573   2.484  0.3104  2.3899 -0.3255
  434MOL0     H57275   7.348  10.637   2.685  0.6320 -1.7713  1.5791
  434MOL0     H57276   7.783  10.717   2.887  0.1213 -1.2019 -0.4675
  434MOL0     H57277   7.850  10.818   3.074 -0.5589 -1.5773 -1.8234
  434MOL0     H57278   7.797  10.995   3.254  1.4765  1.1999  1.6270
  434MOL0     H57279   7.880  10.877   3.346 -0.6535  0.5810  2.8556
  434MOL0     H57280   7.638  11.047   3.447  0.6045 -0.3608  0.3047
  434MOL0     H57281   7.715  10.928   3.542 -2.4830 -0.1594  0.2761
  434MOL0     H57282   7.858  11.165   3.395 -1.5664  1.8335  0.2353
  434MOL0     H57283   7.946  11.042   3.490  1.3685  2.0905  0.6518
  434MOL0     H57284   7.839  11.092   3.688 -0.2548  0.8072 -0.2950
  434MOL0     H57285   7.913  11.246   3.620  0.3237  1.2499 -2.8424
  434MOL0     H57286   7.492  11.329   3.636 -1.0457 -1.3561 -1.2808
  434MOL0     H57287   7.484  10.677   3.273  1.1982  1.2556  0.7745
  434MOL0     H57288   7.445  10.532   3.067 -1.8382  2.8544  0.2839
  435MOL0     O57289   0.432   7.840   1.717  0.1902 -0.6984 -0.1830
  435MOL0     C57290   0.459   7.898   1.614  0.3169  1.4366 -0.0993
  435MOL0     O57291   0.581   7.933   1.566  0.0088  0.6890 -0.3151
  435MOL0     C57292   0.710   7.926   1.632 -0.1042  1.0237  0.4737
  435MOL0     C57293   0.827   7.937   1.554  0.1141 -0.8677 -0.2014
  435MOL0     C57294   0.949   7.907   1.602 -0.0318 -0.3664  0.1322
  435MOL0     C57295   0.966   7.860   1.728 -0.5659 -0.5654  0.1121
  435MOL0     O57296   1.084   7.846   1.785  0.5923  0.3775 -0.3298
  435MOL0     C57297   1.172   7.743   1.732  0.8909 -0.2426  0.2924
  435MOL0     C57298   1.291   7.810   1.654  0.5069  0.1567 -0.1898
  435MOL0     C57299   1.357   7.920   1.727 -0.5272  0.0113  1.0789
  435MOL0     C57300   1.429   7.868   1.845 -0.5126 -0.0590 -0.1329
  435MOL0     C57301   1.575   7.830   1.810  0.9790 -0.2660  0.2476
  435MOL0     C57302   1.626   7.747   1.925  1.2046 -0.1537  0.2597
  435MOL0     C57303   1.770   7.722   1.921  0.0100 -0.1155 -0.1011
  435MOL0     C57304   1.851   7.685   2.045 -0.0582  0.6143  0.2747
  435MOL0     N57305   1.838   7.542   2.079  1.1074 -0.5513 -0.2424
  435MOL0     C57306   1.949   7.462   2.098  0.2925 -1.0399 -0.1594
  435MOL0     C57307   1.907   7.343   2.119  0.2862  0.9195  0.1859
  435MOL0     C57308   1.994   7.226   2.156 -0.3008  0.4938  0.0175
  435MOL0     C57309   1.991   7.109   2.072  0.3850  0.3743  0.1841
  435MOL0     C57310   1.850   7.041   2.087 -0.7885 -0.3671  1.3821
  435MOL0     C57311   1.838   6.909   1.992 -0.7345 -0.1217  0.2125
  435MOL0     O57312   1.884   6.938   1.856 -1.3268  0.0578  0.1414
  435MOL0     C57313   1.793   6.971   1.753 -0.9270  0.2748 -0.2917
  435MOL0     C57314   1.663   7.006   1.777  0.4642  1.0228  0.0336
  435MOL0     C57315   1.582   7.042   1.671  0.1922 -0.0418 -0.1855
  435MOL0     C57316   1.644   7.067   1.550 -0.2438  0.2067  1.0177
  435MOL0     C57317   1.559   7.115   1.439  0.0705 -1.3383 -0.5378
  435MOL0     O57318   1.604   7.113   1.316 -0.1819  0.4453  0.6838
  435MOL0     C57319   1.524   7.100   1.206  0.4274  0.7361  0.3506
  435MOL0     C57320   1.396   7.045   1.202 -0.7105 -1.0924  0.9448
  435MOL0     C57321   1.336   7.016   1.082  0.3740  0.1026 -0.5817
  435MOL0     C57322   1.394   7.045   0.963  0.3697 -0.4053  0.2298
  435MOL0     O57323   1.343   7.025   0.843  0.1148 -0.4943  0.1471
  435MOL0     C57324   1.254   7.130   0.792 -0.7028 -0.1319 -0.5900
  435MOL0     C57325   1.125   7.082   0.716  0.9146 -0.3202 -0.6448
  435MOL0     C57326   1.105   7.171   0.597  1.2273  1.3346  0.1788
  435MOL0     C57327   1.063   7.311   0.660  0.4331  0.7422 -0.0301
  435MOL0     C57328   1.091   7.432   0.568  0.0005 -0.1825  0.0611
  435MOL0     C57329   1.017   7.423   0.436 -0.0762 -0.1124  0.4496
  435MOL0     C57330   1.025   7.549   0.349  0.7776 -0.0031 -1.1502
  435MOL0     C57331   0.883   7.590   0.291  0.2723 -0.0951 -0.0388
  435MOL0    Cl57332   0.894   7.747   0.204  0.3347 -0.9329 -0.0732
  435MOL0     C57333   1.510   7.117   0.962 -0.2781  1.1275 -0.2018
  435MOL0     C57334   1.577   7.150   1.085  0.9797 -0.6547 -0.2162
  435MOL0     O57335   1.446   7.135   1.472  1.0095 -0.9588 -0.0782
  435MOL0     C57336   1.781   7.038   1.525  0.9540 -0.0159  0.7681
  435MOL0     C57337   1.854   6.974   1.628  0.1050 -1.3710  0.1525
  435MOL0     N57338   1.768   7.345   2.114 -0.6885 -0.5139  0.1265
  435MOL0     N57339   1.723   7.470   2.090  0.1916  0.0201  0.5806
  435MOL0     C57340   0.858   7.855   1.810 -0.0936  0.2423 -1.0517
  435MOL0     C57341   0.729   7.883   1.764 -0.2376  0.1613  0.2760
  435MOL0     C57342   0.344   7.928   1.534 -0.7233  0.2624 -0.5248
  435MOL0     C57343   0.354   8.009   1.422 -0.3478  0.3761  0.4398
  435MOL0     C57344   0.250   8.028   1.333 -1.0513  0.0641  0.1429
  435MOL0     C57345   0.128   7.967   1.361 -1.3472  0.3902  0.5285
  435MOL0     O57346   0.036   8.005   1.270  0.0655 -0.2887 -0.0367
  435MOL0     C57347  -0.102   7.968   1.292 -0.6387 -0.3699  0.6242
  435MOL0     C57348  -0.164   8.073   1.379 -0.0610  0.1601  0.8442
  435MOL0     C57349  -0.155   8.230   1.361  0.2157 -0.2888 -0.8388
  435MOL0     C57350  -0.222   8.296   1.480  0.9788  0.3551 -0.0904
  435MOL0     C57351  -0.158   8.423   1.502 -0.3958 -0.9052  0.9010
  435MOL0     C57352  -0.106   8.531   1.528 -0.2256  0.2494 -0.4056
  435MOL0     C57353   0.107   7.881   1.472 -0.0883  0.5116 -0.3778
  435MOL0     C57354   0.223   7.852   1.551  0.5795  0.3029  0.2062
  435MOL0     H57355   0.796   7.969   1.455  0.3724  2.2291  0.6137
  435MOL0     H57356   1.023   7.908   1.523 -1.2051  0.9109 -0.9948
  435MOL0     H57357   1.114   7.680   1.663 -0.0409 -0.5505  1.3292
  435MOL0     H57358   1.226   7.685   1.807  1.1426  0.9328  1.0390
  435MOL0     H57359   1.246   7.857   1.566 -3.2371 -2.4602  0.0940
  435MOL0     H57360   1.359   7.733   1.619 -0.2940 -1.1165  0.9708
  435MOL0     H57361   1.279   7.991   1.757 -1.1031 -0.4641  0.7219
  435MOL0     H57362   1.417   7.969   1.651 -3.1928  0.8034 -0.6692
  435MOL0     H57363   1.433   7.945   1.922 -1.4261 -1.3485  1.2582
  435MOL0     H57364   1.376   7.788   1.897  1.7041  1.3044  4.8346
  435MOL0     H57365   1.633   7.923   1.806 -0.2947  0.8208  3.6383
  435MOL0     H57366   1.573   7.781   1.712  1.6205  1.0734 -0.4569
  435MOL0     H57367   1.573   7.652   1.920 -2.9019  1.9929 -2.3013
  435MOL0     H57368   1.598   7.791   2.021  0.1198  2.4427 -1.1572
  435MOL0     H57369   1.785   7.646   1.844 -0.7146  2.1082 -2.6194
  435MOL0     H57370   1.820   7.811   1.881 -2.2645  0.0168 -3.0194
  435MOL0     H57371   1.828   7.749   2.130  1.5754 -1.6187  2.5460
  435MOL0     H57372   1.958   7.705   2.034  1.2770 -1.1200  6.4848
  435MOL0     H57373   2.045   7.507   2.119 -0.2159  0.7430 -1.4156
  435MOL0     H57374   1.964   7.182   2.251 -0.1942 -1.7477 -0.9331
  435MOL0     H57375   2.101   7.249   2.160  0.7659 -3.4934 -1.0095
  435MOL0     H57376   2.068   7.034   2.094 -2.1756 -1.9019  2.1185
  435MOL0     H57377   1.986   7.136   1.966 -2.2400 -1.1187 -0.1570
  435MOL0     H57378   1.835   7.018   2.193  1.5058 -2.0017  1.4249
  435MOL0     H57379   1.777   7.110   2.044  1.0780  1.3421  0.8088
  435MOL0     H57380   1.736   6.872   1.996  0.0523 -2.7455 -1.2701
  435MOL0     H57381   1.910   6.832   2.020  0.8870  0.7975 -1.1892
  435MOL0     H57382   1.619   7.006   1.877 -0.0627 -0.4984 -0.1710
  435MOL0     H57383   1.477   7.059   1.695  0.3360  0.7053 -0.0709
  435MOL0     H57384   1.343   7.025   1.295  0.7718 -1.3473  1.7741
  435MOL0     H57385   1.234   6.977   1.087  0.7563 -0.7872  0.6672
  435MOL0     H57386   1.324   7.198   0.742 -0.0761 -0.7463 -0.5535
  435MOL0     H57387   1.212   7.187   0.875  1.1115  0.6612 -0.1580
  435MOL0     H57388   1.029   7.082   0.769  1.2818  0.7602  0.0558
  435MOL0     H57389   1.143   6.980   0.681  1.7025 -0.6805  0.7488
  435MOL0     H57390   1.054   7.114   0.519  2.6799 -1.6172  1.2254
  435MOL0     H57391   1.203   7.168   0.548  0.7183 -2.5653 -0.9413
  435MOL0     H57392   0.954   7.306   0.664  0.5122 -0.0635  2.8791
  435MOL0     H57393   1.092   7.318   0.765  0.3364 -2.8806  0.3570
  435MOL0     H57394   1.199   7.432   0.549 -0.4187 -1.7813 -3.0327
  435MOL0     H57395   1.064   7.526   0.617  2.0853  1.2541 -1.3780
  435MOL0     H57396   0.913   7.395   0.453  0.9698 -2.7938  3.2347
  435MOL0     H57397   1.061   7.342   0.378 -0.7143  1.7049 -2.8045
  435MOL0     H57398   1.049   7.619   0.430  0.4298 -0.8551 -0.2820
  435MOL0     H57399   1.108   7.536   0.279  1.2330 -0.6227 -0.5167
  435MOL0     H57400   0.806   7.583   0.368 -3.3411 -0.7204 -3.3948
  435MOL0     H57401   0.849   7.509   0.227 -0.8410 -0.3633  0.8499
  435MOL0     H57402   1.552   7.145   0.865 -0.0972  1.2192 -0.0968
  435MOL0     H57403   1.672   7.203   1.086  1.0381 -0.6031  3.4506
  435MOL0     H57404   1.828   7.063   1.431  1.6247 -0.5864  0.9475
  435MOL0     H57405   1.955   6.944   1.603  3.5114  5.8881  2.5032
  435MOL0     H57406   0.875   7.832   1.915  1.8629 -2.8253 -1.9275
  435MOL0     H57407   0.647   7.873   1.834 -0.0493 -5.6696  0.2056
  435MOL0     H57408   0.451   8.055   1.404  0.0716 -0.5996  0.1577
  435MOL0     H57409   0.272   8.077   1.239 -2.6438  0.2588 -0.1649
  435MOL0     H57410  -0.104   7.872   1.343 -1.5803 -0.4897  0.3759
  435MOL0     H57411  -0.161   7.969   1.200 -2.8766  0.8653  1.9927
  435MOL0     H57412  -0.273   8.062   1.371 -0.1316  1.4183 -0.2115
  435MOL0     H57413  -0.120   8.044   1.474  1.3278 -0.4311  0.0391
  435MOL0     H57414  -0.208   8.261   1.270  3.6354  4.0166 -1.6657
  435MOL0     H57415  -0.056   8.273   1.345  0.2310 -0.2525 -0.6422
  435MOL0     H57416  -0.329   8.312   1.465  0.9462  1.5133  1.2405
  435MOL0     H57417  -0.212   8.228   1.564 -0.1978 -0.9878 -0.9854
  435MOL0     H57418  -0.079   8.631   1.555 -3.6551  0.8034  1.5036
  435MOL0     H57419   0.027   7.812   1.496  1.1055  0.4389  4.3108
  435MOL0     H57420   0.207   7.782   1.632  2.7491  0.6358  0.9904
  436MOL0     O57421  10.865   8.223   0.147  0.0649 -0.8654 -0.0999
  436MOL0     C57422  10.971   8.180   0.094 -0.6414  0.4825  0.1314
  436MOL0     O57423  11.051   8.251   0.007  0.5447 -0.1819  0.6897
  436MOL0     C57424  10.986   8.361  -0.044 -0.1398 -0.8918 -0.6468
  436MOL0     C57425  10.934   8.354  -0.176 -0.5178 -0.0451 -0.6892
  436MOL0     C57426  10.860   8.456  -0.237  0.7838 -1.2710 -0.6092
  436MOL0     C57427  10.842   8.580  -0.178 -0.9876 -0.7127 -0.9878
  436MOL0     O57428  10.787   8.683  -0.241 -0.3986 -0.0131  0.4578
  436MOL0     C57429  10.799   8.819  -0.195  0.6359 -0.1371 -0.7067
  436MOL0     C57430  10.761   8.922  -0.290  0.1129  0.4365  0.6642
  436MOL0     C57431  10.730   9.061  -0.246 -0.3853 -0.2051  0.1240
  436MOL0     C57432  10.844   9.114  -0.156 -0.5860 -0.7758  0.0121
  436MOL0     C57433  10.806   9.266  -0.103  0.0748  0.1723 -0.9259
  436MOL0     C57434  10.705   9.261   0.013 -0.0458  0.5652 -0.1571
  436MOL0     C57435  10.667   9.394   0.056  0.4549  0.1449 -0.4467
  436MOL0     C57436  10.595   9.404   0.199  0.1956  0.5243 -0.2984
  436MOL0     N57437  10.529   9.538   0.220 -0.1464 -0.5984 -0.3770
  436MOL0     C57438  10.392   9.563   0.219  0.2107  0.1953  0.6167
  436MOL0     C57439  10.387   9.695   0.216  0.6883 -0.7378  0.4244
  436MOL0     C57440  10.253   9.771   0.236  0.2083 -0.1625 -0.0615
  436MOL0     C57441  10.258   9.891   0.334 -0.1309  0.9887 -0.1636
  436MOL0     C57442  10.320   9.846   0.468 -0.6539 -0.7084 -0.8875
  436MOL0     C57443  10.265   9.906   0.597  0.1154  0.2504 -0.3891
  436MOL0     O57444  10.259  10.048   0.580  0.0811 -0.5698 -0.2991
  436MOL0     C57445  10.200  10.122   0.682  0.5346 -1.1550 -0.6266
  436MOL0     C57446  10.182  10.263   0.643 -0.6004  0.9269 -0.2667
  436MOL0     C57447  10.117  10.354   0.730  0.0923  0.3234 -0.2863
  436MOL0     C57448  10.059  10.317   0.850 -0.8967 -0.8615 -0.1429
  436MOL0     C57449  10.002  10.414   0.943  0.6352  0.7855  0.6106
  436MOL0     O57450   9.962  10.369   1.061 -0.2072  0.0507  0.3389
  436MOL0     C57451   9.945  10.469   1.155 -0.1840 -0.3602  0.4673
  436MOL0     C57452   9.829  10.472   1.227 -0.3764  0.5057 -0.2124
  436MOL0     C57453   9.808  10.577   1.323  0.1504 -0.3541 -1.0368
  436MOL0     C57454   9.908  10.676   1.356 -0.3790  0.7631  0.2780
  436MOL0     O57455   9.885  10.777   1.445  0.2180 -0.1763 -0.3116
  436MOL0     C57456   9.841  10.752   1.580 -0.5561  0.2950  1.0517
  436MOL0     C57457   9.860  10.869   1.677 -0.0768  0.3190 -0.5232
  436MOL0     C57458   9.850  11.013   1.615  0.5772 -0.1991 -0.3743
  436MOL0     C57459   9.808  11.113   1.728  0.0717  0.7202  0.2228
  436MOL0     C57460   9.796  11.267   1.679 -0.3472 -0.1699  0.4598
  436MOL0     C57461   9.756  11.368   1.794  0.5888 -0.5090 -1.1095
  436MOL0     C57462   9.603  11.394   1.783 -0.3769 -0.1101  0.5979
  436MOL0     C57463   9.547  11.437   1.912  0.1715  0.6210 -0.5424
  436MOL0    Cl57464   9.570  11.610   1.933  0.2552 -0.1709 -0.0091
  436MOL0     C57465  10.032  10.659   1.294  0.2167 -1.0041  0.7836
  436MOL0     C57466  10.050  10.559   1.188  0.2828 -0.4225 -0.7301
  436MOL0     O57467   9.981  10.522   0.898  0.4695 -0.5331  0.3423
  436MOL0     C57468  10.074  10.179   0.887  0.7671 -0.2674 -0.4082
  436MOL0     C57469  10.144  10.083   0.809  0.4438  0.5990  0.6601
  436MOL0     N57470  10.510   9.755   0.202  0.0201 -0.7443 -0.9629
  436MOL0     N57471  10.601   9.657   0.212  0.4579 -0.0515 -0.3375
  436MOL0     C57472  10.893   8.591  -0.049 -0.1338 -0.0703 -0.4934
  436MOL0     C57473  10.964   8.481   0.020 -0.0842  0.3533  0.0546
  436MOL0     C57474  11.019   8.054   0.149  0.4792  0.3362  0.4076
  436MOL0     C57475  10.936   7.969   0.237 -1.1591 -0.6448 -0.3584
  436MOL0     C57476  10.988   7.848   0.284  1.5325 -0.5202 -0.5775
  436MOL0     C57477  11.119   7.813   0.261 -0.3527  0.9484 -0.2151
  436MOL0     O57478  11.172   7.697   0.315 -0.0893  0.2965 -0.2157
  436MOL0     C57479  11.294   7.702   0.394  0.2136  0.3544 -0.5240
  436MOL0     C57480  11.295   7.583   0.489  0.0311 -0.3899 -0.5369
  436MOL0     C57481  11.326   7.455   0.402 -0.8194  1.0360  0.0961
  436MOL0     C57482  11.306   7.319   0.483 -0.2549  0.6253 -0.1343
  436MOL0     C57483  11.365   7.219   0.399  0.0566 -0.5799 -0.4216
  436MOL0     C57484  11.418   7.128   0.333 -0.0974  0.3815  0.3430
  436MOL0     C57485  11.199   7.888   0.179  0.1030 -0.7208  0.1249
  436MOL0     C57486  11.151   8.013   0.127  0.1409 -0.3148  0.3057
  436MOL0     H57487  10.946   8.264  -0.236 -1.6278 -2.3164  2.2523
  436MOL0     H57488  10.828   8.448  -0.341  0.7703 -0.9369 -0.6314
  436MOL0     H57489  10.899   8.837  -0.154  0.6368  3.8557 -2.0097
  436MOL0     H57490  10.725   8.835  -0.117 -1.3114  1.8284 -2.8143
  436MOL0     H57491  10.669   8.888  -0.338  0.4574 -1.4664  1.2410
  436MOL0     H57492  10.844   8.918  -0.362  1.5100 -0.8237  2.2663
  436MOL0     H57493  10.632   9.063  -0.196 -0.0499  1.2711  0.7718
  436MOL0     H57494  10.720   9.123  -0.335 -0.2226  2.1841  1.6784
  436MOL0     H57495  10.863   9.044  -0.074 -1.4227 -3.6066 -2.0786
  436MOL0     H57496  10.935   9.113  -0.217 -1.6490 -3.3556 -1.6846
  436MOL0     H57497  10.767   9.331  -0.181 -4.3259  1.4164  1.9352
  436MOL0     H57498  10.901   9.299  -0.060  0.7217 -1.7685 -0.7510
  436MOL0     H57499  10.726   9.193   0.096 -1.8324 -1.4564 -1.2405
  436MOL0     H57500  10.612   9.216  -0.025  1.9324 -1.7377 -2.7665
  436MOL0     H57501  10.757   9.457   0.056  1.0762 -0.7238  0.0095
  436MOL0     H57502  10.612   9.436  -0.028 -0.1318 -0.6581 -0.4706
  436MOL0     H57503  10.670   9.388   0.277 -1.6445 -0.5383  1.3758
  436MOL0     H57504  10.517   9.328   0.210  2.3807 -1.8902 -0.5632
  436MOL0     H57505  10.311   9.492   0.233  0.4041 -0.2533 -0.4073
  436MOL0     H57506  10.174   9.701   0.265  2.3181 -1.6598  2.5516
  436MOL0     H57507  10.244   9.819   0.138 -0.0861  1.4722  0.7400
  436MOL0     H57508  10.157   9.926   0.355  0.5950  2.0153  1.8469
  436MOL0     H57509  10.328   9.969   0.302  1.1518  0.7482  1.8769
  436MOL0     H57510  10.301   9.739   0.483 -1.1791 -0.1695  3.9622
  436MOL0     H57511  10.429   9.855   0.467 -0.7689  2.0086  0.6483
  436MOL0     H57512  10.326   9.869   0.680 -1.1179  0.5123  0.6658
  436MOL0     H57513  10.164   9.868   0.610 -0.4976  1.2470 -1.9355
  436MOL0     H57514  10.205  10.299   0.543  2.0004  0.8934  0.2545
  436MOL0     H57515  10.105  10.454   0.689  2.3942 -0.1295 -2.2577
  436MOL0     H57516   9.745  10.404   1.220 -0.4405  0.6995 -1.9419
  436MOL0     H57517   9.713  10.593   1.373  0.0958  0.0939 -1.2830
  436MOL0     H57518   9.883  10.660   1.621  0.2543  0.6009  0.9147
  436MOL0     H57519   9.732  10.740   1.588 -0.4838  0.5779  3.2329
  436MOL0     H57520   9.963  10.858   1.713 -0.4746 -3.1469 -0.0952
  436MOL0     H57521   9.782  10.848   1.750 -2.6326  0.1797 -3.1182
  436MOL0     H57522   9.766  11.009   1.545 -2.0058 -0.6695  2.5377
  436MOL0     H57523   9.937  11.045   1.558  1.6895 -2.7139 -0.2415
  436MOL0     H57524   9.706  11.097   1.765 -1.2657  2.4208 -2.4667
  436MOL0     H57525   9.889  11.107   1.802  0.5167 -0.7476 -0.3426
  436MOL0     H57526   9.731  11.292   1.595 -2.8037 -0.4711  2.1658
  436MOL0     H57527   9.898  11.295   1.649 -0.6386  2.6522  1.7550
  436MOL0     H57528   9.802  11.464   1.772 -0.1503 -0.0652 -0.7357
  436MOL0     H57529   9.796  11.341   1.892  0.5853  5.6160  0.9734
  436MOL0     H57530   9.563  11.454   1.701  2.5886 -0.1164 -1.0089
  436MOL0     H57531   9.560  11.296   1.761 -2.7542  0.3832  2.6492
  436MOL0     H57532   9.596  11.382   1.993 -0.2371 -1.9966 -1.9667
  436MOL0     H57533   9.445  11.403   1.932  1.2200 -1.0674  2.4913
  436MOL0     H57534  10.108  10.734   1.312 -2.3310  1.2657  3.0761
  436MOL0     H57535  10.143  10.539   1.136  0.7138  0.9523 -0.5274
  436MOL0     H57536  10.032  10.146   0.981 -1.0969  1.0824 -0.6977
  436MOL0     H57537  10.152   9.977   0.831 -2.3859 -0.0433 -0.8366
  436MOL0     H57538  10.884   8.682   0.010  3.4528 -1.2005  2.1590
  436MOL0     H57539  10.984   8.493   0.126 -0.9335  1.9787  0.0599
  436MOL0     H57540  10.840   8.005   0.271 -2.2140 -0.7540 -2.9611
  436MOL0     H57541  10.931   7.777   0.343  4.4019 -0.9816  1.8895
  436MOL0     H57542  11.280   7.799   0.443  1.6589  1.4121 -2.0538
  436MOL0     H57543  11.387   7.707   0.336 -0.0136 -0.3117 -0.9620
  436MOL0     H57544  11.367   7.591   0.571  0.3868  0.1333 -0.8921
  436MOL0     H57545  11.212   7.580   0.560  2.6584  0.7536  2.8613
  436MOL0     H57546  11.433   7.451   0.380 -0.8273 -1.2496  0.2657
  436MOL0     H57547  11.265   7.451   0.312 -1.0381  1.1094  0.2383
  436MOL0     H57548  11.337   7.317   0.588 -1.9882 -0.7985  0.3870
  436MOL0     H57549  11.198   7.305   0.486 -0.2393  0.5618  0.1318
  436MOL0     H57550  11.468   7.043   0.291 -0.3526  1.1208 -1.5524
  436MOL0     H57551  11.288   7.834   0.148 -1.6741 -3.1674 -1.1160
  436MOL0     H57552  11.204   8.069   0.051  1.4604 -1.0517  0.6569
  437MOL0     O57553   1.680   0.773  10.440 -0.5923  0.1601 -0.6840
  437MOL0     C57554   1.750   0.857  10.383 -0.5459  0.6591  1.2690
  437MOL0     O57555   1.717   0.927  10.273  0.0549  0.9192 -0.1428
  437MOL0     C57556   1.588   0.933  10.235 -0.1853  0.3525 -0.0587
  437MOL0     C57557   1.470   0.907  10.314  0.3154  0.2581 -0.4974
  437MOL0     C57558   1.340   0.909  10.254 -0.7786 -0.4789  0.3576
  437MOL0     C57559   1.322   0.948  10.125 -0.3500  0.6126 -0.0274
  437MOL0     O57560   1.193   0.965  10.069  0.0680 -0.2643  0.4646
  437MOL0     C57561   1.178   0.987   9.927  0.8472 -0.5226 -0.0955
  437MOL0     C57562   1.031   0.974   9.883 -0.1574 -0.1335 -0.5515
  437MOL0     C57563   1.009   0.992   9.737 -1.2326 -0.8644 -0.2353
  437MOL0     C57564   1.061   0.883   9.643  0.7281 -0.0885  0.0563
  437MOL0     C57565   0.995   0.919   9.504 -0.2625 -0.9060  0.3503
  437MOL0     C57566   1.052   0.830   9.390  0.1449  0.4837 -0.1844
  437MOL0     C57567   1.007   0.864   9.251  0.0282  0.2812 -0.0383
  437MOL0     C57568   1.116   0.814   9.149  0.1155 -0.0551 -0.9700
  437MOL0     N57569   1.136   0.664   9.175  0.4253 -0.1114  0.4503
  437MOL0     C57570   1.246   0.621   9.243 -0.7573  0.0358  0.0809
  437MOL0     C57571   1.232   0.492   9.263  0.4297  0.6709  0.3904
  437MOL0     C57572   1.315   0.402   9.353 -0.7451 -0.4017  0.1207
  437MOL0     C57573   1.424   0.322   9.292  0.1303 -0.4686 -0.1452
  437MOL0     C57574   1.388   0.237   9.175  0.1826  0.1878  0.5855
  437MOL0     C57575   1.278   0.138   9.208 -0.2175 -0.2120 -0.8701
  437MOL0     O57576   1.273   0.020   9.127 -0.5676  0.3799  0.2331
  437MOL0     C57577   1.155  -0.043   9.095  0.5963 -0.1885 -0.2382
  437MOL0     C57578   1.170  -0.159   9.020  0.2782  0.6811 -0.2396
  437MOL0     C57579   1.067  -0.242   8.972  0.4576  0.3880  0.1102
  437MOL0     C57580   0.931  -0.200   8.990  0.9568 -0.1210  0.4142
  437MOL0     C57581   0.812  -0.279   8.951 -0.5302  0.4494  0.2086
  437MOL0     O57582   0.695  -0.253   9.014  0.0731 -0.3861  0.6378
  437MOL0     C57583   0.569  -0.299   8.973  1.1423  0.1096 -1.0076
  437MOL0     C57584   0.550  -0.414   8.899  0.1648  0.2876  0.3422
  437MOL0     C57585   0.422  -0.449   8.856 -0.4552  0.2076  0.7283
  437MOL0     C57586   0.303  -0.382   8.878 -0.5125  0.0046  0.1461
  437MOL0     O57587   0.184  -0.444   8.837 -0.7307  0.2941  0.0235
  437MOL0     C57588   0.064  -0.364   8.862  0.4441 -0.1323  0.3890
  437MOL0     C57589  -0.055  -0.429   8.788  0.0032 -0.3577 -0.3747
  437MOL0     C57590  -0.193  -0.379   8.841 -0.2393 -0.6035 -0.8541
  437MOL0     C57591  -0.321  -0.418   8.763 -0.8346  0.0386  0.0546
  437MOL0     C57592  -0.425  -0.343   8.832 -0.2031 -0.0538 -0.3323
  437MOL0     C57593  -0.549  -0.364   8.749  0.4413 -0.6342  0.4553
  437MOL0     C57594  -0.677  -0.314   8.815 -0.5686 -0.3354  0.7582
  437MOL0     C57595  -0.684  -0.161   8.818  0.3969 -0.5866  0.6884
  437MOL0    Cl57596  -0.771  -0.108   8.658 -0.3721 -0.3246 -0.3309
  437MOL0     C57597   0.320  -0.269   8.950 -0.0629 -0.0717 -0.8314
  437MOL0     C57598   0.449  -0.223   8.995 -0.2751  0.1212  0.0185
  437MOL0     O57599   0.832  -0.346   8.852  0.2909  0.3014 -0.0447
  437MOL0     C57600   0.912  -0.074   9.064  0.0708  0.7635 -0.4554
  437MOL0     C57601   1.024  -0.002   9.124  0.7835 -0.2643 -0.1953
  437MOL0     N57602   1.112   0.458   9.204 -1.0143  0.3054  0.1597
  437MOL0     N57603   1.054   0.557   9.156 -0.4119 -0.9277  0.1472
  437MOL0     C57604   1.441   0.977  10.051  0.5397  0.4354 -0.0818
  437MOL0     C57605   1.564   0.964  10.106 -0.5557 -0.3535 -0.0286
  437MOL0     C57606   1.887   0.877  10.436 -0.6679 -0.4464  0.4915
  437MOL0     C57607   1.991   0.911  10.347  0.2856  0.3732 -0.5125
  437MOL0     C57608   2.124   0.915  10.398  0.3883 -0.0577 -0.1892
  437MOL0     C57609   2.145   0.902  10.535 -0.1726 -0.5501 -0.7918
  437MOL0     O57610   2.283   0.920  10.575 -0.1832 -0.2632  0.4514
  437MOL0     C57611   2.318   0.890  10.712  0.0211  0.3415  0.8623
  437MOL0     C57612   2.465   0.928  10.717  0.0467  0.2991 -0.1262
  437MOL0     C57613   2.520   0.924  10.860 -0.7211 -0.0292  0.2592
  437MOL0     C57614   2.679   0.943  10.856 -0.8787 -0.2958 -0.0754
  437MOL0     C57615   2.723   0.944  10.996 -0.7276  1.1818 -0.4727
  437MOL0     C57616   2.760   0.938  11.114 -0.3451  0.5193  0.2658
  437MOL0     C57617   2.041   0.871  10.622 -0.2759 -0.1652  0.5060
  437MOL0     C57618   1.914   0.856  10.573 -0.0146  0.8518  0.1321
  437MOL0     H57619   1.477   0.879  10.419  1.9907  1.6987 -0.1792
  437MOL0     H57620   1.243   0.913  10.305 -0.0295  1.8740  1.7701
  437MOL0     H57621   1.246   0.921   9.874  1.2921 -0.2525  0.1371
  437MOL0     H57622   1.201   1.091   9.904  0.9027 -0.1930  1.3608
  437MOL0     H57623   0.965   1.040   9.941 -2.1279 -3.3948  1.2460
  437MOL0     H57624   1.002   0.874   9.917  2.5732 -0.1712  2.1245
  437MOL0     H57625   1.063   1.083   9.708 -2.3977 -0.8661 -2.7005
  437MOL0     H57626   0.903   1.009   9.719 -0.7436  2.7470 -0.3093
  437MOL0     H57627   1.170   0.887   9.639  0.7257  1.3145  0.7552
  437MOL0     H57628   1.036   0.779   9.665 -1.6391  0.2309 -0.8269
  437MOL0     H57629   1.023   1.023   9.486 -2.2565 -0.6538 -1.8939
  437MOL0     H57630   0.886   0.918   9.507 -0.3908  1.6270 -0.8801
  437MOL0     H57631   1.043   0.725   9.418 -0.9183  1.0872  1.9934
  437MOL0     H57632   1.158   0.853   9.397 -0.6383  4.2155  3.3638
  437MOL0     H57633   0.912   0.818   9.223 -0.2383  0.7636  0.0588
  437MOL0     H57634   0.998   0.973   9.252 -1.2998  0.2368 -1.7279
  437MOL0     H57635   1.207   0.870   9.171 -0.2026  1.2428 -2.7064
  437MOL0     H57636   1.085   0.844   9.049 -1.0646 -0.5135 -0.7620
  437MOL0     H57637   1.334   0.676   9.276 -0.4824 -0.1576 -0.3181
  437MOL0     H57638   1.257   0.331   9.411 -0.1350 -0.5755  0.5243
  437MOL0     H57639   1.361   0.472   9.424 -1.1270  0.2931 -0.2992
  437MOL0     H57640   1.475   0.255   9.362  0.1844 -1.6049 -1.2496
  437MOL0     H57641   1.502   0.392   9.264 -2.3335  1.1408 -3.7009
  437MOL0     H57642   1.375   0.295   9.083 -1.6623  0.1744  0.7991
  437MOL0     H57643   1.469   0.171   9.142  0.4716  0.1041  1.4533
  437MOL0     H57644   1.181   0.188   9.204  0.1141  0.4006 -1.4437
  437MOL0     H57645   1.302   0.101   9.308  0.6203 -2.6881 -1.8989
  437MOL0     H57646   1.269  -0.202   9.011  0.1289  0.7042 -2.8173
  437MOL0     H57647   1.097  -0.330   8.917  0.2168  1.8629 -2.6180
  437MOL0     H57648   0.637  -0.476   8.879  0.5908  0.0355  2.6886
  437MOL0     H57649   0.401  -0.543   8.806 -0.1832  0.6477 -0.2455
  437MOL0     H57650   0.065  -0.259   8.831 -0.7845  0.0331  0.8241
  437MOL0     H57651   0.041  -0.375   8.969  0.2715 -0.3521  0.3312
  437MOL0     H57652  -0.053  -0.538   8.798  2.9562 -0.3399  0.3082
  437MOL0     H57653  -0.057  -0.424   8.679 -1.0684 -2.3351 -0.4805
  437MOL0     H57654  -0.191  -0.270   8.844  1.0240 -0.6332  0.0387
  437MOL0     H57655  -0.195  -0.404   8.947  2.9946 -1.7725 -0.9646
  437MOL0     H57656  -0.324  -0.389   8.657 -2.8921 -3.9236 -1.1497
  437MOL0     H57657  -0.345  -0.525   8.762  1.7872 -0.7693 -4.1006
  437MOL0     H57658  -0.398  -0.237   8.834 -0.2284 -0.0437 -0.5069
  437MOL0     H57659  -0.428  -0.386   8.932  1.6201 -2.4636 -1.1846
  437MOL0     H57660  -0.561  -0.473   8.738 -0.0235 -0.8017  2.3374
  437MOL0     H57661  -0.558  -0.311   8.653  0.5946 -0.3602  0.5914
  437MOL0     H57662  -0.763  -0.353   8.760  1.2705  3.0123 -5.4028
  437MOL0     H57663  -0.678  -0.364   8.912  0.1749  2.4762  2.3349
  437MOL0     H57664  -0.583  -0.121   8.818 -0.7346  2.5218  0.9851
  437MOL0     H57665  -0.739  -0.133   8.909 -3.1353 -1.7458 -0.8843
  437MOL0     H57666   0.239  -0.202   8.977  1.0044  0.5328  1.1427
  437MOL0     H57667   0.436  -0.132   9.053  1.7308  0.3391  0.1927
  437MOL0     H57668   0.814  -0.032   9.082  0.0709  0.4818  0.2415
  437MOL0     H57669   1.000   0.084   9.186  0.3988  0.1857 -0.9508
  437MOL0     H57670   1.418   1.019   9.954 -1.2830  0.3745  0.2888
  437MOL0     H57671   1.653   0.984  10.047 -0.0205  0.4184  1.0042
  437MOL0     H57672   1.972   0.931  10.242  0.6861  2.5043 -0.2268
  437MOL0     H57673   2.210   0.922  10.332  1.1047 -1.1687  0.5980
  437MOL0     H57674   2.313   0.787  10.748 -1.9669  1.3301  3.7157
  437MOL0     H57675   2.259   0.946  10.785 -0.0601  1.2347  0.1303
  437MOL0     H57676   2.519   0.849  10.664 -1.5105 -0.6303 -0.4086
  437MOL0     H57677   2.482   1.024  10.667  2.6674  0.2677  0.5628
  437MOL0     H57678   2.498   0.826  10.903  4.1856 -2.2750 -1.5777
  437MOL0     H57679   2.472   1.006  10.915  0.1225  0.4274  0.3336
  437MOL0     H57680   2.713   0.860  10.793 -2.6040 -0.2597 -1.1193
  437MOL0     H57681   2.713   1.036  10.810 -0.5111  0.6502  2.0009
  437MOL0     H57682   2.799   0.946  11.213 -0.3412 -2.8866  0.6650
  437MOL0     H57683   2.055   0.869  10.729 -0.6209  0.3948  0.5631
  437MOL0     H57684   1.832   0.835  10.640 -0.3023 -2.9002 -1.1455
  438MOL0     O57685   0.038   7.235   4.693 -0.0207  0.5950 -0.7553
  438MOL0     C57686   0.003   7.339   4.743 -0.4082 -0.7432  0.4904
  438MOL0     O57687  -0.019   7.456   4.670 -0.0995  0.4008  0.2395
  438MOL0     C57688   0.008   7.454   4.538 -0.5879 -0.4536 -0.4423
  438MOL0     C57689   0.092   7.547   4.488 -0.0258  0.6264  0.3443
  438MOL0     C57690   0.151   7.546   4.356  0.0719  0.3902 -0.2721
  438MOL0     C57691   0.127   7.438   4.276  0.9826  0.5387 -0.3327
  438MOL0     O57692   0.168   7.419   4.150  0.0764  0.1017  1.1482
  438MOL0     C57693   0.225   7.527   4.065 -0.1879 -0.1545  0.3293
  438MOL0     C57694   0.237   7.462   3.926  0.6642 -0.3168 -1.0655
  438MOL0     C57695   0.342   7.534   3.847 -0.8353  0.5358  0.3731
  438MOL0     C57696   0.488   7.550   3.900  0.0565  0.8284  0.4122
  438MOL0     C57697   0.536   7.419   3.965 -0.6157  1.4626 -0.5612
  438MOL0     C57698   0.684   7.409   3.971 -0.1432 -0.2307  0.2219
  438MOL0     C57699   0.730   7.303   4.075 -0.3031 -0.0538 -0.6669
  438MOL0     C57700   0.719   7.164   4.021 -1.0916 -0.2111 -0.2004
  438MOL0     N57701   0.589   7.107   4.007  0.4955 -0.9610  0.0933
  438MOL0     C57702   0.500   7.100   4.111  0.0750 -1.0596  0.0719
  438MOL0     C57703   0.389   7.055   4.054  0.5912  0.0915 -1.1060
  438MOL0     C57704   0.262   7.028   4.136 -0.6656  0.6488 -0.3395
  438MOL0     C57705   0.276   6.910   4.224  0.1326  0.1996  0.0929
  438MOL0     C57706   0.148   6.833   4.236  0.3145 -1.0123  0.6954
  438MOL0     C57707   0.029   6.904   4.295  1.3488 -0.2427 -0.1976
  438MOL0     O57708  -0.097   6.844   4.245 -0.0927 -0.1227  0.4130
  438MOL0     C57709  -0.137   6.719   4.275  0.7652  0.6200  0.0955
  438MOL0     C57710  -0.241   6.651   4.203 -0.4395 -0.6550  0.0922
  438MOL0     C57711  -0.289   6.533   4.235 -0.5322  0.5714  0.2973
  438MOL0     C57712  -0.243   6.471   4.348 -0.1079 -0.3532 -1.5428
  438MOL0     C57713  -0.297   6.340   4.397  0.1375 -0.3184  0.9291
  438MOL0     O57714  -0.410   6.302   4.325 -0.1673 -0.1249 -0.2622
  438MOL0     C57715  -0.436   6.168   4.303 -0.1950 -0.2319 -0.4855
  438MOL0     C57716  -0.570   6.156   4.263 -0.2807 -0.6475  0.0236
  438MOL0     C57717  -0.612   6.030   4.244 -0.6629 -0.6479  1.1033
  438MOL0     C57718  -0.537   5.914   4.267  0.3357 -0.8203  0.2569
  438MOL0     O57719  -0.584   5.798   4.228  0.0897  0.7631  0.8102
  438MOL0     C57720  -0.497   5.694   4.192  0.0473  0.3904  0.5941
  438MOL0     C57721  -0.482   5.583   4.292  1.4732 -0.1152 -0.6253
  438MOL0     C57722  -0.616   5.564   4.367  0.4714  0.5932 -0.0055
  438MOL0     C57723  -0.601   5.434   4.450 -0.2653  0.1797  0.4070
  438MOL0     C57724  -0.726   5.402   4.535  0.2002 -0.4462 -0.3822
  438MOL0     C57725  -0.855   5.407   4.453  0.6787  0.5510  0.5592
  438MOL0     C57726  -0.986   5.368   4.529 -0.5002 -0.1934  0.2037
  438MOL0     C57727  -1.020   5.233   4.587 -0.0963  0.4500  0.3546
  438MOL0    Cl57728  -1.141   5.234   4.718  0.1576  0.1737  0.0481
  438MOL0     C57729  -0.412   5.924   4.332 -0.0653 -0.6891 -0.2400
  438MOL0     C57730  -0.356   6.050   4.345 -0.3168 -0.5061 -0.0879
  438MOL0     O57731  -0.240   6.275   4.486 -1.2535 -1.2070 -0.5728
  438MOL0     C57732  -0.146   6.531   4.434 -0.7046  0.7872  0.1225
  438MOL0     C57733  -0.086   6.651   4.386  1.4349 -0.0994 -0.4607
  438MOL0     N57734   0.416   7.004   3.929  0.1546 -0.8233 -0.0545
  438MOL0     N57735   0.538   7.037   3.901 -1.2272  1.0009 -0.6728
  438MOL0     C57736   0.034   7.339   4.319  0.4732 -0.2063  1.3777
  438MOL0     C57737  -0.027   7.356   4.447 -0.2114 -0.1083  0.0761
  438MOL0     C57738  -0.043   7.338   4.883  0.5469  1.1898  0.1236
  438MOL0     C57739  -0.064   7.458   4.949 -0.5045 -0.0556 -0.1381
  438MOL0     C57740  -0.087   7.453   5.084 -0.7633  0.5836  0.4139
  438MOL0     C57741  -0.129   7.332   5.150 -0.3768  0.8165 -0.0596
  438MOL0     O57742  -0.166   7.314   5.281 -0.3018  0.4003  0.3447
  438MOL0     C57743  -0.161   7.422   5.373 -0.3761 -1.7586 -0.5262
  438MOL0     C57744  -0.285   7.512   5.374  0.2423  0.1729  0.4356
  438MOL0     C57745  -0.406   7.418   5.391 -0.3354 -0.1823  0.2694
  438MOL0     C57746  -0.531   7.495   5.438 -0.1332  0.0620  0.6641
  438MOL0     C57747  -0.650   7.404   5.431 -0.1735 -0.7318  0.8980
  438MOL0     C57748  -0.757   7.343   5.425  0.4368 -0.9476  0.2039
  438MOL0     C57749  -0.118   7.211   5.071  0.3133 -0.4962 -0.3127
  438MOL0     C57750  -0.076   7.214   4.943  0.2021 -0.3188  0.5492
  438MOL0     H57751   0.129   7.616   4.564  1.3043 -1.9442  2.2274
  438MOL0     H57752   0.242   7.603   4.337  0.1392  1.8246  3.5342
  438MOL0     H57753   0.317   7.566   4.109 -1.0080  0.3509  1.6751
  438MOL0     H57754   0.151   7.608   4.060 -0.7438 -0.3848  3.0338
  438MOL0     H57755   0.138   7.475   3.882  0.3515  2.7667  0.2227
  438MOL0     H57756   0.276   7.361   3.936  0.5268 -0.4527 -1.9096
  438MOL0     H57757   0.302   7.634   3.830 -2.1022 -0.2173 -1.4078
  438MOL0     H57758   0.343   7.489   3.747 -1.3453  1.1625  0.0761
  438MOL0     H57759   0.560   7.570   3.820 -0.6852  2.8098  0.1783
  438MOL0     H57760   0.511   7.634   3.966  3.1230 -0.1781  0.7439
  438MOL0     H57761   0.500   7.336   3.904  0.2863 -0.6077  1.5818
  438MOL0     H57762   0.504   7.415   4.070 -1.6567  5.8529 -0.5268
  438MOL0     H57763   0.728   7.504   4.002 -0.3787 -0.2105  0.4989
  438MOL0     H57764   0.722   7.385   3.872  0.7998 -2.2466  1.0226
  438MOL0     H57765   0.837   7.319   4.095 -0.4115 -2.1999  2.3351
  438MOL0     H57766   0.694   7.321   4.177  2.0524  0.1095  0.2112
  438MOL0     H57767   0.783   7.090   4.070  1.8333 -0.5064 -4.0355
  438MOL0     H57768   0.768   7.165   3.923  0.6046 -0.8527  0.6002
  438MOL0     H57769   0.512   7.144   4.210 -0.0495  0.0077 -0.3789
  438MOL0     H57770   0.175   7.027   4.068 -0.7858  0.7812 -0.1891
  438MOL0     H57771   0.240   7.108   4.206 -1.6981  1.7351 -1.8321
  438MOL0     H57772   0.317   6.948   4.319  3.5430  3.8245 -2.5168
  438MOL0     H57773   0.352   6.846   4.180 -1.1957 -0.3834 -1.4285
  438MOL0     H57774   0.131   6.796   4.135 -1.4830 -0.1906  0.6488
  438MOL0     H57775   0.152   6.750   4.308 -3.9212 -0.5708  1.7343
  438MOL0     H57776   0.024   7.010   4.271 -0.6501 -0.5600 -1.4088
  438MOL0     H57777   0.028   6.899   4.404  1.8521  0.1396 -0.1689
  438MOL0     H57778  -0.287   6.702   4.119  0.7717  0.2722 -0.0461
  438MOL0     H57779  -0.376   6.496   4.182 -2.1343  1.3475  2.2578
  438MOL0     H57780  -0.629   6.246   4.254 -1.8177 -1.5505  0.5752
  438MOL0     H57781  -0.711   6.027   4.200 -0.6065  0.2172  0.9131
  438MOL0     H57782  -0.397   5.731   4.166 -0.2950  0.5782 -0.5309
  438MOL0     H57783  -0.542   5.655   4.100 -2.6111  0.6879  1.6827
  438MOL0     H57784  -0.411   5.611   4.370 -1.1270 -1.9722  2.6575
  438MOL0     H57785  -0.458   5.492   4.235 -2.1157 -0.3573 -2.0368
  438MOL0     H57786  -0.695   5.548   4.293  1.1079  0.8143 -0.7565
  438MOL0     H57787  -0.638   5.655   4.424 -0.7669 -0.2162  0.8603
  438MOL0     H57788  -0.591   5.355   4.375 -0.7260 -0.5252  1.0755
  438MOL0     H57789  -0.510   5.438   4.511  0.5367  4.3067 -0.7915
  438MOL0     H57790  -0.741   5.471   4.619 -0.5330 -1.5016  0.3791
  438MOL0     H57791  -0.720   5.305   4.584 -2.2037 -0.8471 -0.7979
  438MOL0     H57792  -0.845   5.333   4.373  1.0607 -1.5821  2.4943
  438MOL0     H57793  -0.877   5.510   4.423 -1.0482  0.3562  1.0259
  438MOL0     H57794  -0.995   5.445   4.606  0.0306  3.1837 -2.8602
  438MOL0     H57795  -1.075   5.374   4.465 -0.4853  0.3673  0.2317
  438MOL0     H57796  -0.933   5.190   4.638  1.7164  1.1937 -1.9336
  438MOL0     H57797  -1.041   5.168   4.501  2.9385 -0.5702  0.2615
  438MOL0     H57798  -0.342   5.845   4.356  0.9715  0.1386 -0.4547
  438MOL0     H57799  -0.254   6.067   4.378  1.0209 -1.3284 -3.3627
  438MOL0     H57800  -0.114   6.487   4.528 -4.2337  1.1978  1.6575
  438MOL0     H57801  -0.010   6.688   4.454 -1.8235  2.1084  2.3034
  438MOL0     H57802   0.012   7.257   4.252 -2.9737 -1.4588  3.7231
  438MOL0     H57803  -0.089   7.272   4.477 -0.1726 -1.2660 -2.7578
  438MOL0     H57804  -0.047   7.557   4.906  0.5657 -1.9500 -4.7109
  438MOL0     H57805  -0.088   7.542   5.147 -0.4475  0.3951  0.6842
  438MOL0     H57806  -0.075   7.485   5.348 -2.4448  1.3478 -0.3501
  438MOL0     H57807  -0.147   7.371   5.469  1.9114  0.9268  0.7010
  438MOL0     H57808  -0.299   7.590   5.448 -1.7975 -0.5933  0.9108
  438MOL0     H57809  -0.305   7.558   5.277  2.2333 -1.7761 -1.0326
  438MOL0     H57810  -0.394   7.346   5.472  0.8414  0.6245  0.8487
  438MOL0     H57811  -0.411   7.363   5.297  0.2007 -1.1040  0.7684
  438MOL0     H57812  -0.517   7.530   5.540 -1.4766 -0.3314  0.9971
  438MOL0     H57813  -0.551   7.588   5.384  3.3940  2.1305  2.5179
  438MOL0     H57814  -0.851   7.292   5.435 -0.2694  0.2250 -0.1998
  438MOL0     H57815  -0.127   7.112   5.116  1.2791  0.0657  1.2027
  438MOL0     H57816  -0.086   7.125   4.882 -3.4968  0.6074 -0.4760
  439MOL0     O57817   5.570   1.060   6.022 -0.3135  0.4160 -0.3832
  439MOL0     C57818   5.672   1.066   6.092 -0.5987  0.3115 -0.2720
  439MOL0     O57819   5.783   1.142   6.060 -0.3386 -0.6030  0.0331
  439MOL0     C57820   5.770   1.223   5.951  0.1089 -0.1213  0.8576
  439MOL0     C57821   5.665   1.319   5.943 -1.1531 -0.3887  0.2206
  439MOL0     C57822   5.660   1.405   5.832 -0.2702  0.0000  0.4759
  439MOL0     C57823   5.739   1.387   5.720  0.1385  0.6709  0.6357
  439MOL0     O57824   5.709   1.474   5.623  0.1534  0.1630  0.6299
  439MOL0     C57825   5.807   1.471   5.507 -0.6466  0.3682 -0.2352
  439MOL0     C57826   5.937   1.523   5.550  0.4042 -0.0914  0.2559
  439MOL0     C57827   6.032   1.514   5.441  0.1844  0.8054  0.3625
  439MOL0     C57828   6.159   1.584   5.478 -0.0976  0.0319  0.2699
  439MOL0     C57829   6.257   1.599   5.367 -0.3317 -0.1542 -0.4782
  439MOL0     C57830   6.287   1.478   5.269  0.6634 -0.7967 -0.5446
  439MOL0     C57831   6.407   1.522   5.183 -0.4370  0.6172 -0.1743
  439MOL0     C57832   6.403   1.446   5.051  0.0223  0.4400 -0.2707
  439MOL0     N57833   6.514   1.459   4.962  0.0444 -0.3314 -0.6746
  439MOL0     C57834   6.641   1.397   4.979 -0.4657  0.6390 -0.1041
  439MOL0     C57835   6.728   1.443   4.878  0.1896  0.0267  0.8961
  439MOL0     C57836   6.869   1.407   4.872  0.4775  1.0765  0.6609
  439MOL0     C57837   6.958   1.491   4.778  0.1068  0.6546  0.4278
  439MOL0     C57838   7.097   1.431   4.767  0.5277  0.1619 -1.0374
  439MOL0     C57839   7.165   1.427   4.634  0.7525 -0.4158 -0.5247
  439MOL0     O57840   7.086   1.360   4.527 -0.3828  0.0843 -0.9370
  439MOL0     C57841   7.165   1.332   4.418 -0.7606 -0.4607 -0.0521
  439MOL0     C57842   7.272   1.421   4.376  0.1763  0.0293 -0.0305
  439MOL0     C57843   7.354   1.378   4.270  0.0768 -0.1893  0.0831
  439MOL0     C57844   7.328   1.261   4.197  0.2698 -1.0430 -0.4644
  439MOL0     C57845   7.414   1.214   4.088  1.0407 -0.0242  0.1345
  439MOL0     O57846   7.545   1.256   4.093 -0.5058 -0.0629 -0.8961
  439MOL0     C57847   7.619   1.279   3.986 -1.1832 -0.2663  0.8325
  439MOL0     C57848   7.601   1.239   3.854  0.1296  0.2520 -0.1391
  439MOL0     C57849   7.685   1.273   3.752 -0.2330  0.4169  0.3858
  439MOL0     C57850   7.797   1.351   3.770  0.5114 -0.0529 -0.4669
  439MOL0     O57851   7.877   1.370   3.666 -0.2104 -0.5603  0.6369
  439MOL0     C57852   7.994   1.442   3.697 -0.2859  0.1491 -0.8890
  439MOL0     C57853   8.047   1.490   3.559  0.1268  0.1192  0.2877
  439MOL0     C57854   8.181   1.569   3.578 -1.2126  0.6027 -0.4732
  439MOL0     C57855   8.305   1.483   3.572 -0.5445  0.6354  1.0423
  439MOL0     C57856   8.426   1.571   3.562 -0.6522  0.0658  0.1637
  439MOL0     C57857   8.551   1.480   3.564  0.8331  0.0561  0.4660
  439MOL0     C57858   8.679   1.570   3.549 -0.6520  0.1254 -0.8745
  439MOL0     C57859   8.754   1.563   3.674 -1.0851  0.0650 -0.0137
  439MOL0    Cl57860   8.799   1.390   3.698  0.2307 -0.1121  0.2121
  439MOL0     C57861   7.813   1.398   3.904 -0.7300 -0.1632  0.0777
  439MOL0     C57862   7.730   1.362   4.010  0.7526  0.7276  0.1178
  439MOL0     O57863   7.378   1.115   4.028  0.5881 -0.3023 -0.3768
  439MOL0     C57864   7.225   1.185   4.242 -0.2746  0.0411 -0.0490
  439MOL0     C57865   7.139   1.218   4.345  1.2942  0.6049  0.0262
  439MOL0     N57866   6.645   1.511   4.793  0.2490  0.2457 -0.1555
  439MOL0     N57867   6.525   1.526   4.849 -0.1593  0.1940  0.1756
  439MOL0     C57868   5.828   1.274   5.727 -0.2128  0.2897 -1.1159
  439MOL0     C57869   5.849   1.203   5.846  0.4328  0.0939 -0.5483
  439MOL0     C57870   5.661   1.021   6.229  0.7598  0.3831 -0.0712
  439MOL0     C57871   5.573   0.915   6.262  0.6669 -0.1296  0.1206
  439MOL0     C57872   5.567   0.881   6.397  0.2464 -0.2340  0.1361
  439MOL0     C57873   5.633   0.943   6.498 -0.4393 -0.7505  0.3337
  439MOL0     O57874   5.600   0.930   6.628  0.4117 -0.3821  0.1048
  439MOL0     C57875   5.514   0.823   6.675  0.4023 -0.4375 -0.6772
  439MOL0     C57876   5.526   0.817   6.829 -0.1471 -0.7541 -0.3397
  439MOL0     C57877   5.672   0.792   6.877  0.0318  0.2089  0.0854
  439MOL0     C57878   5.685   0.755   7.022 -0.3087  0.2396 -0.2809
  439MOL0     C57879   5.828   0.767   7.058  0.4815  0.4815  0.3440
  439MOL0     C57880   5.947   0.767   7.086 -1.1438  0.1125 -0.2336
  439MOL0     C57881   5.731   1.041   6.466 -0.4514  0.6840 -0.2806
  439MOL0     C57882   5.749   1.068   6.331  0.3020  0.3922 -0.4747
  439MOL0     H57883   5.585   1.329   6.017 -0.4619 -1.5537  1.1798
  439MOL0     H57884   5.586   1.483   5.819 -0.1032 -0.0548 -0.9685
  439MOL0     H57885   5.763   1.528   5.425  1.9034  0.0271 -1.9726
  439MOL0     H57886   5.823   1.369   5.469 -0.0355 -0.2673  1.5801
  439MOL0     H57887   5.968   1.455   5.629  1.6721 -1.1344 -1.0711
  439MOL0     H57888   5.927   1.628   5.579 -0.4246 -0.1749  0.3052
  439MOL0     H57889   5.984   1.559   5.354 -2.5440  2.8812  2.7486
  439MOL0     H57890   6.064   1.411   5.423 -4.4661 -1.0619  1.5218
  439MOL0     H57891   6.134   1.686   5.508  1.6811  0.0607  1.8321
  439MOL0     H57892   6.209   1.537   5.564  1.6951  1.0844 -0.1451
  439MOL0     H57893   6.352   1.635   5.407  0.7481  2.7514 -4.9965
  439MOL0     H57894   6.236   1.684   5.302  2.6232  0.2503 -1.0266
  439MOL0     H57895   6.199   1.462   5.206  0.4472 -0.7018 -0.2721
  439MOL0     H57896   6.309   1.393   5.335  1.2146  0.9073  1.5870
  439MOL0     H57897   6.387   1.625   5.150  0.5875  0.0473 -2.8835
  439MOL0     H57898   6.505   1.524   5.232 -0.1598 -1.3894 -0.5624
  439MOL0     H57899   6.302   1.466   5.013  0.1050 -0.2159 -0.8445
  439MOL0     H57900   6.414   1.339   5.070  0.4214  0.0358 -2.5641
  439MOL0     H57901   6.676   1.335   5.060 -1.0556 -1.1598 -1.1649
  439MOL0     H57902   6.856   1.311   4.822 -1.9558  0.4772  2.2659
  439MOL0     H57903   6.902   1.400   4.976 -1.1518 -0.8863  1.1117
  439MOL0     H57904   6.951   1.595   4.811  2.5336 -0.5193  5.6337
  439MOL0     H57905   6.915   1.473   4.679  2.2687  0.1867 -0.4806
  439MOL0     H57906   7.160   1.487   4.836  1.3507 -0.3384 -1.3751
  439MOL0     H57907   7.084   1.326   4.793 -1.1428  0.3234 -1.1215
  439MOL0     H57908   7.263   1.383   4.651  0.9142 -1.1314 -2.9483
  439MOL0     H57909   7.174   1.532   4.605 -3.0231  0.2452  0.1743
  439MOL0     H57910   7.296   1.515   4.424 -1.4804  0.2126  0.4759
  439MOL0     H57911   7.436   1.447   4.253 -0.0610 -0.3627 -1.4192
  439MOL0     H57912   7.524   1.166   3.832  1.7283 -1.2755 -0.9997
  439MOL0     H57913   7.665   1.239   3.651 -3.5067  2.7213  0.0825
  439MOL0     H57914   8.072   1.374   3.735 -3.0502 -2.6592  0.1725
  439MOL0     H57915   7.972   1.538   3.743 -0.0775 -1.2559  2.4368
  439MOL0     H57916   7.972   1.554   3.510  0.1255 -0.3524 -0.3397
  439MOL0     H57917   8.073   1.403   3.498  0.1627  1.5826 -1.9140
  439MOL0     H57918   8.189   1.617   3.676 -2.5069 -2.0210  1.0319
  439MOL0     H57919   8.196   1.639   3.494  1.5054 -1.4352 -1.8303
  439MOL0     H57920   8.329   1.413   3.653  1.5038  0.6127  0.4703
  439MOL0     H57921   8.307   1.425   3.479  1.2142 -1.2345  2.1765
  439MOL0     H57922   8.414   1.634   3.651 -3.3046 -2.5256  1.8333
  439MOL0     H57923   8.413   1.637   3.476 -0.8271 -0.1820 -0.0009
  439MOL0     H57924   8.551   1.414   3.478  0.6086 -0.6465  0.9978
  439MOL0     H57925   8.549   1.421   3.656 -2.4278 -0.8029 -0.0410
  439MOL0     H57926   8.746   1.532   3.472  0.6372  1.8901 -0.6810
  439MOL0     H57927   8.667   1.675   3.519  3.1772  1.9758  2.9318
  439MOL0     H57928   8.698   1.606   3.758  2.4729 -0.7845  3.0664
  439MOL0     H57929   8.840   1.630   3.664 -0.9173 -0.0272  0.7118
  439MOL0     H57930   7.894   1.462   3.936  0.3294 -2.7459  3.1199
  439MOL0     H57931   7.737   1.396   4.112 -2.5401 -0.1100  0.7349
  439MOL0     H57932   7.206   1.100   4.177 -3.4454  2.8656 -3.3470
  439MOL0     H57933   7.060   1.148   4.370  1.6985 -0.0376 -0.4817
  439MOL0     H57934   5.873   1.248   5.631 -1.7163 -0.2584 -1.6934
  439MOL0     H57935   5.921   1.122   5.837  0.9638  0.7903 -3.2513
  439MOL0     H57936   5.511   0.865   6.188  1.6790 -0.9859 -0.1760
  439MOL0     H57937   5.480   0.816   6.406 -2.0492  2.0456 -3.0598
  439MOL0     H57938   5.533   0.731   6.619  1.4164 -0.4008 -0.4218
  439MOL0     H57939   5.410   0.843   6.648  0.6698  0.7539 -0.9065
  439MOL0     H57940   5.487   0.913   6.863 -0.7416  0.6467 -4.5008
  439MOL0     H57941   5.464   0.736   6.869 -2.2977  0.8654 -0.2746
  439MOL0     H57942   5.736   0.879   6.864 -0.1575  0.6788  1.9632
  439MOL0     H57943   5.723   0.718   6.814 -1.3362 -0.0266 -0.7798
  439MOL0     H57944   5.631   0.822   7.089  0.3242  0.4553  0.0231
  439MOL0     H57945   5.638   0.657   7.036  2.8559 -1.4465 -0.6176
  439MOL0     H57946   6.051   0.777   7.108 -1.4215 -0.3434  1.4390
  439MOL0     H57947   5.771   1.098   6.548 -0.7621 -1.2431  1.2730
  439MOL0     H57948   5.831   1.137   6.315 -2.3360  3.6630 -0.9553
  440MOL0     O57949   5.847   7.143   2.635 -0.0934  0.3533  0.1196
  440MOL0     C57950   5.885   7.080   2.534  0.0801 -0.6278  0.0988
  440MOL0     O57951   6.006   7.013   2.529  0.3001 -0.3947 -0.1349
  440MOL0     C57952   6.103   7.043   2.612 -0.2677 -0.3058 -1.0288
  440MOL0     C57953   6.192   7.149   2.583 -0.0316 -0.0101 -1.1525
  440MOL0     C57954   6.302   7.182   2.670 -0.2034  1.1017 -0.4779
  440MOL0     C57955   6.318   7.110   2.795  0.5581 -0.0841  0.2412
  440MOL0     O57956   6.413   7.131   2.884 -0.1235  0.6808 -0.3920
  440MOL0     C57957   6.529   7.212   2.847  0.5452 -0.2901  0.0249
  440MOL0     C57958   6.511   7.353   2.902 -0.1476  0.1301 -1.1155
  440MOL0     C57959   6.446   7.351   3.043 -0.5704 -0.1469  0.9610
  440MOL0     C57960   6.282   7.368   3.043 -0.1655  0.4709 -0.2053
  440MOL0     C57961   6.240   7.434   3.185 -0.2859 -0.4270 -0.0486
  440MOL0     C57962   6.235   7.598   3.162  0.2749 -1.4443  0.4282
  440MOL0     C57963   6.172   7.671   3.283 -0.3644 -0.3160  0.6968
  440MOL0     C57964   6.169   7.823   3.262 -0.1139  0.6905  0.4189
  440MOL0     N57965   6.047   7.876   3.191  0.5560 -0.5048 -0.2769
  440MOL0     C57966   5.923   7.907   3.245 -0.8445  0.2349  0.1914
  440MOL0     C57967   5.854   7.980   3.141  0.6879 -1.4465  0.0420
  440MOL0     C57968   5.710   8.024   3.145  0.0327 -0.1269  0.9970
  440MOL0     C57969   5.670   8.093   3.012 -0.3115 -0.8789 -0.3514
  440MOL0     C57970   5.744   8.226   2.991  1.3174  0.8322 -0.0321
  440MOL0     C57971   5.718   8.276   2.851 -0.1534  0.1311 -0.8802
  440MOL0     O57972   5.578   8.287   2.825 -0.6873  0.0597  0.1498
  440MOL0     C57973   5.542   8.255   2.695 -0.5779 -0.5808  1.0043
  440MOL0     C57974   5.599   8.318   2.579 -0.2567 -0.0113  0.1231
  440MOL0     C57975   5.551   8.282   2.451  0.9865  0.5552  0.1545
  440MOL0     C57976   5.450   8.182   2.435 -0.2044  0.2212  0.1285
  440MOL0     C57977   5.426   8.120   2.303  0.8965  0.8658 -0.2864
  440MOL0     O57978   5.335   8.013   2.302  0.1473 -1.0580  0.3099
  440MOL0     C57979   5.319   7.922   2.196  0.3020  0.6187  0.0032
  440MOL0     C57980   5.341   7.948   2.062 -0.6870  0.4938 -0.0864
  440MOL0     C57981   5.332   7.845   1.977 -0.5860 -0.3781  0.2091
  440MOL0     C57982   5.309   7.716   2.015 -0.5815 -0.6964  0.6475
  440MOL0     O57983   5.326   7.619   1.915 -0.5009  0.4054 -0.6410
  440MOL0     C57984   5.394   7.503   1.955 -0.5237  0.2307  0.4210
  440MOL0     C57985   5.487   7.464   1.837 -0.3754  0.5651 -0.5095
  440MOL0     C57986   5.601   7.569   1.829 -0.6337  0.5678 -0.7411
  440MOL0     C57987   5.701   7.529   1.717  0.6257 -0.1873 -0.7112
  440MOL0     C57988   5.821   7.617   1.731 -0.2505  0.2534 -0.8009
  440MOL0     C57989   5.951   7.585   1.651 -0.4991 -0.0367  0.1798
  440MOL0     C57990   6.064   7.674   1.682 -1.3824 -0.0140  0.1648
  440MOL0     C57991   6.182   7.656   1.595  1.1432  0.3061 -0.6393
  440MOL0    Cl57992   6.254   7.491   1.620  0.1335 -0.3179 -0.0201
  440MOL0     C57993   5.269   7.689   2.146  0.2026  0.2502  0.0783
  440MOL0     C57994   5.269   7.794   2.235 -0.8675 -0.0322  0.5037
  440MOL0     O57995   5.492   8.157   2.207 -0.4211 -0.6831 -0.3847
  440MOL0     C57996   5.407   8.114   2.552  0.6899 -1.1347 -0.6525
  440MOL0     C57997   5.446   8.157   2.679 -0.2904  0.4444 -0.0544
  440MOL0     N57998   5.938   7.990   3.037 -0.9530 -0.2807 -0.9888
  440MOL0     N57999   6.051   7.931   3.069  0.0173  0.8270 -0.8473
  440MOL0     C58000   6.233   6.997   2.815  0.1740 -0.5455 -0.2227
  440MOL0     C58001   6.137   6.961   2.723 -0.2259 -0.3952  0.4431
  440MOL0     C58002   5.789   7.053   2.420  0.2186  0.2109  0.3185
  440MOL0     C58003   5.649   7.057   2.435 -0.1240 -0.9871 -0.5602
  440MOL0     C58004   5.561   7.034   2.329 -0.6445 -0.7611 -0.0476
  440MOL0     C58005   5.610   7.009   2.210 -0.1814 -0.2325 -0.1245
  440MOL0     O58006   5.518   6.999   2.109 -0.3500 -0.1594 -0.0354
  440MOL0     C58007   5.547   6.915   1.994 -0.2192 -0.6024 -0.3954
  440MOL0     C58008   5.586   6.771   2.013  0.3634 -0.0295 -0.1224
  440MOL0     C58009   5.473   6.694   2.084  0.1617 -0.3103 -0.0102
  440MOL0     C58010   5.483   6.549   2.066 -0.0899  0.4649  0.0052
  440MOL0     C58011   5.620   6.490   2.078 -0.5079  0.1346 -0.3826
  440MOL0     C58012   5.728   6.440   2.102 -0.8349 -0.2432 -0.3785
  440MOL0     C58013   5.751   7.006   2.185 -0.1709 -0.7295  0.3691
  440MOL0     C58014   5.840   7.020   2.287 -0.2711 -0.3471 -0.6368
  440MOL0     H58015   6.188   7.198   2.487  4.8793  3.0274 -0.1734
  440MOL0     H58016   6.372   7.255   2.630 -0.3448 -0.5776 -4.1463
  440MOL0     H58017   6.554   7.217   2.740  1.1430 -3.0224 -0.0375
  440MOL0     H58018   6.620   7.177   2.896  0.8864  1.5202  0.7382
  440MOL0     H58019   6.461   7.418   2.830 -2.1266  2.4015  2.0431
  440MOL0     H58020   6.618   7.378   2.908  0.0266  0.4342 -3.9729
  440MOL0     H58021   6.486   7.424   3.113  1.6585 -2.3150  2.0840
  440MOL0     H58022   6.477   7.257   3.089 -0.1353 -0.5633 -0.1396
  440MOL0     H58023   6.258   7.439   2.964 -1.8277  0.5572  0.3348
  440MOL0     H58024   6.221   7.280   3.024 -2.3180  2.1323 -1.3745
  440MOL0     H58025   6.310   7.406   3.265 -1.5472  1.3349  1.7629
  440MOL0     H58026   6.138   7.405   3.211 -0.8695  0.1630 -1.5966
  440MOL0     H58027   6.181   7.638   3.075 -1.0478 -0.6745  1.5474
  440MOL0     H58028   6.341   7.625   3.156  0.1436 -1.2374 -1.8421
  440MOL0     H58029   6.067   7.641   3.276 -0.6898  1.0537 -1.1923
  440MOL0     H58030   6.218   7.636   3.376  0.3984 -3.9243 -0.8873
  440MOL0     H58031   6.264   7.852   3.216  0.2122  1.7424  1.7069
  440MOL0     H58032   6.169   7.866   3.363  1.7438 -0.9730  1.1743
  440MOL0     H58033   5.881   7.867   3.337 -0.7834 -0.6715 -0.1649
  440MOL0     H58034   5.706   8.089   3.233  3.6930  0.8416  0.6141
  440MOL0     H58035   5.648   7.935   3.158 -1.0907  0.5726  0.5611
  440MOL0     H58036   5.562   8.111   3.012 -0.5634 -2.2147 -1.4525
  440MOL0     H58037   5.672   8.017   2.933  1.9334 -2.3203  1.0029
  440MOL0     H58038   5.699   8.291   3.066 -0.7864 -1.0779  0.4825
  440MOL0     H58039   5.853   8.217   3.001  1.7443  0.2241 -3.7105
  440MOL0     H58040   5.775   8.209   2.784  0.2437  0.6934 -1.1118
  440MOL0     H58041   5.761   8.376   2.854  3.0806 -1.1189  2.3446
  440MOL0     H58042   5.665   8.402   2.594 -1.4245  1.1637 -0.9683
  440MOL0     H58043   5.591   8.335   2.366  4.4346  0.8946  1.8327
  440MOL0     H58044   5.362   8.051   2.035 -1.7227  0.1737 -2.3453
  440MOL0     H58045   5.342   7.871   1.872  0.3735  2.5159  0.9037
  440MOL0     H58046   5.328   7.416   1.945  0.7061 -0.5446 -1.5767
  440MOL0     H58047   5.445   7.501   2.052  0.8200  1.8391 -0.2179
  440MOL0     H58048   5.441   7.451   1.738  2.0089  1.5974 -1.8574
  440MOL0     H58049   5.523   7.365   1.867 -0.7294 -0.4730 -3.1718
  440MOL0     H58050   5.647   7.559   1.928 -0.7090 -1.2171 -0.8666
  440MOL0     H58051   5.554   7.663   1.797 -2.9251 -0.0235  0.6885
  440MOL0     H58052   5.726   7.422   1.720 -3.9053 -1.4780 -0.7911
  440MOL0     H58053   5.657   7.554   1.621  0.3609  5.2434  0.5206
  440MOL0     H58054   5.850   7.629   1.836  0.5736 -1.0669 -0.8502
  440MOL0     H58055   5.805   7.721   1.702  3.0203  0.7308 -1.3350
  440MOL0     H58056   5.936   7.607   1.545  1.3681  1.3273  0.1283
  440MOL0     H58057   5.967   7.477   1.656 -1.2729 -0.1064  1.9789
  440MOL0     H58058   6.033   7.778   1.665 -2.2002  0.0551  1.8961
  440MOL0     H58059   6.105   7.669   1.783  2.0982 -2.6077 -1.1671
  440MOL0     H58060   6.257   7.732   1.617  0.3671  0.7715  0.5329
  440MOL0     H58061   6.148   7.672   1.493 -5.1320 -1.0110  0.7790
  440MOL0     H58062   5.243   7.587   2.174  0.8142  0.1722  0.3950
  440MOL0     H58063   5.249   7.765   2.337  0.9178 -1.6886  0.4441
  440MOL0     H58064   5.340   8.029   2.546  0.9208 -1.5106  1.3123
  440MOL0     H58065   5.388   8.126   2.766 -2.4463  0.8860 -1.2468
  440MOL0     H58066   6.245   6.940   2.906  2.3500 -1.0299 -0.7394
  440MOL0     H58067   6.085   6.866   2.723 -1.8347  0.4442  0.0195
  440MOL0     H58068   5.607   7.079   2.533  0.7481 -2.4709  0.1869
  440MOL0     H58069   5.455   7.032   2.354 -0.0522 -0.4496  2.8775
  440MOL0     H58070   5.632   6.960   1.941 -0.3791 -0.7954 -0.8275
  440MOL0     H58071   5.459   6.910   1.929  0.5246 -2.5988 -1.3628
  440MOL0     H58072   5.626   6.732   1.920 -0.7645 -0.5825 -0.3872
  440MOL0     H58073   5.671   6.761   2.082 -0.9413 -0.5797  1.4881
  440MOL0     H58074   5.375   6.723   2.044  0.7919  2.4994  0.2584
  440MOL0     H58075   5.464   6.725   2.189  0.9082 -0.6569  0.1563
  440MOL0     H58076   5.414   6.501   2.136  0.5037  1.6836  1.4964
  440MOL0     H58077   5.447   6.526   1.965 -2.9287 -0.5838  1.1524
  440MOL0     H58078   5.825   6.396   2.113 -0.1094  0.6334 -2.7523
  440MOL0     H58079   5.789   6.965   2.092  1.2615  0.4601  0.3922
  440MOL0     H58080   5.946   6.999   2.279 -0.1736 -1.0169  1.6088
  441MOL0     O58081  10.628   3.213   1.956 -0.8751  0.6872 -0.3996
  441MOL0     C58082  10.523   3.275   1.995 -0.5117 -0.0368  0.4725
  441MOL0     O58083  10.524   3.409   2.046  0.3257 -0.0581 -0.1243
  441MOL0     C58084  10.637   3.473   2.087  0.0738 -0.1306  0.2323
  441MOL0     C58085  10.761   3.467   2.013  0.5703 -0.0117 -0.1569
  441MOL0     C58086  10.878   3.547   2.038 -0.0609 -0.0590  0.1225
  441MOL0     C58087  10.873   3.644   2.137  0.5199 -0.1680 -0.0996
  441MOL0     O58088  10.972   3.732   2.149 -0.6036  0.5763 -0.0093
  441MOL0     C58089  10.985   3.787   2.283  1.3566 -0.1589 -0.9386
  441MOL0     C58090  10.916   3.926   2.293 -0.3648  0.0680 -0.0428
  441MOL0     C58091  10.900   3.954   2.443 -0.6568 -0.5161 -0.8423
  441MOL0     C58092  11.025   3.984   2.522 -0.3641  0.9829  0.8114
  441MOL0     C58093  10.997   4.042   2.650  0.1325  0.6376  0.8071
  441MOL0     C58094  11.122   4.083   2.742  1.3130  0.2174 -0.7575
  441MOL0     C58095  11.082   4.137   2.875 -0.9609 -0.6002  0.1563
  441MOL0     C58096  11.041   4.030   2.970  0.2388 -0.2467 -0.3017
  441MOL0     N58097  10.961   4.081   3.083 -0.5749  0.0090 -0.4250
  441MOL0     C58098  10.987   4.184   3.173 -0.0036  0.1935 -0.2841
  441MOL0     C58099  10.883   4.181   3.256 -0.7186  0.2651  0.5749
  441MOL0     C58100  10.862   4.277   3.359 -0.6259 -1.4863  0.2426
  441MOL0     C58101  10.777   4.221   3.477 -0.4214 -0.0684  0.0557
  441MOL0     C58102  10.772   4.323   3.590 -0.8383  1.2432  0.3690
  441MOL0     C58103  10.659   4.316   3.691 -1.2155 -1.1004  0.5479
  441MOL0     O58104  10.656   4.441   3.764  0.7212 -0.0590 -0.0927
  441MOL0     C58105  10.553   4.461   3.855 -1.0631 -0.5965  0.0881
  441MOL0     C58106  10.421   4.445   3.819  0.2071 -1.1331  0.5990
  441MOL0     C58107  10.312   4.494   3.894  0.8007 -0.3856  0.6681
  441MOL0     C58108  10.335   4.557   4.014  0.4705  0.5692  1.2238
  441MOL0     C58109  10.233   4.613   4.092  1.0086 -0.7682 -0.3407
  441MOL0     O58110  10.269   4.736   4.150  0.6058  0.4912  0.1315
  441MOL0     C58111  10.173   4.817   4.203 -0.0676  0.1449  0.1990
  441MOL0     C58112  10.038   4.833   4.149 -0.2873 -0.2058  0.8257
  441MOL0     C58113   9.946   4.907   4.218  0.1300 -0.3730  0.5012
  441MOL0     C58114   9.986   4.991   4.334 -0.2692 -0.0950  1.1553
  441MOL0     O58115   9.901   5.060   4.418 -0.3536 -0.2151  0.9022
  441MOL0     C58116   9.836   5.174   4.359  0.2339 -0.1969  0.7378
  441MOL0     C58117   9.837   5.292   4.444  0.0998  0.2893 -0.5138
  441MOL0     C58118   9.807   5.251   4.594 -0.1661  0.7754  0.1732
  441MOL0     C58119   9.768   5.386   4.665 -0.4497  0.0391  0.8334
  441MOL0     C58120   9.860   5.496   4.683  0.2282  0.1976  0.1837
  441MOL0     C58121   9.973   5.461   4.788  0.2938  0.9409  1.2689
  441MOL0     C58122  10.062   5.579   4.803 -0.2899  0.1866 -0.7451
  441MOL0     C58123  10.182   5.556   4.890  0.2066 -0.5948 -0.5896
  441MOL0    Cl58124  10.216   5.707   4.932 -0.1521 -0.0855  0.0598
  441MOL0     C58125  10.126   4.999   4.367  0.3805  0.6591 -0.4421
  441MOL0     C58126  10.219   4.903   4.308 -0.6034 -0.7021 -0.2944
  441MOL0     O58127  10.121   4.560   4.104 -0.1365  0.1102 -0.4948
  441MOL0     C58128  10.476   4.575   4.054  0.3221  0.0299 -0.6908
  441MOL0     C58129  10.581   4.535   3.975  0.4677  0.2651 -0.1199
  441MOL0     N58130  10.803   4.071   3.229  0.5274  0.5886  0.8410
  441MOL0     N58131  10.857   4.011   3.128  0.3192  0.4412  0.6727
  441MOL0     C58132  10.755   3.650   2.216  0.4786  0.0635 -0.6134
  441MOL0     C58133  10.641   3.566   2.196 -0.8031 -0.2771  0.2601
  441MOL0     C58134  10.385   3.214   1.978 -0.6569 -0.2585  0.2836
  441MOL0     C58135  10.357   3.079   1.944  0.0948 -0.4811 -0.1049
  441MOL0     C58136  10.227   3.037   1.911  0.1215  0.9070 -0.3594
  441MOL0     C58137  10.111   3.121   1.920 -0.8473  0.3043 -0.0565
  441MOL0     O58138   9.986   3.064   1.902  0.4825  1.0118  0.4832
  441MOL0     C58139   9.879   3.149   1.937 -0.0185 -1.7268 -0.8115
  441MOL0     C58140   9.748   3.080   1.898  0.0345 -0.8671  0.2450
  441MOL0     C58141   9.638   3.184   1.841 -1.0533 -0.8547  0.1644
  441MOL0     C58142   9.531   3.114   1.748  0.1578  0.0295 -0.3817
  441MOL0     C58143   9.445   3.204   1.673  0.3627 -0.4598  1.1678
  441MOL0     C58144   9.383   3.287   1.604  0.1089  0.9123 -0.6992
  441MOL0     C58145  10.139   3.251   1.963 -0.6384 -0.6602  0.7326
  441MOL0     C58146  10.273   3.294   1.990  0.0148 -0.6022 -0.6214
  441MOL0     H58147  10.757   3.399   1.928 -0.6506 -1.0010  0.6501
  441MOL0     H58148  10.962   3.531   1.971 -0.7173  2.7026 -1.5325
  441MOL0     H58149  11.088   3.788   2.320  1.1736  1.2476 -0.4274
  441MOL0     H58150  10.946   3.713   2.354  4.9992 -2.0964 -0.6881
  441MOL0     H58151  10.818   3.939   2.247 -1.2062 -0.3898  1.5274
  441MOL0     H58152  10.983   4.004   2.257  4.8066 -2.8374  2.0602
  441MOL0     H58153  10.860   3.860   2.480  1.9668 -1.9038 -1.3219
  441MOL0     H58154  10.831   4.036   2.467 -1.8738 -2.2559  2.1329
  441MOL0     H58155  11.075   3.886   2.520 -2.6953 -0.2971  1.9639
  441MOL0     H58156  11.092   4.041   2.456  0.1008 -0.0501  0.3564
  441MOL0     H58157  10.932   3.975   2.708  2.2418  0.1471  2.7677
  441MOL0     H58158  10.944   4.137   2.635  1.6377  1.6377  1.5508
  441MOL0     H58159  11.176   4.161   2.687  0.6046  0.2007 -1.4894
  441MOL0     H58160  11.182   3.994   2.762 -0.0408 -0.4908  0.3041
  441MOL0     H58161  11.175   4.173   2.921 -0.8733 -0.3375 -0.2155
  441MOL0     H58162  11.005   4.214   2.870 -2.6150 -2.1463  0.6326
  441MOL0     H58163  11.136   3.989   3.005 -0.0829 -1.1036 -0.4102
  441MOL0     H58164  10.984   3.951   2.919  0.7797 -0.5183 -0.5003
  441MOL0     H58165  11.070   4.253   3.170  0.4370 -0.3784 -2.0643
  441MOL0     H58166  10.824   4.373   3.322  0.9349 -0.0889  2.0151
  441MOL0     H58167  10.956   4.313   3.401 -1.4512  0.6007  0.4276
  441MOL0     H58168  10.824   4.126   3.502  0.1954  0.2653  0.1745
  441MOL0     H58169  10.674   4.206   3.444 -1.6339  3.1504  1.8996
  441MOL0     H58170  10.863   4.315   3.651 -0.2250  2.1204 -0.4171
  441MOL0     H58171  10.774   4.423   3.546 -3.0434  0.4029 -1.8806
  441MOL0     H58172  10.671   4.228   3.756  0.5323 -0.9350  0.5082
  441MOL0     H58173  10.574   4.292   3.626  0.2647 -0.8737 -1.5745
  441MOL0     H58174  10.405   4.408   3.718 -0.3018  0.1866  0.1712
  441MOL0     H58175  10.209   4.493   3.858  0.3963  1.6360  1.6431
  441MOL0     H58176  10.021   4.775   4.059  0.8921 -0.4901  0.7656
  441MOL0     H58177   9.840   4.906   4.196  0.0524  2.5972  0.4440
  441MOL0     H58178   9.735   5.148   4.324  0.1994 -3.2990  2.7755
  441MOL0     H58179   9.893   5.196   4.269  0.5688 -1.2021  0.6917
  441MOL0     H58180   9.765   5.363   4.404 -0.2318 -0.2806 -0.9482
  441MOL0     H58181   9.933   5.344   4.451  0.8704  0.0706 -5.6019
  441MOL0     H58182   9.901   5.209   4.630 -1.7690 -1.5516  1.9415
  441MOL0     H58183   9.729   5.174   4.596 -3.3983  3.7229 -1.4680
  441MOL0     H58184   9.679   5.422   4.615  1.3952  1.7080 -1.4624
  441MOL0     H58185   9.733   5.362   4.766 -0.3113 -2.1671  0.4144
  441MOL0     H58186   9.804   5.578   4.729  1.0543  0.7975  0.1385
  441MOL0     H58187   9.899   5.530   4.587 -2.8937  2.4270 -0.4358
  441MOL0     H58188  10.028   5.379   4.740 -1.2817 -0.2141  1.3422
  441MOL0     H58189   9.927   5.438   4.885 -3.0660 -2.0717 -0.8047
  441MOL0     H58190  10.086   5.607   4.700 -0.1976 -1.0227 -1.0619
  441MOL0     H58191  10.002   5.663   4.840  1.1092 -0.5355  3.7661
  441MOL0     H58192  10.256   5.514   4.822 -1.8332 -2.2277 -1.8988
  441MOL0     H58193  10.154   5.488   4.971 -3.4624  0.6084 -0.6484
  441MOL0     H58194  10.144   5.048   4.462 -1.0695  1.3928 -0.5127
  441MOL0     H58195  10.321   4.887   4.341  0.1782  1.8927 -1.2401
  441MOL0     H58196  10.487   4.622   4.151 -0.4800 -0.9929 -0.0795
  441MOL0     H58197  10.685   4.565   3.988  0.6457 -0.2976 -0.2525
  441MOL0     H58198  10.734   3.711   2.303 -3.0507  2.2183 -2.7076
  441MOL0     H58199  10.546   3.586   2.243 -0.3289  0.7418  0.8175
  441MOL0     H58200  10.433   3.003   1.954 -0.7683 -1.3812 -0.1957
  441MOL0     H58201  10.203   2.937   1.877 -3.1449  1.6339 -0.5468
  441MOL0     H58202   9.885   3.236   1.871 -0.4720  0.4873  1.8791
  441MOL0     H58203   9.873   3.187   2.039  1.7057 -0.2905 -1.1839
  441MOL0     H58204   9.770   3.017   1.812 -1.0907 -0.1945 -0.5591
  441MOL0     H58205   9.709   3.033   1.988 -2.0378  1.5554  0.7432
  441MOL0     H58206   9.696   3.263   1.794 -2.2698  1.0548  1.7183
  441MOL0     H58207   9.600   3.251   1.918  2.5971  1.8634 -0.1599
  441MOL0     H58208   9.584   3.044   1.683 -1.3159 -0.2050 -1.3597
  441MOL0     H58209   9.478   3.049   1.817  2.1825 -0.5660  0.6879
  441MOL0     H58210   9.314   3.357   1.560 -1.3352  0.4575  0.7401
  441MOL0     H58211  10.060   3.322   1.984 -1.3400 -0.1359 -2.9166
  441MOL0     H58212  10.294   3.395   2.025  2.8025 -1.5667  0.7482
  442MOL0     O58213  10.956   0.553  10.836 -0.5903 -0.4112  0.1532
  442MOL0     C58214  10.984   0.656  10.770 -0.0507  0.2363  0.8980
  442MOL0     O58215  10.892   0.752  10.730 -0.1435  0.6023  0.0660
  442MOL0     C58216  10.770   0.764  10.791  0.6532  0.2625  0.3703
  442MOL0     C58217  10.688   0.658  10.843 -0.2843 -0.0432  0.0814
  442MOL0     C58218  10.560   0.688  10.887  0.1809 -0.7615 -0.3727
  442MOL0     C58219  10.510   0.819  10.888  0.0893 -0.0470  0.4725
  442MOL0     O58220  10.378   0.862  10.905 -0.4612  0.1191 -0.3659
  442MOL0     C58221  10.284   0.813  10.809 -0.1755 -1.3713 -0.3086
  442MOL0     C58222  10.214   0.693  10.881 -0.4509 -0.5267  0.4078
  442MOL0     C58223  10.102   0.632  10.795  0.2129 -0.1188  0.7078
  442MOL0     C58224  10.050   0.497  10.851 -0.2150  0.0437 -0.4431
  442MOL0     C58225   9.933   0.460  10.757  0.6494 -0.1303 -0.4465
  442MOL0     C58226   9.802   0.541  10.749  0.4703 -0.8803 -0.7766
  442MOL0     C58227   9.712   0.530  10.872  0.0699 -0.0931 -0.4773
  442MOL0     C58228   9.721   0.665  10.943 -0.2232  0.4573  1.1329
  442MOL0     N58229   9.657   0.661  11.077  0.7460 -0.8468  0.4615
  442MOL0     C58230   9.682   0.750  11.180  0.0114  0.4269 -0.0544
  442MOL0     C58231   9.608   0.724  11.284  0.2654 -0.3856  0.9693
  442MOL0     C58232   9.590   0.828  11.397  0.6756 -0.0639  0.2070
  442MOL0     C58233   9.657   0.784  11.525 -0.6303 -0.9356  0.2460
  442MOL0     C58234   9.601   0.864  11.640 -1.2508  0.1177  0.4380
  442MOL0     C58235   9.682   0.885  11.763 -0.1335 -0.2148 -0.4116
  442MOL0     O58236   9.757   0.771  11.804 -1.0893  0.4894 -1.4941
  442MOL0     C58237   9.708   0.657  11.848 -0.6593  0.6443 -0.5463
  442MOL0     C58238   9.571   0.632  11.846  1.2631  0.0198 -1.1938
  442MOL0     C58239   9.519   0.514  11.891 -0.0255  0.6145  0.1779
  442MOL0     C58240   9.609   0.414  11.938  0.6558 -0.2312 -0.0643
  442MOL0     C58241   9.551   0.283  11.989 -0.0721 -0.3124 -0.1018
  442MOL0     O58242   9.419   0.292  12.018  0.7783 -0.2954  0.5584
  442MOL0     C58243   9.356   0.181  12.069 -0.6470 -0.2130 -0.1465
  442MOL0     C58244   9.394   0.041  12.064  0.6557  0.2356  0.3196
  442MOL0     C58245   9.318  -0.052  12.134 -0.5290 -0.3499  0.0582
  442MOL0     C58246   9.202  -0.011  12.217  1.3662  0.2012 -0.3445
  442MOL0     O58247   9.135  -0.108  12.299  0.4988 -0.3373 -0.4131
  442MOL0     C58248   9.214  -0.188  12.388 -0.2674 -0.1772  0.0444
  442MOL0     C58249   9.147  -0.321  12.429 -0.0986 -0.1881 -0.3962
  442MOL0     C58250   9.002  -0.302  12.457 -0.1874 -0.1395  0.0734
  442MOL0     C58251   8.985  -0.198  12.567  0.3726  0.1386 -0.3497
  442MOL0     C58252   9.044  -0.238  12.703 -0.3844  0.0456 -0.4603
  442MOL0     C58253   8.968  -0.177  12.834  0.4252  1.2325  0.5417
  442MOL0     C58254   8.826  -0.241  12.859  0.4335 -0.6605 -1.1562
  442MOL0     C58255   8.757  -0.215  12.997  0.8094  0.3082  0.3490
  442MOL0    Cl58256   8.589  -0.243  12.975  0.0516  0.5697 -0.3018
  442MOL0     C58257   9.161   0.118  12.208 -0.2214 -0.0288  0.3900
  442MOL0     C58258   9.232   0.213  12.133 -0.8353 -0.2494  0.6796
  442MOL0     O58259   9.626   0.192  11.999 -0.5059  0.4620  0.5474
  442MOL0     C58260   9.746   0.445  11.940 -0.5950 -0.2441  0.0781
  442MOL0     C58261   9.797   0.567  11.898 -0.3385  0.0220  0.6620
  442MOL0     N58262   9.526   0.621  11.245 -0.1993  0.1586  0.2701
  442MOL0     N58263   9.558   0.575  11.129  0.2203 -0.8041 -0.6414
  442MOL0     C58264  10.587   0.924  10.843  0.0613 -0.5007 -0.2199
  442MOL0     C58265  10.718   0.892  10.807  0.5473 -0.5788  0.0884
  442MOL0     C58266  11.121   0.679  10.726 -0.1473 -0.3650  0.7296
  442MOL0     C58267  11.207   0.577  10.710 -0.5433 -0.5120  1.3193
  442MOL0     C58268  11.344   0.596  10.680  0.6393 -0.3495 -0.5377
  442MOL0     C58269  11.391   0.723  10.658  0.1048 -0.7322 -0.7112
  442MOL0     O58270  11.535   0.733  10.657 -0.2289  0.0309  0.0073
  442MOL0     C58271  11.581   0.845  10.595 -0.1432  0.0205 -0.2149
  442MOL0     C58272  11.738   0.834  10.560  0.1580  0.3965  0.4955
  442MOL0     C58273  11.835   0.827  10.676 -0.7468  0.1118 -0.3884
  442MOL0     C58274  11.971   0.814  10.631 -0.5266  0.2536  0.0837
  442MOL0     C58275  11.981   0.676  10.583 -0.7900 -0.3727  0.9178
  442MOL0     C58276  12.006   0.570  10.535  0.4585 -0.4083  0.1689
  442MOL0     C58277  11.303   0.831  10.652  0.6848 -0.6669 -0.0812
  442MOL0     C58278  11.164   0.807  10.678  0.1885  0.1385  0.1826
  442MOL0     H58279  10.718   0.554  10.848  2.6700  0.6279 -1.0299
  442MOL0     H58280  10.495   0.611  10.926 -0.4409 -1.5145 -2.7296
  442MOL0     H58281  10.345   0.770  10.729  2.4534  0.8560  0.3632
  442MOL0     H58282  10.220   0.896  10.780  2.5948  0.7002 -0.9119
  442MOL0     H58283  10.174   0.725  10.977  0.5232  0.4054  0.5219
  442MOL0     H58284  10.284   0.611  10.903  0.0522 -0.6599 -1.4947
  442MOL0     H58285  10.137   0.600  10.696  0.6771  1.2358  0.4116
  442MOL0     H58286  10.034   0.716  10.779 -0.6387 -0.6876  1.2488
  442MOL0     H58287  10.133   0.425  10.856  0.1379  0.4994  0.5115
  442MOL0     H58288  10.018   0.515  10.954 -0.5812  3.5702 -1.0584
  442MOL0     H58289   9.894   0.364  10.791 -1.3411 -0.3922 -3.1426
  442MOL0     H58290   9.971   0.445  10.656 -1.1540 -0.9346 -1.0585
  442MOL0     H58291   9.751   0.484  10.671  2.0964 -3.0214 -0.3610
  442MOL0     H58292   9.799   0.644  10.713 -2.2135 -0.8566 -0.7026
  442MOL0     H58293   9.610   0.492  10.860 -0.6438  0.6325  2.3378
  442MOL0     H58294   9.753   0.457  10.942  1.8970 -2.0872 -3.4206
  442MOL0     H58295   9.680   0.752  10.891 -1.0324 -1.0575 -0.8845
  442MOL0     H58296   9.828   0.685  10.947  0.6875 -3.1506 -0.8991
  442MOL0     H58297   9.764   0.821  11.179 -0.6590  1.2156  0.1233
  442MOL0     H58298   9.482   0.833  11.413  0.3207 -1.9492 -1.2868
  442MOL0     H58299   9.618   0.930  11.368 -0.5796 -0.1486 -1.4500
  442MOL0     H58300   9.763   0.807  11.505  0.1860 -1.4860  3.3870
  442MOL0     H58301   9.632   0.679  11.539 -3.8676 -0.3709 -0.5618
  442MOL0     H58302   9.588   0.967  11.606  2.0500  0.8456  1.0889
  442MOL0     H58303   9.497   0.837  11.659 -1.9424  2.7004  0.6440
  442MOL0     H58304   9.621   0.904  11.852  0.7251  3.2373 -0.4231
  442MOL0     H58305   9.752   0.969  11.762  0.1690 -0.2871  2.7757
  442MOL0     H58306   9.500   0.706  11.810  2.5650  2.6510  1.1583
  442MOL0     H58307   9.412   0.498  11.887  0.2671 -1.6384  0.0573
  442MOL0     H58308   9.486   0.006  12.019  0.8308  0.3286  0.6048
  442MOL0     H58309   9.347  -0.155  12.122  0.1556 -0.1743  0.1907
  442MOL0     H58310   9.257  -0.134  12.473  0.3136 -1.0748  0.3250
  442MOL0     H58311   9.299  -0.221  12.328 -1.8560  2.3517 -4.0395
  442MOL0     H58312   9.194  -0.369  12.515 -1.9447 -2.5341 -0.6093
  442MOL0     H58313   9.159  -0.390  12.345  0.4628  0.2561 -0.6863
  442MOL0     H58314   8.963  -0.393  12.505  0.9532  0.1522  1.6387
  442MOL0     H58315   8.950  -0.271  12.366 -3.2248  0.7173  1.9604
  442MOL0     H58316   9.015  -0.094  12.551  1.4578  0.2463  1.9709
  442MOL0     H58317   8.876  -0.192  12.572  0.2447 -1.0260 -1.2851
  442MOL0     H58318   9.145  -0.196  12.710 -1.6287  3.4008 -0.7928
  442MOL0     H58319   9.046  -0.347  12.718  0.9822  0.2306  0.9658
  442MOL0     H58320   8.950  -0.069  12.824 -0.0932  1.0267 -1.0326
  442MOL0     H58321   9.029  -0.197  12.922 -0.3456  0.3741  0.8942
  442MOL0     H58322   8.754  -0.206  12.784  0.7018 -2.2178 -2.1963
  442MOL0     H58323   8.836  -0.345  12.828 -0.2753 -0.5025 -1.9566
  442MOL0     H58324   8.759  -0.111  13.031 -0.4322  1.6365 -3.1508
  442MOL0     H58325   8.786  -0.277  13.082  0.3042  1.3000  1.2708
  442MOL0     H58326   9.070   0.153  12.257  0.0503 -1.0396  1.6617
  442MOL0     H58327   9.201   0.316  12.125 -0.8680 -0.1374  2.0191
  442MOL0     H58328   9.811   0.365  11.976 -2.0826 -2.8710 -2.6364
  442MOL0     H58329   9.901   0.600  11.898  0.0270 -0.9521  3.2155
  442MOL0     H58330  10.555   1.026  10.821  2.0784 -0.6289 -4.8081
  442MOL0     H58331  10.782   0.972  10.770 -0.4262  0.4683  0.6068
  442MOL0     H58332  11.176   0.475  10.729  0.3778 -1.0756 -0.0787
  442MOL0     H58333  11.409   0.511  10.664  1.4899  0.0995  0.4240
  442MOL0     H58334  11.553   0.924  10.665 -1.7227  0.8660 -1.7148
  442MOL0     H58335  11.519   0.874  10.509  1.7968  4.1143 -0.4450
  442MOL0     H58336  11.753   0.746  10.497 -0.3314  0.9724 -0.4522
  442MOL0     H58337  11.750   0.917  10.490  0.7619  1.6416  2.0193
  442MOL0     H58338  11.815   0.745  10.745  1.3788 -0.2337 -0.1105
  442MOL0     H58339  11.822   0.922  10.730 -2.3950 -0.4406  0.2410
  442MOL0     H58340  11.990   0.890  10.555  0.2282  0.8133  0.8178
  442MOL0     H58341  12.034   0.836  10.717 -1.7706  0.5978  0.9423
  442MOL0     H58342  12.020   0.474  10.489 -1.1508  0.0467 -1.4065
  442MOL0     H58343  11.326   0.934  10.626  1.1852 -0.5540  0.7729
  442MOL0     H58344  11.102   0.895  10.670 -0.4442 -0.0388  2.4235
  443MOL0     O58345   9.545   1.326   3.475  0.3962  0.1442  0.2607
  443MOL0     C58346   9.512   1.265   3.372  0.8284 -0.4493 -0.3908
  443MOL0     O58347   9.494   1.128   3.368 -0.2551 -0.3061  1.0181
  443MOL0     C58348   9.542   1.050   3.467  0.4004  0.1982  0.7518
  443MOL0     C58349   9.461   0.942   3.519  0.8031 -0.4170 -0.2619
  443MOL0     C58350   9.504   0.854   3.611 -0.4414 -0.4219 -1.3011
  443MOL0     C58351   9.632   0.871   3.670  0.1527 -0.1243 -0.3595
  443MOL0     O58352   9.680   0.799   3.782 -0.3110  0.6235 -0.6623
  443MOL0     C58353   9.595   0.698   3.835 -0.4559 -0.7012  0.2893
  443MOL0     C58354   9.597   0.557   3.761  0.1239  0.7661  0.6787
  443MOL0     C58355   9.732   0.479   3.781 -0.5457 -0.1991 -0.1476
  443MOL0     C58356   9.715   0.331   3.771 -0.1482 -0.0694 -0.4021
  443MOL0     C58357   9.841   0.241   3.758 -0.2223  0.2480  0.6311
  443MOL0     C58358   9.924   0.260   3.884  0.2779  0.3353 -0.6417
  443MOL0     C58359  10.041   0.160   3.880  1.1972 -0.4973  0.2677
  443MOL0     C58360  10.132   0.176   3.996  0.8415  0.2418  0.2357
  443MOL0     N58361  10.105   0.126   4.134  0.3020 -0.3432 -0.6045
  443MOL0     C58362  10.083  -0.005   4.170 -0.7525  1.2828  0.0822
  443MOL0     C58363  10.030   0.011   4.293 -1.0493 -0.3428 -0.1066
  443MOL0     C58364   9.981  -0.098   4.380 -0.3286  0.3267  0.7602
  443MOL0     C58365  10.018  -0.244   4.350  0.6888  0.0357 -0.4882
  443MOL0     C58366   9.915  -0.302   4.253 -0.3926  0.2603  1.6020
  443MOL0     C58367   9.775  -0.328   4.314  0.0140 -0.1703  0.3500
  443MOL0     O58368   9.699  -0.407   4.223  0.3879 -0.3291 -0.2287
  443MOL0     C58369   9.669  -0.363   4.096  0.4413 -1.0981  0.8161
  443MOL0     C58370   9.663  -0.230   4.055 -0.1967  0.4413 -0.5276
  443MOL0     C58371   9.651  -0.194   3.925 -0.3917 -0.9402  0.1693
  443MOL0     C58372   9.613  -0.297   3.834 -0.3524 -0.5240 -0.4309
  443MOL0     C58373   9.577  -0.257   3.702 -0.2184  0.1922 -0.6174
  443MOL0     O58374   9.572  -0.118   3.673  0.3362  1.1132  1.0517
  443MOL0     C58375   9.545  -0.074   3.543 -0.6538 -0.2803 -1.1949
  443MOL0     C58376   9.583  -0.138   3.418 -0.0201 -0.0366 -1.4549
  443MOL0     C58377   9.559  -0.068   3.301 -0.4435  0.1284  0.3530
  443MOL0     C58378   9.505   0.061   3.293  0.1708 -0.5055 -0.1254
  443MOL0     O58379   9.494   0.138   3.186 -0.2767 -0.0676 -0.1608
  443MOL0     C58380   9.573   0.107   3.076  0.0993  0.0212  0.0988
  443MOL0     C58381   9.578   0.221   2.974 -0.0366 -0.0259 -0.0948
  443MOL0     C58382   9.432   0.261   2.932 -0.0794 -0.3658 -0.2523
  443MOL0     C58383   9.438   0.417   2.900  0.4084  0.1365  0.3968
  443MOL0     C58384   9.305   0.480   2.852 -0.1972 -0.2729 -0.0464
  443MOL0     C58385   9.251   0.424   2.722  0.5153 -0.0724 -0.1511
  443MOL0     C58386   9.132   0.510   2.671 -0.0921  0.3369 -0.7795
  443MOL0     C58387   9.046   0.425   2.587 -0.0982  0.7385  0.6579
  443MOL0    Cl58388   8.913   0.520   2.505 -0.2270 -0.5642 -0.3342
  443MOL0     C58389   9.453   0.108   3.417 -0.6594 -0.6497  0.2504
  443MOL0     C58390   9.468   0.042   3.540  0.9364  0.1851  0.5522
  443MOL0     O58391   9.548  -0.348   3.624  0.4670  0.2335 -0.3062
  443MOL0     C58392   9.603  -0.431   3.883  1.2295 -0.0207 -0.0316
  443MOL0     C58393   9.634  -0.465   4.009 -0.4136 -0.3219  0.9100
  443MOL0     N58394  10.013   0.140   4.316 -0.2288 -0.2705  0.0981
  443MOL0     N58395  10.058   0.209   4.224 -0.2373 -0.0987  1.1250
  443MOL0     C58396   9.711   0.977   3.630 -0.2938  0.4606  0.9404
  443MOL0     C58397   9.668   1.072   3.532 -0.0022  0.3247 -0.1781
  443MOL0     C58398   9.491   1.343   3.242  0.5480 -0.3844  0.2350
  443MOL0     C58399   9.501   1.277   3.120 -0.5704 -0.3277  0.6398
  443MOL0     C58400   9.490   1.352   2.997 -1.0337  0.6265 -1.5343
  443MOL0     C58401   9.483   1.493   2.999 -0.4855 -0.7089  0.3152
  443MOL0     O58402   9.456   1.575   2.886  0.6136  0.3617  0.3038
  443MOL0     C58403   9.405   1.516   2.769  0.0111  0.6530 -0.5161
  443MOL0     C58404   9.371   1.619   2.656 -1.0682 -0.4141  0.2765
  443MOL0     C58405   9.262   1.719   2.685 -0.8276  0.6600  0.7006
  443MOL0     C58406   9.125   1.661   2.725  0.3714  0.2727 -0.5177
  443MOL0     C58407   9.065   1.588   2.614  0.3937  0.8494  0.1102
  443MOL0     C58408   9.020   1.531   2.516  0.2292 -0.1988 -0.1701
  443MOL0     C58409   9.498   1.557   3.121 -0.1131 -0.1794 -0.3756
  443MOL0     C58410   9.491   1.493   3.248 -0.7033  0.1673  0.5896
  443MOL0     H58411   9.354   0.962   3.513  1.0837  1.4572  0.3925
  443MOL0     H58412   9.434   0.783   3.655 -2.3273  3.0043  1.8362
  443MOL0     H58413   9.495   0.734   3.857 -0.3908 -0.8315  0.8359
  443MOL0     H58414   9.636   0.676   3.935 -1.9220 -0.3398  0.9878
  443MOL0     H58415   9.552   0.547   3.661 -0.2983 -2.5144  1.0949
  443MOL0     H58416   9.529   0.498   3.822  2.2363 -2.6034  0.0191
  443MOL0     H58417   9.762   0.499   3.884 -3.0029  1.0493  0.4118
  443MOL0     H58418   9.804   0.504   3.703 -0.2973  0.1715  0.2022
  443MOL0     H58419   9.662   0.284   3.855 -0.2385 -2.4156 -1.6783
  443MOL0     H58420   9.646   0.314   3.688  1.4670 -1.2958 -1.5494
  443MOL0     H58421   9.895   0.277   3.670 -2.2448  1.1285 -0.3367
  443MOL0     H58422   9.806   0.138   3.744  0.4846  0.1506 -0.4930
  443MOL0     H58423   9.859   0.236   3.969  0.2842 -0.5696 -0.8876
  443MOL0     H58424   9.959   0.364   3.895  4.6774 -1.1439  2.1097
  443MOL0     H58425  10.000   0.060   3.898 -2.1118  0.8343  0.7807
  443MOL0     H58426  10.082   0.168   3.779 -2.5526  4.1301 -1.2511
  443MOL0     H58427  10.151   0.283   4.005  2.3931  0.1234 -1.1302
  443MOL0     H58428  10.229   0.139   3.961  1.5112  2.5025 -0.4781
  443MOL0     H58429  10.098  -0.098   4.117 -3.3191 -0.7552  2.6064
  443MOL0     H58430   9.873  -0.087   4.365 -0.0420 -0.2358 -2.4988
  443MOL0     H58431   9.999  -0.071   4.485 -0.0794 -1.8627  1.3188
  443MOL0     H58432  10.016  -0.291   4.449  0.6107 -0.2234 -0.6123
  443MOL0     H58433  10.117  -0.247   4.304  0.0158  2.9313 -2.3845
  443MOL0     H58434   9.896  -0.237   4.167  2.0518 -0.9493  0.0161
  443MOL0     H58435   9.957  -0.396   4.215  2.3908  2.0987 -0.2902
  443MOL0     H58436   9.722  -0.232   4.322 -1.9394 -1.0937 -0.8448
  443MOL0     H58437   9.786  -0.386   4.405  0.9530 -2.1998 -0.9852
  443MOL0     H58438   9.674  -0.158   4.135  1.2347 -1.3308  0.9470
  443MOL0     H58439   9.666  -0.096   3.881 -0.2479 -1.8462 -1.9841
  443MOL0     H58440   9.626  -0.237   3.408 -0.8612 -0.6733  0.7249
  443MOL0     H58441   9.590  -0.108   3.205 -2.2163  0.3276 -0.3595
  443MOL0     H58442   9.542   0.014   3.028 -0.5483  0.2191  0.1129
  443MOL0     H58443   9.674   0.088   3.112  1.4456  0.7552 -2.9382
  443MOL0     H58444   9.632   0.191   2.883 -3.0937  0.5024 -2.2681
  443MOL0     H58445   9.633   0.308   3.010  3.0232 -1.1447 -1.7396
  443MOL0     H58446   9.367   0.247   3.019 -1.9018  2.1078 -1.1106
  443MOL0     H58447   9.392   0.209   2.844  0.6384  1.0740 -1.4792
  443MOL0     H58448   9.448   0.467   2.996 -1.2156  1.1918  0.0454
  443MOL0     H58449   9.519   0.443   2.831 -1.0268 -1.0934 -1.8830
  443MOL0     H58450   9.306   0.589   2.851 -0.0410 -0.1062  3.4548
  443MOL0     H58451   9.232   0.465   2.932 -2.6118  2.5248 -1.5155
  443MOL0     H58452   9.208   0.324   2.734  0.4378 -0.1976 -1.3562
  443MOL0     H58453   9.325   0.407   2.644 -0.0953 -3.2503 -0.1795
  443MOL0     H58454   9.073   0.549   2.754 -0.3356 -2.1783  0.3332
  443MOL0     H58455   9.161   0.593   2.606  1.4072  1.0401  0.7228
  443MOL0     H58456   9.010   0.353   2.661  1.0003  0.4220  0.9010
  443MOL0     H58457   9.093   0.364   2.509 -1.1487  0.9072 -0.1259
  443MOL0     H58458   9.407   0.206   3.427  3.0640  1.0740  2.5762
  443MOL0     H58459   9.433   0.100   3.625  0.3915  1.6842 -0.6329
  443MOL0     H58460   9.578  -0.509   3.812  1.1306  1.5143 -1.7489
  443MOL0     H58461   9.653  -0.567   4.041  1.1504 -0.0427  0.9715
  443MOL0     H58462   9.805   0.994   3.681 -0.2148 -0.5426  1.1527
  443MOL0     H58463   9.738   1.147   3.497  1.5163  0.4918  2.9228
  443MOL0     H58464   9.515   1.170   3.110  2.3025  0.1817 -3.2086
  443MOL0     H58465   9.502   1.305   2.900  2.2954  3.0715 -2.5030
  443MOL0     H58466   9.315   1.460   2.798 -0.4559  0.5479 -2.0914
  443MOL0     H58467   9.484   1.450   2.734  0.8740  0.1632  2.1302
  443MOL0     H58468   9.463   1.678   2.649 -1.5187  0.4206  1.1778
  443MOL0     H58469   9.341   1.570   2.563  0.8347  1.0363 -1.1797
  443MOL0     H58470   9.249   1.786   2.599  1.6840  0.7295  0.2930
  443MOL0     H58471   9.294   1.774   2.774 -1.7342  1.6689  0.4250
  443MOL0     H58472   9.108   1.607   2.819 -3.3776  0.8551 -0.7269
  443MOL0     H58473   9.056   1.745   2.740  0.8167  0.3771  1.1445
  443MOL0     H58474   8.980   1.480   2.431  0.0297 -1.2258  0.5152
  443MOL0     H58475   9.494   1.666   3.120  0.9006  0.0485  3.2499
  443MOL0     H58476   9.497   1.552   3.339  1.7392 -1.6195  1.7095
  444MOL0     O58477   0.251   8.669   3.214 -0.3065  0.1415  0.4222
  444MOL0     C58478   0.311   8.688   3.322 -0.4840 -0.1325 -0.9465
  444MOL0     O58479   0.314   8.808   3.389  0.1159  0.1346 -0.0507
  444MOL0     C58480   0.250   8.908   3.331 -0.1865 -0.7619  0.9388
  444MOL0     C58481   0.128   8.955   3.384  0.4565 -1.2775  0.2684
  444MOL0     C58482   0.056   9.066   3.330  0.4164  0.1580 -0.0938
  444MOL0     C58483   0.111   9.125   3.216  0.1284  1.0448  0.4126
  444MOL0     O58484   0.058   9.233   3.143 -0.7921 -0.4136  0.2562
  444MOL0     C58485  -0.073   9.287   3.162  0.0166 -0.0974 -0.1326
  444MOL0     C58486  -0.110   9.408   3.072  0.2949  0.1686 -0.3973
  444MOL0     C58487   0.004   9.506   3.079  1.0361 -1.0495  0.2450
  444MOL0     C58488  -0.028   9.614   2.974  0.7550  0.9669  0.3938
  444MOL0     C58489   0.074   9.729   2.969 -0.0792 -1.2687  0.0363
  444MOL0     C58490   0.036   9.856   2.886 -0.1061  0.0767 -0.8568
  444MOL0     C58491   0.146   9.961   2.889 -0.9686 -0.2885  0.1779
  444MOL0     C58492   0.169  10.031   3.024  0.5383  0.2563  0.3497
  444MOL0     N58493   0.250  10.159   3.018 -0.6062 -0.1502 -0.1247
  444MOL0     C58494   0.355  10.174   2.929  0.3536  0.1641  0.0419
  444MOL0     C58495   0.417  10.287   2.977  0.9351  0.2011 -0.4053
  444MOL0     C58496   0.553  10.347   2.936  0.7209  0.0062  0.3265
  444MOL0     C58497   0.558  10.488   2.869  0.2862 -0.3660 -0.3445
  444MOL0     C58498   0.582  10.602   2.977  0.1244 -0.4620 -0.4049
  444MOL0     C58499   0.596  10.741   2.903  1.2750  1.1998 -0.2595
  444MOL0     O58500   0.499  10.823   2.958  0.3536 -0.2812 -0.6095
  444MOL0     C58501   0.486  10.961   2.929  0.5631  0.4892  0.1584
  444MOL0     C58502   0.418  11.043   3.023 -0.3949  0.2465  0.3524
  444MOL0     C58503   0.407  11.178   2.998  0.0056  0.3143 -0.0457
  444MOL0     C58504   0.465  11.235   2.886 -0.3519  0.1054  0.6368
  444MOL0     C58505   0.421  11.372   2.850  0.6131  0.2492  0.5280
  444MOL0     O58506   0.328  11.433   2.934 -0.2602 -0.5934 -0.0819
  444MOL0     C58507   0.296  11.570   2.920  0.0805 -0.2433 -0.6615
  444MOL0     C58508   0.217  11.610   2.814  0.3417  1.3928  0.1791
  444MOL0     C58509   0.154  11.734   2.815 -0.6812 -0.2239  0.4895
  444MOL0     C58510   0.186  11.823   2.914  0.8965 -0.4116 -0.2284
  444MOL0     O58511   0.129  11.948   2.913  0.2051  0.4441 -0.2280
  444MOL0     C58512   0.147  12.027   2.795 -0.4989  0.6961 -0.8339
  444MOL0     C58513   0.078  12.161   2.831  0.4614  0.1330  0.5355
  444MOL0     C58514  -0.079  12.171   2.850 -0.4284  0.4001 -0.3297
  444MOL0     C58515  -0.130  12.312   2.882  0.0700 -0.7028  0.0689
  444MOL0     C58516  -0.282  12.343   2.867  0.2746  0.2467 -0.4251
  444MOL0     C58517  -0.329  12.291   2.730  0.6263  0.0338 -0.0970
  444MOL0     C58518  -0.457  12.367   2.687  0.0286 -0.6690 -0.6473
  444MOL0     C58519  -0.572  12.287   2.633 -0.5203  0.5306  0.3375
  444MOL0    Cl58520  -0.528  12.165   2.509  0.3943 -0.6434 -0.4548
  444MOL0     C58521   0.271  11.794   3.019  0.2044  0.3741  0.4466
  444MOL0     C58522   0.326  11.666   3.023  0.1508 -0.1779 -0.3871
  444MOL0     O58523   0.483  11.432   2.762 -0.0584  0.0499  0.3532
  444MOL0     C58524   0.516  11.150   2.795  0.7623  0.0825  0.2261
  444MOL0     C58525   0.533  11.013   2.810 -0.2782 -0.3998  0.2217
  444MOL0     N58526   0.342  10.337   3.079 -0.1548 -0.3910  0.2352
  444MOL0     N58527   0.246  10.260   3.110 -0.1625 -0.1017  0.1401
  444MOL0     C58528   0.235   9.086   3.167 -0.3391 -0.7152 -0.3913
  444MOL0     C58529   0.310   8.978   3.224  0.2422 -0.4157 -0.3439
  444MOL0     C58530   0.373   8.580   3.404 -0.0235  0.5386  0.6047
  444MOL0     C58531   0.394   8.597   3.535  0.4599  0.6087  0.3936
  444MOL0     C58532   0.457   8.505   3.610 -0.5821  0.3890  0.0560
  444MOL0     C58533   0.500   8.382   3.561  0.4100  0.3326  0.3039
  444MOL0     O58534   0.549   8.291   3.646 -0.1476  0.3026 -0.0658
  444MOL0     C58535   0.674   8.245   3.605  0.2009 -0.3305 -0.5238
  444MOL0     C58536   0.751   8.210   3.737 -0.5727 -0.4199  0.0187
  444MOL0     C58537   0.678   8.108   3.834  0.3642 -0.2083  0.5760
  444MOL0     C58538   0.666   7.970   3.768 -0.2633 -0.0732  0.0702
  444MOL0     C58539   0.797   7.908   3.753 -0.3762 -0.6926 -0.6246
  444MOL0     C58540   0.914   7.862   3.733  0.7816 -0.2362 -0.5410
  444MOL0     C58541   0.465   8.358   3.424 -1.1653 -0.5758 -0.4914
  444MOL0     C58542   0.410   8.457   3.346  0.2209 -0.7161 -0.3659
  444MOL0     H58543   0.094   8.899   3.470  0.1771 -0.0841  0.9516
  444MOL0     H58544  -0.034   9.101   3.379 -0.8684 -2.9952  0.0876
  444MOL0     H58545  -0.070   9.325   3.265 -2.0836 -2.6181  0.9737
  444MOL0     H58546  -0.146   9.207   3.146 -0.4189  0.6948 -2.4407
  444MOL0     H58547  -0.206   9.450   3.103  0.8159  0.7331  0.4953
  444MOL0     H58548  -0.116   9.384   2.966 -1.4588  1.7897 -0.7168
  444MOL0     H58549   0.099   9.455   3.058  1.0359 -1.8172  1.9507
  444MOL0     H58550  -0.002   9.546   3.180 -0.3119 -0.0537 -0.2096
  444MOL0     H58551  -0.020   9.563   2.877 -0.4596 -0.1666  0.8736
  444MOL0     H58552  -0.129   9.656   2.974  1.0388  1.9795 -2.7093
  444MOL0     H58553   0.172   9.710   2.924 -0.7132  2.6898 -3.6912
  444MOL0     H58554   0.085   9.781   3.064  0.5167  2.9009 -2.0596
  444MOL0     H58555  -0.051   9.914   2.918 -1.9187 -2.7259 -0.3516
  444MOL0     H58556   0.017   9.818   2.785 -0.8830  1.8275 -1.4077
  444MOL0     H58557   0.238   9.934   2.837 -1.8550  0.2521 -1.7589
  444MOL0     H58558   0.124  10.049   2.828 -2.9904  0.2200  1.5350
  444MOL0     H58559   0.209   9.964   3.100  0.9775  1.4661  1.2187
  444MOL0     H58560   0.069  10.052   3.060  1.4932  1.4978  2.4702
  444MOL0     H58561   0.399  10.113   2.851 -1.0440 -0.1079 -0.5749
  444MOL0     H58562   0.598  10.273   2.869 -0.4545 -0.1566 -0.3127
  444MOL0     H58563   0.621  10.357   3.021  1.1325  1.0539 -0.1146
  444MOL0     H58564   0.454  10.496   2.836 -0.3606  1.3187  1.9483
  444MOL0     H58565   0.632  10.488   2.788 -0.5180  0.1127 -1.0949
  444MOL0     H58566   0.494  10.614   3.041  0.7609  0.3822  0.3232
  444MOL0     H58567   0.675  10.582   3.030  0.8509  1.0223 -1.0524
  444MOL0     H58568   0.579  10.737   2.795 -0.9667  1.4029  0.0315
  444MOL0     H58569   0.698  10.780   2.915  1.4358  0.4740  0.8126
  444MOL0     H58570   0.369  10.992   3.106 -1.1371 -0.1725 -0.3331
  444MOL0     H58571   0.365  11.235   3.081 -3.6807 -0.3176 -1.2902
  444MOL0     H58572   0.197  11.541   2.732  0.3867  1.0995  0.4154
  444MOL0     H58573   0.089  11.765   2.733  0.7869  0.5412 -0.4394
  444MOL0     H58574   0.097  11.972   2.715 -1.2918  0.1600  0.0176
  444MOL0     H58575   0.254  12.035   2.772  0.1262 -1.9765  0.6905
  444MOL0     H58576   0.084  12.226   2.743 -1.2058 -2.4181 -1.6698
  444MOL0     H58577   0.137  12.205   2.911  2.4017 -0.6895 -0.3739
  444MOL0     H58578  -0.119  12.104   2.926 -3.4381  0.2105 -1.9077
  444MOL0     H58579  -0.131  12.149   2.756 -1.8686 -1.4006  0.8401
  444MOL0     H58580  -0.092  12.331   2.983 -1.7358 -1.2909  0.9040
  444MOL0     H58581  -0.082  12.389   2.821  1.7598 -1.9952 -0.3017
  444MOL0     H58582  -0.284  12.452   2.874 -0.6853  0.2565 -0.8032
  444MOL0     H58583  -0.348  12.300   2.943 -1.5300  1.8027 -1.0587
  444MOL0     H58584  -0.348  12.183   2.732 -0.9218  0.2916  0.4931
  444MOL0     H58585  -0.249  12.299   2.657 -1.0042  0.2976 -1.9280
  444MOL0     H58586  -0.496  12.414   2.778  2.6452  1.0740 -0.3227
  444MOL0     H58587  -0.435  12.448   2.616 -2.1219 -1.9235 -2.9386
  444MOL0     H58588  -0.638  12.363   2.590 -0.9882 -1.1786 -2.2308
  444MOL0     H58589  -0.625  12.228   2.708 -0.7533  0.2506 -0.0395
  444MOL0     H58590   0.283  11.867   3.098 -1.4918 -0.0933  1.1860
  444MOL0     H58591   0.388  11.639   3.108  1.8052 -1.3065 -1.8803
  444MOL0     H58592   0.550  11.195   2.703 -1.5492  0.1118 -0.6610
  444MOL0     H58593   0.593  10.958   2.737 -0.3371 -0.6172  0.3363
  444MOL0     H58594   0.279   9.127   3.077 -0.8790 -1.1671 -0.8683
  444MOL0     H58595   0.412   8.954   3.196  0.6178  1.4987 -0.7914
  444MOL0     H58596   0.349   8.685   3.580  0.9524 -0.0940  2.3660
  444MOL0     H58597   0.467   8.526   3.716 -1.1765 -0.3316  0.2645
  444MOL0     H58598   0.728   8.324   3.551 -3.2180  2.2914 -0.5261
  444MOL0     H58599   0.664   8.157   3.541  2.3609 -0.6767 -0.4380
  444MOL0     H58600   0.850   8.169   3.719 -1.2436 -2.6247  0.9584
  444MOL0     H58601   0.771   8.301   3.795 -0.7181 -1.4070  1.6950
  444MOL0     H58602   0.574   8.140   3.847  0.3070 -0.9801  2.4614
  444MOL0     H58603   0.727   8.114   3.932  0.1743  1.9119  0.5832
  444MOL0     H58604   0.594   7.918   3.831 -0.3338  1.1082  1.0185
  444MOL0     H58605   0.616   7.975   3.671  0.4577 -0.9880 -0.3588
  444MOL0     H58606   1.016   7.830   3.729  1.1796  1.0572 -1.0021
  444MOL0     H58607   0.485   8.265   3.370 -1.2569 -0.1220 -1.3226
  444MOL0     H58608   0.394   8.453   3.239  2.2248  1.3101 -0.8214
  445MOL0     O58609  10.341  10.521   7.316 -0.3237  1.1382 -0.3598
  445MOL0     C58610  10.367  10.547   7.435 -0.4332  0.1709  0.1616
  445MOL0     O58611  10.426  10.460   7.518 -0.1696  0.4676  0.2886
  445MOL0     C58612  10.448  10.332   7.467  0.9931  0.0263 -0.0513
  445MOL0     C58613  10.576  10.272   7.478  1.2647 -0.3892  0.7959
  445MOL0     C58614  10.588  10.139   7.429 -0.1506  0.9916 -0.8775
  445MOL0     C58615  10.479  10.068   7.373 -1.1758 -0.8728 -0.6569
  445MOL0     O58616  10.503   9.949   7.305  0.4294  0.2118 -0.2469
  445MOL0     C58617  10.404   9.901   7.211  1.0108  0.1673  0.0844
  445MOL0     C58618  10.445   9.770   7.141  0.2369  0.2395 -0.1979
  445MOL0     C58619  10.488   9.662   7.241  0.2706  1.1434 -0.6308
  445MOL0     C58620  10.508   9.521   7.196 -0.8350  0.1198 -0.3165
  445MOL0     C58621  10.367   9.459   7.189  0.6973  0.7829  0.1021
  445MOL0     C58622  10.380   9.303   7.198  0.0470 -0.7691  0.5244
  445MOL0     C58623  10.266   9.216   7.153  1.1392 -0.3228 -0.9541
  445MOL0     C58624  10.159   9.186   7.263 -1.6049  0.0754 -0.3966
  445MOL0     N58625  10.050   9.100   7.216  0.2466 -0.7032 -0.2012
  445MOL0     C58626   9.948   9.130   7.128  0.5401 -1.1066  0.0355
  445MOL0     C58627   9.893   9.008   7.104  0.1071 -0.1997  0.3486
  445MOL0     C58628   9.765   9.001   7.036 -0.2078  0.1765 -0.2238
  445MOL0     C58629   9.683   8.881   7.091 -0.0935 -0.1445  0.5211
  445MOL0     C58630   9.642   8.883   7.236 -0.1630  0.8560  0.0860
  445MOL0     C58631   9.556   9.011   7.261 -0.6860 -0.1991 -0.5602
  445MOL0     O58632   9.645   9.121   7.294  1.1772 -0.2028  0.2391
  445MOL0     C58633   9.594   9.246   7.316  0.3344 -0.0008 -0.5781
  445MOL0     C58634   9.458   9.264   7.324  0.4568  0.4638  0.3466
  445MOL0     C58635   9.407   9.392   7.343 -0.1120  0.1995 -0.1609
  445MOL0     C58636   9.489   9.499   7.374 -0.9690  0.1074  0.0798
  445MOL0     C58637   9.447   9.637   7.373  0.8996  0.4804  0.2609
  445MOL0     O58638   9.517   9.732   7.441 -0.0430  0.1946 -0.3375
  445MOL0     C58639   9.456   9.856   7.457 -0.1463  0.0753  0.2450
  445MOL0     C58640   9.354   9.882   7.547  0.3215  0.3024  0.1322
  445MOL0     C58641   9.312  10.012   7.566 -1.2147 -0.6122 -0.8770
  445MOL0     C58642   9.368  10.120   7.506 -0.4726  0.2016  0.1322
  445MOL0     O58643   9.333  10.249   7.531  0.0941 -0.4229  0.2799
  445MOL0     C58644   9.312  10.275   7.669  0.0527  0.7470 -0.1625
  445MOL0     C58645   9.270  10.415   7.696 -0.3275 -1.1899 -0.0818
  445MOL0     C58646   9.282  10.442   7.845  0.0551  0.8603  0.5958
  445MOL0     C58647   9.166  10.388   7.926  0.7882 -0.4222 -0.0296
  445MOL0     C58648   9.184  10.415   8.077  0.5423 -0.3282 -0.2095
  445MOL0     C58649   9.064  10.348   8.155  0.8402  0.4008  0.7481
  445MOL0     C58650   9.079  10.376   8.301  0.4248  0.0698 -0.7269
  445MOL0     C58651   8.973  10.295   8.381 -0.5061  0.3184  0.3276
  445MOL0    Cl58652   8.992  10.119   8.374 -0.2370  0.4906 -0.4104
  445MOL0     C58653   9.478  10.094   7.417 -0.0474 -0.0800  0.1725
  445MOL0     C58654   9.521   9.961   7.394 -0.8335 -0.1773 -0.4745
  445MOL0     O58655   9.347   9.656   7.306  0.7532  0.3134 -0.2574
  445MOL0     C58656   9.622   9.480   7.378 -0.2068  0.1926 -0.7547
  445MOL0     C58657   9.685   9.354   7.347 -0.3911  0.2199  0.4132
  445MOL0     N58658   9.969   8.903   7.156 -0.3053  0.0411  0.3814
  445MOL0     N58659  10.061   8.966   7.233 -0.1749 -0.1565 -0.6968
  445MOL0     C58660  10.352  10.125   7.386  0.8414 -0.2248 -0.2599
  445MOL0     C58661  10.335  10.255   7.428 -0.5006  0.0686 -0.2744
  445MOL0     C58662  10.332  10.678   7.498 -0.2314  0.6189 -0.4056
  445MOL0     C58663  10.267  10.777   7.412 -0.7145  1.1794 -0.5879
  445MOL0     C58664  10.218  10.889   7.474 -0.6293 -0.8576 -0.7164
  445MOL0     C58665  10.210  10.911   7.611  0.5757 -0.2902 -0.7910
  445MOL0     O58666  10.118  11.016   7.648 -0.4357  0.8787  0.0348
  445MOL0     C58667  10.083  11.018   7.782 -0.4754 -0.1023 -1.1690
  445MOL0     C58668  10.194  11.097   7.862 -0.6332 -0.8225  0.5461
  445MOL0     C58669  10.159  11.142   8.006  1.0124 -0.0949 -0.3840
  445MOL0     C58670  10.276  11.209   8.085  0.2234 -0.0058  0.9211
  445MOL0     C58671  10.235  11.292   8.205  0.0373 -1.2498  0.4298
  445MOL0     C58672  10.190  11.414   8.356 -0.2020 -0.0549  0.3252
  445MOL0     C58673  10.282  10.813   7.687 -0.1496  0.3358 -1.6369
  445MOL0     C58674  10.332  10.697   7.633  0.9257 -0.3585  0.0324
  445MOL0     H58675  10.662  10.329   7.509  0.4024  1.6844 -0.4231
  445MOL0     H58676  10.687  10.102   7.454 -0.6842  1.7755  3.2895
  445MOL0     H58677  10.385   9.983   7.140  2.5480  1.3771  0.9984
  445MOL0     H58678  10.308   9.877   7.258 -0.2871  0.3093 -2.3243
  445MOL0     H58679  10.525   9.797   7.071  1.0031  1.7350  1.1837
  445MOL0     H58680  10.360   9.738   7.080  0.8122 -2.6635  0.3666
  445MOL0     H58681  10.406   9.663   7.314 -0.5807  1.8134 -1.5585
  445MOL0     H58682  10.577   9.693   7.295  0.9615  0.0227 -1.1074
  445MOL0     H58683  10.555   9.527   7.097 -1.1222 -0.1963 -0.4738
  445MOL0     H58684  10.568   9.459   7.262 -2.2704  0.0953  1.0262
  445MOL0     H58685  10.335   9.473   7.085  0.9534 -2.4458 -0.4993
  445MOL0     H58686  10.295   9.483   7.268  1.5426  0.6227  0.9237
  445MOL0     H58687  10.421   9.279   7.296 -2.6120  1.9225  2.4971
  445MOL0     H58688  10.463   9.283   7.130 -2.2504 -0.4207 -2.6678
  445MOL0     H58689  10.223   9.248   7.058 -1.0958 -1.3326 -0.3351
  445MOL0     H58690  10.319   9.122   7.132  1.0893 -1.2687  2.5302
  445MOL0     H58691  10.115   9.277   7.304 -1.2228 -0.3108  0.9432
  445MOL0     H58692  10.202   9.134   7.350 -0.7674 -3.3952 -2.6753
  445MOL0     H58693   9.915   9.230   7.103 -1.1356 -1.6294  0.0077
  445MOL0     H58694   9.778   8.998   6.927  0.4491 -0.0158 -0.1472
  445MOL0     H58695   9.713   9.096   7.051  1.2755  0.4749  4.5628
  445MOL0     H58696   9.746   8.793   7.078  0.5043  0.3120  0.3241
  445MOL0     H58697   9.582   8.887   7.049 -0.1690  1.8347  0.8760
  445MOL0     H58698   9.571   8.802   7.251 -1.4608  1.6004 -1.6909
  445MOL0     H58699   9.726   8.880   7.306 -1.9483 -1.2246  2.2967
  445MOL0     H58700   9.491   8.990   7.347  0.9718  1.1373  1.1110
  445MOL0     H58701   9.494   9.039   7.176  0.7584 -1.0047 -1.9237
  445MOL0     H58702   9.387   9.183   7.308 -1.7149  2.3338  0.1689
  445MOL0     H58703   9.299   9.407   7.349  0.0657  1.3059  0.3952
  445MOL0     H58704   9.291   9.820   7.611  1.5033  1.9988  3.1518
  445MOL0     H58705   9.240  10.027   7.645  1.1095  2.6544  0.8682
  445MOL0     H58706   9.407  10.251   7.716  1.2448 -1.8629 -3.5264
  445MOL0     H58707   9.240  10.213   7.725 -0.0922  1.9542  1.0498
  445MOL0     H58708   9.169  10.440   7.662 -0.4880  0.2352  1.3213
  445MOL0     H58709   9.337  10.485   7.645  0.2665 -0.3943  1.7310
  445MOL0     H58710   9.296  10.545   7.879  0.2897  0.4117  1.9173
  445MOL0     H58711   9.370  10.391   7.887 -1.5689 -2.7375  0.0497
  445MOL0     H58712   9.068  10.422   7.893  0.4732  2.1076  3.0561
  445MOL0     H58713   9.151  10.280   7.923 -2.1056 -0.1944  1.9319
  445MOL0     H58714   9.183  10.522   8.096  1.0323 -0.6762  2.1730
  445MOL0     H58715   9.276  10.375   8.121 -1.3056 -4.8510  0.1718
  445MOL0     H58716   9.053  10.240   8.140 -4.4083  0.5078  1.7072
  445MOL0     H58717   8.968  10.390   8.122  1.9584 -0.0828 -3.8479
  445MOL0     H58718   9.176  10.342   8.339 -1.4541 -0.4744  4.2524
  445MOL0     H58719   9.065  10.480   8.330  1.0400 -0.3130  1.0701
  445MOL0     H58720   8.876  10.332   8.346 -1.3186 -1.3434  0.7237
  445MOL0     H58721   8.986  10.326   8.485 -0.2710 -2.8074  1.3421
  445MOL0     H58722   9.538  10.173   7.372  0.0627 -1.9108 -3.2303
  445MOL0     H58723   9.601   9.957   7.321 -1.3808 -0.3274 -1.0774
  445MOL0     H58724   9.690   9.564   7.389  0.1579 -0.4212  3.3243
  445MOL0     H58725   9.793   9.350   7.357 -0.1378  1.8334 -1.2197
  445MOL0     H58726  10.261  10.071   7.360  0.5851 -0.6702  1.4500
  445MOL0     H58727  10.234  10.295   7.435 -1.0699 -1.0829 -1.3250
  445MOL0     H58728  10.275  10.762   7.305  0.6963  1.6137 -0.5640
  445MOL0     H58729  10.168  10.960   7.409  0.5027  0.5766 -0.0985
  445MOL0     H58730  10.049  10.920   7.816 -2.9131  0.7639 -0.8488
  445MOL0     H58731   9.986  11.064   7.805 -1.1216 -3.1078  3.3965
  445MOL0     H58732  10.288  11.042   7.856 -0.9276 -1.1610 -1.4847
  445MOL0     H58733  10.210  11.190   7.808 -3.5372 -1.7091 -2.1435
  445MOL0     H58734  10.121  11.060   8.068  0.7591 -0.2179 -0.7029
  445MOL0     H58735  10.076  11.212   8.001  0.0138 -1.1305  0.9289
  445MOL0     H58736  10.350  11.138   8.123  0.7306 -1.7201 -2.8132
  445MOL0     H58737  10.322  11.279   8.015  1.3852 -0.6971  0.9728
  445MOL0     H58738  10.170  11.490   8.429 -0.7670  3.0228 -2.7786
  445MOL0     H58739  10.287  10.826   7.794 -0.3536 -0.0146 -1.5837
  445MOL0     H58740  10.371  10.622   7.702  2.6166 -0.6915 -1.2366
  446MOL0     O58741   5.641   0.875   2.639 -0.3478 -0.2438  0.0395
  446MOL0     C58742   5.591   0.798   2.716 -0.2428 -0.0814  0.3551
  446MOL0     O58743   5.619   0.793   2.846  0.1432  0.5760  0.0946
  446MOL0     C58744   5.725   0.865   2.881  0.4875 -0.9778  0.2727
  446MOL0     C58745   5.847   0.799   2.886 -0.6003 -0.7311 -0.0384
  446MOL0     C58746   5.966   0.874   2.898 -0.1969 -0.3676  0.1760
  446MOL0     C58747   5.969   1.012   2.888 -0.0213  0.0533  0.4063
  446MOL0     O58748   6.087   1.082   2.886  0.0011  0.3758 -0.1726
  446MOL0     C58749   6.220   1.020   2.926  0.1794  0.2286  0.6699
  446MOL0     C58750   6.320   1.129   2.907 -0.5715 -0.4828 -0.7079
  446MOL0     C58751   6.354   1.159   2.758 -0.1798  0.0244 -1.0022
  446MOL0     C58752   6.486   1.236   2.754 -0.3266 -0.1867 -0.3628
  446MOL0     C58753   6.552   1.225   2.613 -1.4643 -0.0565  0.2865
  446MOL0     C58754   6.573   1.076   2.567 -0.0290 -0.6452 -0.4284
  446MOL0     C58755   6.630   0.996   2.687  0.5726  0.5926 -0.2065
  446MOL0     C58756   6.661   0.854   2.640  0.3032  0.6327 -1.1044
  446MOL0     N58757   6.726   0.843   2.505  0.8201  0.3673  0.2366
  446MOL0     C58758   6.862   0.835   2.493 -0.3690 -0.2348 -0.0605
  446MOL0     C58759   6.887   0.825   2.359  0.2883  1.0502 -0.4506
  446MOL0     C58760   7.020   0.824   2.293 -0.1841 -0.0668 -0.9792
  446MOL0     C58761   7.038   0.961   2.218  0.0511  0.6183  0.5728
  446MOL0     C58762   7.170   0.968   2.138 -0.0797 -0.8715  0.8483
  446MOL0     C58763   7.295   0.933   2.216 -0.3727 -0.0301 -0.2864
  446MOL0     O58764   7.402   0.935   2.126 -0.0051  0.0087  1.0267
  446MOL0     C58765   7.527   0.947   2.175 -0.2629 -0.1246  0.3353
  446MOL0     C58766   7.630   0.975   2.080 -0.4361 -0.2697  0.5359
  446MOL0     C58767   7.758   0.971   2.121 -0.6529 -0.8364  0.4688
  446MOL0     C58768   7.792   0.939   2.254 -0.2343 -0.4352  0.1420
  446MOL0     C58769   7.929   0.938   2.297 -0.2250 -0.6354 -0.6997
  446MOL0     O58770   8.024   0.911   2.200 -0.1596  0.4085 -0.0685
  446MOL0     C58771   8.160   0.894   2.225  0.6310 -0.1399 -0.1186
  446MOL0     C58772   8.229   0.788   2.174 -0.1390  0.1385 -0.0069
  446MOL0     C58773   8.366   0.781   2.190 -0.0140  0.5161  0.2433
  446MOL0     C58774   8.441   0.866   2.270  0.6318 -1.3274 -0.7835
  446MOL0     O58775   8.576   0.858   2.305  0.7045 -0.5639  0.1439
  446MOL0     C58776   8.602   0.741   2.384 -0.5206 -0.2437  0.2919
  446MOL0     C58777   8.654   0.808   2.521  0.3284 -0.0583  0.3251
  446MOL0     C58778   8.537   0.832   2.613 -0.2347 -0.4967  0.0119
  446MOL0     C58779   8.565   0.945   2.716  0.5833  0.1619  0.2587
  446MOL0     C58780   8.446   0.971   2.815 -0.2206 -0.3239  0.0549
  446MOL0     C58781   8.393   0.859   2.897  0.6159 -0.4000 -0.0654
  446MOL0     C58782   8.311   0.906   3.010 -0.0173  0.2528 -0.1315
  446MOL0     C58783   8.241   0.789   3.086  0.2146  0.1830 -0.3572
  446MOL0    Cl58784   8.166   0.854   3.233 -0.4965 -0.2647 -0.2000
  446MOL0     C58785   8.372   0.967   2.327  0.7148 -0.7526  0.1847
  446MOL0     C58786   8.234   0.985   2.306 -0.1242  0.1732 -0.2753
  446MOL0     O58787   7.953   0.976   2.411 -0.0168  0.2059  0.1461
  446MOL0     C58788   7.695   0.908   2.346  0.3338 -0.4582 -0.1123
  446MOL0     C58789   7.566   0.915   2.310 -0.4836  1.1104  0.4494
  446MOL0     N58790   6.758   0.819   2.298 -0.2212 -0.3058 -0.2727
  446MOL0     N58791   6.666   0.822   2.386  0.5130 -0.7429 -0.1092
  446MOL0     C58792   5.845   1.079   2.870  0.6450  0.1738 -0.0954
  446MOL0     C58793   5.726   1.009   2.873  0.4230  0.5470 -1.6749
  446MOL0     C58794   5.493   0.697   2.652 -0.2352 -0.4237  1.1057
  446MOL0     C58795   5.456   0.701   2.513 -1.3072 -0.4255 -0.3472
  446MOL0     C58796   5.355   0.614   2.480 -1.3962  0.0453 -0.1603
  446MOL0     C58797   5.303   0.517   2.565  0.1133 -0.5679 -0.3596
  446MOL0     O58798   5.215   0.431   2.515 -0.4906  0.7459  0.7601
  446MOL0     C58799   5.183   0.299   2.567  0.7772 -0.1454  0.6974
  446MOL0     C58800   5.047   0.247   2.518 -0.9555 -0.8769 -1.5326
  446MOL0     C58801   4.911   0.323   2.576  0.4284  0.6275 -0.3729
  446MOL0     C58802   4.931   0.471   2.580  0.0099  0.3322 -0.5198
  446MOL0     C58803   4.800   0.534   2.603 -0.1399 -0.0917 -0.4600
  446MOL0     C58804   4.694   0.578   2.624  0.1714 -0.6377 -0.1740
  446MOL0     C58805   5.355   0.502   2.700  1.0175 -0.7538  0.0944
  446MOL0     C58806   5.450   0.599   2.739 -0.0958  0.5413 -0.5250
  446MOL0     H58807   5.868   0.693   2.889 -0.4894 -0.8773 -3.0175
  446MOL0     H58808   6.064   0.827   2.903 -0.2085 -0.5390 -0.9491
  446MOL0     H58809   6.241   0.923   2.880 -0.5723 -0.1899  1.1764
  446MOL0     H58810   6.218   1.002   3.034  2.5371  0.1447  0.7529
  446MOL0     H58811   6.407   1.083   2.954 -0.9456 -0.8149 -0.3363
  446MOL0     H58812   6.293   1.216   2.967  1.0372 -0.5164  0.1278
  446MOL0     H58813   6.270   1.211   2.710 -0.8395 -1.0567 -1.0458
  446MOL0     H58814   6.348   1.067   2.701 -1.1618 -0.7687  0.3054
  446MOL0     H58815   6.467   1.341   2.777 -0.0843  0.4799 -2.9072
  446MOL0     H58816   6.553   1.198   2.832 -0.3906 -0.8508 -0.6183
  446MOL0     H58817   6.645   1.283   2.614 -1.9496  0.7881 -1.0544
  446MOL0     H58818   6.478   1.273   2.548 -3.7007 -0.3046  2.5110
  446MOL0     H58819   6.640   1.081   2.480  0.3614  1.0519 -0.0769
  446MOL0     H58820   6.477   1.032   2.541 -0.6852  0.0372  0.7653
  446MOL0     H58821   6.718   1.046   2.729  0.1166  0.4750  0.9159
  446MOL0     H58822   6.564   0.990   2.774  0.1988 -1.3301 -0.5697
  446MOL0     H58823   6.561   0.811   2.634 -1.6265  4.6312 -1.1147
  446MOL0     H58824   6.717   0.813   2.725 -2.3062 -0.0071  0.4244
  446MOL0     H58825   6.942   0.841   2.566  1.1442 -4.1904 -1.1485
  446MOL0     H58826   7.030   0.750   2.213 -0.9655 -1.0914 -0.1552
  446MOL0     H58827   7.091   0.793   2.371 -0.2816  0.0387 -0.8476
  446MOL0     H58828   7.029   1.047   2.285 -0.3194  1.3353 -0.3732
  446MOL0     H58829   6.955   0.954   2.147  0.6998 -1.1255 -0.0757
  446MOL0     H58830   7.158   0.898   2.055  2.0366  0.9418 -1.1703
  446MOL0     H58831   7.186   1.070   2.099  0.4028 -0.8785  1.0174
  446MOL0     H58832   7.285   0.828   2.244  0.6230  0.1715  0.9543
  446MOL0     H58833   7.307   1.012   2.292 -1.1462 -0.5869  0.4351
  446MOL0     H58834   7.603   0.989   1.976 -0.3490  3.3401  0.8649
  446MOL0     H58835   7.838   1.006   2.056 -0.0808 -0.7603  1.2040
  446MOL0     H58836   8.174   0.711   2.121  1.3906 -1.5444  0.7615
  446MOL0     H58837   8.425   0.696   2.158 -1.4898 -0.0084 -1.2423
  446MOL0     H58838   8.680   0.691   2.325  1.3922  3.2599 -0.4519
  446MOL0     H58839   8.516   0.673   2.382  0.6068 -1.7395  0.5505
  446MOL0     H58840   8.701   0.903   2.497  1.5297 -1.0962 -1.7182
  446MOL0     H58841   8.729   0.755   2.581 -0.2688  2.5380  3.6054
  446MOL0     H58842   8.533   0.745   2.679  1.5882  0.8985  2.0934
  446MOL0     H58843   8.441   0.841   2.560  0.7758 -1.2540 -2.0586
  446MOL0     H58844   8.651   0.923   2.781 -0.7329  1.3739  2.5296
  446MOL0     H58845   8.588   1.038   2.663 -4.2769  0.4350 -1.8391
  446MOL0     H58846   8.370   1.013   2.749  2.1463  2.3805 -1.1440
  446MOL0     H58847   8.489   1.054   2.873  2.3142  3.9450 -6.7439
  446MOL0     H58848   8.472   0.795   2.937 -0.1640  0.0014  2.2733
  446MOL0     H58849   8.337   0.795   2.829 -0.5091  2.0624 -1.6131
  446MOL0     H58850   8.366   0.963   3.086 -1.3433 -1.1885  2.0253
  446MOL0     H58851   8.230   0.959   2.959 -1.5124 -2.6467 -0.9371
  446MOL0     H58852   8.311   0.710   3.116 -1.0486 -0.2577  1.5681
  446MOL0     H58853   8.162   0.749   3.022  1.0589 -1.6927 -0.3205
  446MOL0     H58854   8.421   1.036   2.395 -1.8697  0.6562  0.7259
  446MOL0     H58855   8.188   1.052   2.379 -0.2204  0.3850 -0.5282
  446MOL0     H58856   7.702   0.902   2.454 -1.0612 -2.2481 -0.0855
  446MOL0     H58857   7.502   0.903   2.397 -1.3911  2.0870 -0.0525
  446MOL0     H58858   5.858   1.184   2.842 -1.9930  0.2539 -1.2490
  446MOL0     H58859   5.630   1.059   2.859 -0.3290 -0.9042 -1.9049
  446MOL0     H58860   5.492   0.781   2.449 -1.1757  0.5469  0.9109
  446MOL0     H58861   5.319   0.614   2.378 -1.1673  1.2686 -0.2621
  446MOL0     H58862   5.184   0.310   2.676  1.6530  1.2282  0.5777
  446MOL0     H58863   5.264   0.236   2.528  0.0230 -1.8168  1.7211
  446MOL0     H58864   5.054   0.259   2.410  1.3084  3.0919 -1.1603
  446MOL0     H58865   5.058   0.139   2.526  4.6754 -0.6282 -1.6557
  446MOL0     H58866   4.885   0.288   2.677 -1.0799  1.5848 -0.3988
  446MOL0     H58867   4.827   0.299   2.509 -0.3256  0.6243  0.5519
  446MOL0     H58868   4.997   0.515   2.655  0.0951  3.0447 -2.0838
  446MOL0     H58869   4.981   0.509   2.490 -1.2106  2.1364 -0.4909
  446MOL0     H58870   4.605   0.634   2.646  1.9750  1.9619  1.1198
  446MOL0     H58871   5.325   0.425   2.770  1.2125  2.3884  3.9481
  446MOL0     H58872   5.484   0.591   2.842  2.1419  1.9547 -1.0885
  447MOL0     O58873   8.557   6.816  11.403 -0.2386  0.3853 -0.6869
  447MOL0     C58874   8.466   6.748  11.452  0.4004 -0.1890  0.1093
  447MOL0     O58875   8.473   6.620  11.505  0.4135  0.1822  0.3723
  447MOL0     C58876   8.594   6.593  11.552 -0.8295  0.1593  1.6097
  447MOL0     C58877   8.654   6.467  11.516  0.4492  0.5767  0.1747
  447MOL0     C58878   8.786   6.443  11.564  0.5887  0.5408  0.4682
  447MOL0     C58879   8.850   6.533  11.651  0.3314  0.3438 -0.5664
  447MOL0     O58880   8.969   6.500  11.704  0.2833 -0.1575 -0.5056
  447MOL0     C58881   9.051   6.405  11.631 -0.3246 -0.0875  0.7831
  447MOL0     C58882   9.207   6.413  11.665  0.3215  0.2815  0.3387
  447MOL0     C58883   9.249   6.428  11.817 -0.2366  0.0397  0.2221
  447MOL0     C58884   9.219   6.317  11.910  0.4476  0.0019  0.0164
  447MOL0     C58885   9.277   6.185  11.863 -0.1286 -0.7591 -0.4738
  447MOL0     C58886   9.432   6.187  11.835  0.4953  0.3627 -0.9943
  447MOL0     C58887   9.515   6.217  11.958  0.4173  0.8417 -0.4234
  447MOL0     C58888   9.662   6.201  11.927 -0.3912 -0.2626  1.0498
  447MOL0     N58889   9.732   6.233  12.052  0.4606 -0.5748 -0.2485
  447MOL0     C58890   9.775   6.360  12.090  0.3758 -0.2203 -0.1141
  447MOL0     C58891   9.853   6.341  12.199 -0.4734 -0.1367  0.6948
  447MOL0     C58892   9.915   6.458  12.278  0.2941  0.1764 -0.0021
  447MOL0     C58893  10.042   6.513  12.201  0.0631  0.3074 -0.5920
  447MOL0     C58894  10.107   6.627  12.277  0.3247 -0.0957  0.0827
  447MOL0     C58895  10.238   6.666  12.213  0.1783  0.1266 -1.0955
  447MOL0     O58896  10.259   6.786  12.277 -0.2199 -0.2134 -0.3657
  447MOL0     C58897  10.363   6.863  12.234  0.4634 -0.0648  0.3218
  447MOL0     C58898  10.458   6.845  12.129 -0.1196 -0.1855 -0.7910
  447MOL0     C58899  10.553   6.946  12.109 -0.3138  0.3024  0.9585
  447MOL0     C58900  10.556   7.065  12.182 -0.5941 -0.4665 -0.0147
  447MOL0     C58901  10.668   7.159  12.161  0.5602 -0.1296  0.1571
  447MOL0     O58902  10.675   7.269  12.245 -0.1634  0.6176 -0.0119
  447MOL0     C58903  10.780   7.350  12.236 -0.4022 -0.4681  0.5241
  447MOL0     C58904  10.756   7.474  12.287  0.7150  0.0942  0.1359
  447MOL0     C58905  10.849   7.570  12.274 -0.4452  0.4702 -1.0179
  447MOL0     C58906  10.978   7.543  12.225  0.9735  0.0400 -0.0836
  447MOL0     O58907  11.078   7.642  12.209 -0.4001  0.1281  0.9360
  447MOL0     C58908  11.058   7.770  12.158 -0.6163 -0.6040 -0.1242
  447MOL0     C58909  11.189   7.852  12.195  0.6629  0.4616 -0.1972
  447MOL0     C58910  11.163   8.001  12.173 -0.3035  0.0953 -0.4894
  447MOL0     C58911  11.170   8.036  12.028  0.2865 -0.5630 -0.1837
  447MOL0     C58912  11.193   8.190  12.029  1.1561 -0.4503 -0.0869
  447MOL0     C58913  11.240   8.228  11.890 -0.6223 -0.7669 -0.3529
  447MOL0     C58914  11.246   8.382  11.872  0.6092  0.4878 -1.0861
  447MOL0     C58915  11.257   8.413  11.725  0.1492  0.3746  0.8376
  447MOL0    Cl58916  11.302   8.587  11.693 -0.1645  0.2850  0.2876
  447MOL0     C58917  11.016   7.412  12.196  0.3164  0.2991  0.8452
  447MOL0     C58918  10.918   7.312  12.201  0.4240  0.3492 -0.0681
  447MOL0     O58919  10.741   7.129  12.063  0.8034  1.4112 -0.2827
  447MOL0     C58920  10.462   7.086  12.287 -0.2302  0.4235 -0.0291
  447MOL0     C58921  10.356   6.983  12.300 -0.2096 -0.2257  0.6958
  447MOL0     N58922   9.837   6.211  12.235  0.7134 -0.1261  0.3507
  447MOL0     N58923   9.768   6.141  12.144 -1.2349 -0.1011 -0.6482
  447MOL0     C58924   8.782   6.649  11.691 -0.3418 -0.6738  0.2563
  447MOL0     C58925   8.655   6.687  11.640  0.5588  0.3741  0.3350
  447MOL0     C58926   8.320   6.801  11.428  0.7338 -0.3053  0.0377
  447MOL0     C58927   8.212   6.733  11.479  0.6676 -0.2852 -0.3194
  447MOL0     C58928   8.082   6.767  11.445 -0.4022 -0.7138  0.8481
  447MOL0     C58929   8.063   6.880  11.360 -0.8684  0.6604  0.1469
  447MOL0     O58930   7.942   6.929  11.324 -0.3961 -0.7070  0.4165
  447MOL0     C58931   7.829   6.846  11.330  0.0385  0.6055 -0.0303
  447MOL0     C58932   7.721   6.924  11.251 -0.8103 -0.0773 -0.6156
  447MOL0     C58933   7.577   6.870  11.276 -0.2937 -0.0468 -0.1538
  447MOL0     C58934   7.479   6.958  11.213  0.2684  0.3196  0.0244
  447MOL0     C58935   7.489   6.955  11.066  0.0860 -0.4241 -0.0070
  447MOL0     C58936   7.497   6.968  10.940  0.6365 -0.3996 -0.3162
  447MOL0     C58937   8.172   6.957  11.310  1.1177  0.5888 -0.0703
  447MOL0     C58938   8.301   6.910  11.341  0.9859  0.2034  0.5343
  447MOL0     H58939   8.597   6.394  11.458 -1.2845  2.6614 -0.8874
  447MOL0     H58940   8.832   6.350  11.531  0.9918  0.8270  0.2219
  447MOL0     H58941   9.029   6.413  11.524 -0.6452  1.1789  0.9356
  447MOL0     H58942   9.013   6.306  11.660  0.3104  0.1377  2.5615
  447MOL0     H58943   9.247   6.503  11.617  1.6980  1.3819  3.3181
  447MOL0     H58944   9.262   6.329  11.619  3.1095  2.1255  0.0493
  447MOL0     H58945   9.200   6.519  11.854 -2.0442 -0.9812  0.4245
  447MOL0     H58946   9.355   6.455  11.825 -0.5636  1.9522 -1.1020
  447MOL0     H58947   9.251   6.343  12.012  1.4648 -4.5612  1.0796
  447MOL0     H58948   9.110   6.302  11.917  0.7541 -2.0285  1.3952
  447MOL0     H58949   9.220   6.144  11.779  2.4021 -1.9039 -1.7244
  447MOL0     H58950   9.256   6.115  11.944 -2.8077 -0.1713 -0.5666
  447MOL0     H58951   9.462   6.244  11.746  0.6681  1.1220 -0.4540
  447MOL0     H58952   9.461   6.085  11.805 -1.2561 -1.3102  2.4934
  447MOL0     H58953   9.496   6.318  11.994 -1.6501 -0.5472  2.8786
  447MOL0     H58954   9.489   6.143  12.035 -1.1389 -1.9616 -3.3666
  447MOL0     H58955   9.706   6.268  11.852  1.4663 -0.4955  1.8647
  447MOL0     H58956   9.702   6.109  11.884  1.2005  1.0401 -0.4445
  447MOL0     H58957   9.747   6.452  12.040 -2.8601  0.3084  2.3318
  447MOL0     H58958   9.939   6.423  12.379 -0.8866  0.1906  0.2918
  447MOL0     H58959   9.835   6.530  12.299 -1.8824 -2.4694  1.2687
  447MOL0     H58960  10.009   6.542  12.100 -0.2722 -3.1682 -1.6385
  447MOL0     H58961  10.107   6.425  12.190 -3.1254 -2.1263 -1.6354
  447MOL0     H58962  10.039   6.713  12.272 -0.3258 -0.4434  2.2437
  447MOL0     H58963  10.122   6.610  12.384 -0.0287 -0.8900  0.0135
  447MOL0     H58964  10.246   6.663  12.104 -1.8014  0.0336 -1.2687
  447MOL0     H58965  10.314   6.600  12.255 -1.3250 -0.1458  1.3377
  447MOL0     H58966  10.460   6.746  12.084  1.6287 -0.2750 -0.5740
  447MOL0     H58967  10.623   6.932  12.026 -3.0707  3.5152 -2.2551
  447MOL0     H58968  10.655   7.498  12.316  0.1870 -0.7201 -0.9231
  447MOL0     H58969  10.838   7.678  12.283 -0.3398  0.3413  1.3947
  447MOL0     H58970  10.973   7.815  12.210 -0.1146  0.1088  0.0903
  447MOL0     H58971  11.036   7.759  12.051 -4.0685 -3.3029  0.6639
  447MOL0     H58972  11.279   7.819  12.143  0.5686  1.6647 -1.1678
  447MOL0     H58973  11.207   7.845  12.303 -1.5593 -2.9958  0.0857
  447MOL0     H58974  11.248   8.051  12.222  0.2086 -0.0047 -1.2658
  447MOL0     H58975  11.071   8.039  12.220  0.5728  0.3523  1.0841
  447MOL0     H58976  11.259   7.989  11.986 -0.0880  0.6564 -2.4775
  447MOL0     H58977  11.080   8.010  11.972 -0.0104  2.4402 -1.2638
  447MOL0     H58978  11.272   8.210  12.103 -0.0468  1.0138  0.8387
  447MOL0     H58979  11.105   8.244  12.064  1.0215 -0.3800 -0.5247
  447MOL0     H58980  11.180   8.172  11.818 -3.1178 -0.7315  1.5688
  447MOL0     H58981  11.344   8.192  11.887 -0.8170 -1.3095 -0.9572
  447MOL0     H58982  11.151   8.425  11.908 -0.5577 -1.4806 -1.6632
  447MOL0     H58983  11.322   8.423  11.939  0.1150 -0.5939  0.1778
  447MOL0     H58984  11.162   8.397  11.673  0.2060  2.1549  0.0967
  447MOL0     H58985  11.329   8.353  11.670  0.2320  3.5856 -3.0160
  447MOL0     H58986  11.120   7.397  12.171  1.2517  4.2304  1.6233
  447MOL0     H58987  10.949   7.212  12.172 -1.8984 -0.4641  0.0191
  447MOL0     H58988  10.471   7.170  12.355  0.6042 -0.6304  1.2111
  447MOL0     H58989  10.281   6.990  12.377  0.5940  1.6251  1.3816
  447MOL0     H58990   8.838   6.728  11.740 -1.4491  2.3432 -2.9145
  447MOL0     H58991   8.603   6.782  11.653  0.9201  0.8334 -1.3855
  447MOL0     H58992   8.214   6.661  11.560  0.1887  0.6527  0.5422
  447MOL0     H58993   7.995   6.714  11.483 -0.7825  1.0862  2.6798
  447MOL0     H58994   7.800   6.828  11.434  2.3364 -2.4633  0.2089
  447MOL0     H58995   7.836   6.744  11.293  1.0372 -0.1178  2.0146
  447MOL0     H58996   7.714   7.026  11.289 -2.4315 -1.4952  3.4656
  447MOL0     H58997   7.759   6.924  11.149  5.0676 -0.7448  1.1834
  447MOL0     H58998   7.557   6.882  11.383 -0.0909  4.2481 -0.4370
  447MOL0     H58999   7.579   6.769  11.234  3.2949 -0.2281  0.1653
  447MOL0     H59000   7.377   6.934  11.245  0.2633 -0.5878 -0.6263
  447MOL0     H59001   7.496   7.061  11.244  1.1180 -0.1606  1.2790
  447MOL0     H59002   7.525   6.964  10.836  4.4834 -0.5953  0.5540
  447MOL0     H59003   8.152   7.033  11.236 -1.0649 -2.8414 -3.3806
  447MOL0     H59004   8.389   6.945  11.288 -0.7425  0.7244 -2.1922
  448MOL0     O59005   6.541   7.916   0.428  0.6327 -0.2680 -0.8319
  448MOL0     C59006   6.461   7.947   0.349  0.1134 -0.5135  0.6010
  448MOL0     O59007   6.327   7.985   0.372 -0.3696 -0.3210  0.1767
  448MOL0     C59008   6.283   7.986   0.499 -0.3347  0.8425  0.7052
  448MOL0     C59009   6.348   8.036   0.614  0.3145 -0.6219 -0.9674
  448MOL0     C59010   6.290   8.048   0.742 -0.0664 -0.1247 -0.4267
  448MOL0     C59011   6.157   8.001   0.759 -0.5125 -0.1639 -0.6424
  448MOL0     O59012   6.091   8.013   0.878  0.4937  0.4656  0.6704
  448MOL0     C59013   6.139   8.088   0.987 -0.8864 -0.3605  0.1397
  448MOL0     C59014   6.016   8.086   1.080 -0.1149  0.2057  0.1355
  448MOL0     C59015   5.902   8.180   1.044  0.2710 -0.5382  0.6911
  448MOL0     C59016   5.790   8.094   0.978  0.8406 -0.2592 -0.0485
  448MOL0     C59017   5.681   8.037   1.077  0.0028  0.0423  0.6658
  448MOL0     C59018   5.591   7.937   1.000  1.1128 -0.8715 -0.3074
  448MOL0     C59019   5.454   7.907   1.079 -1.1725 -0.3718 -0.7837
  448MOL0     C59020   5.365   7.801   1.016 -0.4981  0.1318 -0.2088
  448MOL0     N59021   5.228   7.772   1.063 -1.1359 -0.4101  0.3207
  448MOL0     C59022   5.184   7.727   1.187  0.9797  0.9852  0.4699
  448MOL0     C59023   5.044   7.744   1.185  0.0349  0.9852 -0.6265
  448MOL0     C59024   4.952   7.722   1.299 -0.1263  0.1289  0.3801
  448MOL0     C59025   4.954   7.575   1.340  0.1116  0.5946 -0.7088
  448MOL0     C59026   4.838   7.548   1.453 -0.5235 -0.7592  0.0323
  448MOL0     C59027   4.876   7.644   1.574  0.1637  0.2716  0.6149
  448MOL0     O59028   4.835   7.581   1.693  0.5638 -0.1051 -0.1018
  448MOL0     C59029   4.698   7.564   1.693  0.5678 -0.4574  0.1066
  448MOL0     C59030   4.637   7.443   1.639 -0.4603 -0.4200  0.2133
  448MOL0     C59031   4.503   7.428   1.645  1.0926  0.5093  0.3150
  448MOL0     C59032   4.431   7.519   1.713  0.0318  0.2447 -0.2111
  448MOL0     C59033   4.285   7.493   1.725  1.0511 -0.4697  0.4374
  448MOL0     O59034   4.235   7.392   1.646  0.3027  0.0195 -0.6217
  448MOL0     C59035   4.101   7.372   1.638  0.2807  1.4483  0.3838
  448MOL0     C59036   4.018   7.451   1.557 -0.3543  0.1576 -0.0714
  448MOL0     C59037   3.895   7.407   1.530  0.2481 -0.9423 -0.3837
  448MOL0     C59038   3.827   7.302   1.604 -0.5047 -1.1739  0.0204
  448MOL0     O59039   3.696   7.279   1.580  0.3790  0.2585 -0.0991
  448MOL0     C59040   3.642   7.165   1.645 -0.7799  0.1870 -0.2161
  448MOL0     C59041   3.490   7.152   1.608  0.9156  0.1010  1.1873
  448MOL0     C59042   3.399   7.048   1.684  0.0946  0.1105 -0.4325
  448MOL0     C59043   3.255   7.036   1.633 -0.4799  0.3237 -0.5494
  448MOL0     C59044   3.176   6.951   1.734  0.8577  0.2236  0.0651
  448MOL0     C59045   3.033   6.941   1.699  0.4311  0.0852  0.3759
  448MOL0     C59046   2.961   7.070   1.713 -0.8595 -0.8312 -0.3723
  448MOL0     C59047   2.816   7.047   1.702  0.3916 -0.0205 -0.1888
  448MOL0    Cl59048   2.710   7.195   1.718  0.2787 -0.2187 -0.3414
  448MOL0     C59049   3.911   7.229   1.691  0.5773 -0.1937 -0.5262
  448MOL0     C59050   4.050   7.266   1.713  0.3436 -0.5363  1.0341
  448MOL0     O59051   4.215   7.554   1.810 -0.0866 -0.5288  1.0016
  448MOL0     C59052   4.488   7.635   1.772  0.4979 -0.1531 -0.0647
  448MOL0     C59053   4.619   7.659   1.767  0.0497 -0.2072 -0.1066
  448MOL0     N59054   5.018   7.794   1.056 -0.7077  0.5233  0.1735
  448MOL0     N59055   5.119   7.824   0.992 -0.2340  0.3706 -1.0616
  448MOL0     C59056   6.095   7.959   0.644  0.8093 -0.5306 -0.2364
  448MOL0     C59057   6.154   7.951   0.518  0.0083 -0.3306 -0.2372
  448MOL0     C59058   6.518   7.944   0.209 -0.0914 -0.7450  0.5817
  448MOL0     C59059   6.647   7.884   0.190 -0.0308  0.0786 -0.1888
  448MOL0     C59060   6.702   7.874   0.061  0.4344 -1.0501 -0.5867
  448MOL0     C59061   6.648   7.941  -0.049  0.0879 -0.2524  0.3918
  448MOL0     O59062   6.716   7.921  -0.171  0.4234  0.6035  0.0980
  448MOL0     C59063   6.661   7.992  -0.278  0.7510 -1.0398 -0.1812
  448MOL0     C59064   6.545   7.915  -0.342  1.1364 -0.0647  0.8027
  448MOL0     C59065   6.508   7.986  -0.470 -0.9657 -0.4951 -0.3688
  448MOL0     C59066   6.418   7.895  -0.557 -0.5413  0.1489 -1.1934
  448MOL0     C59067   6.424   7.933  -0.698 -1.2591  0.1157 -0.6879
  448MOL0     C59068   6.460   7.951  -0.812  0.0043  0.6752  0.0616
  448MOL0     C59069   6.523   8.004  -0.023  0.5712 -0.3157 -0.1130
  448MOL0     C59070   6.467   8.016   0.102  0.0981 -0.1247 -0.7788
  448MOL0     H59071   6.445   8.083   0.602 -0.6670  1.4425 -1.3708
  448MOL0     H59072   6.348   8.087   0.825  0.0625  0.2717 -0.7011
  448MOL0     H59073   6.172   8.185   0.950  2.6610 -0.5244  2.4522
  448MOL0     H59074   6.227   8.038   1.028  1.6331  0.3108 -3.8923
  448MOL0     H59075   6.045   8.114   1.181  0.3875  0.3402 -0.0476
  448MOL0     H59076   5.977   7.984   1.090 -1.4008  0.8790  2.7292
  448MOL0     H59077   5.937   8.254   0.972  1.6359 -2.0548 -0.2918
  448MOL0     H59078   5.856   8.230   1.129  1.6878 -3.1620  3.1811
  448MOL0     H59079   5.733   8.167   0.918 -2.4343  0.5919  3.6740
  448MOL0     H59080   5.835   8.022   0.909  3.4428 -0.0719  1.3279
  448MOL0     H59081   5.629   8.124   1.119  2.0405  2.1965 -0.9488
  448MOL0     H59082   5.722   7.986   1.164 -0.9990 -3.1121 -0.5896
  448MOL0     H59083   5.632   7.837   0.982 -3.1201 -2.5180 -2.2555
  448MOL0     H59084   5.577   7.972   0.897 -1.4302 -1.5281 -0.2547
  448MOL0     H59085   5.474   7.878   1.182  0.0381 -0.0912 -0.9325
  448MOL0     H59086   5.392   7.996   1.086  0.8402  0.9397  1.7149
  448MOL0     H59087   5.414   7.704   1.025 -0.6703  0.2388  2.5873
  448MOL0     H59088   5.351   7.819   0.909  0.3861  1.2581 -0.1588
  448MOL0     H59089   5.255   7.694   1.262 -2.1989 -1.5009  2.6098
  448MOL0     H59090   4.849   7.747   1.271  0.4801  0.2513 -1.8508
  448MOL0     H59091   4.981   7.794   1.377 -1.6811 -0.8604  1.9543
  448MOL0     H59092   5.051   7.556   1.387 -0.3415 -1.9362 -0.6679
  448MOL0     H59093   4.937   7.517   1.249 -0.0235  1.0010 -0.9420
  448MOL0     H59094   4.741   7.566   1.407 -0.0219 -3.3364 -2.3254
  448MOL0     H59095   4.846   7.446   1.490 -2.5122  0.2906  3.8561
  448MOL0     H59096   4.833   7.744   1.559  0.8983  0.4102 -0.7423
  448MOL0     H59097   4.983   7.664   1.562 -0.1619  1.6087 -0.4864
  448MOL0     H59098   4.697   7.374   1.580 -0.0637 -0.3258  0.5012
  448MOL0     H59099   4.462   7.338   1.599 -0.6592  0.8202  1.1915
  448MOL0     H59100   4.055   7.527   1.489  0.8410 -1.0032 -0.7842
  448MOL0     H59101   3.838   7.462   1.456 -0.4410 -0.1813  0.6708
  448MOL0     H59102   3.636   7.173   1.754  0.0021 -2.9584  0.1642
  448MOL0     H59103   3.705   7.079   1.618 -1.4939 -1.2257  2.2464
  448MOL0     H59104   3.489   7.135   1.500 -0.4888 -3.9599  1.6727
  448MOL0     H59105   3.438   7.247   1.620 -0.6494  0.2349 -4.0720
  448MOL0     H59106   3.387   7.088   1.785 -1.0236 -3.3260  0.9566
  448MOL0     H59107   3.454   6.957   1.711  1.8765  1.0377 -0.8376
  448MOL0     H59108   3.221   7.140   1.629  0.2159  0.7941  2.6577
  448MOL0     H59109   3.263   6.983   1.538  2.4265 -2.7150  1.2043
  448MOL0     H59110   3.200   7.000   1.829  1.2119 -0.4514  0.3300
  448MOL0     H59111   3.219   6.850   1.734 -1.4347 -0.8131  0.2531
  448MOL0     H59112   2.995   6.864   1.766  0.2233 -0.2476 -0.1223
  448MOL0     H59113   3.027   6.902   1.597  1.1582 -0.0383  0.3705
  448MOL0     H59114   2.978   7.096   1.818 -1.0491 -0.7313 -0.3673
  448MOL0     H59115   3.008   7.142   1.646  0.8221  0.4716  2.0237
  448MOL0     H59116   2.786   6.982   1.784 -0.2044 -0.5404 -0.7961
  448MOL0     H59117   2.805   7.009   1.599  1.8820 -1.3146  0.0941
  448MOL0     H59118   3.885   7.137   1.742 -0.2030  0.3551  0.0812
  448MOL0     H59119   4.116   7.197   1.764  3.7440 -0.6886 -2.9843
  448MOL0     H59120   4.425   7.713   1.814 -4.0837 -2.6655 -1.6477
  448MOL0     H59121   4.658   7.746   1.819 -0.9743  0.1437  0.0800
  448MOL0     H59122   5.988   7.940   0.658  0.8980  0.8543  3.3985
  448MOL0     H59123   6.087   7.923   0.438 -0.1335  0.2335 -0.3206
  448MOL0     H59124   6.702   7.830   0.267  1.5313 -0.3346 -1.5260
  448MOL0     H59125   6.793   7.819   0.038 -0.4299 -2.0229 -1.8348
  448MOL0     H59126   6.739   8.007  -0.353 -1.1957 -0.5036 -2.1861
  448MOL0     H59127   6.626   8.091  -0.249 -2.9799 -2.2037 -0.2147
  448MOL0     H59128   6.583   7.815  -0.367  1.7553  0.9320 -2.8827
  448MOL0     H59129   6.458   7.910  -0.276  2.2854 -2.9978  2.3304
  448MOL0     H59130   6.596   8.009  -0.530 -1.3351 -1.4467 -1.3038
  448MOL0     H59131   6.449   8.078  -0.456 -1.5463 -0.8075 -0.7124
  448MOL0     H59132   6.455   7.794  -0.537 -0.1915  0.8843  2.4285
  448MOL0     H59133   6.315   7.907  -0.523 -0.4551 -2.9739  0.5323
  448MOL0     H59134   6.514   7.979  -0.900  0.3993  0.6431  0.2893
  448MOL0     H59135   6.471   8.065  -0.096  0.6498  3.5099  2.7350
  448MOL0     H59136   6.370   8.063   0.104 -0.6443 -1.5889  1.1280
  449MOL0     O59137   0.190   7.125   2.010  0.0737  0.4133  0.1867
  449MOL0     C59138   0.181   7.070   2.113 -0.1560 -0.0419 -0.3077
  449MOL0     O59139   0.274   7.038   2.204 -0.2085 -0.6403 -0.1310
  449MOL0     C59140   0.396   7.094   2.209  0.8826 -0.0146 -0.1354
  449MOL0     C59141   0.494   7.005   2.245 -0.4143 -0.6200  0.2578
  449MOL0     C59142   0.626   7.060   2.256  0.0742  0.1338  0.6152
  449MOL0     C59143   0.658   7.191   2.212  0.0621 -0.2138 -0.6521
  449MOL0     O59144   0.782   7.251   2.211 -0.2376 -0.8205  0.0884
  449MOL0     C59145   0.892   7.213   2.303  1.0266 -0.1413  0.0319
  449MOL0     C59146   1.024   7.253   2.237  0.1813 -0.8365  0.2517
  449MOL0     C59147   1.142   7.215   2.327  0.0601  0.4776 -0.6262
  449MOL0     C59148   1.278   7.266   2.276  0.7339 -0.3314  0.2905
  449MOL0     C59149   1.414   7.223   2.347 -0.0682 -0.4208 -0.1358
  449MOL0     C59150   1.393   7.219   2.504 -0.5795  0.1802 -0.0043
  449MOL0     C59151   1.515   7.184   2.583 -0.0715  0.6420 -0.6094
  449MOL0     C59152   1.550   7.034   2.589  0.6109 -1.0494  0.6803
  449MOL0     N59153   1.674   7.006   2.666  0.5119  0.2545 -0.1205
  449MOL0     C59154   1.669   6.999   2.804 -0.5756  0.2028  0.5502
  449MOL0     C59155   1.794   6.973   2.841 -0.3410  0.7242  0.4368
  449MOL0     C59156   1.850   6.998   2.973 -0.7039 -0.3357 -1.2548
  449MOL0     C59157   1.957   6.899   3.002  1.1523 -0.4087  0.0571
  449MOL0     C59158   2.008   6.900   3.145 -0.0025 -0.0845 -0.1167
  449MOL0     C59159   2.117   6.794   3.179  1.1474 -0.6562 -1.0534
  449MOL0     O59160   2.239   6.867   3.136  0.2879  0.3189  0.5501
  449MOL0     C59161   2.331   6.910   3.232 -0.0627 -0.2760 -0.3656
  449MOL0     C59162   2.293   6.970   3.353  0.6087 -0.2089 -0.5431
  449MOL0     C59163   2.382   7.009   3.460  0.0271  0.8527 -0.2572
  449MOL0     C59164   2.518   6.964   3.443 -0.1242  0.8215 -0.4344
  449MOL0     C59165   2.620   6.984   3.552 -1.5413  0.1233 -0.2303
  449MOL0     O59166   2.587   7.049   3.660 -0.2865  0.4253 -0.2778
  449MOL0     C59167   2.690   7.100   3.735  0.3275 -0.1230  0.7555
  449MOL0     C59168   2.752   7.219   3.699 -0.3177  0.1441  0.4183
  449MOL0     C59169   2.870   7.253   3.771 -0.8145 -0.5487  0.5418
  449MOL0     C59170   2.908   7.178   3.887 -0.5163 -0.3193  0.1089
  449MOL0     O59171   3.014   7.207   3.967 -0.6531  0.1415  0.1946
  449MOL0     C59172   3.011   7.335   4.031 -0.3577 -0.7487  0.1785
  449MOL0     C59173   3.100   7.340   4.161  0.7222 -0.4446  0.3628
  449MOL0     C59174   3.028   7.252   4.262 -0.1096  0.0807 -0.1367
  449MOL0     C59175   3.112   7.226   4.400  0.0410 -0.1186  0.0284
  449MOL0     C59176   3.014   7.171   4.511 -0.2743  0.4020 -0.0114
  449MOL0     C59177   3.102   7.138   4.637  0.4870  0.6509 -0.7421
  449MOL0     C59178   3.023   7.092   4.767 -1.0175 -0.3904  0.7567
  449MOL0     C59179   3.111   7.070   4.887 -0.1002 -0.4521 -0.1335
  449MOL0    Cl59180   3.223   6.927   4.874 -0.0482  0.1113 -0.6928
  449MOL0     C59181   2.836   7.071   3.921  0.1125 -0.4250 -0.0786
  449MOL0     C59182   2.740   7.033   3.839  0.4493  0.7638  0.2898
  449MOL0     O59183   2.721   6.914   3.541 -0.4456 -0.1061  0.4883
  449MOL0     C59184   2.554   6.905   3.324 -0.5661  0.5505  1.0302
  449MOL0     C59185   2.470   6.891   3.219 -0.9203  0.0885  0.5502
  449MOL0     N59186   1.869   6.965   2.722 -0.1209  0.2570 -0.1108
  449MOL0     N59187   1.795   6.992   2.621  0.0136 -0.1067 -0.5749
  449MOL0     C59188   0.561   7.273   2.167  0.6871  0.7464  0.2974
  449MOL0     C59189   0.431   7.224   2.166 -0.1378  0.1687  0.5860
  449MOL0     C59190   0.034   7.028   2.139  0.2451 -0.7926 -0.3564
  449MOL0     C59191  -0.079   7.050   2.057  0.0086 -0.6969 -0.1807
  449MOL0     C59192  -0.215   7.010   2.091 -0.5087  0.1091 -1.0195
  449MOL0     C59193  -0.241   6.940   2.206  0.1739 -0.6474  0.0759
  449MOL0     O59194  -0.368   6.916   2.248 -0.6287  0.4446 -1.1445
  449MOL0     C59195  -0.481   6.935   2.177  0.1168 -0.1558  0.2850
  449MOL0     C59196  -0.500   6.841   2.056 -0.4630 -0.2151  0.1087
  449MOL0     C59197  -0.461   6.696   2.093  0.0343  0.4647  0.4129
  449MOL0     C59198  -0.461   6.620   1.966  0.0958 -0.1592 -0.7896
  449MOL0     C59199  -0.432   6.478   1.991 -0.6287  0.2758 -0.0094
  449MOL0     C59200  -0.371   6.367   2.003  0.5977 -0.2191 -0.7126
  449MOL0     C59201  -0.128   6.902   2.282 -0.6843 -0.4019 -0.8392
  449MOL0     C59202   0.000   6.947   2.252 -0.1669  0.5095  0.4542
  449MOL0     H59203   0.473   6.900   2.262 -2.5278 -0.3783 -0.6057
  449MOL0     H59204   0.694   6.986   2.296 -2.8294 -1.8462  2.3140
  449MOL0     H59205   0.884   7.105   2.311 -1.6807  0.0638  1.0207
  449MOL0     H59206   0.886   7.271   2.396  1.1459 -0.6665  0.3728
  449MOL0     H59207   1.005   7.360   2.219 -4.8159 -1.4950  0.3147
  449MOL0     H59208   1.038   7.210   2.137  5.2298  3.5134 -1.4383
  449MOL0     H59209   1.141   7.108   2.347  2.1163  0.6998  1.1105
  449MOL0     H59210   1.135   7.276   2.418  0.4161 -2.1855  1.2983
  449MOL0     H59211   1.294   7.226   2.176  1.7289 -0.7352  0.5972
  449MOL0     H59212   1.272   7.375   2.270 -1.9347 -0.3817  0.9366
  449MOL0     H59213   1.489   7.295   2.315  0.8021 -2.1204 -2.1434
  449MOL0     H59214   1.434   7.124   2.305  0.7294 -1.1059  1.7362
  449MOL0     H59215   1.315   7.145   2.522  1.0224 -1.3233  1.1444
  449MOL0     H59216   1.364   7.317   2.542 -0.6890 -0.0842  0.5933
  449MOL0     H59217   1.593   7.236   2.527 -2.0319  1.3508 -2.9053
  449MOL0     H59218   1.506   7.233   2.680 -0.2653 -0.0399 -0.2752
  449MOL0     H59219   1.573   6.993   2.490 -1.2853 -0.2853 -0.1318
  449MOL0     H59220   1.460   6.988   2.631 -0.9789  2.4263  1.4291
  449MOL0     H59221   1.588   7.029   2.869  0.9195  1.6958  1.8271
  449MOL0     H59222   1.774   6.999   3.052 -0.1789  2.7812 -0.6619
  449MOL0     H59223   1.889   7.100   2.981  2.9399 -1.7236  1.6553
  449MOL0     H59224   2.041   6.899   2.932  0.2906  2.9641 -1.1665
  449MOL0     H59225   1.913   6.799   2.991  4.4582 -2.0048 -0.0520
  449MOL0     H59226   2.032   7.004   3.170  0.4017  0.0256 -0.9259
  449MOL0     H59227   1.921   6.873   3.205 -0.5912 -2.6115 -1.9309
  449MOL0     H59228   2.095   6.702   3.124 -1.2234 -0.9881  0.3278
  449MOL0     H59229   2.106   6.765   3.284 -1.3649 -1.6358 -1.5190
  449MOL0     H59230   2.188   7.000   3.354  0.7055  0.1367  1.1538
  449MOL0     H59231   2.357   7.065   3.549 -1.9211 -2.1867  1.2796
  449MOL0     H59232   2.725   7.278   3.612 -0.8398 -0.0916  0.4112
  449MOL0     H59233   2.923   7.338   3.729 -0.5677 -1.1137 -0.3210
  449MOL0     H59234   2.912   7.376   4.055 -0.6005 -2.2140  1.8257
  449MOL0     H59235   3.049   7.391   3.945  0.7005 -1.3857  0.2146
  449MOL0     H59236   3.099   7.436   4.213  1.1295  0.5342 -1.3664
  449MOL0     H59237   3.203   7.307   4.144  1.3838  2.0922 -0.9611
  449MOL0     H59238   3.022   7.152   4.218 -0.3419 -0.1400  0.3860
  449MOL0     H59239   2.927   7.288   4.284 -0.5699 -1.0357 -0.3771
  449MOL0     H59240   3.192   7.152   4.391 -1.4928 -2.3034  2.7737
  449MOL0     H59241   3.145   7.323   4.438  2.4132  0.1851 -2.4877
  449MOL0     H59242   2.973   7.080   4.468  3.1922 -2.0228  1.2800
  449MOL0     H59243   2.944   7.253   4.528 -0.3855  0.2542  0.2415
  449MOL0     H59244   3.168   7.219   4.670  0.9378 -0.3969  1.0815
  449MOL0     H59245   3.171   7.056   4.617 -0.7667 -0.0414 -2.4699
  449MOL0     H59246   2.955   7.176   4.784 -0.3670  0.1426  0.7637
  449MOL0     H59247   2.959   7.009   4.735  1.0603 -1.4711 -0.8340
  449MOL0     H59248   3.049   7.050   4.974  1.8170  1.5917  1.8116
  449MOL0     H59249   3.160   7.164   4.911 -2.9692  0.4619  2.7995
  449MOL0     H59250   2.855   7.005   4.005 -0.4186 -0.8812 -0.3056
  449MOL0     H59251   2.686   6.941   3.860 -0.0827  1.0634  0.2492
  449MOL0     H59252   2.657   6.876   3.304 -0.1448  1.4348  1.8722
  449MOL0     H59253   2.502   6.853   3.123  0.9712  2.8519 -0.0231
  449MOL0     H59254   0.574   7.377   2.141 -0.0180  0.9545  0.7695
  449MOL0     H59255   0.353   7.293   2.137  0.6882  0.2410 -1.6689
  449MOL0     H59256  -0.067   7.093   1.958 -0.3906  0.0120  0.0707
  449MOL0     H59257  -0.296   7.043   2.027 -2.9837 -0.9510  1.4120
  449MOL0     H59258  -0.470   7.039   2.146  2.8557 -0.7494 -1.0366
  449MOL0     H59259  -0.574   6.925   2.234  0.1728 -1.3533  0.1848
  449MOL0     H59260  -0.603   6.847   2.018 -0.7546 -1.8322  0.5591
  449MOL0     H59261  -0.424   6.871   1.984  2.6127 -4.0151  1.4149
  449MOL0     H59262  -0.539   6.659   2.161  0.0876  2.1120  1.4249
  449MOL0     H59263  -0.362   6.697   2.139  0.6564  1.5327 -0.8928
  449MOL0     H59264  -0.550   6.634   1.903 -1.1570  1.6241  1.2515
  449MOL0     H59265  -0.383   6.666   1.905  0.5150  1.0780  0.6231
  449MOL0     H59266  -0.311   6.279   2.014  0.7357 -0.2825 -1.8768
  449MOL0     H59267  -0.153   6.842   2.369  1.2582  0.0995  0.1107
  449MOL0     H59268   0.078   6.900   2.312  0.2959  0.4357 -0.1947
  450MOL0     O59269   1.350   1.170   0.714  0.1285 -0.0935  0.0552
  450MOL0     C59270   1.251   1.240   0.673 -0.1286  0.3141 -0.3082
  450MOL0     O59271   1.193   1.245   0.549 -0.7368  0.5783  0.0025
  450MOL0     C59272   1.236   1.148   0.460  0.1544 -0.6414  0.5212
  450MOL0     C59273   1.156   1.158   0.347 -0.3698  0.2005 -0.4216
  450MOL0     C59274   1.190   1.095   0.220  0.6499 -0.8025 -0.4301
  450MOL0     C59275   1.295   1.006   0.212  0.2737  0.2206 -0.4781
  450MOL0     O59276   1.347   0.963   0.097 -0.6720  0.5374 -0.2601
  450MOL0     C59277   1.266   0.960  -0.020  0.8779 -0.0430  0.8175
  450MOL0     C59278   1.352   0.920  -0.141  0.5089 -0.0080  0.4343
  450MOL0     C59279   1.269   0.893  -0.268  0.3975 -0.3364  0.5424
  450MOL0     C59280   1.369   0.847  -0.388  0.0467  0.4520  0.4948
  450MOL0     C59281   1.437   0.709  -0.373  0.4922 -0.2795  0.6181
  450MOL0     C59282   1.399   0.619  -0.486  0.0286  0.9544 -0.1429
  450MOL0     C59283   1.485   0.646  -0.616  0.8143 -0.5344 -0.3362
  450MOL0     C59284   1.466   0.779  -0.695 -0.0693  0.2826 -0.0548
  450MOL0     N59285   1.333   0.825  -0.735 -0.2516 -0.0108  0.5819
  450MOL0     C59286   1.299   0.950  -0.724 -0.0232 -0.0551 -0.0073
  450MOL0     C59287   1.167   0.953  -0.760  0.3030  0.3614  0.0839
  450MOL0     C59288   1.067   1.067  -0.755  0.3438  0.0413 -0.6670
  450MOL0     C59289   1.074   1.134  -0.905  0.0895 -0.1032 -0.3697
  450MOL0     C59290   0.963   1.238  -0.918  0.5408  0.5233  0.2137
  450MOL0     C59291   0.810   1.203  -0.882  0.3622  0.9103  0.0055
  450MOL0     O59292   0.773   1.071  -0.943  0.1279  0.3580  0.3655
  450MOL0     C59293   0.759   1.049  -1.085 -0.0602 -0.0731  0.0537
  450MOL0     C59294   0.721   0.917  -1.120  0.9556  0.2145 -0.0343
  450MOL0     C59295   0.689   0.884  -1.252 -0.5766  0.1546  0.0577
  450MOL0     C59296   0.697   0.983  -1.348  1.4741 -0.3989  0.1383
  450MOL0     C59297   0.662   0.947  -1.488 -0.6264  0.1167  0.6715
  450MOL0     O59298   0.654   0.808  -1.516  0.4126 -0.2030 -0.3255
  450MOL0     C59299   0.629   0.781  -1.646  0.2335  0.0988 -0.4781
  450MOL0     C59300   0.506   0.814  -1.712 -0.4893  0.4602 -0.0861
  450MOL0     C59301   0.486   0.783  -1.846 -0.1593  0.0210 -0.1655
  450MOL0     C59302   0.593   0.731  -1.920  0.2458 -0.1818  0.3224
  450MOL0     O59303   0.567   0.707  -2.054  0.2531  0.3069  0.3127
  450MOL0     C59304   0.662   0.634  -2.132 -0.8265 -1.2408  0.5873
  450MOL0     C59305   0.621   0.485  -2.139 -0.6598 -0.8004 -0.1575
  450MOL0     C59306   0.706   0.434  -2.254 -0.0326  0.7167 -0.2863
  450MOL0     C59307   0.711   0.268  -2.263 -0.9238 -0.2798 -0.0916
  450MOL0     C59308   0.569   0.213  -2.237 -1.1418  0.1268  0.6910
  450MOL0     C59309   0.481   0.230  -2.366  0.5214 -0.2922 -1.0762
  450MOL0     C59310   0.343   0.175  -2.333 -1.0834  0.6610  1.5246
  450MOL0     C59311   0.241   0.179  -2.449  0.0967 -0.3009  0.3627
  450MOL0    Cl59312   0.216   0.343  -2.506  0.2632 -0.1767  0.4401
  450MOL0     C59313   0.714   0.699  -1.849 -0.3786  0.0974  0.4245
  450MOL0     C59314   0.737   0.715  -1.710 -1.0707 -0.3132 -0.9072
  450MOL0     O59315   0.666   1.037  -1.568  0.6082 -0.2649 -0.3666
  450MOL0     C59316   0.742   1.113  -1.322  0.0497 -0.5364  0.6892
  450MOL0     C59317   0.767   1.143  -1.191  0.2097 -0.2583 -0.1814
  450MOL0     N59318   1.129   0.824  -0.784  0.0812 -0.1229 -0.4023
  450MOL0     N59319   1.230   0.744  -0.764 -0.1500 -0.5930 -0.1361
  450MOL0     C59320   1.377   1.004   0.328 -0.2997  0.2499 -1.1045
  450MOL0     C59321   1.349   1.075   0.450  0.2766  0.5859  1.3220
  450MOL0     C59322   1.204   1.343   0.776  0.8795 -0.1525  0.0922
  450MOL0     C59323   1.287   1.371   0.880 -1.1174  0.0405  0.3306
  450MOL0     C59324   1.233   1.455   0.985 -0.0725  0.5678  0.1736
  450MOL0     C59325   1.108   1.521   0.977 -0.5486 -0.2119  0.3458
  450MOL0     O59326   1.066   1.600   1.083  0.0921 -0.0191  0.2938
  450MOL0     C59327   0.946   1.681   1.075  0.1215 -0.9675  0.7255
  450MOL0     C59328   0.884   1.749   1.192 -0.7991  0.0742  0.4854
  450MOL0     C59329   0.748   1.825   1.168 -0.5250  0.0704  0.5507
  450MOL0     C59330   0.704   1.889   1.292  0.4203 -0.2062  0.0751
  450MOL0     C59331   0.597   1.984   1.269 -0.5250  0.3659  0.4906
  450MOL0     C59332   0.524   2.077   1.256  0.7219 -0.4101 -0.2416
  450MOL0     C59333   1.032   1.500   0.866  0.8034  0.3173 -0.3817
  450MOL0     C59334   1.075   1.395   0.773 -0.7827 -0.5071 -0.4288
  450MOL0     H59335   1.066   1.218   0.346 -0.1590  0.5270 -0.9831
  450MOL0     H59336   1.120   1.128   0.144 -0.6369  1.8903  1.7345
  450MOL0     H59337   1.215   1.055  -0.041  0.1844 -0.5695  0.0206
  450MOL0     H59338   1.188   0.884  -0.024  0.1860  0.6835 -1.5789
  450MOL0     H59339   1.401   0.829  -0.108  0.7034 -0.7250 -1.6947
  450MOL0     H59340   1.438   0.985  -0.160  0.2204  0.2635  0.0575
  450MOL0     H59341   1.214   0.980  -0.305 -0.8812 -1.6513 -0.7382
  450MOL0     H59342   1.200   0.811  -0.250 -1.4826  0.6331 -1.7313
  450MOL0     H59343   1.305   0.855  -0.476 -1.8793 -4.2582  1.1871
  450MOL0     H59344   1.449   0.922  -0.391 -0.2517  0.7426 -2.0946
  450MOL0     H59345   1.424   0.668  -0.273  0.9962  1.5615  1.4739
  450MOL0     H59346   1.545   0.729  -0.371  0.8442 -1.1683 -2.8921
  450MOL0     H59347   1.292   0.617  -0.511  0.5881  0.7291 -2.8250
  450MOL0     H59348   1.432   0.519  -0.460  1.4922  1.8534  1.6957
  450MOL0     H59349   1.591   0.628  -0.598  1.5396 -2.1604 -4.9089
  450MOL0     H59350   1.460   0.567  -0.688 -2.1186 -0.1010  0.0567
  450MOL0     H59351   1.524   0.760  -0.786  3.7824 -0.7963  2.3802
  450MOL0     H59352   1.518   0.854  -0.635 -2.5452  2.6638 -0.7138
  450MOL0     H59353   1.364   1.032  -0.692  0.7076  0.9213 -3.5168
  450MOL0     H59354   1.080   1.143  -0.677  2.4349  0.2183 -1.1117
  450MOL0     H59355   0.967   1.026  -0.738 -1.5775  3.3647 -2.7367
  450MOL0     H59356   1.054   1.059  -0.982 -0.2655 -0.5793  0.1707
  450MOL0     H59357   1.172   1.177  -0.927 -0.8324  0.7946 -3.0547
  450MOL0     H59358   0.983   1.337  -0.875  1.4967  1.0093 -1.2804
  450MOL0     H59359   0.973   1.239  -1.027  0.1340 -3.5079 -0.0114
  450MOL0     H59360   0.737   1.272  -0.925  1.1839  1.0047 -1.2836
  450MOL0     H59361   0.793   1.201  -0.774 -0.1592 -1.7753 -0.0459
  450MOL0     H59362   0.724   0.847  -1.037  2.2922  2.1295  1.6367
  450MOL0     H59363   0.657   0.788  -1.291 -2.1427  1.0262 -0.9740
  450MOL0     H59364   0.429   0.850  -1.645 -2.8751 -0.0562 -2.3799
  450MOL0     H59365   0.386   0.808  -1.880 -0.7328  0.2637  1.5643
  450MOL0     H59366   0.766   0.647  -2.101 -0.0523  0.4379 -2.3727
  450MOL0     H59367   0.657   0.686  -2.228  3.3559 -0.3816  0.6618
  450MOL0     H59368   0.512   0.484  -2.149 -1.2099  2.5220  3.2894
  450MOL0     H59369   0.639   0.437  -2.042 -0.8699 -1.2969 -0.3619
  450MOL0     H59370   0.810   0.465  -2.240  0.0898  0.2824 -0.2080
  450MOL0     H59371   0.661   0.465  -2.348  0.8634  1.6995 -0.4144
  450MOL0     H59372   0.758   0.221  -2.349 -0.5873 -1.1848  0.5716
  450MOL0     H59373   0.774   0.250  -2.175 -0.7227  4.7011  1.0923
  450MOL0     H59374   0.516   0.257  -2.153  2.0420  2.3829  1.7078
  450MOL0     H59375   0.589   0.106  -2.222 -1.4752 -0.1272 -0.5092
  450MOL0     H59376   0.530   0.171  -2.443 -1.7289  0.0058 -2.8393
  450MOL0     H59377   0.460   0.333  -2.398  1.0670 -0.5201 -2.2005
  450MOL0     H59378   0.347   0.072  -2.296 -1.7470  1.0940  2.9023
  450MOL0     H59379   0.290   0.230  -2.255 -1.4458 -0.7101  2.2688
  450MOL0     H59380   0.143   0.143  -2.415 -0.4971  2.1700  1.5094
  450MOL0     H59381   0.270   0.117  -2.534  2.0202 -0.6945  1.2489
  450MOL0     H59382   0.799   0.658  -1.902  1.6150  2.5952  1.4843
  450MOL0     H59383   0.828   0.698  -1.654 -0.7955 -1.5690 -1.7077
  450MOL0     H59384   0.750   1.192  -1.396  0.1975 -0.8522  0.3661
  450MOL0     H59385   0.808   1.239  -1.161 -1.3563 -0.1232  1.6800
  450MOL0     H59386   1.468   0.944   0.327 -1.2365 -1.2934  0.2393
  450MOL0     H59387   1.409   1.050   0.538 -0.4146 -1.0562  1.3585
  450MOL0     H59388   1.390   1.340   0.876 -0.0396  3.1655  0.6768
  450MOL0     H59389   1.293   1.471   1.074  0.7771  0.1963 -0.3146
  450MOL0     H59390   0.865   1.630   1.021 -0.6822 -0.5077  1.4739
  450MOL0     H59391   0.971   1.757   1.001 -1.0412 -1.1378  0.1418
  450MOL0     H59392   0.879   1.672   1.270  0.5702  0.4668  0.9899
  450MOL0     H59393   0.961   1.819   1.225 -1.4401  1.0742 -0.0902
  450MOL0     H59394   0.664   1.757   1.148 -0.6465 -0.3928  2.4137
  450MOL0     H59395   0.770   1.908   1.101 -1.3001 -0.1232  0.0520
  450MOL0     H59396   0.676   1.809   1.361  1.7082 -0.2220  0.6146
  450MOL0     H59397   0.783   1.935   1.353 -1.0400  0.2403  1.7322
  450MOL0     H59398   0.457   2.159   1.238  0.4309 -0.6797 -0.4037
  450MOL0     H59399   0.931   1.540   0.861 -0.0620 -1.5012  0.9704
  450MOL0     H59400   1.015   1.366   0.688 -0.3388 -2.7560 -0.0552
  451MOL0     O59401   0.086   9.859   7.080  0.0325  0.7120 -0.1725
  451MOL0     C59402   0.007   9.796   7.006 -0.2084 -0.0914 -0.0336
  451MOL0     O59403  -0.092   9.849   6.935  0.0869 -0.2476  0.5082
  451MOL0     C59404  -0.114   9.987   6.913 -0.6281  0.0829 -0.2421
  451MOL0     C59405  -0.069  10.086   7.010  0.1033  0.9585  0.3385
  451MOL0     C59406  -0.090  10.215   6.978 -0.4320 -0.5762  0.8696
  451MOL0     C59407  -0.143  10.253   6.851  0.2020  0.2874 -1.4469
  451MOL0     O59408  -0.144  10.385   6.829 -0.4611  0.3577  0.0226
  451MOL0     C59409  -0.214  10.430   6.712  0.1641 -0.2774 -0.9227
  451MOL0     C59410  -0.151  10.553   6.657  0.8247  1.0521 -0.1478
  451MOL0     C59411  -0.155  10.665   6.759  0.3025  0.6475 -0.1995
  451MOL0     C59412  -0.112  10.797   6.694 -0.5541  0.0801 -0.7043
  451MOL0     C59413  -0.112  10.914   6.794  0.1126  0.4114  0.3316
  451MOL0     C59414  -0.004  11.014   6.747 -0.5441  0.3292  0.9115
  451MOL0     C59415   0.002  11.132   6.838  0.7103 -0.3524 -0.3879
  451MOL0     C59416   0.077  11.256   6.794 -0.2002 -0.2866  0.8476
  451MOL0     N59417   0.227  11.268   6.802  0.4889  0.9623  0.8808
  451MOL0     C59418   0.288  11.277   6.922  0.2099  0.2671  0.2443
  451MOL0     C59419   0.422  11.263   6.898 -0.7064 -1.0073  0.5337
  451MOL0     C59420   0.546  11.265   6.990  0.0993  0.3657  0.6110
  451MOL0     C59421   0.613  11.405   6.993 -1.2262 -0.7304 -0.2657
  451MOL0     C59422   0.660  11.461   6.857  0.3285 -0.3420 -0.5164
  451MOL0     C59423   0.767  11.385   6.786 -0.9401 -0.2315 -0.1699
  451MOL0     O59424   0.873  11.351   6.879 -0.3743 -0.2040  0.7714
  451MOL0     C59425   0.989  11.292   6.847  0.4682 -0.1292 -0.0411
  451MOL0     C59426   1.093  11.302   6.941  0.4317 -0.2418  0.6695
  451MOL0     C59427   1.225  11.275   6.914  0.0914  0.2671  0.8432
  451MOL0     C59428   1.252  11.204   6.798 -0.2433  0.3992 -0.1927
  451MOL0     C59429   1.383  11.144   6.770 -0.2622  1.0937 -0.6529
  451MOL0     O59430   1.394  11.052   6.664 -0.2330  0.1968 -0.6911
  451MOL0     C59431   1.517  10.999   6.651  0.1205 -0.3005 -0.3147
  451MOL0     C59432   1.545  10.871   6.709 -0.1942 -0.1905 -0.5542
  451MOL0     C59433   1.671  10.812   6.684 -0.3797 -1.4037 -0.0442
  451MOL0     C59434   1.771  10.886   6.618 -0.6335 -0.2244  0.2812
  451MOL0     O59435   1.898  10.839   6.599 -0.1553  0.4678 -0.2168
  451MOL0     C59436   1.898  10.785   6.462 -0.3348 -0.6151 -0.1140
  451MOL0     C59437   1.990  10.669   6.451  0.4340  0.0473  0.1538
  451MOL0     C59438   2.139  10.695   6.436 -0.0132 -0.8144 -0.0825
  451MOL0     C59439   2.218  10.576   6.382  0.7080 -1.0268  1.2523
  451MOL0     C59440   2.367  10.633   6.359 -0.0375 -0.0528 -0.6866
  451MOL0     C59441   2.390  10.738   6.253  0.3992 -0.3300  0.3952
  451MOL0     C59442   2.536  10.780   6.243  0.3998  0.4231  0.6270
  451MOL0     C59443   2.619  10.670   6.182 -0.8507 -0.1601 -1.2122
  451MOL0    Cl59444   2.672  10.567   6.318 -0.0637  0.4694 -0.0468
  451MOL0     C59445   1.742  11.012   6.565 -0.6595 -1.1145 -0.2844
  451MOL0     C59446   1.612  11.067   6.579 -0.1932 -0.1910 -0.1800
  451MOL0     O59447   1.470  11.174   6.849  0.1244 -0.0701  1.0080
  451MOL0     C59448   1.149  11.171   6.715 -0.3857  0.3300  0.8993
  451MOL0     C59449   1.017  11.223   6.734 -1.0012  0.1331 -0.0164
  451MOL0     N59450   0.441  11.230   6.759  0.5616  0.4041  0.5166
  451MOL0     N59451   0.317  11.221   6.705  0.0581 -0.0343  0.7960
  451MOL0     C59452  -0.190  10.154   6.764  0.1596  0.7694 -0.2228
  451MOL0     C59453  -0.176  10.023   6.794  1.0811  0.9574  0.4447
  451MOL0     C59454   0.008   9.657   7.007 -0.7951  0.1823 -0.1278
  451MOL0     C59455  -0.100   9.569   6.975  0.2891 -0.0755  0.5117
  451MOL0     C59456  -0.104   9.436   7.014 -1.0577 -0.8418  0.2655
  451MOL0     C59457   0.008   9.375   7.068  0.3096  0.6752  0.4139
  451MOL0     O59458  -0.020   9.243   7.103 -0.6215 -0.0326  0.0801
  451MOL0     C59459   0.091   9.161   7.136  0.3771  0.3459  0.1695
  451MOL0     C59460   0.049   9.011   7.146 -0.2780 -0.1094 -0.1519
  451MOL0     C59461   0.166   8.909   7.149  0.0327 -0.2267  0.1563
  451MOL0     C59462   0.256   8.908   7.278 -0.5150  0.7366 -0.7258
  451MOL0     C59463   0.343   8.794   7.277 -0.9446 -1.1982 -0.0901
  451MOL0     C59464   0.422   8.706   7.265 -0.2221  0.1712  0.9915
  451MOL0     C59465   0.128   9.444   7.087 -1.1196 -0.1105  0.5136
  451MOL0     C59466   0.123   9.585   7.062  0.5864 -0.4139 -0.3786
  451MOL0     H59467  -0.019  10.057   7.102  2.0855 -3.3880 -1.7858
  451MOL0     H59468  -0.062  10.298   7.042  2.3611 -0.6511 -0.1279
  451MOL0     H59469  -0.319  10.445   6.738  0.4111  0.7468 -0.4295
  451MOL0     H59470  -0.226  10.360   6.629 -0.7111 -1.3959  0.1229
  451MOL0     H59471  -0.217  10.585   6.576  0.3329 -0.3318 -0.3190
  451MOL0     H59472  -0.051  10.532   6.619 -0.5133 -4.2009 -1.6572
  451MOL0     H59473  -0.093  10.647   6.848  0.1711 -0.9830 -0.3944
  451MOL0     H59474  -0.260  10.682   6.787  0.0070  4.1857 -2.8532
  451MOL0     H59475  -0.009  10.780   6.662 -0.1007  0.0929  0.7176
  451MOL0     H59476  -0.183  10.816   6.613 -0.0693  4.0478 -0.3881
  451MOL0     H59477  -0.099  10.888   6.899 -1.6529  1.5464  0.8779
  451MOL0     H59478  -0.207  10.967   6.786  0.5663  1.4981  1.6776
  451MOL0     H59479  -0.022  11.046   6.644  1.5194 -2.8361 -0.5909
  451MOL0     H59480   0.091  10.961   6.752 -0.2771  0.7337  0.2468
  451MOL0     H59481  -0.099  11.155   6.871 -0.5874 -3.8154 -1.4897
  451MOL0     H59482   0.062  11.112   6.927 -0.0609  0.5212  0.3417
  451MOL0     H59483   0.016  11.334   6.839 -6.5658  0.6295 -7.1094
  451MOL0     H59484   0.053  11.274   6.689  0.0022 -0.9674  0.6781
  451MOL0     H59485   0.240  11.302   7.016  0.1824  0.6726  0.1211
  451MOL0     H59486   0.615  11.187   6.957 -2.3302 -1.5161 -0.3261
  451MOL0     H59487   0.515  11.243   7.093 -3.5996 -0.1289 -0.4609
  451MOL0     H59488   0.706  11.409   7.050  0.0533  0.0061 -2.2805
  451MOL0     H59489   0.555  11.482   7.045 -2.1313 -2.1419  0.8691
  451MOL0     H59490   0.584  11.467   6.779  0.3778  1.5004 -0.4663
  451MOL0     H59491   0.693  11.563   6.881 -3.3344  0.8761 -0.0400
  451MOL0     H59492   0.807  11.446   6.705  1.0658  1.8943  2.2177
  451MOL0     H59493   0.712  11.296   6.754 -2.1953  0.3693  0.2572
  451MOL0     H59494   1.070  11.356   7.033  0.5133  0.4904  0.2688
  451MOL0     H59495   1.312  11.275   6.979 -0.0393 -1.0894  1.0646
  451MOL0     H59496   1.471  10.819   6.770  2.2422 -4.3721 -0.8040
  451MOL0     H59497   1.700  10.710   6.709  1.6618 -0.6969  0.7340
  451MOL0     H59498   1.940  10.867   6.403 -2.4698  1.8016  1.4553
  451MOL0     H59499   1.798  10.767   6.423  0.7111 -3.0885 -1.9005
  451MOL0     H59500   1.954  10.613   6.364 -4.8283 -2.0347  3.2108
  451MOL0     H59501   1.965  10.609   6.538 -1.3811 -2.8564 -2.1609
  451MOL0     H59502   2.169  10.713   6.540  0.0124  1.4557 -0.4392
  451MOL0     H59503   2.164  10.786   6.380  2.6902 -0.6970  1.1461
  451MOL0     H59504   2.229  10.494   6.453 -0.0255 -0.9214  1.4988
  451MOL0     H59505   2.176  10.547   6.285  0.4189 -0.2679  1.1454
  451MOL0     H59506   2.411  10.535   6.341 -1.0625 -1.0429  1.7559
  451MOL0     H59507   2.392  10.677   6.456 -0.2347 -0.0956 -0.6153
  451MOL0     H59508   2.326  10.824   6.276  0.0265 -0.2263 -0.9437
  451MOL0     H59509   2.352  10.699   6.158  0.1829  1.3220 -0.2375
  451MOL0     H59510   2.540  10.862   6.171 -1.1419  0.0739  0.1191
  451MOL0     H59511   2.578  10.816   6.337  1.2600  2.3386 -0.4264
  451MOL0     H59512   2.711  10.710   6.137  0.1776 -0.2563  0.6740
  451MOL0     H59513   2.577  10.606   6.105 -2.1723 -0.8529  0.0335
  451MOL0     H59514   1.826  11.066   6.523  0.8235 -1.6137  1.8799
  451MOL0     H59515   1.592  11.170   6.551 -1.6247 -1.1124 -2.8901
  451MOL0     H59516   1.167  11.132   6.615 -1.8550 -1.0067  1.1057
  451MOL0     H59517   0.950  11.187   6.656  0.9763 -1.9516 -0.8909
  451MOL0     H59518  -0.225  10.171   6.663  1.7515 -2.1232 -1.3816
  451MOL0     H59519  -0.191   9.943   6.722  0.1713  1.5738 -0.0628
  451MOL0     H59520  -0.187   9.617   6.931  1.6741 -0.6520 -3.2319
  451MOL0     H59521  -0.203   9.392   7.010 -1.7377  0.4161  2.0517
  451MOL0     H59522   0.131   9.198   7.231  0.0054 -1.7066  1.1830
  451MOL0     H59523   0.170   9.160   7.060  1.6609 -1.8529  1.4108
  451MOL0     H59524  -0.023   8.992   7.225  1.5134 -2.7439  0.9812
  451MOL0     H59525  -0.003   8.978   7.055 -0.0106 -3.3463  0.7436
  451MOL0     H59526   0.233   8.924   7.065 -1.5820  0.5193 -1.0563
  451MOL0     H59527   0.115   8.813   7.136  0.0006  0.1212 -3.1707
  451MOL0     H59528   0.309   9.004   7.282 -2.5116  1.8729  1.5022
  451MOL0     H59529   0.204   8.907   7.374 -2.0376 -0.1811 -1.5123
  451MOL0     H59530   0.495   8.628   7.267  0.1849  0.2867 -2.5403
  451MOL0     H59531   0.219   9.402   7.128 -1.2938  0.3036  1.3390
  451MOL0     H59532   0.209   9.636   7.105  1.1472 -1.6440  0.0278
  452MOL0     O59533   2.225   0.302   2.412  0.4056 -0.5796  0.3505
  452MOL0     C59534   2.264   0.221   2.328 -0.6206 -0.1896  1.3053
  452MOL0     O59535   2.191   0.163   2.229 -0.4823  0.8001 -0.3073
  452MOL0     C59536   2.055   0.172   2.222 -0.4140 -0.8676  0.0841
  452MOL0     C59537   1.973   0.261   2.271  0.1394 -0.8085  0.2641
  452MOL0     C59538   1.836   0.251   2.246 -0.1757  0.6376  0.8952
  452MOL0     C59539   1.792   0.154   2.156  0.3954  0.8299  0.0991
  452MOL0     O59540   1.662   0.138   2.134 -0.0853  0.1303 -0.2335
  452MOL0     C59541   1.579   0.250   2.108  1.1160 -0.8559  0.4520
  452MOL0     C59542   1.437   0.202   2.130  0.3349  0.1950 -0.2510
  452MOL0     C59543   1.338   0.322   2.125  0.7980  0.4041 -0.0171
  452MOL0     C59544   1.189   0.293   2.143  0.2400  0.4558 -0.3015
  452MOL0     C59545   1.097   0.420   2.140  0.8699 -0.3916 -0.1708
  452MOL0     C59546   0.956   0.370   2.189  0.1219 -0.8782 -0.6693
  452MOL0     C59547   0.850   0.486   2.190  0.0627  0.1138  0.8290
  452MOL0     C59548   0.887   0.590   2.298  0.7907 -0.3237 -0.5240
  452MOL0     N59549   0.770   0.678   2.306 -0.4814  0.4169  0.8910
  452MOL0     C59550   0.647   0.635   2.359  0.0543 -1.4171 -0.2700
  452MOL0     C59551   0.586   0.756   2.376  0.2532  0.6597 -0.5647
  452MOL0     C59552   0.447   0.757   2.435 -0.6431 -0.6383  0.3029
  452MOL0     C59553   0.437   0.803   2.582  1.0335  0.0695 -0.9043
  452MOL0     C59554   0.526   0.717   2.672  0.7321  0.1123 -0.1542
  452MOL0     C59555   0.534   0.787   2.808 -0.1345  0.0635  0.1980
  452MOL0     O59556   0.411   0.798   2.881 -0.0997  0.3913  0.1476
  452MOL0     C59557   0.411   0.862   3.002 -0.0144  0.7847 -0.4656
  452MOL0     C59558   0.357   0.797   3.110  0.4961 -0.3651  0.2624
  452MOL0     C59559   0.362   0.847   3.238  0.5846  0.4509 -0.2571
  452MOL0     C59560   0.408   0.972   3.266  0.1383  0.7103  0.1958
  452MOL0     C59561   0.406   1.021   3.405 -0.4054  0.4054 -0.8432
  452MOL0     O59562   0.316   0.965   3.491  0.9802  0.5300  0.1537
  452MOL0     C59563   0.278   1.021   3.610 -0.0620 -0.4824  0.0639
  452MOL0     C59564   0.210   0.944   3.694 -0.5215 -0.3068 -0.4529
  452MOL0     C59565   0.161   0.983   3.821 -0.7272 -0.6850  0.7481
  452MOL0     C59566   0.176   1.124   3.856 -0.0684  0.1138 -0.9928
  452MOL0     O59567   0.114   1.184   3.962  0.4180  0.1168  0.4402
  452MOL0     C59568   0.090   1.110   4.084 -0.5771 -0.0978 -0.0993
  452MOL0     C59569  -0.053   1.071   4.111  1.3433 -0.4936 -0.4039
  452MOL0     C59570  -0.150   1.199   4.123 -0.6785 -0.1678 -0.3476
  452MOL0     C59571  -0.137   1.276   4.261 -0.0558 -1.1757 -0.3228
  452MOL0     C59572  -0.144   1.187   4.389 -0.5943  0.3864 -0.2631
  452MOL0     C59573  -0.209   1.247   4.510  0.2590 -1.0437  0.7125
  452MOL0     C59574  -0.349   1.300   4.499 -0.2582 -0.5163  0.5566
  452MOL0     C59575  -0.411   1.362   4.625 -0.8075  0.1949 -1.0702
  452MOL0    Cl59576  -0.312   1.489   4.688  0.4225  0.0857  0.2082
  452MOL0     C59577   0.236   1.201   3.762  0.6818 -0.5128  0.1463
  452MOL0     C59578   0.290   1.159   3.645 -1.1551  0.0709 -0.2029
  452MOL0     O59579   0.487   1.110   3.431  0.5901  0.8116 -0.4528
  452MOL0     C59580   0.465   1.045   3.155  0.5403 -0.2791 -0.2820
  452MOL0     C59581   0.475   0.985   3.032  0.4186  0.0736  0.3677
  452MOL0     N59582   0.665   0.860   2.327  0.1981  0.1982  0.2625
  452MOL0     N59583   0.771   0.810   2.266 -0.5177  0.5678  1.1662
  452MOL0     C59584   1.873   0.051   2.123 -0.5569  0.6321  0.3654
  452MOL0     C59585   2.009   0.060   2.153  0.8110 -0.2253  0.3020
  452MOL0     C59586   2.406   0.187   2.337  0.9809 -0.1328 -0.0281
  452MOL0     C59587   2.488   0.244   2.428 -0.8848 -0.1487 -0.4482
  452MOL0     C59588   2.621   0.222   2.452 -0.8192 -0.5163  1.1567
  452MOL0     C59589   2.678   0.117   2.373  0.6324 -0.4173  0.7846
  452MOL0     O59590   2.811   0.094   2.365  0.1040 -0.2844 -0.1886
  452MOL0     C59591   2.861  -0.033   2.340  0.4706  0.0647  1.6842
  452MOL0     C59592   2.988  -0.070   2.407  0.6846 -0.5750 -0.0274
  452MOL0     C59593   2.987  -0.094   2.561  0.1451 -0.1291  1.3890
  452MOL0     C59594   3.137  -0.091   2.600 -0.2298  0.2694 -0.8121
  452MOL0     C59595   3.141  -0.108   2.746  0.2773 -0.2395 -0.2597
  452MOL0     C59596   3.135  -0.133   2.865  0.4177 -0.1987  0.5433
  452MOL0     C59597   2.593   0.057   2.275 -0.2858  0.8367 -0.1837
  452MOL0     C59598   2.464   0.077   2.264 -0.2303  0.0061 -0.0258
  452MOL0     H59599   2.005   0.346   2.331  1.5323  1.5922 -3.4429
  452MOL0     H59600   1.772   0.326   2.292  0.6238  0.7323  1.8890
  452MOL0     H59601   1.600   0.290   2.009 -0.1729  0.3665  0.6392
  452MOL0     H59602   1.585   0.331   2.181 -0.7937  0.1086 -0.3989
  452MOL0     H59603   1.421   0.155   2.227  1.2908  1.7799  0.7168
  452MOL0     H59604   1.412   0.125   2.056  1.0355 -1.1850  0.8813
  452MOL0     H59605   1.345   0.358   2.022  1.3228  0.5961  0.0815
  452MOL0     H59606   1.371   0.405   2.188  2.5860  0.9139 -1.5205
  452MOL0     H59607   1.162   0.239   2.052  2.5602  0.8768 -1.2930
  452MOL0     H59608   1.168   0.226   2.227 -2.8871  2.3187  0.5845
  452MOL0     H59609   1.080   0.464   2.041  1.2776  1.8115  0.6760
  452MOL0     H59610   1.117   0.504   2.207 -2.5736 -0.1704  0.7731
  452MOL0     H59611   0.963   0.335   2.293  0.1197  2.1041  0.4369
  452MOL0     H59612   0.917   0.295   2.120 -1.7117  0.3465 -1.0414
  452MOL0     H59613   0.860   0.530   2.090  2.3616  1.1988  1.4900
  452MOL0     H59614   0.747   0.451   2.203  0.3067 -1.2380 -0.6067
  452MOL0     H59615   0.971   0.659   2.282 -0.5325  1.3457 -0.5987
  452MOL0     H59616   0.892   0.533   2.391 -1.1639 -1.4740 -1.0812
  452MOL0     H59617   0.613   0.544   2.407 -2.4592 -0.3311  0.2087
  452MOL0     H59618   0.406   0.656   2.426 -1.3319 -0.1919 -2.6857
  452MOL0     H59619   0.391   0.821   2.366 -3.3991 -3.2403 -0.0500
  452MOL0     H59620   0.332   0.798   2.614  0.7745  3.1787 -0.9345
  452MOL0     H59621   0.475   0.905   2.594  0.5393  0.2370 -0.7113
  452MOL0     H59622   0.501   0.611   2.681 -3.3011  0.9429  0.5378
  452MOL0     H59623   0.625   0.721   2.626  1.0949 -2.8855  0.2043
  452MOL0     H59624   0.566   0.889   2.787  0.5630 -0.1676  0.1029
  452MOL0     H59625   0.604   0.736   2.875 -0.0887  4.2859  3.8054
  452MOL0     H59626   0.311   0.702   3.086 -0.3160 -0.6737  2.7475
  452MOL0     H59627   0.299   0.802   3.314  2.0371  1.1946  1.4596
  452MOL0     H59628   0.189   0.844   3.659  2.5439 -0.2525 -2.8922
  452MOL0     H59629   0.089   0.923   3.875 -1.5332  0.6231  1.1589
  452MOL0     H59630   0.122   1.182   4.160 -1.8577 -1.6966  2.0766
  452MOL0     H59631   0.155   1.023   4.100  0.1525  0.7179  1.5900
  452MOL0     H59632  -0.053   1.005   4.199  1.8587 -0.9091 -0.7058
  452MOL0     H59633  -0.093   1.004   4.034 -3.0558  2.4553 -1.0018
  452MOL0     H59634  -0.254   1.166   4.112 -0.0677 -1.8544 -1.6586
  452MOL0     H59635  -0.120   1.258   4.036  3.1676 -1.9760 -0.4582
  452MOL0     H59636  -0.043   1.330   4.270  0.4445 -2.3538  2.6525
  452MOL0     H59637  -0.218   1.349   4.248 -0.5609 -1.7849 -0.6633
  452MOL0     H59638  -0.040   1.161   4.413 -0.8873 -0.4406  0.1606
  452MOL0     H59639  -0.197   1.094   4.365  1.8230 -2.0302  2.8209
  452MOL0     H59640  -0.146   1.329   4.546 -1.4959 -0.5606  2.9100
  452MOL0     H59641  -0.213   1.185   4.600 -3.7210 -1.0380  0.7356
  452MOL0     H59642  -0.343   1.371   4.416  0.9169 -2.0550 -0.7148
  452MOL0     H59643  -0.414   1.224   4.455  1.0416 -0.7946 -0.9998
  452MOL0     H59644  -0.422   1.288   4.704 -1.4902  2.6266  1.2479
  452MOL0     H59645  -0.506   1.410   4.602  0.1193  3.7549  1.6698
  452MOL0     H59646   0.257   1.302   3.798 -0.5394 -0.2665  0.2184
  452MOL0     H59647   0.331   1.232   3.577 -1.1214 -2.0719 -2.6451
  452MOL0     H59648   0.513   1.138   3.182 -0.1753 -0.6306  2.4342
  452MOL0     H59649   0.520   1.049   2.956 -0.2296  2.0017  1.5450
  452MOL0     H59650   1.833  -0.028   2.060 -0.9905  2.1404 -1.3218
  452MOL0     H59651   2.083  -0.017   2.133  0.9637 -0.1888  0.7195
  452MOL0     H59652   2.455   0.330   2.486  2.5939 -0.0639  1.6894
  452MOL0     H59653   2.678   0.265   2.534  0.5393  0.1659 -0.0941
  452MOL0     H59654   2.866  -0.057   2.233 -1.8684 -0.4143  1.6341
  452MOL0     H59655   2.779  -0.096   2.377 -1.9096  2.0063  0.0669
  452MOL0     H59656   3.033  -0.157   2.358 -2.5018 -1.3434 -1.8818
  452MOL0     H59657   3.066   0.004   2.388  0.6986  0.2017  2.7119
  452MOL0     H59658   2.934  -0.183   2.596 -0.1710 -0.6032 -0.2110
  452MOL0     H59659   2.939  -0.006   2.604 -1.4811 -0.4934  0.4087
  452MOL0     H59660   3.194  -0.174   2.558 -2.7954 -2.2895  0.4497
  452MOL0     H59661   3.190  -0.002   2.565  0.1876  0.8525  1.1990
  452MOL0     H59662   3.135  -0.164   2.967  2.6963  0.0751  0.6829
  452MOL0     H59663   2.628  -0.031   2.222 -2.7170  0.7426 -1.7851
  452MOL0     H59664   2.409   0.021   2.188 -1.1884  2.4856 -1.2627
  453MOL0     O59665   4.245   8.776   9.457 -0.1689 -0.0599 -0.6018
  453MOL0     C59666   4.325   8.743   9.366  1.1876  0.3442  0.2981
  453MOL0     O59667   4.388   8.822   9.280 -0.2888  0.6766 -0.3283
  453MOL0     C59668   4.323   8.940   9.264 -0.3046 -0.2391 -0.2842
  453MOL0     C59669   4.198   8.948   9.202  0.3369 -0.7541 -0.4536
  453MOL0     C59670   4.119   9.071   9.206  0.5378 -0.0188 -0.1360
  453MOL0     C59671   4.186   9.186   9.264  0.6942  0.0396 -0.9351
  453MOL0     O59672   4.118   9.306   9.291  0.6485 -0.2815 -0.4766
  453MOL0     C59673   4.017   9.351   9.202  0.3859  0.4155 -1.2651
  453MOL0     C59674   3.956   9.477   9.266  0.1177  1.6542  1.5953
  453MOL0     C59675   3.846   9.543   9.179 -0.8437  1.2246  0.5028
  453MOL0     C59676   3.905   9.576   9.042 -0.3169  0.4683  0.7436
  453MOL0     C59677   3.806   9.614   8.925 -0.2876  0.5607 -0.1347
  453MOL0     C59678   3.748   9.752   8.955 -0.5650  0.5136 -0.3495
  453MOL0     C59679   3.646   9.811   8.856  1.0690  0.2557 -0.4769
  453MOL0     C59680   3.699   9.844   8.720 -0.3710  0.5459  0.5322
  453MOL0     N59681   3.600   9.910   8.628  0.1007  0.8667 -0.0338
  453MOL0     C59682   3.598   9.906   8.486 -0.2186 -0.1866 -0.1035
  453MOL0     C59683   3.486   9.970   8.456 -0.1279  0.2549 -0.0617
  453MOL0     C59684   3.427  10.011   8.320  0.7679  0.5055  0.3492
  453MOL0     C59685   3.334  10.123   8.327  0.9986  0.0774  0.1670
  453MOL0     C59686   3.280  10.156   8.195  0.3600  0.3257  0.4807
  453MOL0     C59687   3.217  10.291   8.205  0.4654 -0.1001 -0.7571
  453MOL0     O59688   3.094  10.308   8.276 -0.6955 -0.4386 -0.5060
  453MOL0     C59689   3.019  10.415   8.251 -0.5812 -0.9381  0.1284
  453MOL0     C59690   3.065  10.544   8.199  0.8040  0.4929 -1.0922
  453MOL0     C59691   2.976  10.650   8.191  0.9544 -0.0864  0.3945
  453MOL0     C59692   2.837  10.636   8.207  0.4840  0.0381 -1.0064
  453MOL0     C59693   2.744  10.750   8.185 -0.0145 -0.7119 -0.7448
  453MOL0     O59694   2.618  10.731   8.243  0.2002  0.0658 -0.5365
  453MOL0     C59695   2.528  10.828   8.219 -0.2568  0.0627 -0.6697
  453MOL0     C59696   2.521  10.938   8.306 -0.9678 -0.5784 -0.1792
  453MOL0     C59697   2.434  11.043   8.282 -1.5410 -0.5152 -0.5405
  453MOL0     C59698   2.341  11.041   8.170  0.0915  1.0541  0.1487
  453MOL0     O59699   2.246  11.126   8.129  0.1145 -0.6141 -0.1061
  453MOL0     C59700   2.222  11.260   8.186  0.2088 -0.4870 -0.6147
  453MOL0     C59701   2.151  11.347   8.090  0.1776  0.2111  0.5711
  453MOL0     C59702   2.171  11.495   8.139 -0.0747  0.2789 -0.5358
  453MOL0     C59703   2.077  11.596   8.057 -0.3738  0.4742  0.4147
  453MOL0     C59704   2.048  11.730   8.131 -0.5211 -0.2681 -1.4777
  453MOL0     C59705   1.955  11.730   8.254  0.3916  0.3610  0.1582
  453MOL0     C59706   1.871  11.595   8.264 -0.7874  0.6753 -0.0340
  453MOL0     C59707   1.813  11.599   8.400  0.6838  0.2347  0.0843
  453MOL0    Cl59708   1.729  11.756   8.445  0.4642 -0.6411 -0.0869
  453MOL0     C59709   2.349  10.920   8.089 -0.5945  0.2316 -0.1549
  453MOL0     C59710   2.445  10.826   8.108  0.2506 -0.3931  0.4412
  453MOL0     O59711   2.781  10.839   8.107  0.0367  0.4438  0.2399
  453MOL0     C59712   2.791  10.511   8.263  0.3168  0.2995  0.2036
  453MOL0     C59713   2.883  10.406   8.293  0.2735  0.0487  0.4019
  453MOL0     N59714   3.426  10.013   8.574  1.2686  0.5532 -0.4352
  453MOL0     N59715   3.500   9.983   8.669  0.3969 -0.1570  0.4011
  453MOL0     C59716   4.312   9.168   9.321  0.7375  0.3847 -1.5070
  453MOL0     C59717   4.380   9.053   9.317 -0.2678  0.5846  0.5017
  453MOL0     C59718   4.335   8.592   9.345  0.1953 -1.3891 -0.3849
  453MOL0     C59719   4.266   8.506   9.427  0.3502 -0.2105  0.0329
  453MOL0     C59720   4.249   8.375   9.389 -0.0256 -0.8117 -0.2120
  453MOL0     C59721   4.300   8.331   9.271 -0.6124  1.5915 -0.3502
  453MOL0     O59722   4.269   8.196   9.233 -0.8881 -0.2260 -0.5769
  453MOL0     C59723   4.371   8.102   9.190 -0.2004  0.2476  0.1049
  453MOL0     C59724   4.414   8.007   9.310 -0.5191  0.0141  0.5032
  453MOL0     C59725   4.306   7.916   9.372  0.7615 -0.0314  0.2543
  453MOL0     C59726   4.212   7.980   9.462 -0.2831 -0.2902 -0.0169
  453MOL0     C59727   4.283   8.056   9.574 -0.0706 -0.2878  0.3271
  453MOL0     C59728   4.331   8.105   9.668  0.7915  0.0009 -0.2115
  453MOL0     C59729   4.373   8.413   9.187  0.1637  0.5817  0.2040
  453MOL0     C59730   4.395   8.545   9.229 -0.1421 -0.2639  0.3058
  453MOL0     H59731   4.154   8.853   9.174 -1.0839  0.1861 -1.6198
  453MOL0     H59732   4.016   9.066   9.174  1.0849 -2.0356 -1.8230
  453MOL0     H59733   3.939   9.276   9.189  2.1379 -1.6284 -0.4579
  453MOL0     H59734   4.075   9.385   9.115  0.8735  1.5926 -0.5152
  453MOL0     H59735   4.038   9.545   9.290  1.8188 -0.5965  2.5258
  453MOL0     H59736   3.917   9.451   9.365 -0.3573 -0.8852  0.8211
  453MOL0     H59737   3.797   9.633   9.218  0.0011  1.8791  0.1036
  453MOL0     H59738   3.772   9.466   9.157  2.5543 -2.0440 -0.4447
  453MOL0     H59739   3.978   9.655   9.064 -1.0291  0.1859  4.8525
  453MOL0     H59740   3.962   9.497   8.993  1.7123  1.5343  1.2889
  453MOL0     H59741   3.722   9.545   8.922 -1.5124  1.7097  3.1472
  453MOL0     H59742   3.870   9.617   8.836  1.3358 -2.9899  0.7182
  453MOL0     H59743   3.836   9.816   8.969 -0.2626 -0.4630  3.2676
  453MOL0     H59744   3.687   9.752   9.046  1.0605  2.7394  0.8350
  453MOL0     H59745   3.554   9.753   8.849  0.3218  1.0997  1.6563
  453MOL0     H59746   3.619   9.908   8.898 -0.4845  0.3414 -1.5785
  453MOL0     H59747   3.733   9.753   8.670 -2.2508 -2.4883  4.2011
  453MOL0     H59748   3.780   9.917   8.727  0.2942  0.3355 -3.0112
  453MOL0     H59749   3.675   9.875   8.416  0.1556 -0.2061  0.3097
  453MOL0     H59750   3.364   9.929   8.285  0.6741 -0.2050  2.0916
  453MOL0     H59751   3.504  10.042   8.248 -1.7098 -0.0028 -2.7540
  453MOL0     H59752   3.403  10.203   8.356  2.4799 -0.7370 -0.9803
  453MOL0     H59753   3.255  10.108   8.401 -1.1924 -1.4827 -2.3129
  453MOL0     H59754   3.360  10.156   8.120 -0.2371 -0.8377 -0.1917
  453MOL0     H59755   3.206  10.088   8.151 -1.0358  0.9981  1.7087
  453MOL0     H59756   3.208  10.331   8.103  0.8918  1.1245 -0.3395
  453MOL0     H59757   3.298  10.351   8.248  2.5574 -3.2601  0.0806
  453MOL0     H59758   3.172  10.551   8.184  1.3554 -1.0083  1.4873
  453MOL0     H59759   3.015  10.745   8.158  1.9016 -1.0656 -1.4424
  453MOL0     H59760   2.588  10.934   8.392  0.5933 -0.8186 -1.3495
  453MOL0     H59761   2.433  11.134   8.341  1.6182 -0.9202  0.3309
  453MOL0     H59762   2.322  11.289   8.219  0.6771 -2.4462 -0.1402
  453MOL0     H59763   2.162  11.269   8.277  0.2087  2.2011 -0.8231
  453MOL0     H59764   2.043  11.327   8.082  0.2673  0.2496 -1.0783
  453MOL0     H59765   2.197  11.339   7.991 -1.3522 -0.4159 -0.1331
  453MOL0     H59766   2.273  11.527   8.117  0.2068 -1.2503 -1.6529
  453MOL0     H59767   2.156  11.505   8.247  1.0766  5.6671 -0.5704
  453MOL0     H59768   2.113  11.621   7.957 -2.5254 -1.1727 -0.8672
  453MOL0     H59769   1.985  11.542   8.034  0.3095 -0.8215  0.6256
  453MOL0     H59770   1.980  11.774   8.057 -1.4684 -0.4263 -0.7154
  453MOL0     H59771   2.140  11.782   8.158  0.9320 -3.0691 -0.6529
  453MOL0     H59772   1.883  11.812   8.256  1.0501  0.9903 -0.7375
  453MOL0     H59773   2.022  11.745   8.339  2.5156 -3.8256 -0.5165
  453MOL0     H59774   1.795  11.618   8.188  0.6216  0.1989 -1.6558
  453MOL0     H59775   1.930  11.506   8.242  0.5304  0.8413  2.5214
  453MOL0     H59776   1.876  11.571   8.485  0.2699 -0.1423  0.2732
  453MOL0     H59777   1.722  11.537   8.402 -0.8344  2.3187 -0.4432
  453MOL0     H59778   2.286  10.903   8.002  1.3147 -2.3299 -1.1839
  453MOL0     H59779   2.467  10.744   8.041  1.2723 -0.0991  0.4028
  453MOL0     H59780   2.687  10.486   8.280  0.0898  1.1203  0.0963
  453MOL0     H59781   2.854  10.308   8.329  0.5896 -1.5259 -3.1838
  453MOL0     H59782   4.361   9.249   9.374  0.7616 -1.6018  1.7880
  453MOL0     H59783   4.477   9.046   9.365 -0.2273  1.0456  0.4846
  453MOL0     H59784   4.216   8.546   9.514 -1.0746 -1.8459  0.0209
  453MOL0     H59785   4.176   8.332   9.457 -2.2159  2.7844 -0.0688
  453MOL0     H59786   4.467   8.138   9.149 -1.1887  1.2455 -1.4611
  453MOL0     H59787   4.332   8.036   9.112  1.3634 -2.5543  1.5302
  453MOL0     H59788   4.498   7.948   9.272 -0.1408  2.1186 -2.2583
  453MOL0     H59789   4.458   8.071   9.387 -0.4812  0.0904  0.4185
  453MOL0     H59790   4.355   7.835   9.426  0.8685 -1.4180 -1.7965
  453MOL0     H59791   4.250   7.864   9.294  1.7252 -0.6370 -0.0517
  453MOL0     H59792   4.151   8.059   9.418 -2.5189 -1.7058  0.3933
  453MOL0     H59793   4.128   7.924   9.504 -1.8463  2.1864  0.3440
  453MOL0     H59794   4.384   8.162   9.742  1.3880  0.3661 -0.9042
  453MOL0     H59795   4.417   8.392   9.091  0.0327  0.4308  0.1747
  453MOL0     H59796   4.451   8.608   9.161  3.3443  0.8446  3.8167
  454MOL0     O59797   4.085   7.128   6.973 -0.1863  0.0703  0.3616
  454MOL0     C59798   4.068   7.110   6.853  0.4064  0.4915 -0.3484
  454MOL0     O59799   4.097   6.994   6.787  0.6659  0.2094 -0.7001
  454MOL0     C59800   4.130   6.884   6.865 -0.2842  0.1497 -0.6286
  454MOL0     C59801   4.251   6.887   6.946 -0.7809 -0.1126  0.3197
  454MOL0     C59802   4.290   6.778   7.033 -0.3744  0.6052  0.4193
  454MOL0     C59803   4.203   6.674   7.055  0.2636 -0.2693  0.0195
  454MOL0     O59804   4.231   6.597   7.159  0.1629 -0.1314  0.2706
  454MOL0     C59805   4.126   6.532   7.236  0.3081 -0.9532  0.2844
  454MOL0     C59806   4.136   6.532   7.383 -0.5587  0.0716  0.6317
  454MOL0     C59807   4.250   6.443   7.428  0.0523 -0.6017  0.0819
  454MOL0     C59808   4.276   6.428   7.581  0.5595  0.2133  0.2732
  454MOL0     C59809   4.388   6.324   7.618  0.3232  0.3230 -0.0664
  454MOL0     C59810   4.385   6.186   7.558  0.5727  0.1475  0.1541
  454MOL0     C59811   4.482   6.101   7.644 -0.2905 -0.2987  0.4100
  454MOL0     C59812   4.474   5.945   7.626  0.8171 -0.2824 -0.1682
  454MOL0     N59813   4.528   5.907   7.494  0.6816 -0.4077  0.8939
  454MOL0     C59814   4.593   5.789   7.470  0.8403  0.0419  0.1374
  454MOL0     C59815   4.630   5.801   7.339  0.0774 -1.1106  0.5626
  454MOL0     C59816   4.710   5.695   7.263  0.4172  0.4954 -0.6948
  454MOL0     C59817   4.857   5.739   7.241  1.0661  0.7937 -0.0055
  454MOL0     C59818   4.922   5.621   7.168  0.4577 -0.6842 -0.2276
  454MOL0     C59819   5.078   5.636   7.138 -0.1590  0.3813 -0.1530
  454MOL0     O59820   5.102   5.761   7.075  0.6662 -0.3232 -0.3508
  454MOL0     C59821   5.229   5.768   7.017  0.2071  1.1561 -0.7842
  454MOL0     C59822   5.234   5.842   6.894  0.7242 -0.8637  0.0171
  454MOL0     C59823   5.363   5.869   6.829 -0.1700 -0.2063  0.4761
  454MOL0     C59824   5.481   5.824   6.884 -0.3668  0.0894  0.0294
  454MOL0     C59825   5.614   5.848   6.824  0.4254  0.0615 -0.2274
  454MOL0     O59826   5.645   5.977   6.806  0.2380  0.4396 -0.8406
  454MOL0     C59827   5.740   6.027   6.729 -0.1190  0.5384 -0.2035
  454MOL0     C59828   5.776   5.957   6.613 -0.0524 -0.9961 -0.7633
  454MOL0     C59829   5.890   5.997   6.556 -0.0508  0.1397 -0.7142
  454MOL0     C59830   5.967   6.103   6.616 -0.5153  0.0304  0.3014
  454MOL0     O59831   6.079   6.151   6.560 -0.1606  0.7683  0.4431
  454MOL0     C59832   6.178   6.061   6.506 -1.0108  0.4131 -1.0936
  454MOL0     C59833   6.312   6.131   6.468 -0.0767  0.0549 -0.7548
  454MOL0     C59834   6.399   6.192   6.584 -0.0722  0.4815 -0.6788
  454MOL0     C59835   6.426   6.090   6.693 -0.5224 -0.0468  0.0680
  454MOL0     C59836   6.488   6.165   6.802 -1.0385  0.3070  0.8940
  454MOL0     C59837   6.521   6.076   6.919 -0.4058 -0.4624  0.1740
  454MOL0     C59838   6.665   6.097   6.943 -0.9147  0.6991  0.6305
  454MOL0     C59839   6.700   6.022   7.072 -0.4783 -0.6922  0.3291
  454MOL0    Cl59840   6.783   5.861   7.036 -0.1111 -0.3629 -0.0031
  454MOL0     C59841   5.932   6.165   6.728 -0.3875  0.5481  0.3219
  454MOL0     C59842   5.814   6.133   6.786  0.4560  0.1238  0.0667
  454MOL0     O59843   5.677   5.751   6.795 -0.0402 -0.2224  0.2666
  454MOL0     C59844   5.478   5.750   7.002  1.0630  1.0279 -0.1241
  454MOL0     C59845   5.349   5.722   7.068 -0.2831  0.0352  0.2037
  454MOL0     N59846   4.564   5.918   7.282  0.1910  0.1220  0.6340
  454MOL0     N59847   4.519   5.980   7.386  0.6621  0.4839  0.6878
  454MOL0     C59848   4.076   6.673   6.984 -0.5788  0.1908 -0.0591
  454MOL0     C59849   4.050   6.773   6.888  0.0941  0.5317  0.7026
  454MOL0     C59850   3.995   7.213   6.784 -1.0567 -0.3991 -0.0030
  454MOL0     C59851   4.002   7.346   6.827  0.4723  0.2790  0.4093
  454MOL0     C59852   3.930   7.443   6.755 -0.3400  1.3201 -0.0328
  454MOL0     C59853   3.855   7.415   6.638  0.2229 -0.4899 -0.5299
  454MOL0     O59854   3.803   7.526   6.571  0.6985  0.0232  0.7942
  454MOL0     C59855   3.742   7.504   6.441 -0.1690 -0.5909  0.1965
  454MOL0     C59856   3.659   7.619   6.409 -0.8462  0.0630 -0.9984
  454MOL0     C59857   3.741   7.742   6.393 -0.0243 -0.0545 -0.3982
  454MOL0     C59858   3.816   7.762   6.271 -0.0660 -0.3250  0.3928
  454MOL0     C59859   3.829   7.902   6.249 -1.5197 -0.9972  0.2695
  454MOL0     C59860   3.826   8.017   6.226  0.6363 -0.1648  0.1059
  454MOL0     C59861   3.850   7.284   6.598 -0.7009  0.1386  0.1037
  454MOL0     C59862   3.922   7.191   6.670 -0.5932 -0.6995 -0.1158
  454MOL0     H59863   4.321   6.967   6.926 -2.6584  1.1212 -1.9151
  454MOL0     H59864   4.386   6.776   7.084 -0.3724  0.7981  0.4238
  454MOL0     H59865   4.120   6.427   7.204 -1.6201 -0.8821  0.2957
  454MOL0     H59866   4.025   6.571   7.222  0.0164 -1.1826  1.6322
  454MOL0     H59867   4.048   6.486   7.429 -0.2215 -3.6336 -1.9959
  454MOL0     H59868   4.130   6.638   7.409 -2.2144  1.2635 -3.7228
  454MOL0     H59869   4.338   6.482   7.377  0.2944 -0.4744  0.5916
  454MOL0     H59870   4.238   6.343   7.385  1.5436 -0.6181 -0.3663
  454MOL0     H59871   4.303   6.529   7.612 -1.7138  2.0973 -3.2851
  454MOL0     H59872   4.184   6.391   7.627  0.6095 -1.9863 -1.2123
  454MOL0     H59873   4.381   6.320   7.727  1.7382  1.9352  0.1232
  454MOL0     H59874   4.489   6.362   7.600 -0.2194  1.9174  0.1247
  454MOL0     H59875   4.407   6.205   7.453  0.8413  3.3052  0.6712
  454MOL0     H59876   4.284   6.145   7.569  0.9851 -1.4132 -1.5570
  454MOL0     H59877   4.585   6.138   7.639 -0.6381  0.6309 -0.2339
  454MOL0     H59878   4.447   6.122   7.745 -0.8118 -0.2748  0.2324
  454MOL0     H59879   4.372   5.906   7.621  0.5991  0.2829 -0.2151
  454MOL0     H59880   4.545   5.893   7.691  1.7297 -1.3772 -1.9839
  454MOL0     H59881   4.621   5.717   7.546 -2.3021 -0.5635  0.8760
  454MOL0     H59882   4.656   5.687   7.168 -0.8422  0.7618 -0.0353
  454MOL0     H59883   4.692   5.609   7.327 -0.7638  0.7420 -0.6657
  454MOL0     H59884   4.911   5.774   7.329  0.3327  0.9630  0.3879
  454MOL0     H59885   4.862   5.820   7.167 -0.6354 -0.7828 -1.9975
  454MOL0     H59886   4.911   5.528   7.224 -1.9617 -1.2582 -1.5397
  454MOL0     H59887   4.871   5.600   7.074  1.9824 -2.9574 -0.6185
  454MOL0     H59888   5.115   5.553   7.078  0.7350  0.1063  0.7583
  454MOL0     H59889   5.125   5.627   7.237 -1.0841 -0.5034  0.2170
  454MOL0     H59890   5.141   5.871   6.845 -1.5604 -1.2850  3.7153
  454MOL0     H59891   5.364   5.928   6.738 -3.5873  0.7082  0.9261
  454MOL0     H59892   5.700   5.889   6.576 -0.3011 -0.6441 -0.9120
  454MOL0     H59893   5.939   5.948   6.472  0.2018  0.7876 -0.9553
  454MOL0     H59894   6.140   6.011   6.416 -1.7080 -1.8889  0.4080
  454MOL0     H59895   6.217   5.985   6.574 -1.1671 -0.9982 -2.5272
  454MOL0     H59896   6.305   6.216   6.399  2.1691  0.2196 -0.8516
  454MOL0     H59897   6.368   6.054   6.413 -1.0476  0.7635 -2.8701
  454MOL0     H59898   6.351   6.276   6.635 -0.0865  0.4051 -0.5662
  454MOL0     H59899   6.493   6.231   6.545 -0.6478  1.7584 -0.8244
  454MOL0     H59900   6.336   6.049   6.740 -1.2540  1.4983  0.1043
  454MOL0     H59901   6.494   6.011   6.661  0.4781 -0.6742  3.3659
  454MOL0     H59902   6.414   6.239   6.833 -1.1581 -0.1957  1.8507
  454MOL0     H59903   6.575   6.220   6.766  0.1024 -1.8619  0.1949
  454MOL0     H59904   6.494   5.971   6.906 -2.0891  0.0557 -0.6955
  454MOL0     H59905   6.451   6.116   6.993 -1.6344 -0.4015 -1.0032
  454MOL0     H59906   6.726   6.058   6.860  0.9095  2.7908  0.8720
  454MOL0     H59907   6.683   6.204   6.955  0.1204  0.7722 -1.1120
  454MOL0     H59908   6.614   6.011   7.138 -2.6234  1.7626 -1.7937
  454MOL0     H59909   6.776   6.081   7.124 -0.3277  1.3885 -2.0487
  454MOL0     H59910   5.999   6.247   6.752  0.2125  0.1049  0.2050
  454MOL0     H59911   5.797   6.181   6.882  1.6478 -1.4587  1.1118
  454MOL0     H59912   5.562   5.711   7.058 -1.6964 -4.6366  0.7968
  454MOL0     H59913   5.358   5.693   7.172  1.9231  2.8716  0.9251
  454MOL0     H59914   3.997   6.601   7.002 -0.1047 -0.0157  1.3761
  454MOL0     H59915   3.951   6.776   6.844  0.1318  0.6851  0.6289
  454MOL0     H59916   4.061   7.375   6.914  0.5889  3.0993 -0.5001
  454MOL0     H59917   3.932   7.547   6.785 -1.6108  1.8572 -1.6606
  454MOL0     H59918   3.677   7.416   6.435 -1.6029  0.3611  1.1449
  454MOL0     H59919   3.812   7.502   6.357  0.1904  0.1677  0.4704
  454MOL0     H59920   3.599   7.615   6.318  1.2125  6.7128 -3.2100
  454MOL0     H59921   3.595   7.637   6.495  2.6350  3.3218  1.2655
  454MOL0     H59922   3.814   7.764   6.471  1.5791  1.1846 -2.1449
  454MOL0     H59923   3.666   7.820   6.400  0.8077  0.6170  1.5115
  454MOL0     H59924   3.914   7.716   6.285  0.1537  0.3786  1.2550
  454MOL0     H59925   3.766   7.726   6.181 -1.1380  2.0927 -0.0611
  454MOL0     H59926   3.829   8.122   6.201  0.9887 -0.8714 -3.3772
  454MOL0     H59927   3.795   7.242   6.516  1.8111 -4.0535  0.2936
  454MOL0     H59928   3.913   7.092   6.626 -5.6936 -0.5638 -0.0213
  455MOL0     O59929   6.637   1.964   8.591 -0.1727  0.1051  0.1615
  455MOL0     C59930   6.725   2.024   8.525  0.6359  0.2985  0.4948
  455MOL0     O59931   6.700   2.125   8.427 -0.3492  0.3557  0.2461
  455MOL0     C59932   6.572   2.127   8.387  0.1582 -0.4393  0.5760
  455MOL0     C59933   6.532   2.045   8.280  0.0326  1.0480  0.0383
  455MOL0     C59934   6.400   2.045   8.234 -0.2154  0.9681 -0.5618
  455MOL0     C59935   6.306   2.124   8.295 -0.2639 -0.0408 -0.9881
  455MOL0     O59936   6.176   2.093   8.259 -0.2012  0.0921  0.6324
  455MOL0     C59937   6.078   2.128   8.354 -0.3282 -0.1538 -0.0983
  455MOL0     C59938   5.956   2.128   8.268  0.6303  0.6238  0.0778
  455MOL0     C59939   5.846   2.186   8.355  0.3496 -0.4113  0.0930
  455MOL0     C59940   5.716   2.176   8.274 -0.6311  0.4931  0.2593
  455MOL0     C59941   5.594   2.223   8.366  0.8616  0.0868  0.6014
  455MOL0     C59942   5.471   2.260   8.278 -0.4031  0.9503  0.3608
  455MOL0     C59943   5.427   2.143   8.187  1.1175  0.4232  0.3139
  455MOL0     C59944   5.299   2.184   8.106  1.4063 -0.0106  0.1455
  455MOL0     N59945   5.183   2.194   8.196  0.1671  1.0693 -0.0035
  455MOL0     C59946   5.081   2.099   8.219 -0.0829  0.3635 -0.2026
  455MOL0     C59947   4.999   2.156   8.316 -0.7351 -0.1570 -1.4668
  455MOL0     C59948   4.887   2.080   8.386  0.6775 -0.2822 -0.0556
  455MOL0     C59949   4.824   2.175   8.487  0.4937 -0.1527 -0.2728
  455MOL0     C59950   4.713   2.109   8.568 -0.1053  0.6453  1.1322
  455MOL0     C59951   4.632   2.204   8.660 -0.6070 -0.3179  1.5539
  455MOL0     O59952   4.725   2.262   8.757  0.3431  0.1996 -0.7269
  455MOL0     C59953   4.678   2.304   8.875 -0.4195  0.3323  0.0980
  455MOL0     C59954   4.544   2.349   8.897  1.0309 -0.9868  0.1371
  455MOL0     C59955   4.500   2.396   9.013 -0.2744  0.9839 -0.3958
  455MOL0     C59956   4.580   2.369   9.130 -0.2379 -0.2211  0.5164
  455MOL0     C59957   4.519   2.394   9.258  0.9386  0.2512 -0.3056
  455MOL0     O59958   4.396   2.455   9.253 -0.4917 -0.1067  0.0268
  455MOL0     C59959   4.314   2.475   9.367 -1.0672 -0.0931  0.5969
  455MOL0     C59960   4.174   2.457   9.345 -0.6236  0.2710 -0.8874
  455MOL0     C59961   4.086   2.453   9.460 -0.6338 -0.2429  0.4597
  455MOL0     C59962   4.131   2.479   9.585  0.0021 -0.3136 -0.2222
  455MOL0     O59963   4.042   2.463   9.677  0.7456 -0.1976  0.8395
  455MOL0     C59964   4.069   2.517   9.807  1.4520  1.1611  0.1098
  455MOL0     C59965   3.928   2.510   9.881 -1.2297 -0.1264  0.1482
  455MOL0     C59966   3.837   2.611   9.821  0.9159 -0.7562 -0.4876
  455MOL0     C59967   3.694   2.611   9.887 -0.0770  0.5295 -0.8489
  455MOL0     C59968   3.693   2.728   9.986 -0.3322 -0.1012 -0.7357
  455MOL0     C59969   3.565   2.743  10.072  0.8496  0.2658 -0.1338
  455MOL0     C59970   3.607   2.740  10.225  0.2359  0.0945  0.2225
  455MOL0     C59971   3.679   2.614  10.282 -0.0914 -1.8269  0.6742
  455MOL0    Cl59972   3.578   2.468  10.264 -0.5977  0.1007  0.6711
  455MOL0     C59973   4.269   2.500   9.603 -0.3631 -0.4157 -0.2087
  455MOL0     C59974   4.367   2.505   9.496 -0.1069  0.1550 -0.9085
  455MOL0     O59975   4.569   2.341   9.361  0.3282 -0.1555 -0.1391
  455MOL0     C59976   4.713   2.321   9.115  0.7214 -0.0003 -0.2862
  455MOL0     C59977   4.760   2.293   8.991  0.0944  0.5890  0.8162
  455MOL0     N59978   5.042   2.284   8.330 -1.0693  0.6772 -0.2644
  455MOL0     N59979   5.157   2.301   8.276  0.4301  0.3326  0.4892
  455MOL0     C59980   6.350   2.224   8.393  0.0547  0.5794  0.1929
  455MOL0     C59981   6.485   2.226   8.436 -0.3441 -0.2422 -0.5698
  455MOL0     C59982   6.861   1.983   8.556  0.3003 -0.2726  0.4056
  455MOL0     C59983   6.897   1.852   8.592  0.2077 -0.2114 -0.5805
  455MOL0     C59984   7.033   1.816   8.607  0.4248  1.0174 -0.3889
  455MOL0     C59985   7.135   1.906   8.583 -0.0512  0.7600  0.5877
  455MOL0     O59986   7.262   1.857   8.602 -0.6738 -0.5364  0.3245
  455MOL0     C59987   7.386   1.941   8.582  0.2033 -0.1605  0.2546
  455MOL0     C59988   7.492   1.831   8.612  0.4051  0.2929 -1.1769
  455MOL0     C59989   7.518   1.850   8.768 -0.4260  1.3044  0.1700
  455MOL0     C59990   7.628   1.762   8.821  0.0330  0.1129  0.5967
  455MOL0     C59991   7.765   1.766   8.760 -0.2565 -0.0573  0.5554
  455MOL0     C59992   7.873   1.749   8.708  0.2686  0.7910 -0.6669
  455MOL0     C59993   7.102   2.036   8.546  0.1070 -0.6480  0.2417
  455MOL0     C59994   6.964   2.073   8.534 -0.3748 -0.2967  0.3762
  455MOL0     H59995   6.603   1.969   8.249 -0.4845  1.2402 -1.7401
  455MOL0     H59996   6.369   1.968   8.164  1.4516 -2.6728  2.3233
  455MOL0     H59997   6.094   2.228   8.395  1.6812 -0.8581  0.9600
  455MOL0     H59998   6.068   2.053   8.432  0.3830 -1.0169 -0.8107
  455MOL0     H59999   5.936   2.026   8.233  0.7610  1.5250 -2.8918
  455MOL0     H60000   5.955   2.195   8.182 -2.5194 -1.6675 -1.8613
  455MOL0     H60001   5.864   2.293   8.369  1.6932 -0.9812  3.6876
  455MOL0     H60002   5.841   2.153   8.460 -3.1180  0.7565  0.4236
  455MOL0     H60003   5.719   2.234   8.180  1.6956  1.8354  1.0886
  455MOL0     H60004   5.707   2.074   8.237 -0.1801  0.4222  0.3483
  455MOL0     H60005   5.635   2.309   8.419  0.6728  0.0455  0.8111
  455MOL0     H60006   5.566   2.151   8.443  2.0875  1.1395  2.0774
  455MOL0     H60007   5.503   2.343   8.214  0.6045  0.9654  0.8616
  455MOL0     H60008   5.402   2.292   8.357  1.4315  0.4952  2.2259
  455MOL0     H60009   5.495   2.119   8.105 -2.9602 -0.9615 -3.0677
  455MOL0     H60010   5.417   2.050   8.243  2.9078 -0.8531 -1.3524
  455MOL0     H60011   5.281   2.110   8.028  0.8863  1.1144 -0.8540
  455MOL0     H60012   5.319   2.286   8.069  3.7510 -0.5996 -0.3640
  455MOL0     H60013   5.068   2.002   8.174 -2.0543  0.6738 -0.3950
  455MOL0     H60014   4.925   1.984   8.422  2.7081  0.4714 -0.0299
  455MOL0     H60015   4.810   2.059   8.312  0.9840  1.4328 -0.9131
  455MOL0     H60016   4.781   2.249   8.420  0.8425 -2.2383 -2.9979
  455MOL0     H60017   4.896   2.223   8.555  1.9806  2.6720 -3.5374
  455MOL0     H60018   4.647   2.049   8.505  0.9007 -1.3429  1.8909
  455MOL0     H60019   4.756   2.030   8.630 -0.8843 -1.7345 -1.1697
  455MOL0     H60020   4.558   2.146   8.715 -0.7794  0.4315  2.1263
  455MOL0     H60021   4.575   2.280   8.606 -1.4406 -2.0236 -0.0613
  455MOL0     H60022   4.474   2.344   8.814  1.4988  0.4919 -0.3932
  455MOL0     H60023   4.401   2.440   9.005 -0.4228  0.6784 -0.2391
  455MOL0     H60024   4.132   2.437   9.247 -1.0722 -0.1811 -0.6048
  455MOL0     H60025   3.981   2.426   9.459 -0.8490  0.3933 -2.0741
  455MOL0     H60026   4.109   2.617   9.791 -2.6894  3.2846  1.4477
  455MOL0     H60027   4.142   2.455   9.860  3.9658  1.8315 -2.3213
  455MOL0     H60028   3.949   2.537   9.985  1.5609  1.5533 -0.7223
  455MOL0     H60029   3.884   2.410   9.890  0.0077 -0.7592 -0.5224
  455MOL0     H60030   3.831   2.590   9.714  2.8160 -0.2531 -0.7266
  455MOL0     H60031   3.886   2.709   9.821 -1.7680  0.7643 -3.4654
  455MOL0     H60032   3.623   2.634   9.807  1.5112  1.9090 -1.9350
  455MOL0     H60033   3.666   2.514   9.927  0.1136  0.5829 -0.5814
  455MOL0     H60034   3.711   2.823   9.934 -2.2021 -0.9011 -3.0213
  455MOL0     H60035   3.770   2.708  10.061 -0.4901  0.2448 -0.4809
  455MOL0     H60036   3.486   2.675  10.041 -1.2620  3.9126 -3.7606
  455MOL0     H60037   3.513   2.839  10.062 -1.6918 -0.6623  2.5070
  455MOL0     H60038   3.656   2.837  10.240  2.6935 -1.1595  0.6532
  455MOL0     H60039   3.515   2.741  10.284 -1.1198 -3.4355 -1.5483
  455MOL0     H60040   3.693   2.639  10.387 -0.3820  2.0466 -0.0631
  455MOL0     H60041   3.780   2.611  10.240  0.3190  3.5343  0.5895
  455MOL0     H60042   4.302   2.517   9.705 -0.4936 -0.7884 -0.1049
  455MOL0     H60043   4.472   2.524   9.515  0.3322  1.6781 -4.0997
  455MOL0     H60044   4.764   2.318   9.211  2.5008  3.4866 -0.9496
  455MOL0     H60045   4.853   2.240   8.973 -1.9061 -2.7575 -0.6065
  455MOL0     H60046   6.271   2.290   8.427 -2.1876 -2.3119  1.0615
  455MOL0     H60047   6.523   2.296   8.510 -0.6987 -0.6500  0.0001
  455MOL0     H60048   6.819   1.777   8.603 -0.7469  0.0576 -4.3896
  455MOL0     H60049   7.048   1.711   8.632 -0.0518  0.3565 -2.6984
  455MOL0     H60050   7.397   2.016   8.660 -1.8605 -0.1547  0.6085
  455MOL0     H60051   7.395   1.979   8.480  2.0986  0.5626  0.6678
  455MOL0     H60052   7.473   1.728   8.581  2.0452 -0.1282 -0.8334
  455MOL0     H60053   7.580   1.858   8.553  0.1751  0.9182 -1.2447
  455MOL0     H60054   7.426   1.822   8.822 -1.0200  0.9650 -0.9807
  455MOL0     H60055   7.541   1.951   8.803 -2.0276  1.1952  1.7257
  455MOL0     H60056   7.643   1.792   8.925 -2.0613  1.6004  0.5385
  455MOL0     H60057   7.593   1.658   8.813 -1.7783  0.6872  0.6618
  455MOL0     H60058   7.965   1.724   8.660 -0.1741  1.2257 -1.8005
  455MOL0     H60059   7.181   2.108   8.531 -0.2175 -0.8794 -3.3515
  455MOL0     H60060   6.956   2.181   8.520  1.3036 -0.2557 -0.5805
  456MOL0     O60061   0.820   0.805   1.117 -0.5184  0.1800  0.5383
  456MOL0     C60062   0.841   0.717   1.028  0.3244 -0.4364 -0.2676
  456MOL0     O60063   0.945   0.620   1.031  0.7069  0.7903 -0.5014
  456MOL0     C60064   1.022   0.619   1.138  0.6295 -0.1003  0.6155
  456MOL0     C60065   0.997   0.664   1.274  0.4200  0.1062  0.7851
  456MOL0     C60066   1.100   0.656   1.367  0.4197 -0.3020  0.6387
  456MOL0     C60067   1.229   0.608   1.337 -0.1622 -0.0908  0.5979
  456MOL0     O60068   1.345   0.619   1.422 -0.5201  0.5698  0.3203
  456MOL0     C60069   1.361   0.717   1.529  0.5930  0.8173  0.6564
  456MOL0     C60070   1.499   0.726   1.585  0.0747 -1.3306  0.4412
  456MOL0     C60071   1.552   0.586   1.604 -0.2194 -0.7939 -0.1759
  456MOL0     C60072   1.682   0.601   1.687  0.2421  0.4335  0.7937
  456MOL0     C60073   1.764   0.479   1.641 -0.5242  0.0794 -0.7636
  456MOL0     C60074   1.842   0.426   1.767  0.5964 -0.9688  0.0903
  456MOL0     C60075   1.944   0.335   1.726 -0.1289  1.1406 -0.3612
  456MOL0     C60076   2.022   0.286   1.851  0.6465 -0.0297  0.3869
  456MOL0     N60077   2.119   0.389   1.904 -0.1126 -0.6848  0.1000
  456MOL0     C60078   2.099   0.459   2.019  0.4697  0.0247  0.1684
  456MOL0     C60079   2.207   0.538   2.029  0.3419  0.2743 -0.3795
  456MOL0     C60080   2.246   0.643   2.134  0.2483 -0.0782  0.3383
  456MOL0     C60081   2.328   0.590   2.246 -0.0169 -0.3889 -0.4454
  456MOL0     C60082   2.412   0.694   2.327  1.7255  0.3728  0.3495
  456MOL0     C60083   2.527   0.631   2.405  0.2188 -0.2255  0.4455
  456MOL0     O60084   2.487   0.582   2.539 -0.9170  0.1295 -0.5858
  456MOL0     C60085   2.471   0.663   2.644 -0.4604  0.2535  0.6143
  456MOL0     C60086   2.459   0.610   2.772 -0.7755  0.5747  0.2770
  456MOL0     C60087   2.454   0.687   2.887 -0.0248 -0.9846  0.3768
  456MOL0     C60088   2.466   0.833   2.881  0.2540  0.6006 -0.6351
  456MOL0     C60089   2.465   0.911   3.001  0.0084 -0.2755  0.2489
  456MOL0     O60090   2.497   1.042   2.996 -0.2790  0.8874 -0.1064
  456MOL0     C60091   2.526   1.124   3.105  0.0170 -0.3503  0.3807
  456MOL0     C60092   2.574   1.075   3.233  1.2948  0.2576 -0.0932
  456MOL0     C60093   2.608   1.167   3.330  0.3316  0.0094  0.3165
  456MOL0     C60094   2.594   1.308   3.315 -0.4854 -0.0186  0.1811
  456MOL0     O60095   2.634   1.415   3.392 -0.6380 -0.9867  0.4099
  456MOL0     C60096   2.708   1.392   3.509  0.1972 -0.1912  0.2458
  456MOL0     C60097   2.711   1.519   3.581 -0.5946 -0.5504 -0.5360
  456MOL0     C60098   2.817   1.505   3.691 -0.0389 -1.1658 -0.4625
  456MOL0     C60099   2.835   1.638   3.754 -0.4049 -0.3288  1.5019
  456MOL0     C60100   2.945   1.647   3.850  0.2662 -0.3321 -0.8798
  456MOL0     C60101   2.975   1.797   3.896 -0.0984 -0.3689 -0.0628
  456MOL0     C60102   3.123   1.803   3.960  0.2994 -0.4569 -0.6721
  456MOL0     C60103   3.144   1.713   4.077  0.3548  0.4779 -0.8501
  456MOL0    Cl60104   3.017   1.699   4.194  0.0826 -0.0918  0.3141
  456MOL0     C60105   2.544   1.348   3.192 -0.4356  0.0388 -0.5162
  456MOL0     C60106   2.517   1.259   3.090 -0.3707  0.0154  0.2938
  456MOL0     O60107   2.410   0.857   3.097 -0.1368  0.2661  0.5216
  456MOL0     C60108   2.477   0.894   2.751  0.9111  1.0227  0.4768
  456MOL0     C60109   2.484   0.805   2.632 -0.4481  0.4277  0.3543
  456MOL0     N60110   2.290   0.514   1.925  0.1271  0.4674  0.0953
  456MOL0     N60111   2.239   0.425   1.846 -0.2082 -0.3889  0.7213
  456MOL0     C60112   1.248   0.554   1.209  0.0205  0.9083  0.7893
  456MOL0     C60113   1.151   0.561   1.110  0.4166  0.2591  0.5012
  456MOL0     C60114   0.749   0.716   0.902 -0.4337  0.5914 -0.1767
  456MOL0     C60115   0.655   0.807   0.887  0.8044  0.5089  0.1004
  456MOL0     C60116   0.544   0.787   0.801  0.2253 -0.1953 -0.5823
  456MOL0     C60117   0.554   0.671   0.716 -0.0733  0.2034  0.2782
  456MOL0     O60118   0.459   0.626   0.623  0.3544  0.2296 -0.2901
  456MOL0     C60119   0.339   0.710   0.612 -0.1681 -0.1441  0.8216
  456MOL0     C60120   0.219   0.660   0.532 -0.4473  0.3268  0.3644
  456MOL0     C60121   0.099   0.755   0.513 -0.0943 -0.5935 -0.1324
  456MOL0     C60122  -0.036   0.689   0.494  0.5096 -0.3393  0.9652
  456MOL0     C60123  -0.037   0.561   0.422  0.4397 -0.2955  0.7372
  456MOL0     C60124  -0.026   0.454   0.360 -0.0913 -0.9743 -1.6528
  456MOL0     C60125   0.662   0.580   0.722  0.7457  0.2257  0.5539
  456MOL0     C60126   0.752   0.604   0.819  0.2194 -0.1721  1.0085
  456MOL0     H60127   0.900   0.706   1.300  0.4248 -1.4595  3.8246
  456MOL0     H60128   1.083   0.705   1.462 -0.5261 -0.9960  0.8414
  456MOL0     H60129   1.301   0.684   1.614 -0.3956 -0.9102 -0.6484
  456MOL0     H60130   1.335   0.818   1.496 -0.7286 -0.6468 -3.3743
  456MOL0     H60131   1.496   0.784   1.678 -3.9912  0.5016 -0.5936
  456MOL0     H60132   1.559   0.780   1.510 -0.0235 -1.4301  0.2906
  456MOL0     H60133   1.551   0.536   1.506 -4.4953 -3.0373  0.7600
  456MOL0     H60134   1.480   0.537   1.669 -0.2547  0.6288  0.9052
  456MOL0     H60135   1.737   0.692   1.664  0.8069  0.0797  0.7327
  456MOL0     H60136   1.669   0.588   1.795  0.6685 -2.3683  0.6027
  456MOL0     H60137   1.839   0.517   1.570 -1.3481 -3.9116 -4.1229
  456MOL0     H60138   1.701   0.400   1.600 -1.4392 -0.4487  1.5117
  456MOL0     H60139   1.774   0.374   1.835  1.8819 -2.7429  0.0835
  456MOL0     H60140   1.887   0.512   1.817 -2.9719  0.1162  1.7856
  456MOL0     H60141   1.902   0.250   1.671  1.3276  1.2708 -1.7531
  456MOL0     H60142   2.021   0.383   1.666  0.4885 -2.4266 -2.7719
  456MOL0     H60143   2.076   0.196   1.818 -0.1322 -0.9813  1.6120
  456MOL0     H60144   1.952   0.257   1.929 -2.8374  1.1554 -2.0551
  456MOL0     H60145   2.017   0.453   2.090 -0.5176 -1.2804 -1.0264
  456MOL0     H60146   2.159   0.690   2.182  0.4430  1.8783 -1.1141
  456MOL0     H60147   2.307   0.720   2.089 -0.8537  1.2436  1.0309
  456MOL0     H60148   2.399   0.524   2.195  0.2416  0.6270 -1.4480
  456MOL0     H60149   2.259   0.546   2.319 -1.1009  3.6428  1.2317
  456MOL0     H60150   2.459   0.761   2.254  0.5337 -0.2137 -1.0274
  456MOL0     H60151   2.350   0.757   2.392  0.5617  1.5306 -1.7346
  456MOL0     H60152   2.604   0.708   2.413 -0.0393 -0.1423  2.6049
  456MOL0     H60153   2.572   0.550   2.345 -1.8118 -2.5423  1.8606
  456MOL0     H60154   2.459   0.502   2.780  3.9491  0.3570 -0.1283
  456MOL0     H60155   2.444   0.632   2.979 -1.7373 -1.6200 -0.1407
  456MOL0     H60156   2.577   0.967   3.250 -1.7081  0.6593  5.0931
  456MOL0     H60157   2.653   1.129   3.422  0.2450  1.7631  1.1248
  456MOL0     H60158   2.810   1.360   3.486  0.3022  1.0601 -1.2731
  456MOL0     H60159   2.663   1.315   3.571  0.2660 -0.1621  0.3333
  456MOL0     H60160   2.611   1.543   3.618  0.0543  1.2679  0.1702
  456MOL0     H60161   2.746   1.598   3.515  5.4171 -3.4914 -1.6234
  456MOL0     H60162   2.916   1.483   3.650  0.6657  0.8140  0.0642
  456MOL0     H60163   2.800   1.425   3.765 -1.8076  0.0612  0.5224
  456MOL0     H60164   2.839   1.719   3.681 -1.5371  0.8570  2.6909
  456MOL0     H60165   2.742   1.650   3.811 -1.6741 -0.8278 -0.3729
  456MOL0     H60166   3.038   1.624   3.796 -0.1313  0.2083 -1.8269
  456MOL0     H60167   2.933   1.576   3.932  0.4555  0.9997  0.3351
  456MOL0     H60168   2.904   1.834   3.971  0.0051  0.2086 -0.2454
  456MOL0     H60169   2.975   1.862   3.808  0.2925  1.3721  1.1650
  456MOL0     H60170   3.195   1.769   3.885  1.9733  1.9125 -0.2270
  456MOL0     H60171   3.146   1.905   3.990  1.8560 -1.0626  0.2695
  456MOL0     H60172   3.225   1.756   4.137 -1.5012  0.8148  1.5882
  456MOL0     H60173   3.158   1.610   4.043 -3.3549 -0.8842  1.0949
  456MOL0     H60174   2.527   1.453   3.170 -0.7873 -0.3617 -2.3146
  456MOL0     H60175   2.471   1.291   2.997  2.4835 -0.4475 -1.3798
  456MOL0     H60176   2.501   0.999   2.739  1.2959  0.7338 -1.7157
  456MOL0     H60177   2.483   0.854   2.535 -4.0121  2.2337  1.1225
  456MOL0     H60178   1.352   0.539   1.185  0.2681 -2.2674  3.2638
  456MOL0     H60179   1.173   0.544   1.005 -1.1790 -0.8512  0.3162
  456MOL0     H60180   0.646   0.899   0.943  0.1182  1.2900 -1.2367
  456MOL0     H60181   0.465   0.861   0.796 -0.4571 -0.9669 -1.7971
  456MOL0     H60182   0.384   0.794   0.560 -2.0680  0.8179  0.6638
  456MOL0     H60183   0.307   0.748   0.709  1.2681  1.2381  0.7750
  456MOL0     H60184   0.254   0.629   0.432 -2.6701 -0.7818 -0.1335
  456MOL0     H60185   0.171   0.573   0.578 -2.5384  0.0231 -2.1580
  456MOL0     H60186   0.117   0.819   0.427 -0.0001 -1.3242 -0.6687
  456MOL0     H60187   0.090   0.814   0.605 -0.7031 -1.1295  0.1618
  456MOL0     H60188  -0.083   0.669   0.591 -2.4427 -1.4533 -0.5693
  456MOL0     H60189  -0.101   0.765   0.450  1.1833  0.7691  1.8274
  456MOL0     H60190  -0.024   0.365   0.301  1.4044 -1.3264 -1.1208
  456MOL0     H60191   0.663   0.494   0.656 -4.3650 -2.1158  3.0113
  456MOL0     H60192   0.827   0.527   0.828  0.8456  0.2134 -0.4545
  457MOL0     O60193   0.323   3.717  10.729 -0.1857 -0.0035  0.4244
  457MOL0     C60194   0.349   3.656  10.835 -0.4161  0.9533  0.5234
  457MOL0     O60195   0.266   3.590  10.921 -0.2089 -0.2885 -0.5168
  457MOL0     C60196   0.130   3.605  10.913  0.1399 -0.2443 -0.7244
  457MOL0     C60197   0.054   3.574  10.797 -0.0628 -0.0165  0.1275
  457MOL0     C60198  -0.074   3.620  10.775  0.6201  1.2518 -0.3396
  457MOL0     C60199  -0.144   3.689  10.876  0.5009 -0.4389  1.9688
  457MOL0     O60200  -0.271   3.745  10.866  0.1242  0.2217  0.5910
  457MOL0     C60201  -0.353   3.702  10.756  0.2155  0.2868  0.4436
  457MOL0     C60202  -0.496   3.750  10.768  0.8529 -0.7723 -0.0156
  457MOL0     C60203  -0.540   3.762  10.915 -0.0622 -0.0682 -0.3774
  457MOL0     C60204  -0.558   3.620  10.974 -0.1306  0.1411 -0.2661
  457MOL0     C60205  -0.524   3.618  11.128  0.3183 -0.0846 -0.1276
  457MOL0     C60206  -0.372   3.636  11.163  0.3542 -0.7488 -1.1326
  457MOL0     C60207  -0.356   3.603  11.305  0.1453  0.4767  0.2727
  457MOL0     C60208  -0.206   3.616  11.350 -0.4321 -0.3942  0.5129
  457MOL0     N60209  -0.132   3.486  11.334  0.1363 -0.1980  0.8513
  457MOL0     C60210  -0.091   3.432  11.215 -0.0460  0.5545  0.4788
  457MOL0     C60211  -0.024   3.321  11.241  0.0385  0.7262  0.5875
  457MOL0     C60212   0.071   3.241  11.155  0.0947 -0.6948 -0.9898
  457MOL0     C60213   0.006   3.119  11.097 -0.8194 -0.5099  0.8715
  457MOL0     C60214  -0.102   3.136  10.995  0.2494  0.5141 -0.7972
  457MOL0     C60215  -0.164   3.003  10.948 -0.8224 -1.7989 -0.4556
  457MOL0     O60216  -0.076   2.960  10.845 -0.4738  0.0718  0.1479
  457MOL0     C60217  -0.084   2.824  10.812  0.0090  0.1482 -0.6389
  457MOL0     C60218   0.032   2.786  10.746 -0.8473  0.2402  0.4904
  457MOL0     C60219   0.057   2.652  10.705  0.2333 -0.0229 -0.2302
  457MOL0     C60220  -0.040   2.554  10.721 -0.3899 -0.1372  0.8792
  457MOL0     C60221  -0.013   2.418  10.681 -0.0512  0.7860 -0.3769
  457MOL0     O60222  -0.114   2.328  10.715 -0.3483  0.2433 -0.0766
  457MOL0     C60223  -0.085   2.198  10.679 -0.7173  0.4395 -0.4909
  457MOL0     C60224  -0.163   2.142  10.587 -1.1859 -0.3929 -0.7829
  457MOL0     C60225  -0.133   2.012  10.532 -0.5651  0.2278  1.1311
  457MOL0     C60226  -0.015   1.945  10.560 -0.8807  0.7557 -0.2145
  457MOL0     O60227   0.010   1.824  10.504  0.1883 -0.8575 -0.2548
  457MOL0     C60228   0.128   1.820  10.413  0.7671 -1.0030 -0.2156
  457MOL0     C60229   0.077   1.699  10.337 -0.1638  0.2445  0.1062
  457MOL0     C60230   0.158   1.668  10.218 -0.6916  0.1861  0.0067
  457MOL0     C60231   0.113   1.531  10.144  0.5951  0.5379 -0.0120
  457MOL0     C60232   0.189   1.489  10.015  0.3368  0.4622 -0.4620
  457MOL0     C60233   0.248   1.600   9.927 -0.0647 -0.8464 -0.1588
  457MOL0     C60234   0.142   1.689   9.865 -0.0796 -0.2738  0.1737
  457MOL0     C60235   0.182   1.767   9.745 -0.1944  0.4885 -0.3908
  457MOL0    Cl60236   0.336   1.852   9.750 -0.2088  0.2734 -0.0239
  457MOL0     C60237   0.065   2.004  10.659  0.7849  0.0436 -0.3018
  457MOL0     C60238   0.036   2.131  10.713 -0.8666  0.6011  0.0424
  457MOL0     O60239   0.100   2.386  10.623  0.5583  0.1320  0.2213
  457MOL0     C60240  -0.164   2.600  10.786 -0.5856  0.3734 -0.4728
  457MOL0     C60241  -0.183   2.730  10.827  0.8706 -0.0315 -0.2252
  457MOL0     N60242  -0.027   3.298  11.379  0.2188 -0.1495  0.3742
  457MOL0     N60243  -0.091   3.400  11.433  0.3976 -0.5116  0.7152
  457MOL0     C60244  -0.071   3.725  10.994  0.5600 -0.6561  0.0084
  457MOL0     C60245   0.061   3.678  11.011 -0.8915 -0.0522 -0.5661
  457MOL0     C60246   0.491   3.624  10.857 -0.7868  0.7245  0.2295
  457MOL0     C60247   0.592   3.662  10.768 -0.7019  0.1827 -0.0878
  457MOL0     C60248   0.725   3.608  10.791 -0.1452  0.5614 -0.8022
  457MOL0     C60249   0.759   3.524  10.900  0.3261  0.6978  0.5415
  457MOL0     O60250   0.882   3.470  10.914 -0.3550 -0.1321 -0.5938
  457MOL0     C60251   0.974   3.473  10.803 -0.5250 -0.2302 -0.6463
  457MOL0     C60252   1.103   3.407  10.855 -0.2001 -0.2708  0.2093
  457MOL0     C60253   1.210   3.509  10.871 -0.2988  0.2864 -0.5099
  457MOL0     C60254   1.346   3.451  10.908  0.4429 -0.2108 -0.8034
  457MOL0     C60255   1.369   3.436  11.053  0.5518  0.5906  0.6705
  457MOL0     C60256   1.388   3.421  11.172 -0.0613 -0.1663 -0.2477
  457MOL0     C60257   0.658   3.487  10.988  0.0007  0.5470  0.1829
  457MOL0     C60258   0.529   3.531  10.961 -0.7524  0.0728  0.3940
  457MOL0     H60259   0.097   3.524  10.710 -0.1709 -0.5066  0.3502
  457MOL0     H60260  -0.137   3.596  10.691 -2.4705  1.1443  1.8487
  457MOL0     H60261  -0.348   3.594  10.740  1.4544  0.5975 -1.7355
  457MOL0     H60262  -0.319   3.724  10.654 -3.8599 -0.8851 -1.3948
  457MOL0     H60263  -0.574   3.689  10.722  2.2131 -0.8200 -2.3967
  457MOL0     H60264  -0.506   3.844  10.714 -3.3435 -0.8084  0.3825
  457MOL0     H60265  -0.635   3.816  10.913 -0.0022  0.0958  0.6774
  457MOL0     H60266  -0.481   3.827  10.980 -1.0524  0.2342  0.2452
  457MOL0     H60267  -0.664   3.603  10.956 -0.3300 -0.1274  1.0680
  457MOL0     H60268  -0.495   3.553  10.914 -0.1822 -0.0363 -0.1243
  457MOL0     H60269  -0.556   3.522  11.171  2.4787 -0.3796  0.9273
  457MOL0     H60270  -0.580   3.697  11.180  1.5080  1.3730 -0.9812
  457MOL0     H60271  -0.345   3.739  11.136  1.9051 -0.3390  1.5971
  457MOL0     H60272  -0.305   3.571  11.107  2.4422  0.5843 -0.2791
  457MOL0     H60273  -0.419   3.668  11.367  1.0278  1.8826 -0.2781
  457MOL0     H60274  -0.391   3.500  11.316 -4.5965  1.4238 -2.8009
  457MOL0     H60275  -0.208   3.641  11.456 -0.7230  3.5341 -0.2919
  457MOL0     H60276  -0.153   3.696  11.297 -1.2168 -0.2621 -0.0844
  457MOL0     H60277  -0.088   3.474  11.115  0.7438 -0.9467 -0.1644
  457MOL0     H60278   0.160   3.205  11.207 -1.1720 -0.5368  1.4097
  457MOL0     H60279   0.107   3.312  11.080 -1.3247  2.5141  1.1233
  457MOL0     H60280  -0.009   3.043  11.175  0.5665 -3.1572 -1.3075
  457MOL0     H60281   0.091   3.075  11.045 -1.9786 -0.3151 -1.2866
  457MOL0     H60282  -0.182   3.201  11.032  0.4811  0.6567 -0.5473
  457MOL0     H60283  -0.051   3.186  10.912  0.2902  1.3483 -0.2741
  457MOL0     H60284  -0.270   3.010  10.922 -0.6681 -0.6645 -0.8009
  457MOL0     H60285  -0.151   2.932  11.031  3.4028 -0.1826  0.5365
  457MOL0     H60286   0.103   2.867  10.731 -0.4241 -0.5285 -2.0769
  457MOL0     H60287   0.153   2.620  10.664  0.4143  0.8827 -0.5402
  457MOL0     H60288  -0.249   2.203  10.562  0.4622  2.7582  0.6743
  457MOL0     H60289  -0.213   1.975  10.468 -1.7100  0.2621  2.4915
  457MOL0     H60290   0.219   1.801  10.470 -0.9197 -2.1976  2.2795
  457MOL0     H60291   0.135   1.911  10.353  0.0925  0.9965  2.5380
  457MOL0     H60292  -0.024   1.715  10.298 -1.1262 -3.4675  0.7304
  457MOL0     H60293   0.072   1.614  10.405 -2.7891 -0.0587 -0.3405
  457MOL0     H60294   0.261   1.658  10.253 -0.2370  0.8350 -1.0633
  457MOL0     H60295   0.147   1.754  10.151  3.6009  1.2819  0.3512
  457MOL0     H60296   0.139   1.450  10.213  3.0759  0.5504 -0.8420
  457MOL0     H60297   0.006   1.530  10.124  0.4373  0.6266  0.7823
  457MOL0     H60298   0.112   1.437   9.956 -1.2426 -0.7073  2.4386
  457MOL0     H60299   0.271   1.421  10.043 -2.3919 -1.6966  3.1308
  457MOL0     H60300   0.322   1.565   9.855  0.7396 -1.6011  0.9949
  457MOL0     H60301   0.309   1.670   9.986  1.3201  1.7462 -4.2293
  457MOL0     H60302   0.060   1.634   9.818  1.6541 -1.8046 -1.2164
  457MOL0     H60303   0.093   1.761   9.931  1.9757 -0.2955  1.8290
  457MOL0     H60304   0.097   1.833   9.723 -1.5092 -0.8015  0.5788
  457MOL0     H60305   0.204   1.708   9.656  0.1470  0.5579 -0.3541
  457MOL0     H60306   0.157   1.953  10.684  0.1552 -1.7424 -1.4773
  457MOL0     H60307   0.114   2.169  10.778 -1.7949  0.3113  1.3527
  457MOL0     H60308  -0.253   2.540  10.799 -1.0850  1.3202  0.7163
  457MOL0     H60309  -0.276   2.762  10.872 -0.0022 -1.7177 -0.7005
  457MOL0     H60310  -0.112   3.790  11.071  1.7080  1.9721 -1.4894
  457MOL0     H60311   0.119   3.696  11.101 -2.0020  1.0569 -0.0458
  457MOL0     H60312   0.565   3.727  10.686 -1.4137  0.6723  0.5189
  457MOL0     H60313   0.810   3.645  10.736  1.4357  2.7992  2.7522
  457MOL0     H60314   0.990   3.574  10.764 -4.1501  0.4240 -0.8459
  457MOL0     H60315   0.945   3.416  10.713  2.1765 -0.2781 -1.5647
  457MOL0     H60316   1.076   3.354  10.948  0.0173 -0.2146  0.3047
  457MOL0     H60317   1.134   3.339  10.775  2.5844  1.8278 -0.6455
  457MOL0     H60318   1.175   3.578  10.948 -2.1065  0.1972 -1.2023
  457MOL0     H60319   1.217   3.575  10.784  0.3513  0.2782 -0.4741
  457MOL0     H60320   1.336   3.354  10.858 -3.0938 -0.1745 -0.4483
  457MOL0     H60321   1.423   3.514  10.863  0.0807 -0.7754 -2.3118
  457MOL0     H60322   1.380   3.381  11.271 -0.5252 -0.8509 -0.5578
  457MOL0     H60323   0.669   3.421  11.073 -0.1836  1.5635  1.0214
  457MOL0     H60324   0.457   3.496  11.035 -2.1100 -1.0276 -1.3523
  458MOL0     O60325   8.085   2.241   2.818 -1.0109  1.3202 -0.8004
  458MOL0     C60326   8.059   2.283   2.700  0.7811  1.0413 -0.7954
  458MOL0     O60327   7.931   2.292   2.647 -0.2550  0.1922  0.5398
  458MOL0     C60328   7.827   2.251   2.735  0.5657  0.4833 -0.3218
  458MOL0     C60329   7.741   2.337   2.808  0.2513 -0.4062  0.1825
  458MOL0     C60330   7.635   2.290   2.882  0.1218  0.7081 -0.3252
  458MOL0     C60331   7.607   2.149   2.885  0.0289 -0.6930  0.4734
  458MOL0     O60332   7.513   2.083   2.959 -0.1808  0.3881  0.2003
  458MOL0     C60333   7.393   2.160   2.987 -0.5519 -0.1691  0.7808
  458MOL0     C60334   7.296   2.089   3.077 -1.3862 -0.5375 -1.2533
  458MOL0     C60335   7.349   2.064   3.217 -0.7038  2.5404 -0.1164
  458MOL0     C60336   7.251   1.982   3.299 -0.0926  0.1028 -0.1263
  458MOL0     C60337   7.319   1.935   3.425 -0.1064  0.3301  0.1756
  458MOL0     C60338   7.342   2.045   3.520 -0.6479  0.0974  0.4967
  458MOL0     C60339   7.370   2.001   3.672 -0.2931  1.1516 -0.3510
  458MOL0     C60340   7.381   2.135   3.758 -0.3422 -0.0466 -0.0975
  458MOL0     N60341   7.494   2.212   3.709  0.6931  0.0600 -0.6994
  458MOL0     C60342   7.486   2.337   3.651  0.3462  0.4596  0.3517
  458MOL0     C60343   7.611   2.373   3.635  0.3516 -0.2332  0.4429
  458MOL0     C60344   7.652   2.496   3.573 -0.3391  0.0362 -0.6955
  458MOL0     C60345   7.637   2.486   3.419 -0.0005  0.0131  0.7204
  458MOL0     C60346   7.712   2.360   3.366 -0.3023 -0.0494 -0.1039
  458MOL0     C60347   7.671   2.360   3.216 -0.8281  0.0845  0.3374
  458MOL0     O60348   7.750   2.453   3.150 -0.4475  0.3869 -0.2856
  458MOL0     C60349   7.884   2.430   3.123  0.0909 -0.0867 -0.1265
  458MOL0     C60350   7.954   2.330   3.175 -0.5399  0.2547  0.2293
  458MOL0     C60351   8.095   2.322   3.149  0.6077  0.4034  0.1640
  458MOL0     C60352   8.157   2.428   3.080 -0.4888  0.6589  0.2433
  458MOL0     C60353   8.305   2.413   3.063 -0.1928  0.5964 -0.8156
  458MOL0     O60354   8.365   2.289   3.104  0.5449  0.2804 -0.6121
  458MOL0     C60355   8.507   2.286   3.080  0.5777 -0.2521 -0.7343
  458MOL0     C60356   8.559   2.171   3.013  0.6217 -1.3754  0.9267
  458MOL0     C60357   8.699   2.155   3.010  0.8403  0.1763  1.1239
  458MOL0     C60358   8.793   2.260   3.052  0.5805 -1.3707  0.8896
  458MOL0     O60359   8.927   2.243   3.054 -0.3606 -0.4052  0.0779
  458MOL0     C60360   8.970   2.119   3.004 -0.3508  0.7424  0.4236
  458MOL0     C60361   9.129   2.104   3.025 -0.8515  0.2269  0.3630
  458MOL0     C60362   9.189   1.964   3.007 -0.1958 -0.3257 -0.0278
  458MOL0     C60363   9.326   1.942   3.051 -0.6400  0.4853 -0.1771
  458MOL0     C60364   9.439   2.001   2.960 -0.0855  0.0114 -0.1043
  458MOL0     C60365   9.582   1.976   3.000 -0.4880 -0.3166 -0.0481
  458MOL0     C60366   9.672   2.042   2.900 -0.4861 -0.4121 -0.0533
  458MOL0     C60367   9.806   2.069   2.951 -0.2629 -0.5100  0.8513
  458MOL0    Cl60368   9.931   2.134   2.838 -0.3089 -0.0230 -0.2077
  458MOL0     C60369   8.735   2.375   3.108  0.8325 -0.1601 -0.2939
  458MOL0     C60370   8.597   2.384   3.124 -0.0239 -0.3275 -0.0224
  458MOL0     O60371   8.366   2.510   3.017 -0.1935  0.6272 -0.0769
  458MOL0     C60372   8.088   2.525   3.017 -0.7160  0.8471 -0.4516
  458MOL0     C60373   7.944   2.525   3.034 -0.2017 -0.8645 -0.5066
  458MOL0     N60374   7.697   2.277   3.681  0.0277 -0.8586  0.2620
  458MOL0     N60375   7.619   2.191   3.740 -0.0608  0.6084  0.0685
  458MOL0     C60376   7.698   2.070   2.812  0.3786 -0.0729  0.7996
  458MOL0     C60377   7.805   2.113   2.735  0.3208 -0.1121 -1.0071
  458MOL0     C60378   8.168   2.337   2.610  0.4812 -0.5140 -0.7878
  458MOL0     C60379   8.138   2.403   2.494 -0.0690 -0.7099  1.3624
  458MOL0     C60380   8.238   2.459   2.405  0.3991 -1.2703 -0.2277
  458MOL0     C60381   8.373   2.428   2.442 -0.4332  0.0672  0.5583
  458MOL0     O60382   8.461   2.466   2.340 -0.2533 -0.1050  0.6017
  458MOL0     C60383   8.596   2.437   2.371 -0.4852  0.0224 -0.3895
  458MOL0     C60384   8.685   2.477   2.256  1.0196  0.5592  0.3217
  458MOL0     C60385   8.841   2.445   2.281  0.7996  0.2554  0.3721
  458MOL0     C60386   8.932   2.522   2.188 -0.2907  0.1534 -0.2718
  458MOL0     C60387   9.061   2.473   2.170 -0.0673 -0.8945  0.1455
  458MOL0     C60388   9.179   2.447   2.155  0.0331 -0.8274  0.7669
  458MOL0     C60389   8.403   2.373   2.572 -0.2104  0.0437 -0.2798
  458MOL0     C60390   8.297   2.328   2.656  0.5319  0.0365  0.5006
  458MOL0     H60391   7.773   2.439   2.829  0.5943 -0.3544 -0.5819
  458MOL0     H60392   7.577   2.366   2.933 -1.2164 -1.2840  1.2821
  458MOL0     H60393   7.340   2.199   2.899 -1.8176  0.2431  1.6875
  458MOL0     H60394   7.422   2.251   3.041  1.3723  1.0916 -2.1325
  458MOL0     H60395   7.259   1.996   3.034  0.0795 -2.7190  1.7951
  458MOL0     H60396   7.206   2.150   3.089 -2.4581 -1.8889 -2.1825
  458MOL0     H60397   7.361   2.159   3.269 -1.1558  2.1436  0.7279
  458MOL0     H60398   7.447   2.015   3.211 -1.9986 -0.1381 -1.2413
  458MOL0     H60399   7.154   2.033   3.303 -0.7171 -1.0316 -0.4844
  458MOL0     H60400   7.228   1.893   3.239 -0.0594  0.0728 -0.0939
  458MOL0     H60401   7.409   1.875   3.407 -2.4166 -3.5091  0.4734
  458MOL0     H60402   7.252   1.871   3.482  3.8217 -2.4298  2.2259
  458MOL0     H60403   7.261   2.119   3.522 -2.0236 -1.3142  3.9232
  458MOL0     H60404   7.428   2.104   3.487 -1.2991  0.6292 -0.2877
  458MOL0     H60405   7.287   1.939   3.708  0.5217  1.3353  2.0395
  458MOL0     H60406   7.465   1.946   3.677 -1.8185 -1.5296  1.9798
  458MOL0     H60407   7.417   2.094   3.852  0.3651  1.3911  0.2766
  458MOL0     H60408   7.286   2.189   3.764 -1.5384 -2.0319 -0.3878
  458MOL0     H60409   7.401   2.392   3.612 -3.2069 -3.6989  1.4327
  458MOL0     H60410   7.756   2.514   3.604 -0.7959  0.1778  0.8255
  458MOL0     H60411   7.596   2.575   3.623  0.0106 -1.3879  2.1357
  458MOL0     H60412   7.672   2.577   3.369 -0.2253  0.8585  2.0563
  458MOL0     H60413   7.528   2.486   3.412  0.1039  0.3305 -1.5512
  458MOL0     H60414   7.819   2.381   3.379 -0.0907 -1.2711  0.1816
  458MOL0     H60415   7.699   2.261   3.410 -1.1090  0.6170  1.2464
  458MOL0     H60416   7.571   2.390   3.185 -0.1537 -1.6072 -4.1921
  458MOL0     H60417   7.690   2.259   3.179 -0.4044 -0.1425  1.1474
  458MOL0     H60418   7.903   2.259   3.239  0.9974  0.1280  1.3619
  458MOL0     H60419   8.142   2.239   3.200 -0.9497 -0.2990  0.5218
  458MOL0     H60420   8.492   2.088   2.991 -1.0140 -0.4658  2.2050
  458MOL0     H60421   8.738   2.063   2.967 -0.2272  0.3639 -0.2977
  458MOL0     H60422   8.954   2.104   2.897 -3.6570 -0.2628  0.9622
  458MOL0     H60423   8.912   2.037   3.047  0.0115 -0.8541 -1.9442
  458MOL0     H60424   9.161   2.133   3.125  2.7856 -2.6451  0.2109
  458MOL0     H60425   9.183   2.161   2.950  0.5961 -1.3234  0.1742
  458MOL0     H60426   9.191   1.931   2.902  2.6101 -2.8126  0.6492
  458MOL0     H60427   9.112   1.897   3.047  0.7357 -1.5641 -0.2372
  458MOL0     H60428   9.333   1.959   3.159  2.1467 -2.5058  0.2797
  458MOL0     H60429   9.343   1.834   3.055  1.9725  0.8333  3.2321
  458MOL0     H60430   9.424   2.109   2.953  0.6909  0.0254 -2.1393
  458MOL0     H60431   9.428   1.947   2.866 -0.5223 -2.1452  1.1076
  458MOL0     H60432   9.608   1.870   3.008  0.0941 -0.5484 -3.5988
  458MOL0     H60433   9.596   2.017   3.101  0.9501  0.0522 -0.3744
  458MOL0     H60434   9.684   1.979   2.812  3.8586 -0.8886  0.6450
  458MOL0     H60435   9.620   2.131   2.866 -2.6854 -0.9938  1.5670
  458MOL0     H60436   9.829   1.981   3.011  0.4189 -0.4799  0.6393
  458MOL0     H60437   9.785   2.146   3.027  0.1034  2.0607 -1.4773
  458MOL0     H60438   8.812   2.442   3.144  1.8458 -0.4864 -1.7642
  458MOL0     H60439   8.555   2.466   3.182  1.8459 -0.4856  1.6532
  458MOL0     H60440   8.122   2.612   2.961  0.9943  1.1324  0.9506
  458MOL0     H60441   7.882   2.603   2.991 -1.2081 -0.2849  1.8416
  458MOL0     H60442   7.677   1.964   2.807 -2.5744  0.4799 -2.2268
  458MOL0     H60443   7.866   2.053   2.668 -2.3013 -0.2720 -3.4366
  458MOL0     H60444   8.032   2.420   2.477 -0.3446  2.1325  4.6969
  458MOL0     H60445   8.219   2.502   2.307 -0.8537 -0.9205  0.1472
  458MOL0     H60446   8.615   2.329   2.374 -0.3908  0.0332 -0.6368
  458MOL0     H60447   8.639   2.487   2.459  2.8493  0.0916 -1.9251
  458MOL0     H60448   8.653   2.417   2.170 -1.3506  0.2121  1.3778
  458MOL0     H60449   8.686   2.583   2.227  1.2870  0.2717 -0.7623
  458MOL0     H60450   8.862   2.337   2.279 -2.0742 -0.3757  0.0738
  458MOL0     H60451   8.871   2.469   2.384  0.3720  0.6525  0.4064
  458MOL0     H60452   8.873   2.523   2.096 -1.5944  1.0319  0.5364
  458MOL0     H60453   8.942   2.624   2.227 -0.6014  0.7855 -1.8045
  458MOL0     H60454   9.279   2.444   2.117 -0.1864  0.6351 -0.0125
  458MOL0     H60455   8.502   2.359   2.613 -0.8153 -1.9737  0.6393
  458MOL0     H60456   8.328   2.296   2.755  0.2457  0.8925  0.8786
  459MOL0     O60457   6.398   9.368   4.447 -0.1203  0.5578  0.6200
  459MOL0     C60458   6.340   9.451   4.522  0.5748  0.1452 -0.2390
  459MOL0     O60459   6.375   9.491   4.642 -0.4168  0.0815 -0.1829
  459MOL0     C60460   6.474   9.422   4.698  0.2778  1.0098 -0.3700
  459MOL0     C60461   6.604   9.472   4.706 -0.3840  0.3066  0.6658
  459MOL0     C60462   6.693   9.406   4.783 -1.2948 -0.3246  0.4507
  459MOL0     C60463   6.662   9.300   4.866  0.1253 -0.1722 -0.3228
  459MOL0     O60464   6.762   9.243   4.937  0.4249 -0.4247 -0.3907
  459MOL0     C60465   6.817   9.122   4.878  0.9992  0.6544  0.1505
  459MOL0     C60466   6.774   8.997   4.948 -0.0595  0.1907  0.3756
  459MOL0     C60467   6.785   8.874   4.854 -0.1517 -0.7456 -0.6118
  459MOL0     C60468   6.740   8.751   4.926  0.1465 -0.7830  0.0593
  459MOL0     C60469   6.724   8.620   4.847  0.0314  0.2588 -0.5013
  459MOL0     C60470   6.833   8.528   4.875  0.2402  0.3203  0.0120
  459MOL0     C60471   6.975   8.576   4.827  0.2785  0.2442 -0.1607
  459MOL0     C60472   7.073   8.459   4.850 -0.3435 -0.5562 -0.3571
  459MOL0     N60473   7.094   8.403   4.985 -0.1520 -0.0160 -0.3816
  459MOL0     C60474   7.152   8.471   5.087 -0.1487  0.2195  0.4916
  459MOL0     C60475   7.171   8.383   5.190 -0.1266 -0.5717 -0.5140
  459MOL0     C60476   7.207   8.431   5.322  0.0105 -0.2487 -0.2402
  459MOL0     C60477   7.343   8.378   5.374 -0.8973  0.3090  0.5081
  459MOL0     C60478   7.318   8.250   5.453  0.2333 -0.5328  0.6899
  459MOL0     C60479   7.431   8.202   5.547  0.6808  1.2596  0.5617
  459MOL0     O60480   7.418   8.056   5.543  0.1222  0.3499  0.1085
  459MOL0     C60481   7.509   7.980   5.607 -0.4815 -0.4944 -0.6482
  459MOL0     C60482   7.473   7.847   5.640  0.3112  0.1839  0.8380
  459MOL0     C60483   7.557   7.764   5.726 -0.7005  0.7259  0.1515
  459MOL0     C60484   7.686   7.817   5.778  0.3897 -0.2631  0.0602
  459MOL0     C60485   7.784   7.735   5.860 -0.0108 -0.2613 -0.5179
  459MOL0     O60486   7.883   7.802   5.921  1.1606  0.0062  0.0481
  459MOL0     C60487   7.985   7.732   5.977  0.5357  0.7095  0.4246
  459MOL0     C60488   8.075   7.660   5.900 -1.1862 -0.0377  0.8173
  459MOL0     C60489   8.174   7.583   5.958 -1.0296 -0.3358 -0.0430
  459MOL0     C60490   8.185   7.574   6.103 -0.1887  0.0053  0.7561
  459MOL0     O60491   8.267   7.493   6.172  0.9806  0.4317  0.9241
  459MOL0     C60492   8.354   7.400   6.107 -0.2441 -0.3833 -0.3208
  459MOL0     C60493   8.469   7.356   6.194  0.4577 -0.4028  0.7551
  459MOL0     C60494   8.520   7.448   6.291  0.1147 -0.4540 -0.4244
  459MOL0     C60495   8.669   7.439   6.340  0.2423  0.1342 -1.0547
  459MOL0     C60496   8.707   7.311   6.420 -0.1886 -0.3051 -0.1310
  459MOL0     C60497   8.635   7.273   6.550  0.8075  0.4537  0.7294
  459MOL0     C60498   8.524   7.175   6.541  0.4218  0.6796 -0.1369
  459MOL0     C60499   8.488   7.113   6.670 -0.2521  1.1354  0.0794
  459MOL0    Cl60500   8.633   7.026   6.743  0.0998  0.2340 -0.6981
  459MOL0     C60501   8.098   7.663   6.179 -0.1205 -0.0051  0.6310
  459MOL0     C60502   7.999   7.733   6.115  0.4119  0.0827  0.8798
  459MOL0     O60503   7.776   7.619   5.847  0.1428  0.7051  0.8748
  459MOL0     C60504   7.711   7.949   5.755 -0.0007  0.0103 -0.4406
  459MOL0     C60505   7.625   8.030   5.666  0.4390  0.4423  0.4616
  459MOL0     N60506   7.128   8.263   5.147  0.1804 -0.2188  0.3483
  459MOL0     N60507   7.100   8.268   5.021  0.0983 -0.2350 -0.4936
  459MOL0     C60508   6.537   9.251   4.856  0.8090 -0.0751 -0.0783
  459MOL0     C60509   6.439   9.304   4.771  0.8717  0.6840 -0.1628
  459MOL0     C60510   6.229   9.524   4.474  0.7188 -0.2135 -0.0471
  459MOL0     C60511   6.188   9.519   4.340 -0.4852  0.1229 -0.4749
  459MOL0     C60512   6.079   9.591   4.288  0.8844  0.3140 -0.4006
  459MOL0     C60513   6.013   9.682   4.364 -0.3218 -0.4771 -1.1262
  459MOL0     O60514   5.930   9.775   4.304 -0.6284  0.2351 -0.4615
  459MOL0     C60515   5.970   9.826   4.177 -0.0365  0.7822  0.0699
  459MOL0     C60516   5.875   9.940   4.148 -0.0216  0.4681  0.6637
  459MOL0     C60517   5.905  10.062   4.234  1.3310 -0.0489  1.0944
  459MOL0     C60518   5.792  10.176   4.223  0.5869  0.2741  0.2385
  459MOL0     C60519   5.785  10.228   4.088  0.0782  0.8512  1.0028
  459MOL0     C60520   5.797  10.276   3.979  0.7336 -0.6652 -0.0814
  459MOL0     C60521   6.040   9.681   4.503  0.6082 -0.4753  0.1861
  459MOL0     C60522   6.141   9.600   4.553  0.1542 -0.2220 -0.4483
  459MOL0     H60523   6.642   9.559   4.655  0.3230 -0.2419  0.2292
  459MOL0     H60524   6.794   9.439   4.763 -1.3252 -0.5436 -0.0837
  459MOL0     H60525   6.925   9.130   4.892  0.8706  5.1901  0.0002
  459MOL0     H60526   6.797   9.118   4.770  0.7420 -0.0959  0.2265
  459MOL0     H60527   6.671   9.009   4.984 -0.7019  2.2869 -1.9285
  459MOL0     H60528   6.837   8.992   5.037  1.0982 -1.9206 -0.4979
  459MOL0     H60529   6.890   8.859   4.827  0.5053  1.2568  0.5517
  459MOL0     H60530   6.742   8.886   4.754  1.4413 -2.4403 -1.5392
  459MOL0     H60531   6.791   8.743   5.022  0.6582  1.3609  0.0107
  459MOL0     H60532   6.635   8.764   4.955 -0.6934 -4.8695 -0.4774
  459MOL0     H60533   6.716   8.634   4.739 -0.7723 -0.9267 -0.6190
  459MOL0     H60534   6.628   8.580   4.880  0.5351  0.4671  1.3097
  459MOL0     H60535   6.821   8.428   4.832  2.8739 -0.2751  0.4803
  459MOL0     H60536   6.838   8.510   4.982 -0.8594 -2.0424 -0.2699
  459MOL0     H60537   6.986   8.590   4.719 -2.7269 -0.0826 -0.6022
  459MOL0     H60538   7.014   8.664   4.879  0.2264 -0.2774  0.7875
  459MOL0     H60539   7.167   8.497   4.808 -1.2650 -0.9400 -3.0158
  459MOL0     H60540   7.057   8.384   4.772  1.8417  0.0981 -1.5380
  459MOL0     H60541   7.179   8.576   5.082  1.0765 -0.1399 -2.0764
  459MOL0     H60542   7.125   8.412   5.392 -1.0376 -0.1240 -1.3861
  459MOL0     H60543   7.216   8.539   5.304 -3.3611  0.2678  0.5018
  459MOL0     H60544   7.386   8.454   5.439  1.9113  0.3586 -1.2307
  459MOL0     H60545   7.406   8.357   5.287 -1.4914 -1.1487  0.4005
  459MOL0     H60546   7.235   8.251   5.524  1.1672  2.2060  1.9073
  459MOL0     H60547   7.312   8.175   5.375  2.2039 -0.7905  0.7235
  459MOL0     H60548   7.405   8.241   5.646 -4.5302  3.3816 -1.2747
  459MOL0     H60549   7.525   8.242   5.507  0.2697 -0.5211 -2.4728
  459MOL0     H60550   7.377   7.805   5.613 -0.7816  2.7845  0.4131
  459MOL0     H60551   7.514   7.671   5.760 -2.9021  1.8327  0.5609
  459MOL0     H60552   8.063   7.668   5.793 -0.5620  0.9144  0.8013
  459MOL0     H60553   8.236   7.522   5.894  0.8056 -2.8650  3.7327
  459MOL0     H60554   8.399   7.456   6.024 -2.2133 -1.7423 -2.4668
  459MOL0     H60555   8.309   7.317   6.050 -0.9893 -1.3219  1.5654
  459MOL0     H60556   8.547   7.326   6.124  1.0651  1.4201  0.5903
  459MOL0     H60557   8.447   7.263   6.248 -1.6135 -1.0373 -1.0185
  459MOL0     H60558   8.461   7.451   6.383  1.6907  3.7016  0.6803
  459MOL0     H60559   8.514   7.545   6.242 -0.9902  0.0340  0.6429
  459MOL0     H60560   8.732   7.441   6.250  0.2637  1.2629 -1.0275
  459MOL0     H60561   8.693   7.529   6.397  0.3961  0.1311 -1.1137
  459MOL0     H60562   8.814   7.326   6.434  0.3176 -3.3785 -0.0151
  459MOL0     H60563   8.712   7.230   6.347 -0.8903  1.3298 -2.0832
  459MOL0     H60564   8.591   7.367   6.586  0.0231  0.3098  0.1788
  459MOL0     H60565   8.717   7.241   6.614  0.8474 -0.1716  0.3692
  459MOL0     H60566   8.429   7.223   6.516 -1.7205  0.3487  5.7727
  459MOL0     H60567   8.557   7.097   6.472  0.7614 -1.8763  2.6709
  459MOL0     H60568   8.412   7.036   6.652  1.1136  0.0677 -1.3707
  459MOL0     H60569   8.437   7.180   6.741 -1.8148 -1.0743  1.1549
  459MOL0     H60570   8.088   7.662   6.288 -3.9067 -1.0923  0.4210
  459MOL0     H60571   7.934   7.800   6.171  1.2881 -0.2287  2.3272
  459MOL0     H60572   7.802   7.998   5.790  2.0678 -0.6948 -4.2546
  459MOL0     H60573   7.662   8.131   5.652 -0.2200  0.8373  1.4779
  459MOL0     H60574   6.514   9.158   4.907 -0.5032  1.0059  1.3750
  459MOL0     H60575   6.336   9.272   4.786  0.4741  0.6505 -2.6764
  459MOL0     H60576   6.246   9.462   4.269 -1.1326  1.3236 -2.0216
  459MOL0     H60577   6.068   9.592   4.180 -2.0757  0.5771 -0.1755
  459MOL0     H60578   5.958   9.746   4.103  1.6485 -0.5583  1.1594
  459MOL0     H60579   6.076   9.851   4.184  0.7241 -2.5060  3.5259
  459MOL0     H60580   5.899   9.958   4.043 -0.8409 -1.9804 -0.0268
  459MOL0     H60581   5.775   9.900   4.167  1.5313 -3.5100  1.5172
  459MOL0     H60582   6.005  10.104   4.219 -0.0474  2.6682 -1.7129
  459MOL0     H60583   5.904  10.020   4.335  0.1960 -1.0167  0.7094
  459MOL0     H60584   5.700  10.123   4.250  0.6928 -0.4193 -0.7145
  459MOL0     H60585   5.802  10.249   4.304 -2.7652 -1.0587  2.0668
  459MOL0     H60586   5.804  10.330   3.886 -2.5963 -1.2068 -0.7430
  459MOL0     H60587   5.994   9.748   4.575 -0.8892  0.5488 -1.6360
  459MOL0     H60588   6.158   9.611   4.660 -1.6962 -3.0003  0.2293
  460MOL0     O60589   9.550  10.694   2.968  0.1721 -0.0739 -1.3985
  460MOL0     C60590   9.435  10.704   3.021 -0.4386  0.5841 -0.2031
  460MOL0     O60591   9.327  10.771   2.980  0.2238 -0.4748  1.4060
  460MOL0     C60592   9.331  10.867   2.875 -0.9674  0.1234  1.6110
  460MOL0     C60593   9.225  10.871   2.785 -0.7795  0.2997 -0.2481
  460MOL0     C60594   9.215  10.975   2.684 -0.0112  0.3932 -0.1712
  460MOL0     C60595   9.321  11.071   2.668  0.1316 -0.7136 -0.3569
  460MOL0     O60596   9.322  11.155   2.562  0.7109  0.3873  0.2401
  460MOL0     C60597   9.426  11.259   2.546 -0.9788  1.4674 -0.1716
  460MOL0     C60598   9.371  11.381   2.455 -0.4891  0.4017 -0.2065
  460MOL0     C60599   9.238  11.341   2.378 -0.2167 -0.4176 -1.2011
  460MOL0     C60600   9.201  11.436   2.268  0.2927 -0.2064 -0.1476
  460MOL0     C60601   9.162  11.582   2.329 -0.3825 -0.8610 -0.0676
  460MOL0     C60602   9.186  11.705   2.230 -0.1723  0.2132 -0.5676
  460MOL0     C60603   9.340  11.722   2.208 -0.0128 -0.4919 -0.1476
  460MOL0     C60604   9.371  11.851   2.138  0.0338 -0.4683 -0.3829
  460MOL0     N60605   9.400  11.953   2.245  0.8783  0.6213  0.0403
  460MOL0     C60606   9.308  12.038   2.305 -0.1553 -0.1286  0.6345
  460MOL0     C60607   9.386  12.115   2.389 -0.1832 -0.2678  0.1852
  460MOL0     C60608   9.328  12.235   2.454  0.5256 -0.0992 -1.6221
  460MOL0     C60609   9.391  12.366   2.391 -0.0691  0.9517 -0.4846
  460MOL0     C60610   9.348  12.401   2.254  0.6288 -0.5255  0.2020
  460MOL0     C60611   9.199  12.437   2.244 -0.9789 -0.2212  0.3940
  460MOL0     O60612   9.149  12.535   2.337  0.1484 -0.6320 -0.2059
  460MOL0     C60613   9.090  12.494   2.459 -0.5879  0.0353 -0.3671
  460MOL0     C60614   9.113  12.577   2.566 -0.8143 -0.0535  1.0362
  460MOL0     C60615   9.074  12.536   2.694 -0.2085 -0.4479 -0.3334
  460MOL0     C60616   9.004  12.415   2.719 -0.3644 -0.0582 -0.0628
  460MOL0     C60617   8.965  12.367   2.858  1.3210  0.6081  0.0560
  460MOL0     O60618   8.935  12.471   2.947 -0.1913 -0.1874  0.0455
  460MOL0     C60619   8.865  12.446   3.058 -0.1984 -0.4746 -0.3979
  460MOL0     C60620   8.946  12.448   3.180  0.0004  0.6464 -0.4933
  460MOL0     C60621   8.878  12.444   3.300 -0.0061 -0.4103 -0.3979
  460MOL0     C60622   8.736  12.443   3.314  0.2321  0.0013  0.6558
  460MOL0     O60623   8.670  12.453   3.438 -0.3359 -0.0593  0.6445
  460MOL0     C60624   8.526  12.451   3.461 -0.2414  0.2241 -0.8638
  460MOL0     C60625   8.498  12.480   3.601  0.1571 -0.3430  0.4097
  460MOL0     C60626   8.350  12.470   3.625  0.4642  0.2180 -1.3850
  460MOL0     C60627   8.309  12.472   3.781  0.5676 -0.3537  0.2187
  460MOL0     C60628   8.149  12.480   3.785 -0.3198 -0.4835 -0.1483
  460MOL0     C60629   8.066  12.370   3.719  0.3544  0.0005 -0.6282
  460MOL0     C60630   7.909  12.399   3.731 -0.1177  0.0850  0.0091
  460MOL0     C60631   7.831  12.305   3.653  0.4245  1.6145  0.9179
  460MOL0    Cl60632   7.837  12.328   3.482  0.4630  0.0157 -0.2004
  460MOL0     C60633   8.667  12.426   3.194  0.3104 -0.4286 -0.2075
  460MOL0     C60634   8.730  12.435   3.070  0.5611 -0.3280  0.7913
  460MOL0     O60635   8.935  12.245   2.877 -0.0122  0.0751 -0.4411
  460MOL0     C60636   8.969  12.334   2.601 -0.2576 -0.1027  0.0549
  460MOL0     C60637   9.014  12.376   2.472 -0.5511  0.6551 -0.3986
  460MOL0     N60638   9.521  12.089   2.361  0.1382  0.5126 -0.0381
  460MOL0     N60639   9.521  11.989   2.279  0.0460 -0.0943 -0.1692
  460MOL0     C60640   9.434  11.051   2.750  1.0538 -0.2824  0.5329
  460MOL0     C60641   9.440  10.954   2.852 -0.0183 -0.2064 -0.0551
  460MOL0     C60642   9.412  10.622   3.141 -0.1981  0.5511 -0.6650
  460MOL0     C60643   9.296  10.656   3.220 -0.5867  0.6612 -0.2394
  460MOL0     C60644   9.268  10.591   3.345 -0.1192 -0.0256  0.5755
  460MOL0     C60645   9.354  10.490   3.391 -0.0947 -0.8666 -0.7615
  460MOL0     O60646   9.337  10.416   3.510 -0.0322 -0.6277  0.6114
  460MOL0     C60647   9.203  10.420   3.572  0.1957  0.0793 -0.0377
  460MOL0     C60648   9.196  10.337   3.704  0.4750  0.5547 -0.1540
  460MOL0     C60649   9.067  10.262   3.725  0.1780 -0.1906 -0.3312
  460MOL0     C60650   9.058  10.202   3.868  0.2511 -1.0681 -0.1053
  460MOL0     C60651   9.056  10.314   3.968  0.0665  0.2005  1.1597
  460MOL0     C60652   9.071  10.402   4.054 -1.0141 -0.1237  0.6540
  460MOL0     C60653   9.467  10.464   3.307 -0.5647  0.4760  0.2900
  460MOL0     C60654   9.496  10.528   3.188  0.0385 -0.4941  0.4097
  460MOL0     H60655   9.143  10.802   2.802  0.7679 -1.3357  0.8218
  460MOL0     H60656   9.129  10.972   2.618  1.8813 -3.2990 -2.8288
  460MOL0     H60657   9.510  11.202   2.507 -2.7529  0.2496 -2.4228
  460MOL0     H60658   9.460  11.311   2.637  0.3290 -0.7973  0.7085
  460MOL0     H60659   9.449  11.405   2.382 -1.2042 -0.3137 -1.2427
  460MOL0     H60660   9.367  11.467   2.522  1.2820 -1.2487  2.2118
  460MOL0     H60661   9.161  11.330   2.455 -3.7059  1.6351 -4.0359
  460MOL0     H60662   9.264  11.247   2.330  1.5130 -0.1414 -0.8468
  460MOL0     H60663   9.285  11.450   2.201  1.8563 -2.8068  1.1313
  460MOL0     H60664   9.115  11.390   2.218 -1.6729  1.4492  1.4849
  460MOL0     H60665   9.209  11.593   2.427 -0.8032  4.4081 -0.1609
  460MOL0     H60666   9.055  11.574   2.351 -0.8933  0.7304 -1.6797
  460MOL0     H60667   9.151  11.798   2.276  3.5316  1.7411 -0.5285
  460MOL0     H60668   9.145  11.681   2.132  2.4356  1.5215 -2.0900
  460MOL0     H60669   9.399  11.713   2.300  2.5392 -0.5873 -1.7007
  460MOL0     H60670   9.374  11.647   2.136 -1.0350 -1.1918  0.0615
  460MOL0     H60671   9.300  11.868   2.057 -1.0766 -1.7127  0.2896
  460MOL0     H60672   9.471  11.834   2.095 -1.3775 -3.3369 -2.9364
  460MOL0     H60673   9.201  12.041   2.286  0.0262 -0.8336 -0.6167
  460MOL0     H60674   9.348  12.244   2.561 -0.5491 -2.6821 -1.1183
  460MOL0     H60675   9.219  12.225   2.445  0.1029  0.1364  1.9178
  460MOL0     H60676   9.497  12.338   2.390  0.0058  0.9864  1.8672
  460MOL0     H60677   9.381  12.448   2.462  0.9510 -0.4340  1.3261
  460MOL0     H60678   9.401  12.493   2.227 -3.1292  0.9733 -3.0503
  460MOL0     H60679   9.372  12.316   2.190 -0.5940  0.3650 -1.5262
  460MOL0     H60680   9.145  12.342   2.247  2.5920 -2.5714 -1.8995
  460MOL0     H60681   9.188  12.479   2.144  1.6695  1.1523  0.5899
  460MOL0     H60682   9.179  12.661   2.549 -0.5480 -0.9439 -3.3881
  460MOL0     H60683   9.104  12.602   2.774  1.5285 -1.0845 -0.4231
  460MOL0     H60684   9.055  12.445   3.180  0.0091 -2.5642  0.1686
  460MOL0     H60685   8.927  12.431   3.396 -2.3179 -2.7792  0.5814
  460MOL0     H60686   8.507  12.345   3.441 -0.4139 -0.1614  1.1016
  460MOL0     H60687   8.470  12.521   3.398 -1.6576  1.3441  1.4815
  460MOL0     H60688   8.525  12.582   3.628  1.1346  0.2846 -2.5640
  460MOL0     H60689   8.557  12.415   3.667  1.0947  1.3032  1.2600
  460MOL0     H60690   8.315  12.373   3.590 -1.4733  0.5673 -0.5428
  460MOL0     H60691   8.304  12.551   3.567 -1.0280  0.2667 -0.1960
  460MOL0     H60692   8.338  12.383   3.838 -1.7864  0.8916  3.7794
  460MOL0     H60693   8.364  12.544   3.842 -0.5037 -0.6489  1.6140
  460MOL0     H60694   8.113  12.576   3.746  1.7036  0.0419 -0.8672
  460MOL0     H60695   8.123  12.506   3.888 -1.3132  1.6424 -0.8767
  460MOL0     H60696   8.094  12.275   3.764  0.2453 -1.3523 -3.2294
  460MOL0     H60697   8.090  12.348   3.615 -0.8643  1.0757 -1.1708
  460MOL0     H60698   7.867  12.388   3.832  1.4465 -0.2118  0.6599
  460MOL0     H60699   7.883  12.500   3.700 -1.5533 -0.2663 -0.0426
  460MOL0     H60700   7.731  12.328   3.691  0.4956  1.9950  0.8780
  460MOL0     H60701   7.848  12.199   3.675 -0.5834  1.8557  3.0640
  460MOL0     H60702   8.559  12.436   3.205  0.4501  0.7698  0.2712
  460MOL0     H60703   8.666  12.426   2.982 -1.7538  2.0321  2.0930
  460MOL0     H60704   8.933  12.232   2.609 -3.3771  1.0266  1.6927
  460MOL0     H60705   8.994  12.319   2.382 -1.3353  1.1142 -0.5269
  460MOL0     H60706   9.518  11.120   2.744 -0.0241  0.9225 -3.1710
  460MOL0     H60707   9.536  10.966   2.902 -2.2098 -1.0038  4.8874
  460MOL0     H60708   9.227  10.726   3.174  1.8607  1.1039 -3.5944
  460MOL0     H60709   9.178  10.603   3.403  0.4521 -1.4670  1.8310
  460MOL0     H60710   9.137  10.371   3.500 -0.1787 -0.5235  0.7050
  460MOL0     H60711   9.165  10.520   3.595 -0.7638 -0.7100  2.1150
  460MOL0     H60712   9.275  10.262   3.709 -1.3673 -1.4278  2.6537
  460MOL0     H60713   9.225  10.410   3.781  0.7439 -1.2902  1.5841
  460MOL0     H60714   9.062  10.177   3.657  0.7769 -1.0167  0.6257
  460MOL0     H60715   8.985  10.331   3.700 -0.6017  0.0164  2.4899
  460MOL0     H60716   8.969  10.142   3.886 -0.3608  0.0056  0.6126
  460MOL0     H60717   9.149  10.146   3.890  0.3535 -1.1523 -0.7180
  460MOL0     H60718   9.102  10.470   4.131 -2.0913  1.9422 -0.6385
  460MOL0     H60719   9.539  10.388   3.335 -0.0438  0.8017 -0.1386
  460MOL0     H60720   9.587  10.487   3.146  0.0268 -1.1809  1.0260
  461MOL0     O60721   9.207   9.270   2.640  0.4275  0.2802  0.7841
  461MOL0     C60722   9.206   9.382   2.585 -0.0702  0.0286  0.0784
  461MOL0     O60723   9.298   9.432   2.503  0.2048 -0.1738 -0.1373
  461MOL0     C60724   9.416   9.360   2.493  0.1034  0.0959 -0.3477
  461MOL0     C60725   9.510   9.378   2.598 -1.1163 -1.0220 -0.3244
  461MOL0     C60726   9.637   9.325   2.596 -0.9731  0.5940 -0.7205
  461MOL0     C60727   9.669   9.246   2.487 -0.0123 -0.2454 -0.2797
  461MOL0     O60728   9.794   9.193   2.485 -0.0341  0.5180 -0.5331
  461MOL0     C60729   9.833   9.080   2.402 -0.7313 -0.3057 -0.2064
  461MOL0     C60730   9.948   9.128   2.315  0.0939  0.2850  0.3987
  461MOL0     C60731  10.081   9.099   2.394  0.5170  0.4732  0.5413
  461MOL0     C60732  10.194   9.173   2.329 -1.2144 -0.2499 -0.0793
  461MOL0     C60733  10.332   9.158   2.401 -0.3249  0.1391  1.1266
  461MOL0     C60734  10.313   9.219   2.542  1.0794  0.9738  0.3926
  461MOL0     C60735  10.460   9.241   2.604  0.6309 -0.0709 -0.0296
  461MOL0     C60736  10.515   9.104   2.646 -0.0776  0.1235 -0.0336
  461MOL0     N60737  10.646   9.110   2.713  0.4522  1.0435  0.1155
  461MOL0     C60738  10.696   9.224   2.768 -0.8160  0.0282  0.1574
  461MOL0     C60739  10.810   9.175   2.819 -0.5726 -0.9804 -0.5077
  461MOL0     C60740  10.900   9.257   2.914 -0.5956  0.0605  0.1387
  461MOL0     C60741  10.832   9.280   3.048  0.4607 -0.3495  0.4704
  461MOL0     C60742  10.922   9.275   3.168  0.6579 -0.4794  0.6079
  461MOL0     C60743  10.852   9.340   3.289 -0.5833  0.3829 -0.7851
  461MOL0     O60744  10.944   9.358   3.404 -0.2845  0.1952 -0.0650
  461MOL0     C60745  11.012   9.254   3.461 -0.0942  0.1990 -0.0791
  461MOL0     C60746  10.970   9.119   3.449 -0.6962 -0.0927 -0.0540
  461MOL0     C60747  11.045   9.024   3.524  1.3609 -0.2445  0.6270
  461MOL0     C60748  11.163   9.059   3.587  0.1725 -0.1477 -0.2287
  461MOL0     C60749  11.250   8.955   3.656 -1.0902 -0.1044 -0.6474
  461MOL0     O60750  11.380   8.998   3.685  0.6933 -0.1324  0.3796
  461MOL0     C60751  11.479   8.924   3.739 -0.1433 -0.1382 -0.2116
  461MOL0     C60752  11.602   8.992   3.763 -0.2441 -0.4374  0.4781
  461MOL0     C60753  11.707   8.926   3.831 -0.1114  0.2400 -0.0281
  461MOL0     C60754  11.707   8.786   3.861  0.0688 -0.1592  0.5279
  461MOL0     O60755  11.809   8.732   3.924 -0.4107  0.6065 -0.0603
  461MOL0     C60756  11.764   8.672   4.048 -0.1495 -0.6122 -0.4821
  461MOL0     C60757  11.879   8.663   4.158  0.7396 -0.1936  0.2800
  461MOL0     C60758  11.955   8.800   4.189  0.2500  0.4379 -0.2097
  461MOL0     C60759  11.883   8.880   4.283  1.3105  0.1128 -0.4059
  461MOL0     C60760  11.951   9.007   4.328 -0.0000 -0.4002 -0.4060
  461MOL0     C60761  11.924   9.122   4.218  1.0523  0.4250 -0.4928
  461MOL0     C60762  12.035   9.229   4.226 -0.1868  0.3802 -0.5285
  461MOL0     C60763  12.067   9.265   4.373  0.0888  0.6592  0.4048
  461MOL0    Cl60764  12.145   9.429   4.364 -0.2118 -0.2273 -0.6208
  461MOL0     C60765  11.587   8.722   3.829  0.4796 -0.1750  0.2915
  461MOL0     C60766  11.473   8.786   3.774 -0.0417 -0.0612 -0.0379
  461MOL0     O60767  11.207   8.840   3.673  0.2118  0.5144 -1.0995
  461MOL0     C60768  11.194   9.190   3.609  0.0627 -0.3042  1.0179
  461MOL0     C60769  11.118   9.290   3.547  0.5651 -0.1461 -0.4282
  461MOL0     N60770  10.829   9.043   2.794 -0.3759  0.2768  0.0305
  461MOL0     N60771  10.731   9.005   2.715  0.0205  0.0511  0.8800
  461MOL0     C60772   9.577   9.223   2.389 -0.4951  0.5279 -0.0960
  461MOL0     C60773   9.452   9.278   2.388 -0.3443  0.8458  1.2710
  461MOL0     C60774   9.103   9.488   2.630 -0.4521  0.5831 -0.2108
  461MOL0     C60775   9.084   9.617   2.571  0.7491  0.5095 -0.2649
  461MOL0     C60776   8.989   9.705   2.613 -0.7015  0.8891  0.1435
  461MOL0     C60777   8.912   9.682   2.729 -0.5673  0.4248 -0.9929
  461MOL0     O60778   8.818   9.763   2.783  0.1459 -0.1826  0.5169
  461MOL0     C60779   8.835   9.907   2.749 -0.6039 -0.1083 -1.2739
  461MOL0     C60780   8.766   9.995   2.857  0.0340 -0.0200 -0.6744
  461MOL0     C60781   8.613   9.989   2.878  0.9300 -0.8014 -0.3229
  461MOL0     C60782   8.535  10.051   2.756  0.2166  0.5375 -0.1507
  461MOL0     C60783   8.524  10.202   2.761  0.4099  1.0863 -1.1841
  461MOL0     C60784   8.512  10.323   2.768  0.3177 -0.4377  1.0500
  461MOL0     C60785   8.929   9.553   2.788  0.0644 -0.7168  0.4374
  461MOL0     C60786   9.023   9.456   2.737  0.8614  0.1046  0.3698
  461MOL0     H60787   9.486   9.443   2.682 -0.6968  0.7454 -1.5225
  461MOL0     H60788   9.727   9.335   2.655 -0.1781 -2.9219 -1.1334
  461MOL0     H60789   9.753   9.038   2.340 -2.6628  1.4354  0.9756
  461MOL0     H60790   9.865   8.997   2.466  1.1214  0.7249  0.2871
  461MOL0     H60791   9.929   9.233   2.292 -4.3164 -0.9476 -3.0814
  461MOL0     H60792   9.941   9.074   2.220 -0.1810  0.0697  0.5389
  461MOL0     H60793  10.102   8.992   2.400 -0.4342  0.2803  0.6559
  461MOL0     H60794  10.068   9.142   2.494 -0.8823  1.6295 -0.0893
  461MOL0     H60795  10.201   9.133   2.227 -1.0667  2.1801 -1.0846
  461MOL0     H60796  10.172   9.277   2.306 -3.3696 -0.1350  2.1162
  461MOL0     H60797  10.405   9.211   2.340 -1.5448 -0.3947 -0.8747
  461MOL0     H60798  10.358   9.052   2.402 -1.2315 -0.3692 -3.6481
  461MOL0     H60799  10.241   9.164   2.603  1.5301  1.3267  1.2587
  461MOL0     H60800  10.268   9.318   2.538 -1.9396 -0.1486  2.8703
  461MOL0     H60801  10.526   9.295   2.535  0.6754  2.4502  1.8320
  461MOL0     H60802  10.447   9.310   2.687  0.7191  1.8376 -1.5255
  461MOL0     H60803  10.522   9.035   2.561 -0.4631  1.4092 -1.1403
  461MOL0     H60804  10.443   9.064   2.718  0.2061 -0.0372  0.1635
  461MOL0     H60805  10.652   9.323   2.769 -1.3648 -0.1505 -1.8549
  461MOL0     H60806  10.935   9.346   2.862  1.8667 -1.7860 -1.6095
  461MOL0     H60807  10.983   9.189   2.935  1.2940  1.5806 -1.9348
  461MOL0     H60808  10.743   9.219   3.064 -1.7796  1.1217 -4.3551
  461MOL0     H60809  10.792   9.382   3.035  1.3146 -0.1274 -0.5510
  461MOL0     H60810  10.941   9.171   3.197 -2.8071 -1.1559  0.9941
  461MOL0     H60811  11.022   9.319   3.162  0.6670 -0.2007  2.3984
  461MOL0     H60812  10.769   9.278   3.326 -1.8667  2.5384  0.1551
  461MOL0     H60813  10.807   9.437   3.266 -0.3367  0.5685 -0.5033
  461MOL0     H60814  10.885   9.089   3.388 -1.5233 -3.1596  2.3137
  461MOL0     H60815  11.017   8.921   3.508  1.1160  0.0517 -1.1419
  461MOL0     H60816  11.622   9.098   3.751 -0.4225 -0.3474  0.9596
  461MOL0     H60817  11.796   8.979   3.864  0.0482 -0.0890  0.0741
  461MOL0     H60818  11.719   8.575   4.025 -1.3512  0.1112 -1.3586
  461MOL0     H60819  11.683   8.733   4.090  0.4056 -0.8500  0.9833
  461MOL0     H60820  11.950   8.593   4.113  0.6904 -0.1732  0.1688
  461MOL0     H60821  11.840   8.603   4.241 -1.5873 -0.6344 -1.0367
  461MOL0     H60822  11.961   8.857   4.096 -0.5034  1.1843  0.1890
  461MOL0     H60823  12.051   8.772   4.232 -0.4095 -2.8307 -0.5253
  461MOL0     H60824  11.783   8.912   4.251  0.1212 -1.2741  1.6733
  461MOL0     H60825  11.855   8.809   4.362 -0.8702  1.4522  0.1249
  461MOL0     H60826  12.055   8.982   4.348 -0.1245 -2.7169 -2.2819
  461MOL0     H60827  11.913   9.037   4.426 -0.3001 -0.9940 -0.3329
  461MOL0     H60828  11.824   9.164   4.224  0.4077 -1.1625  0.8799
  461MOL0     H60829  11.930   9.085   4.116 -1.4772 -3.8358  0.6420
  461MOL0     H60830  12.129   9.192   4.184 -0.2362  0.8994 -1.0899
  461MOL0     H60831  11.995   9.314   4.171 -0.8594  0.3641 -0.0885
  461MOL0     H60832  12.141   9.195   4.413 -0.1601  1.0839  1.6381
  461MOL0     H60833  11.981   9.268   4.440  0.6806 -1.6158  1.3501
  461MOL0     H60834  11.581   8.617   3.856 -3.3838 -0.7786 -2.0196
  461MOL0     H60835  11.396   8.712   3.756  1.6978 -1.9920  0.1174
  461MOL0     H60836  11.279   9.221   3.669 -0.1262 -0.3551  1.3162
  461MOL0     H60837  11.161   9.389   3.558  0.8010 -0.3774  0.9210
  461MOL0     H60838   9.602   9.149   2.313  1.8741  1.4242 -0.2867
  461MOL0     H60839   9.389   9.258   2.302  0.9698  3.5545 -0.4778
  461MOL0     H60840   9.149   9.636   2.486  0.8464 -3.8046 -1.3691
  461MOL0     H60841   8.969   9.798   2.560 -2.0745 -0.1452 -1.2585
  461MOL0     H60842   8.800   9.937   2.650  2.9865 -1.8826 -3.2842
  461MOL0     H60843   8.943   9.925   2.747 -0.0643 -2.2165  1.8085
  461MOL0     H60844   8.815   9.968   2.950 -0.5257 -2.3238 -0.9853
  461MOL0     H60845   8.789  10.101   2.838 -0.8373  0.2124 -0.4924
  461MOL0     H60846   8.585  10.050   2.965  1.6779  1.0322 -1.3209
  461MOL0     H60847   8.580   9.885   2.888  1.0613 -0.7017  1.4522
  461MOL0     H60848   8.578  10.015   2.661 -2.3245  1.3607 -1.6917
  461MOL0     H60849   8.434  10.010   2.761  0.9005 -1.2730 -0.3470
  461MOL0     H60850   8.503  10.429   2.775  1.9041 -0.1569 -0.3283
  461MOL0     H60851   8.877   9.536   2.881  2.0787  0.1910  1.7910
  461MOL0     H60852   9.025   9.363   2.793 -4.2402 -0.6250 -0.1547
  462MOL0     O60853   3.460   2.496   0.608 -0.2226 -0.6439 -0.0100
  462MOL0     C60854   3.568   2.514   0.554 -0.2714  0.3352  0.9571
  462MOL0     O60855   3.619   2.626   0.508  0.1336  0.1115 -0.7364
  462MOL0     C60856   3.532   2.731   0.473  0.4311  0.5476  0.1805
  462MOL0     C60857   3.398   2.711   0.434 -0.4504 -0.3444  0.0155
  462MOL0     C60858   3.320   2.824   0.397 -0.4713  0.5128  1.3020
  462MOL0     C60859   3.370   2.947   0.388 -0.0081 -0.0657  0.3395
  462MOL0     O60860   3.276   3.041   0.350  0.4083  0.3189 -0.3918
  462MOL0     C60861   3.326   3.175   0.328 -0.7557  0.5196  0.1987
  462MOL0     C60862   3.231   3.280   0.264  0.3158  0.0544  0.1774
  462MOL0     C60863   3.108   3.321   0.341  0.2413 -0.4312  0.2607
  462MOL0     C60864   3.016   3.394   0.240  0.5190 -0.7111  0.1774
  462MOL0     C60865   2.927   3.497   0.315  0.2871 -0.5132  0.5136
  462MOL0     C60866   3.016   3.615   0.349  0.8530  0.1224  0.7465
  462MOL0     C60867   2.965   3.670   0.477  0.8730 -0.3199 -0.9557
  462MOL0     C60868   3.057   3.774   0.538 -0.4078 -0.0465  0.2187
  462MOL0     N60869   3.012   3.909   0.496 -0.1429 -0.0497 -0.7120
  462MOL0     C60870   2.892   3.978   0.542 -1.1960 -0.0285  0.2019
  462MOL0     C60871   2.882   4.075   0.447 -0.0656 -0.6932 -0.3046
  462MOL0     C60872   2.757   4.152   0.429 -0.2876  0.8917  0.7191
  462MOL0     C60873   2.764   4.254   0.326 -0.7820  0.8125 -0.4571
  462MOL0     C60874   2.625   4.310   0.299 -0.0537  0.1898 -0.6955
  462MOL0     C60875   2.615   4.400   0.175 -0.4919 -1.1904 -1.1828
  462MOL0     O60876   2.647   4.327   0.060 -0.3821  0.5740 -0.3448
  462MOL0     C60877   2.688   4.392  -0.047 -0.0224  0.5399 -0.2069
  462MOL0     C60878   2.751   4.316  -0.147 -0.2476  0.3916  0.1110
  462MOL0     C60879   2.779   4.364  -0.268  0.2749 -0.6179 -0.3656
  462MOL0     C60880   2.746   4.495  -0.304  0.2863 -0.4789 -0.1688
  462MOL0     C60881   2.782   4.562  -0.439 -0.3488  0.2251  0.0203
  462MOL0     O60882   2.879   4.503  -0.508  0.0533  0.3912  0.0655
  462MOL0     C60883   2.909   4.542  -0.640  0.4311 -0.0480  0.4518
  462MOL0     C60884   2.868   4.668  -0.710  0.3808  0.2827 -0.2322
  462MOL0     C60885   2.912   4.676  -0.839 -0.0411  0.2053  0.1836
  462MOL0     C60886   2.979   4.575  -0.908  0.7728 -0.0663 -0.4132
  462MOL0     O60887   3.031   4.591  -1.037  0.5194  0.4546  0.0885
  462MOL0     C60888   2.967   4.700  -1.117  0.0654 -0.0558 -1.1219
  462MOL0     C60889   3.031   4.690  -1.256 -0.1714 -0.2445  1.2733
  462MOL0     C60890   2.974   4.796  -1.353 -0.2389 -0.2202 -0.8515
  462MOL0     C60891   3.067   4.818  -1.471 -0.4493  0.3068 -0.4395
  462MOL0     C60892   3.058   4.955  -1.535 -0.2285  0.3766 -0.4645
  462MOL0     C60893   2.953   4.968  -1.634  0.3106  0.4858  0.6059
  462MOL0     C60894   2.816   5.015  -1.582  0.1739  0.6798 -0.0594
  462MOL0     C60895   2.724   5.076  -1.684 -0.8113  0.3139 -0.1332
  462MOL0    Cl60896   2.555   5.073  -1.618 -0.1253  0.0035 -0.3197
  462MOL0     C60897   3.000   4.463  -0.845  0.0196  0.3140  0.0527
  462MOL0     C60898   2.965   4.441  -0.714 -0.7501  0.0637 -0.6558
  462MOL0     O60899   2.720   4.660  -0.476  0.1493  0.2765  0.1329
  462MOL0     C60900   2.680   4.577  -0.206 -0.7673  0.3506  0.0013
  462MOL0     C60901   2.657   4.524  -0.080 -0.5664 -1.3688  0.8669
  462MOL0     N60902   3.000   4.090   0.371  0.0129  0.0209 -0.3913
  462MOL0     N60903   3.074   3.981   0.395  0.5051  0.2277  0.0431
  462MOL0     C60904   3.508   2.967   0.435 -0.4649 -0.3807  0.1175
  462MOL0     C60905   3.585   2.859   0.468 -0.0320  0.7805  1.1499
  462MOL0     C60906   3.661   2.400   0.521  0.7619  0.7430 -0.1729
  462MOL0     C60907   3.629   2.279   0.594 -0.0052 -0.3928  0.9829
  462MOL0     C60908   3.713   2.164   0.567 -0.0158  0.2928 -0.0817
  462MOL0     C60909   3.817   2.171   0.479 -0.2733 -0.1288 -0.0268
  462MOL0     O60910   3.897   2.068   0.446  0.5213  0.3927  0.8442
  462MOL0     C60911   3.914   1.960   0.536 -0.7997  0.9427  0.5927
  462MOL0     C60912   4.031   1.879   0.496 -0.3811  1.2832  0.2020
  462MOL0     C60913   4.015   1.792   0.366  0.4332 -0.3598 -0.0855
  462MOL0     C60914   3.921   1.680   0.365  0.0711  0.9623 -0.4874
  462MOL0     C60915   3.933   1.613   0.494 -0.2267  0.1574 -0.3525
  462MOL0     C60916   3.939   1.564   0.607  0.3513 -0.2784  0.8702
  462MOL0     C60917   3.829   2.278   0.397  0.5331  0.2148  0.8363
  462MOL0     C60918   3.745   2.396   0.414  0.4855  0.1307 -0.7531
  462MOL0     H60919   3.352   2.615   0.411  1.6941 -1.2396 -0.8143
  462MOL0     H60920   3.225   2.791   0.357  0.0776 -1.4515  1.5129
  462MOL0     H60921   3.414   3.166   0.264  0.7452 -0.2833  2.2585
  462MOL0     H60922   3.354   3.216   0.425  0.0111 -1.0233  0.6569
  462MOL0     H60923   3.205   3.247   0.164  0.5279 -1.8328  0.7098
  462MOL0     H60924   3.295   3.368   0.251  0.3343 -0.0422 -0.4036
  462MOL0     H60925   3.134   3.379   0.429 -2.8880 -1.1864  1.8272
  462MOL0     H60926   3.052   3.235   0.379 -0.2408  0.4472  1.5730
  462MOL0     H60927   3.071   3.448   0.163  0.1515  1.1900  1.1804
  462MOL0     H60928   2.948   3.330   0.183 -3.0533  1.2618  1.8685
  462MOL0     H60929   2.879   3.453   0.403  0.2151 -0.5075  0.4778
  462MOL0     H60930   2.836   3.520   0.259 -1.3661 -4.1606  1.4139
  462MOL0     H60931   3.028   3.684   0.265  2.4352  0.7419  1.4291
  462MOL0     H60932   3.121   3.590   0.368  1.2269  3.2061  3.8627
  462MOL0     H60933   2.864   3.711   0.466  1.4667  0.9892 -1.8299
  462MOL0     H60934   2.961   3.585   0.546  0.7459 -0.4306 -1.0996
  462MOL0     H60935   3.161   3.762   0.506  0.0684  0.5894  1.4714
  462MOL0     H60936   3.055   3.777   0.647 -4.0880 -1.5808  0.3347
  462MOL0     H60937   2.816   3.966   0.617 -1.3416  0.9199  0.2062
  462MOL0     H60938   2.712   4.196   0.518 -0.2135 -0.6599  1.5546
  462MOL0     H60939   2.690   4.079   0.383  2.4129 -0.2865 -1.6821
  462MOL0     H60940   2.807   4.218   0.232  0.0788  5.9833 -2.3831
  462MOL0     H60941   2.840   4.325   0.360  0.3570  0.2643 -1.7708
  462MOL0     H60942   2.548   4.232   0.293 -0.8002  0.8252  0.3206
  462MOL0     H60943   2.597   4.376   0.381  1.4062 -0.7439  0.6188
  462MOL0     H60944   2.677   4.489   0.191 -2.4095 -0.2865  2.0723
  462MOL0     H60945   2.512   4.435   0.165 -0.3328 -0.5222 -0.6131
  462MOL0     H60946   2.772   4.214  -0.116 -2.8750  0.5878  3.0109
  462MOL0     H60947   2.836   4.299  -0.334 -1.3703 -2.7658  0.1976
  462MOL0     H60948   2.834   4.753  -0.652  0.0328 -0.6257  0.9306
  462MOL0     H60949   2.897   4.768  -0.894 -1.3397 -0.8286 -1.2652
  462MOL0     H60950   2.975   4.802  -1.076 -3.6949  0.1957 -0.7029
  462MOL0     H60951   2.862   4.673  -1.127  0.0365  0.8569 -4.0942
  462MOL0     H60952   3.025   4.587  -1.294 -1.2646 -0.0662  0.9314
  462MOL0     H60953   3.135   4.718  -1.237 -0.6271  3.6082 -0.8195
  462MOL0     H60954   2.962   4.888  -1.294 -0.9710 -0.3768 -0.7387
  462MOL0     H60955   2.869   4.774  -1.377 -0.5973  0.9827 -0.5154
  462MOL0     H60956   3.168   4.819  -1.429  0.2771  3.5514 -1.8744
  462MOL0     H60957   3.059   4.750  -1.557 -0.5993 -0.7575  0.4003
  462MOL0     H60958   3.152   4.988  -1.581 -1.7019  1.3797 -2.9615
  462MOL0     H60959   3.057   5.028  -1.454  1.0975  1.1265 -1.0973
  462MOL0     H60960   2.951   4.873  -1.687  2.0642  1.5002 -1.4293
  462MOL0     H60961   2.988   5.044  -1.704  0.1672 -2.0789 -2.4495
  462MOL0     H60962   2.781   4.918  -1.546  3.2555 -0.4482  0.1602
  462MOL0     H60963   2.832   5.091  -1.504 -3.8645 -0.4852  2.1830
  462MOL0     H60964   2.723   5.005  -1.768 -2.9638 -1.4024  1.2309
  462MOL0     H60965   2.754   5.178  -1.708 -0.5283  0.4440  0.7595
  462MOL0     H60966   3.055   4.384  -0.894 -2.2980 -0.6080 -1.2341
  462MOL0     H60967   2.976   4.349  -0.658  2.9191  1.0676  0.5603
  462MOL0     H60968   2.661   4.683  -0.222  0.0208  0.9464  2.5691
  462MOL0     H60969   2.613   4.592  -0.008  1.3972  1.3596 -0.3192
  462MOL0     H60970   3.550   3.067   0.434  1.3864 -1.1083  0.3151
  462MOL0     H60971   3.687   2.871   0.502  0.0543  2.4050  0.4109
  462MOL0     H60972   3.556   2.261   0.673 -0.4996  0.9785  0.8730
  462MOL0     H60973   3.695   2.073   0.624 -2.3903  0.4728 -0.4540
  462MOL0     H60974   3.824   1.896   0.538  0.0542 -0.3112  0.3532
  462MOL0     H60975   3.925   2.008   0.634 -3.6609  0.9505  1.0111
  462MOL0     H60976   4.102   1.954   0.461 -0.7760  0.4873 -2.5139
  462MOL0     H60977   4.075   1.825   0.580  0.4686 -1.6520 -1.9606
  462MOL0     H60978   4.118   1.771   0.333  0.5100 -1.3141  0.7129
  462MOL0     H60979   3.984   1.866   0.292 -0.8909 -0.2379  0.5776
  462MOL0     H60980   3.816   1.708   0.353  0.0188  0.9821  0.0022
  462MOL0     H60981   3.954   1.615   0.283  0.1970  2.4045 -1.6274
  462MOL0     H60982   3.948   1.512   0.700  4.9300  0.6861  1.1728
  462MOL0     H60983   3.897   2.268   0.313 -0.6596  0.6003 -0.2192
  462MOL0     H60984   3.757   2.484   0.352 -1.6545  0.5928 -0.5931
  463MOL0     O60985   8.414   4.852   3.241  0.1289 -0.6517 -0.6683
  463MOL0     C60986   8.369   4.928   3.330 -0.0744  0.6545 -0.3386
  463MOL0     O60987   8.342   5.064   3.312  0.5325  0.9116  0.1300
  463MOL0     C60988   8.339   5.117   3.192 -0.6670  0.2714  0.1941
  463MOL0     C60989   8.435   5.215   3.170 -0.1770 -0.8666  0.5550
  463MOL0     C60990   8.437   5.286   3.049  0.2895 -0.5841 -0.0079
  463MOL0     C60991   8.341   5.257   2.957  0.5797  0.3284 -0.3809
  463MOL0     O60992   8.347   5.310   2.832 -0.2972 -0.9643 -0.0950
  463MOL0     C60993   8.465   5.370   2.778 -0.0383 -0.2829 -0.7136
  463MOL0     C60994   8.423   5.453   2.656  0.2474 -0.2092  0.0086
  463MOL0     C60995   8.544   5.541   2.594  1.2181  0.2988  0.2158
  463MOL0     C60996   8.579   5.486   2.459  0.1959  1.0741  0.3307
  463MOL0     C60997   8.490   5.530   2.340 -1.3578 -0.0535  0.3156
  463MOL0     C60998   8.527   5.669   2.282 -0.4017 -0.5416 -0.8052
  463MOL0     C60999   8.663   5.687   2.206  0.1658 -0.5066  0.8777
  463MOL0     C61000   8.668   5.823   2.125  0.2210 -0.0868  0.0419
  463MOL0     N61001   8.796   5.836   2.051  0.8241 -0.3933 -0.9458
  463MOL0     C61002   8.855   5.744   1.964  0.2081  0.3769 -0.6378
  463MOL0     C61003   8.977   5.789   1.929 -0.6064  0.3685  0.3357
  463MOL0     C61004   9.078   5.742   1.828  0.3699  0.4946 -0.4104
  463MOL0     C61005   9.032   5.617   1.746 -0.2528  0.3941  0.1204
  463MOL0     C61006   9.075   5.618   1.598 -0.3977  0.8976 -0.0425
  463MOL0     C61007   9.211   5.560   1.574  0.6369  0.1424  0.2925
  463MOL0     O61008   9.200   5.426   1.583  0.3231 -0.4217  0.4842
  463MOL0     C61009   9.308   5.353   1.624 -0.5959  0.1625 -1.6233
  463MOL0     C61010   9.444   5.395   1.656 -0.2166 -0.5613 -0.5567
  463MOL0     C61011   9.521   5.301   1.723  0.3784 -0.7691 -0.5107
  463MOL0     C61012   9.473   5.179   1.765 -0.4875  0.0921  0.1763
  463MOL0     C61013   9.568   5.100   1.841 -1.0010 -0.0789  0.7300
  463MOL0     O61014   9.538   4.969   1.852 -0.6268  0.6196  0.3367
  463MOL0     C61015   9.644   4.891   1.898  0.4716  0.8719  0.5946
  463MOL0     C61016   9.676   4.887   2.031 -0.3239  0.4607  0.0703
  463MOL0     C61017   9.790   4.822   2.073 -0.7843  0.3114 -1.5003
  463MOL0     C61018   9.867   4.739   1.990  0.3638 -1.3145  0.9938
  463MOL0     O61019   9.971   4.657   2.036 -0.1663 -0.1172  0.9299
  463MOL0     C61020  10.047   4.704   2.154 -0.0982 -0.0621  1.0144
  463MOL0     C61021  10.184   4.629   2.153  0.3547  0.8582  0.7071
  463MOL0     C61022  10.260   4.688   2.033 -0.0875  0.3148  0.4084
  463MOL0     C61023  10.395   4.617   2.026 -0.3695 -0.9159 -0.2916
  463MOL0     C61024  10.474   4.690   1.920 -0.1824 -0.5559  0.0647
  463MOL0     C61025  10.595   4.633   1.859 -0.6693  0.6990  0.5525
  463MOL0     C61026  10.720   4.615   1.953  0.3471  0.2948  1.6356
  463MOL0     C61027  10.840   4.682   1.891  0.3053 -0.3054 -0.6564
  463MOL0    Cl61028  10.875   4.591   1.745 -0.0378  0.0013  0.3812
  463MOL0     C61029   9.832   4.734   1.853  0.3533  0.0458  0.2750
  463MOL0     C61030   9.728   4.812   1.807  1.1331  0.3133 -0.4449
  463MOL0     O61031   9.672   5.149   1.883 -0.6735  0.0355  0.9759
  463MOL0     C61032   9.351   5.135   1.734  0.2573 -0.2874  0.3221
  463MOL0     C61033   9.263   5.222   1.663  0.1426  0.5566  0.6311
  463MOL0     N61034   8.988   5.916   1.999 -0.5936  0.3892  0.5643
  463MOL0     N61035   8.880   5.936   2.073 -0.8911  0.4148  0.2176
  463MOL0     C61036   8.245   5.168   2.978 -0.1976  0.2995 -0.4181
  463MOL0     C61037   8.234   5.110   3.101  0.3882  0.4466 -0.4448
  463MOL0     C61038   8.373   4.885   3.474  0.0649  0.5680  0.7333
  463MOL0     C61039   8.365   4.743   3.510 -0.1808 -0.5622 -0.3373
  463MOL0     C61040   8.371   4.710   3.648  0.0248  0.6582  0.4060
  463MOL0     C61041   8.391   4.815   3.748  0.2679  0.7246  0.2814
  463MOL0     O61042   8.404   4.761   3.874  0.4595  0.5183  0.2784
  463MOL0     C61043   8.398   4.842   3.987 -0.4186 -0.5385  0.8320
  463MOL0     C61044   8.249   4.872   4.019 -0.1739  0.0561 -0.9636
  463MOL0     C61045   8.178   4.736   4.022  0.0412  0.3905  0.2408
  463MOL0     C61046   8.041   4.746   4.078 -0.0074  0.4374 -0.6475
  463MOL0     C61047   7.973   4.622   4.070 -0.5235 -0.8196  0.2983
  463MOL0     C61048   7.924   4.517   4.059  0.0078  0.4927  0.1099
  463MOL0     C61049   8.396   4.945   3.709  0.2983  0.8328  0.9222
  463MOL0     C61050   8.388   4.981   3.572 -0.1729  0.5597 -0.6219
  463MOL0     H61051   8.514   5.234   3.241  2.5848 -0.7550 -2.3095
  463MOL0     H61052   8.523   5.353   3.045  0.1009 -0.3384  0.0162
  463MOL0     H61053   8.540   5.294   2.756  0.6601  0.5813 -1.3735
  463MOL0     H61054   8.510   5.441   2.848  0.1070 -1.1690  0.1095
  463MOL0     H61055   8.344   5.521   2.690 -0.2517 -0.3444 -0.8489
  463MOL0     H61056   8.369   5.383   2.592 -0.7518 -0.0585  0.6551
  463MOL0     H61057   8.635   5.516   2.650  1.8510  0.1612 -0.8509
  463MOL0     H61058   8.518   5.647   2.601 -1.1450 -0.1651 -0.4332
  463MOL0     H61059   8.683   5.512   2.438  0.0597  1.1984 -0.2230
  463MOL0     H61060   8.574   5.380   2.487 -0.2115  1.0000  0.0002
  463MOL0     H61061   8.387   5.526   2.375 -1.7800  0.2236 -0.8472
  463MOL0     H61062   8.519   5.466   2.256  1.2200  0.7610  0.4928
  463MOL0     H61063   8.531   5.739   2.366 -0.3208  1.3655 -2.3317
  463MOL0     H61064   8.446   5.706   2.218 -0.0921  0.3142 -0.7079
  463MOL0     H61065   8.744   5.686   2.280 -0.7108 -0.9463  1.8495
  463MOL0     H61066   8.677   5.610   2.129 -3.5073 -0.5860  0.1266
  463MOL0     H61067   8.639   5.908   2.187 -0.3917 -0.2121 -0.0610
  463MOL0     H61068   8.595   5.827   2.043 -0.4891 -0.6089  0.6332
  463MOL0     H61069   8.810   5.654   1.922  1.3809 -0.7647  0.4447
  463MOL0     H61070   9.171   5.719   1.881  0.1564  1.0836  0.2403
  463MOL0     H61071   9.100   5.820   1.755 -3.3536  1.4062 -0.7636
  463MOL0     H61072   8.923   5.617   1.739 -0.2137  1.4430 -0.6840
  463MOL0     H61073   9.060   5.520   1.789  1.8709  0.8233 -0.2074
  463MOL0     H61074   9.006   5.555   1.540 -0.1861 -1.7751  2.3612
  463MOL0     H61075   9.073   5.720   1.559  0.6529 -0.2158 -3.3925
  463MOL0     H61076   9.282   5.603   1.646 -1.6792  0.9558  2.2281
  463MOL0     H61077   9.246   5.583   1.473  0.1176  0.4256  0.1730
  463MOL0     H61078   9.481   5.497   1.653 -0.4638 -0.3823  1.2879
  463MOL0     H61079   9.623   5.335   1.737 -0.2724  1.4316 -0.6858
  463MOL0     H61080   9.611   4.913   2.115 -3.4217 -2.3186 -1.2691
  463MOL0     H61081   9.799   4.813   2.181  0.3680  1.2449 -1.5050
  463MOL0     H61082   9.986   4.683   2.243 -2.8482 -4.0936 -1.4793
  463MOL0     H61083  10.048   4.813   2.142 -1.4274 -0.3631 -3.5281
  463MOL0     H61084  10.175   4.522   2.136  2.2539  1.0031 -1.6356
  463MOL0     H61085  10.233   4.637   2.250 -0.6341 -1.5596  1.4786
  463MOL0     H61086  10.259   4.796   2.051  1.5657  0.1142  2.0265
  463MOL0     H61087  10.201   4.670   1.943 -0.8567 -0.3259  1.0191
  463MOL0     H61088  10.445   4.620   2.123  3.9086 -2.1157 -2.2032
  463MOL0     H61089  10.388   4.509   2.008 -1.6375 -1.0631  0.9258
  463MOL0     H61090  10.499   4.791   1.953  5.9135 -1.9169  0.8454
  463MOL0     H61091  10.414   4.709   1.830  2.1226  2.1193 -1.0329
  463MOL0     H61092  10.625   4.693   1.772  1.7369 -0.0981  0.7568
  463MOL0     H61093  10.568   4.536   1.818  0.6772  0.1516  0.9050
  463MOL0     H61094  10.696   4.641   2.056  1.6630 -1.7487  2.5103
  463MOL0     H61095  10.738   4.508   1.962 -0.7968 -0.3801 -2.2439
  463MOL0     H61096  10.922   4.684   1.964  1.5465 -2.0171 -1.9043
  463MOL0     H61097  10.829   4.787   1.860 -0.3118 -0.5273 -1.2156
  463MOL0     H61098   9.883   4.663   1.789  0.2162  0.7350 -0.6205
  463MOL0     H61099   9.690   4.806   1.705 -0.5376  3.5181 -0.1196
  463MOL0     H61100   9.324   5.032   1.753  1.2005 -1.5437 -3.9862
  463MOL0     H61101   9.166   5.180   1.640  0.3023  0.2767  0.4655
  463MOL0     H61102   8.163   5.153   2.909  0.9485 -2.8353 -1.2699
  463MOL0     H61103   8.143   5.057   3.131  1.2490  1.0764  3.8816
  463MOL0     H61104   8.355   4.667   3.433  2.2388 -0.4350 -0.8533
  463MOL0     H61105   8.361   4.605   3.672  0.2113 -0.0690 -2.3399
  463MOL0     H61106   8.448   4.938   3.977 -0.2593 -0.6570  0.5005
  463MOL0     H61107   8.439   4.786   4.071  0.9702 -0.1069  0.4562
  463MOL0     H61108   8.239   4.919   4.118  1.2599 -2.9428  0.7335
  463MOL0     H61109   8.200   4.933   3.942 -0.4545 -0.8076 -1.4770
  463MOL0     H61110   8.239   4.662   4.075  0.3573 -0.7078 -1.5791
  463MOL0     H61111   8.169   4.693   3.922 -1.4125  0.3772  0.3539
  463MOL0     H61112   8.040   4.772   4.184 -1.9446  3.7719 -1.3180
  463MOL0     H61113   7.983   4.821   4.022  1.2824  3.6169  1.9026
  463MOL0     H61114   7.864   4.430   4.043  0.7084  0.2910 -1.6380
  463MOL0     H61115   8.397   5.027   3.780  0.0461  1.3583  0.3285
  463MOL0     H61116   8.391   5.086   3.547  4.3765  0.6688 -0.4002
  464MOL0     O61117   2.852   6.681   6.826  0.1434 -0.0887  0.5001
  464MOL0     C61118   2.831   6.766   6.744 -0.1346 -0.4327  0.1557
  464MOL0     O61119   2.805   6.745   6.615 -0.3547 -0.2295 -0.0502
  464MOL0     C61120   2.855   6.630   6.555  0.7066  0.1174  0.2977
  464MOL0     C61121   2.838   6.652   6.418  0.2078  0.4948 -0.1973
  464MOL0     C61122   2.889   6.558   6.324 -0.4036  0.0943 -0.7935
  464MOL0     C61123   2.939   6.439   6.362 -0.6295  0.2940  0.5116
  464MOL0     O61124   2.963   6.339   6.268 -0.1005  0.2531 -0.4885
  464MOL0     C61125   3.022   6.372   6.138  0.3627  0.3619 -0.0219
  464MOL0     C61126   2.953   6.285   6.030 -0.3498 -0.4390 -0.6587
  464MOL0     C61127   2.810   6.334   5.983  0.2903  0.4092  0.1730
  464MOL0     C61128   2.767   6.226   5.878  1.8362  0.2626 -0.1154
  464MOL0     C61129   2.638   6.262   5.792  0.0968 -0.8571  1.3023
  464MOL0     C61130   2.518   6.304   5.879 -0.2136  1.2776  0.0898
  464MOL0     C61131   2.386   6.329   5.801 -0.3505 -0.3323  1.2913
  464MOL0     C61132   2.389   6.470   5.743 -0.3674 -0.2017  0.1420
  464MOL0     N61133   2.335   6.468   5.606 -0.5684  0.1422 -0.1392
  464MOL0     C61134   2.199   6.459   5.585  0.4869  0.5523 -0.1890
  464MOL0     C61135   2.187   6.446   5.450 -0.0736 -0.9397  0.1117
  464MOL0     C61136   2.051   6.428   5.395 -0.2720  0.3422 -0.9855
  464MOL0     C61137   1.954   6.550   5.433 -0.7015 -0.0317 -0.0553
  464MOL0     C61138   1.989   6.691   5.411 -0.1829  0.1375  0.6537
  464MOL0     C61139   2.087   6.701   5.287 -0.0210 -0.1970  0.5830
  464MOL0     O61140   2.014   6.637   5.174  0.1971  0.0024 -0.1718
  464MOL0     C61141   2.082   6.596   5.066 -0.3417  0.1312  0.8984
  464MOL0     C61142   2.213   6.637   5.031  0.4062 -0.2339 -0.3572
  464MOL0     C61143   2.270   6.599   4.906 -1.2692  0.5073  0.0749
  464MOL0     C61144   2.201   6.513   4.819  0.2113  0.1467 -0.4742
  464MOL0     C61145   2.262   6.473   4.694  0.8127 -1.0123  0.5101
  464MOL0     O61146   2.198   6.376   4.625  0.1563 -0.5557  0.4915
  464MOL0     C61147   2.240   6.317   4.502 -0.1695 -0.5548 -0.4694
  464MOL0     C61148   2.376   6.285   4.480 -0.2533 -0.4593 -0.4507
  464MOL0     C61149   2.403   6.210   4.363  0.1000 -1.3013 -1.0214
  464MOL0     C61150   2.302   6.185   4.268  0.0174 -0.1168  0.5073
  464MOL0     O61151   2.340   6.132   4.143 -0.1024 -0.3086 -0.0522
  464MOL0     C61152   2.426   6.225   4.083 -0.6851  0.0322 -0.8470
  464MOL0     C61153   2.406   6.228   3.928 -0.0624  0.3843  0.6364
  464MOL0     C61154   2.488   6.128   3.843  0.8576  0.5944  0.3432
  464MOL0     C61155   2.467   6.150   3.685  0.3082 -0.3256 -0.5023
  464MOL0     C61156   2.548   6.052   3.602 -0.2654 -0.0414 -0.0841
  464MOL0     C61157   2.578   6.112   3.462  0.7452  0.0077  1.3956
  464MOL0     C61158   2.617   6.003   3.356  0.1042 -0.9791 -0.3624
  464MOL0     C61159   2.629   6.053   3.218 -0.1098 -0.0451 -0.3126
  464MOL0    Cl61160   2.658   5.925   3.099  0.6567  0.4282  0.3266
  464MOL0     C61161   2.173   6.236   4.283 -0.3818 -1.2039  0.6823
  464MOL0     C61162   2.146   6.292   4.407  1.5448  0.3045  0.2768
  464MOL0     O61163   2.367   6.524   4.660  0.1338 -0.3794  0.5500
  464MOL0     C61164   2.070   6.465   4.865 -0.6725  0.0881 -0.2777
  464MOL0     C61165   2.008   6.511   4.977 -0.2932  0.2388 -0.3421
  464MOL0     N61166   2.310   6.462   5.388 -0.7865  0.2029  0.2856
  464MOL0     N61167   2.400   6.471   5.484 -0.2948  0.8941 -0.2686
  464MOL0     C61168   2.954   6.417   6.495  0.5504 -0.1794 -0.2704
  464MOL0     C61169   2.910   6.511   6.594 -0.1511  0.2883  0.1628
  464MOL0     C61170   2.819   6.907   6.792 -0.4469 -0.8428 -0.4289
  464MOL0     C61171   2.817   7.018   6.701 -0.4831 -0.1597 -1.4798
  464MOL0     C61172   2.792   7.147   6.755  0.3885  1.4538 -0.3351
  464MOL0     C61173   2.769   7.177   6.885 -0.2870 -0.2567  0.1947
  464MOL0     O61174   2.747   7.299   6.932  0.4343 -0.8463  0.7439
  464MOL0     C61175   2.740   7.401   6.831  0.3918  0.0270 -0.9129
  464MOL0     C61176   2.707   7.533   6.891 -0.3296 -0.2949 -0.4702
  464MOL0     C61177   2.663   7.646   6.797 -0.4559  0.0337 -0.2583
  464MOL0     C61178   2.605   7.766   6.881  0.1592 -0.6706  0.5845
  464MOL0     C61179   2.703   7.869   6.930 -0.5069 -0.2460 -0.2440
  464MOL0     C61180   2.785   7.963   6.935 -0.6949  0.2979 -0.5546
  464MOL0     C61181   2.786   7.074   6.982  0.3928  0.8448 -0.1683
  464MOL0     C61182   2.809   6.940   6.931  0.8009  0.0953 -0.1115
  464MOL0     H61183   2.806   6.743   6.369  2.8606  1.3974 -0.4147
  464MOL0     H61184   2.869   6.576   6.219 -1.3549 -1.3953 -0.9022
  464MOL0     H61185   3.130   6.356   6.136  0.7905  2.7185  1.2493
  464MOL0     H61186   3.000   6.474   6.107  0.1271  0.8096  1.5496
  464MOL0     H61187   2.936   6.179   6.046 -1.0237 -0.5249 -1.8743
  464MOL0     H61188   3.023   6.302   5.948  1.1315  1.2676  0.8462
  464MOL0     H61189   2.812   6.429   5.929 -2.5388  0.1399 -0.5467
  464MOL0     H61190   2.739   6.340   6.066  0.1628  1.0713  0.0262
  464MOL0     H61191   2.847   6.202   5.808 -1.4189 -2.4931 -3.3127
  464MOL0     H61192   2.754   6.132   5.933  1.7997 -0.0238 -0.6157
  464MOL0     H61193   2.609   6.183   5.722 -1.3388  3.1542 -3.2112
  464MOL0     H61194   2.654   6.346   5.723 -0.2494  1.6012  4.0089
  464MOL0     H61195   2.541   6.389   5.943 -3.2766  0.8305  1.9625
  464MOL0     H61196   2.501   6.212   5.936 -2.4103  1.4618 -0.2060
  464MOL0     H61197   2.375   6.247   5.728  0.0772 -0.8597  1.8125
  464MOL0     H61198   2.296   6.315   5.861 -0.9872  0.9665  0.6783
  464MOL0     H61199   2.488   6.516   5.741 -0.3934 -0.0677 -3.4475
  464MOL0     H61200   2.337   6.536   5.814  1.5981  2.0300 -0.3542
  464MOL0     H61201   2.125   6.455   5.664  0.8492  1.1406  0.1903
  464MOL0     H61202   2.016   6.329   5.423  0.0001 -0.2327 -2.5750
  464MOL0     H61203   2.063   6.428   5.286 -1.5706  0.2651 -1.1407
  464MOL0     H61204   1.926   6.547   5.539  1.5351  0.4262  0.5947
  464MOL0     H61205   1.869   6.526   5.369 -0.9703  2.3581 -0.7042
  464MOL0     H61206   1.892   6.741   5.405 -1.9836 -2.8075  2.8768
  464MOL0     H61207   2.044   6.723   5.500  4.5134 -2.9768 -0.7447
  464MOL0     H61208   2.187   6.659   5.297  0.4804  0.9468  0.4920
  464MOL0     H61209   2.095   6.806   5.258 -2.8468 -1.0868 -4.5809
  464MOL0     H61210   2.265   6.696   5.105  2.1056  0.0739 -1.7242
  464MOL0     H61211   2.374   6.631   4.901 -0.6557 -0.8129  2.5681
  464MOL0     H61212   2.462   6.302   4.543  0.1491 -1.9085 -0.5601
  464MOL0     H61213   2.505   6.181   4.341  0.3722 -0.1342 -1.3866
  464MOL0     H61214   2.531   6.197   4.100 -1.1963 -1.8864 -0.6016
  464MOL0     H61215   2.423   6.326   4.125 -4.0528 -0.5594  0.6545
  464MOL0     H61216   2.451   6.322   3.893  1.3911 -0.9001 -1.0875
  464MOL0     H61217   2.299   6.230   3.907  0.1214  0.6618 -0.3084
  464MOL0     H61218   2.456   6.029   3.875 -2.6720  2.3348  2.7827
  464MOL0     H61219   2.592   6.151   3.870  1.0341  2.4115 -1.6456
  464MOL0     H61220   2.359   6.149   3.666  0.0052  0.9682  0.9779
  464MOL0     H61221   2.497   6.252   3.660  1.1951 -0.6219 -0.6946
  464MOL0     H61222   2.507   5.951   3.599 -0.7144  0.1245  0.2213
  464MOL0     H61223   2.640   6.022   3.652 -0.9902  0.2961  1.5075
  464MOL0     H61224   2.658   6.186   3.464  0.5449  0.2414  0.7963
  464MOL0     H61225   2.487   6.163   3.430  0.4307  0.2372  2.6040
  464MOL0     H61226   2.716   5.970   3.389  0.9474 -0.8981 -2.6689
  464MOL0     H61227   2.561   5.909   3.364  2.5467 -2.5874 -0.9499
  464MOL0     H61228   2.715   6.120   3.210  0.8154 -1.3761 -2.6652
  464MOL0     H61229   2.554   6.127   3.190  1.4455  3.2468  3.3367
  464MOL0     H61230   2.096   6.228   4.207  1.2027  1.2301 -1.3623
  464MOL0     H61231   2.040   6.312   4.414  1.3758 -0.6585  0.6646
  464MOL0     H61232   2.017   6.396   4.800 -0.5443 -0.9891  0.7320
  464MOL0     H61233   1.903   6.494   5.000  0.7073 -0.8402  4.6407
  464MOL0     H61234   2.994   6.320   6.524  2.5089  0.8927  0.8067
  464MOL0     H61235   2.930   6.497   6.700 -1.0311 -0.3591  0.2573
  464MOL0     H61236   2.838   7.007   6.595 -1.0932  1.5660 -1.8120
  464MOL0     H61237   2.787   7.226   6.681  1.0100  4.3521  2.5199
  464MOL0     H61238   2.664   7.374   6.756 -1.8334  1.7466  0.5912
  464MOL0     H61239   2.833   7.414   6.776 -0.1840 -1.0189 -2.1929
  464MOL0     H61240   2.620   7.511   6.955 -1.7463  3.1612 -0.9913
  464MOL0     H61241   2.791   7.581   6.943  0.1696  0.5832 -2.0353
  464MOL0     H61242   2.583   7.610   6.732  2.3939 -1.3142 -3.3686
  464MOL0     H61243   2.749   7.679   6.738 -1.0785  0.1352 -1.1081
  464MOL0     H61244   2.531   7.824   6.824  0.3045  0.3625  1.4155
  464MOL0     H61245   2.549   7.734   6.969 -1.8007 -1.0144 -0.7011
  464MOL0     H61246   2.861   8.039   6.937  2.2117 -2.3841  1.8446
  464MOL0     H61247   2.751   7.079   7.084 -0.7558  2.1009 -0.6044
  464MOL0     H61248   2.807   6.862   7.006 -2.6446 -0.4622 -0.6411
  465MOL0     O61249   9.013  10.290   4.746  0.0381  0.0257 -0.5836
  465MOL0     C61250   9.098  10.215   4.790 -1.0346  1.0513  0.0123
  465MOL0     O61251   9.099  10.170   4.921 -0.0816  1.1214  0.2712
  465MOL0     C61252   9.022  10.222   5.020 -0.3814  0.1554 -0.2186
  465MOL0     C61253   9.069  10.174   5.143 -0.2646  1.0620 -0.6169
  465MOL0     C61254   9.016  10.207   5.270 -0.3319 -0.9026 -0.1363
  465MOL0     C61255   8.904  10.289   5.273  0.2810 -0.5241  0.1599
  465MOL0     O61256   8.845  10.340   5.391  0.0636 -0.4014 -0.0047
  465MOL0     C61257   8.775  10.241   5.462 -1.1938 -0.2348  0.1786
  465MOL0     C61258   8.645  10.309   5.526  0.0428  0.6871 -0.8195
  465MOL0     C61259   8.677  10.453   5.585 -0.1762  0.3184  0.4306
  465MOL0     C61260   8.542  10.519   5.617 -0.7134 -0.9168  0.5056
  465MOL0     C61261   8.576  10.660   5.656  0.2223 -0.0682  0.8596
  465MOL0     C61262   8.451  10.738   5.679 -0.1296 -0.1058  0.2877
  465MOL0     C61263   8.463  10.893   5.707 -0.9350  0.4828  0.4113
  465MOL0     C61264   8.336  10.958   5.761 -0.0092  0.1210  0.5783
  465MOL0     N61265   8.288  10.922   5.888  0.6659  0.6615 -0.4318
  465MOL0     C61266   8.164  10.867   5.924  0.8092 -0.1144  0.3465
  465MOL0     C61267   8.155  10.867   6.060  0.1959 -0.6069 -0.8467
  465MOL0     C61268   8.035  10.830   6.140  0.3826  0.7204  0.5442
  465MOL0     C61269   8.063  10.708   6.238  0.4922  0.3730 -0.7025
  465MOL0     C61270   8.129  10.756   6.373  0.6486 -1.2471  0.2893
  465MOL0     C61271   8.124  10.648   6.488 -0.6748  0.7159 -0.6818
  465MOL0     O61272   8.194  10.538   6.446  0.5168  0.4448  0.4382
  465MOL0     C61273   8.331  10.525   6.468 -0.0267  0.3246  0.7007
  465MOL0     C61274   8.382  10.403   6.428 -0.1385  0.1281 -0.4088
  465MOL0     C61275   8.521  10.373   6.437 -0.1030 -0.0468  0.0205
  465MOL0     C61276   8.608  10.468   6.502 -0.3614  0.3623  0.9138
  465MOL0     C61277   8.756  10.452   6.501 -0.2050  0.1170  0.7094
  465MOL0     O61278   8.838  10.560   6.524  0.4202 -0.3394  0.6735
  465MOL0     C61279   8.964  10.565   6.463 -0.1443  0.4011 -0.0500
  465MOL0     C61280   9.067  10.628   6.529 -1.0342 -0.2664  0.2760
  465MOL0     C61281   9.201  10.614   6.470 -0.0867  0.4409 -0.2382
  465MOL0     C61282   9.237  10.554   6.348 -0.9130 -0.7282  0.7109
  465MOL0     O61283   9.369  10.533   6.331 -0.7310  0.8606  0.4252
  465MOL0     C61284   9.395  10.476   6.207 -0.5226  0.7745  0.0334
  465MOL0     C61285   9.549  10.461   6.176 -0.8810 -0.7953 -0.6736
  465MOL0     C61286   9.572  10.368   6.059 -0.5597 -0.8846  0.3450
  465MOL0     C61287   9.718  10.352   6.038 -0.4990  0.3891 -0.2346
  465MOL0     C61288   9.799  10.473   5.994 -0.5916  0.0897 -0.6220
  465MOL0     C61289   9.944  10.460   5.947  0.6421  0.0596  0.7010
  465MOL0     C61290  10.064  10.466   6.049  0.0805 -0.6241 -0.0272
  465MOL0     C61291  10.205  10.491   5.991  0.1221  0.1795  0.0608
  465MOL0    Cl61292  10.236  10.403   5.834 -0.2314 -0.3070 -0.0500
  465MOL0     C61293   9.118  10.511   6.282 -0.0564 -0.7913 -0.8561
  465MOL0     C61294   8.986  10.519   6.331 -0.2935  0.0085 -0.0407
  465MOL0     O61295   8.801  10.348   6.471  0.8135  0.1494 -0.2542
  465MOL0     C61296   8.546  10.582   6.556  0.6757 -0.1246  0.0423
  465MOL0     C61297   8.413  10.618   6.532 -0.4802 -0.4915 -0.2341
  465MOL0     N61298   8.277  10.917   6.104  0.7243  0.3588  0.0003
  465MOL0     N61299   8.357  10.956   6.005  0.0200  0.7011  0.4015
  465MOL0     C61300   8.859  10.339   5.149 -0.1942  0.4241  0.1491
  465MOL0     C61301   8.919  10.310   5.026  0.4319 -0.5860 -1.1870
  465MOL0     C61302   9.174  10.140   4.701 -0.4744 -0.0863 -0.7038
  465MOL0     C61303   9.173  10.153   4.564 -0.0327 -0.0758  0.2391
  465MOL0     C61304   9.269  10.084   4.482  0.5722  0.2778 -0.0313
  465MOL0     C61305   9.362   9.990   4.538  0.4361 -0.1498  0.4409
  465MOL0     O61306   9.444   9.915   4.460 -0.2705 -0.3234 -0.1740
  465MOL0     C61307   9.581   9.912   4.499  0.1340  0.8774  1.1781
  465MOL0     C61308   9.664   9.906   4.373 -0.3556  1.1248 -0.5098
  465MOL0     C61309   9.656   9.770   4.297  0.4447 -1.1755  0.5633
  465MOL0     C61310   9.727   9.795   4.161  0.2154 -0.2839  0.9126
  465MOL0     C61311   9.708   9.680   4.072  0.2690 -0.0766 -0.1011
  465MOL0     C61312   9.685   9.586   3.997 -1.1172  0.4567 -0.5868
  465MOL0     C61313   9.364   9.976   4.672  0.4822 -0.9036 -0.3932
  465MOL0     C61314   9.279  10.061   4.750 -0.4558  1.1049 -0.2109
  465MOL0     H61315   9.149  10.102   5.132 -1.2650  0.2374 -3.2144
  465MOL0     H61316   9.063  10.156   5.353  2.0000 -2.4051 -2.2334
  465MOL0     H61317   8.824  10.189   5.544 -3.7248 -4.8754 -0.9038
  465MOL0     H61318   8.738  10.165   5.392  0.3124 -2.2545  1.4988
  465MOL0     H61319   8.627  10.248   5.616  0.6784  1.7320  0.0433
  465MOL0     H61320   8.567  10.284   5.454 -0.8033 -1.2218  0.6366
  465MOL0     H61321   8.724  10.512   5.507 -1.4619  0.3886 -0.3133
  465MOL0     H61322   8.745  10.433   5.669  0.8857 -1.7128 -0.8327
  465MOL0     H61323   8.476  10.517   5.530 -2.1563 -1.2689  1.5685
  465MOL0     H61324   8.488  10.460   5.692 -2.0481  1.5797  1.6490
  465MOL0     H61325   8.625  10.719   5.578 -1.8218  1.1445  0.4271
  465MOL0     H61326   8.629  10.643   5.750 -2.8269 -5.9282  1.9760
  465MOL0     H61327   8.389  10.707   5.763 -1.4480 -0.0555 -0.6385
  465MOL0     H61328   8.390  10.711   5.592 -0.3184 -0.5081  0.5453
  465MOL0     H61329   8.554  10.914   5.764 -0.2507  0.6629 -0.7037
  465MOL0     H61330   8.482  10.938   5.609  2.1818  0.7379  1.0255
  465MOL0     H61331   8.253  10.940   5.692 -0.1481  0.6736  0.5974
  465MOL0     H61332   8.355  11.065   5.774 -3.4892  0.6728  2.5100
  465MOL0     H61333   8.097  10.849   5.840 -1.4884  0.9695  1.8319
  465MOL0     H61334   7.948  10.811   6.078  0.6238  1.1539  0.0665
  465MOL0     H61335   8.020  10.913   6.210  1.2832 -0.9821  2.9241
  465MOL0     H61336   8.121  10.628   6.192  0.7528 -0.8299  1.5837
  465MOL0     H61337   7.968  10.662   6.266 -0.1670  1.7779 -0.5125
  465MOL0     H61338   8.235  10.782   6.361  0.3290  0.7411  1.4284
  465MOL0     H61339   8.079  10.845   6.412  1.7893  0.4857 -1.9578
  465MOL0     H61340   8.025  10.626   6.528  0.6316  0.0135  2.5143
  465MOL0     H61341   8.175  10.689   6.576 -1.2300  2.3983 -1.1015
  465MOL0     H61342   8.322  10.322   6.389  0.6442 -0.7941  0.2525
  465MOL0     H61343   8.563  10.278   6.407  0.4633 -1.0436  3.5298
  465MOL0     H61344   9.052  10.670   6.628  1.3498 -0.9641  1.0108
  465MOL0     H61345   9.286  10.651   6.526  0.2369 -0.7059  0.0592
  465MOL0     H61346   9.359  10.537   6.124 -4.1894 -1.3753 -0.1897
  465MOL0     H61347   9.343  10.380   6.211  1.7884 -0.7657 -2.5579
  465MOL0     H61348   9.594  10.422   6.267  0.9536 -0.2151 -1.2877
  465MOL0     H61349   9.591  10.560   6.158  0.8975 -1.2833  0.6362
  465MOL0     H61350   9.519  10.414   5.975 -1.9187 -2.9472 -0.0015
  465MOL0     H61351   9.532  10.270   6.085  0.9039 -1.6676 -0.2443
  465MOL0     H61352   9.764  10.308   6.127 -0.0544 -0.7538 -1.0051
  465MOL0     H61353   9.722  10.282   5.954  1.4693  0.2412 -0.0557
  465MOL0     H61354   9.811  10.534   6.084 -3.0659 -1.0182  0.5594
  465MOL0     H61355   9.739  10.529   5.921  1.4450  1.2181 -1.5220
  465MOL0     H61356   9.963  10.540   5.875  2.3057 -2.3728 -1.7426
  465MOL0     H61357   9.950  10.371   5.884 -1.1348  0.5088 -0.1632
  465MOL0     H61358  10.042  10.541   6.126  0.6823 -0.5372  0.0671
  465MOL0     H61359  10.058  10.374   6.106  1.4079  0.1918  1.5129
  465MOL0     H61360  10.276  10.448   6.062  0.0310  1.5189  1.0005
  465MOL0     H61361  10.225  10.599   5.986 -2.2121  0.6907  0.6328
  465MOL0     H61362   9.125  10.458   6.188  2.7837  0.0177 -1.1929
  465MOL0     H61363   8.906  10.480   6.268 -1.6738 -0.8092  2.1291
  465MOL0     H61364   8.614  10.650   6.606 -0.9720 -0.5926  3.2141
  465MOL0     H61365   8.376  10.712   6.573 -0.7002 -1.7065  2.5828
  465MOL0     H61366   8.776  10.410   5.147 -2.3138 -1.7921 -3.7106
  465MOL0     H61367   8.876  10.352   4.936  1.2500  2.6509 -0.2050
  465MOL0     H61368   9.096  10.207   4.511  0.3374 -0.6744 -0.9636
  465MOL0     H61369   9.280  10.094   4.375  1.7868  3.5161  0.2989
  465MOL0     H61370   9.596   9.818   4.553  0.9635 -0.7515 -1.6745
  465MOL0     H61371   9.611  10.002   4.553  0.5902  1.3275  0.1840
  465MOL0     H61372   9.625   9.986   4.309 -2.4869  1.2967  0.9016
  465MOL0     H61373   9.771   9.916   4.389 -0.1089  0.2442 -1.4897
  465MOL0     H61374   9.553   9.762   4.260  1.3664  3.1049 -4.0373
  465MOL0     H61375   9.698   9.687   4.354  2.0010 -0.4440  0.5382
  465MOL0     H61376   9.697   9.887   4.109  0.6336 -1.2106 -1.0440
  465MOL0     H61377   9.834   9.790   4.181  0.0055 -2.6847  1.7793
  465MOL0     H61378   9.677   9.521   3.912  0.0167 -0.1838 -0.2284
  465MOL0     H61379   9.440   9.926   4.730  0.4645  1.4480  1.8314
  465MOL0     H61380   9.303  10.067   4.856  0.5946 -0.5805 -0.3205
  466MOL0     O61381   5.506   1.810   9.819  0.7674  0.0025  0.1230
  466MOL0     C61382   5.523   1.775   9.702  0.0197  0.5852  0.0581
  466MOL0     O61383   5.497   1.651   9.648 -0.1141  0.3318  0.0190
  466MOL0     C61384   5.443   1.556   9.731  0.5122  0.6695 -0.7240
  466MOL0     C61385   5.326   1.483   9.681 -0.1550 -0.6875 -0.0870
  466MOL0     C61386   5.290   1.369   9.745 -0.3489 -0.0019  0.5435
  466MOL0     C61387   5.368   1.319   9.849  0.1836  1.0746  0.0136
  466MOL0     O61388   5.311   1.209   9.913  0.1700 -0.0138  0.6299
  466MOL0     C61389   5.400   1.123   9.990 -0.7252 -0.5741 -0.5206
  466MOL0     C61390   5.336   0.999  10.024  1.5161 -1.2084 -0.3138
  466MOL0     C61391   5.249   1.012  10.152 -0.6799 -0.1045 -0.0284
  466MOL0     C61392   5.154   0.888  10.167 -0.2978 -0.7930  0.4275
  466MOL0     C61393   5.026   0.922  10.246  1.0470 -0.7070  0.2963
  466MOL0     C61394   4.913   0.807  10.233  0.8521 -0.7184  0.2109
  466MOL0     C61395   4.772   0.836  10.294 -0.1314  1.0161  0.0555
  466MOL0     C61396   4.775   0.825  10.450  0.2531  0.0900 -0.7268
  466MOL0     N61397   4.781   0.684  10.498 -0.7177 -1.1715  0.8425
  466MOL0     C61398   4.673   0.598  10.509 -0.8514  0.3463 -0.5690
  466MOL0     C61399   4.723   0.500  10.576  0.2746  0.5836 -1.0713
  466MOL0     C61400   4.645   0.366  10.607 -0.0200  0.5245 -0.8073
  466MOL0     C61401   4.715   0.287  10.719  0.2555  0.0746 -1.3826
  466MOL0     C61402   4.640   0.158  10.740 -0.6733 -0.7442 -0.0964
  466MOL0     C61403   4.698   0.047  10.649  0.0954 -0.4673  0.2115
  466MOL0     O61404   4.626  -0.083  10.663  0.4561  0.1511  0.0627
  466MOL0     C61405   4.615  -0.131  10.789  0.5395 -0.0506  0.5693
  466MOL0     C61406   4.501  -0.161  10.854  0.3755 -0.3883 -0.1378
  466MOL0     C61407   4.508  -0.211  10.984  0.4275  1.3645 -0.5821
  466MOL0     C61408   4.633  -0.236  11.040 -0.7391  0.1645 -0.2100
  466MOL0     C61409   4.629  -0.270  11.192  0.1942  0.2550 -0.7625
  466MOL0     O61410   4.527  -0.339  11.237  0.2140  0.1484  0.4104
  466MOL0     C61411   4.517  -0.349  11.369  0.6749 -1.3118 -0.6377
  466MOL0     C61412   4.601  -0.440  11.438 -0.5243 -0.3081  0.5803
  466MOL0     C61413   4.601  -0.463  11.572  0.4766  1.0811  0.9599
  466MOL0     C61414   4.518  -0.389  11.652  0.8317 -0.7077  0.6143
  466MOL0     O61415   4.496  -0.403  11.787  0.8710  0.5904 -0.0925
  466MOL0     C61416   4.594  -0.470  11.870  0.2897 -0.4280 -0.0187
  466MOL0     C61417   4.540  -0.487  12.002  0.1794 -1.1008  0.0949
  466MOL0     C61418   4.635  -0.565  12.095  0.5138  0.3083  1.0949
  466MOL0     C61419   4.572  -0.588  12.233  0.9551  0.9111  0.2953
  466MOL0     C61420   4.471  -0.698  12.219  0.1869  0.0018 -0.0036
  466MOL0     C61421   4.401  -0.718  12.352 -0.9107  0.0178 -0.7256
  466MOL0     C61422   4.309  -0.603  12.393 -0.2677 -0.5000 -0.4758
  466MOL0     C61423   4.248  -0.530  12.275 -0.2866 -1.1861  0.7212
  466MOL0    Cl61424   4.133  -0.432  12.352 -0.6502 -0.5018  0.2424
  466MOL0     C61425   4.435  -0.293  11.589 -0.0547  1.0629  1.1298
  466MOL0     C61426   4.436  -0.263  11.452  0.1212  0.0301  0.2928
  466MOL0     O61427   4.729  -0.240  11.252  0.4806 -0.0352 -0.4666
  466MOL0     C61428   4.754  -0.213  10.969 -0.3439 -0.1061  0.3417
  466MOL0     C61429   4.742  -0.150  10.847 -0.2552 -0.1783 -0.6519
  466MOL0     N61430   4.853   0.520  10.605 -0.5438 -0.7128 -0.0632
  466MOL0     N61431   4.884   0.640  10.565  0.8798  0.2384 -0.4598
  466MOL0     C61432   5.485   1.392   9.904  0.4798  0.7262 -0.0956
  466MOL0     C61433   5.518   1.508   9.836  0.7970  0.7575 -0.6307
  466MOL0     C61434   5.560   1.874   9.597 -0.4586  0.3159  0.0042
  466MOL0     C61435   5.534   1.862   9.457  0.0589  0.5045  0.7731
  466MOL0     C61436   5.598   1.953   9.364  0.0383  0.3083  0.2139
  466MOL0     C61437   5.670   2.056   9.420 -0.1114 -0.5736 -0.3453
  466MOL0     O61438   5.727   2.158   9.339  0.5259 -0.0530  0.0513
  466MOL0     C61439   5.718   2.175   9.198  0.8074  0.0296 -0.7600
  466MOL0     C61440   5.832   2.258   9.148 -0.1459 -0.9581 -0.6099
  466MOL0     C61441   5.965   2.208   9.148 -0.8314  0.7406 -1.2841
  466MOL0     C61442   6.071   2.318   9.129  0.5118 -0.2797 -0.3562
  466MOL0     C61443   6.207   2.276   9.118 -0.1830 -0.0517  0.5576
  466MOL0     C61444   6.324   2.255   9.140 -0.4611  0.0226 -0.8794
  466MOL0     C61445   5.679   2.076   9.555 -0.3794  0.0459  0.1797
  466MOL0     C61446   5.623   1.991   9.650 -0.1572 -0.0472  0.1707
  466MOL0     H61447   5.279   1.508   9.587  0.9715  1.9271 -0.0499
  466MOL0     H61448   5.202   1.311   9.719  0.2554 -1.2312  1.1492
  466MOL0     H61449   5.443   1.176  10.075  1.7041  1.9511 -3.0654
  466MOL0     H61450   5.490   1.101   9.931 -0.2922 -1.5213  0.4521
  466MOL0     H61451   5.409   0.920  10.044  1.4587 -1.0021  0.7687
  466MOL0     H61452   5.270   0.961   9.946 -1.1207 -0.8588  1.6081
  466MOL0     H61453   5.184   1.100  10.148  0.6874  1.2017  3.0895
  466MOL0     H61454   5.305   1.028  10.245 -0.5582 -0.5624 -0.0207
  466MOL0     H61455   5.124   0.848  10.070  0.3888 -1.6433  0.5589
  466MOL0     H61456   5.197   0.799  10.214 -0.5394 -0.5275  1.1601
  466MOL0     H61457   4.973   1.011  10.209 -1.2953 -2.7150 -1.5273
  466MOL0     H61458   5.040   0.940  10.353 -1.3890  0.7714  0.4491
  466MOL0     H61459   4.942   0.715  10.285 -3.3243 -3.2860 -1.5203
  466MOL0     H61460   4.896   0.800  10.126  0.8064  2.5104 -0.0844
  466MOL0     H61461   4.748   0.941  10.274  1.2284  1.0779 -1.3940
  466MOL0     H61462   4.682   0.781  10.264  1.0801 -1.5222  0.7596
  466MOL0     H61463   4.691   0.869  10.505 -0.5241  1.1289 -2.6533
  466MOL0     H61464   4.864   0.883  10.478  0.0846  0.5205 -1.0686
  466MOL0     H61465   4.574   0.603  10.464 -0.7276  2.2679 -0.7200
  466MOL0     H61466   4.640   0.301  10.519  3.3809 -2.4443  0.9398
  466MOL0     H61467   4.539   0.379  10.633  0.0194  0.6768 -0.7178
  466MOL0     H61468   4.700   0.339  10.814 -0.5735 -1.4917 -0.6167
  466MOL0     H61469   4.822   0.280  10.701 -0.2636 -1.3188 -4.6928
  466MOL0     H61470   4.661   0.111  10.837 -1.0325 -0.7510 -0.0177
  466MOL0     H61471   4.531   0.154  10.727 -0.4782 -2.2460 -1.7731
  466MOL0     H61472   4.806   0.044  10.663  0.0686  3.1210  2.6105
  466MOL0     H61473   4.691   0.082  10.545 -0.3804  0.2824  0.4920
  466MOL0     H61474   4.409  -0.149  10.798  1.5469  0.2456 -2.0404
  466MOL0     H61475   4.412  -0.238  11.027  1.3223 -1.1699 -0.0035
  466MOL0     H61476   4.659  -0.503  11.371 -2.2419 -1.8190  0.4303
  466MOL0     H61477   4.663  -0.547  11.600  2.1860  0.4583 -3.7190
  466MOL0     H61478   4.676  -0.400  11.887 -1.9510  1.8908  2.0536
  466MOL0     H61479   4.629  -0.562  11.822  2.8847  0.1273  0.6367
  466MOL0     H61480   4.455  -0.549  11.971 -1.0080  0.4748  0.0743
  466MOL0     H61481   4.514  -0.391  12.047  1.5853 -1.0365  0.8450
  466MOL0     H61482   4.731  -0.514  12.092 -0.6369  2.6433 -2.6080
  466MOL0     H61483   4.647  -0.657  12.037 -1.2417  1.3084 -1.0193
  466MOL0     H61484   4.644  -0.627  12.305  0.6509 -0.1422  0.0452
  466MOL0     H61485   4.514  -0.501  12.266 -2.0205 -0.9127  0.2376
  466MOL0     H61486   4.529  -0.790  12.207 -1.0480 -0.9581  1.0216
  466MOL0     H61487   4.394  -0.683  12.143 -1.3679  0.0868  1.5102
  466MOL0     H61488   4.469  -0.727  12.437 -1.8985  0.6131  0.1572
  466MOL0     H61489   4.350  -0.814  12.358 -1.0981  0.0080 -2.1210
  466MOL0     H61490   4.242  -0.652  12.464  0.0804 -0.2369  0.0391
  466MOL0     H61491   4.360  -0.532  12.459 -3.1048 -1.3161  2.9028
  466MOL0     H61492   4.195  -0.603  12.214  0.6087 -2.7213  1.7152
  466MOL0     H61493   4.318  -0.470  12.216 -1.1984  0.2754  1.0909
  466MOL0     H61494   4.365  -0.246  11.658 -0.2890  0.4605  1.3092
  466MOL0     H61495   4.379  -0.178  11.416 -0.4839  0.1967  1.5779
  466MOL0     H61496   4.855  -0.233  11.002 -0.3000  1.9953  1.6718
  466MOL0     H61497   4.830  -0.109  10.800  0.5258  1.5925  2.1248
  466MOL0     H61498   5.540   1.354   9.990 -1.3456 -1.2774  0.2934
  466MOL0     H61499   5.608   1.564   9.855  0.0301  1.9023 -0.2312
  466MOL0     H61500   5.472   1.776   9.433 -1.3477  1.9848 -1.2237
  466MOL0     H61501   5.586   1.928   9.258 -2.9180  0.5529  0.3859
  466MOL0     H61502   5.626   2.222   9.161  0.4279 -0.2819 -0.2243
  466MOL0     H61503   5.716   2.077   9.150  0.1357 -0.1930 -0.2923
  466MOL0     H61504   5.810   2.299   9.049  1.9070 -0.1210 -0.7658
  466MOL0     H61505   5.831   2.348   9.212 -2.0837 -2.9415  2.4244
  466MOL0     H61506   6.000   2.155   9.059  1.4275  1.9420 -1.1776
  466MOL0     H61507   5.985   2.154   9.241 -1.1075  1.4127 -0.8238
  466MOL0     H61508   6.048   2.364   9.032 -1.6140 -0.6550 -0.0793
  466MOL0     H61509   6.055   2.384   9.215 -0.9483 -1.3968  0.2726
  466MOL0     H61510   6.426   2.237   9.168  0.1676 -0.1841 -3.1724
  466MOL0     H61511   5.717   2.176   9.574  1.9619 -0.8770  0.6741
  466MOL0     H61512   5.614   2.022   9.754 -0.2209  1.0816 -0.1577
  467MOL0     O61513   0.929   0.021   9.766 -0.4241  1.0211  0.7050
  467MOL0     C61514   0.889   0.039   9.649  0.2773 -0.7227  0.7555
  467MOL0     O61515   0.945   0.125   9.559  0.2386 -0.5246 -0.4325
  467MOL0     C61516   1.040   0.212   9.607 -0.5246 -0.2168 -0.2888
  467MOL0     C61517   1.016   0.352   9.593 -0.6748 -0.3582 -0.0039
  467MOL0     C61518   1.103   0.457   9.630 -0.6676  0.5123 -0.3466
  467MOL0     C61519   1.217   0.410   9.704  0.5872 -0.0620  0.0208
  467MOL0     O61520   1.276   0.516   9.770  0.3339 -0.0332  0.3962
  467MOL0     C61521   1.324   0.482   9.903  0.9665  0.8927 -0.4366
  467MOL0     C61522   1.298   0.600  10.005 -0.2358  0.8282  0.6323
  467MOL0     C61523   1.145   0.617  10.025 -0.4915 -0.9126  0.5034
  467MOL0     C61524   1.103   0.529  10.136 -0.4426 -0.5401 -1.6310
  467MOL0     C61525   0.958   0.570  10.175 -0.4371 -0.9254 -0.1538
  467MOL0     C61526   0.884   0.454  10.252 -0.2900 -0.5537  0.4955
  467MOL0     C61527   0.961   0.391  10.375  0.5897 -0.4601  0.0235
  467MOL0     C61528   1.003   0.488  10.486 -0.2902 -0.4121 -0.4539
  467MOL0     N61529   1.063   0.401  10.592 -0.4535 -0.2212  0.6562
  467MOL0     C61530   1.189   0.339  10.588 -0.3540 -0.8226 -0.1574
  467MOL0     C61531   1.229   0.331  10.713 -0.2502 -0.3596 -0.7029
  467MOL0     C61532   1.363   0.271  10.766  0.9968  0.5528  0.5760
  467MOL0     C61533   1.338   0.237  10.914 -0.0863  1.0035 -1.0987
  467MOL0     C61534   1.447   0.169  10.994  0.5283  0.2966  1.6521
  467MOL0     C61535   1.538   0.269  11.065  0.3585  0.2231 -0.0572
  467MOL0     O61536   1.614   0.340  10.968 -0.1086 -0.0810 -0.6223
  467MOL0     C61537   1.707   0.430  11.012 -0.5037 -0.4623 -0.0094
  467MOL0     C61538   1.789   0.485  10.909  0.9362  0.4543  0.9017
  467MOL0     C61539   1.889   0.583  10.937  0.5499 -0.3957 -0.3403
  467MOL0     C61540   1.900   0.627  11.069 -0.2419 -0.5793 -0.4670
  467MOL0     C61541   2.006   0.719  11.104 -0.4148  0.3913  0.3306
  467MOL0     O61542   2.044   0.736  11.233 -0.7242 -0.2160  0.5274
  467MOL0     C61543   2.144   0.823  11.262 -0.0743  0.3682  0.2753
  467MOL0     C61544   2.275   0.806  11.220 -0.2679  0.2037 -0.3675
  467MOL0     C61545   2.372   0.901  11.251  0.2177 -0.6263  0.0507
  467MOL0     C61546   2.344   1.015  11.334 -0.5607  0.6838  0.2923
  467MOL0     O61547   2.436   1.100  11.396 -0.3596  0.0810 -0.0138
  467MOL0     C61548   2.564   1.113  11.334 -0.9199 -1.0802 -0.6833
  467MOL0     C61549   2.644   1.208  11.424 -0.3592 -0.1086 -0.3245
  467MOL0     C61550   2.776   1.240  11.351 -0.6459  0.2654 -0.3020
  467MOL0     C61551   2.847   1.351  11.446 -0.0709 -0.7559 -0.2239
  467MOL0     C61552   2.987   1.388  11.399 -1.0852  0.1654 -0.3319
  467MOL0     C61553   3.036   1.529  11.455 -0.1752 -0.0320  0.1275
  467MOL0     C61554   3.038   1.535  11.608 -0.0071  0.2879 -0.2805
  467MOL0     C61555   3.098   1.666  11.664 -0.5719 -0.6474 -0.1418
  467MOL0    Cl61556   3.274   1.665  11.616 -0.2172  0.3393 -0.2262
  467MOL0     C61557   2.209   1.026  11.382 -0.4562  0.3921  0.1056
  467MOL0     C61558   2.106   0.936  11.341 -0.7378 -0.8164  0.1531
  467MOL0     O61559   2.066   0.768  11.008 -0.0506  0.2736  1.0990
  467MOL0     C61560   1.816   0.579  11.171  0.2587  0.8045  0.2813
  467MOL0     C61561   1.720   0.483  11.145  0.4792 -0.6898 -0.3138
  467MOL0     N61562   1.123   0.380  10.791  0.0971  0.3774 -0.1339
  467MOL0     N61563   1.021   0.420  10.719 -0.1757  0.1031 -0.2969
  467MOL0     C61564   1.248   0.277   9.714 -0.1482  0.0643  0.2729
  467MOL0     C61565   1.159   0.181   9.670  0.0884 -0.2456  0.5169
  467MOL0     C61566   0.776  -0.047   9.596  0.7726 -0.3821 -0.4379
  467MOL0     C61567   0.749  -0.053   9.462 -0.3596  0.1470 -0.2402
  467MOL0     C61568   0.654  -0.139   9.413 -0.2233  0.1706  0.1518
  467MOL0     C61569   0.570  -0.223   9.493 -0.7892  0.0969  0.0096
  467MOL0     O61570   0.468  -0.304   9.461  0.2640  0.0261 -0.3157
  467MOL0     C61571   0.453  -0.346   9.321 -0.0429 -0.2376  0.5332
  467MOL0     C61572   0.377  -0.478   9.301 -0.1046  0.1280  0.4570
  467MOL0     C61573   0.228  -0.451   9.342  0.8793  0.2295  0.4970
  467MOL0     C61574   0.137  -0.373   9.244  0.4863  0.2046  1.3476
  467MOL0     C61575  -0.004  -0.367   9.286 -0.3950 -0.3914  0.0701
  467MOL0     C61576  -0.122  -0.344   9.310  0.3017 -0.5263 -0.4703
  467MOL0     C61577   0.597  -0.223   9.628 -0.8998  0.1403 -0.9832
  467MOL0     C61578   0.693  -0.125   9.681 -0.8991  0.7418  0.2271
  467MOL0     H61579   0.918   0.383   9.559  1.0857  3.7029 -2.1514
  467MOL0     H61580   1.071   0.561   9.631  1.5037  1.2250  0.4484
  467MOL0     H61581   1.426   0.446   9.917  0.6437 -0.1485 -0.6542
  467MOL0     H61582   1.282   0.390   9.946  0.9189  2.3962  3.1092
  467MOL0     H61583   1.336   0.687   9.951 -1.3426  1.0373  0.1706
  467MOL0     H61584   1.351   0.576  10.098 -2.3853 -1.1754  1.4352
  467MOL0     H61585   1.092   0.605   9.930  1.0474 -2.8437 -0.1645
  467MOL0     H61586   1.120   0.722  10.043 -1.2193 -0.9521 -0.2269
  467MOL0     H61587   1.110   0.423  10.114 -0.1520 -0.2397 -3.0994
  467MOL0     H61588   1.152   0.541  10.233 -4.1060 -0.4873  0.3905
  467MOL0     H61589   0.911   0.618  10.089  2.3659 -0.7006 -1.6960
  467MOL0     H61590   0.973   0.649  10.250  0.4155 -0.2400 -1.0176
  467MOL0     H61591   0.864   0.373  10.181  2.6073 -0.3972 -0.6264
  467MOL0     H61592   0.797   0.498  10.302 -0.0838  1.0401 -0.4956
  467MOL0     H61593   0.905   0.309  10.421 -1.7667 -0.2872 -2.3270
  467MOL0     H61594   1.057   0.348  10.346  1.4826 -1.5886  4.0277
  467MOL0     H61595   0.911   0.526  10.530 -0.8802 -2.4571  0.1750
  467MOL0     H61596   1.069   0.568  10.451 -0.6956 -0.0597 -0.4190
  467MOL0     H61597   1.254   0.316  10.504  1.9673  0.4063  1.2003
  467MOL0     H61598   1.443   0.343  10.748  2.8300 -1.4772  0.2373
  467MOL0     H61599   1.390   0.181  10.710 -0.4108  0.3837  0.1263
  467MOL0     H61600   1.253   0.169  10.913  0.6806 -0.0577 -3.8540
  467MOL0     H61601   1.309   0.321  10.978 -2.1254 -0.2731 -0.2285
  467MOL0     H61602   1.399   0.097  11.062  0.1927 -2.7718 -1.5464
  467MOL0     H61603   1.513   0.104  10.937 -1.7953 -2.4453  1.8550
  467MOL0     H61604   1.611   0.212  11.123 -0.5185 -2.2256 -1.1837
  467MOL0     H61605   1.485   0.336  11.132 -0.9247  0.5301 -1.3197
  467MOL0     H61606   1.761   0.461  10.806  0.8531  2.1942  0.4863
  467MOL0     H61607   1.944   0.614  10.849  3.4403  1.3242  1.9008
  467MOL0     H61608   2.295   0.705  11.188  0.5833 -0.3083  1.6563
  467MOL0     H61609   2.470   0.881  11.208  1.0128  1.0792  0.9504
  467MOL0     H61610   2.557   1.152  11.232 -2.7644  1.8863  0.4362
  467MOL0     H61611   2.618   1.017  11.339  0.8061 -0.1077  1.8751
  467MOL0     H61612   2.662   1.144  11.510 -0.6927  1.1324  0.7032
  467MOL0     H61613   2.574   1.290  11.445 -1.2130 -0.1743 -2.6471
  467MOL0     H61614   2.754   1.276  11.251  0.4530 -0.7747 -0.9341
  467MOL0     H61615   2.844   1.157  11.329 -1.6001  0.2703 -3.7592
  467MOL0     H61616   2.785   1.441  11.450  1.6877  0.4670  1.4529
  467MOL0     H61617   2.865   1.310  11.546 -0.5309 -1.0458 -0.2555
  467MOL0     H61618   2.993   1.399  11.290 -0.3881 -0.6296 -0.3868
  467MOL0     H61619   3.054   1.307  11.429  0.0216  0.1425 -2.6391
  467MOL0     H61620   2.971   1.611  11.423  0.6784  1.6528  2.3998
  467MOL0     H61621   3.127   1.549  11.398 -0.9210 -0.3231 -1.2034
  467MOL0     H61622   2.933   1.532  11.639  0.1442  2.0522  0.5330
  467MOL0     H61623   3.096   1.452  11.648 -2.3499 -0.5732  1.5097
  467MOL0     H61624   3.093   1.662  11.774  0.4322 -1.2200 -0.1006
  467MOL0     H61625   3.037   1.752  11.637 -3.1255 -2.3073 -0.0398
  467MOL0     H61626   2.194   1.109  11.451  0.1657  1.5236 -1.0652
  467MOL0     H61627   2.002   0.951  11.370  0.0579  1.3493  2.2289
  467MOL0     H61628   1.844   0.592  11.276  0.1045 -0.8156  0.5514
  467MOL0     H61629   1.662   0.445  11.229 -2.1956 -0.7030 -2.0491
  467MOL0     H61630   1.345   0.252   9.754  0.1385 -1.3048 -1.1589
  467MOL0     H61631   1.181   0.075   9.678 -0.4689 -0.4335 -0.2691
  467MOL0     H61632   0.807   0.010   9.396  0.5247 -1.6840 -1.2696
  467MOL0     H61633   0.656  -0.148   9.305  0.1663  0.3732  0.1387
  467MOL0     H61634   0.556  -0.352   9.283 -1.0781  0.0779 -2.5751
  467MOL0     H61635   0.408  -0.263   9.266 -1.3173 -1.6973 -0.7138
  467MOL0     H61636   0.377  -0.507   9.195  0.6310  1.0883  0.1752
  467MOL0     H61637   0.429  -0.560   9.352  0.4126 -0.0768 -0.3760
  467MOL0     H61638   0.222  -0.413   9.444 -2.9484  1.3486  0.0153
  467MOL0     H61639   0.185  -0.550   9.358 -0.2504  0.4514 -0.9479
  467MOL0     H61640   0.172  -0.275   9.213  1.5347 -0.1356  1.4143
  467MOL0     H61641   0.129  -0.437   9.156 -4.8545  3.1931 -0.7969
  467MOL0     H61642  -0.225  -0.325   9.333  0.6372 -0.0340  0.6862
  467MOL0     H61643   0.531  -0.290   9.683 -0.5503 -1.4511 -2.4443
  467MOL0     H61644   0.712  -0.119   9.788 -2.2916 -0.0806  0.5298
  468MOL0     O61645   9.358   6.072   4.790  0.0291 -0.0121 -0.9221
  468MOL0     C61646   9.449   5.997   4.823  1.0238  0.6074 -0.6685
  468MOL0     O61647   9.570   6.025   4.868 -0.1637  0.3821  0.0235
  468MOL0     C61648   9.636   6.150   4.869  0.2067  1.0969  0.6437
  468MOL0     C61649   9.569   6.266   4.864  0.5490  0.5235  0.3073
  468MOL0     C61650   9.649   6.382   4.859  0.1506 -0.0874  0.9928
  468MOL0     C61651   9.789   6.387   4.860 -0.1803  0.4148 -0.2463
  468MOL0     O61652   9.844   6.511   4.850 -0.7619  0.3334  0.4567
  468MOL0     C61653   9.982   6.522   4.869 -0.3253  0.5161  0.9056
  468MOL0     C61654  10.021   6.505   5.018  0.1133 -0.0100 -1.1808
  468MOL0     C61655  10.174   6.543   5.025  0.4867 -0.5896  0.7121
  468MOL0     C61656  10.246   6.486   5.153 -0.0472  0.8204  0.2563
  468MOL0     C61657  10.321   6.599   5.213 -0.4802 -0.1136 -0.1227
  468MOL0     C61658  10.394   6.582   5.350  0.4295  0.5195  0.2350
  468MOL0     C61659  10.492   6.465   5.348 -0.2256 -0.6360 -0.2873
  468MOL0     C61660  10.582   6.473   5.469 -0.5806  0.4489  0.8222
  468MOL0     N61661  10.710   6.395   5.431  0.2619  0.1155 -0.0954
  468MOL0     C61662  10.751   6.257   5.429  0.2894 -0.3639 -0.6402
  468MOL0     C61663  10.880   6.261   5.424 -1.0057  0.3790  0.7380
  468MOL0     C61664  10.977   6.150   5.457  0.1501 -0.9781  0.3196
  468MOL0     C61665  11.039   6.098   5.336 -1.0574 -0.4259 -0.4808
  468MOL0     C61666  11.136   5.982   5.348  0.0604  0.0200  0.1019
  468MOL0     C61667  11.099   5.863   5.439 -0.4165  0.5980  0.3964
  468MOL0     O61668  11.138   5.907   5.571 -0.3341 -0.0018 -0.1988
  468MOL0     C61669  11.219   5.831   5.644 -1.1771 -0.2431  0.1847
  468MOL0     C61670  11.213   5.690   5.651  0.6977  0.1202  0.2092
  468MOL0     C61671  11.317   5.616   5.720 -0.0145 -0.4159  0.1159
  468MOL0     C61672  11.417   5.689   5.793 -1.1601  0.4579  0.0269
  468MOL0     C61673  11.534   5.622   5.855 -0.7767 -1.2290 -1.2665
  468MOL0     O61674  11.644   5.703   5.894 -0.3441 -0.3418  0.3356
  468MOL0     C61675  11.764   5.669   5.950 -0.3256 -0.1692  0.7327
  468MOL0     C61676  11.850   5.769   5.964 -0.2246  0.0783  0.7171
  468MOL0     C61677  11.978   5.735   6.019  0.5895  0.2072 -0.8358
  468MOL0     C61678  12.012   5.606   6.054  0.1296  0.6170  0.2879
  468MOL0     O61679  12.127   5.566   6.115 -1.5030 -0.7123  0.6470
  468MOL0     C61680  12.259   5.621   6.069 -0.6280  0.0518  0.4487
  468MOL0     C61681  12.357   5.521   6.127  0.7723  0.5567 -0.8099
  468MOL0     C61682  12.492   5.558   6.085 -0.1006 -0.5144 -0.1794
  468MOL0     C61683  12.594   5.475   6.162  0.4264  0.4840  0.3800
  468MOL0     C61684  12.729   5.531   6.107  0.0584  0.0407 -0.4890
  468MOL0     C61685  12.855   5.483   6.184  0.3134  0.6673  0.2477
  468MOL0     C61686  12.872   5.334   6.161 -0.1315 -0.1085 -0.3244
  468MOL0     C61687  13.014   5.269   6.181  0.1471 -0.2319  0.3892
  468MOL0    Cl61688  13.119   5.316   6.051  0.6692 -0.2942  0.2088
  468MOL0     C61689  11.916   5.506   6.043 -0.0023 -0.2379  0.2771
  468MOL0     C61690  11.793   5.536   5.987  0.5672  0.1695  0.1461
  468MOL0     O61691  11.540   5.499   5.861  0.2726  0.4849  0.7634
  468MOL0     C61692  11.424   5.828   5.775  0.3126  0.1175 -0.5707
  468MOL0     C61693  11.331   5.897   5.708  1.2544 -0.4394 -0.8338
  468MOL0     N61694  10.919   6.387   5.402 -0.0079 -0.2244  0.6033
  468MOL0     N61695  10.822   6.470   5.417  0.2083 -0.4617  0.9476
  468MOL0     C61696   9.850   6.265   4.854 -0.3605 -1.2212  1.2523
  468MOL0     C61697   9.779   6.145   4.858 -0.5907 -0.1818  0.0656
  468MOL0     C61698   9.427   5.851   4.809 -0.5746  0.2761 -0.7953
  468MOL0     C61699   9.542   5.768   4.830  0.5781  0.0831 -0.3967
  468MOL0     C61700   9.537   5.625   4.816 -0.2415  0.0722 -0.2210
  468MOL0     C61701   9.420   5.561   4.771 -0.6104 -0.6426  0.2599
  468MOL0     O61702   9.427   5.424   4.783  0.3253  0.0667  0.1423
  468MOL0     C61703   9.316   5.355   4.714  0.2119  0.0095 -0.3144
  468MOL0     C61704   9.345   5.204   4.730  0.0189 -0.2950 -0.2773
  468MOL0     C61705   9.220   5.121   4.698  0.1403  0.8387  0.0382
  468MOL0     C61706   9.137   5.167   4.572 -1.0545 -0.3525  0.2561
  468MOL0     C61707   9.222   5.150   4.447 -0.0943 -0.3546 -1.0703
  468MOL0     C61708   9.286   5.130   4.350 -1.1132  0.4504 -0.4331
  468MOL0     C61709   9.314   5.648   4.719 -0.4213  0.5352  0.1535
  468MOL0     C61710   9.311   5.790   4.759  0.9479  0.0619  0.4949
  468MOL0     H61711   9.463   6.284   4.877  0.8343  1.6557  1.2641
  468MOL0     H61712   9.597   6.477   4.853  2.6940  1.3146 -1.9001
  468MOL0     H61713  10.004   6.625   4.838 -0.7271  0.0191 -1.1989
  468MOL0     H61714  10.040   6.446   4.816  0.3615  0.7650  1.2891
  468MOL0     H61715   9.999   6.403   5.053  0.9179 -0.8449 -2.9547
  468MOL0     H61716   9.978   6.579   5.085  0.8964 -0.1833 -0.4618
  468MOL0     H61717  10.174   6.653   5.029  0.1399 -0.5461 -0.2505
  468MOL0     H61718  10.228   6.507   4.937  0.5434 -1.3015  1.0397
  468MOL0     H61719  10.167   6.449   5.219  0.3554  0.8501  0.7599
  468MOL0     H61720  10.311   6.401   5.129  1.0451  1.3224  1.3236
  468MOL0     H61721  10.255   6.686   5.218  1.1232  1.3061 -2.0568
  468MOL0     H61722  10.391   6.638   5.139  0.1497  0.6949  0.8808
  468MOL0     H61723  10.316   6.560   5.424 -1.1260  0.1421 -1.4474
  468MOL0     H61724  10.455   6.671   5.369  0.7671  0.2162  0.6070
  468MOL0     H61725  10.427   6.377   5.351  0.0956 -1.0623 -3.3850
  468MOL0     H61726  10.550   6.454   5.256  0.9841 -0.7143  0.4657
  468MOL0     H61727  10.542   6.417   5.554  1.0434 -0.5531  0.9783
  468MOL0     H61728  10.599   6.575   5.503 -0.0818  0.5029  0.4306
  468MOL0     H61729  10.689   6.171   5.456  0.6332 -0.2620  0.5318
  468MOL0     H61730  10.923   6.068   5.506  0.2763 -1.3665 -0.1834
  468MOL0     H61731  11.052   6.176   5.533  1.8923  2.3388 -2.2723
  468MOL0     H61732  11.093   6.173   5.277 -0.7752  0.9525  1.4340
  468MOL0     H61733  10.958   6.056   5.276 -0.4769  0.5987 -2.0153
  468MOL0     H61734  11.147   5.928   5.253  0.1315 -1.8213  1.1012
  468MOL0     H61735  11.237   6.020   5.366 -1.2026  3.9303 -0.2620
  468MOL0     H61736  11.144   5.772   5.398 -4.0789 -0.1510 -2.4560
  468MOL0     H61737  10.995   5.840   5.415  0.0011 -1.7112  0.5742
  468MOL0     H61738  11.138   5.631   5.600  3.6915 -1.8521 -2.3066
  468MOL0     H61739  11.338   5.510   5.710  0.3513 -0.2084 -1.7814
  468MOL0     H61740  11.818   5.870   5.939 -0.8811 -0.3954 -0.4267
  468MOL0     H61741  12.060   5.806   6.024  1.5409 -0.9257  0.5728
  468MOL0     H61742  12.283   5.716   6.116  0.9244 -0.0289 -0.0997
  468MOL0     H61743  12.271   5.629   5.961 -2.1379 -0.0549  0.2633
  468MOL0     H61744  12.325   5.424   6.087 -0.3617 -0.3900  2.1664
  468MOL0     H61745  12.343   5.512   6.235 -0.2954 -2.1564 -1.0913
  468MOL0     H61746  12.508   5.664   6.103  2.5104 -0.5091 -2.0456
  468MOL0     H61747  12.499   5.534   5.979  0.7729 -1.0667 -0.0076
  468MOL0     H61748  12.585   5.485   6.271  2.8089 -2.3370  0.9488
  468MOL0     H61749  12.589   5.370   6.134  1.6558  0.8982 -1.6022
  468MOL0     H61750  12.726   5.639   6.124  2.0945  0.1057 -0.2372
  468MOL0     H61751  12.738   5.506   6.001  0.5644  1.6271 -0.8522
  468MOL0     H61752  12.850   5.513   6.289  0.2159 -0.8840  0.7209
  468MOL0     H61753  12.950   5.523   6.148  0.1156  0.3713 -0.6284
  468MOL0     H61754  12.810   5.272   6.227  2.7934 -1.5984  1.2098
  468MOL0     H61755  12.856   5.305   6.056  2.4183 -0.0046 -0.7915
  468MOL0     H61756  13.006   5.161   6.188  2.3749 -0.3952  1.2495
  468MOL0     H61757  13.049   5.311   6.276  2.1127  1.0126 -0.8208
  468MOL0     H61758  11.941   5.401   6.052  3.0264  0.3427 -0.4155
  468MOL0     H61759  11.735   5.448   5.961  0.9444  0.3107 -1.2180
  468MOL0     H61760  11.511   5.885   5.806  0.0137  0.7300 -0.8473
  468MOL0     H61761  11.346   6.005   5.705  1.0184 -0.3064  1.2498
  468MOL0     H61762   9.958   6.261   4.850 -0.2239  1.3284 -2.3082
  468MOL0     H61763   9.829   6.049   4.852 -1.9337 -0.8628 -0.7393
  468MOL0     H61764   9.639   5.802   4.863 -0.4112  1.9395  0.7502
  468MOL0     H61765   9.624   5.565   4.841 -0.2147 -0.9265 -2.4732
  468MOL0     H61766   9.323   5.399   4.614 -0.0426  4.5755  1.4422
  468MOL0     H61767   9.216   5.373   4.754 -0.4415 -0.4178 -1.7078
  468MOL0     H61768   9.427   5.171   4.666 -2.0760  0.1751 -3.4438
  468MOL0     H61769   9.389   5.186   4.829  0.7356 -0.7449 -0.6749
  468MOL0     H61770   9.161   5.125   4.790  4.9780  2.7383  3.4485
  468MOL0     H61771   9.251   5.018   4.678 -2.8011 -0.0333 -0.5564
  468MOL0     H61772   9.046   5.106   4.570 -0.6214 -1.1116  1.8362
  468MOL0     H61773   9.108   5.272   4.585 -0.3015 -0.0419 -0.5434
  468MOL0     H61774   9.368   5.114   4.284 -1.9035  0.7888 -1.5259
  468MOL0     H61775   9.234   5.604   4.660  0.7192 -2.2059  0.5239
  468MOL0     H61776   9.218   5.844   4.746  0.7986  0.1743  1.8075
  469MOL0     O61777   7.284  11.299  10.505 -0.6854 -0.0995  0.2353
  469MOL0     C61778   7.167  11.283  10.497  0.7173 -0.4679 -0.1214
  469MOL0     O61779   7.077  11.339  10.584 -0.6064 -0.2305 -0.2584
  469MOL0     C61780   7.132  11.419  10.683  0.2014  0.2444 -0.2244
  469MOL0     C61781   7.172  11.547  10.663 -0.1493  0.6896  0.4667
  469MOL0     C61782   7.218  11.630  10.766 -0.2273  0.7214  0.1828
  469MOL0     C61783   7.216  11.577  10.896 -0.1860 -0.6718 -0.5073
  469MOL0     O61784   7.255  11.647  11.008  0.4727 -0.3312  0.8095
  469MOL0     C61785   7.398  11.626  11.034  0.1804  0.3135  0.4296
  469MOL0     C61786   7.419  11.661  11.179 -0.3793  0.2824  0.7199
  469MOL0     C61787   7.364  11.550  11.272 -0.6129 -0.6680  0.1793
  469MOL0     C61788   7.388  11.592  11.415  0.0935 -0.1942 -0.1091
  469MOL0     C61789   7.323  11.486  11.506  0.7081 -0.0598 -0.5463
  469MOL0     C61790   7.176  11.506  11.521  0.2271 -0.5729 -0.2558
  469MOL0     C61791   7.113  11.404  11.609 -0.2268  0.2241 -0.1715
  469MOL0     C61792   7.173  11.411  11.756 -0.0174 -0.1545  0.1855
  469MOL0     N61793   7.088  11.332  11.846 -0.3331 -0.1489  0.5686
  469MOL0     C61794   7.089  11.194  11.854  0.6623 -0.4673  0.2497
  469MOL0     C61795   7.016  11.167  11.967 -0.3539  0.3037 -0.5559
  469MOL0     C61796   6.984  11.018  12.011  0.4997 -0.5679  0.6172
  469MOL0     C61797   6.856  10.949  11.955  0.2099 -0.3532 -0.3093
  469MOL0     C61798   6.730  11.015  11.991  0.0000 -0.3233  0.9370
  469MOL0     C61799   6.718  11.003  12.141  0.2224  0.3694 -1.0567
  469MOL0     O61800   6.751  11.135  12.190 -0.0851  0.7177 -0.9266
  469MOL0     C61801   6.732  11.162  12.324 -0.9351 -0.5007  0.0972
  469MOL0     C61802   6.674  11.081  12.422 -1.1190 -0.0073 -0.0516
  469MOL0     C61803   6.669  11.120  12.564  0.1125 -0.1577  0.8428
  469MOL0     C61804   6.724  11.244  12.597 -0.5338 -0.1686  0.1442
  469MOL0     C61805   6.725  11.298  12.732  0.7345  0.0282  0.3686
  469MOL0     O61806   6.797  11.418  12.755  0.0972  0.2585  0.3146
  469MOL0     C61807   6.817  11.456  12.886  0.6597  0.3682 -0.0928
  469MOL0     C61808   6.842  11.378  13.001  0.2049 -0.2919 -0.9949
  469MOL0     C61809   6.878  11.448  13.126  0.0452  0.4003  0.4142
  469MOL0     C61810   6.891  11.588  13.130 -0.2852 -0.7184 -0.0815
  469MOL0     O61811   6.928  11.650  13.251  0.9344  1.0126  0.0099
  469MOL0     C61812   6.985  11.781  13.237  0.8756  0.4255  0.6707
  469MOL0     C61813   7.101  11.785  13.336  0.1956  0.6103  0.5507
  469MOL0     C61814   7.183  11.912  13.325  0.3292 -0.0663  0.0590
  469MOL0     C61815   7.294  11.920  13.432  0.4246  0.2930 -0.7711
  469MOL0     C61816   7.370  12.059  13.433 -0.0566 -0.3231  0.5130
  469MOL0     C61817   7.483  12.055  13.319  0.6926  0.4160 -0.7076
  469MOL0     C61818   7.623  12.010  13.376  0.2305  0.0980  0.6951
  469MOL0     C61819   7.713  11.974  13.259  0.7104  0.1678  0.0190
  469MOL0    Cl61820   7.720  12.100  13.135 -0.1923 -0.2498  0.1589
  469MOL0     C61821   6.861  11.656  13.013 -0.4667  0.2978  0.0317
  469MOL0     C61822   6.836  11.592  12.890  0.1810 -0.6625 -0.1388
  469MOL0     O61823   6.644  11.252  12.807 -0.2915 -0.0669  1.0419
  469MOL0     C61824   6.790  11.324  12.494  0.0979  0.5448  0.0060
  469MOL0     C61825   6.785  11.282  12.362  0.4355 -1.0041 -0.2712
  469MOL0     N61826   6.973  11.288  12.026  0.9474 -1.2098 -0.1170
  469MOL0     N61827   7.025  11.385  11.955 -0.9722 -0.0026 -0.3661
  469MOL0     C61828   7.170  11.448  10.920 -0.2110  0.6578 -0.0454
  469MOL0     C61829   7.131  11.363  10.814 -0.4988  0.3016 -0.1349
  469MOL0     C61830   7.118  11.184  10.395  1.2240 -0.2974  0.1807
  469MOL0     C61831   7.205  11.082  10.357 -0.0394 -0.3921  0.3700
  469MOL0     C61832   7.161  10.986  10.263  0.1289 -0.4985  0.5356
  469MOL0     C61833   7.028  10.980  10.228 -1.1272  0.3433  0.1491
  469MOL0     O61834   6.985  10.861  10.158  0.0223 -0.2762  0.2248
  469MOL0     C61835   6.844  10.822  10.160 -0.0342 -0.2234  0.0401
  469MOL0     C61836   6.814  10.790  10.015  0.1443 -0.2529 -0.1791
  469MOL0     C61837   6.883  10.661   9.969  0.7030 -0.6063 -0.1807
  469MOL0     C61838   6.983  10.699   9.850  0.4128 -0.4593  0.1542
  469MOL0     C61839   7.053  10.573   9.814 -0.0391  0.2502 -0.0018
  469MOL0     C61840   7.096  10.470   9.783 -0.8008 -0.0839  0.3141
  469MOL0     C61841   6.944  11.087  10.256  0.0186  0.4884 -0.3106
  469MOL0     C61842   6.980  11.182  10.348 -0.4335 -0.5575  0.2371
  469MOL0     H61843   7.169  11.582  10.560  0.0901  2.0102  0.8908
  469MOL0     H61844   7.273  11.721  10.742  3.0502 -1.3047 -0.6780
  469MOL0     H61845   7.456  11.682  10.961  0.7939 -1.6077 -0.6391
  469MOL0     H61846   7.415  11.518  11.028 -0.7330  0.1828 -0.0024
  469MOL0     H61847   7.380  11.759  11.207 -0.8825  0.1317  0.5543
  469MOL0     H61848   7.528  11.660  11.188  0.2875  2.6932 -4.0276
  469MOL0     H61849   7.424  11.462  11.248 -1.8269 -1.1301 -1.3163
  469MOL0     H61850   7.256  11.533  11.260 -0.2809 -1.4952 -2.0764
  469MOL0     H61851   7.491  11.608  11.450  0.0265  0.8817 -0.3741
  469MOL0     H61852   7.348  11.691  11.437  1.0300  0.8640 -2.8167
  469MOL0     H61853   7.372  11.504  11.603 -2.3847  0.0265  1.1151
  469MOL0     H61854   7.345  11.386  11.467 -0.1609  0.1186 -1.5194
  469MOL0     H61855   7.130  11.498  11.422 -1.3515  2.9740  0.0305
  469MOL0     H61856   7.156  11.601  11.573  0.1412 -0.0386 -1.2395
  469MOL0     H61857   7.005  11.422  11.615  0.1535  2.2017  2.2677
  469MOL0     H61858   7.136  11.308  11.560 -1.6350  0.2761 -0.9724
  469MOL0     H61859   7.166  11.518  11.777  2.0015 -0.1373  1.0135
  469MOL0     H61860   7.274  11.372  11.771 -0.1409 -1.8977 -2.7064
  469MOL0     H61861   7.128  11.127  11.778  0.1306  1.6931 -2.0662
  469MOL0     H61862   6.979  11.035  12.119  0.3740  5.3147  0.0303
  469MOL0     H61863   7.066  10.955  11.973 -1.0183 -1.6445 -1.0620
  469MOL0     H61864   6.852  10.843  11.984 -2.2991 -0.9217 -2.3816
  469MOL0     H61865   6.855  10.947  11.845 -1.2496 -1.9817 -0.3116
  469MOL0     H61866   6.729  11.118  11.954 -0.6438 -0.6364  0.0470
  469MOL0     H61867   6.648  10.967  11.936  0.2741  0.1752  0.0617
  469MOL0     H61868   6.766  10.917  12.189  0.4027  0.6830 -0.6696
  469MOL0     H61869   6.612  11.003  12.167  0.2591  1.1096 -0.8936
  469MOL0     H61870   6.649  10.981  12.389  3.1892 -1.5696  0.7606
  469MOL0     H61871   6.616  11.055  12.634 -0.2288 -1.0281 -0.1834
  469MOL0     H61872   6.839  11.271  12.989 -1.1268 -0.2549 -1.1044
  469MOL0     H61873   6.909  11.381  13.205  0.8111 -1.7792 -1.6077
  469MOL0     H61874   6.911  11.857  13.264  0.4260 -0.1415  1.0585
  469MOL0     H61875   7.023  11.809  13.138  0.5758 -1.3685  0.0238
  469MOL0     H61876   7.172  11.707  13.306  1.3361  2.7543 -2.9266
  469MOL0     H61877   7.066  11.771  13.438 -1.8410  3.4977  0.3769
  469MOL0     H61878   7.117  11.997  13.343 -1.9407 -1.7074 -0.1998
  469MOL0     H61879   7.221  11.941  13.226  1.3070  1.6608  0.8912
  469MOL0     H61880   7.251  11.903  13.531 -0.8856 -0.8922 -1.4990
  469MOL0     H61881   7.356  11.833  13.409  4.4714  3.1699 -1.8629
  469MOL0     H61882   7.422  12.070  13.529  4.7118 -1.2184 -1.7001
  469MOL0     H61883   7.298  12.140  13.420  0.8954  0.3978 -0.3669
  469MOL0     H61884   7.480  12.157  13.278 -4.1275  1.3997  1.3154
  469MOL0     H61885   7.455  11.993  13.234 -3.7054  1.1580 -0.0763
  469MOL0     H61886   7.664  12.092  13.435  0.9615  0.0048  0.3275
  469MOL0     H61887   7.610  11.918  13.433  1.9027 -1.4424 -1.2377
  469MOL0     H61888   7.676  11.882  13.212  2.4354 -1.2773  1.3533
  469MOL0     H61889   7.810  11.946  13.300 -0.4332  1.2174  3.8597
  469MOL0     H61890   6.865  11.765  13.012 -0.3213  0.3245  1.2647
  469MOL0     H61891   6.843  11.661  12.806 -0.5704  0.8281  0.9779
  469MOL0     H61892   6.820  11.425  12.522  1.8896 -0.3748  1.5896
  469MOL0     H61893   6.832  11.343  12.285  0.6074  0.5086  0.9894
  469MOL0     H61894   7.163  11.412  11.022 -1.6795  0.6619 -0.1248
  469MOL0     H61895   7.091  11.264  10.831  0.6700 -0.8212 -3.3428
  469MOL0     H61896   7.309  11.083  10.388  0.9049  2.8328 -2.3548
  469MOL0     H61897   7.238  10.911  10.243  1.0873 -0.8006  4.4346
  469MOL0     H61898   6.783  10.903  10.200  0.5811 -0.0378  0.6313
  469MOL0     H61899   6.825  10.734  10.223 -0.7341 -0.7022 -0.8190
  469MOL0     H61900   6.708  10.773   9.995  0.6630 -2.3875 -1.3411
  469MOL0     H61901   6.848  10.876   9.957  2.4466  0.0246  1.4574
  469MOL0     H61902   6.810  10.587   9.935 -0.7679  0.3708  0.7534
  469MOL0     H61903   6.924  10.602  10.051 -0.3915  1.1981  1.7463
  469MOL0     H61904   6.934  10.751   9.767  3.3315  2.5469  0.1225
  469MOL0     H61905   7.058  10.774   9.877 -0.2192 -0.1113  0.9837
  469MOL0     H61906   7.156  10.391   9.742  2.1648  2.8327 -1.5007
  469MOL0     H61907   6.842  11.103  10.224 -0.0469 -0.8272 -0.7990
  469MOL0     H61908   6.914  11.267  10.363 -1.2747 -1.0760 -0.3814
  470MOL0     O61909   7.971   9.650   3.810  0.0006  0.1955 -0.9791
  470MOL0     C61910   7.850   9.642   3.823 -0.9241 -0.0839 -0.6674
  470MOL0     O61911   7.781   9.566   3.920 -0.3084 -1.2000 -0.1932
  470MOL0     C61912   7.829   9.482   4.018 -0.2264  0.4696 -0.2239
  470MOL0     C61913   7.972   9.454   4.035 -0.3547  0.2082 -0.0538
  470MOL0     C61914   8.019   9.352   4.116 -0.3903  0.1774 -0.2962
  470MOL0     C61915   7.924   9.265   4.178  0.3826  0.0047 -0.3494
  470MOL0     O61916   7.963   9.161   4.259  0.9484  0.6746 -0.4521
  470MOL0     C61917   8.102   9.123   4.277  0.4151  0.2536  0.5409
  470MOL0     C61918   8.118   9.006   4.380 -0.1278 -0.8061 -0.1752
  470MOL0     C61919   8.260   8.962   4.375  0.1632 -0.0863 -0.0014
  470MOL0     C61920   8.303   8.873   4.495 -0.4991 -0.6330  0.2931
  470MOL0     C61921   8.437   8.800   4.485  0.0679  0.2174 -0.1142
  470MOL0     C61922   8.549   8.896   4.438 -0.0051  0.6540  0.5969
  470MOL0     C61923   8.691   8.859   4.502 -0.0624  0.8994 -0.4758
  470MOL0     C61924   8.734   8.714   4.461  0.8353 -0.4388 -0.6007
  470MOL0     N61925   8.868   8.671   4.510  0.2301 -0.4992  0.6684
  470MOL0     C61926   8.886   8.637   4.637 -1.0193  0.1755  0.5628
  470MOL0     C61927   9.018   8.606   4.653 -0.5035 -0.5893 -1.0822
  470MOL0     C61928   9.095   8.576   4.779 -0.7104 -0.2492 -1.0425
  470MOL0     C61929   9.178   8.684   4.838  0.3887  0.4682  0.1420
  470MOL0     C61930   9.148   8.703   4.989  0.6466 -1.3694 -0.1135
  470MOL0     C61931   9.206   8.589   5.071 -0.0030 -0.3079 -0.4027
  470MOL0     O61932   9.349   8.594   5.077  0.4220  0.5496  0.4663
  470MOL0     C61933   9.402   8.473   5.131 -0.7499 -0.5017 -0.0471
  470MOL0     C61934   9.426   8.372   5.038  0.5370  0.1404  0.8123
  470MOL0     C61935   9.467   8.250   5.090 -0.5888  0.0828 -0.0583
  470MOL0     C61936   9.481   8.227   5.229  0.2268  0.5086 -0.2829
  470MOL0     C61937   9.520   8.088   5.270 -0.8312 -0.1427 -0.4032
  470MOL0     O61938   9.565   8.077   5.400 -0.3104 -0.4190  0.4789
  470MOL0     C61939   9.615   7.952   5.433 -0.2559  0.5372  0.3921
  470MOL0     C61940   9.529   7.866   5.508 -0.1716 -0.4515 -0.3189
  470MOL0     C61941   9.571   7.743   5.549  0.2100 -0.8215 -0.4236
  470MOL0     C61942   9.701   7.697   5.521  0.7701 -0.1359  0.6283
  470MOL0     O61943   9.734   7.568   5.564 -0.0240 -0.1213 -0.7949
  470MOL0     C61944   9.679   7.461   5.497  0.3202 -0.1539  0.4919
  470MOL0     C61945   9.692   7.332   5.573 -0.6766  1.1354  0.6074
  470MOL0     C61946   9.838   7.272   5.576 -0.0135  0.3924  0.1713
  470MOL0     C61947   9.867   7.157   5.680  0.5267 -0.2526  1.4022
  470MOL0     C61948   9.809   7.181   5.820 -0.8019 -0.3501  0.4073
  470MOL0     C61949   9.855   7.070   5.913  0.2254  0.1668  0.2928
  470MOL0     C61950   9.842   7.108   6.058 -0.2536 -0.5874  0.0499
  470MOL0     C61951   9.861   6.987   6.138  0.2184 -1.4696 -0.1483
  470MOL0    Cl61952   9.817   7.024   6.308  0.2449  0.5377 -0.0321
  470MOL0     C61953   9.785   7.779   5.439 -1.0606  0.0581 -0.1205
  470MOL0     C61954   9.745   7.905   5.391 -0.2425 -0.7882 -0.1143
  470MOL0     O61955   9.541   7.997   5.183 -0.3531  0.1470 -0.3440
  470MOL0     C61956   9.465   8.333   5.312 -0.6895  0.8874 -0.1869
  470MOL0     C61957   9.427   8.461   5.263 -0.0979 -0.0697  0.6209
  470MOL0     N61958   9.066   8.611   4.525 -0.1390 -0.4474 -0.3279
  470MOL0     N61959   8.988   8.657   4.441  0.0681 -0.0770  0.5518
  470MOL0     C61960   7.786   9.290   4.161 -0.1063  0.4237 -0.6113
  470MOL0     C61961   7.735   9.396   4.079  0.7875  0.9102 -0.7480
  470MOL0     C61962   7.757   9.726   3.734  0.1948  1.1542 -0.0002
  470MOL0     C61963   7.816   9.822   3.652  0.0121 -0.4919  0.4105
  470MOL0     C61964   7.734   9.921   3.595 -0.3026 -0.0527 -0.1734
  470MOL0     C61965   7.598   9.932   3.606 -0.0785  0.0102 -0.6771
  470MOL0     O61966   7.530  10.037   3.541  0.7890  0.4232  0.6556
  470MOL0     C61967   7.388  10.048   3.541  0.3260 -0.0027  0.6739
  470MOL0     C61968   7.331  10.122   3.664  0.5029  0.5221 -0.8343
  470MOL0     C61969   7.187  10.161   3.651 -0.1553 -0.6759  0.2747
  470MOL0     C61970   7.130  10.238   3.770  0.3481 -0.0177 -0.5530
  470MOL0     C61971   7.200  10.351   3.839  0.1054  0.8246  0.1443
  470MOL0     C61972   7.259  10.439   3.898  0.3460  0.0659  0.0694
  470MOL0     C61973   7.549   9.840   3.691  0.4864  0.1144  1.1465
  470MOL0     C61974   7.615   9.737   3.751 -0.6629 -0.3238  0.7234
  470MOL0     H61975   8.051   9.514   3.991 -0.2767  1.7471  2.0452
  470MOL0     H61976   8.126   9.352   4.134 -0.6265  1.0171  1.3216
  470MOL0     H61977   8.165   9.209   4.304 -0.8732  1.4732 -0.2209
  470MOL0     H61978   8.153   9.083   4.188  2.3623 -2.0920  2.5292
  470MOL0     H61979   8.046   8.934   4.340  1.1428 -1.3504 -1.5698
  470MOL0     H61980   8.089   9.051   4.475  0.3672  0.3214 -0.5417
  470MOL0     H61981   8.324   9.051   4.372 -0.5915  0.4955  0.6707
  470MOL0     H61982   8.272   8.901   4.285 -1.1082  0.3151 -0.4673
  470MOL0     H61983   8.304   8.954   4.570 -0.6753  1.0681 -1.4635
  470MOL0     H61984   8.219   8.808   4.520 -0.9422  0.3355  1.4533
  470MOL0     H61985   8.431   8.713   4.419  3.1808  0.8322 -1.3684
  470MOL0     H61986   8.465   8.780   4.589  0.1169  5.1921  1.0897
  470MOL0     H61987   8.522   8.993   4.481 -2.9209  0.8489 -1.3794
  470MOL0     H61988   8.548   8.901   4.329 -1.9403 -6.2200 -0.1975
  470MOL0     H61989   8.767   8.930   4.468  0.8680 -0.2646 -0.8935
  470MOL0     H61990   8.688   8.859   4.611 -0.6832  1.1621 -0.4898
  470MOL0     H61991   8.751   8.706   4.353  3.2981 -1.1364 -0.2325
  470MOL0     H61992   8.654   8.649   4.497 -0.5052  0.8260 -1.1751
  470MOL0     H61993   8.813   8.624   4.717 -1.4389  2.9682  0.7549
  470MOL0     H61994   9.165   8.492   4.779 -0.9794 -0.6092  2.0934
  470MOL0     H61995   9.020   8.548   4.854  0.0161 -2.6532 -1.1244
  470MOL0     H61996   9.147   8.778   4.792 -2.1927 -0.0142  0.7041
  470MOL0     H61997   9.283   8.658   4.824 -0.3129 -2.3831 -0.4351
  470MOL0     H61998   9.186   8.799   5.025  1.7278 -2.4499  1.7129
  470MOL0     H61999   9.039   8.707   4.995  0.6760  0.2212 -0.1961
  470MOL0     H62000   9.177   8.495   5.024 -2.2204 -0.2018  0.6465
  470MOL0     H62001   9.158   8.595   5.169  0.3089  0.6353 -0.2916
  470MOL0     H62002   9.410   8.381   4.931 -0.2772  0.0168  0.9138
  470MOL0     H62003   9.493   8.167   5.025 -2.1655 -0.1347 -0.4495
  470MOL0     H62004   9.432   7.901   5.541 -0.4264 -1.3916 -0.0463
  470MOL0     H62005   9.504   7.683   5.611  0.2654  1.8189  2.4724
  470MOL0     H62006   9.729   7.437   5.402 -1.1292 -3.5399  0.4388
  470MOL0     H62007   9.570   7.463   5.490  0.3041 -1.1160  0.3141
  470MOL0     H62008   9.630   7.250   5.536  2.2175 -1.5336  1.2894
  470MOL0     H62009   9.669   7.355   5.678 -0.6256  3.4499  0.1619
  470MOL0     H62010   9.903   7.357   5.596  1.9680 -0.6606 -1.4018
  470MOL0     H62011   9.864   7.244   5.473  0.7172  0.9659  0.1897
  470MOL0     H62012   9.833   7.060   5.641 -0.8909  0.5698  0.4493
  470MOL0     H62013   9.976   7.151   5.677  0.4331 -3.9220  1.1875
  470MOL0     H62014   9.700   7.175   5.820 -0.8026 -0.3479  0.3086
  470MOL0     H62015   9.832   7.279   5.860 -2.0290  0.5035 -0.8781
  470MOL0     H62016   9.958   7.038   5.895 -0.1211 -2.4582  2.3073
  470MOL0     H62017   9.798   6.977   5.900 -0.8395  0.9423 -0.8799
  470MOL0     H62018   9.926   7.176   6.076 -0.3173  0.0796 -1.9363
  470MOL0     H62019   9.743   7.148   6.084  0.3617  1.6154 -0.7622
  470MOL0     H62020   9.965   6.954   6.128 -0.2505 -2.5635 -1.8631
  470MOL0     H62021   9.800   6.901   6.108 -1.7051  0.8513 -3.5383
  470MOL0     H62022   9.889   7.754   5.425 -0.0173  2.0977  3.0337
  470MOL0     H62023   9.816   7.979   5.356 -0.9414  0.3023  0.7063
  470MOL0     H62024   9.494   8.327   5.416  1.9076 -1.7938 -0.9328
  470MOL0     H62025   9.429   8.544   5.333 -1.7386 -1.6627  2.6957
  470MOL0     H62026   7.718   9.214   4.199 -0.2221  1.4986  1.4969
  470MOL0     H62027   7.633   9.396   4.043  1.5010  0.7476 -2.8829
  470MOL0     H62028   7.923   9.834   3.640 -0.1393  2.1304  1.1243
  470MOL0     H62029   7.780   9.989   3.524 -0.7840 -0.9972 -1.4371
  470MOL0     H62030   7.327   9.957   3.534 -1.0533  0.8638  1.1009
  470MOL0     H62031   7.360  10.094   3.446  0.6263  2.3250  1.6604
  470MOL0     H62032   7.338  10.057   3.752 -1.0673  1.8187  0.3104
  470MOL0     H62033   7.393  10.211   3.674  2.4793 -0.4682 -3.2168
  470MOL0     H62034   7.132  10.068   3.639 -3.4238  0.8237  2.2209
  470MOL0     H62035   7.186  10.224   3.561  3.2306  2.7451  2.2954
  470MOL0     H62036   7.043  10.282   3.720 -1.1859  0.7291  2.4694
  470MOL0     H62037   7.083  10.177   3.848  2.1086  1.4558  1.8032
  470MOL0     H62038   7.293  10.499   3.980  2.4771  1.9864 -2.0877
  470MOL0     H62039   7.443   9.851   3.710 -0.4947 -4.6317 -0.1772
  470MOL0     H62040   7.552   9.673   3.811 -0.5546 -3.0840 -1.8714
  471MOL0     O62041   8.808   5.149   6.193 -0.9891 -0.0430  0.5507
  471MOL0     C62042   8.817   5.268   6.160  0.0779  0.1085  0.9421
  471MOL0     O62043   8.845   5.308   6.041 -0.0085  0.6727 -0.1169
  471MOL0     C62044   8.871   5.207   5.956 -0.2553 -0.3896 -0.5630
  471MOL0     C62045   8.997   5.151   5.935 -0.0405 -0.2950 -0.1694
  471MOL0     C62046   9.013   5.044   5.841  0.3390  1.0160 -0.1255
  471MOL0     C62047   8.913   4.993   5.768 -0.7500 -0.0510  0.0867
  471MOL0     O62048   8.929   4.885   5.682  0.9894 -0.0455  0.2971
  471MOL0     C62049   9.052   4.877   5.614  0.3176 -0.2298  0.4526
  471MOL0     C62050   9.037   4.768   5.508  0.2339  0.2178  0.5679
  471MOL0     C62051   9.178   4.738   5.452 -0.1366 -0.3854  0.1864
  471MOL0     C62052   9.159   4.682   5.311 -0.0514  0.4735 -0.4477
  471MOL0     C62053   9.298   4.639   5.253  0.2792 -0.1942 -0.5274
  471MOL0     C62054   9.283   4.569   5.117  0.3522  0.0167  0.7190
  471MOL0     C62055   9.224   4.665   5.014  0.2045  1.0986 -1.0691
  471MOL0     C62056   9.211   4.584   4.877  0.8336  0.4104  0.2370
  471MOL0     N62057   9.164   4.678   4.774 -0.4566  0.2237 -0.2955
  471MOL0     C62058   9.219   4.680   4.648 -0.2020  0.5545 -0.3933
  471MOL0     C62059   9.122   4.727   4.575  0.4116  0.4019  0.3645
  471MOL0     C62060   9.145   4.762   4.435  0.2274  0.0561  0.6065
  471MOL0     C62061   9.122   4.635   4.343  0.0639 -0.7301  0.6155
  471MOL0     C62062   9.213   4.649   4.219  0.0801 -1.0623  0.1278
  471MOL0     C62063   9.213   4.528   4.125 -0.5753 -1.1312  0.6384
  471MOL0     O62064   9.259   4.410   4.202  0.3704  0.1925  0.6974
  471MOL0     C62065   9.231   4.286   4.147  0.4775 -0.0613  0.6993
  471MOL0     C62066   9.213   4.179   4.229  0.9910 -0.2915 -0.2838
  471MOL0     C62067   9.186   4.053   4.178  0.1617 -1.0818 -0.6634
  471MOL0     C62068   9.178   4.037   4.038  1.1875  0.6174 -0.8396
  471MOL0     C62069   9.155   3.908   3.975  0.0863 -0.3163  0.0159
  471MOL0     O62070   9.104   3.915   3.851 -0.8467 -0.8136 -0.2338
  471MOL0     C62071   9.057   3.801   3.792 -0.4751  0.2314 -0.5072
  471MOL0     C62072   9.143   3.697   3.759  0.2883 -0.3777  1.3183
  471MOL0     C62073   9.105   3.596   3.668 -0.2319 -0.3785 -0.5136
  471MOL0     C62074   8.965   3.592   3.634 -0.0052  0.0957 -0.0624
  471MOL0     O62075   8.931   3.478   3.559 -0.9632  0.7903 -0.5809
  471MOL0     C62076   8.789   3.458   3.548 -0.0494  1.1024  0.0698
  471MOL0     C62077   8.758   3.329   3.469 -0.2234  0.0865  0.4247
  471MOL0     C62078   8.611   3.274   3.487  0.6828 -1.1378 -0.6356
  471MOL0     C62079   8.504   3.373   3.451  0.8555  0.1458  0.9866
  471MOL0     C62080   8.515   3.395   3.292  0.2106  0.2534 -0.0924
  471MOL0     C62081   8.370   3.397   3.237  0.7204  0.5689 -1.1607
  471MOL0     C62082   8.339   3.454   3.103  0.2061  0.6685  0.4645
  471MOL0     C62083   8.205   3.526   3.096 -0.5988  0.9820 -0.0290
  471MOL0    Cl62084   8.068   3.411   3.111 -0.0641  0.3839 -0.0347
  471MOL0     C62085   8.878   3.696   3.664 -0.1610 -0.0255  0.6323
  471MOL0     C62086   8.929   3.804   3.749 -0.2781 -0.0412  0.1163
  471MOL0     O62087   9.177   3.803   4.042 -0.1661  0.2561  0.1806
  471MOL0     C62088   9.204   4.145   3.957 -0.1113  0.5576  0.5600
  471MOL0     C62089   9.217   4.271   4.012  0.1562  0.2389  0.1276
  471MOL0     N62090   9.009   4.754   4.646 -0.3607  0.0721  1.6043
  471MOL0     N62091   9.036   4.723   4.771  0.1751 -0.6890 -0.2430
  471MOL0     C62092   8.797   5.056   5.789 -0.2262  0.5507  0.1305
  471MOL0     C62093   8.768   5.161   5.877  0.2985  0.3878 -0.5819
  471MOL0     C62094   8.785   5.375   6.260 -0.3694  0.0305  1.0110
  471MOL0     C62095   8.840   5.504   6.250 -1.0469 -0.4902 -0.8699
  471MOL0     C62096   8.837   5.598   6.352  0.1751  0.3682 -0.2052
  471MOL0     C62097   8.765   5.573   6.471  0.1423 -0.0801  0.0080
  471MOL0     O62098   8.723   5.659   6.571 -0.5717  0.1392  0.6816
  471MOL0     C62099   8.735   5.794   6.538 -1.3105 -0.2734 -0.3842
  471MOL0     C62100   8.637   5.867   6.638  0.5914 -0.3808  0.7778
  471MOL0     C62101   8.486   5.807   6.621 -0.5759 -0.7989 -0.2955
  471MOL0     C62102   8.382   5.890   6.695  0.2293  0.0453 -0.0074
  471MOL0     C62103   8.375   5.871   6.843 -1.6314  0.2152  0.5103
  471MOL0     C62104   8.368   5.844   6.959  0.7418  0.2039 -0.8824
  471MOL0     C62105   8.705   5.448   6.483  0.2745  0.4264 -0.0626
  471MOL0     C62106   8.727   5.345   6.391 -0.3046 -0.3904 -1.4416
  471MOL0     H62107   9.082   5.192   5.988 -0.5350  0.8928 -0.2673
  471MOL0     H62108   9.108   4.994   5.822  0.3452  2.4072 -5.2843
  471MOL0     H62109   9.136   4.840   5.672 -0.8847 -1.0237  1.7391
  471MOL0     H62110   9.069   4.968   5.555  0.4994 -0.5873 -0.0590
  471MOL0     H62111   8.981   4.819   5.428  2.1133 -0.3016 -1.1516
  471MOL0     H62112   8.970   4.690   5.546 -0.3775 -0.3381 -1.4872
  471MOL0     H62113   9.235   4.674   5.519 -3.0791 -1.6966  1.6402
  471MOL0     H62114   9.235   4.830   5.437  2.3952 -1.9679 -0.4004
  471MOL0     H62115   9.094   4.594   5.311 -1.8087  1.7190 -0.6551
  471MOL0     H62116   9.114   4.765   5.255 -0.6309 -0.5639 -1.5548
  471MOL0     H62117   9.336   4.571   5.331 -0.6452  0.4584  0.5225
  471MOL0     H62118   9.368   4.722   5.244  0.5068 -0.2849  0.2848
  471MOL0     H62119   9.224   4.477   5.122 -0.6101  0.6617  1.3469
  471MOL0     H62120   9.382   4.540   5.080 -0.0765 -2.6471  1.4539
  471MOL0     H62121   9.124   4.697   5.044 -0.9915 -2.3912 -0.8767
  471MOL0     H62122   9.296   4.746   5.008  0.4831  0.8391 -1.2679
  471MOL0     H62123   9.126   4.515   4.884 -2.1923  3.8440  0.2548
  471MOL0     H62124   9.302   4.535   4.841  0.2184 -0.3007 -0.3831
  471MOL0     H62125   9.324   4.657   4.632  0.4977  2.7081  0.7578
  471MOL0     H62126   9.246   4.805   4.428  0.7839 -1.1950  0.7175
  471MOL0     H62127   9.083   4.847   4.404  2.4636  1.5278 -0.0997
  471MOL0     H62128   9.018   4.626   4.311  0.0467 -0.6325  0.6438
  471MOL0     H62129   9.151   4.544   4.395 -0.4891 -0.4686  1.3941
  471MOL0     H62130   9.188   4.736   4.158  2.0073 -0.2600  0.3903
  471MOL0     H62131   9.315   4.667   4.256 -0.2233  1.7033 -0.1850
  471MOL0     H62132   9.277   4.542   4.037  1.2363 -2.0302  1.7541
  471MOL0     H62133   9.115   4.501   4.085  0.5340 -1.7043 -1.9679
  471MOL0     H62134   9.228   4.184   4.336  1.3248  2.3731 -0.3943
  471MOL0     H62135   9.169   3.970   4.245  3.0491 -0.7175  0.6814
  471MOL0     H62136   9.247   3.697   3.791  1.7434 -0.3298 -2.8057
  471MOL0     H62137   9.170   3.516   3.636  0.7679  0.6340 -1.0923
  471MOL0     H62138   8.738   3.536   3.491 -1.9105 -1.5832 -2.2058
  471MOL0     H62139   8.730   3.458   3.641 -1.5586  1.1840 -0.8627
  471MOL0     H62140   8.834   3.257   3.500  0.5249 -0.7107 -2.9543
  471MOL0     H62141   8.778   3.356   3.365 -0.3377 -3.7636 -0.7234
  471MOL0     H62142   8.578   3.231   3.582  0.1552  1.7593  0.5921
  471MOL0     H62143   8.601   3.191   3.415  0.4117 -1.6769  0.0133
  471MOL0     H62144   8.408   3.324   3.469 -0.9417  3.3413  0.7960
  471MOL0     H62145   8.521   3.460   3.515  0.1926 -0.1613  1.5860
  471MOL0     H62146   8.557   3.302   3.253 -3.5522 -2.4403  1.7357
  471MOL0     H62147   8.565   3.486   3.256 -1.1487  0.1274 -2.5043
  471MOL0     H62148   8.310   3.442   3.317  0.2028  0.3007 -1.3910
  471MOL0     H62149   8.343   3.291   3.227  1.9411 -0.1337  1.8511
  471MOL0     H62150   8.414   3.528   3.074  4.2168 -3.1443  0.0585
  471MOL0     H62151   8.341   3.372   3.030 -4.6857 -0.3891  1.1610
  471MOL0     H62152   8.198   3.570   2.996 -1.8148 -0.2312 -0.5094
  471MOL0     H62153   8.193   3.598   3.177  0.5787  4.6580 -2.8439
  471MOL0     H62154   8.774   3.694   3.636  0.3551 -1.5863 -1.4443
  471MOL0     H62155   8.858   3.882   3.776 -3.4690 -2.1362 -1.6114
  471MOL0     H62156   9.215   4.143   3.849  0.8640  0.1405  0.6594
  471MOL0     H62157   9.236   4.344   3.934 -2.9048  0.0898 -0.9000
  471MOL0     H62158   8.727   5.019   5.715  1.9436 -2.4512 -0.6065
  471MOL0     H62159   8.666   5.196   5.874  0.1102 -0.1515 -3.0623
  471MOL0     H62160   8.889   5.522   6.155  1.9368 -1.5860  0.3212
  471MOL0     H62161   8.874   5.696   6.321 -0.5071  0.7989  0.3192
  471MOL0     H62162   8.697   5.815   6.438 -0.7743  1.2255 -0.2994
  471MOL0     H62163   8.837   5.830   6.554 -0.8476 -2.0128  0.8200
  471MOL0     H62164   8.677   5.855   6.739 -1.5070 -2.4161  1.4502
  471MOL0     H62165   8.637   5.974   6.618  5.2687  0.5359  4.0744
  471MOL0     H62166   8.498   5.703   6.654  2.3400 -0.7470 -0.8743
  471MOL0     H62167   8.473   5.796   6.513  1.6636  0.2160 -0.7404
  471MOL0     H62168   8.407   5.994   6.670  1.5109 -0.4919 -1.0430
  471MOL0     H62169   8.287   5.869   6.645 -0.6508  1.8063  0.8246
  471MOL0     H62170   8.363   5.824   7.064  0.1692 -1.9399 -1.2803
  471MOL0     H62171   8.647   5.426   6.572  0.4265 -0.2994 -0.1384
  471MOL0     H62172   8.705   5.245   6.427 -0.7740  0.6931  1.5479
  472MOL0     O62173  10.032   4.949   8.221 -0.1077  0.5537 -0.2716
  472MOL0     C62174   9.987   4.916   8.334 -0.4183 -0.4948 -0.3510
  472MOL0     O62175  10.052   4.923   8.451 -0.0440 -0.7025  0.0140
  472MOL0     C62176  10.184   4.904   8.462 -0.2419 -0.4150  1.4680
  472MOL0     C62177  10.263   4.807   8.392 -0.2139  0.1059 -0.6302
  472MOL0     C62178  10.401   4.807   8.406 -0.4767 -0.3074 -0.2244
  472MOL0     C62179  10.467   4.906   8.485  0.1769  0.4633 -0.1731
  472MOL0     O62180  10.600   4.927   8.511  0.3669  0.4894  0.4046
  472MOL0     C62181  10.712   4.832   8.479  0.6037  0.1161 -0.1377
  472MOL0     C62182  10.846   4.886   8.544  1.3687 -0.9089  0.2688
  472MOL0     C62183  10.969   4.812   8.495  0.9133  0.8766 -0.4718
  472MOL0     C62184  10.984   4.664   8.555  0.4543 -0.3173 -0.6645
  472MOL0     C62185  11.100   4.577   8.505  0.1384 -0.6621  0.9650
  472MOL0     C62186  11.242   4.649   8.496  0.6981 -0.7550 -0.6650
  472MOL0     C62187  11.331   4.543   8.444 -0.0764 -0.2656  0.8276
  472MOL0     C62188  11.391   4.463   8.563  0.6466  0.7326  0.1379
  472MOL0     N62189  11.477   4.351   8.519  0.3323  0.6057  0.1222
  472MOL0     C62190  11.615   4.347   8.531 -0.2017 -0.3329 -0.6419
  472MOL0     C62191  11.659   4.220   8.485  0.0773  0.3240 -0.5378
  472MOL0     C62192  11.803   4.178   8.465 -0.3575  0.3975 -0.1539
  472MOL0     C62193  11.877   4.151   8.598  0.0290 -0.3082  0.7734
  472MOL0     C62194  12.017   4.092   8.562 -0.2819 -0.0007 -0.5360
  472MOL0     C62195  12.096   4.033   8.685  0.1467 -0.7752  1.2155
  472MOL0     O62196  12.175   4.143   8.735 -0.1450 -0.2415  0.0848
  472MOL0     C62197  12.277   4.120   8.818 -0.1116  0.3417 -0.2112
  472MOL0     C62198  12.305   3.999   8.887  0.6848  0.0994  0.0770
  472MOL0     C62199  12.409   3.984   8.976  0.0978  0.1237 -0.4899
  472MOL0     C62200  12.495   4.102   9.001 -0.0222  1.5505  0.0526
  472MOL0     C62201  12.604   4.097   9.098  0.9678 -0.3942  0.5957
  472MOL0     O62202  12.659   4.220   9.151  0.4054  0.7889 -0.1205
  472MOL0     C62203  12.758   4.189   9.233  0.6545  0.0026 -0.1101
  472MOL0     C62204  12.726   4.166   9.370 -0.2396  0.1370  0.6089
  472MOL0     C62205  12.831   4.134   9.451  0.3481 -0.6074 -0.1252
  472MOL0     C62206  12.968   4.128   9.415 -0.3512 -0.6617  0.1935
  472MOL0     O62207  13.073   4.134   9.508  0.1547  0.1871  0.3667
  472MOL0     C62208  13.073   4.032   9.606 -0.1417 -0.4064 -0.5773
  472MOL0     C62209  13.124   3.906   9.558  0.6985  0.6945 -0.8202
  472MOL0     C62210  13.049   3.782   9.621  0.7882  0.8140 -0.4629
  472MOL0     C62211  13.129   3.661   9.575 -0.2717 -0.3473  0.7071
  472MOL0     C62212  13.068   3.516   9.593 -0.5992  0.6015  0.3328
  472MOL0     C62213  12.926   3.489   9.553 -0.4233  0.4469  0.1181
  472MOL0     C62214  12.884   3.341   9.566 -0.8644  0.7060  1.1399
  472MOL0     C62215  12.750   3.301   9.506 -0.3953  0.9564 -0.2165
  472MOL0    Cl62216  12.743   3.309   9.339  0.2859 -0.3080  0.1186
  472MOL0     C62217  12.999   4.146   9.276  0.2339 -0.4396 -0.1579
  472MOL0     C62218  12.892   4.176   9.187  0.8620  0.2652 -0.2454
  472MOL0     O62219  12.639   3.983   9.130  0.2885 -0.0862 -0.1322
  472MOL0     C62220  12.473   4.215   8.931 -0.2286 -0.5639 -0.3276
  472MOL0     C62221  12.361   4.230   8.840 -0.8971 -0.1708 -0.3706
  472MOL0     N62222  11.542   4.145   8.454  0.5130 -0.3522 -0.4045
  472MOL0     N62223  11.436   4.225   8.480  0.2178 -0.4862  0.4950
  472MOL0     C62224  10.392   5.007   8.541  0.4541  0.9663 -1.0869
  472MOL0     C62225  10.249   5.002   8.530  0.6139 -0.2834  0.7079
  472MOL0     C62226   9.852   4.872   8.362 -0.4728  0.2730 -0.4357
  472MOL0     C62227   9.784   4.794   8.268  0.0924  1.4542  0.4002
  472MOL0     C62228   9.656   4.749   8.301  0.4222  0.1916  1.3712
  472MOL0     C62229   9.590   4.781   8.424  0.2279  0.0051  0.4840
  472MOL0     O62230   9.468   4.710   8.464 -0.1909 -0.2821  0.2965
  472MOL0     C62231   9.345   4.791   8.461 -0.3863 -0.6340 -0.7626
  472MOL0     C62232   9.291   4.804   8.308 -0.3397 -0.7059  0.3052
  472MOL0     C62233   9.284   4.676   8.230 -0.8469 -0.0266  0.2516
  472MOL0     C62234   9.255   4.698   8.082 -0.1358 -0.4107  0.1453
  472MOL0     C62235   9.121   4.748   8.066 -0.2955  0.1249  0.0209
  472MOL0     C62236   9.014   4.796   8.051  0.0618 -1.0607 -0.0948
  472MOL0     C62237   9.661   4.864   8.512  0.3656  0.8665  0.4433
  472MOL0     C62238   9.790   4.908   8.481 -0.3811 -0.3372  0.1882
  472MOL0     H62239  10.218   4.737   8.322  3.5626 -1.7492 -1.4419
  472MOL0     H62240  10.465   4.734   8.358  1.3599  1.1943 -0.2017
  472MOL0     H62241  10.734   4.829   8.372 -0.5720  1.0496 -0.4229
  472MOL0     H62242  10.691   4.731   8.514 -2.3512  0.3910 -0.8664
  472MOL0     H62243  10.831   4.895   8.652 -2.0718  0.9526 -0.1928
  472MOL0     H62244  10.855   4.987   8.504 -3.5855 -1.2858 -2.7005
  472MOL0     H62245  11.062   4.860   8.527  0.4261  1.0273  0.7522
  472MOL0     H62246  10.966   4.795   8.387  0.4590 -0.6662 -0.2396
  472MOL0     H62247  10.990   4.677   8.664 -0.4804  0.0510 -0.6446
  472MOL0     H62248  10.889   4.617   8.526  0.4863 -0.0588 -1.2052
  472MOL0     H62249  11.073   4.543   8.405 -0.7962 -1.6479  1.5190
  472MOL0     H62250  11.111   4.496   8.579  0.0758  0.1541  1.8882
  472MOL0     H62251  11.276   4.682   8.594 -2.7062  0.4496  0.2514
  472MOL0     H62252  11.252   4.737   8.432  0.6726 -1.3110 -1.4529
  472MOL0     H62253  11.278   4.475   8.378  0.4710 -0.0465  0.1521
  472MOL0     H62254  11.405   4.585   8.376  0.5968 -4.8257 -1.6349
  472MOL0     H62255  11.315   4.414   8.625 -0.3293  2.1875  0.1306
  472MOL0     H62256  11.435   4.538   8.629 -0.0725  0.5358  0.8583
  472MOL0     H62257  11.671   4.439   8.549 -0.3092 -0.6154  1.2971
  472MOL0     H62258  11.870   4.255   8.427  3.0877 -1.7396  1.1419
  472MOL0     H62259  11.807   4.086   8.406 -2.8287 -1.1769  1.8819
  472MOL0     H62260  11.822   4.077   8.658 -2.1612 -0.0602 -0.8150
  472MOL0     H62261  11.888   4.244   8.655 -1.5571 -0.8688  2.0644
  472MOL0     H62262  12.008   4.017   8.483 -0.1851  0.2828 -0.8188
  472MOL0     H62263  12.070   4.183   8.533 -0.0935 -0.5700 -2.0725
  472MOL0     H62264  12.153   3.946   8.649 -1.4541 -0.7845 -1.5458
  472MOL0     H62265  12.032   3.993   8.765 -0.5194  0.2224  1.2011
  472MOL0     H62266  12.232   3.920   8.872  0.1911  0.2507  1.5283
  472MOL0     H62267  12.434   3.888   9.022 -1.1294  1.0129  2.2541
  472MOL0     H62268  12.621   4.179   9.395  0.1665 -0.3640  2.7660
  472MOL0     H62269  12.826   4.130   9.559  2.1230  1.4270  0.1036
  472MOL0     H62270  12.977   4.020   9.658  1.6912 -2.8118  2.6528
  472MOL0     H62271  13.144   4.076   9.676 -0.9620 -1.2026  0.8247
  472MOL0     H62272  13.227   3.895   9.594 -0.4233  0.1132  2.6145
  472MOL0     H62273  13.122   3.904   9.449  0.7165 -1.2623 -0.8258
  472MOL0     H62274  12.944   3.780   9.591 -0.6548  0.8650  3.8165
  472MOL0     H62275  13.056   3.767   9.729 -1.8245 -3.2285 -0.6459
  472MOL0     H62276  13.142   3.677   9.467  1.2475  2.3652  1.1956
  472MOL0     H62277  13.225   3.655   9.625 -0.9227  0.9609  2.2117
  472MOL0     H62278  13.071   3.496   9.700 -1.7246 -0.9034  0.1141
  472MOL0     H62279  13.133   3.449   9.535 -0.1511  0.6308  0.7895
  472MOL0     H62280  12.907   3.520   9.449 -0.0056 -1.0389 -0.4243
  472MOL0     H62281  12.854   3.558   9.599 -1.0241 -0.3272  0.3492
  472MOL0     H62282  12.971   3.282   9.533 -1.6725 -1.1207  2.0771
  472MOL0     H62283  12.881   3.307   9.671 -1.0893 -1.7079  0.4239
  472MOL0     H62284  12.666   3.354   9.551 -1.2545  0.1250 -0.8111
  472MOL0     H62285  12.750   3.197   9.541  2.7285  0.1508 -2.1300
  472MOL0     H62286  13.099   4.158   9.237 -0.5695  0.2286 -2.0941
  472MOL0     H62287  12.915   4.197   9.083  0.1032  2.0735 -0.0800
  472MOL0     H62288  12.533   4.303   8.952 -1.2485  0.1690 -0.3956
  472MOL0     H62289  12.337   4.332   8.810 -0.6169 -0.9733 -3.6436
  472MOL0     H62290  10.435   5.089   8.598  1.2784  1.1609 -1.9717
  472MOL0     H62291  10.185   5.064   8.593  0.3735  2.3952 -1.9606
  472MOL0     H62292   9.836   4.764   8.178  1.2646  0.7361  1.2867
  472MOL0     H62293   9.601   4.690   8.229 -1.9785  1.2574  2.2095
  472MOL0     H62294   9.365   4.891   8.502  5.0093 -1.4471 -0.6566
  472MOL0     H62295   9.274   4.742   8.529  1.9410  0.0489  2.4213
  472MOL0     H62296   9.188   4.838   8.319 -0.8405 -1.5271 -1.5469
  472MOL0     H62297   9.340   4.877   8.243  0.6612 -1.3756  0.2757
  472MOL0     H62298   9.206   4.612   8.274 -1.2856 -0.6065 -1.3081
  472MOL0     H62299   9.378   4.620   8.236 -0.8221 -0.4074 -2.3868
  472MOL0     H62300   9.329   4.763   8.035  2.0161 -2.8405 -0.0595
  472MOL0     H62301   9.262   4.597   8.040  0.1156 -0.3694  0.0845
  472MOL0     H62302   8.920   4.841   8.025 -2.2974 -3.7976  2.9196
  472MOL0     H62303   9.617   4.895   8.606 -0.8611 -0.5148  0.3715
  472MOL0     H62304   9.838   4.962   8.562  2.0165  0.4194 -1.6066
  473MOL0     O62305   9.904   3.497   1.895 -0.1428 -0.3252 -0.4805
  473MOL0     C62306   9.810   3.541   1.836 -0.8213  0.0446 -0.3858
  473MOL0     O62307   9.721   3.627   1.883  0.4754 -0.2410  0.0075
  473MOL0     C62308   9.745   3.678   2.011  0.7427  0.4145  0.0243
  473MOL0     C62309   9.637   3.749   2.060 -0.3998  0.0740 -0.4065
  473MOL0     C62310   9.622   3.782   2.194 -0.0720 -0.2502 -0.5568
  473MOL0     C62311   9.728   3.781   2.280 -0.3911 -0.2480  0.2591
  473MOL0     O62312   9.710   3.834   2.407  0.5483  0.4207  0.7090
  473MOL0     C62313   9.792   3.794   2.508  0.2617 -0.3644 -0.3826
  473MOL0     C62314   9.751   3.862   2.644  0.5820 -0.4894  0.7271
  473MOL0     C62315   9.722   4.013   2.632 -0.1287 -0.6661 -0.9566
  473MOL0     C62316   9.659   4.062   2.757 -0.2473 -1.3702  0.2931
  473MOL0     C62317   9.630   4.214   2.728 -0.1362 -0.6601  0.6728
  473MOL0     C62318   9.545   4.266   2.841  0.1232  0.2136 -1.4210
  473MOL0     C62319   9.521   4.418   2.833  0.8130  1.0296 -0.1139
  473MOL0     C62320   9.398   4.461   2.919  0.2561 -0.8182  1.0040
  473MOL0     N62321   9.424   4.448   3.063 -0.8612 -0.2602 -0.9676
  473MOL0     C62322   9.526   4.502   3.142 -0.4142  0.1204 -0.6505
  473MOL0     C62323   9.499   4.460   3.266 -0.2045 -0.2068 -0.1842
  473MOL0     C62324   9.571   4.497   3.391  0.6189 -0.4237  0.4901
  473MOL0     C62325   9.552   4.646   3.419 -0.5445 -0.1672 -0.4396
  473MOL0     C62326   9.589   4.685   3.569  0.0209  0.4399 -0.0415
  473MOL0     C62327   9.633   4.832   3.573  0.1218 -0.6017  1.0008
  473MOL0     O62328   9.675   4.872   3.700 -0.7039  0.6245 -0.4942
  473MOL0     C62329   9.721   4.990   3.720  0.4402 -1.1279  0.2520
  473MOL0     C62330   9.808   4.996   3.834 -0.3869  0.3673  0.2353
  473MOL0     C62331   9.855   5.121   3.872 -0.0360  0.0122  0.9407
  473MOL0     C62332   9.813   5.247   3.817  0.2747 -0.4914 -0.1089
  473MOL0     C62333   9.879   5.370   3.864  0.8433  0.4156 -0.0056
  473MOL0     O62334  10.001   5.358   3.925 -0.4221 -0.2797 -0.3742
  473MOL0     C62335  10.066   5.456   3.988  0.4649  0.3157  0.1291
  473MOL0     C62336  10.174   5.415   4.059 -0.3633  0.9177  0.2767
  473MOL0     C62337  10.257   5.506   4.134  0.0539  0.0582 -0.5386
  473MOL0     C62338  10.244   5.641   4.120  0.5839  0.7497 -0.2348
  473MOL0     O62339  10.327   5.716   4.196  0.3415 -0.0778 -0.0170
  473MOL0     C62340  10.305   5.862   4.188 -0.3235  0.6593  0.3895
  473MOL0     C62341  10.404   5.942   4.269 -0.1105  0.0764  0.8211
  473MOL0     C62342  10.442   5.889   4.416 -0.9285  0.6174  0.6301
  473MOL0     C62343  10.502   6.000   4.494 -0.4292 -0.0988 -0.5127
  473MOL0     C62344  10.612   5.956   4.588 -0.5398  0.7838  0.0698
  473MOL0     C62345  10.559   5.868   4.701  0.0437  0.2499  0.1021
  473MOL0     C62346  10.671   5.843   4.811 -0.3829 -0.1960 -1.2012
  473MOL0     C62347  10.722   5.957   4.909  0.5450 -0.4781 -0.0658
  473MOL0    Cl62348  10.592   6.013   5.027 -0.1160 -0.2192  0.0726
  473MOL0     C62349  10.127   5.680   4.047 -0.0683  0.6274  0.2884
  473MOL0     C62350  10.040   5.590   3.986 -0.9573 -0.2890  0.1267
  473MOL0     O62351   9.817   5.471   3.843  1.0626 -1.2163 -0.1660
  473MOL0     C62352   9.716   5.234   3.711 -0.8326 -0.5583  0.6097
  473MOL0     C62353   9.660   5.112   3.667  0.1927  1.1641 -0.8820
  473MOL0     N62354   9.382   4.393   3.262 -0.1724 -0.0376  0.0158
  473MOL0     N62355   9.334   4.380   3.148 -0.2275 -0.5899  0.8208
  473MOL0     C62356   9.840   3.727   2.237  0.1182 -0.1143 -0.4360
  473MOL0     C62357   9.848   3.672   2.102  1.0453 -0.3916  0.3305
  473MOL0     C62358   9.786   3.492   1.690 -0.1631  0.1820 -0.5013
  473MOL0     C62359   9.875   3.411   1.621 -0.2064 -0.9095  0.7211
  473MOL0     C62360   9.851   3.370   1.481 -0.3956 -0.2026 -0.3417
  473MOL0     C62361   9.738   3.414   1.415 -0.1782  0.6062 -0.9329
  473MOL0     O62362   9.706   3.357   1.292  0.8790  0.5401  0.5811
  473MOL0     C62363   9.571   3.313   1.275  0.7284 -0.1013 -0.6750
  473MOL0     C62364   9.560   3.168   1.302  1.6039  1.5250 -0.3283
  473MOL0     C62365   9.429   3.103   1.259  0.3097 -0.4599  0.5947
  473MOL0     C62366   9.406   3.075   1.108 -0.3162 -0.3731  0.4663
  473MOL0     C62367   9.315   2.964   1.090 -0.2735  0.1259  0.4936
  473MOL0     C62368   9.219   2.890   1.078  0.0415 -0.1842  0.3967
  473MOL0     C62369   9.654   3.503   1.483 -0.5310 -0.5356 -0.1320
  473MOL0     C62370   9.675   3.537   1.623  0.2805 -0.1958 -0.4295
  473MOL0     H62371   9.551   3.753   1.994 -2.3318 -1.0531  1.8939
  473MOL0     H62372   9.524   3.806   2.236 -1.4308 -0.7663 -3.1997
  473MOL0     H62373   9.896   3.815   2.481  0.5083  0.9555  1.3603
  473MOL0     H62374   9.766   3.689   2.518  0.5291 -0.4431 -0.5132
  473MOL0     H62375   9.820   3.851   2.728 -0.8648  1.2078  2.2391
  473MOL0     H62376   9.659   3.817   2.683 -1.5576  4.4358  2.2059
  473MOL0     H62377   9.645   4.029   2.555 -3.2912  0.7501  2.2097
  473MOL0     H62378   9.810   4.073   2.609 -0.1044 -0.8240 -1.2842
  473MOL0     H62379   9.579   3.993   2.784  1.4933 -3.3522  0.6440
  473MOL0     H62380   9.735   4.052   2.835  1.4824  2.4731 -0.6596
  473MOL0     H62381   9.578   4.226   2.633 -0.0663 -2.8700  0.3121
  473MOL0     H62382   9.722   4.272   2.719 -0.0484 -0.6889  1.3200
  473MOL0     H62383   9.589   4.238   2.938  3.0035 -0.5512 -2.8403
  473MOL0     H62384   9.451   4.210   2.839 -0.5621  1.2696 -0.2596
  473MOL0     H62385   9.608   4.467   2.878  2.1696 -1.5281  0.2151
  473MOL0     H62386   9.506   4.442   2.728  1.5222  0.6412 -0.3091
  473MOL0     H62387   9.301   4.413   2.903 -0.2675 -0.6877  3.3436
  473MOL0     H62388   9.374   4.565   2.892  0.8692 -0.9321  0.0182
  473MOL0     H62389   9.610   4.563   3.109  1.8002 -3.5339 -2.3870
  473MOL0     H62390   9.676   4.466   3.382  1.1099  1.6682 -5.5639
  473MOL0     H62391   9.530   4.447   3.480  2.7834 -1.8566  0.7838
  473MOL0     H62392   9.453   4.682   3.392  0.0414  3.6469  1.7132
  473MOL0     H62393   9.619   4.695   3.348  0.5256 -1.6377 -0.5125
  473MOL0     H62394   9.508   4.665   3.639 -0.1130 -3.6674 -1.1254
  473MOL0     H62395   9.675   4.630   3.607  1.8432 -0.0382 -4.2521
  473MOL0     H62396   9.556   4.904   3.543  1.5064  1.9606  3.1757
  473MOL0     H62397   9.723   4.850   3.514  0.8004 -0.9618  1.9031
  473MOL0     H62398   9.834   4.895   3.865 -3.5051 -0.8178 -0.6458
  473MOL0     H62399   9.933   5.117   3.947 -1.5828 -1.0092  2.5486
  473MOL0     H62400  10.207   5.312   4.055 -1.0942  0.4435  3.3287
  473MOL0     H62401  10.330   5.460   4.200 -0.8116 -1.2345 -0.4364
  473MOL0     H62402  10.206   5.882   4.231 -0.7539  0.3486 -0.4338
  473MOL0     H62403  10.294   5.897   4.085 -4.3379  1.1340  0.8289
  473MOL0     H62404  10.356   6.034   4.303  0.9487 -0.5406  4.3904
  473MOL0     H62405  10.491   5.976   4.212 -1.7394  0.9472 -1.2728
  473MOL0     H62406  10.511   5.808   4.392 -1.8960  0.7325 -3.1469
  473MOL0     H62407  10.358   5.844   4.469 -0.1867 -1.7974 -0.1280
  473MOL0     H62408  10.544   6.076   4.427 -0.8452 -0.7088 -1.4862
  473MOL0     H62409  10.425   6.044   4.558 -1.9006 -0.8553 -1.6970
  473MOL0     H62410  10.673   6.036   4.630  1.0592 -0.2607 -0.1857
  473MOL0     H62411  10.684   5.885   4.545 -0.3875 -0.6804  2.5289
  473MOL0     H62412  10.515   5.771   4.677 -2.0745  0.6058  2.1801
  473MOL0     H62413  10.470   5.919   4.739  1.5919  1.8417  1.7515
  473MOL0     H62414  10.646   5.766   4.884 -0.7106  2.8865  2.2556
  473MOL0     H62415  10.760   5.808   4.759  1.0886  1.6937 -0.0675
  473MOL0     H62416  10.746   6.041   4.843 -0.6862 -1.2152 -1.4898
  473MOL0     H62417  10.821   5.934   4.950 -0.0837 -2.8780  0.2455
  473MOL0     H62418  10.099   5.785   4.052  2.4512  1.4673 -1.3378
  473MOL0     H62419   9.952   5.632   3.938  0.0734  3.3568  1.1619
  473MOL0     H62420   9.673   5.327   3.675 -1.2815 -0.8993  0.2602
  473MOL0     H62421   9.579   5.113   3.595 -0.4663  1.8369 -0.1554
  473MOL0     H62422   9.932   3.725   2.295  1.4023  1.5472 -2.2740
  473MOL0     H62423   9.947   3.646   2.067  1.8436  3.3757 -0.6276
  473MOL0     H62424   9.967   3.387   1.674  1.0189  2.0034  0.1318
  473MOL0     H62425   9.928   3.301   1.447  2.2367  1.2186  2.2589
  473MOL0     H62426   9.550   3.309   1.168 -2.9178 -0.9508 -0.0572
  473MOL0     H62427   9.488   3.361   1.327 -0.1006 -4.1310  2.2057
  473MOL0     H62428   9.639   3.111   1.251  0.8627 -0.9976  1.1342
  473MOL0     H62429   9.560   3.148   1.409 -0.3141 -1.3212 -0.7391
  473MOL0     H62430   9.345   3.169   1.284 -0.1238  0.3901 -2.6732
  473MOL0     H62431   9.417   3.007   1.310  0.6408 -2.3928 -2.7275
  473MOL0     H62432   9.357   3.163   1.064 -1.9512 -1.5828 -0.2352
  473MOL0     H62433   9.500   3.056   1.055 -1.4254  0.6739 -2.0249
  473MOL0     H62434   9.127   2.841   1.050 -0.6898  0.6695  1.2245
  473MOL0     H62435   9.574   3.548   1.426 -1.8495 -1.5814  0.8363
  473MOL0     H62436   9.593   3.584   1.676 -2.6557 -4.3401 -0.8252
  474MOL0     O62437   6.267   0.469   5.106  0.5077  0.0896 -0.2476
  474MOL0     C62438   6.262   0.424   5.224 -0.4144 -1.0679 -0.1924
  474MOL0     O62439   6.166   0.447   5.315 -0.5082  0.0685 -0.2006
  474MOL0     C62440   6.053   0.506   5.259  0.2416  0.4307 -0.8902
  474MOL0     C62441   6.047   0.647   5.232  0.0580 -0.1084 -0.5981
  474MOL0     C62442   5.937   0.703   5.175  0.1600 -0.0146  0.2975
  474MOL0     C62443   5.834   0.626   5.149 -0.2735  0.3667  0.2925
  474MOL0     O62444   5.711   0.667   5.098 -0.1156 -0.0798  0.9189
  474MOL0     C62445   5.703   0.793   5.032 -0.4175 -0.4240  0.4394
  474MOL0     C62446   5.555   0.808   4.995 -0.3389 -1.1939  0.0989
  474MOL0     C62447   5.465   0.807   5.125 -0.6998 -0.2507 -0.0441
  474MOL0     C62448   5.339   0.892   5.105 -0.0727  0.4606  0.7842
  474MOL0     C62449   5.237   0.871   5.220 -0.4323 -0.1477 -0.3425
  474MOL0     C62450   5.104   0.944   5.190  1.1150  0.1273 -0.3670
  474MOL0     C62451   5.014   0.920   5.321  0.6134 -0.1728 -0.2529
  474MOL0     C62452   4.870   0.962   5.291  0.5332  0.0371 -0.5196
  474MOL0     N62453   4.789   0.983   5.418 -0.3700 -0.4230  0.2486
  474MOL0     C62454   4.684   0.896   5.454  0.4225 -0.0494  0.1926
  474MOL0     C62455   4.621   0.942   5.567 -0.5313 -0.0547 -0.5271
  474MOL0     C62456   4.509   0.874   5.640 -0.4973 -0.0636 -0.4648
  474MOL0     C62457   4.392   0.970   5.656  0.2160  0.5245  0.0799
  474MOL0     C62458   4.282   0.912   5.741  0.8528 -0.7982  0.7328
  474MOL0     C62459   4.164   1.016   5.742 -0.1938 -0.1307 -0.2218
  474MOL0     O62460   4.051   0.966   5.810  0.6671  0.3387  0.2292
  474MOL0     C62461   3.947   1.056   5.820  0.1182  0.3501 -0.5847
  474MOL0     C62462   3.963   1.192   5.810 -1.1094 -0.1358  0.2456
  474MOL0     C62463   3.845   1.274   5.806 -0.0408  0.1032 -0.2685
  474MOL0     C62464   3.716   1.215   5.799 -1.1547 -0.4937  0.6058
  474MOL0     C62465   3.595   1.303   5.803 -0.8670  0.1188 -1.6443
  474MOL0     O62466   3.476   1.239   5.813  0.1042 -0.8598  0.0549
  474MOL0     C62467   3.358   1.305   5.816  0.4667 -0.1694  0.1208
  474MOL0     C62468   3.240   1.222   5.793  0.0640 -0.0336 -0.4838
  474MOL0     C62469   3.110   1.279   5.786  0.0685  0.0702  0.2521
  474MOL0     C62470   3.088   1.420   5.799  0.3734  0.2381 -0.1257
  474MOL0     O62471   2.956   1.469   5.811  0.2004  0.0217 -0.1772
  474MOL0     C62472   2.919   1.483   5.954 -0.7552 -0.1819  0.4515
  474MOL0     C62473   2.770   1.516   5.960  0.0647  0.0938 -0.0363
  474MOL0     C62474   2.679   1.397   5.933 -0.4162  0.3246  0.2372
  474MOL0     C62475   2.683   1.287   6.043  0.1699  0.0513 -0.3213
  474MOL0     C62476   2.581   1.172   6.019 -0.6115 -0.5978  0.9004
  474MOL0     C62477   2.598   1.052   6.110  0.1336 -0.7683  0.2942
  474MOL0     C62478   2.470   0.968   6.110  0.0343  0.7310  0.2153
  474MOL0     C62479   2.497   0.827   6.152  0.0665 -0.2566 -0.3444
  474MOL0    Cl62480   2.527   0.830   6.328  0.3789 -0.0508 -0.2307
  474MOL0     C62481   3.192   1.505   5.836  0.0964  0.5253  1.4758
  474MOL0     C62482   3.330   1.452   5.838  0.3015  0.2494  0.0397
  474MOL0     O62483   3.602   1.422   5.796 -0.2188 -0.1511 -0.0941
  474MOL0     C62484   3.707   1.073   5.795 -1.0303 -0.7506  0.1394
  474MOL0     C62485   3.824   0.994   5.812 -0.1096 -1.2170 -0.2039
  474MOL0     N62486   4.704   1.050   5.606  0.2115 -0.6183 -0.0182
  474MOL0     N62487   4.796   1.075   5.523 -0.4325  0.6216  0.0654
  474MOL0     C62488   5.828   0.495   5.187  0.1016  0.6061 -0.9014
  474MOL0     C62489   5.939   0.430   5.238 -0.4149 -1.2482  0.7879
  474MOL0     C62490   6.381   0.361   5.279 -0.2695 -0.1809 -0.1221
  474MOL0     C62491   6.401   0.328   5.411 -0.7823  0.8600  0.9520
  474MOL0     C62492   6.521   0.262   5.451 -0.3727  0.5827  0.4458
  474MOL0     C62493   6.620   0.220   5.359 -0.0109 -0.2447  0.1452
  474MOL0     O62494   6.739   0.150   5.378 -0.3801  0.8389 -0.0551
  474MOL0     C62495   6.741   0.060   5.492  0.9693 -1.6365  0.0575
  474MOL0     C62496   6.855  -0.030   5.483 -0.4876  0.2616  0.1636
  474MOL0     C62497   6.901  -0.063   5.623  0.1683  0.1193  0.5182
  474MOL0     C62498   7.003  -0.176   5.636  0.1705  0.3347  0.3264
  474MOL0     C62499   7.135  -0.133   5.597  0.6697  0.4161 -0.4713
  474MOL0     C62500   7.246  -0.098   5.553  1.3022 -0.3667 -0.4757
  474MOL0     C62501   6.607   0.260   5.224 -0.0818 -0.6343  0.7340
  474MOL0     C62502   6.482   0.319   5.187 -0.2167 -0.5966 -0.1771
  474MOL0     H62503   6.131   0.716   5.240 -1.4101  1.8646 -1.2098
  474MOL0     H62504   5.938   0.812   5.173  1.5441  0.1589  3.4490
  474MOL0     H62505   5.760   0.787   4.939  1.0829  3.0686  0.9995
  474MOL0     H62506   5.728   0.876   5.098 -0.4772 -1.3633  1.6839
  474MOL0     H62507   5.531   0.721   4.934  1.1801 -0.2701 -1.9342
  474MOL0     H62508   5.537   0.896   4.932  0.9850 -0.9218  0.0744
  474MOL0     H62509   5.516   0.831   5.219 -0.5324 -2.3591  0.4655
  474MOL0     H62510   5.436   0.702   5.128 -0.1856 -0.3794  0.7706
  474MOL0     H62511   5.364   0.996   5.081  1.6736 -0.7566 -3.7368
  474MOL0     H62512   5.293   0.841   5.020  2.1254  0.2384 -0.3434
  474MOL0     H62513   5.273   0.899   5.319 -2.5150 -2.0382  1.0452
  474MOL0     H62514   5.214   0.765   5.233 -2.5517 -0.3470 -4.0223
  474MOL0     H62515   5.057   0.889   5.107  2.9598 -1.1860 -0.6106
  474MOL0     H62516   5.118   1.051   5.175 -0.1872  0.2086 -1.1914
  474MOL0     H62517   5.021   0.818   5.360  1.2524  0.7488  2.2300
  474MOL0     H62518   5.044   0.984   5.404 -1.5023 -0.9456  1.1838
  474MOL0     H62519   4.824   0.889   5.223 -1.5695  2.6388 -2.0813
  474MOL0     H62520   4.871   1.056   5.234 -1.3409  0.6916  0.4629
  474MOL0     H62521   4.651   0.811   5.395 -2.3579 -0.1603  1.7676
  474MOL0     H62522   4.548   0.863   5.741 -0.1032  0.4138 -0.5582
  474MOL0     H62523   4.487   0.773   5.604  0.3865  0.1715 -1.7058
  474MOL0     H62524   4.351   1.003   5.560  0.0073 -1.9114 -0.7272
  474MOL0     H62525   4.417   1.067   5.702 -1.1951  0.9680 -0.0436
  474MOL0     H62526   4.239   0.819   5.704 -0.9657  0.0427  0.6073
  474MOL0     H62527   4.311   0.888   5.844 -0.7007 -4.0052  0.5284
  474MOL0     H62528   4.132   1.030   5.638  1.0673  1.3992 -0.4351
  474MOL0     H62529   4.211   1.106   5.781 -2.0223  0.4685  0.6989
  474MOL0     H62530   4.060   1.239   5.820 -2.9885  4.2144  0.1888
  474MOL0     H62531   3.850   1.382   5.817 -1.3945 -0.0735  3.1452
  474MOL0     H62532   3.237   1.113   5.793 -0.5443 -0.0192 -0.7402
  474MOL0     H62533   3.023   1.217   5.767  1.0242 -1.8315  1.7296
  474MOL0     H62534   2.972   1.566   6.002 -0.8422 -0.5045  1.1117
  474MOL0     H62535   2.942   1.395   6.015 -1.3280 -1.5383 -1.2191
  474MOL0     H62536   2.744   1.598   5.894  0.6795 -0.5960 -1.1788
  474MOL0     H62537   2.739   1.544   6.061 -0.9468  1.6131 -0.7368
  474MOL0     H62538   2.707   1.356   5.836 -4.1967  0.8329 -1.2472
  474MOL0     H62539   2.578   1.436   5.919 -0.5951 -0.4847 -0.8592
  474MOL0     H62540   2.787   1.254   6.057  1.5984  4.0401 -0.1034
  474MOL0     H62541   2.652   1.344   6.131  0.5113  2.6846 -1.7997
  474MOL0     H62542   2.574   1.131   5.918  2.6061 -2.7694  1.4074
  474MOL0     H62543   2.481   1.212   6.042 -1.1054  0.1560 -2.2208
  474MOL0     H62544   2.627   1.076   6.212 -0.5461 -2.0912  0.8265
  474MOL0     H62545   2.684   0.995   6.074  0.7600 -0.4064  1.1948
  474MOL0     H62546   2.399   1.009   6.182 -1.1910 -0.5964 -0.1889
  474MOL0     H62547   2.434   0.972   6.007  1.6463  0.5831 -0.3865
  474MOL0     H62548   2.580   0.792   6.090 -0.4104  0.4752 -1.4134
  474MOL0     H62549   2.413   0.762   6.126  1.4275 -1.1391 -2.8351
  474MOL0     H62550   3.172   1.611   5.842  1.3484  0.8338  0.6685
  474MOL0     H62551   3.413   1.523   5.839 -0.8054  1.6763 -2.1377
  474MOL0     H62552   3.617   1.013   5.802  1.4858 -4.6946  4.8789
  474MOL0     H62553   3.828   0.886   5.800  0.1406 -1.0287 -2.1285
  474MOL0     H62554   5.734   0.443   5.175 -0.8487  1.7225  1.1538
  474MOL0     H62555   5.954   0.323   5.252  2.6102 -0.7549  1.8838
  474MOL0     H62556   6.336   0.364   5.491  0.1226 -0.3201  2.2757
  474MOL0     H62557   6.541   0.236   5.555  0.1954  2.7085  0.9219
  474MOL0     H62558   6.652  -0.004   5.496 -1.0661  1.0074  0.0034
  474MOL0     H62559   6.741   0.123   5.582  0.4057 -0.6015 -0.6447
  474MOL0     H62560   6.828  -0.122   5.432  2.3195 -1.0147  0.7817
  474MOL0     H62561   6.927   0.025   5.421 -1.1550 -2.5503 -3.4350
  474MOL0     H62562   6.813  -0.086   5.683 -2.6198 -0.0775 -3.2676
  474MOL0     H62563   6.936   0.030   5.668  2.8985 -0.6885  0.2542
  474MOL0     H62564   7.008  -0.211   5.739 -0.0462 -2.5255 -0.5291
  474MOL0     H62565   6.965  -0.259   5.575 -2.6151  0.2532  2.0243
  474MOL0     H62566   7.341  -0.076   5.509  1.6618  0.6572  0.7539
  474MOL0     H62567   6.678   0.232   5.147 -0.3918  3.5687 -1.4052
  474MOL0     H62568   6.458   0.340   5.083 -0.4109 -0.1294 -0.0420
  475MOL0     O62569   0.440   6.238   7.160 -0.4323 -0.3815 -0.1760
  475MOL0     C62570   0.549   6.219   7.107  0.1282  0.1882  0.1375
  475MOL0     O62571   0.588   6.107   7.049 -0.4908  0.5937 -0.6159
  475MOL0     C62572   0.498   6.019   6.995  0.6905  0.4203  0.6594
  475MOL0     C62573   0.509   5.884   7.027  0.6007  0.4842 -0.1401
  475MOL0     C62574   0.410   5.792   6.982  0.0415 -0.4760  0.2332
  475MOL0     C62575   0.302   5.834   6.902  0.6373 -0.3428  1.0181
  475MOL0     O62576   0.212   5.749   6.847  0.1399 -0.2205  0.4992
  475MOL0     C62577   0.086   5.756   6.909 -1.1513  0.1286 -1.4083
  475MOL0     C62578  -0.005   5.631   6.882 -0.9932 -0.3765  0.4766
  475MOL0     C62579  -0.066   5.635   6.741  0.1630  1.3538 -0.1493
  475MOL0     C62580  -0.207   5.567   6.736  0.1288  0.5967 -0.2325
  475MOL0     C62581  -0.283   5.550   6.607  0.5886 -0.8820  0.5720
  475MOL0     C62582  -0.438   5.565   6.619  0.1199 -0.2765 -0.4412
  475MOL0     C62583  -0.529   5.556   6.495 -0.1432 -0.3599 -0.8299
  475MOL0     C62584  -0.652   5.646   6.500  0.2474 -0.3308  0.1459
  475MOL0     N62585  -0.763   5.576   6.566 -0.4490  0.3711  0.1637
  475MOL0     C62586  -0.886   5.560   6.515  0.7351 -0.7205 -0.4322
  475MOL0     C62587  -0.949   5.486   6.611 -0.5295  0.1249 -0.2529
  475MOL0     C62588  -1.093   5.435   6.598  0.3156  0.5066  1.0031
  475MOL0     C62589  -1.098   5.298   6.522 -0.2494 -0.4623  0.1223
  475MOL0     C62590  -1.033   5.310   6.379  0.7448 -0.0830  0.0217
  475MOL0     C62591  -0.884   5.258   6.383  0.0710  0.3592  0.4893
  475MOL0     O62592  -0.802   5.312   6.282  0.4940 -0.4998  0.3151
  475MOL0     C62593  -0.674   5.261   6.268 -0.0153 -0.6480 -1.0354
  475MOL0     C62594  -0.603   5.309   6.165  0.4684 -0.2451 -0.3098
  475MOL0     C62595  -0.471   5.261   6.138 -0.3789  0.0566 -0.3599
  475MOL0     C62596  -0.407   5.170   6.217  0.9111  0.4237 -1.0223
  475MOL0     C62597  -0.267   5.135   6.189  0.7768 -0.4785 -0.3384
  475MOL0     O62598  -0.220   5.187   6.068 -0.1808  0.3875  0.2583
  475MOL0     C62599  -0.093   5.135   6.030  0.1344  0.1911  1.1452
  475MOL0     C62600  -0.001   5.222   5.973  0.2803 -0.3575  0.3962
  475MOL0     C62601   0.115   5.170   5.918  1.0394 -0.1478  0.0502
  475MOL0     C62602   0.149   5.035   5.933  0.1985 -0.4638 -0.5894
  475MOL0     O62603   0.274   5.008   5.894  0.1333  0.7228  0.2526
  475MOL0     C62604   0.336   4.884   5.956  0.0455  1.0760  0.0865
  475MOL0     C62605   0.484   4.896   5.962  0.3563  0.1264 -0.3431
  475MOL0     C62606   0.545   4.932   6.098 -0.3153  0.5886 -0.3589
  475MOL0     C62607   0.698   4.945   6.066  0.1338  0.5110 -0.0959
  475MOL0     C62608   0.774   4.961   6.198  0.0681 -0.6023  0.8457
  475MOL0     C62609   0.922   4.975   6.182 -0.2616 -0.2867 -1.1867
  475MOL0     C62610   0.990   5.030   6.310  0.4776 -1.1526 -0.0524
  475MOL0     C62611   1.140   5.060   6.280  0.6928  0.1959 -0.5103
  475MOL0    Cl62612   1.228   4.927   6.205 -0.3576  0.2340  0.0242
  475MOL0     C62613   0.061   4.949   5.998  0.2766  0.1776  0.4204
  475MOL0     C62614  -0.067   4.995   6.039 -0.1601 -0.4531 -0.3276
  475MOL0     O62615  -0.219   5.050   6.263 -0.2327 -0.5227  0.3826
  475MOL0     C62616  -0.482   5.117   6.331  0.0734 -1.2449  0.6284
  475MOL0     C62617  -0.612   5.174   6.358 -0.5361 -0.5849  0.0538
  475MOL0     N62618  -0.876   5.477   6.727  0.1713  0.4177  0.5459
  475MOL0     N62619  -0.769   5.535   6.694 -0.1614  1.0366 -0.3003
  475MOL0     C62620   0.290   5.975   6.886  0.0285 -0.7654 -0.1821
  475MOL0     C62621   0.379   6.064   6.931 -1.1074 -0.2855 -0.3729
  475MOL0     C62622   0.638   6.341   7.110  0.1291 -0.4508  0.0059
  475MOL0     C62623   0.588   6.469   7.151 -0.2656  0.4745  0.0818
  475MOL0     C62624   0.660   6.585   7.149  0.2879  0.2357 -0.3283
  475MOL0     C62625   0.786   6.586   7.104 -0.5650  0.8162 -0.1701
  475MOL0     O62626   0.844   6.711   7.090  0.3369  0.4941 -0.7212
  475MOL0     C62627   0.983   6.720   7.066 -0.3892  0.4641  0.8044
  475MOL0     C62628   1.022   6.870   7.071 -0.0024  0.2005  0.2677
  475MOL0     C62629   0.988   6.930   7.201  0.3594 -0.7603 -0.1325
  475MOL0     C62630   1.029   7.086   7.184  0.4365  0.5063 -1.0521
  475MOL0     C62631   0.982   7.141   7.310 -0.0972 -0.6420 -0.9743
  475MOL0     C62632   0.961   7.193   7.417  0.3640 -0.1320 -1.1576
  475MOL0     C62633   0.842   6.463   7.058  0.5564  1.9788 -0.0818
  475MOL0     C62634   0.765   6.334   7.057  0.1639 -1.2319  0.0032
  475MOL0     H62635   0.581   5.857   7.103  1.1686  2.9501  0.2838
  475MOL0     H62636   0.412   5.688   7.013  2.1744 -1.0997 -1.6851
  475MOL0     H62637   0.031   5.846   6.882 -2.2151 -0.4093 -1.0771
  475MOL0     H62638   0.111   5.749   7.016  0.9710  3.6568 -1.4979
  475MOL0     H62639  -0.089   5.619   6.951 -0.4869  1.4264  1.4467
  475MOL0     H62640   0.051   5.537   6.889 -1.8664 -0.9589 -0.1476
  475MOL0     H62641  -0.004   5.582   6.668  1.7927  0.7345  1.6045
  475MOL0     H62642  -0.074   5.741   6.715  3.6656  1.3152 -2.1445
  475MOL0     H62643  -0.196   5.465   6.776  1.5296 -0.8601 -3.9129
  475MOL0     H62644  -0.282   5.621   6.795 -1.6467  0.8693 -2.6107
  475MOL0     H62645  -0.256   5.449   6.576  1.9108 -1.5809  3.6087
  475MOL0     H62646  -0.235   5.625   6.543 -1.0971  0.6060  0.9634
  475MOL0     H62647  -0.443   5.665   6.661  0.7995 -1.5040  2.9107
  475MOL0     H62648  -0.468   5.500   6.702 -0.0889  0.9048  0.4332
  475MOL0     H62649  -0.464   5.594   6.415 -1.1115 -2.1150 -2.5258
  475MOL0     H62650  -0.558   5.454   6.468 -0.0085 -0.5970 -0.1066
  475MOL0     H62651  -0.683   5.670   6.398  0.2770 -2.8290 -0.5055
  475MOL0     H62652  -0.636   5.748   6.538  2.1903  0.2478 -2.0002
  475MOL0     H62653  -0.917   5.596   6.417  0.4598 -0.6916 -0.3372
  475MOL0     H62654  -1.156   5.509   6.548  0.8025 -1.6253 -3.1620
  475MOL0     H62655  -1.128   5.420   6.701 -0.4596  2.2894  1.0499
  475MOL0     H62656  -1.201   5.263   6.534 -1.0272  0.9243 -1.9012
  475MOL0     H62657  -1.044   5.227   6.586  0.0398  0.9758  1.5210
  475MOL0     H62658  -1.081   5.235   6.314 -1.0267  1.5114 -0.6248
  475MOL0     H62659  -1.041   5.413   6.342 -0.0991  0.4090  1.5072
  475MOL0     H62660  -0.878   5.149   6.394 -0.5287  0.4288  1.6788
  475MOL0     H62661  -0.830   5.300   6.468 -0.1229  1.6285  0.0006
  475MOL0     H62662  -0.642   5.373   6.086 -0.0583  0.0752  0.2000
  475MOL0     H62663  -0.420   5.301   6.052  4.9256  0.9894  2.7928
  475MOL0     H62664  -0.029   5.326   5.959  0.2862 -0.4845 -0.6269
  475MOL0     H62665   0.179   5.235   5.860 -0.1591  3.4498  2.3648
  475MOL0     H62666   0.309   4.793   5.902  2.3493  1.3598 -1.6921
  475MOL0     H62667   0.297   4.856   6.055  0.0262 -0.0059 -0.2214
  475MOL0     H62668   0.510   4.974   5.890  1.8537 -0.9718 -1.0590
  475MOL0     H62669   0.518   4.797   5.928 -0.2253 -0.3658  0.4661
  475MOL0     H62670   0.510   4.862   6.175  0.7682  0.2506 -0.1594
  475MOL0     H62671   0.521   5.033   6.132 -1.4071 -0.0646  0.9262
  475MOL0     H62672   0.725   4.847   6.025 -1.4090  1.5688 -4.0724
  475MOL0     H62673   0.723   5.030   6.002  0.8949  0.2178 -0.1944
  475MOL0     H62674   0.747   4.870   6.253 -1.4680 -1.0407 -0.5416
  475MOL0     H62675   0.741   5.053   6.246  0.3168  0.0825 -0.2629
  475MOL0     H62676   0.934   5.038   6.093 -1.9475 -0.0436 -1.2925
  475MOL0     H62677   0.978   4.883   6.166  3.5212  1.2871  1.5663
  475MOL0     H62678   0.938   5.115   6.356  2.8189  0.3856 -0.0745
  475MOL0     H62679   0.987   4.950   6.386 -3.5627 -0.4982  0.7074
  475MOL0     H62680   1.195   5.103   6.364 -0.1729  0.6223 -0.1535
  475MOL0     H62681   1.138   5.127   6.194  2.8728 -2.2754 -2.6969
  475MOL0     H62682   0.095   4.847   6.005  0.8514  0.4483  1.8928
  475MOL0     H62683  -0.138   4.925   6.081  2.1493 -1.4160  2.2413
  475MOL0     H62684  -0.442   5.053   6.409 -2.0806 -2.1708  1.0479
  475MOL0     H62685  -0.643   5.152   6.460 -0.7144 -2.4167 -0.3475
  475MOL0     H62686   0.201   6.010   6.833 -0.8854 -0.4652  1.4869
  475MOL0     H62687   0.354   6.170   6.922  0.9121  0.1855 -0.8251
  475MOL0     H62688   0.487   6.473   7.192 -0.0700  0.1625  0.6087
  475MOL0     H62689   0.613   6.676   7.187 -0.6893 -0.9452  1.4408
  475MOL0     H62690   1.008   6.670   6.972 -3.0100  2.1577 -0.8913
  475MOL0     H62691   1.037   6.658   7.139  1.3597 -1.4254 -1.8976
  475MOL0     H62692   1.131   6.871   7.058  0.3405 -1.5073  2.3448
  475MOL0     H62693   0.985   6.922   6.983  1.0330 -1.9101 -1.5167
  475MOL0     H62694   1.045   6.881   7.281  1.1967 -1.3831 -1.0834
  475MOL0     H62695   0.883   6.918   7.230  0.6933 -0.2460  1.3762
  475MOL0     H62696   1.138   7.093   7.183  0.4307  0.5516 -1.6453
  475MOL0     H62697   0.977   7.144   7.107 -1.2480  0.6977  0.1663
  475MOL0     H62698   0.968   7.231   7.517 -0.4202 -0.8097 -0.8353
  475MOL0     H62699   0.940   6.460   7.011  1.0067  0.4640  0.8670
  475MOL0     H62700   0.782   6.237   7.013  1.2234  0.1422 -2.8584
  476MOL0     O62701   7.525   6.039   3.842 -0.5529 -0.3052 -0.4261
  476MOL0     C62702   7.457   5.940   3.840  0.4499  0.0852 -0.4277
  476MOL0     O62703   7.468   5.847   3.931 -0.5872 -0.2037  0.2226
  476MOL0     C62704   7.530   5.885   4.049 -1.0878 -0.8020 -0.2805
  476MOL0     C62705   7.641   5.811   4.093 -0.4016 -0.8934  0.2629
  476MOL0     C62706   7.728   5.855   4.199 -0.2904  0.1412 -0.2448
  476MOL0     C62707   7.684   5.979   4.263 -0.3651 -0.0466 -0.0395
  476MOL0     O62708   7.771   6.024   4.366 -0.2287  0.2063  0.4075
  476MOL0     C62709   7.809   6.161   4.344  0.0747 -0.0101 -0.0491
  476MOL0     C62710   7.941   6.161   4.429  0.2497  1.0377  0.0037
  476MOL0     C62711   8.046   6.068   4.362  0.3869 -0.9117  0.3237
  476MOL0     C62712   8.190   6.051   4.419  0.0069 -0.4163  0.0301
  476MOL0     C62713   8.193   6.058   4.575  0.3244 -0.5276  0.2526
  476MOL0     C62714   8.340   6.003   4.604  0.0377 -0.1486 -0.5909
  476MOL0     C62715   8.368   6.004   4.753  0.1639  1.4611 -0.7749
  476MOL0     C62716   8.296   5.885   4.825 -0.0758  0.1325 -0.1256
  476MOL0     N62717   8.354   5.750   4.780 -1.4382 -0.8075 -0.6249
  476MOL0     C62718   8.277   5.657   4.718  0.2657 -0.1344  0.6817
  476MOL0     C62719   8.356   5.546   4.720  0.3815  0.4850  0.2076
  476MOL0     C62720   8.317   5.413   4.654 -0.4264  0.9325  0.2947
  476MOL0     C62721   8.190   5.352   4.713 -0.0414  0.5206 -0.1178
  476MOL0     C62722   8.216   5.288   4.845  0.4742  0.7203  0.8494
  476MOL0     C62723   8.105   5.300   4.936  0.4688 -0.4288 -0.3623
  476MOL0     O62724   8.148   5.254   5.063  0.8806  0.0725 -0.4274
  476MOL0     C62725   8.073   5.270   5.180  0.6316 -0.5675  0.7366
  476MOL0     C62726   7.951   5.335   5.200  0.2156 -0.0143  0.3152
  476MOL0     C62727   7.889   5.361   5.328  0.5084 -0.5570 -0.2231
  476MOL0     C62728   7.966   5.305   5.434  0.5933  0.3243 -0.4136
  476MOL0     C62729   7.919   5.314   5.572 -0.2626  0.3875  0.9500
  476MOL0     O62730   7.989   5.257   5.680  0.9971 -0.3213 -0.2566
  476MOL0     C62731   7.918   5.243   5.801 -0.8513 -0.8688 -0.8544
  476MOL0     C62732   7.881   5.354   5.875  0.1314 -0.5851 -0.1802
  476MOL0     C62733   7.793   5.346   5.985  0.1124 -0.0139 -0.3362
  476MOL0     C62734   7.758   5.224   6.041 -0.0207  0.4516 -0.2619
  476MOL0     O62735   7.670   5.204   6.146  0.4668 -0.3168 -0.1259
  476MOL0     C62736   7.642   5.311   6.240  0.0222  0.1322  0.0772
  476MOL0     C62737   7.539   5.266   6.339  0.3699  0.2861  0.1659
  476MOL0     C62738   7.551   5.352   6.459 -0.0682  0.5954  0.7699
  476MOL0     C62739   7.502   5.296   6.595  0.3382  0.2011  0.8807
  476MOL0     C62740   7.481   5.401   6.698 -0.1358  0.1769 -0.2331
  476MOL0     C62741   7.468   5.343   6.838 -0.0109 -0.8354  0.4040
  476MOL0     C62742   7.412   5.459   6.931  0.3163  0.3523 -0.8488
  476MOL0     C62743   7.434   5.401   7.080 -0.3875  0.1474  0.5512
  476MOL0    Cl62744   7.608   5.422   7.111  0.1158  0.2477  0.3862
  476MOL0     C62745   7.801   5.110   5.972  0.3034  0.4223 -1.0424
  476MOL0     C62746   7.887   5.123   5.862  0.6384 -0.3217 -0.1261
  476MOL0     O62747   7.812   5.371   5.587  0.0340  0.6129  0.5904
  476MOL0     C62748   8.074   5.228   5.414  0.0785 -0.6054 -1.0939
  476MOL0     C62749   8.132   5.207   5.287  0.3085  0.2935  0.2288
  476MOL0     N62750   8.477   5.579   4.788  0.4317  0.5120 -0.2155
  476MOL0     N62751   8.465   5.698   4.828  0.3546 -0.4644 -0.3721
  476MOL0     C62752   7.574   6.049   4.214  0.9709 -0.1020 -0.1767
  476MOL0     C62753   7.486   5.989   4.118  0.3369  0.1297  0.9378
  476MOL0     C62754   7.355   5.920   3.731 -0.4311  0.0606 -0.2473
  476MOL0     C62755   7.303   5.790   3.722 -0.1813  0.2749 -0.1077
  476MOL0     C62756   7.211   5.768   3.614  0.4707  0.4135 -0.4312
  476MOL0     C62757   7.167   5.868   3.529 -0.2944 -0.4026  0.6668
  476MOL0     O62758   7.110   5.835   3.410 -0.0466  0.4669 -0.2165
  476MOL0     C62759   6.987   5.751   3.409 -0.7051 -0.1809  0.1424
  476MOL0     C62760   6.888   5.793   3.295 -0.2891 -0.3666 -0.3887
  476MOL0     C62761   6.826   5.929   3.323  0.1683  0.7019 -0.0174
  476MOL0     C62762   6.701   5.950   3.223 -0.3027 -0.0023 -0.9257
  476MOL0     C62763   6.675   6.095   3.229  0.5106 -0.8710 -0.1767
  476MOL0     C62764   6.656   6.219   3.221 -0.0613  1.3821 -0.4978
  476MOL0     C62765   7.209   5.995   3.559  0.4425  0.5624 -0.4992
  476MOL0     C62766   7.293   6.029   3.670  0.1686 -0.6223  0.6365
  476MOL0     H62767   7.670   5.724   4.036  2.6126 -0.1441  0.4747
  476MOL0     H62768   7.816   5.793   4.213 -1.8289 -3.5264 -4.5130
  476MOL0     H62769   7.739   6.229   4.395  0.1217  1.3681 -1.7246
  476MOL0     H62770   7.827   6.197   4.242  0.0691  1.5026  0.4573
  476MOL0     H62771   7.933   6.126   4.533  2.1362  0.4818  0.0021
  476MOL0     H62772   7.988   6.259   4.438  0.6628  0.7484  1.2861
  476MOL0     H62773   8.056   6.113   4.263  0.9428 -1.1932  0.2481
  476MOL0     H62774   8.012   5.965   4.346  1.4829 -1.5208  1.6486
  476MOL0     H62775   8.237   5.960   4.379 -0.3334 -1.0025  0.9404
  476MOL0     H62776   8.239   6.145   4.392 -1.0394  0.2080  0.2680
  476MOL0     H62777   8.111   5.995   4.611  1.2027 -1.1103  1.2930
  476MOL0     H62778   8.173   6.156   4.620 -2.6907 -1.0782  0.3114
  476MOL0     H62779   8.414   6.072   4.562 -1.6286  3.4399  1.8195
  476MOL0     H62780   8.336   5.901   4.564 -1.9943 -0.8716  1.2790
  476MOL0     H62781   8.476   5.999   4.768 -0.0058 -0.0492  0.0649
  476MOL0     H62782   8.332   6.092   4.808 -1.5630 -1.6961  3.7385
  476MOL0     H62783   8.192   5.887   4.792 -0.9123 -0.8960  2.2077
  476MOL0     H62784   8.301   5.895   4.934 -0.9110 -0.3407 -0.0394
  476MOL0     H62785   8.178   5.679   4.678  0.3202  0.3798  0.8266
  476MOL0     H62786   8.407   5.354   4.667  2.7856  5.1841 -0.3579
  476MOL0     H62787   8.311   5.433   4.546 -1.9360  1.2704  0.4133
  476MOL0     H62788   8.163   5.271   4.644 -1.5999  0.2652  0.7401
  476MOL0     H62789   8.105   5.420   4.704  0.3431  1.0999  0.5385
  476MOL0     H62790   8.249   5.184   4.834  2.3478  1.3571 -0.1334
  476MOL0     H62791   8.301   5.336   4.894  1.8051 -1.0120  0.3844
  476MOL0     H62792   8.021   5.235   4.912  0.5401 -1.1236  1.1219
  476MOL0     H62793   8.073   5.403   4.956  0.3877 -0.6527  0.7377
  476MOL0     H62794   7.905   5.369   5.108 -3.0972 -1.5189  1.2805
  476MOL0     H62795   7.798   5.417   5.349  1.1829  1.8190 -2.9637
  476MOL0     H62796   7.905   5.456   5.846 -0.0887 -0.2867  0.6697
  476MOL0     H62797   7.764   5.449   6.005  0.4503  0.0172  0.0032
  476MOL0     H62798   7.607   5.399   6.186  0.7709  0.3004 -0.1435
  476MOL0     H62799   7.737   5.340   6.285  0.5710  0.5664 -1.3170
  476MOL0     H62800   7.569   5.164   6.367 -0.4248 -0.0075 -0.0294
  476MOL0     H62801   7.436   5.258   6.304 -1.3457 -1.1430  4.7624
  476MOL0     H62802   7.503   5.445   6.430  2.3152  0.8746 -2.9929
  476MOL0     H62803   7.652   5.389   6.479  0.5785  1.1989 -2.8690
  476MOL0     H62804   7.413   5.232   6.586 -0.4831  1.4968 -0.6222
  476MOL0     H62805   7.588   5.238   6.629  0.1178  0.5531  2.0854
  476MOL0     H62806   7.388   5.452   6.675 -0.6903  0.9381  3.1531
  476MOL0     H62807   7.572   5.459   6.716  0.5812 -1.3827  1.4953
  476MOL0     H62808   7.564   5.308   6.876  0.3609 -0.1045  0.1651
  476MOL0     H62809   7.398   5.259   6.832 -0.6181 -0.3072 -0.1603
  476MOL0     H62810   7.470   5.551   6.916  0.1677  0.6693  0.3886
  476MOL0     H62811   7.307   5.482   6.912  0.1835  0.9023  0.4524
  476MOL0     H62812   7.416   5.293   7.073 -2.4401  0.4688  0.0096
  476MOL0     H62813   7.361   5.439   7.153 -2.1665 -3.3497  0.8504
  476MOL0     H62814   7.772   5.009   6.002  1.5961  0.3408  0.0371
  476MOL0     H62815   7.929   5.034   5.816 -1.0096 -1.6668  0.9111
  476MOL0     H62816   8.127   5.180   5.495  0.2776  0.9054 -0.2918
  476MOL0     H62817   8.225   5.153   5.269  0.6428  1.5086 -2.0432
  476MOL0     H62818   7.535   6.137   4.264 -0.1602 -0.6187 -0.1295
  476MOL0     H62819   7.402   6.047   4.079  0.0789 -1.0589 -0.3682
  476MOL0     H62820   7.337   5.701   3.774 -0.0268  0.0643 -0.5643
  476MOL0     H62821   7.170   5.669   3.597 -1.0753  0.9905 -0.2206
  476MOL0     H62822   6.941   5.747   3.508  1.5726  2.2678  1.4337
  476MOL0     H62823   7.015   5.651   3.376 -0.2030  0.6343 -2.0489
  476MOL0     H62824   6.924   5.777   3.193  2.3148  2.0596  0.0229
  476MOL0     H62825   6.799   5.729   3.295 -3.1202  3.1794 -1.5304
  476MOL0     H62826   6.898   6.010   3.309 -0.5003  0.9493 -2.5900
  476MOL0     H62827   6.791   5.927   3.426 -1.7305 -1.4670 -0.6134
  476MOL0     H62828   6.716   5.927   3.117  2.6936  0.6473 -0.7287
  476MOL0     H62829   6.626   5.886   3.271  1.3493  0.2811  2.3370
  476MOL0     H62830   6.667   6.325   3.231 -1.4848  1.5555 -0.5327
  476MOL0     H62831   7.173   6.075   3.495  2.0611  0.2146 -1.9231
  476MOL0     H62832   7.338   6.126   3.688  2.9997 -2.4605  5.6842
  477MOL0     O62833   2.327   7.884   2.904  0.0441 -1.0014 -0.7034
  477MOL0     C62834   2.317   7.996   2.951  0.1615  0.0402  0.8268
  477MOL0     O62835   2.348   8.037   3.081  0.1711  0.0811  0.3155
  477MOL0     C62836   2.322   7.956   3.189 -0.3755  0.0376 -0.3387
  477MOL0     C62837   2.416   7.956   3.298  0.2550 -0.1526 -0.4734
  477MOL0     C62838   2.391   7.878   3.413 -0.4489  0.4169 -0.3156
  477MOL0     C62839   2.284   7.784   3.414  0.1992  0.0348  0.0204
  477MOL0     O62840   2.253   7.706   3.522  0.7478  0.7757 -0.1032
  477MOL0     C62841   2.356   7.665   3.616 -0.3077  0.9766 -0.0696
  477MOL0     C62842   2.382   7.766   3.722  0.1501  0.2369  0.1484
  477MOL0     C62843   2.303   7.731   3.854  1.1649 -0.1062  0.5452
  477MOL0     C62844   2.356   7.825   3.971 -0.3601  0.5306  0.8464
  477MOL0     C62845   2.284   7.786   4.101  0.0280  0.5633  0.8951
  477MOL0     C62846   2.337   7.863   4.211  0.4810 -0.4316  0.1789
  477MOL0     C62847   2.280   7.818   4.343  0.0645  0.0367  0.2147
  477MOL0     C62848   2.328   7.909   4.451 -0.3021  0.8962  0.4838
  477MOL0     N62849   2.291   7.849   4.586  0.5095 -0.0632 -0.6970
  477MOL0     C62850   2.366   7.769   4.666  0.3427 -0.0815 -0.1314
  477MOL0     C62851   2.286   7.753   4.764  0.5973 -0.5126 -1.1245
  477MOL0     C62852   2.330   7.660   4.880 -0.1449 -0.2347  0.4298
  477MOL0     C62853   2.410   7.728   4.994 -0.7621  0.7457 -0.7852
  477MOL0     C62854   2.315   7.770   5.110  0.6276  0.3003  0.9689
  477MOL0     C62855   2.266   7.911   5.090 -0.7227  0.2541  0.2471
  477MOL0     O62856   2.186   7.958   5.210 -0.7688 -0.5813  0.5954
  477MOL0     C62857   2.051   7.965   5.216  0.2789  0.3143 -0.3209
  477MOL0     C62858   1.961   7.913   5.124  0.4411 -0.3643 -0.0988
  477MOL0     C62859   1.825   7.923   5.137 -0.4419  0.3126  0.0825
  477MOL0     C62860   1.772   7.983   5.255 -0.5415 -0.2246 -0.6501
  477MOL0     C62861   1.626   7.972   5.291  0.0814 -0.5777  0.5562
  477MOL0     O62862   1.580   8.045   5.398 -0.2847 -0.2059 -0.2560
  477MOL0     C62863   1.449   8.062   5.421  0.4601 -0.9475  0.1540
  477MOL0     C62864   1.402   8.060   5.558 -1.0886  0.7620  0.3136
  477MOL0     C62865   1.270   8.088   5.588  0.5474  0.2643  0.4904
  477MOL0     C62866   1.184   8.130   5.479  0.1051  0.2028 -1.5250
  477MOL0     O62867   1.049   8.152   5.494 -0.0636  0.2296  0.2914
  477MOL0     C62868   0.987   8.124   5.616  0.4410  0.2042 -0.2271
  477MOL0     C62869   0.826   8.150   5.603 -0.0980  0.2884  0.6517
  477MOL0     C62870   0.788   8.279   5.530 -0.6883 -0.3326 -0.4086
  477MOL0     C62871   0.642   8.319   5.557  0.1618 -1.1622  0.1984
  477MOL0     C62872   0.612   8.466   5.520 -1.0015 -0.8132  0.1051
  477MOL0     C62873   0.593   8.479   5.365 -0.5141 -0.0661  0.0662
  477MOL0     C62874   0.474   8.391   5.317 -0.2885 -0.1196 -0.7463
  477MOL0     C62875   0.409   8.442   5.195 -0.7815  1.0325  0.0031
  477MOL0    Cl62876   0.517   8.491   5.068 -0.0779  0.4432  0.2290
  477MOL0     C62877   1.234   8.132   5.352 -0.4320  0.1770  0.4864
  477MOL0     C62878   1.370   8.113   5.324 -0.2871  0.2777  0.3292
  477MOL0     O62879   1.553   7.911   5.204  0.8479  0.2231 -0.4171
  477MOL0     C62880   1.860   8.060   5.331  0.4122 -0.1184 -0.5105
  477MOL0     C62881   1.997   8.045   5.320  0.4620 -0.2417  0.3763
  477MOL0     N62882   2.165   7.813   4.756 -0.3163 -1.2914 -0.4364
  477MOL0     N62883   2.169   7.880   4.649  0.1681 -0.4030 -0.4165
  477MOL0     C62884   2.196   7.785   3.306  0.2439  0.1403 -0.1530
  477MOL0     C62885   2.207   7.870   3.198 -0.4908  0.6922  0.8186
  477MOL0     C62886   2.278   8.103   2.851  0.8210  0.5463  0.4625
  477MOL0     C62887   2.267   8.241   2.885 -0.3527 -0.8803  0.2097
  477MOL0     C62888   2.215   8.324   2.782  0.1905 -0.3755 -0.0497
  477MOL0     C62889   2.156   8.278   2.658 -0.9157 -0.1416 -0.2306
  477MOL0     O62890   2.104   8.373   2.570 -1.2938 -0.2947 -0.2672
  477MOL0     C62891   2.081   8.337   2.438  0.5286 -0.3060  0.1360
  477MOL0     C62892   2.075   8.462   2.349  0.4215  0.3537  0.0992
  477MOL0     C62893   2.194   8.556   2.365  0.0951  0.7775 -0.0331
  477MOL0     C62894   2.321   8.504   2.305 -0.3610 -0.1272  0.0922
  477MOL0     C62895   2.433   8.594   2.344 -0.7539  1.1496  0.1424
  477MOL0     C62896   2.527   8.676   2.370  0.4952 -0.4566  0.1360
  477MOL0     C62897   2.169   8.146   2.631  0.4619 -0.2540 -0.4372
  477MOL0     C62898   2.236   8.061   2.723 -0.1363 -0.0401  0.4194
  477MOL0     H62899   2.502   8.020   3.307 -0.4489  0.8079 -0.4092
  477MOL0     H62900   2.454   7.897   3.499 -0.3624 -2.5395  0.3876
  477MOL0     H62901   2.447   7.626   3.569 -0.7450 -0.0826 -0.0770
  477MOL0     H62902   2.305   7.584   3.670  0.8087  0.0227 -0.4022
  477MOL0     H62903   2.354   7.864   3.682 -2.0063  0.1836  1.3943
  477MOL0     H62904   2.490   7.781   3.736  0.4661  1.3636 -2.6978
  477MOL0     H62905   2.320   7.630   3.892 -1.9275 -1.5535 -1.5110
  477MOL0     H62906   2.197   7.747   3.835  1.4095 -0.8667 -1.8563
  477MOL0     H62907   2.464   7.815   3.986 -0.4577 -3.3411  0.1795
  477MOL0     H62908   2.347   7.929   3.939  3.4863  0.8518  0.2964
  477MOL0     H62909   2.323   7.685   4.119  1.1567  0.5404 -1.3218
  477MOL0     H62910   2.178   7.796   4.077 -0.1580 -1.3223  0.7287
  477MOL0     H62911   2.308   7.969   4.208  1.3898 -0.1003  1.6631
  477MOL0     H62912   2.446   7.862   4.218  0.4655 -0.0470  0.5249
  477MOL0     H62913   2.171   7.809   4.356  0.3643 -3.0634  1.2496
  477MOL0     H62914   2.329   7.722   4.361  1.5637  0.6312 -0.5108
  477MOL0     H62915   2.284   8.009   4.455  2.0939  1.9782  1.9590
  477MOL0     H62916   2.435   7.923   4.438 -0.3620  1.6496  0.7144
  477MOL0     H62917   2.469   7.740   4.647  1.0655  1.6894  0.7714
  477MOL0     H62918   2.388   7.573   4.847 -1.3004 -0.5616 -0.8414
  477MOL0     H62919   2.237   7.613   4.914  0.0100 -1.3973 -0.6963
  477MOL0     H62920   2.473   7.810   4.960  0.9521 -1.5724 -3.6823
  477MOL0     H62921   2.477   7.650   5.030  1.3291  3.0876  0.7032
  477MOL0     H62922   2.238   7.694   5.126 -0.0159  1.0760  1.6372
  477MOL0     H62923   2.374   7.775   5.202  4.3528  0.9238 -1.2430
  477MOL0     H62924   2.212   7.935   4.998 -1.3832 -0.8652  0.3274
  477MOL0     H62925   2.350   7.982   5.093  1.5407 -2.1551 -1.5692
  477MOL0     H62926   1.988   7.862   5.032 -0.7597 -3.2000  0.9879
  477MOL0     H62927   1.766   7.887   5.053 -1.3645  0.0764  0.8103
  477MOL0     H62928   1.463   8.036   5.644 -1.0114  0.6099  0.2163
  477MOL0     H62929   1.234   8.083   5.690  3.3157 -0.3509  1.5455
  477MOL0     H62930   1.023   8.193   5.693 -2.2425  4.0075 -2.0812
  477MOL0     H62931   1.009   8.019   5.640 -0.0245  0.1436 -0.0487
  477MOL0     H62932   0.791   8.146   5.706  1.4678 -2.3604  1.1806
  477MOL0     H62933   0.785   8.062   5.551  2.8457 -1.9257  1.7960
  477MOL0     H62934   0.776   8.249   5.425  1.5623 -2.4466 -0.1411
  477MOL0     H62935   0.856   8.363   5.543  0.6996 -1.5994  0.9271
  477MOL0     H62936   0.567   8.259   5.506 -1.1461  1.8189 -1.7010
  477MOL0     H62937   0.625   8.316   5.665  0.3386  2.8390  0.5053
  477MOL0     H62938   0.699   8.522   5.554  0.3686 -2.9066  0.2160
  477MOL0     H62939   0.519   8.492   5.573  0.1554 -1.2035  2.4455
  477MOL0     H62940   0.682   8.457   5.305 -1.5530  1.9222 -2.4043
  477MOL0     H62941   0.582   8.587   5.348  1.5562 -0.0055 -1.2198
  477MOL0     H62942   0.514   8.292   5.293  0.7411  0.0459  0.1751
  477MOL0     H62943   0.401   8.386   5.399  0.6654  2.8686  0.4248
  477MOL0     H62944   0.328   8.507   5.229 -0.1801  1.0206  1.5845
  477MOL0     H62945   0.364   8.355   5.147 -1.1123  0.8153  0.6916
  477MOL0     H62946   1.167   8.159   5.271  0.8179 -1.6604 -1.2632
  477MOL0     H62947   1.404   8.122   5.221 -1.6513  0.2880 -0.1510
  477MOL0     H62948   1.813   8.121   5.408  1.1395 -1.1485  0.7871
  477MOL0     H62949   2.064   8.096   5.388  0.0378  0.7165  0.0958
  477MOL0     H62950   2.113   7.715   3.302 -0.3111  0.8112 -4.1205
  477MOL0     H62951   2.144   7.863   3.111  1.1235  0.8185 -0.4114
  477MOL0     H62952   2.288   8.281   2.984 -0.1247  2.0038 -0.9232
  477MOL0     H62953   2.201   8.429   2.803 -2.6369 -0.6308 -0.2707
  477MOL0     H62954   1.986   8.284   2.432 -0.6980  0.9389  4.7507
  477MOL0     H62955   2.157   8.269   2.398 -0.6763  1.1494 -5.5269
  477MOL0     H62956   2.082   8.434   2.243 -0.5084 -4.4378  1.0722
  477MOL0     H62957   1.982   8.516   2.370  1.4362  1.8434  0.8700
  477MOL0     H62958   2.198   8.590   2.469  1.8200  1.0794 -0.1602
  477MOL0     H62959   2.171   8.649   2.312 -0.8813 -0.9741 -2.9105
  477MOL0     H62960   2.331   8.420   2.374  1.5215  1.1711  1.4757
  477MOL0     H62961   2.318   8.472   2.200 -0.5100 -1.2359  0.4242
  477MOL0     H62962   2.600   8.754   2.381 -0.0675  0.2977 -1.2817
  477MOL0     H62963   2.139   8.093   2.541 -0.0010 -1.8900  0.6228
  477MOL0     H62964   2.246   7.958   2.692 -2.7779  0.3091 -2.0757
  478MOL0     O62965   9.480   8.026   0.995  0.1702 -0.5028 -0.6284
  478MOL0     C62966   9.592   8.076   1.013  0.1770  0.0612  0.1243
  478MOL0     O62967   9.660   8.152   0.925 -0.1944 -0.2345 -0.3350
  478MOL0     C62968   9.582   8.210   0.823 -0.9439  0.5661  0.0870
  478MOL0     C62969   9.598   8.150   0.691  0.1995 -0.3471  0.3207
  478MOL0     C62970   9.539   8.214   0.581 -0.5819  0.1134 -0.1497
  478MOL0     C62971   9.441   8.315   0.596  0.3657  0.8222 -0.2722
  478MOL0     O62972   9.376   8.367   0.492 -0.3478  0.2312  0.2484
  478MOL0     C62973   9.271   8.281   0.431  0.7377  0.3703  0.2345
  478MOL0     C62974   9.134   8.314   0.485 -0.1909 -0.0398 -0.5577
  478MOL0     C62975   9.015   8.277   0.393  0.4417  0.3035 -0.2232
  478MOL0     C62976   9.002   8.366   0.265 -0.4121  0.3202  0.3883
  478MOL0     C62977   8.928   8.295   0.161  1.2783  0.1984  0.1713
  478MOL0     C62978   8.865   8.392   0.060  0.0251  0.5866 -1.2342
  478MOL0     C62979   8.789   8.318  -0.059 -0.8731  0.4369  0.4439
  478MOL0     C62980   8.658   8.239  -0.017  0.0322 -1.2593  1.0017
  478MOL0     N62981   8.566   8.317   0.048  0.3706 -0.3038 -0.1573
  478MOL0     C62982   8.507   8.297   0.168  0.4105  0.2870  0.6151
  478MOL0     C62983   8.414   8.394   0.187 -0.3514 -0.4412 -1.7617
  478MOL0     C62984   8.331   8.413   0.304 -0.3072 -0.3041 -0.9439
  478MOL0     C62985   8.202   8.314   0.306  0.0584 -0.2281  0.8754
  478MOL0     C62986   8.252   8.176   0.349 -0.0181 -0.1489  0.2765
  478MOL0     C62987   8.131   8.078   0.358 -0.5710  0.1066  0.1269
  478MOL0     O62988   8.051   8.083   0.241 -0.3845 -0.4256 -0.7059
  478MOL0     C62989   7.935   8.157   0.228  0.6103 -0.0049  0.1571
  478MOL0     C62990   7.837   8.177   0.332 -0.0317  0.6282 -0.2311
  478MOL0     C62991   7.735   8.271   0.330  0.0464  0.6416  0.7312
  478MOL0     C62992   7.721   8.352   0.209  0.1922  0.6699 -0.4329
  478MOL0     C62993   7.601   8.453   0.206 -0.8360  0.7489  0.7751
  478MOL0     O62994   7.592   8.538   0.310 -1.4113  0.1610  0.3871
  478MOL0     C62995   7.506   8.645   0.305  0.6616  0.0275 -0.3160
  478MOL0     C62996   7.367   8.639   0.261  0.5583 -0.6267  0.1064
  478MOL0     C62997   7.294   8.760   0.248  0.5075 -0.8573  0.5921
  478MOL0     C62998   7.348   8.882   0.310  0.7829 -0.6996  0.6592
  478MOL0     O62999   7.274   8.999   0.298 -0.1999  0.0649  0.3283
  478MOL0     C63000   7.148   9.008   0.240 -0.0535  0.1375  0.5537
  478MOL0     C63001   7.106   9.154   0.231 -0.6548 -0.2310  0.5198
  478MOL0     C63002   6.949   9.136   0.215  0.3642 -0.6450 -0.6879
  478MOL0     C63003   6.887   9.274   0.221  0.3147  0.7128 -0.2628
  478MOL0     C63004   6.727   9.271   0.200 -0.8844  0.0326 -0.1058
  478MOL0     C63005   6.675   9.416   0.202 -0.4588 -0.1280 -0.5774
  478MOL0     C63006   6.736   9.500   0.084 -0.4117 -0.0827  0.7352
  478MOL0     C63007   6.667   9.635   0.074  0.1160 -0.1308 -0.1200
  478MOL0    Cl63008   6.510   9.601   0.011 -0.7028  0.5379  0.3158
  478MOL0     C63009   7.476   8.883   0.349 -0.0056 -0.1981 -1.1429
  478MOL0     C63010   7.550   8.763   0.351 -0.1125 -0.9449  0.0433
  478MOL0     O63011   7.532   8.460   0.106 -0.0410  0.0401 -0.6891
  478MOL0     C63012   7.802   8.318   0.100  0.0589  0.0416  0.1154
  478MOL0     C63013   7.915   8.228   0.116  0.3474 -0.2646  0.3720
  478MOL0     N63014   8.409   8.477   0.073  0.4202  0.5688  0.3102
  478MOL0     N63015   8.502   8.431  -0.007  0.1889 -0.3869  0.0774
  478MOL0     C63016   9.426   8.363   0.726  0.7383 -0.4510  0.1485
  478MOL0     C63017   9.498   8.314   0.836  0.0666  0.8248 -0.1426
  478MOL0     C63018   9.662   8.012   1.125  0.2839 -0.5845 -0.6523
  478MOL0     C63019   9.621   7.917   1.222 -0.3186  0.0833  0.7283
  478MOL0     C63020   9.712   7.874   1.326 -0.8609  0.4256  0.5597
  478MOL0     C63021   9.846   7.925   1.335 -0.3740 -0.3329  0.4641
  478MOL0     O63022   9.937   7.906   1.434  0.3166 -0.0900 -0.0221
  478MOL0     C63023   9.893   7.824   1.540  0.7181 -0.0828 -0.3825
  478MOL0     C63024   9.996   7.814   1.655  0.0171 -0.4812 -0.5271
  478MOL0     C63025  10.136   7.758   1.619  0.0129 -0.1632 -0.2458
  478MOL0     C63026  10.122   7.611   1.564  0.2038 -0.0397  0.1219
  478MOL0     C63027  10.081   7.515   1.669  0.6926  0.8800 -0.9655
  478MOL0     C63028  10.044   7.445   1.758 -0.0683  1.0606 -0.0685
  478MOL0     C63029   9.883   8.018   1.243  1.1163 -0.0371 -0.0663
  478MOL0     C63030   9.793   8.057   1.146 -0.1268  0.0088  0.2324
  478MOL0     H63031   9.662   8.065   0.672  0.2330 -0.0829 -0.8010
  478MOL0     H63032   9.552   8.182   0.478  0.3593 -2.4207  0.6636
  478MOL0     H63033   9.276   8.176   0.462 -5.3219 -1.8998 -4.4276
  478MOL0     H63034   9.264   8.285   0.322 -0.2954  0.2195  0.2856
  478MOL0     H63035   9.114   8.421   0.494 -2.2000 -0.3618 -0.7890
  478MOL0     H63036   9.134   8.274   0.587  0.3452 -1.8164 -1.2152
  478MOL0     H63037   8.921   8.285   0.449 -0.9969 -0.6551 -2.3493
  478MOL0     H63038   9.023   8.170   0.373  1.1744  0.4371 -0.6860
  478MOL0     H63039   8.950   8.457   0.298 -3.1092 -1.8839  2.7403
  478MOL0     H63040   9.100   8.388   0.222  0.9402 -0.6829  2.7666
  478MOL0     H63041   8.860   8.219   0.200 -0.0687  1.8894  1.2649
  478MOL0     H63042   9.004   8.235   0.111  0.6252 -1.4156  1.0582
  478MOL0     H63043   8.938   8.456   0.011  1.1207  1.8839  1.8429
  478MOL0     H63044   8.799   8.452   0.123 -0.3594 -3.3281  2.5668
  478MOL0     H63045   8.775   8.394  -0.136  1.5383 -0.7907 -1.3646
  478MOL0     H63046   8.864   8.248  -0.097 -0.2123  1.4367 -0.1168
  478MOL0     H63047   8.689   8.156   0.047 -0.1530 -3.0552 -1.0897
  478MOL0     H63048   8.609   8.200  -0.107  1.9780 -1.2748 -0.1055
  478MOL0     H63049   8.526   8.224   0.247 -1.3684 -0.5986  0.2771
  478MOL0     H63050   8.295   8.517   0.301  0.7741  0.1856  0.9718
  478MOL0     H63051   8.393   8.411   0.394 -0.3376 -1.1375 -0.9409
  478MOL0     H63052   8.168   8.311   0.202  1.7912 -0.9030  0.2942
  478MOL0     H63053   8.123   8.349   0.374 -1.0553  1.1158 -1.0114
  478MOL0     H63054   8.326   8.135   0.281  1.6631  1.5914  0.9472
  478MOL0     H63055   8.292   8.174   0.451 -0.4201 -0.0315  0.4394
  478MOL0     H63056   8.070   8.098   0.447 -1.9436  1.9239 -1.1239
  478MOL0     H63057   8.166   7.976   0.373 -1.3779 -0.1784  0.1248
  478MOL0     H63058   7.859   8.137   0.430 -0.0628 -0.5199 -0.6744
  478MOL0     H63059   7.669   8.289   0.414  1.1429  3.1207  1.1653
  478MOL0     H63060   7.326   8.550   0.214 -2.0520  1.4339 -1.8484
  478MOL0     H63061   7.193   8.749   0.210  0.1274 -0.5984  1.4834
  478MOL0     H63062   7.078   8.934   0.281 -0.7587  0.2689 -0.3610
  478MOL0     H63063   7.156   8.984   0.133 -0.1634  0.1341  0.5463
  478MOL0     H63064   7.152   9.187   0.137 -1.4629  1.7416  0.7679
  478MOL0     H63065   7.148   9.216   0.310  0.6697 -0.3964 -0.0354
  478MOL0     H63066   6.892   9.084   0.293 -2.3517  2.1615 -0.6222
  478MOL0     H63067   6.931   9.077   0.125  0.9232 -0.4893 -0.9039
  478MOL0     H63068   6.907   9.315   0.320 -2.0647 -0.6758  0.8713
  478MOL0     H63069   6.923   9.337   0.140  0.3316  0.1957 -0.6680
  478MOL0     H63070   6.687   9.217   0.287  0.5233  0.8388  1.0833
  478MOL0     H63071   6.699   9.235   0.101 -1.1841  0.5067 -0.1974
  478MOL0     H63072   6.722   9.455   0.293  0.8256 -0.5107 -1.0569
  478MOL0     H63073   6.566   9.417   0.208 -0.6265 -4.6491  2.2287
  478MOL0     H63074   6.839   9.520   0.115 -0.3251  1.4219 -0.3953
  478MOL0     H63075   6.733   9.452  -0.015  1.1362 -2.7712  1.8881
  478MOL0     H63076   6.709   9.698  -0.006 -3.1891 -1.1729 -2.9445
  478MOL0     H63077   6.666   9.691   0.168  1.0271 -1.1374  0.5125
  478MOL0     H63078   7.515   8.972   0.399 -2.8536 -0.7938  2.5941
  478MOL0     H63079   7.643   8.761   0.406  0.1145  0.7386 -0.2159
  478MOL0     H63080   7.789   8.369   0.005 -4.0480  0.0870  0.5224
  478MOL0     H63081   7.986   8.217   0.034  0.7586  0.5713  0.6083
  478MOL0     H63082   9.357   8.443   0.751  0.9857 -0.0576 -0.4150
  478MOL0     H63083   9.501   8.355   0.936 -0.1553  1.5811 -0.4387
  478MOL0     H63084   9.523   7.871   1.219 -0.0045 -0.6838  1.7735
  478MOL0     H63085   9.664   7.791   1.378 -1.2018 -0.5782 -1.2605
  478MOL0     H63086   9.889   7.727   1.491 -2.3124  1.0367 -2.6355
  478MOL0     H63087   9.795   7.845   1.582  0.9724 -0.1922  0.2830
  478MOL0     H63088  10.003   7.920   1.681 -0.4854 -0.7881  0.9235
  478MOL0     H63089   9.964   7.759   1.744  0.6365 -0.6777 -0.4144
  478MOL0     H63090  10.202   7.752   1.706 -0.3224  1.2434  0.1193
  478MOL0     H63091  10.178   7.831   1.549  2.2076 -1.4367 -0.3854
  478MOL0     H63092  10.064   7.602   1.472  3.1841  3.8699 -2.4504
  478MOL0     H63093  10.225   7.588   1.537  1.4354  2.6425  2.0881
  478MOL0     H63094  10.043   7.365   1.829  0.9033  0.8198 -0.3067
  478MOL0     H63095   9.980   8.067   1.240  2.0266 -1.6935  1.0449
  478MOL0     H63096   9.817   8.146   1.089  0.5483 -0.4038 -0.1321
  479MOL0     O63097   2.973   6.248   1.774  0.0902  0.4173  0.1290
  479MOL0     C63098   2.894   6.189   1.838 -0.8873  0.5752 -0.5046
  479MOL0     O63099   2.793   6.099   1.793  0.0374 -0.6946  0.4241
  479MOL0     C63100   2.715   6.132   1.680  0.7571 -0.2175  0.7231
  479MOL0     C63101   2.655   6.023   1.610  0.2340 -1.3518 -1.3212
  479MOL0     C63102   2.576   6.048   1.496 -0.0149 -0.6031 -0.3354
  479MOL0     C63103   2.568   6.182   1.446 -0.1176 -0.0398  0.0426
  479MOL0     O63104   2.485   6.219   1.338 -0.0921 -0.4242  0.4015
  479MOL0     C63105   2.388   6.125   1.302 -0.7470 -0.1131  0.1171
  479MOL0     C63106   2.290   6.198   1.215 -1.3156  0.3987  0.9634
  479MOL0     C63107   2.333   6.213   1.070  0.3026 -0.6150 -0.3268
  479MOL0     C63108   2.269   6.336   1.001  0.0461  0.7775  0.1786
  479MOL0     C63109   2.122   6.366   1.033 -0.4915 -1.0096 -0.3930
  479MOL0     C63110   2.020   6.250   1.009 -0.0025 -0.1313  0.4108
  479MOL0     C63111   2.001   6.245   0.851  0.8117  0.8858 -0.3207
  479MOL0     C63112   1.914   6.130   0.813 -0.0201 -0.0561  0.4919
  479MOL0     N63113   1.884   6.132   0.671 -0.4988 -0.3449 -0.4107
  479MOL0     C63114   1.762   6.140   0.614 -1.7648 -0.6641 -0.6630
  479MOL0     C63115   1.781   6.161   0.483  0.5573 -0.3988  0.0983
  479MOL0     C63116   1.671   6.164   0.381  0.1285  0.2340 -1.0459
  479MOL0     C63117   1.590   6.024   0.387  0.2841 -1.0512 -0.2451
  479MOL0     C63118   1.679   5.906   0.381 -0.1087 -0.2765 -1.1138
  479MOL0     C63119   1.753   5.894   0.251 -0.2039  0.0837  0.4333
  479MOL0     O63120   1.810   5.763   0.248  0.3210  1.0864 -0.2786
  479MOL0     C63121   1.913   5.723   0.340  0.2155 -0.8665  1.0304
  479MOL0     C63122   1.935   5.585   0.364  0.4743  0.4233  0.9546
  479MOL0     C63123   2.031   5.547   0.451 -0.9144 -0.5869 -0.4831
  479MOL0     C63124   2.116   5.636   0.518 -0.5786  0.0294  0.9896
  479MOL0     C63125   2.209   5.580   0.617 -0.3092  0.9144  0.1422
  479MOL0     O63126   2.205   5.453   0.660  0.0443  0.2351 -0.1349
  479MOL0     C63127   2.281   5.424   0.767 -0.1513  0.3714 -0.6580
  479MOL0     C63128   2.409   5.360   0.743  0.8083 -0.1036 -0.0233
  479MOL0     C63129   2.492   5.323   0.854  0.1620  0.5806 -0.0546
  479MOL0     C63130   2.464   5.353   0.983  0.0607 -0.3043  0.0222
  479MOL0     O63131   2.563   5.319   1.076  0.0466  0.7620 -0.4038
  479MOL0     C63132   2.533   5.296   1.221  0.1882 -1.1502  0.0597
  479MOL0     C63133   2.646   5.234   1.299 -0.4465 -0.5196 -0.1649
  479MOL0     C63134   2.640   5.284   1.443 -0.3351  0.7880  0.2562
  479MOL0     C63135   2.739   5.192   1.520 -0.0641 -0.5591  0.2002
  479MOL0     C63136   2.768   5.233   1.665  1.0132 -0.4649 -0.1144
  479MOL0     C63137   2.661   5.194   1.772  0.2998  0.8907 -0.0293
  479MOL0     C63138   2.691   5.241   1.919  0.1061  0.4559  0.0656
  479MOL0     C63139   2.572   5.241   2.020  1.0890  0.3132 -0.8075
  479MOL0    Cl63140   2.644   5.260   2.183  0.8877 -0.0920 -0.3492
  479MOL0     C63141   2.324   5.412   1.004  0.1522  0.4562  0.1683
  479MOL0     C63142   2.234   5.449   0.902 -0.1548 -0.0481  0.2067
  479MOL0     O63143   2.290   5.664   0.656  0.1149 -0.1681 -0.0345
  479MOL0     C63144   2.095   5.779   0.494 -0.8335 -0.7353  0.0350
  479MOL0     C63145   1.998   5.816   0.403  1.0366  0.7612 -0.8014
  479MOL0     N63146   1.917   6.160   0.472  0.8902  0.1712  0.4002
  479MOL0     N63147   1.982   6.137   0.571  0.0906  0.2190 -1.1127
  479MOL0     C63148   2.627   6.286   1.519 -0.3399  0.5241  0.2894
  479MOL0     C63149   2.699   6.259   1.636 -0.4489  1.1100  0.0938
  479MOL0     C63150   2.905   6.215   1.982  0.3568 -0.2210 -0.1572
  479MOL0     C63151   2.995   6.299   2.043  0.3813  0.2946 -0.2005
  479MOL0     C63152   3.005   6.320   2.178  0.1335  1.3675 -0.2290
  479MOL0     C63153   2.925   6.245   2.267 -0.0496 -0.0390  0.3328
  479MOL0     O63154   2.939   6.251   2.405  0.0945 -0.0933 -0.2385
  479MOL0     C63155   3.028   6.349   2.470 -0.2497 -0.0399 -0.0697
  479MOL0     C63156   2.990   6.371   2.615  0.3512  0.2890 -0.1939
  479MOL0     C63157   3.036   6.271   2.716  0.5946 -0.7607  0.4307
  479MOL0     C63158   3.001   6.316   2.864  0.5771  0.4811  0.7972
  479MOL0     C63159   2.861   6.307   2.881  0.1302  0.2451 -0.4090
  479MOL0     C63160   2.735   6.311   2.894  0.6379  0.5850 -0.6134
  479MOL0     C63161   2.837   6.151   2.206 -0.1182 -0.0157  0.3870
  479MOL0     C63162   2.820   6.148   2.072 -0.1996  0.2538  0.4702
  479MOL0     H63163   2.658   5.920   1.647  3.6396 -0.0024  3.0385
  479MOL0     H63164   2.532   5.956   1.458  1.3880 -0.8801 -1.3841
  479MOL0     H63165   2.327   6.093   1.387  0.9648  0.2304  1.5268
  479MOL0     H63166   2.438   6.046   1.245  2.8517  0.1680  2.5368
  479MOL0     H63167   2.257   6.292   1.262  0.9269  1.6779  0.1461
  479MOL0     H63168   2.192   6.150   1.211 -2.3539  2.4214  0.6385
  479MOL0     H63169   2.313   6.120   1.017 -2.2452 -1.0942  1.2862
  479MOL0     H63170   2.440   6.230   1.078  0.2136  0.0252 -0.4248
  479MOL0     H63171   2.323   6.425   1.036 -0.6029  1.2329  0.0300
  479MOL0     H63172   2.284   6.331   0.893 -0.5551  1.7452  0.0423
  479MOL0     H63173   2.087   6.453   0.976  1.2675  0.2082  0.3107
  479MOL0     H63174   2.103   6.398   1.136 -3.9548  0.8143 -1.4395
  479MOL0     H63175   1.929   6.287   1.057  1.2930  2.7605  0.8907
  479MOL0     H63176   2.041   6.145   1.033  0.3156 -0.5800 -1.6250
  479MOL0     H63177   1.941   6.333   0.826 -1.0735 -0.4922 -0.9140
  479MOL0     H63178   2.097   6.246   0.800  1.7854 -2.7265  1.1041
  479MOL0     H63179   1.822   6.135   0.872  0.4279 -0.1513  1.2040
  479MOL0     H63180   1.975   6.045   0.843 -3.4932 -3.3300 -0.9573
  479MOL0     H63181   1.661   6.131   0.653 -1.8954  1.3002 -0.4427
  479MOL0     H63182   1.714   6.170   0.281  1.2351 -0.1365 -0.5986
  479MOL0     H63183   1.618   6.259   0.397  1.1725  0.7914 -0.8481
  479MOL0     H63184   1.521   6.035   0.303  1.7657 -1.6031 -1.5731
  479MOL0     H63185   1.536   6.019   0.482  3.1713 -1.0785  1.5096
  479MOL0     H63186   1.748   5.914   0.466 -0.0811 -2.6196 -0.8491
  479MOL0     H63187   1.624   5.812   0.385  1.4430 -1.2870 -2.2886
  479MOL0     H63188   1.833   5.967   0.234  1.7111 -2.4343 -2.4949
  479MOL0     H63189   1.685   5.905   0.165 -0.6641  4.2268  1.1065
  479MOL0     H63190   1.869   5.510   0.321  0.2471  1.1964 -0.0944
  479MOL0     H63191   2.038   5.440   0.466  0.9386 -0.3612  0.6468
  479MOL0     H63192   2.443   5.331   0.644 -0.6169 -0.2982 -0.4748
  479MOL0     H63193   2.586   5.271   0.838  0.5828  1.2519  0.1714
  479MOL0     H63194   2.447   5.230   1.226 -0.0384 -0.9156 -0.6498
  479MOL0     H63195   2.515   5.397   1.259  1.6139 -0.7019 -0.3575
  479MOL0     H63196   2.738   5.277   1.258 -1.3646  0.4814 -1.2478
  479MOL0     H63197   2.650   5.125   1.292 -1.6608 -0.5991  0.0850
  479MOL0     H63198   2.540   5.260   1.480  0.1560 -1.3527  0.3671
  479MOL0     H63199   2.670   5.388   1.455  1.1477  0.3365  0.6891
  479MOL0     H63200   2.694   5.094   1.536  0.5249 -1.2156 -1.8284
  479MOL0     H63201   2.828   5.182   1.457 -2.7294 -2.0700 -3.7107
  479MOL0     H63202   2.796   5.338   1.680  2.8621 -1.0507  0.9506
  479MOL0     H63203   2.848   5.167   1.698 -0.2346 -1.1002  1.8270
  479MOL0     H63204   2.649   5.086   1.764  2.6522  0.5467  0.3776
  479MOL0     H63205   2.566   5.232   1.734 -0.8610 -2.8539 -1.2705
  479MOL0     H63206   2.767   5.172   1.956 -0.6265  0.8847  2.5118
  479MOL0     H63207   2.735   5.340   1.929  2.9491 -0.5584 -1.2533
  479MOL0     H63208   2.499   5.160   2.014 -0.8134  1.8116  0.6921
  479MOL0     H63209   2.509   5.328   1.996 -0.4607 -0.7062 -0.5619
  479MOL0     H63210   2.293   5.417   1.108  0.9351 -1.2580  0.5238
  479MOL0     H63211   2.139   5.497   0.921  0.1829  1.3798 -1.4958
  479MOL0     H63212   2.153   5.857   0.541  0.8534 -0.5345 -2.2081
  479MOL0     H63213   1.994   5.920   0.372 -2.0455  0.8906 -0.2939
  479MOL0     H63214   2.630   6.391   1.493  0.7435  0.2803 -0.6420
  479MOL0     H63215   2.757   6.344   1.672 -2.1823  2.3058  0.1519
  479MOL0     H63216   3.064   6.357   1.982  2.3489 -2.1303 -0.3934
  479MOL0     H63217   3.089   6.380   2.211  1.9326 -1.2634  0.2471
  479MOL0     H63218   3.024   6.439   2.408  0.9481  1.0351  1.3409
  479MOL0     H63219   3.125   6.299   2.467 -1.0844 -1.7443 -0.7589
  479MOL0     H63220   3.051   6.451   2.658 -0.1189 -0.3962  1.8966
  479MOL0     H63221   2.885   6.401   2.625  1.4969  4.1640  2.6799
  479MOL0     H63222   3.145   6.260   2.705  0.7778  1.3022 -0.1734
  479MOL0     H63223   2.987   6.174   2.701 -0.1783 -0.0271 -2.3193
  479MOL0     H63224   3.052   6.256   2.940 -1.5572 -1.0703  1.1008
  479MOL0     H63225   3.030   6.419   2.888 -0.2971  0.6023  1.3689
  479MOL0     H63226   2.629   6.300   2.901  0.8664 -0.5970  3.2375
  479MOL0     H63227   2.776   6.086   2.267  0.7834 -0.9100  0.3534
  479MOL0     H63228   2.753   6.071   2.035  0.9868  0.7708 -3.0844
  480MOL0     O63229  10.529   3.575   1.543 -0.5917  0.4158  0.1469
  480MOL0     C63230  10.439   3.496   1.552 -0.2669 -0.2205  0.2108
  480MOL0     O63231  10.319   3.514   1.617 -0.4537  0.0794 -0.6589
  480MOL0     C63232  10.314   3.595   1.730 -0.0878 -0.2789 -0.4672
  480MOL0     C63233  10.195   3.654   1.770  0.2150  0.6124  0.6647
  480MOL0     C63234  10.181   3.750   1.872 -0.5826 -0.1950 -0.5957
  480MOL0     C63235  10.296   3.799   1.935  0.3440 -0.3292 -0.2485
  480MOL0     O63236  10.289   3.896   2.027  0.1262  0.1861 -0.1005
  480MOL0     C63237  10.411   3.942   2.101 -0.1645  0.3371 -0.2536
  480MOL0     C63238  10.374   4.060   2.195 -0.8893  0.5815  0.0188
  480MOL0     C63239  10.494   4.116   2.255 -0.6453  0.4651 -0.2467
  480MOL0     C63240  10.467   4.246   2.320 -0.0720  0.6063  0.6251
  480MOL0     C63241  10.583   4.299   2.407 -0.7702 -0.0418 -1.1240
  480MOL0     C63242  10.610   4.445   2.376  0.1523 -1.0753  1.1971
  480MOL0     C63243  10.716   4.508   2.468 -0.4730 -0.0723  0.4327
  480MOL0     C63244  10.772   4.648   2.412  1.1334 -0.7823 -1.0692
  480MOL0     N63245  10.692   4.776   2.429 -0.0607  1.0194 -0.3049
  480MOL0     C63246  10.631   4.851   2.335  0.0879  0.3079  0.5367
  480MOL0     C63247  10.558   4.950   2.390  0.2201 -0.2883  0.0907
  480MOL0     C63248  10.461   5.043   2.327  0.5390 -0.4467  0.4231
  480MOL0     C63249  10.327   4.996   2.364  0.5080  1.8242 -0.3464
  480MOL0     C63250  10.213   5.096   2.337  0.5823 -0.0925 -0.0883
  480MOL0     C63251  10.217   5.228   2.415 -1.0630 -0.2632 -0.4700
  480MOL0     O63252  10.081   5.269   2.420 -0.1646  0.2058 -0.1033
  480MOL0     C63253  10.031   5.341   2.318 -0.2589 -0.0145 -0.8940
  480MOL0     C63254  10.026   5.479   2.327 -0.1144 -1.2094  0.2368
  480MOL0     C63255   9.970   5.559   2.221 -0.4916  1.1643 -0.0319
  480MOL0     C63256   9.931   5.501   2.104  1.1336  0.3102  0.8577
  480MOL0     C63257   9.885   5.584   1.994 -0.3214  0.0837  0.2323
  480MOL0     O63258   9.858   5.521   1.881  0.5539  0.6909 -1.3371
  480MOL0     C63259   9.786   5.574   1.766 -0.0101 -0.4547 -0.0133
  480MOL0     C63260   9.703   5.678   1.754  0.4279  0.3552 -0.2825
  480MOL0     C63261   9.649   5.721   1.628  0.3634 -1.1137 -0.0594
  480MOL0     C63262   9.680   5.650   1.517 -0.9899  0.1616  0.9944
  480MOL0     O63263   9.624   5.692   1.398  0.7159 -0.4826  0.5109
  480MOL0     C63264   9.545   5.583   1.339  0.3491 -1.0537  0.5813
  480MOL0     C63265   9.546   5.605   1.184 -0.2570  0.0615  0.6936
  480MOL0     C63266   9.499   5.480   1.112  0.3483  0.0127 -0.0268
  480MOL0     C63267   9.550   5.491   0.965 -0.1640 -0.0206  1.0589
  480MOL0     C63268   9.528   5.616   0.874  0.5793  0.5227  0.2121
  480MOL0     C63269   9.386   5.658   0.863  0.5608  0.1743  0.4586
  480MOL0     C63270   9.360   5.772   0.768  0.5895  0.0425 -0.4298
  480MOL0     C63271   9.353   5.910   0.837 -0.4684  0.5233  0.2649
  480MOL0    Cl63272   9.176   5.935   0.908 -0.0574 -0.0131 -0.1583
  480MOL0     C63273   9.778   5.543   1.524  0.2275  0.0499 -1.1730
  480MOL0     C63274   9.835   5.509   1.650  0.1538 -0.3211 -1.2820
  480MOL0     O63275   9.900   5.705   2.010 -0.2640 -0.6864  0.5768
  480MOL0     C63276   9.920   5.360   2.098 -0.2966 -0.2140  0.0475
  480MOL0     C63277   9.969   5.286   2.207  0.6785  0.0957  0.5015
  480MOL0     N63278  10.586   4.945   2.528  0.3106 -0.2001  0.3901
  480MOL0     N63279  10.659   4.843   2.547 -0.3827 -0.6220  0.3225
  480MOL0     C63280  10.417   3.732   1.904  1.0656 -1.1898 -0.9065
  480MOL0     C63281  10.423   3.636   1.804 -0.1963  0.0442  0.1410
  480MOL0     C63282  10.452   3.383   1.466  0.4274  0.5385 -0.0884
  480MOL0     C63283  10.572   3.306   1.459 -0.3458 -0.3981  0.4117
  480MOL0     C63284  10.578   3.194   1.370 -0.6434 -0.4763  0.1233
  480MOL0     C63285  10.475   3.165   1.275  0.1489 -0.2143 -0.0066
  480MOL0     O63286  10.473   3.068   1.174  0.3573 -0.1479 -0.2705
  480MOL0     C63287  10.576   2.973   1.174 -0.8209  0.0607 -0.3636
  480MOL0     C63288  10.518   2.876   1.056 -0.3278 -0.9742 -0.2516
  480MOL0     C63289  10.388   2.820   1.095 -1.1020  0.5708 -0.5014
  480MOL0     C63290  10.383   2.728   1.214  0.3559  0.3084  0.0098
  480MOL0     C63291  10.459   2.608   1.217 -1.3574  0.5422 -0.3750
  480MOL0     C63292  10.537   2.510   1.206  0.0092 -0.0359 -1.1461
  480MOL0     C63293  10.357   3.236   1.289  0.1600  0.0647 -0.2930
  480MOL0     C63294  10.346   3.343   1.374 -0.3813 -0.9236 -0.0938
  480MOL0     H63295  10.109   3.618   1.714 -1.3846  2.2171  1.9477
  480MOL0     H63296  10.083   3.780   1.909 -0.2759 -1.6438  1.5586
  480MOL0     H63297  10.493   3.972   2.035  0.3619 -2.0301 -0.7695
  480MOL0     H63298  10.438   3.856   2.164 -3.1570 -2.7350 -2.7306
  480MOL0     H63299  10.317   4.024   2.281  2.3308  3.1389  3.5588
  480MOL0     H63300  10.323   4.134   2.133  0.8920  0.7587 -1.2860
  480MOL0     H63301  10.574   4.126   2.180 -0.4943  0.3175 -0.1043
  480MOL0     H63302  10.523   4.042   2.330  0.6320  0.1891 -0.9773
  480MOL0     H63303  10.440   4.323   2.247  0.3446  0.5632  0.4227
  480MOL0     H63304  10.389   4.236   2.396  0.9427 -0.5779  1.5522
  480MOL0     H63305  10.676   4.247   2.381 -0.5439 -1.9878  2.7954
  480MOL0     H63306  10.562   4.288   2.514 -0.8606 -0.5196 -1.1877
  480MOL0     H63307  10.520   4.507   2.375  0.6026 -0.3685 -0.6818
  480MOL0     H63308  10.667   4.438   2.283  1.3625 -4.1554  2.0371
  480MOL0     H63309  10.659   4.524   2.560  1.2923  0.5671  1.4636
  480MOL0     H63310  10.800   4.444   2.498 -0.2473 -0.3057 -0.6813
  480MOL0     H63311  10.798   4.631   2.307  2.6295 -1.0705 -0.6729
  480MOL0     H63312  10.858   4.674   2.474  1.7087  3.9557 -3.3571
  480MOL0     H63313  10.646   4.843   2.228  3.2504 -3.5262  1.0293
  480MOL0     H63314  10.464   5.044   2.218 -1.7813  4.4084  0.1615
  480MOL0     H63315  10.492   5.145   2.351  1.3533 -0.3727 -0.8438
  480MOL0     H63316  10.324   4.976   2.472  1.2897  1.9701 -0.2895
  480MOL0     H63317  10.298   4.900   2.320  1.5299 -1.0754  4.5408
  480MOL0     H63318  10.230   5.125   2.233 -1.1979  2.5078  0.2395
  480MOL0     H63319  10.116   5.045   2.345  0.9892 -0.7357  0.8142
  480MOL0     H63320  10.277   5.308   2.371 -0.1261 -0.2433  0.7787
  480MOL0     H63321  10.252   5.206   2.516 -0.1079 -3.0992 -1.3208
  480MOL0     H63322  10.065   5.525   2.417  1.1127  0.3954 -1.0383
  480MOL0     H63323   9.958   5.666   2.233 -1.8184  1.0822 -0.4728
  480MOL0     H63324   9.682   5.726   1.850 -2.9503  1.8868 -1.5996
  480MOL0     H63325   9.581   5.805   1.618 -0.9547 -2.0180  0.9448
  480MOL0     H63326   9.441   5.596   1.368  0.4273  1.3524  0.0162
  480MOL0     H63327   9.585   5.483   1.357 -1.5212 -2.8132 -3.7037
  480MOL0     H63328   9.646   5.627   1.145 -1.3109  0.6770 -1.8266
  480MOL0     H63329   9.488   5.695   1.161  3.1739  2.2510 -0.1348
  480MOL0     H63330   9.390   5.480   1.110  0.3636  0.4021 -1.7151
  480MOL0     H63331   9.516   5.385   1.163 -0.7371 -0.3744 -0.3718
  480MOL0     H63332   9.658   5.474   0.966  0.2555  1.9690 -1.3906
  480MOL0     H63333   9.511   5.406   0.908  3.9044 -0.8744 -0.7797
  480MOL0     H63334   9.589   5.610   0.783 -1.2604  0.6635 -1.0854
  480MOL0     H63335   9.559   5.696   0.941  0.9036  0.7471 -0.1947
  480MOL0     H63336   9.366   5.690   0.965  0.9140  1.3170  0.1863
  480MOL0     H63337   9.327   5.567   0.847  0.1016  0.6947 -1.0399
  480MOL0     H63338   9.435   5.766   0.688  0.4340 -1.8271 -0.4660
  480MOL0     H63339   9.265   5.766   0.715  1.4664  1.1099 -2.2545
  480MOL0     H63340   9.366   5.991   0.765 -1.2876  1.4131  1.0895
  480MOL0     H63341   9.424   5.931   0.917 -0.0562  1.1571 -0.2609
  480MOL0     H63342   9.798   5.481   1.437 -3.9679 -2.8018 -0.3957
  480MOL0     H63343   9.913   5.435   1.664  2.3389  2.4121  4.9897
  480MOL0     H63344   9.880   5.314   2.008  0.5700 -1.9681  0.5172
  480MOL0     H63345   9.945   5.181   2.199 -1.8084  0.5687  0.8737
  480MOL0     H63346  10.508   3.754   1.957 -0.0411  1.2740  0.1266
  480MOL0     H63347  10.522   3.592   1.795  1.1087  2.9061 -0.6893
  480MOL0     H63348  10.664   3.333   1.508  2.5003  0.0249 -4.4844
  480MOL0     H63349  10.679   3.155   1.356 -0.7783 -0.0595 -2.5298
  480MOL0     H63350  10.586   2.937   1.276  0.9905 -2.7310 -1.4336
  480MOL0     H63351  10.667   3.026   1.144 -0.6381  1.1688  1.9156
  480MOL0     H63352  10.511   2.936   0.966 -1.4736 -1.6951 -0.6689
  480MOL0     H63353  10.587   2.794   1.031  0.3359  0.3767 -3.2210
  480MOL0     H63354  10.355   2.753   1.015  0.5556 -1.4253  0.3844
  480MOL0     H63355  10.313   2.898   1.112 -2.0102 -0.3794 -0.0590
  480MOL0     H63356  10.409   2.801   1.292 -3.4188  4.0913 -1.9228
  480MOL0     H63357  10.281   2.698   1.238 -0.1837  2.1319  0.0988
  480MOL0     H63358  10.595   2.420   1.218  1.1806  0.7130 -1.0334
  480MOL0     H63359  10.270   3.218   1.226 -1.3397 -2.1297  2.1959
  480MOL0     H63360  10.248   3.388   1.358 -0.0214 -1.1148 -3.5267
  481MOL0     O63361   5.690   4.911   2.358  0.2612  0.7055 -0.6313
  481MOL0     C63362   5.795   4.962   2.397  1.2443  0.3967 -1.0042
  481MOL0     O63363   5.873   5.047   2.322 -0.2496  0.4750  0.3444
  481MOL0     C63364   5.816   5.098   2.211  0.4894  0.1182  0.2459
  481MOL0     C63365   5.714   5.196   2.225  0.5622 -0.2136  0.7664
  481MOL0     C63366   5.657   5.259   2.113 -0.0540 -0.0857 -0.4897
  481MOL0     C63367   5.712   5.239   1.986  0.8811 -0.0642 -0.4182
  481MOL0     O63368   5.671   5.294   1.868 -0.4179  0.2150  0.6547
  481MOL0     C63369   5.554   5.375   1.876  0.5106  0.1182  0.0358
  481MOL0     C63370   5.506   5.440   1.737  0.1031  0.2995 -0.2731
  481MOL0     C63371   5.396   5.548   1.770  0.1712 -0.7766 -0.0392
  481MOL0     C63372   5.274   5.518   1.857 -0.0658 -0.2055 -0.1145
  481MOL0     C63373   5.192   5.640   1.850 -0.2191  0.1113 -0.7513
  481MOL0     C63374   5.079   5.645   1.955 -0.6791  1.0796 -0.3873
  481MOL0     C63375   5.009   5.785   1.934 -0.3203  0.7478 -0.6159
  481MOL0     C63376   4.899   5.794   2.047 -0.6672  0.2294  0.0331
  481MOL0     N63377   4.946   5.814   2.183  0.7480 -0.4076 -0.6011
  481MOL0     C63378   4.899   5.761   2.296 -0.8546  0.0496  0.2580
  481MOL0     C63379   4.985   5.795   2.393 -0.0684  0.3090 -0.5071
  481MOL0     C63380   4.990   5.743   2.539  0.3094 -0.0452  0.3572
  481MOL0     C63381   4.871   5.803   2.613  0.4841  0.3844  0.3129
  481MOL0     C63382   4.894   5.951   2.641 -0.3033  0.2233 -0.1172
  481MOL0     C63383   4.793   5.996   2.742  0.6555 -1.3595 -0.3065
  481MOL0     O63384   4.803   6.138   2.745  0.0583 -0.2097 -0.5066
  481MOL0     C63385   4.690   6.199   2.805 -0.0965  0.5065 -0.4412
  481MOL0     C63386   4.668   6.330   2.764 -0.5882 -1.1798 -0.3694
  481MOL0     C63387   4.561   6.413   2.808 -0.1262 -0.2822  0.5798
  481MOL0     C63388   4.474   6.359   2.905 -0.3011  0.4994 -0.7221
  481MOL0     C63389   4.374   6.443   2.971  0.9779 -0.2783  0.3657
  481MOL0     O63390   4.356   6.570   2.927 -0.0788  0.9968  0.5097
  481MOL0     C63391   4.283   6.667   2.978  0.3499 -1.6576  0.3641
  481MOL0     C63392   4.220   6.688   3.104  0.3447 -0.2764  0.2188
  481MOL0     C63393   4.131   6.786   3.123 -0.4304  0.4414 -0.2230
  481MOL0     C63394   4.094   6.877   3.021  0.2558  1.3712 -0.0992
  481MOL0     O63395   3.992   6.969   3.046 -0.8990  0.5902 -0.0329
  481MOL0     C63396   3.956   7.073   2.951  0.2072  0.2472 -1.2216
  481MOL0     C63397   3.830   7.149   2.997 -0.5362 -0.4802 -0.1606
  481MOL0     C63398   3.711   7.062   3.035 -0.0028  0.3800  1.0466
  481MOL0     C63399   3.578   7.125   3.053 -0.7565 -0.2864 -0.0723
  481MOL0     C63400   3.548   7.212   3.181 -0.3377  0.0929 -0.2822
  481MOL0     C63401   3.552   7.127   3.313 -0.0639 -0.0421 -0.6317
  481MOL0     C63402   3.537   7.219   3.433 -0.3269 -0.3791  0.1855
  481MOL0     C63403   3.534   7.160   3.567 -0.0713 -0.0372 -0.8242
  481MOL0    Cl63404   3.688   7.074   3.598  0.1694  0.1524  0.5015
  481MOL0     C63405   4.175   6.866   2.901  0.4686  0.0843 -0.2263
  481MOL0     C63406   4.272   6.765   2.884 -0.5707 -0.6569  0.3021
  481MOL0     O63407   4.307   6.399   3.064  0.3636  0.7289 -0.2153
  481MOL0     C63408   4.501   6.227   2.952  0.1445 -1.2756  0.6997
  481MOL0     C63409   4.610   6.150   2.909 -0.1697  0.4830 -0.0287
  481MOL0     N63410   5.095   5.850   2.348  0.3752  0.4374  0.2990
  481MOL0     N63411   5.075   5.864   2.220  0.7457 -1.1818 -0.8701
  481MOL0     C63412   5.815   5.144   1.970 -1.0824  1.0490 -1.3548
  481MOL0     C63413   5.860   5.072   2.080 -1.2169 -0.3794 -0.4137
  481MOL0     C63414   5.852   4.926   2.532  0.4620 -0.5861 -0.2291
  481MOL0     C63415   5.768   4.863   2.622  0.2486 -1.5737 -0.3803
  481MOL0     C63416   5.824   4.820   2.745 -0.1690  0.1638  0.0347
  481MOL0     C63417   5.956   4.857   2.789 -0.7722  0.1289  0.3456
  481MOL0     O63418   5.999   4.837   2.923 -0.3383 -0.3630 -0.1724
  481MOL0     C63419   6.134   4.885   2.969 -0.2488  0.4222  1.0079
  481MOL0     C63420   6.133   4.875   3.116  0.3176 -0.1545  0.1553
  481MOL0     C63421   6.255   4.940   3.183  0.5373 -0.4893 -0.2442
  481MOL0     C63422   6.387   4.868   3.171  0.8072  0.6838 -0.2611
  481MOL0     C63423   6.389   4.731   3.219 -0.6002 -0.3114  0.8726
  481MOL0     C63424   6.402   4.621   3.265  1.0752 -0.1282  0.6473
  481MOL0     C63425   6.024   4.934   2.699  0.2478 -0.3484 -0.4954
  481MOL0     C63426   5.983   4.957   2.567  0.1159 -0.9523 -0.1625
  481MOL0     H63427   5.660   5.214   2.318  0.5357 -1.0231  0.9155
  481MOL0     H63428   5.576   5.330   2.126  1.4755  1.2992  2.2218
  481MOL0     H63429   5.576   5.457   1.945 -2.3010 -0.3508  1.6678
  481MOL0     H63430   5.474   5.317   1.924 -0.5236  3.5565  2.9307
  481MOL0     H63431   5.465   5.359   1.676 -0.1902 -0.4196  0.8435
  481MOL0     H63432   5.590   5.481   1.680 -1.9205  0.7382 -3.1637
  481MOL0     H63433   5.355   5.583   1.675  0.6416 -0.1078 -0.0018
  481MOL0     H63434   5.446   5.627   1.827  0.0818  0.3977 -1.5498
  481MOL0     H63435   5.226   5.427   1.819 -0.2378 -1.0314  1.9566
  481MOL0     H63436   5.298   5.514   1.964  0.3620 -0.8610 -0.2273
  481MOL0     H63437   5.145   5.639   1.751  3.1325 -0.6150 -2.4839
  481MOL0     H63438   5.248   5.734   1.856 -2.6814  1.5745  1.4525
  481MOL0     H63439   5.129   5.644   2.052 -1.8447  2.5157  0.2766
  481MOL0     H63440   4.999   5.571   1.947 -1.0043  1.4927 -1.0984
  481MOL0     H63441   5.075   5.871   1.948 -0.5014  0.7862 -0.0006
  481MOL0     H63442   4.959   5.780   1.837  1.4373 -1.0114 -1.4978
  481MOL0     H63443   4.835   5.706   2.040  1.4992 -1.4170 -0.1643
  481MOL0     H63444   4.834   5.879   2.028 -0.7692 -0.1919 -1.7653
  481MOL0     H63445   4.813   5.698   2.316 -1.2066  1.6393  4.9905
  481MOL0     H63446   5.087   5.765   2.584  1.3061 -0.2183 -1.6216
  481MOL0     H63447   4.978   5.634   2.538  2.4021 -0.3233  1.2402
  481MOL0     H63448   4.863   5.741   2.703  0.8650 -1.8836 -1.1328
  481MOL0     H63449   4.777   5.783   2.562  0.0254  5.1107 -1.1333
  481MOL0     H63450   4.993   5.961   2.686 -0.4642 -5.1790  2.2453
  481MOL0     H63451   4.880   6.002   2.545 -0.5496 -1.3017 -0.9275
  481MOL0     H63452   4.808   5.946   2.838  0.4811 -0.2970  0.2862
  481MOL0     H63453   4.697   5.957   2.706 -1.3117  1.4740  1.4547
  481MOL0     H63454   4.726   6.377   2.686  0.9141 -1.1160  0.7222
  481MOL0     H63455   4.556   6.515   2.771 -1.6859 -0.7276 -0.5208
  481MOL0     H63456   4.238   6.615   3.182 -0.8900 -1.1796 -0.3241
  481MOL0     H63457   4.090   6.806   3.222  2.6224  1.7639  0.9085
  481MOL0     H63458   3.930   7.025   2.856  1.1015 -1.4678 -0.6472
  481MOL0     H63459   4.038   7.146   2.946  2.0483 -1.4087  1.8651
  481MOL0     H63460   3.801   7.222   2.920 -0.0834  4.7046  3.9705
  481MOL0     H63461   3.841   7.217   3.082 -1.7276  0.6493 -0.8741
  481MOL0     H63462   3.748   7.017   3.128  1.3148  0.2815  0.4833
  481MOL0     H63463   3.694   6.977   2.969  2.4954  0.4358  0.2612
  481MOL0     H63464   3.567   7.178   2.958  0.2601  0.3002  0.1196
  481MOL0     H63465   3.495   7.053   3.053 -1.8175  0.8273  2.0653
  481MOL0     H63466   3.455   7.270   3.181 -0.6305 -0.1428 -3.8117
  481MOL0     H63467   3.633   7.280   3.178 -1.1473  1.2031  0.9227
  481MOL0     H63468   3.643   7.068   3.329 -1.9029 -2.1637  3.8421
  481MOL0     H63469   3.467   7.059   3.320 -1.9855  2.2980  0.9031
  481MOL0     H63470   3.606   7.304   3.428 -0.1963 -0.5025 -0.1600
  481MOL0     H63471   3.441   7.266   3.410  0.9404  1.7192 -1.3046
  481MOL0     H63472   3.457   7.083   3.567 -1.2439  1.0722 -2.1574
  481MOL0     H63473   3.516   7.226   3.652 -1.8953 -1.6874  0.1473
  481MOL0     H63474   4.173   6.942   2.823 -1.1338  0.7457  0.4170
  481MOL0     H63475   4.327   6.754   2.791 -0.7378 -1.6507  0.3169
  481MOL0     H63476   4.437   6.171   3.019 -0.6851 -4.5134 -2.4551
  481MOL0     H63477   4.627   6.049   2.946  1.2905  1.1153  1.1327
  481MOL0     H63478   5.846   5.110   1.872  1.4013  0.5813 -0.4769
  481MOL0     H63479   5.928   4.988   2.066 -1.7725 -0.9564  0.3126
  481MOL0     H63480   5.664   4.848   2.594 -0.2673  2.4225 -1.2577
  481MOL0     H63481   5.777   4.756   2.819  0.2030 -0.8253 -0.5722
  481MOL0     H63482   6.161   4.986   2.937  0.5984 -0.2236 -0.3844
  481MOL0     H63483   6.208   4.813   2.935 -2.6258 -1.7328  0.1137
  481MOL0     H63484   6.044   4.914   3.166  0.6913 -1.2959  1.8184
  481MOL0     H63485   6.136   4.768   3.138  0.1569 -0.0202  0.8655
  481MOL0     H63486   6.239   4.956   3.290 -0.0115 -4.9344  0.5167
  481MOL0     H63487   6.276   5.038   3.139  2.5830 -0.0627  1.5069
  481MOL0     H63488   6.434   4.862   3.072  0.5011 -0.2490 -0.3599
  481MOL0     H63489   6.465   4.914   3.231  0.2938  4.7287 -2.3691
  481MOL0     H63490   6.412   4.516   3.282  2.1667 -1.3183 -5.1130
  481MOL0     H63491   6.118   4.978   2.732 -0.0845 -0.8930  1.3080
  481MOL0     H63492   6.047   5.012   2.499  1.0050 -2.7941 -0.8800
  482MOL0     O63493   0.012   9.699   0.095  0.3111  0.0513 -0.2415
  482MOL0     C63494   0.084   9.764   0.171 -0.7646  0.1607 -0.3324
  482MOL0     O63495   0.210   9.726   0.226 -0.2468 -0.2441  0.1017
  482MOL0     C63496   0.278   9.615   0.205 -0.0045 -1.0061  0.8117
  482MOL0     C63497   0.372   9.577   0.303  0.5370  0.3447 -0.2286
  482MOL0     C63498   0.464   9.475   0.282  0.4365  0.2420 -0.3924
  482MOL0     C63499   0.461   9.402   0.163 -0.0055 -0.5456  0.3558
  482MOL0     O63500   0.542   9.302   0.142  0.4095  1.1629 -0.1228
  482MOL0     C63501   0.505   9.173   0.096  0.2019 -0.0102 -0.2839
  482MOL0     C63502   0.609   9.068   0.146 -0.7965 -0.2364  1.1178
  482MOL0     C63503   0.686   9.018   0.021 -0.6681  0.4893 -0.4127
  482MOL0     C63504   0.608   8.943  -0.089  0.1504  0.6097 -0.4355
  482MOL0     C63505   0.667   8.984  -0.224  0.0413  0.2110  0.4203
  482MOL0     C63506   0.641   8.897  -0.346 -0.1028  0.3713  0.3619
  482MOL0     C63507   0.732   8.774  -0.332  0.1569  0.7158 -0.0698
  482MOL0     C63508   0.796   8.745  -0.471 -0.5245  0.3578  0.4622
  482MOL0     N63509   0.695   8.717  -0.573 -0.6534  0.1183 -0.3185
  482MOL0     C63510   0.614   8.611  -0.562  0.1379 -0.3808  0.2907
  482MOL0     C63511   0.566   8.598  -0.687  0.7347 -0.3316 -0.3907
  482MOL0     C63512   0.450   8.508  -0.737  0.4422  0.7306  0.2177
  482MOL0     C63513   0.495   8.380  -0.796  0.6977 -0.4851  0.2786
  482MOL0     C63514   0.576   8.395  -0.924 -0.0589 -0.9907  0.4089
  482MOL0     C63515   0.492   8.438  -1.042 -0.3999 -0.2840 -0.2687
  482MOL0     O63516   0.375   8.346  -1.065  0.2702 -0.6768  0.9507
  482MOL0     C63517   0.295   8.413  -1.160 -0.1295  0.8774 -0.2512
  482MOL0     C63518   0.164   8.465  -1.127 -0.4328 -0.3980  0.8014
  482MOL0     C63519   0.083   8.511  -1.234 -0.5446  0.2156  0.1023
  482MOL0     C63520   0.144   8.522  -1.366 -0.8642 -1.2494 -0.1768
  482MOL0     C63521   0.061   8.564  -1.482  0.2350  0.1913 -0.1084
  482MOL0     O63522  -0.070   8.599  -1.454 -0.9263  0.1275 -0.1716
  482MOL0     C63523  -0.170   8.615  -1.547 -0.2607 -0.5175 -0.1674
  482MOL0     C63524  -0.288   8.542  -1.530 -0.6481 -0.6028 -0.1657
  482MOL0     C63525  -0.388   8.534  -1.631  1.2224 -0.5954  0.2848
  482MOL0     C63526  -0.369   8.601  -1.752 -0.1131  0.8695 -0.7385
  482MOL0     O63527  -0.467   8.609  -1.846 -0.3232 -0.7999 -0.2410
  482MOL0     C63528  -0.542   8.488  -1.864 -0.3652 -1.0028  0.6896
  482MOL0     C63529  -0.686   8.508  -1.815 -0.2497 -0.9493  0.3859
  482MOL0     C63530  -0.742   8.639  -1.851 -0.2009 -0.4473  0.1039
  482MOL0     C63531  -0.882   8.654  -1.805 -0.0058  0.3197  0.3612
  482MOL0     C63532  -0.964   8.756  -1.875  1.1246 -0.0358 -0.2692
  482MOL0     C63533  -0.907   8.902  -1.863  0.0110  0.0581  0.9719
  482MOL0     C63534  -0.978   9.016  -1.940 -0.7073 -0.1894  0.3020
  482MOL0     C63535  -0.954   9.010  -2.092 -0.4884  0.3570  0.1526
  482MOL0    Cl63536  -1.091   9.103  -2.168 -0.3714  0.2471  0.0819
  482MOL0     C63537  -0.255   8.689  -1.760  0.3010 -0.1819  0.7402
  482MOL0     C63538  -0.157   8.692  -1.665  0.4276  0.3556 -0.0489
  482MOL0     O63539   0.104   8.530  -1.589 -0.4248  0.4267 -0.3459
  482MOL0     C63540   0.274   8.475  -1.383 -0.8071 -0.1247 -0.2061
  482MOL0     C63541   0.341   8.416  -1.285 -0.8835 -0.7261  0.1208
  482MOL0     N63542   0.606   8.701  -0.763  1.0902 -0.3230  1.0696
  482MOL0     N63543   0.687   8.763  -0.696 -0.3863 -0.1724  0.2741
  482MOL0     C63544   0.369   9.438   0.069  0.3223 -0.7343 -0.2660
  482MOL0     C63545   0.281   9.544   0.080  0.4795 -0.3110 -0.4254
  482MOL0     C63546   0.030   9.896   0.197  0.3456 -0.1767 -1.3023
  482MOL0     C63547  -0.111   9.918   0.178  0.0182  0.3259  0.3762
  482MOL0     C63548  -0.159  10.048   0.202 -0.3059 -0.0736 -0.2066
  482MOL0     C63549  -0.079  10.148   0.259 -0.2635 -0.6976 -0.1618
  482MOL0     O63550  -0.124  10.275   0.283  0.6696  0.0033  0.9415
  482MOL0     C63551  -0.261  10.302   0.246 -0.2957 -0.3431 -0.0583
  482MOL0     C63552  -0.280  10.456   0.234  0.0523 -1.1371  0.6825
  482MOL0     C63553  -0.286  10.530   0.373  0.3562 -0.0884  0.7767
  482MOL0     C63554  -0.335  10.681   0.361  0.0347 -0.4181 -0.6007
  482MOL0     C63555  -0.469  10.690   0.305 -0.2691  0.0609  0.2423
  482MOL0     C63556  -0.584  10.723   0.266 -0.0676 -0.5347  0.0650
  482MOL0     C63557   0.058  10.126   0.288  0.4880 -0.5299 -0.5959
  482MOL0     C63558   0.104   9.995   0.263 -0.9066 -0.3349  0.5601
  482MOL0     H63559   0.362   9.624   0.400 -2.5960 -3.5299  1.6429
  482MOL0     H63560   0.531   9.442   0.361 -1.0950  0.1146  0.9029
  482MOL0     H63561   0.502   9.170  -0.013 -2.3416 -3.5014 -0.2969
  482MOL0     H63562   0.405   9.144   0.130  0.8615 -1.5542  0.4444
  482MOL0     H63563   0.563   8.986   0.201  1.1091 -0.6102  2.2377
  482MOL0     H63564   0.673   9.112   0.223  0.0163 -4.6132  3.2589
  482MOL0     H63565   0.759   8.947   0.059 -0.4009  0.7461 -0.4441
  482MOL0     H63566   0.732   9.113  -0.009  0.3999 -0.4323 -1.7753
  482MOL0     H63567   0.623   8.837  -0.069  0.8705  0.3207 -2.2621
  482MOL0     H63568   0.503   8.974  -0.084  0.4788  1.7917 -0.5315
  482MOL0     H63569   0.775   8.994  -0.213  0.0498  2.4417 -1.1016
  482MOL0     H63570   0.631   9.086  -0.243  1.3447  0.2462 -2.3253
  482MOL0     H63571   0.651   8.947  -0.443 -1.7942 -0.4106 -0.2703
  482MOL0     H63572   0.537   8.864  -0.348 -0.5538  1.7511  0.5740
  482MOL0     H63573   0.812   8.774  -0.258 -0.0455 -0.7396  0.1739
  482MOL0     H63574   0.677   8.686  -0.298  0.0869  0.0324 -1.8272
  482MOL0     H63575   0.851   8.652  -0.452 -0.5400  0.2067 -0.2215
  482MOL0     H63576   0.868   8.824  -0.494 -0.2783  0.1514  0.5153
  482MOL0     H63577   0.599   8.543  -0.479 -0.4869 -0.9925 -0.2970
  482MOL0     H63578   0.383   8.562  -0.804  1.4865 -0.9601 -2.3226
  482MOL0     H63579   0.386   8.490  -0.650 -0.3937  1.7978 -0.1621
  482MOL0     H63580   0.412   8.310  -0.807  0.7413 -0.1955 -2.5247
  482MOL0     H63581   0.562   8.325  -0.729  2.9818  0.9382 -0.7029
  482MOL0     H63582   0.651   8.475  -0.923  0.4763 -1.4313 -1.3072
  482MOL0     H63583   0.618   8.306  -0.971  0.1081  0.7840 -3.1016
  482MOL0     H63584   0.554   8.447  -1.131  0.1682  0.1889  0.1669
  482MOL0     H63585   0.449   8.536  -1.022 -0.0272 -0.1130 -0.3018
  482MOL0     H63586   0.131   8.474  -1.024 -0.7425  1.1202  0.6027
  482MOL0     H63587  -0.020   8.538  -1.217 -0.2239  2.8204 -1.5345
  482MOL0     H63588  -0.311   8.483  -1.442 -1.2413  0.0655  0.1391
  482MOL0     H63589  -0.481   8.479  -1.619 -0.1357  1.6696  0.6867
  482MOL0     H63590  -0.490   8.400  -1.825  0.0824 -0.3312  1.6680
  482MOL0     H63591  -0.553   8.466  -1.970  0.3058 -0.5129  0.5065
  482MOL0     H63592  -0.687   8.509  -1.706  2.7747  0.4103  0.5177
  482MOL0     H63593  -0.747   8.430  -1.860 -0.5988  1.0135 -2.9153
  482MOL0     H63594  -0.736   8.659  -1.958  2.7837  1.9147  0.5790
  482MOL0     H63595  -0.687   8.719  -1.802 -1.8615  1.2680 -0.7261
  482MOL0     H63596  -0.929   8.557  -1.823 -0.0050 -0.4588  3.8588
  482MOL0     H63597  -0.884   8.663  -1.696 -0.1218  0.9505  0.3112
  482MOL0     H63598  -1.057   8.752  -1.816 -0.4259 -4.3397 -2.5630
  482MOL0     H63599  -0.977   8.720  -1.977  2.7740 -0.9731 -0.1801
  482MOL0     H63600  -0.807   8.896  -1.906  0.9783 -0.5938  3.2013
  482MOL0     H63601  -0.889   8.934  -1.760  3.1425  1.0534  0.2292
  482MOL0     H63602  -1.086   9.017  -1.922 -0.4502  0.4670  1.9946
  482MOL0     H63603  -0.940   9.112  -1.904 -0.5272  0.6616 -1.9945
  482MOL0     H63604  -0.971   8.908  -2.125  2.6138  0.7711 -3.3956
  482MOL0     H63605  -0.856   9.043  -2.129 -0.1675  0.7634  1.3254
  482MOL0     H63606  -0.243   8.760  -1.841  3.1149  0.5160  1.6589
  482MOL0     H63607  -0.081   8.769  -1.666  0.3484  0.4538 -1.3147
  482MOL0     H63608   0.325   8.476  -1.479 -0.6235 -3.5071 -0.2571
  482MOL0     H63609   0.444   8.390  -1.307 -0.1562  0.7991  1.5402
  482MOL0     H63610   0.379   9.389  -0.028 -1.6762 -1.0899 -0.3547
  482MOL0     H63611   0.221   9.594   0.005 -0.8710  3.1139  2.6164
  482MOL0     H63612  -0.170   9.838   0.135  1.8006 -0.9943  0.2442
  482MOL0     H63613  -0.259  10.058   0.161 -0.6862  0.4349  0.8189
  482MOL0     H63614  -0.339  10.260   0.310  1.7616  0.3398  3.1213
  482MOL0     H63615  -0.272  10.262   0.145 -1.0717  1.2405 -0.6380
  482MOL0     H63616  -0.197  10.510   0.188 -0.6547 -0.0610  0.6384
  482MOL0     H63617  -0.374  10.482   0.185 -0.7734  0.4503  2.9247
  482MOL0     H63618  -0.188  10.522   0.420  0.1697  0.7184  1.3370
  482MOL0     H63619  -0.344  10.463   0.438  0.3967 -0.4666  0.4246
  482MOL0     H63620  -0.345  10.717   0.464  0.1560 -3.8177  0.7300
  482MOL0     H63621  -0.259  10.734   0.303  1.5443  1.3845  2.7254
  482MOL0     H63622  -0.670  10.764   0.218 -0.7938 -4.1071 -1.9821
  482MOL0     H63623   0.120  10.190   0.349  0.5458 -1.6922  0.6153
  482MOL0     H63624   0.205   9.972   0.296 -0.6557  2.3984  1.9568
  483MOL0     O63625   8.097   7.740   2.889  0.6526  0.4085  0.5079
  483MOL0     C63626   8.194   7.775   2.825  0.4670  0.2753 -0.6210
  483MOL0     O63627   8.325   7.733   2.847  0.3612 -0.5693 -0.4548
  483MOL0     C63628   8.361   7.646   2.955  0.6202 -1.5497  0.1238
  483MOL0     C63629   8.445   7.537   2.938  1.6720  0.2449  0.6089
  483MOL0     C63630   8.488   7.462   3.053 -0.2722  0.2034 -0.2819
  483MOL0     C63631   8.448   7.492   3.181 -0.4082 -0.3642 -0.3135
  483MOL0     O63632   8.452   7.399   3.278  0.4009  0.5339  0.1394
  483MOL0     C63633   8.542   7.426   3.386  0.1505  0.6159 -0.6839
  483MOL0     C63634   8.566   7.303   3.475  0.6892  1.1616 -0.3934
  483MOL0     C63635   8.704   7.234   3.444 -0.3872 -0.2838 -0.3815
  483MOL0     C63636   8.749   7.130   3.556  0.0156 -0.5413  0.0335
  483MOL0     C63637   8.748   7.192   3.694  0.0338 -0.1976 -0.3231
  483MOL0     C63638   8.802   7.093   3.807 -0.8344 -1.2142 -1.3218
  483MOL0     C63639   8.770   7.155   3.949 -0.0369  0.0950 -0.5678
  483MOL0     C63640   8.643   7.113   4.013  0.3248  0.2698 -0.0405
  483MOL0     N63641   8.525   7.094   3.930  0.0300 -0.2663  0.4902
  483MOL0     C63642   8.420   7.186   3.911  0.1328 -0.5303 -0.2817
  483MOL0     C63643   8.336   7.115   3.830 -0.0939 -0.6161 -0.0473
  483MOL0     C63644   8.209   7.173   3.767 -0.3720 -0.5295  0.8676
  483MOL0     C63645   8.193   7.137   3.619  0.7308  0.1812 -0.2982
  483MOL0     C63646   8.122   7.002   3.599  0.4189 -0.0121 -0.3389
  483MOL0     C63647   7.971   7.024   3.599 -0.1187 -0.0446  0.3159
  483MOL0     O63648   7.916   6.895   3.614  0.0150  0.4381 -0.0841
  483MOL0     C63649   7.778   6.904   3.624 -0.8484  0.0885 -0.1397
  483MOL0     C63650   7.693   6.929   3.516 -0.7052 -0.5566 -1.0660
  483MOL0     C63651   7.550   6.938   3.537 -0.2839  0.4355  0.8423
  483MOL0     C63652   7.496   6.943   3.671 -0.1112 -0.2951  0.2462
  483MOL0     C63653   7.354   6.967   3.696 -0.7267  0.6489  0.3935
  483MOL0     O63654   7.274   7.001   3.593  0.6283 -0.0763  0.5097
  483MOL0     C63655   7.136   7.004   3.618  0.9752 -0.5306 -0.5778
  483MOL0     C63656   7.062   7.126   3.601 -0.1535  0.0625 -0.0336
  483MOL0     C63657   6.923   7.130   3.613 -0.9016 -0.7353  0.9401
  483MOL0     C63658   6.846   7.018   3.632 -0.4752 -0.5018  0.4009
  483MOL0     O63659   6.706   7.008   3.645 -0.4820  0.6043 -1.0540
  483MOL0     C63660   6.626   7.116   3.588 -0.4627  0.4357 -0.0878
  483MOL0     C63661   6.475   7.087   3.590 -0.2142  1.1077  0.0488
  483MOL0     C63662   6.382   7.195   3.541 -0.2873  0.0118 -0.5999
  483MOL0     C63663   6.361   7.299   3.650  0.2970  0.7950 -0.5943
  483MOL0     C63664   6.287   7.418   3.588  0.1577 -0.7258 -0.7930
  483MOL0     C63665   6.254   7.505   3.704 -0.1616  0.0626 -0.4371
  483MOL0     C63666   6.233   7.646   3.658  0.2726  0.8307 -0.1943
  483MOL0     C63667   6.158   7.729   3.756  0.2176 -0.2958  0.1321
  483MOL0    Cl63668   6.069   7.856   3.685  0.1928 -0.3506 -0.3637
  483MOL0     C63669   6.924   6.902   3.648  0.4943 -0.1766 -0.3927
  483MOL0     C63670   7.060   6.888   3.636  1.0257  0.4345  0.3270
  483MOL0     O63671   7.317   6.955   3.813 -0.2135  1.0682  0.5307
  483MOL0     C63672   7.581   6.928   3.775  0.3431  0.4649 -0.2554
  483MOL0     C63673   7.720   6.901   3.753  0.3413  0.3887 -1.0830
  483MOL0     N63674   8.363   6.986   3.832 -0.6844  0.7250 -0.0700
  483MOL0     N63675   8.470   6.971   3.898  0.3431  0.3359  0.3493
  483MOL0     C63676   8.356   7.599   3.193  0.7782 -0.3117  0.1819
  483MOL0     C63677   8.321   7.680   3.088 -1.0007  0.2303 -0.3936
  483MOL0     C63678   8.175   7.871   2.715  1.5221  0.2361 -0.1451
  483MOL0     C63679   8.042   7.926   2.695  0.2890  0.3093  0.0326
  483MOL0     C63680   8.017   8.011   2.592  0.3267  0.5530 -0.0109
  483MOL0     C63681   8.110   8.043   2.503 -0.6350 -0.5632 -0.4263
  483MOL0     O63682   8.095   8.118   2.388 -0.1878 -0.8511  0.2671
  483MOL0     C63683   7.976   8.190   2.363  0.7813 -0.4462 -1.2593
  483MOL0     C63684   7.855   8.112   2.322  0.1886  0.2350  0.7415
  483MOL0     C63685   7.722   8.194   2.327 -1.1893  0.3107  0.3893
  483MOL0     C63686   7.693   8.258   2.183 -1.2087 -0.7026 -0.1026
  483MOL0     C63687   7.565   8.334   2.177  0.0402  0.3869 -1.0444
  483MOL0     C63688   7.468   8.397   2.191  0.1744 -0.5004 -0.2492
  483MOL0     C63689   8.228   7.983   2.509  0.6877  0.4241 -0.3187
  483MOL0     C63690   8.264   7.905   2.615 -0.2841  0.0215 -0.1805
  483MOL0     H63691   8.471   7.511   2.836 -2.4496 -1.8451 -0.1017
  483MOL0     H63692   8.548   7.374   3.031  1.0888  1.0922 -0.2712
  483MOL0     H63693   8.513   7.514   3.444  2.0071  0.8615 -0.0501
  483MOL0     H63694   8.639   7.454   3.343  1.6402 -0.1132  1.9830
  483MOL0     H63695   8.476   7.240   3.476  0.1451  1.8917 -1.1614
  483MOL0     H63696   8.562   7.348   3.575  1.0313  1.7534 -0.6363
  483MOL0     H63697   8.766   7.318   3.475  0.2497 -1.6375  2.3027
  483MOL0     H63698   8.695   7.185   3.346 -2.5634 -2.0293  0.5957
  483MOL0     H63699   8.677   7.049   3.546  0.7996 -1.4982  1.6616
  483MOL0     H63700   8.846   7.089   3.523  0.1982  0.3326 -0.5588
  483MOL0     H63701   8.651   7.222   3.734  0.9173 -0.7669  2.4906
  483MOL0     H63702   8.817   7.275   3.706  0.4122 -0.6087  0.4493
  483MOL0     H63703   8.909   7.070   3.803  0.3228  2.2566  2.5353
  483MOL0     H63704   8.762   6.992   3.793  0.6942 -2.5958  2.6574
  483MOL0     H63705   8.848   7.131   4.022 -0.8334  0.4690  0.4394
  483MOL0     H63706   8.775   7.264   3.950 -0.0265  0.1084 -1.3974
  483MOL0     H63707   8.619   7.190   4.087 -0.6444  0.3563 -0.4327
  483MOL0     H63708   8.672   7.029   4.076  3.6309 -0.0876 -1.7954
  483MOL0     H63709   8.420   7.293   3.927  1.0318 -0.6094  0.3348
  483MOL0     H63710   8.217   7.282   3.779 -3.4978 -0.2636  1.1408
  483MOL0     H63711   8.122   7.152   3.828 -2.2160 -2.0519 -2.0591
  483MOL0     H63712   8.295   7.118   3.582  0.5950 -1.3895  0.0876
  483MOL0     H63713   8.142   7.217   3.565 -0.5205 -0.9629 -0.8628
  483MOL0     H63714   8.144   6.955   3.503 -1.0790 -0.6691 -0.3912
  483MOL0     H63715   8.153   6.932   3.678  0.4628 -2.2587 -2.2345
  483MOL0     H63716   7.943   7.081   3.510  0.1995  1.3849  1.0968
  483MOL0     H63717   7.935   7.088   3.680 -0.9850  1.6143 -1.3025
  483MOL0     H63718   7.728   6.935   3.413 -0.2834  1.6607 -0.8280
  483MOL0     H63719   7.481   6.930   3.454 -1.3476 -2.0168  1.8887
  483MOL0     H63720   7.106   7.221   3.573  0.2764 -0.1505 -0.0860
  483MOL0     H63721   6.863   7.219   3.594  0.3655 -0.3725 -1.8311
  483MOL0     H63722   6.663   7.132   3.486  1.1126  0.1336  0.4049
  483MOL0     H63723   6.642   7.212   3.638  0.0415 -1.5714  4.0301
  483MOL0     H63724   6.457   7.058   3.694  0.2076  2.0194  0.3923
  483MOL0     H63725   6.464   7.001   3.523 -0.5531 -0.1181  1.6061
  483MOL0     H63726   6.287   7.160   3.499 -0.7532 -0.2213  0.6251
  483MOL0     H63727   6.432   7.255   3.464  2.8574  0.9148  1.9074
  483MOL0     H63728   6.294   7.251   3.722  1.3773  2.7442  1.8687
  483MOL0     H63729   6.451   7.330   3.705  0.2835  0.6125 -0.4649
  483MOL0     H63730   6.191   7.387   3.545 -0.1167 -1.8299  0.5354
  483MOL0     H63731   6.339   7.458   3.501 -0.9146  0.7454 -0.7899
  483MOL0     H63732   6.349   7.499   3.757  0.5200 -2.1909 -1.7853
  483MOL0     H63733   6.170   7.467   3.761 -0.4995  0.5791 -0.5802
  483MOL0     H63734   6.328   7.698   3.644  0.2985  0.5980 -0.9209
  483MOL0     H63735   6.176   7.645   3.564 -0.8867 -1.4950  0.4532
  483MOL0     H63736   6.226   7.763   3.834  1.7319 -1.5969 -0.5573
  483MOL0     H63737   6.086   7.670   3.813 -0.8892 -1.2778 -2.1329
  483MOL0     H63738   6.859   6.817   3.666 -1.8830  0.8875 -3.2703
  483MOL0     H63739   7.083   6.783   3.647 -1.5567 -0.3142 -0.8265
  483MOL0     H63740   7.549   6.945   3.878 -0.2709  1.2451 -0.5662
  483MOL0     H63741   7.780   6.889   3.843 -0.5841  1.8944 -0.2302
  483MOL0     H63742   8.296   7.610   3.282 -1.3856 -2.9087 -0.8120
  483MOL0     H63743   8.256   7.766   3.100  0.8628  1.9086 -1.7863
  483MOL0     H63744   7.963   7.896   2.762  0.7861 -1.4994 -0.1508
  483MOL0     H63745   7.915   8.049   2.589 -0.8136 -2.2249 -0.0735
  483MOL0     H63746   8.005   8.274   2.299  1.6513 -2.0411 -3.0358
  483MOL0     H63747   7.944   8.230   2.460  1.8037 -2.5171 -0.0006
  483MOL0     H63748   7.872   8.067   2.224  1.6130 -2.9235  2.2996
  483MOL0     H63749   7.838   8.031   2.394 -4.4798  0.1712 -0.1134
  483MOL0     H63750   7.722   8.269   2.406  1.1350  0.9786 -0.1785
  483MOL0     H63751   7.643   8.118   2.330  2.2427 -3.5582  1.7375
  483MOL0     H63752   7.770   8.326   2.146 -3.0349  1.2261 -0.5846
  483MOL0     H63753   7.677   8.174   2.115  2.7137 -2.1374  0.4988
  483MOL0     H63754   7.377   8.453   2.193  0.4522 -0.0372 -0.4403
  483MOL0     H63755   8.300   8.001   2.430  1.7286  3.4646  1.1693
  483MOL0     H63756   8.359   7.853   2.625 -1.2321 -1.2675  3.7130
  484MOL0     O63757   5.864   4.188   4.392  0.0985  0.1272  0.3661
  484MOL0     C63758   5.805   4.158   4.293 -0.4232  0.3963 -0.4529
  484MOL0     O63759   5.853   4.084   4.189 -0.4863 -0.2135 -0.1135
  484MOL0     C63760   5.987   4.038   4.171  0.1662  0.1176  0.2393
  484MOL0     C63761   6.032   4.010   4.042  0.4734  0.3561  0.6771
  484MOL0     C63762   6.153   3.956   4.021 -0.0309 -0.5553 -0.0281
  484MOL0     C63763   6.239   3.924   4.121 -0.0770 -0.4545 -0.8634
  484MOL0     O63764   6.355   3.862   4.083 -0.1353 -0.2889  0.3815
  484MOL0     C63765   6.426   3.784   4.178  0.2778  0.5465 -0.0221
  484MOL0     C63766   6.548   3.708   4.132 -0.0364  0.0108  0.1726
  484MOL0     C63767   6.627   3.769   4.014 -0.2535 -0.2227  0.2294
  484MOL0     C63768   6.657   3.657   3.917  0.4539 -0.8614  0.1421
  484MOL0     C63769   6.772   3.704   3.834  0.1141  0.4862  0.5701
  484MOL0     C63770   6.752   3.822   3.736  0.3856 -1.3752 -0.4171
  484MOL0     C63771   6.854   3.831   3.631 -0.0518  0.1773 -0.4186
  484MOL0     C63772   6.826   3.948   3.533  0.7703  0.4911  0.5716
  484MOL0     N63773   6.923   3.941   3.422  0.3064  0.1687  0.2243
  484MOL0     C63774   7.059   3.948   3.435  0.1374  0.0232 -0.1234
  484MOL0     C63775   7.111   3.905   3.312 -0.0300 -0.3033 -0.2855
  484MOL0     C63776   7.249   3.906   3.255 -0.2432 -0.5067  0.3238
  484MOL0     C63777   7.360   3.894   3.367 -0.4200  0.0147  0.4547
  484MOL0     C63778   7.491   3.848   3.303  0.0131 -0.1559  0.4990
  484MOL0     C63779   7.602   3.811   3.404 -0.0861  0.3128 -0.9265
  484MOL0     O63780   7.724   3.809   3.332  0.6997  0.2014 -0.1837
  484MOL0     C63781   7.842   3.799   3.404 -1.1337 -0.0994  0.8966
  484MOL0     C63782   7.958   3.794   3.323  0.5653  0.7948 -0.3536
  484MOL0     C63783   8.087   3.800   3.378  0.4133  0.3667  0.2301
  484MOL0     C63784   8.102   3.804   3.520  0.3447  1.1241  0.6306
  484MOL0     C63785   8.237   3.808   3.582 -0.2437 -1.0067 -0.2454
  484MOL0     O63786   8.246   3.802   3.716  0.6333  0.0212 -0.4887
  484MOL0     C63787   8.361   3.782   3.783  0.2161  0.5120  0.0277
  484MOL0     C63788   8.441   3.892   3.836 -0.3515  0.1528 -0.1322
  484MOL0     C63789   8.560   3.862   3.909 -0.1633  0.5227  1.1717
  484MOL0     C63790   8.613   3.730   3.923 -0.2397  0.1499  0.1931
  484MOL0     O63791   8.738   3.719   3.989  1.1588 -0.3192  0.3435
  484MOL0     C63792   8.751   3.613   4.080  0.2912 -0.2311  0.4921
  484MOL0     C63793   8.902   3.614   4.141 -0.0705 -0.1603  0.0712
  484MOL0     C63794   8.924   3.709   4.251  0.4880  0.9661  1.1472
  484MOL0     C63795   8.871   3.644   4.378 -0.8916 -0.6690 -0.0118
  484MOL0     C63796   8.903   3.727   4.500  0.3185  0.5801 -0.0673
  484MOL0     C63797   8.846   3.873   4.502 -0.2355 -0.7996 -0.3592
  484MOL0     C63798   8.900   3.934   4.628 -0.6261 -0.9250 -0.1861
  484MOL0     C63799   8.844   4.078   4.636 -0.8023 -0.0927  0.2735
  484MOL0    Cl63800   8.808   4.173   4.488 -0.0836  0.1860  0.1740
  484MOL0     C63801   8.534   3.626   3.862  0.0631  0.0526  0.4902
  484MOL0     C63802   8.408   3.653   3.801 -0.2831 -0.6614 -0.4344
  484MOL0     O63803   8.336   3.801   3.509  0.8936  0.6575 -0.3295
  484MOL0     C63804   7.982   3.796   3.603 -0.2297 -0.2732  0.7668
  484MOL0     C63805   7.854   3.795   3.551 -0.4811 -0.7033  0.7975
  484MOL0     N63806   7.000   3.897   3.226  0.0246  1.0290  0.2737
  484MOL0     N63807   6.893   3.908   3.290  0.0505 -0.1021 -0.3049
  484MOL0     C63808   6.207   3.968   4.251  0.1388  0.0104  0.4350
  484MOL0     C63809   6.077   4.018   4.272 -0.1220 -0.5043  0.7320
  484MOL0     C63810   5.657   4.193   4.295  1.0903 -0.3472 -0.2033
  484MOL0     C63811   5.577   4.146   4.189  1.1330  1.0065 -0.2960
  484MOL0     C63812   5.444   4.179   4.174 -0.1026 -0.2136  0.2404
  484MOL0     C63813   5.389   4.269   4.265  0.2316  0.5690 -0.3510
  484MOL0     O63814   5.260   4.312   4.235 -1.1378 -0.3833 -0.6752
  484MOL0     C63815   5.192   4.420   4.295 -0.9712 -0.3862  0.2314
  484MOL0     C63816   5.231   4.560   4.243  0.6163 -0.4701  0.3909
  484MOL0     C63817   5.168   4.608   4.109 -0.8916 -0.2822  0.4142
  484MOL0     C63818   5.198   4.515   3.999  0.8556  0.1465 -0.2475
  484MOL0     C63819   5.204   4.575   3.862  0.5473 -0.1407  1.1911
  484MOL0     C63820   5.202   4.613   3.750  0.0753  0.8335  0.0128
  484MOL0     C63821   5.467   4.326   4.372  0.5849  0.6105 -1.0011
  484MOL0     C63822   5.593   4.272   4.392  0.5870 -0.6142 -0.4411
  484MOL0     H63823   5.969   4.018   3.954  0.0329  0.9547  1.0344
  484MOL0     H63824   6.167   3.925   3.918 -0.8577 -2.5398  0.4106
  484MOL0     H63825   6.359   3.718   4.234  1.3907 -2.3795 -1.8915
  484MOL0     H63826   6.464   3.852   4.254 -1.5265  1.7593 -0.1545
  484MOL0     H63827   6.511   3.611   4.097 -1.0325  0.9335 -1.4570
  484MOL0     H63828   6.617   3.696   4.216 -0.9450  1.8663  1.2239
  484MOL0     H63829   6.725   3.800   4.054  0.2683  1.4140 -2.0737
  484MOL0     H63830   6.587   3.863   3.974 -0.8735 -1.0488 -1.1432
  484MOL0     H63831   6.678   3.564   3.970 -1.5372 -2.6018 -1.9153
  484MOL0     H63832   6.565   3.630   3.865  0.2145 -0.0244  0.1183
  484MOL0     H63833   6.793   3.612   3.780  4.7331  1.3439  0.4978
  484MOL0     H63834   6.865   3.723   3.888  0.8859  1.4176 -1.0228
  484MOL0     H63835   6.754   3.917   3.790  2.7875 -1.2415 -0.6094
  484MOL0     H63836   6.651   3.803   3.699 -1.2698  2.3631  1.6724
  484MOL0     H63837   6.950   3.838   3.682  0.4981 -3.1988 -0.7700
  484MOL0     H63838   6.858   3.742   3.568 -3.9816 -1.8729  1.8071
  484MOL0     H63839   6.823   4.042   3.589 -0.1866  2.5664 -2.6990
  484MOL0     H63840   6.727   3.932   3.488  1.3718  1.0969 -1.0369
  484MOL0     H63841   7.114   3.993   3.517  2.6158  0.0781 -1.7134
  484MOL0     H63842   7.265   3.998   3.198 -0.4738 -1.9848 -2.3171
  484MOL0     H63843   7.259   3.828   3.178 -0.4873 -0.5485  0.3330
  484MOL0     H63844   7.325   3.821   3.442 -2.5802 -0.4567 -0.9335
  484MOL0     H63845   7.381   3.992   3.410 -0.2435 -0.5675  1.7803
  484MOL0     H63846   7.477   3.752   3.253  0.8875 -1.0848  1.9616
  484MOL0     H63847   7.526   3.925   3.234  0.2084  0.6275  1.4430
  484MOL0     H63848   7.568   3.716   3.446 -0.7806  1.7618  2.1394
  484MOL0     H63849   7.612   3.884   3.485 -1.4712  1.1534 -1.4850
  484MOL0     H63850   7.948   3.781   3.216 -2.3132  0.5494 -0.1252
  484MOL0     H63851   8.167   3.792   3.305 -0.6145  0.0562 -0.8858
  484MOL0     H63852   8.411   3.994   3.815 -0.6003 -0.2487 -1.8997
  484MOL0     H63853   8.619   3.945   3.948  2.6322 -0.5298 -0.4880
  484MOL0     H63854   8.732   3.514   4.036 -1.4898  1.2514 -2.4696
  484MOL0     H63855   8.668   3.621   4.151 -1.0513  1.7518 -1.1533
  484MOL0     H63856   8.977   3.639   4.065  0.7604  0.0696  0.9428
  484MOL0     H63857   8.931   3.514   4.174 -1.9131 -0.6003  0.4126
  484MOL0     H63858   8.862   3.797   4.232  0.5222  0.9152  0.7802
  484MOL0     H63859   9.026   3.746   4.264  0.1617  1.9632  0.9314
  484MOL0     H63860   8.763   3.626   4.369 -0.7349 -1.6510 -0.0311
  484MOL0     H63861   8.921   3.550   4.404 -1.2932 -1.0557 -0.6060
  484MOL0     H63862   9.012   3.733   4.506  0.6027  1.8464 -3.6225
  484MOL0     H63863   8.858   3.674   4.584 -1.7930 -0.2115 -1.5805
  484MOL0     H63864   8.737   3.878   4.489 -0.0684 -1.7800 -2.6085
  484MOL0     H63865   8.882   3.929   4.415  0.1944 -2.1405 -1.0798
  484MOL0     H63866   8.859   3.882   4.715  1.8965  1.2468  2.5346
  484MOL0     H63867   9.009   3.924   4.634 -0.3900  1.2961  0.4125
  484MOL0     H63868   8.910   4.139   4.700 -2.0994  2.4159 -0.6354
  484MOL0     H63869   8.748   4.073   4.689 -1.5871  2.6523 -0.7065
  484MOL0     H63870   8.558   3.526   3.895  0.5422 -0.3020 -0.9102
  484MOL0     H63871   8.347   3.571   3.764 -1.5510  0.7732 -1.6681
  484MOL0     H63872   7.989   3.823   3.708  1.4950  2.9517 -0.0455
  484MOL0     H63873   7.762   3.802   3.608 -0.2881  1.9218  0.9422
  484MOL0     H63874   6.281   3.954   4.329 -0.8121 -0.6486  1.2467
  484MOL0     H63875   6.035   4.044   4.369 -5.0183  1.3076 -1.5809
  484MOL0     H63876   5.621   4.083   4.111  0.1837 -2.0967  1.5067
  484MOL0     H63877   5.380   4.141   4.095  0.9553 -1.4246 -0.0724
  484MOL0     H63878   5.200   4.412   4.404 -1.7114 -1.9549  0.1982
  484MOL0     H63879   5.086   4.407   4.275 -2.1571  3.5731  2.7298
  484MOL0     H63880   5.198   4.626   4.324  0.2998 -0.7441  0.4862
  484MOL0     H63881   5.337   4.586   4.246  0.7853 -0.9822 -0.7505
  484MOL0     H63882   5.216   4.704   4.087 -2.4133  1.0878  2.7089
  484MOL0     H63883   5.063   4.632   4.125 -0.8089  1.3815 -1.1637
  484MOL0     H63884   5.298   4.476   4.021 -0.3811 -0.9714  4.5598
  484MOL0     H63885   5.132   4.428   3.996 -0.5740  1.2041 -0.7502
  484MOL0     H63886   5.198   4.662   3.655 -1.5157  1.7445  0.5167
  484MOL0     H63887   5.431   4.390   4.452  0.8154 -0.4436 -0.0211
  484MOL0     H63888   5.655   4.310   4.472 -2.5308  1.2670  1.2558
  485MOL0     O63889   1.282   2.999   1.964  0.6408  0.2105 -0.5948
  485MOL0     C63890   1.234   3.106   1.987 -0.0835  0.4743 -0.1061
  485MOL0     O63891   1.300   3.218   2.022 -0.0178 -0.9908  0.3846
  485MOL0     C63892   1.437   3.231   2.031  0.0579 -0.3572  0.2401
  485MOL0     C63893   1.489   3.250   2.162  0.1517 -0.0193  0.1756
  485MOL0     C63894   1.625   3.257   2.176 -0.0010  0.3146 -0.1727
  485MOL0     C63895   1.718   3.254   2.061  0.1931  0.3770 -0.4448
  485MOL0     O63896   1.855   3.257   2.058  0.4626  0.0253 -0.0207
  485MOL0     C63897   1.934   3.199   2.157  0.4639 -0.4586  0.6340
  485MOL0     C63898   2.075   3.189   2.099 -0.8846  0.2303  0.1030
  485MOL0     C63899   2.171   3.123   2.201  0.2014 -0.8090 -0.6356
  485MOL0     C63900   2.133   2.997   2.276  0.5365  0.9021 -0.9126
  485MOL0     C63901   2.216   2.971   2.401 -0.3324 -0.0013  0.2381
  485MOL0     C63902   2.212   2.821   2.436 -0.7323  0.2309  0.0869
  485MOL0     C63903   2.289   2.800   2.568  0.4464  0.3190 -0.7806
  485MOL0     C63904   2.207   2.806   2.690 -0.4582  0.2154 -0.2936
  485MOL0     N63905   2.291   2.790   2.809 -0.0387  0.3756  0.2300
  485MOL0     C63906   2.311   2.669   2.880  0.3064 -0.6456 -0.0710
  485MOL0     C63907   2.397   2.702   2.976  0.4232  1.1700 -0.9397
  485MOL0     C63908   2.427   2.586   3.080 -0.0382 -0.6629 -0.4927
  485MOL0     C63909   2.518   2.637   3.200  0.2956  0.2927  0.2620
  485MOL0     C63910   2.444   2.741   3.286  0.0870  0.7728 -0.2536
  485MOL0     C63911   2.372   2.676   3.405 -1.2658 -0.8202  0.6272
  485MOL0     O63912   2.470   2.626   3.506 -0.2071 -0.4022  0.4320
  485MOL0     C63913   2.429   2.539   3.596 -0.2614  0.3075 -0.6808
  485MOL0     C63914   2.291   2.539   3.637  0.1898 -0.4845  0.3522
  485MOL0     C63915   2.252   2.435   3.726  0.0617 -0.3068 -0.7452
  485MOL0     C63916   2.326   2.327   3.773 -0.0845 -0.5881  1.3928
  485MOL0     C63917   2.270   2.220   3.840  0.1679 -0.0702 -0.4244
  485MOL0     O63918   2.154   2.241   3.911 -0.3453  0.0085  0.4328
  485MOL0     C63919   2.076   2.128   3.947  0.3486 -0.4445  1.5159
  485MOL0     C63920   2.113   2.043   4.051  1.5415 -0.7715  0.3939
  485MOL0     C63921   2.033   1.937   4.085  0.9227  0.8573  0.0648
  485MOL0     C63922   1.898   1.937   4.038  0.8444  0.5955 -0.7223
  485MOL0     O63923   1.824   1.818   4.066  0.1290 -0.0077  0.4616
  485MOL0     C63924   1.699   1.796   4.002 -0.0550  0.0171 -0.1961
  485MOL0     C63925   1.583   1.846   4.095  0.1218  0.5847 -0.1965
  485MOL0     C63926   1.611   1.811   4.242  0.4810  0.2837  0.5588
  485MOL0     C63927   1.512   1.871   4.343  0.3819 -0.0865 -1.1147
  485MOL0     C63928   1.377   1.790   4.385 -0.8422  0.1644  0.1066
  485MOL0     C63929   1.413   1.665   4.461  0.4663 -0.2004  0.7163
  485MOL0     C63930   1.499   1.681   4.592  0.5891 -0.0259 -0.0555
  485MOL0     C63931   1.594   1.565   4.597  0.0691 -0.4158  0.7359
  485MOL0    Cl63932   1.501   1.406   4.626  0.4533 -0.3410 -0.2585
  485MOL0     C63933   1.856   2.033   3.951  0.4344 -0.4012 -0.9448
  485MOL0     C63934   1.953   2.119   3.894  0.1781 -0.3330  0.4653
  485MOL0     O63935   2.319   2.110   3.823 -0.6356 -0.1625 -0.8611
  485MOL0     C63936   2.463   2.338   3.725 -0.8430 -0.2316  0.8737
  485MOL0     C63937   2.509   2.436   3.636 -0.1310 -0.2811 -0.1332
  485MOL0     N63938   2.430   2.832   2.967 -0.8088 -1.2601  0.1965
  485MOL0     N63939   2.373   2.881   2.864  0.5236  0.3579 -0.2186
  485MOL0     C63940   1.656   3.242   1.935 -0.1079 -0.0626  0.3487
  485MOL0     C63941   1.515   3.225   1.925  0.4019 -0.2411 -0.1215
  485MOL0     C63942   1.091   3.121   1.980 -0.2846 -0.3925 -0.4740
  485MOL0     C63943   1.027   3.242   1.997 -0.2054 -0.0610 -1.0392
  485MOL0     C63944   0.890   3.250   2.000 -0.6066  0.4067  0.4210
  485MOL0     C63945   0.800   3.138   1.978  0.2480  0.5000 -0.7452
  485MOL0     O63946   0.675   3.168   1.993  1.0572  0.4798  0.1229
  485MOL0     C63947   0.573   3.071   1.978 -0.0234 -0.1075  0.4972
  485MOL0     C63948   0.548   2.993   2.113  0.8407 -0.2989 -0.0926
  485MOL0     C63949   0.444   2.885   2.088 -0.7171 -0.0722  0.3631
  485MOL0     C63950   0.399   2.825   2.220  0.1435  0.7374  0.2030
  485MOL0     C63951   0.508   2.760   2.283 -0.7099  0.4897 -0.1733
  485MOL0     C63952   0.607   2.705   2.331  0.1874  0.0405  0.7731
  485MOL0     C63953   0.866   3.017   1.969  0.1718 -0.7412 -0.4131
  485MOL0     C63954   1.008   3.008   1.967 -0.0588  1.3003  0.7308
  485MOL0     H63955   1.422   3.270   2.245 -1.6406  1.9946 -1.6301
  485MOL0     H63956   1.656   3.270   2.279  1.4422  1.2094 -0.6843
  485MOL0     H63957   1.897   3.096   2.163 -1.0275  0.0916  1.3500
  485MOL0     H63958   1.906   3.248   2.250 -4.5020 -2.1437  0.3458
  485MOL0     H63959   2.092   3.293   2.071 -1.6526  0.4958  0.6000
  485MOL0     H63960   2.087   3.135   2.005  3.5134  2.2086 -0.7361
  485MOL0     H63961   2.181   3.197   2.281 -2.6452 -0.5616 -0.4175
  485MOL0     H63962   2.268   3.098   2.157  0.5793 -1.0250  0.2835
  485MOL0     H63963   2.029   3.004   2.310  0.6561 -1.0131 -0.0144
  485MOL0     H63964   2.142   2.908   2.213 -3.5008 -1.0622  0.9198
  485MOL0     H63965   2.173   3.030   2.482  1.0189 -0.7192  1.5220
  485MOL0     H63966   2.319   2.998   2.377 -0.4890 -0.7493 -1.4616
  485MOL0     H63967   2.259   2.759   2.359  0.5041  2.1898 -0.8326
  485MOL0     H63968   2.107   2.793   2.445 -0.0975 -1.9128  1.6227
  485MOL0     H63969   2.342   2.705   2.556 -1.2024 -0.8146  0.3921
  485MOL0     H63970   2.361   2.882   2.579  1.0003 -0.4076  1.5175
  485MOL0     H63971   2.136   2.725   2.678  2.2914 -2.8476  2.1239
  485MOL0     H63972   2.173   2.909   2.676  3.4796  1.2815 -4.3946
  485MOL0     H63973   2.268   2.570   2.870 -1.1437  0.0276 -0.7786
  485MOL0     H63974   2.488   2.509   3.032 -1.4977 -2.3939  0.3434
  485MOL0     H63975   2.336   2.534   3.110  0.3015 -1.5089 -0.9135
  485MOL0     H63976   2.613   2.678   3.164 -0.7371  1.7710 -0.9067
  485MOL0     H63977   2.543   2.540   3.246  0.2159 -1.5338 -3.1940
  485MOL0     H63978   2.511   2.817   3.328 -3.9227  4.3533  0.3873
  485MOL0     H63979   2.374   2.800   3.226 -0.6907 -0.2401 -0.3678
  485MOL0     H63980   2.312   2.597   3.361 -0.8843 -0.0026 -1.5344
  485MOL0     H63981   2.309   2.753   3.450 -2.0370 -1.3024  0.3889
  485MOL0     H63982   2.221   2.617   3.609  2.5689  0.6593 -3.1193
  485MOL0     H63983   2.151   2.439   3.766  0.5156 -0.8426  0.5000
  485MOL0     H63984   2.215   2.048   4.085  1.9261 -0.1650 -0.7841
  485MOL0     H63985   2.070   1.852   4.142 -0.0702 -0.1091 -0.6778
  485MOL0     H63986   1.693   1.687   3.990 -0.6251  0.3008 -3.0172
  485MOL0     H63987   1.691   1.844   3.905 -2.3536  0.2005  0.0176
  485MOL0     H63988   1.504   1.775   4.066 -0.0245  0.8671 -0.4873
  485MOL0     H63989   1.556   1.952   4.094  0.5716  0.8019  2.4530
  485MOL0     H63990   1.704   1.860   4.275  1.3486 -0.2263 -1.0134
  485MOL0     H63991   1.626   1.704   4.260 -0.2740  0.4148  2.1458
  485MOL0     H63992   1.570   1.894   4.433  0.4524 -1.8129 -0.6857
  485MOL0     H63993   1.470   1.965   4.307 -3.3812 -1.3156 -0.3792
  485MOL0     H63994   1.311   1.766   4.301  1.1655 -3.2583 -0.7090
  485MOL0     H63995   1.332   1.854   4.461  0.9000  1.1181  0.3843
  485MOL0     H63996   1.452   1.595   4.387 -0.0855  0.6588 -0.4033
  485MOL0     H63997   1.319   1.613   4.483 -0.0898 -0.0834 -1.2532
  485MOL0     H63998   1.545   1.780   4.597 -1.9429  1.2430 -0.3579
  485MOL0     H63999   1.419   1.677   4.666  0.3451  0.4389 -0.2884
  485MOL0     H64000   1.664   1.581   4.680  2.5984 -1.3748 -1.0865
  485MOL0     H64001   1.663   1.564   4.512  1.7133  1.0103  1.9623
  485MOL0     H64002   1.761   2.043   3.900 -0.5327  2.0536  1.0994
  485MOL0     H64003   1.937   2.188   3.812  3.3336 -0.7411 -0.6292
  485MOL0     H64004   2.532   2.259   3.755 -0.9959 -0.2556  1.1606
  485MOL0     H64005   2.614   2.430   3.607 -0.2707  0.2990 -0.7777
  485MOL0     H64006   1.710   3.227   1.843  0.0977 -4.2814  0.9688
  485MOL0     H64007   1.476   3.195   1.829 -0.7706 -1.9550  0.8247
  485MOL0     H64008   1.076   3.338   2.015  2.0378 -0.9429 -2.0908
  485MOL0     H64009   0.847   3.345   2.029 -0.1212  1.0608 -0.9298
  485MOL0     H64010   0.597   2.999   1.899 -1.2908  0.0110 -0.0244
  485MOL0     H64011   0.488   3.133   1.947  1.0616  1.7162  1.0028
  485MOL0     H64012   0.649   2.959   2.136  0.7103 -0.7410 -0.1504
  485MOL0     H64013   0.507   3.058   2.191 -2.7945 -1.0092 -1.2108
  485MOL0     H64014   0.491   2.809   2.025  0.1475 -0.7911  1.8214
  485MOL0     H64015   0.357   2.928   2.037 -1.7571  0.6186  2.5919
  485MOL0     H64016   0.371   2.912   2.280  2.7782  1.9038 -0.1131
  485MOL0     H64017   0.311   2.760   2.213  0.0139  0.9789 -0.4325
  485MOL0     H64018   0.688   2.652   2.377  2.3607  2.1099 -0.4061
  485MOL0     H64019   0.815   2.921   1.963 -0.0024 -0.6086 -1.2445
  485MOL0     H64020   1.050   2.917   1.926 -1.1011 -0.0139  2.4510
  486MOL0     O64021  11.271   8.896   0.187 -0.0085  1.3960 -0.3386
  486MOL0     C64022  11.197   8.871   0.094  0.0538 -0.4579 -0.1299
  486MOL0     O64023  11.063   8.885   0.090 -0.3568 -0.1880 -0.0034
  486MOL0     C64024  11.009   8.973   0.178  0.3391 -0.1193  0.0464
  486MOL0     C64025  11.024   9.111   0.170 -1.2597 -0.3276 -0.2304
  486MOL0     C64026  10.968   9.198   0.259 -0.2444 -0.1910 -0.2005
  486MOL0     C64027  10.887   9.150   0.363  0.0539 -0.3039  1.0648
  486MOL0     O64028  10.840   9.249   0.451 -0.1974  0.3385 -0.1174
  486MOL0     C64029  10.765   9.203   0.562  1.1462 -0.0402  0.6638
  486MOL0     C64030  10.750   9.322   0.661 -0.8509 -0.1361 -0.5729
  486MOL0     C64031  10.862   9.323   0.772 -0.5314 -0.1142  0.2036
  486MOL0     C64032  11.004   9.331   0.736 -0.4086 -0.4563 -0.4452
  486MOL0     C64033  11.086   9.415   0.838 -0.0915 -0.1754  0.6188
  486MOL0     C64034  11.089   9.339   0.973 -0.4433  0.1117 -0.5058
  486MOL0     C64035  11.181   9.213   0.967 -0.0881  0.3099  0.1782
  486MOL0     C64036  11.249   9.183   1.104 -0.0799 -0.2214 -1.3825
  486MOL0     N64037  11.147   9.152   1.207 -0.4101  0.1108  0.7791
  486MOL0     C64038  11.054   9.237   1.267 -0.0246  0.5563  0.2634
  486MOL0     C64039  11.018   9.175   1.386  0.7111  0.0042  1.2007
  486MOL0     C64040  10.924   9.214   1.492  0.0154  0.0562 -0.8380
  486MOL0     C64041  10.863   9.356   1.500  0.2248  0.1297 -0.3427
  486MOL0     C64042  10.738   9.355   1.590  0.2808  0.0768  0.1054
  486MOL0     C64043  10.654   9.485   1.591  0.0047  0.1706  0.1057
  486MOL0     O64044  10.621   9.539   1.720 -0.8507 -0.3386  0.2616
  486MOL0     C64045  10.721   9.625   1.795  0.9596  0.2411  0.5980
  486MOL0     C64046  10.848   9.661   1.747  0.3514 -0.5100 -0.1407
  486MOL0     C64047  10.938   9.747   1.823  0.1882  0.9591  0.3317
  486MOL0     C64048  10.902   9.774   1.948  0.2035 -1.7133 -0.4721
  486MOL0     C64049  11.006   9.841   2.040 -0.2569  0.2882  0.2675
  486MOL0     O64050  10.963   9.842   2.167  0.5294 -0.1687 -0.1697
  486MOL0     C64051  11.044   9.909   2.262 -1.6989  0.2707  0.3347
  486MOL0     C64052  11.005  10.040   2.306  0.2649 -0.3935 -1.0390
  486MOL0     C64053  11.090  10.092   2.409  1.0438  2.2353  0.2680
  486MOL0     C64054  11.197  10.018   2.470 -0.6957 -0.1095 -0.7641
  486MOL0     O64055  11.272  10.075   2.566  0.1335 -0.5143 -0.1938
  486MOL0     C64056  11.412  10.092   2.541 -0.0646  0.4431  0.8594
  486MOL0     C64057  11.434  10.210   2.438 -1.0288 -0.0346 -0.5669
  486MOL0     C64058  11.367  10.348   2.476 -0.5202  0.2760 -0.0240
  486MOL0     C64059  11.429  10.450   2.380  0.1670  0.0105  0.4745
  486MOL0     C64060  11.378  10.597   2.410  1.2084  0.2132  0.1684
  486MOL0     C64061  11.450  10.690   2.310 -0.8120  0.0873 -0.1187
  486MOL0     C64062  11.382  10.829   2.317 -0.4122 -0.1823  0.4522
  486MOL0     C64063  11.429  10.918   2.210  0.0292 -0.6100  0.0104
  486MOL0    Cl64064  11.382  10.853   2.044  0.2893 -0.1600  0.4196
  486MOL0     C64065  11.221   9.888   2.422 -0.3495  0.1966 -0.5136
  486MOL0     C64066  11.155   9.839   2.312  0.1476 -0.3206 -0.1407
  486MOL0     O64067  11.116   9.883   1.999 -0.2767  0.3539 -0.0852
  486MOL0     C64068  10.779   9.734   2.005  1.9360  0.7554 -0.4681
  486MOL0     C64069  10.691   9.661   1.929  0.0450 -0.2426 -0.1407
  486MOL0     N64070  11.073   9.043   1.385  0.4381 -0.0476 -0.7468
  486MOL0     N64071  11.152   9.038   1.281 -0.4839  0.0051 -0.2890
  486MOL0     C64072  10.880   9.014   0.376 -0.3198  0.8715  0.4589
  486MOL0     C64073  10.931   8.928   0.280 -0.5929 -0.2003 -0.1534
  486MOL0     C64074  11.261   8.809  -0.022 -0.3200  0.3025  0.6500
  486MOL0     C64075  11.191   8.759  -0.140  0.0722 -0.6284  0.7004
  486MOL0     C64076  11.256   8.710  -0.248 -0.3131  0.8103  0.1555
  486MOL0     C64077  11.398   8.708  -0.254 -0.0813 -0.2748 -0.3644
  486MOL0     O64078  11.465   8.643  -0.354  0.3592  0.8279  0.7579
  486MOL0     C64079  11.611   8.630  -0.371 -0.3909 -0.0219 -0.3197
  486MOL0     C64080  11.647   8.699  -0.491  0.1121 -0.8098  0.4232
  486MOL0     C64081  11.607   8.847  -0.497 -0.7471 -0.5806 -0.2798
  486MOL0     C64082  11.711   8.924  -0.578 -0.2367 -0.5337  0.0300
  486MOL0     C64083  11.664   9.065  -0.605 -0.6273  0.4435 -0.9702
  486MOL0     C64084  11.631   9.183  -0.618  0.5401 -0.0566  0.0555
  486MOL0     C64085  11.468   8.760  -0.142  0.9861 -0.3845 -0.5517
  486MOL0     C64086  11.401   8.811  -0.027  0.2972 -0.0853 -0.0163
  486MOL0     H64087  11.090   9.152   0.094 -2.0267 -0.7241 -1.1242
  486MOL0     H64088  11.000   9.302   0.258  1.6137 -0.6600  1.5361
  486MOL0     H64089  10.809   9.112   0.604  0.7481 -0.1018  0.9425
  486MOL0     H64090  10.670   9.164   0.527  0.3896  1.3305  1.1181
  486MOL0     H64091  10.660   9.302   0.720 -0.0006 -1.2192  0.4134
  486MOL0     H64092  10.739   9.421   0.616  1.8479  0.3746 -0.2679
  486MOL0     H64093  10.863   9.222   0.815  2.4556 -0.5480 -0.6624
  486MOL0     H64094  10.837   9.400   0.845 -2.3411  1.5417 -2.0526
  486MOL0     H64095  11.050   9.232   0.738 -0.7407 -0.6188 -0.9034
  486MOL0     H64096  11.004   9.381   0.639  1.6325  0.1247 -0.2072
  486MOL0     H64097  11.045   9.516   0.851 -0.7268 -0.6444  2.5783
  486MOL0     H64098  11.187   9.428   0.797 -1.0773 -1.7098 -2.6640
  486MOL0     H64099  10.991   9.302   1.006 -0.8088 -1.0981 -2.7555
  486MOL0     H64100  11.132   9.401   1.052  2.0389 -0.3903 -1.3800
  486MOL0     H64101  11.128   9.128   0.924 -1.5653  2.5641 -2.9235
  486MOL0     H64102  11.265   9.233   0.899  2.1200 -2.7383  1.8056
  486MOL0     H64103  11.312   9.264   1.140 -3.0485  0.8482  1.9435
  486MOL0     H64104  11.308   9.092   1.085  0.5095 -0.4990  1.3311
  486MOL0     H64105  11.014   9.331   1.232 -2.4723 -1.1197 -1.8535
  486MOL0     H64106  10.977   9.194   1.586  1.2778 -2.4819 -2.0002
  486MOL0     H64107  10.835   9.150   1.490 -0.5887  0.7884  0.7301
  486MOL0     H64108  10.829   9.384   1.399  0.5717 -1.1131 -0.8252
  486MOL0     H64109  10.934   9.430   1.538 -0.0710 -0.4684  1.4621
  486MOL0     H64110  10.662   9.279   1.571  0.1332  0.0197  0.9019
  486MOL0     H64111  10.769   9.332   1.692 -3.3084 -1.7776  0.9430
  486MOL0     H64112  10.555   9.456   1.552 -0.2011 -1.5229  1.7430
  486MOL0     H64113  10.686   9.571   1.532  1.2339  2.3071  3.5938
  486MOL0     H64114  10.876   9.630   1.647 -1.7659  1.0470 -1.3043
  486MOL0     H64115  11.035   9.772   1.780 -1.2727 -1.3177 -5.2959
  486MOL0     H64116  10.913  10.080   2.263  0.1256 -1.2568 -1.5626
  486MOL0     H64117  11.050  10.188   2.440 -3.9292  1.0382 -1.4824
  486MOL0     H64118  11.456   9.996   2.514 -2.2597 -0.4595  0.2884
  486MOL0     H64119  11.468  10.110   2.633  1.5347 -2.1275  0.4670
  486MOL0     H64120  11.390  10.185   2.341 -0.3298  2.1568 -1.5142
  486MOL0     H64121  11.541  10.221   2.417 -1.5641  3.6237 -2.3552
  486MOL0     H64122  11.413  10.370   2.573  3.8832  1.5595 -2.1453
  486MOL0     H64123  11.258  10.349   2.472 -0.7610 -2.0594  2.6599
  486MOL0     H64124  11.538  10.439   2.384  0.0235 -1.2725  1.5389
  486MOL0     H64125  11.386  10.412   2.287  1.2403  1.6437 -0.7406
  486MOL0     H64126  11.391  10.631   2.514 -2.1767  1.7451  0.2056
  486MOL0     H64127  11.272  10.594   2.385  1.8521  1.0888 -3.0717
  486MOL0     H64128  11.433  10.654   2.209 -0.2578 -1.7135  0.3975
  486MOL0     H64129  11.557  10.685   2.332 -0.4619 -2.6042 -1.9460
  486MOL0     H64130  11.275  10.815   2.300 -0.1930 -0.5097 -0.7558
  486MOL0     H64131  11.405  10.873   2.414 -1.3156  0.7320  0.2771
  486MOL0     H64132  11.538  10.924   2.211  0.1408 -1.5546 -2.0894
  486MOL0     H64133  11.388  11.018   2.228 -1.0303 -1.6278  4.4672
  486MOL0     H64134  11.306   9.836   2.465 -0.5656 -0.7611 -1.2076
  486MOL0     H64135  11.170   9.737   2.278 -2.1128 -0.3531 -1.2301
  486MOL0     H64136  10.755   9.767   2.105 -1.0426  0.6768 -1.0592
  486MOL0     H64137  10.592   9.625   1.958  0.1890 -1.7616 -1.3841
  486MOL0     H64138  10.829   8.971   0.462 -0.7626  1.4587  0.4922
  486MOL0     H64139  10.917   8.822   0.299 -0.6539 -0.6581 -2.4304
  486MOL0     H64140  11.083   8.754  -0.153  0.2652 -0.9712 -1.0594
  486MOL0     H64141  11.209   8.647  -0.323 -2.9873  1.3027  1.2916
  486MOL0     H64142  11.643   8.526  -0.374  0.9289  0.3702 -2.1904
  486MOL0     H64143  11.663   8.679  -0.288 -3.6115  3.9571 -0.3177
  486MOL0     H64144  11.755   8.687  -0.504  0.2625  1.9071 -2.0102
  486MOL0     H64145  11.596   8.668  -0.583  0.6694 -1.0648  0.1928
  486MOL0     H64146  11.610   8.889  -0.397  2.4289 -0.8068 -0.1548
  486MOL0     H64147  11.510   8.864  -0.543 -1.6409  0.2797  1.8112
  486MOL0     H64148  11.803   8.931  -0.518 -0.7406  2.3518  0.6492
  486MOL0     H64149  11.726   8.879  -0.676 -0.6307  1.4998 -1.0228
  486MOL0     H64150  11.589   9.280  -0.636  0.4850 -0.5203 -2.6532
  486MOL0     H64151  11.576   8.765  -0.133  1.2617  2.7846 -3.6057
  486MOL0     H64152  11.459   8.858   0.052 -0.1208  0.6621 -0.1374
  487MOL0     O64153   0.476   5.608   7.280 -0.1028  0.5992 -0.5260
  487MOL0     C64154   0.369   5.654   7.311  0.1542 -0.7680 -1.1579
  487MOL0     O64155   0.352   5.785   7.361 -0.2074  0.3160 -0.0213
  487MOL0     C64156   0.460   5.859   7.403 -0.6107  0.8080  0.0656
  487MOL0     C64157   0.574   5.801   7.465 -0.0842 -0.2159  0.2042
  487MOL0     C64158   0.686   5.880   7.485 -0.9083  0.5503 -0.1609
  487MOL0     C64159   0.692   6.011   7.449 -0.9078 -0.2037  0.0255
  487MOL0     O64160   0.792   6.096   7.494  0.2077 -0.5978 -0.1177
  487MOL0     C64161   0.816   6.109   7.628 -0.2859  0.5340  0.0413
  487MOL0     C64162   0.952   6.182   7.641  0.1597  0.7826 -0.1432
  487MOL0     C64163   1.013   6.157   7.777 -0.2843  0.2475  0.6581
  487MOL0     C64164   1.160   6.216   7.776 -0.3197  0.8538 -0.6706
  487MOL0     C64165   1.158   6.372   7.820  0.0516  0.4688  0.0247
  487MOL0     C64166   1.304   6.410   7.837  0.4614  0.2672 -0.0188
  487MOL0     C64167   1.321   6.556   7.859  1.2590 -0.5373 -1.2314
  487MOL0     C64168   1.460   6.616   7.844  0.7111 -0.0125 -0.5532
  487MOL0     N64169   1.469   6.752   7.918  0.2019 -0.3399  0.1103
  487MOL0     C64170   1.579   6.841   7.921 -0.5040 -0.7429  0.1311
  487MOL0     C64171   1.543   6.936   8.014 -0.3563  0.5617  0.9077
  487MOL0     C64172   1.618   7.061   8.046 -0.4255 -0.6004  0.1332
  487MOL0     C64173   1.718   7.035   8.161 -0.1257  1.1943 -0.4898
  487MOL0     C64174   1.839   6.957   8.110 -0.4761 -0.9046 -0.3316
  487MOL0     C64175   1.952   6.937   8.218  0.1495  0.3370  0.5007
  487MOL0     O64176   1.973   7.050   8.294  0.3566 -0.7499 -0.7178
  487MOL0     C64177   2.082   7.071   8.367 -0.1105  0.0967  0.1423
  487MOL0     C64178   2.128   7.192   8.411  0.1406  1.0872 -1.0918
  487MOL0     C64179   2.223   7.202   8.513  0.1063  0.1397  0.3070
  487MOL0     C64180   2.271   7.087   8.582  0.0919 -0.9152  0.3548
  487MOL0     C64181   2.349   7.107   8.707  0.0317 -0.4102  0.6574
  487MOL0     O64182   2.418   7.220   8.714 -0.4595 -0.3370  0.4347
  487MOL0     C64183   2.481   7.258   8.828  0.6230 -0.7443  0.3622
  487MOL0     C64184   2.409   7.274   8.951 -0.1710  0.4185 -0.7059
  487MOL0     C64185   2.467   7.324   9.071 -0.3570  0.0666 -0.4910
  487MOL0     C64186   2.606   7.357   9.066  0.9132 -0.2963  0.6542
  487MOL0     O64187   2.686   7.397   9.170  0.3252 -0.1533  0.3713
  487MOL0     C64188   2.655   7.348   9.294  0.0935  0.5409 -1.1081
  487MOL0     C64189   2.781   7.351   9.386 -0.6378 -0.2294 -0.0676
  487MOL0     C64190   2.876   7.473   9.380 -0.4975  0.7889 -0.0197
  487MOL0     C64191   2.888   7.527   9.524 -0.2009 -0.3273  0.7473
  487MOL0     C64192   2.975   7.653   9.528 -0.1000 -0.5690  0.5086
  487MOL0     C64193   2.983   7.689   9.677  0.1196  0.6523  0.3271
  487MOL0     C64194   3.072   7.800   9.717 -0.2873  0.1358  0.0325
  487MOL0     C64195   3.222   7.762   9.707  0.2697 -0.7501 -0.2065
  487MOL0    Cl64196   3.319   7.893   9.781 -0.1236  0.4583 -0.1203
  487MOL0     C64197   2.675   7.346   8.947  0.0618 -0.3623  0.1801
  487MOL0     C64198   2.612   7.306   8.834  0.6915  0.0832 -0.4089
  487MOL0     O64199   2.340   7.022   8.800  0.5263  0.6905 -0.5676
  487MOL0     C64200   2.220   6.966   8.535 -0.6497  0.4440  0.0324
  487MOL0     C64201   2.142   6.955   8.426  0.2024  0.6420  0.7396
  487MOL0     N64202   1.422   6.908   8.076  0.1116 -0.2364  0.5690
  487MOL0     N64203   1.378   6.800   8.016  0.4126  0.0916  0.3756
  487MOL0     C64204   0.574   6.066   7.397 -0.0190  0.7407  0.3860
  487MOL0     C64205   0.466   5.990   7.367  0.0536  0.5823  0.6763
  487MOL0     C64206   0.252   5.574   7.270 -0.2961 -0.2141 -0.8573
  487MOL0     C64207   0.127   5.618   7.318  0.2224 -0.3474  0.4629
  487MOL0     C64208   0.014   5.541   7.297 -0.5181 -0.3743 -0.3521
  487MOL0     C64209   0.022   5.416   7.229 -0.1559  0.3556 -1.0035
  487MOL0     O64210  -0.084   5.334   7.212 -0.3670  0.0340 -0.4190
  487MOL0     C64211  -0.215   5.388   7.224  0.0257 -0.0591 -0.3045
  487MOL0     C64212  -0.331   5.286   7.180 -0.7179  0.2492 -0.9687
  487MOL0     C64213  -0.350   5.180   7.291  0.1311  0.0912  0.1427
  487MOL0     C64214  -0.427   5.049   7.243 -0.8928 -0.6163 -0.1418
  487MOL0     C64215  -0.568   5.082   7.230 -0.1138  0.2097 -0.0649
  487MOL0     C64216  -0.678   5.120   7.210 -0.0227 -0.1840  0.5716
  487MOL0     C64217   0.150   5.374   7.197  0.1684  0.5065  0.3287
  487MOL0     C64218   0.268   5.445   7.211 -0.1843 -0.5034 -0.0222
  487MOL0     H64219   0.563   5.696   7.492  0.3280 -0.7484 -1.5957
  487MOL0     H64220   0.771   5.835   7.536 -0.6302 -1.0054 -1.8984
  487MOL0     H64221   0.818   6.009   7.673  1.1652 -0.1453 -1.4410
  487MOL0     H64222   0.740   6.171   7.676  2.3494  2.5826  1.8762
  487MOL0     H64223   0.947   6.291   7.628 -0.3059  0.6604 -1.0600
  487MOL0     H64224   1.018   6.133   7.568 -2.0103 -3.1103  0.2887
  487MOL0     H64225   1.016   6.052   7.808  2.1663 -0.0003 -0.2292
  487MOL0     H64226   0.953   6.211   7.851  0.4831  2.5663 -0.2915
  487MOL0     H64227   1.224   6.155   7.841  0.5719  3.0574  0.6504
  487MOL0     H64228   1.202   6.220   7.675  0.8675  1.4212 -0.1795
  487MOL0     H64229   1.098   6.386   7.910  1.7310  0.8569  1.1271
  487MOL0     H64230   1.118   6.431   7.737 -0.8205 -2.3484 -1.6962
  487MOL0     H64231   1.361   6.382   7.748  1.4497 -1.2370  1.0179
  487MOL0     H64232   1.347   6.355   7.922 -0.9193  0.8036  1.0628
  487MOL0     H64233   1.258   6.630   7.809 -0.7650  0.5727  2.6171
  487MOL0     H64234   1.289   6.578   7.961 -1.8499 -1.2108 -1.9594
  487MOL0     H64235   1.492   6.620   7.739  0.2700 -3.5462 -0.9525
  487MOL0     H64236   1.532   6.549   7.892 -0.1632  1.8500  3.8404
  487MOL0     H64237   1.650   6.852   7.839 -2.3208 -1.7556 -1.6908
  487MOL0     H64238   1.543   7.138   8.068 -0.4614  0.2317 -2.6103
  487MOL0     H64239   1.671   7.110   7.965  1.7726 -3.2049 -0.1289
  487MOL0     H64240   1.664   6.979   8.238  1.0085  0.5762 -0.1236
  487MOL0     H64241   1.753   7.129   8.203 -0.8904  1.2537  0.0373
  487MOL0     H64242   1.815   6.858   8.070 -2.0332  0.6638 -3.6738
  487MOL0     H64243   1.873   7.018   8.026 -1.5610 -1.4756 -1.2107
  487MOL0     H64244   2.047   6.925   8.165 -0.3497  1.4312 -0.7026
  487MOL0     H64245   1.933   6.847   8.276 -2.6347  0.0192 -0.7739
  487MOL0     H64246   2.081   7.284   8.380 -2.9067  1.6170  3.8700
  487MOL0     H64247   2.245   7.300   8.553 -3.1555 -0.2598  3.5644
  487MOL0     H64248   2.305   7.244   8.953 -1.3187  3.8801 -1.6430
  487MOL0     H64249   2.410   7.334   9.162 -1.1781  0.5737 -1.0426
  487MOL0     H64250   2.619   7.246   9.278  0.0629  0.7509 -2.5416
  487MOL0     H64251   2.578   7.410   9.339 -2.2842 -1.7746 -1.7156
  487MOL0     H64252   2.839   7.259   9.373 -1.7648 -1.2298  1.5978
  487MOL0     H64253   2.745   7.342   9.489 -0.3591  2.9799  0.3929
  487MOL0     H64254   2.826   7.544   9.314  0.3077  0.7611 -0.6807
  487MOL0     H64255   2.972   7.447   9.335  0.8299  2.4233  1.7179
  487MOL0     H64256   2.786   7.553   9.556 -0.3500  1.0694 -0.7264
  487MOL0     H64257   2.936   7.452   9.587  2.4306 -1.0642 -1.9284
  487MOL0     H64258   2.943   7.739   9.469  2.3539  0.1568  0.1092
  487MOL0     H64259   3.075   7.620   9.496 -0.5683 -2.6333  1.0890
  487MOL0     H64260   3.003   7.599   9.735 -0.1399 -1.3305 -2.4568
  487MOL0     H64261   2.883   7.715   9.714 -0.4779 -1.7507  0.5587
  487MOL0     H64262   3.060   7.890   9.658 -2.1672 -0.3157 -0.3392
  487MOL0     H64263   3.044   7.818   9.821  0.3622 -0.2771  0.2855
  487MOL0     H64264   3.258   7.757   9.604  1.8743  1.0333  0.2046
  487MOL0     H64265   3.252   7.666   9.750 -0.6840 -2.3511 -2.8389
  487MOL0     H64266   2.782   7.361   8.954 -0.2237  1.6700  1.3396
  487MOL0     H64267   2.679   7.302   8.749 -0.1892 -2.7944 -1.0743
  487MOL0     H64268   2.240   6.872   8.586 -3.2411 -0.8485 -1.1305
  487MOL0     H64269   2.104   6.858   8.395 -1.6828  1.9713 -1.4201
  487MOL0     H64270   0.571   6.173   7.380  0.2542  0.3560 -2.6439
  487MOL0     H64271   0.390   6.030   7.300 -1.7691 -3.6791 -0.1271
  487MOL0     H64272   0.112   5.711   7.372  0.2639 -0.5837  0.8796
  487MOL0     H64273  -0.083   5.578   7.329 -0.0305  0.4776  0.1573
  487MOL0     H64274  -0.221   5.478   7.162  0.5922 -0.6751 -1.2708
  487MOL0     H64275  -0.240   5.417   7.327 -1.9821 -2.0494 -0.1419
  487MOL0     H64276  -0.421   5.347   7.172 -1.0387  0.1541  1.2887
  487MOL0     H64277  -0.303   5.241   7.084  1.2605 -0.1495 -0.2434
  487MOL0     H64278  -0.401   5.222   7.378 -1.6185  1.4600 -1.4657
  487MOL0     H64279  -0.246   5.154   7.316  0.4580 -0.6148 -1.7413
  487MOL0     H64280  -0.379   5.012   7.152 -1.3505 -1.1462 -0.1698
  487MOL0     H64281  -0.417   4.960   7.306  2.1743 -1.8776 -2.1560
  487MOL0     H64282  -0.778   5.156   7.198 -0.1238 -0.3873  0.8039
  487MOL0     H64283   0.156   5.279   7.144 -0.2036  1.5445 -1.7030
  487MOL0     H64284   0.362   5.408   7.172  1.3394  0.4354  2.4650
  488MOL0     O64285   0.065   4.253   5.171 -0.2210  0.5459 -0.3477
  488MOL0     C64286   0.130   4.200   5.073  1.1430 -0.0582  0.2539
  488MOL0     O64287   0.204   4.277   4.978 -0.5409 -0.1164 -0.0419
  488MOL0     C64288   0.208   4.414   4.991 -0.7078 -0.9333 -0.5713
  488MOL0     C64289   0.105   4.494   4.946 -0.0966 -0.8234  0.0930
  488MOL0     C64290   0.124   4.635   4.952 -0.2363 -0.2786 -0.2755
  488MOL0     C64291   0.223   4.694   5.032  0.9218  0.6757 -0.6038
  488MOL0     O64292   0.218   4.827   5.074 -0.0101 -1.0299 -0.1026
  488MOL0     C64293   0.249   4.915   4.967 -0.0538 -0.7519  0.3529
  488MOL0     C64294   0.392   4.953   4.982  0.3296  0.1770 -0.1103
  488MOL0     C64295   0.449   5.064   4.896 -0.3007 -0.3355  0.3757
  488MOL0     C64296   0.579   5.126   4.957 -0.1362  0.5294 -0.8663
  488MOL0     C64297   0.657   5.216   4.861  0.2594 -0.7547 -0.5382
  488MOL0     C64298   0.566   5.332   4.816 -0.7298 -0.4762  0.2524
  488MOL0     C64299   0.652   5.417   4.714 -0.0187 -0.8119  0.1214
  488MOL0     C64300   0.696   5.351   4.580  0.8821  0.2270 -0.2356
  488MOL0     N64301   0.780   5.448   4.514 -0.7804  0.2792 -0.1423
  488MOL0     C64302   0.734   5.566   4.471 -0.4248  0.1863  0.8628
  488MOL0     C64303   0.837   5.625   4.398  0.4290  0.4343 -0.3718
  488MOL0     C64304   0.835   5.771   4.349 -0.2284 -0.3615 -1.0531
  488MOL0     C64305   0.775   5.794   4.212  0.2732 -0.8968  0.4314
  488MOL0     C64306   0.839   5.705   4.113 -0.6486  0.4907 -0.3056
  488MOL0     C64307   1.000   5.727   4.093  0.0253  0.9458 -0.3543
  488MOL0     O64308   1.012   5.860   4.045  0.3781  0.1354 -0.1401
  488MOL0     C64309   1.109   5.946   4.087  0.4290 -0.9119 -0.2261
  488MOL0     C64310   1.077   6.075   4.046  0.5973 -0.6513 -0.9374
  488MOL0     C64311   1.165   6.182   4.065 -0.2693 -0.1106  0.5434
  488MOL0     C64312   1.284   6.163   4.128  0.5346  0.2606 -0.3741
  488MOL0     C64313   1.378   6.268   4.123 -0.1257 -0.5233 -0.5193
  488MOL0     O64314   1.316   6.389   4.164 -0.3176 -1.0830 -0.4800
  488MOL0     C64315   1.371   6.517   4.167 -0.3208  0.1955 -0.6526
  488MOL0     C64316   1.510   6.545   4.159 -0.4364 -0.8685 -0.6127
  488MOL0     C64317   1.548   6.670   4.135  0.5501 -1.2105 -0.1754
  488MOL0     C64318   1.456   6.776   4.122  0.1095 -0.0267 -1.4413
  488MOL0     O64319   1.505   6.897   4.099 -0.3781 -0.4460  0.6076
  488MOL0     C64320   1.420   7.003   4.071  0.6861 -0.6630  0.2774
  488MOL0     C64321   1.508   7.121   4.023 -0.3361 -0.0933 -0.1029
  488MOL0     C64322   1.567   7.093   3.882 -0.5155  0.0662  0.5600
  488MOL0     C64323   1.474   7.135   3.775 -0.4314  0.3110  0.0166
  488MOL0     C64324   1.481   7.284   3.741 -0.0196  1.1974  0.5560
  488MOL0     C64325   1.370   7.335   3.652  0.1866 -0.4269  0.3778
  488MOL0     C64326   1.393   7.483   3.598 -0.3783 -0.1764 -0.0479
  488MOL0     C64327   1.458   7.576   3.703  0.1053 -0.1083 -0.2843
  488MOL0    Cl64328   1.485   7.741   3.634 -0.0849  0.6555 -0.2161
  488MOL0     C64329   1.317   6.749   4.143 -0.3566 -0.5603 -0.0729
  488MOL0     C64330   1.280   6.616   4.160 -0.1354 -0.7227 -0.2667
  488MOL0     O64331   1.494   6.257   4.080  0.1828 -0.3155  0.3056
  488MOL0     C64332   1.311   6.034   4.187 -0.0941  0.3116 -0.0741
  488MOL0     C64333   1.222   5.922   4.176 -0.2297 -0.9504  0.2198
  488MOL0     N64334   0.945   5.532   4.391 -0.7015 -0.1188  0.1126
  488MOL0     N64335   0.910   5.424   4.467 -0.2630 -0.5416 -0.6294
  488MOL0     C64336   0.315   4.603   5.092 -0.6321  0.3370 -0.9861
  488MOL0     C64337   0.320   4.463   5.060  0.4151 -0.0180  0.8868
  488MOL0     C64338   0.135   4.053   5.055 -0.0907 -0.4674  0.3679
  488MOL0     C64339   0.060   3.972   5.124  0.4198  0.1025 -0.1953
  488MOL0     C64340   0.062   3.833   5.099  0.8909 -0.8695 -0.3059
  488MOL0     C64341   0.154   3.782   5.012 -0.6051  0.0001  0.7502
  488MOL0     O64342   0.195   3.651   4.987  0.7588 -0.3027  0.2579
  488MOL0     C64343   0.194   3.553   5.096 -0.1182  0.1470  0.2648
  488MOL0     C64344   0.060   3.487   5.112 -0.5779  0.5615 -1.2071
  488MOL0     C64345   0.059   3.408   5.246  0.2399 -0.3188 -0.3024
  488MOL0     C64346  -0.067   3.444   5.333  1.0252 -0.9568  0.0761
  488MOL0     C64347  -0.193   3.410   5.269  0.1002  0.0353  0.3858
  488MOL0     C64348  -0.305   3.386   5.228 -0.5074 -0.1320  0.0544
  488MOL0     C64349   0.231   3.866   4.930  0.1340 -0.9715  0.2050
  488MOL0     C64350   0.225   4.002   4.962 -0.3259  0.4996 -0.4355
  488MOL0     H64351   0.023   4.445   4.895  0.1520 -1.8448  0.6376
  488MOL0     H64352   0.039   4.696   4.921  0.4883  0.6094 -0.5698
  488MOL0     H64353   0.193   5.008   4.974 -1.0058 -1.3188  0.5209
  488MOL0     H64354   0.215   4.870   4.874 -0.5543  1.3911 -0.5397
  488MOL0     H64355   0.451   4.866   4.954 -0.3375  0.7786 -4.0109
  488MOL0     H64356   0.409   4.983   5.086  2.0452  2.5958 -0.9893
  488MOL0     H64357   0.375   5.145   4.889 -1.0753 -1.1200 -0.7749
  488MOL0     H64358   0.459   5.026   4.794 -2.2661 -4.2869  1.4786
  488MOL0     H64359   0.563   5.177   5.053  0.1002  0.3807 -0.7485
  488MOL0     H64360   0.638   5.038   4.981 -2.7721 -1.4263 -1.0859
  488MOL0     H64361   0.699   5.157   4.779  2.9147 -1.1940  1.0228
  488MOL0     H64362   0.744   5.256   4.915  1.0490 -1.8603 -0.9690
  488MOL0     H64363   0.550   5.388   4.908  0.0763  0.1039  0.0433
  488MOL0     H64364   0.470   5.297   4.778 -0.2125 -0.2045 -1.3919
  488MOL0     H64365   0.596   5.506   4.685 -5.0098 -3.9540 -1.0057
  488MOL0     H64366   0.742   5.455   4.763  0.2119  1.1273 -1.6400
  488MOL0     H64367   0.617   5.317   4.512  1.4216  0.0967 -0.8184
  488MOL0     H64368   0.747   5.256   4.599  3.8818  1.5399 -1.0385
  488MOL0     H64369   0.638   5.612   4.490  0.2461  1.7999  0.5393
  488MOL0     H64370   0.934   5.818   4.343 -0.7745  0.9164 -0.5383
  488MOL0     H64371   0.771   5.824   4.421 -0.9812 -1.1730 -1.1142
  488MOL0     H64372   0.791   5.898   4.181  1.0723 -1.3155 -0.6564
  488MOL0     H64373   0.670   5.766   4.206 -0.1748  0.8304 -0.8181
  488MOL0     H64374   0.817   5.604   4.149  0.8259 -0.2063 -1.2804
  488MOL0     H64375   0.800   5.720   4.013 -1.5583  0.1343 -0.0121
  488MOL0     H64376   1.055   5.654   4.033  0.2355  1.7205 -1.1379
  488MOL0     H64377   1.043   5.712   4.193 -1.7213 -2.2742  0.0257
  488MOL0     H64378   0.990   6.089   3.982  0.6701 -1.0720 -1.1286
  488MOL0     H64379   1.149   6.275   4.012  0.9859 -1.7295 -2.9728
  488MOL0     H64380   1.580   6.464   4.177 -0.2796 -0.7297 -0.5941
  488MOL0     H64381   1.653   6.697   4.128 -0.2296  2.4173  0.3294
  488MOL0     H64382   1.356   7.028   4.156  1.0140 -1.6347  0.8218
  488MOL0     H64383   1.356   6.965   3.990  0.1318 -0.5834  0.6780
  488MOL0     H64384   1.596   7.129   4.089 -0.2042 -4.3478  0.4847
  488MOL0     H64385   1.458   7.218   4.016  1.6560  0.9095 -1.5769
  488MOL0     H64386   1.587   6.985   3.888  1.5786  0.1765 -2.2334
  488MOL0     H64387   1.664   7.142   3.869  0.4200 -1.8252 -0.0751
  488MOL0     H64388   1.481   7.083   3.679 -3.0321 -1.8402  0.8557
  488MOL0     H64389   1.375   7.100   3.806  0.0362  0.4436  1.7488
  488MOL0     H64390   1.574   7.303   3.686 -1.1381 -1.9403 -2.8483
  488MOL0     H64391   1.469   7.347   3.830  2.0041  0.3609  1.4815
  488MOL0     H64392   1.280   7.336   3.714  0.5007 -1.8566  0.8818
  488MOL0     H64393   1.349   7.265   3.571  0.9859 -0.8783  0.5522
  488MOL0     H64394   1.457   7.473   3.510  1.3393 -2.1113  1.3081
  488MOL0     H64395   1.299   7.526   3.564  0.1839 -0.3842 -2.0373
  488MOL0     H64396   1.555   7.541   3.739  0.0488 -1.6333 -1.5109
  488MOL0     H64397   1.391   7.581   3.789 -0.1055  3.2539 -0.4988
  488MOL0     H64398   1.234   6.817   4.156 -1.9343 -2.7817  2.7192
  488MOL0     H64399   1.173   6.597   4.168  0.2285 -2.0957  2.6359
  488MOL0     H64400   1.405   6.024   4.240 -0.2492 -1.6577 -0.0768
  488MOL0     H64401   1.237   5.829   4.229  0.6405 -0.1548  1.4387
  488MOL0     H64402   0.385   4.616   5.174  1.8658 -0.9902 -2.8089
  488MOL0     H64403   0.394   4.389   5.089  1.4941  0.0632 -1.4670
  488MOL0     H64404  -0.006   3.992   5.208  1.2223  0.3042  0.3977
  488MOL0     H64405  -0.014   3.773   5.149  1.7856  1.0380  3.8030
  488MOL0     H64406   0.221   3.602   5.190 -1.4802  1.6735 -0.0787
  488MOL0     H64407   0.271   3.480   5.070 -2.4000 -1.7851 -1.5330
  488MOL0     H64408  -0.020   3.561   5.122 -1.6492 -0.8049  0.9675
  488MOL0     H64409   0.027   3.431   5.024 -2.8454 -2.5464  1.3891
  488MOL0     H64410   0.149   3.425   5.306 -0.0935 -2.1405  0.7939
  488MOL0     H64411   0.035   3.305   5.221  2.4791 -1.5051  1.9358
  488MOL0     H64412  -0.074   3.396   5.431  1.5286 -1.6707 -0.2325
  488MOL0     H64413  -0.067   3.552   5.353 -0.6917 -0.6191 -1.5895
  488MOL0     H64414  -0.398   3.361   5.180  0.7837  0.3006 -2.8717
  488MOL0     H64415   0.287   3.831   4.844 -0.5186  1.7788 -1.4533
  488MOL0     H64416   0.278   4.068   4.894  0.8415 -1.1239 -1.1890
  489MOL0     O64417   4.498   9.712   8.111  0.5396  0.1699 -0.2849
  489MOL0     C64418   4.437   9.787   8.186 -0.0695  0.7010  0.5460
  489MOL0     O64419   4.329   9.857   8.147 -0.3858  0.0279  0.6143
  489MOL0     C64420   4.255   9.800   8.047  0.0710  0.5961  0.1880
  489MOL0     C64421   4.222   9.877   7.937 -0.7539 -0.0430 -1.2963
  489MOL0     C64422   4.136   9.834   7.837  1.0098 -0.1899  0.1726
  489MOL0     C64423   4.079   9.705   7.842  0.0345  0.1586 -0.5899
  489MOL0     O64424   3.972   9.653   7.762 -0.5734  0.0119  0.4526
  489MOL0     C64425   3.971   9.677   7.622  0.4536 -2.0541 -0.2689
  489MOL0     C64426   4.045   9.573   7.543 -0.7645  0.5632  0.0001
  489MOL0     C64427   4.031   9.589   7.392 -0.4574 -0.1956  0.2478
  489MOL0     C64428   4.136   9.518   7.316  0.5804 -0.5243 -0.0744
  489MOL0     C64429   4.119   9.517   7.171 -0.1630 -0.1416  0.5630
  489MOL0     C64430   4.221   9.420   7.111  1.0317  0.0636 -0.3776
  489MOL0     C64431   4.163   9.273   7.106  0.1584 -0.6648  1.0884
  489MOL0     C64432   4.037   9.272   7.008  0.3037  0.6180 -0.4432
  489MOL0     N64433   4.004   9.134   6.970 -0.0585  0.7349 -0.5479
  489MOL0     C64434   4.086   9.045   6.905 -0.1863 -0.6246 -0.4216
  489MOL0     C64435   4.030   8.927   6.921  0.3501  0.3522 -0.2165
  489MOL0     C64436   4.078   8.793   6.882  0.5304 -0.2691  0.1490
  489MOL0     C64437   4.001   8.749   6.763  0.0617 -0.6037  0.1026
  489MOL0     C64438   4.048   8.610   6.713 -0.3672  1.1928  0.3426
  489MOL0     C64439   4.057   8.495   6.810  0.2790 -0.3866 -0.5428
  489MOL0     O64440   4.199   8.452   6.821  0.4623 -0.3092  0.7071
  489MOL0     C64441   4.245   8.375   6.930 -0.4485 -0.3834  0.5718
  489MOL0     C64442   4.163   8.293   7.000 -0.2699 -0.2761  0.5385
  489MOL0     C64443   4.210   8.214   7.106 -0.3275  0.7814 -0.0999
  489MOL0     C64444   4.347   8.216   7.139 -0.3808  0.1411 -0.1238
  489MOL0     C64445   4.413   8.125   7.239 -0.6782 -0.7811 -0.9132
  489MOL0     O64446   4.540   8.164   7.280  0.4566 -0.0720  0.7158
  489MOL0     C64447   4.602   8.109   7.392  0.2033  0.0043  1.0003
  489MOL0     C64448   4.579   7.992   7.466 -0.3945 -0.4031 -0.0459
  489MOL0     C64449   4.655   7.957   7.578  0.6467 -0.1910  0.6307
  489MOL0     C64450   4.749   8.044   7.631  0.0581 -0.5474 -0.1416
  489MOL0     O64451   4.824   7.997   7.739 -1.2113  0.4658  0.2856
  489MOL0     C64452   4.889   8.104   7.806 -0.1946  0.6751 -0.6707
  489MOL0     C64453   4.985   8.023   7.895  0.6312 -0.0341  0.3216
  489MOL0     C64454   5.100   8.106   7.957  0.2942  0.5279 -0.1266
  489MOL0     C64455   5.165   8.036   8.071  0.1835  0.4592  0.0785
  489MOL0     C64456   5.244   8.139   8.149  0.0050  0.6747 -0.3877
  489MOL0     C64457   5.361   8.077   8.233 -0.9184 -0.3439 -0.2536
  489MOL0     C64458   5.306   8.008   8.361 -0.1059  0.3750  0.8613
  489MOL0     C64459   5.418   7.962   8.458 -0.0913  0.3944  0.1598
  489MOL0    Cl64460   5.523   8.091   8.539 -0.2650 -0.3269  0.3312
  489MOL0     C64461   4.753   8.171   7.572  0.4991 -0.6315  0.1487
  489MOL0     C64462   4.690   8.201   7.448  0.0662  0.3708 -0.1430
  489MOL0     O64463   4.343   8.035   7.301  0.4788 -0.9322  0.2608
  489MOL0     C64464   4.432   8.299   7.066  0.7724  0.7336  0.8168
  489MOL0     C64465   4.381   8.381   6.966  0.1577  0.3118 -0.6006
  489MOL0     N64466   3.911   8.950   6.985 -0.3947  0.0267 -0.4818
  489MOL0     N64467   3.889   9.079   7.003  0.4360  0.5534 -0.2242
  489MOL0     C64468   4.115   9.623   7.954  0.0352 -1.0989  0.7689
  489MOL0     C64469   4.204   9.668   8.045  0.9922  0.2599  0.0314
  489MOL0     C64470   4.496   9.812   8.320 -0.9175 -0.1879 -0.6389
  489MOL0     C64471   4.606   9.736   8.361  0.5152 -0.2708  0.5039
  489MOL0     C64472   4.669   9.747   8.481 -0.1821  0.1656 -0.0488
  489MOL0     C64473   4.620   9.841   8.577 -0.1973 -0.0895  0.6534
  489MOL0     O64474   4.680   9.869   8.695 -0.1740  0.9005  0.5423
  489MOL0     C64475   4.594   9.861   8.813 -0.2563  0.4712 -0.1775
  489MOL0     C64476   4.675   9.831   8.943  0.5685  0.2131  0.1504
  489MOL0     C64477   4.817   9.895   8.956 -0.7859  0.9406  0.5966
  489MOL0     C64478   4.924   9.794   8.999 -0.3053  0.2042 -0.1767
  489MOL0     C64479   4.904   9.745   9.135  0.1539 -0.1172  0.4013
  489MOL0     C64480   4.883   9.703   9.252 -0.4662 -0.6418  0.7654
  489MOL0     C64481   4.498   9.910   8.540  0.0285 -0.1215  0.2524
  489MOL0     C64482   4.426   9.884   8.421  0.5290 -0.7300  0.6309
  489MOL0     H64483   4.248   9.982   7.932 -1.8899  0.3495  0.4410
  489MOL0     H64484   4.110   9.898   7.752 -0.1430 -0.2683  0.4488
  489MOL0     H64485   3.991   9.781   7.596  1.0834 -1.0084  3.7288
  489MOL0     H64486   3.871   9.648   7.590  0.5583 -4.1197  1.0491
  489MOL0     H64487   4.008   9.473   7.566 -3.7119  1.7813  1.0111
  489MOL0     H64488   4.151   9.578   7.572 -0.2569  2.0489 -1.9255
  489MOL0     H64489   4.062   9.691   7.371  2.2053 -0.0718  3.8658
  489MOL0     H64490   3.927   9.578   7.358  0.4243  2.7359 -4.2570
  489MOL0     H64491   4.229   9.566   7.349 -0.7258  2.9146 -0.9582
  489MOL0     H64492   4.147   9.414   7.349  6.8520  0.3976  2.1842
  489MOL0     H64493   4.147   9.613   7.126 -1.7524 -0.5341 -1.4411
  489MOL0     H64494   4.015   9.501   7.139  0.2969 -1.1883 -0.4908
  489MOL0     H64495   4.319   9.420   7.160  0.2071 -3.2441  1.6167
  489MOL0     H64496   4.231   9.465   7.012 -0.2715  4.1574  1.1392
  489MOL0     H64497   4.233   9.205   7.056 -1.7410 -1.8560 -0.0694
  489MOL0     H64498   4.149   9.223   7.202 -3.4198  0.3016  1.1874
  489MOL0     H64499   4.070   9.331   6.922  2.2385 -1.4189 -1.2156
  489MOL0     H64500   3.951   9.316   7.058  3.8258  2.5110  4.8456
  489MOL0     H64501   4.181   9.070   6.857 -0.1122 -0.3277 -0.1286
  489MOL0     H64502   4.064   8.716   6.958 -1.7661 -2.6687 -2.4551
  489MOL0     H64503   4.185   8.806   6.865  0.7675 -1.2707  0.8548
  489MOL0     H64504   4.024   8.812   6.676 -3.8426 -1.2671 -1.5898
  489MOL0     H64505   3.892   8.752   6.769  0.0735 -1.1209  0.6142
  489MOL0     H64506   3.978   8.581   6.634  0.1592  3.7686 -1.1791
  489MOL0     H64507   4.142   8.620   6.659 -0.2000  2.4835  0.8400
  489MOL0     H64508   4.018   8.404   6.763  1.9142 -1.2589 -0.2862
  489MOL0     H64509   3.999   8.516   6.900  2.5573  0.2560  0.8740
  489MOL0     H64510   4.060   8.280   6.970  0.0003  0.8480 -0.9798
  489MOL0     H64511   4.133   8.147   7.143 -3.2382  3.5664 -0.6891
  489MOL0     H64512   4.493   7.937   7.430 -0.9702  0.8420 -0.6235
  489MOL0     H64513   4.628   7.865   7.629 -2.6817 -0.0505 -0.6385
  489MOL0     H64514   4.819   8.155   7.873  0.5186  0.8744 -0.0586
  489MOL0     H64515   4.957   8.164   7.745 -0.8306  2.0794 -0.0437
  489MOL0     H64516   5.017   7.931   7.846  1.1456  0.8114 -0.9902
  489MOL0     H64517   4.921   7.997   7.980 -0.6695  3.4090  0.5780
  489MOL0     H64518   5.051   8.196   7.996 -0.5046 -0.4976  1.3367
  489MOL0     H64519   5.177   8.123   7.881  1.4775 -0.3322  0.8316
  489MOL0     H64520   5.100   7.980   8.140  2.1067 -0.7872  0.9986
  489MOL0     H64521   5.236   7.960   8.037 -1.8035 -1.6548  0.3779
  489MOL0     H64522   5.171   8.182   8.218  0.1233 -2.1386  1.6432
  489MOL0     H64523   5.291   8.207   8.077  0.7732  0.5957  0.0279
  489MOL0     H64524   5.441   8.146   8.261 -0.3917 -1.2033  0.3982
  489MOL0     H64525   5.406   8.002   8.168 -2.8464  0.0341 -2.1411
  489MOL0     H64526   5.221   8.060   8.406 -1.5280  0.3253 -1.5629
  489MOL0     H64527   5.249   7.917   8.338 -2.3162  0.9436  3.5928
  489MOL0     H64528   5.483   7.902   8.393  0.4433 -0.1009  1.1333
  489MOL0     H64529   5.373   7.906   8.540 -3.0957  2.1804 -0.1315
  489MOL0     H64530   4.814   8.246   7.622  2.1866 -1.7133 -0.1797
  489MOL0     H64531   4.701   8.299   7.403 -1.2571  0.4641 -0.3178
  489MOL0     H64532   4.538   8.313   7.081  0.7064  1.5598  0.5296
  489MOL0     H64533   4.449   8.449   6.915  1.3162  0.6643  1.3023
  489MOL0     H64534   4.070   9.527   7.973 -1.0622 -0.5279  1.1246
  489MOL0     H64535   4.242   9.604   8.125  0.1892  0.4893  0.6046
  489MOL0     H64536   4.658   9.670   8.291  1.5683 -0.7109  1.6607
  489MOL0     H64537   4.754   9.685   8.508 -0.1670 -0.5973 -1.7101
  489MOL0     H64538   4.514   9.792   8.787 -1.7687  1.7363  0.9444
  489MOL0     H64539   4.554   9.963   8.818  1.9288  1.7814 -4.2667
  489MOL0     H64540   4.614   9.837   9.034  0.3464 -0.0854  0.0222
  489MOL0     H64541   4.702   9.725   8.941  1.9499  0.2981  4.2000
  489MOL0     H64542   4.805   9.981   9.022  2.0415  3.5605 -2.0132
  489MOL0     H64543   4.853   9.939   8.863  0.2205  0.4822  0.7555
  489MOL0     H64544   4.912   9.709   8.931 -2.1972 -0.0843  0.4522
  489MOL0     H64545   5.028   9.828   8.995  0.8663 -3.0960 -2.1656
  489MOL0     H64546   4.870   9.669   9.352  3.1007  1.7729  2.2430
  489MOL0     H64547   4.449   9.981   8.606 -1.1789 -1.5164  0.9185
  489MOL0     H64548   4.323   9.915   8.412  0.7492 -0.3022 -0.5991
  490MOL0     O64549   2.466  10.050   3.550  0.2164 -0.1043 -0.3720
  490MOL0     C64550   2.474  10.163   3.605 -0.3684 -0.0277  0.0307
  490MOL0     O64551   2.363  10.238   3.630 -0.2235 -0.5361 -0.1612
  490MOL0     C64552   2.242  10.214   3.570 -1.0365  0.5247 -0.4379
  490MOL0     C64553   2.162  10.108   3.621  0.3167  0.3211 -0.1262
  490MOL0     C64554   2.044  10.068   3.556  0.8196 -0.5264  0.1349
  490MOL0     C64555   1.998  10.145   3.449 -0.3652  1.2190 -0.8007
  490MOL0     O64556   1.886  10.112   3.376  1.0823  0.0568 -0.2228
  490MOL0     C64557   1.775  10.163   3.441  1.4391  0.2546  0.7805
  490MOL0     C64558   1.648  10.142   3.364  0.1095  0.2683  0.2557
  490MOL0     C64559   1.646  10.236   3.238  0.1696  0.0378  0.1524
  490MOL0     C64560   1.518  10.194   3.153  0.0898  0.5765 -0.2382
  490MOL0     C64561   1.483  10.295   3.053 -0.5392 -0.2063  0.3786
  490MOL0     C64562   1.567  10.302   2.927 -0.6838 -0.1476 -0.8369
  490MOL0     C64563   1.498  10.376   2.817 -0.2113  0.0009  0.3987
  490MOL0     C64564   1.597  10.389   2.698 -0.0022 -0.1790 -0.0362
  490MOL0     N64565   1.602  10.265   2.618  0.5080  0.3518  0.1612
  490MOL0     C64566   1.507  10.209   2.536  0.6978  0.8230  0.0592
  490MOL0     C64567   1.565  10.102   2.474  0.4339  0.0565  0.7373
  490MOL0     C64568   1.493  10.013   2.374  0.1032 -0.4894  0.6650
  490MOL0     C64569   1.518   9.862   2.408 -0.5083  0.3653  0.4889
  490MOL0     C64570   1.417   9.754   2.346  0.1710 -0.2850 -0.0480
  490MOL0     C64571   1.330   9.801   2.235  0.1528  0.1631 -0.2306
  490MOL0     O64572   1.256   9.692   2.192  0.2022  0.1231  0.7522
  490MOL0     C64573   1.142   9.724   2.116  0.2682 -0.6311  0.9232
  490MOL0     C64574   1.041   9.619   2.105  0.4924 -0.5731 -0.5498
  490MOL0     C64575   0.914   9.649   2.035 -0.2899 -0.6101 -0.2953
  490MOL0     C64576   0.888   9.779   1.986  0.6076  0.0697  0.6717
  490MOL0     C64577   0.759   9.827   1.916  0.1873 -0.8075  0.2712
  490MOL0     O64578   0.646   9.756   1.941  0.2861 -0.8442 -0.2784
  490MOL0     C64579   0.532   9.801   1.882 -0.0662 -0.2983  0.6321
  490MOL0     C64580   0.487   9.939   1.879 -0.4423  0.4384 -0.2491
  490MOL0     C64581   0.369   9.978   1.819  0.6798  0.3065  0.6772
  490MOL0     C64582   0.287   9.881   1.761  0.0256 -0.3678 -0.6550
  490MOL0     O64583   0.166   9.912   1.703 -0.1250 -0.4906  0.8968
  490MOL0     C64584   0.050   9.828   1.726  0.3205  0.3352  0.3502
  490MOL0     C64585  -0.083   9.878   1.661  0.0916 -1.2934  0.1986
  490MOL0     C64586  -0.133  10.016   1.682  0.6125 -1.0984  0.6937
  490MOL0     C64587  -0.262  10.047   1.611  0.3641 -1.0618  0.4108
  490MOL0     C64588  -0.308  10.196   1.631 -0.4254 -0.2087  0.3868
  490MOL0     C64589  -0.444  10.237   1.575  0.6697  0.1025 -0.6710
  490MOL0     C64590  -0.448  10.389   1.557  0.5128  0.0570 -0.4015
  490MOL0     C64591  -0.601  10.430   1.523 -0.5250  1.0124 -0.0193
  490MOL0    Cl64592  -0.708  10.414   1.670  0.0594 -0.1845  0.2999
  490MOL0     C64593   0.331   9.749   1.761 -1.0332 -0.7228  0.6138
  490MOL0     C64594   0.444   9.711   1.829  0.5003 -0.9281 -0.5548
  490MOL0     O64595   0.768   9.931   1.851  0.5563 -0.4217 -0.1064
  490MOL0     C64596   0.993   9.869   1.984  0.3799  0.8241  0.3266
  490MOL0     C64597   1.112   9.842   2.057  0.3143 -0.2033 -0.0819
  490MOL0     N64598   1.693  10.092   2.525  0.1274 -0.9192 -0.3638
  490MOL0     N64599   1.705  10.183   2.614  0.4095 -1.2015 -0.5415
  490MOL0     C64600   2.075  10.250   3.398  0.0208  0.8981  0.0414
  490MOL0     C64601   2.194  10.288   3.467  0.0377 -0.1441 -0.4709
  490MOL0     C64602   2.602  10.214   3.646  0.1072  1.0687 -0.5773
  490MOL0     C64603   2.621  10.351   3.665 -0.8088 -0.1408  0.0160
  490MOL0     C64604   2.746  10.407   3.699 -1.0480 -0.0177  0.7321
  490MOL0     C64605   2.860  10.318   3.711  0.2628 -0.4290  0.9266
  490MOL0     O64606   2.987  10.372   3.732  1.0250 -0.1684  0.4576
  490MOL0     C64607   3.089  10.327   3.645 -0.0407 -0.1837 -0.0541
  490MOL0     C64608   3.212  10.425   3.645 -0.3659 -0.3416 -0.3226
  490MOL0     C64609   3.337  10.374   3.571  0.2615 -0.8028  0.3989
  490MOL0     C64610   3.450  10.481   3.584 -0.1572  0.3442  0.2052
  490MOL0     C64611   3.437  10.587   3.487  0.8780 -0.3516  0.3785
  490MOL0     C64612   3.423  10.690   3.422 -0.3606  0.1977  0.1840
  490MOL0     C64613   2.842  10.176   3.709  0.3784 -1.4600  0.4118
  490MOL0     C64614   2.716  10.132   3.669 -0.4484 -0.1617  0.4906
  490MOL0     H64615   2.195  10.045   3.703  2.8876  1.5061 -0.1434
  490MOL0     H64616   1.988   9.976   3.564  0.9305 -0.6026  0.0399
  490MOL0     H64617   1.789  10.271   3.442 -0.6668  0.6016 -0.8467
  490MOL0     H64618   1.756  10.137   3.546  1.1090  0.3324  0.7417
  490MOL0     H64619   1.562  10.165   3.427  0.4027 -4.0606  2.6268
  490MOL0     H64620   1.625  10.039   3.337  0.5498 -0.4495  2.4000
  490MOL0     H64621   1.740  10.222   3.184  1.6772 -0.5110  2.7183
  490MOL0     H64622   1.640  10.336   3.283 -1.3070 -1.1489  2.8295
  490MOL0     H64623   1.528  10.102   3.095  2.6535  0.5803  0.0624
  490MOL0     H64624   1.429  10.186   3.216 -0.0374  1.7646 -0.2457
  490MOL0     H64625   1.486  10.397   3.092 -1.8506 -0.4649  1.2160
  490MOL0     H64626   1.382  10.274   3.016 -0.3087 -1.9762  0.6861
  490MOL0     H64627   1.590  10.199   2.898  0.1852 -0.4777  0.9332
  490MOL0     H64628   1.666  10.345   2.940 -0.0336 -2.0012  0.9286
  490MOL0     H64629   1.409  10.316   2.795 -1.0658  0.3703  2.5841
  490MOL0     H64630   1.471  10.477   2.849 -0.4108  1.6455 -4.1884
  490MOL0     H64631   1.698  10.416   2.731  0.3165  0.2077 -1.2742
  490MOL0     H64632   1.563  10.470   2.632  2.4332  0.6606 -0.3730
  490MOL0     H64633   1.399  10.212   2.521  0.9101  0.9159 -1.7788
  490MOL0     H64634   1.517  10.026   2.269 -1.6848 -0.2872  0.2464
  490MOL0     H64635   1.386  10.031   2.389 -0.7408 -4.0327 -0.1409
  490MOL0     H64636   1.523   9.846   2.516  1.3603  1.1216  0.5524
  490MOL0     H64637   1.613   9.845   2.357 -0.6399  0.1517  0.3093
  490MOL0     H64638   1.478   9.675   2.301 -1.6296 -0.7453 -1.8214
  490MOL0     H64639   1.353   9.720   2.427 -1.5490 -1.3613 -1.7757
  490MOL0     H64640   1.393   9.840   2.154  0.4605  1.7752  0.7164
  490MOL0     H64641   1.261   9.873   2.280 -0.9173  0.3304 -2.0851
  490MOL0     H64642   1.068   9.519   2.137  0.6108 -0.0461  1.1177
  490MOL0     H64643   0.833   9.577   2.040 -0.2029 -0.6336  2.1919
  490MOL0     H64644   0.540  10.007   1.945  1.5774 -1.3824  0.0854
  490MOL0     H64645   0.331  10.080   1.811  1.4085  0.4353 -4.1235
  490MOL0     H64646   0.049   9.833   1.835  4.4698 -0.8288  0.6018
  490MOL0     H64647   0.053   9.719   1.714  2.1516 -0.5256  5.8601
  490MOL0     H64648  -0.170   9.823   1.698 -0.5781  1.8001  3.9298
  490MOL0     H64649  -0.074   9.861   1.554  0.7036  3.2295 -0.6454
  490MOL0     H64650  -0.056  10.087   1.651  1.3411 -3.3397 -3.3693
  490MOL0     H64651  -0.155  10.037   1.787 -2.0759 -1.5922  0.3021
  490MOL0     H64652  -0.247  10.040   1.502  0.2015  3.0395 -0.0313
  490MOL0     H64653  -0.342   9.981   1.643 -0.0676  0.7797  3.5413
  490MOL0     H64654  -0.228  10.258   1.590  3.8597 -3.4497  3.0446
  490MOL0     H64655  -0.314  10.208   1.740 -3.2117  1.9495  0.1127
  490MOL0     H64656  -0.523  10.201   1.642  1.2641  2.2104  1.2952
  490MOL0     H64657  -0.469  10.178   1.486  0.8458 -0.1939 -0.5262
  490MOL0     H64658  -0.422  10.442   1.649  0.1641  0.4971 -0.5484
  490MOL0     H64659  -0.375  10.426   1.484 -1.0007 -1.4149 -2.8053
  490MOL0     H64660  -0.631  10.357   1.447  0.9816 -0.7730  1.0067
  490MOL0     H64661  -0.606  10.536   1.496  1.8176  1.6604  1.7352
  490MOL0     H64662   0.264   9.672   1.722  1.6697 -2.9615  0.0951
  490MOL0     H64663   0.479   9.610   1.843  1.5788 -0.5666 -0.5638
  490MOL0     H64664   0.977   9.971   1.951 -5.0705 -0.8293 -3.6182
  490MOL0     H64665   1.170   9.931   2.078 -0.1135 -0.4357  2.4022
  490MOL0     H64666   2.040  10.302   3.310 -0.2155 -0.6751 -0.8131
  490MOL0     H64667   2.244  10.384   3.460  1.0017 -0.4413  1.6060
  490MOL0     H64668   2.546  10.424   3.637 -1.1942 -0.5494 -0.0186
  490MOL0     H64669   2.757  10.513   3.714  2.4726  0.2106 -2.0284
  490MOL0     H64670   3.050  10.323   3.543 -0.4847 -1.4840  0.1541
  490MOL0     H64671   3.112  10.226   3.679  2.1974  0.4998  0.6163
  490MOL0     H64672   3.189  10.527   3.613  1.3764  1.3703  3.2678
  490MOL0     H64673   3.236  10.436   3.751  0.4389  2.8380 -0.7278
  490MOL0     H64674   3.317  10.352   3.466 -1.3589  1.1769  0.2316
  490MOL0     H64675   3.364  10.280   3.620 -0.2095 -1.1623 -0.0243
  490MOL0     H64676   3.454  10.525   3.685 -1.8544  3.4749 -0.9393
  490MOL0     H64677   3.545  10.429   3.568 -0.1556 -0.4786  2.4996
  490MOL0     H64678   3.412  10.763   3.345 -1.0737 -1.2781 -1.1751
  490MOL0     H64679   2.919  10.100   3.715  1.3381 -0.5099  0.6546
  490MOL0     H64680   2.690  10.029   3.650 -0.1902 -0.3069  0.9087
  491MOL0     O64681   7.357   1.857   9.040  0.3238 -0.4388  0.2735
  491MOL0     C64682   7.339   1.733   9.061  0.3490  0.7055  0.4263
  491MOL0     O64683   7.437   1.653   9.122  0.0205  0.0227  0.3316
  491MOL0     C64684   7.538   1.711   9.193  0.9661 -0.1190  0.9319
  491MOL0     C64685   7.666   1.659   9.176 -0.3524  0.2541  0.6052
  491MOL0     C64686   7.782   1.713   9.242 -0.2368  0.2032 -0.1462
  491MOL0     C64687   7.765   1.812   9.337  0.6299  0.4925 -0.9170
  491MOL0     O64688   7.874   1.847   9.409 -0.0252 -1.0242  0.1415
  491MOL0     C64689   7.900   1.987   9.429  0.1204 -0.3567  0.5607
  491MOL0     C64690   8.047   1.989   9.467 -0.8243 -0.1458  0.8161
  491MOL0     C64691   8.079   1.954   9.617  0.0878  0.5264 -0.5806
  491MOL0     C64692   8.224   1.929   9.640  0.3503  0.8412 -0.7810
  491MOL0     C64693   8.234   1.854   9.780  0.4746 -0.3668 -0.8537
  491MOL0     C64694   8.204   1.942   9.908  0.3513 -0.4038 -0.3283
  491MOL0     C64695   8.299   2.052   9.934 -0.8107  0.3804  0.4674
  491MOL0     C64696   8.280   2.123  10.064  0.1974 -1.0328 -0.3786
  491MOL0     N64697   8.363   2.242  10.071 -0.2401  0.2806 -0.0187
  491MOL0     C64698   8.493   2.259  10.027 -0.1336  0.1254 -1.0259
  491MOL0     C64699   8.522   2.390  10.033 -0.2701  0.4216 -0.1303
  491MOL0     C64700   8.652   2.458  10.003 -0.7610 -0.4651  0.6109
  491MOL0     C64701   8.678   2.574  10.105  0.9520  0.0648  0.1744
  491MOL0     C64702   8.823   2.634  10.099 -0.3622 -0.5100  0.0325
  491MOL0     C64703   8.920   2.553  10.191 -0.1538 -1.3746 -0.4884
  491MOL0     O64704   8.970   2.432  10.130 -0.0201 -0.2297  0.5754
  491MOL0     C64705   9.098   2.385  10.157 -0.1465  0.4448  0.1623
  491MOL0     C64706   9.204   2.449  10.221  1.0106  0.1480 -1.5908
  491MOL0     C64707   9.317   2.373  10.271  1.5168 -0.7038 -0.9258
  491MOL0     C64708   9.328   2.237  10.248 -1.2540 -0.4641 -0.2602
  491MOL0     C64709   9.432   2.149  10.311  0.1990 -0.2115 -0.4272
  491MOL0     O64710   9.494   2.214  10.421 -0.2108  0.1553  0.2743
  491MOL0     C64711   9.597   2.149  10.486  0.2043 -0.7758 -0.1953
  491MOL0     C64712   9.728   2.211  10.503  0.1268  0.1391  0.0510
  491MOL0     C64713   9.820   2.146  10.577 -0.3378  0.2400 -0.6658
  491MOL0     C64714   9.790   2.025  10.634  0.1354  0.3840 -1.0107
  491MOL0     O64715   9.898   1.989  10.711  0.8205  0.0229  0.0862
  491MOL0     C64716   9.864   1.883  10.813  0.2080 -0.6265 -0.5807
  491MOL0     C64717   9.947   1.904  10.940 -0.1981 -0.6939  0.1124
  491MOL0     C64718   9.922   2.043  11.010  0.5639  0.8300 -0.0354
  491MOL0     C64719   9.783   2.053  11.078 -1.3221 -0.3623 -0.8133
  491MOL0     C64720   9.744   2.196  11.109 -0.5436 -0.6675 -0.0685
  491MOL0     C64721   9.701   2.277  10.989  0.0945 -0.8662  1.4553
  491MOL0     C64722   9.669   2.418  11.023  0.1062 -0.0204 -0.1332
  491MOL0     C64723   9.640   2.503  10.896  0.0032  0.2929 -0.4426
  491MOL0    Cl64724   9.648   2.674  10.930 -0.1048 -0.3742  0.3058
  491MOL0     C64725   9.670   1.963  10.615 -0.5013 -0.0224  0.0093
  491MOL0     C64726   9.573   2.030  10.543  0.5273  0.3697 -0.2491
  491MOL0     O64727   9.458   2.037  10.272  0.9867 -0.4419 -0.4896
  491MOL0     C64728   9.222   2.183  10.171 -0.2053  0.0774  0.6158
  491MOL0     C64729   9.112   2.252  10.124  0.2797 -0.0080  0.0047
  491MOL0     N64730   8.405   2.460  10.065 -0.0603 -0.0866  0.4092
  491MOL0     N64731   8.320   2.368  10.089 -0.1820 -0.1033  0.1982
  491MOL0     C64732   7.635   1.872   9.349  0.3441 -0.2314 -0.4985
  491MOL0     C64733   7.524   1.822   9.280  0.6105  0.0763 -0.9806
  491MOL0     C64734   7.202   1.691   9.020  0.5766  0.4108  0.0675
  491MOL0     C64735   7.111   1.767   8.951 -0.0329  0.1514  0.2125
  491MOL0     C64736   6.975   1.728   8.933 -0.4879 -1.0113 -0.7094
  491MOL0     C64737   6.924   1.608   8.985  0.7989 -0.0922  0.2098
  491MOL0     O64738   6.793   1.575   8.958  0.2006  0.4791  0.1935
  491MOL0     C64739   6.732   1.466   9.019  0.6210  0.0020  0.8092
  491MOL0     C64740   6.591   1.467   8.967 -0.4451 -0.5164 -0.8904
  491MOL0     C64741   6.502   1.357   9.033 -0.5988  0.2970  0.7565
  491MOL0     C64742   6.485   1.224   8.964 -0.1663 -0.0176  1.1052
  491MOL0     C64743   6.443   1.229   8.818 -1.0040  0.3898 -0.9614
  491MOL0     C64744   6.442   1.238   8.695 -0.2019 -0.8216 -0.3465
  491MOL0     C64745   7.020   1.533   9.046 -0.3998  0.2528  0.1231
  491MOL0     C64746   7.155   1.562   9.059  0.1148 -0.1602 -0.1155
  491MOL0     H64747   7.678   1.581   9.101 -0.7537  0.8451 -0.0984
  491MOL0     H64748   7.886   1.690   9.226 -0.1256  0.3527  0.3398
  491MOL0     H64749   7.829   2.024   9.504 -0.5874 -4.9254  2.4214
  491MOL0     H64750   7.900   2.033   9.329  3.8603  1.3332  1.1787
  491MOL0     H64751   8.095   2.082   9.433  0.4796 -1.4046 -0.9950
  491MOL0     H64752   8.109   1.931   9.398  1.8156  2.1996  0.9818
  491MOL0     H64753   8.026   1.864   9.651  0.3572  0.6199  0.1050
  491MOL0     H64754   8.037   2.039   9.673  1.8277  1.4204 -0.5746
  491MOL0     H64755   8.277   1.865   9.568  0.6009  0.1090  0.0341
  491MOL0     H64756   8.279   2.023   9.632 -0.4915  1.2380 -2.1876
  491MOL0     H64757   8.336   1.819   9.798  0.4877  1.4303  4.5212
  491MOL0     H64758   8.159   1.775   9.788 -1.3909  1.4456  0.6372
  491MOL0     H64759   8.231   1.871   9.987  2.6415 -0.3124 -0.9500
  491MOL0     H64760   8.100   1.974   9.913  0.6669  0.6567 -0.3950
  491MOL0     H64761   8.400   2.011   9.935 -1.7373 -3.0856 -5.3214
  491MOL0     H64762   8.290   2.131   9.859 -0.4247  0.5200  0.5701
  491MOL0     H64763   8.310   2.060  10.148 -1.9691 -3.2966 -1.1745
  491MOL0     H64764   8.177   2.160  10.061 -1.1389 -4.3997 -1.1695
  491MOL0     H64765   8.563   2.181   9.999 -1.4525 -0.2524 -3.4572
  491MOL0     H64766   8.654   2.494   9.900 -2.3229  1.3271  1.1719
  491MOL0     H64767   8.728   2.383  10.028 -2.0181 -1.9214  0.2046
  491MOL0     H64768   8.666   2.535  10.207  0.5498  2.5948  1.1903
  491MOL0     H64769   8.601   2.649  10.083  0.7702 -0.2029 -0.1054
  491MOL0     H64770   8.855   2.643   9.994  0.3834 -2.6590  0.0209
  491MOL0     H64771   8.811   2.731  10.148 -2.3107 -0.3081 -0.7579
  491MOL0     H64772   8.882   2.525  10.290  3.1784  0.2456  1.4243
  491MOL0     H64773   9.007   2.614  10.217  1.0709 -0.4267 -5.6848
  491MOL0     H64774   9.194   2.554  10.243  1.0846 -0.1248 -0.1536
  491MOL0     H64775   9.386   2.413  10.344 -0.3934  1.2299 -0.0838
  491MOL0     H64776   9.750   2.308  10.459 -0.8349 -0.8247 -2.7536
  491MOL0     H64777   9.920   2.188  10.585  0.3588 -1.5793  1.1749
  491MOL0     H64778   9.891   1.787  10.767 -0.5917 -0.6494 -1.0192
  491MOL0     H64779   9.759   1.873  10.840  1.3268 -2.8957  3.9780
  491MOL0     H64780  10.053   1.897  10.912 -0.0591  2.2612 -0.3972
  491MOL0     H64781   9.925   1.833  11.020 -1.8261  1.6745  1.9014
  491MOL0     H64782   9.933   2.124  10.938  1.4679  1.0979  0.3871
  491MOL0     H64783  10.004   2.065  11.080 -0.0369  0.9477  0.6369
  491MOL0     H64784   9.708   2.006  11.014 -1.4864 -0.6942 -0.3829
  491MOL0     H64785   9.800   1.988  11.164 -0.1124  1.4538  0.3869
  491MOL0     H64786   9.824   2.251  11.159 -1.1524 -0.5588  0.8225
  491MOL0     H64787   9.653   2.179  11.169 -0.3042  2.2763  1.3287
  491MOL0     H64788   9.612   2.224  10.954 -1.3759  2.2504  0.1154
  491MOL0     H64789   9.772   2.285  10.906  0.1340  4.1371  1.6858
  491MOL0     H64790   9.583   2.428  11.090 -1.5690  0.5061 -2.2486
  491MOL0     H64791   9.759   2.465  11.063  0.3466 -0.0010 -0.6832
  491MOL0     H64792   9.541   2.484  10.853 -0.8536  0.5374  1.3385
  491MOL0     H64793   9.716   2.485  10.820 -0.4822 -0.3892 -0.7727
  491MOL0     H64794   9.660   1.867  10.665  0.0944  0.7027  1.5730
  491MOL0     H64795   9.468   2.004  10.538  0.4056  0.8581 -0.3147
  491MOL0     H64796   9.234   2.079  10.140 -2.1525 -0.3100  0.9912
  491MOL0     H64797   9.049   2.197  10.055  1.9216 -1.5423 -0.3366
  491MOL0     H64798   7.621   1.933   9.438 -0.8961 -1.5940  0.2863
  491MOL0     H64799   7.433   1.881   9.284 -1.7172 -3.2499 -1.0149
  491MOL0     H64800   7.153   1.857   8.906  0.3924 -0.4460 -0.6078
  491MOL0     H64801   6.898   1.792   8.890  0.1633  1.8367  2.0340
  491MOL0     H64802   6.733   1.487   9.126  5.0441  0.1923  0.9114
  491MOL0     H64803   6.777   1.368   8.998  0.1587 -0.2091  0.7737
  491MOL0     H64804   6.530   1.555   8.989 -0.2353 -1.1751  3.0893
  491MOL0     H64805   6.613   1.458   8.860  0.5029  0.6284 -0.8192
  491MOL0     H64806   6.398   1.392   9.032 -0.8038 -0.1433  2.7564
  491MOL0     H64807   6.542   1.329   9.131  1.1989 -1.8287 -0.4854
  491MOL0     H64808   6.573   1.160   8.971 -0.0684  0.0991  0.9508
  491MOL0     H64809   6.408   1.159   9.007 -1.5295 -1.9612 -3.6100
  491MOL0     H64810   6.440   1.228   8.588 -3.6086  2.8830 -0.8709
  491MOL0     H64811   6.994   1.435   9.084  0.2915 -0.1417 -0.3737
  491MOL0     H64812   7.230   1.494   9.099 -0.7865 -1.0602  0.0750
  492MOL0     O64813   5.997   8.630   2.289 -0.0702 -0.4682  0.5318
  492MOL0     C64814   5.968   8.707   2.202 -0.5189 -0.0386  1.4002
  492MOL0     O64815   5.861   8.706   2.118  0.7927 -0.0496 -0.5745
  492MOL0     C64816   5.741   8.664   2.176  0.0151 -0.1643  0.0911
  492MOL0     C64817   5.651   8.595   2.095 -0.7136  0.3429 -0.8692
  492MOL0     C64818   5.522   8.572   2.137  0.6599  0.2163 -0.2627
  492MOL0     C64819   5.473   8.609   2.264 -0.3666 -0.0331 -0.2904
  492MOL0     O64820   5.350   8.559   2.300 -0.6358 -0.3558 -0.0284
  492MOL0     C64821   5.265   8.653   2.365  0.5248 -0.5688  0.6900
  492MOL0     C64822   5.195   8.751   2.273 -0.5933  0.1735 -0.4032
  492MOL0     C64823   5.142   8.702   2.139 -0.7811  0.4106 -1.0607
  492MOL0     C64824   5.010   8.641   2.149  0.4258  0.9851 -0.7545
  492MOL0     C64825   4.953   8.570   2.031  0.2238  0.7298  0.6368
  492MOL0     C64826   4.808   8.547   2.064  0.2407  0.0295  0.5938
  492MOL0     C64827   4.746   8.500   1.929  0.3647 -0.0674 -0.5287
  492MOL0     C64828   4.597   8.467   1.934  0.3428 -1.0214  0.1909
  492MOL0     N64829   4.559   8.389   1.821  0.5760 -0.2407 -0.5792
  492MOL0     C64830   4.481   8.433   1.714  0.8725 -0.0689  0.5799
  492MOL0     C64831   4.476   8.321   1.631  0.2863  0.2311 -0.3910
  492MOL0     C64832   4.422   8.310   1.486 -0.7690 -0.8086 -0.8765
  492MOL0     C64833   4.274   8.264   1.473 -0.7442  0.8892  0.8004
  492MOL0     C64834   4.229   8.273   1.323  0.5382 -0.8946 -0.2962
  492MOL0     C64835   4.097   8.190   1.297  0.3405 -0.0314 -0.2000
  492MOL0     O64836   4.055   8.202   1.158  0.6224  0.0240 -0.1509
  492MOL0     C64837   3.924   8.157   1.123 -0.6796  0.4634  0.0985
  492MOL0     C64838   3.844   8.066   1.191 -0.2252  0.6960  0.6248
  492MOL0     C64839   3.724   8.012   1.134 -0.1821  0.2947 -0.6619
  492MOL0     C64840   3.683   8.056   1.006  0.5469  0.9289 -0.1507
  492MOL0     C64841   3.568   7.982   0.940  0.5017 -0.0876  0.1499
  492MOL0     O64842   3.533   7.862   1.000 -0.0848 -0.1399 -0.1059
  492MOL0     C64843   3.431   7.793   0.938 -0.5817 -0.0631  0.2454
  492MOL0     C64844   3.457   7.661   0.910  0.3911  0.4584 -0.1902
  492MOL0     C64845   3.353   7.574   0.867  0.2410  0.9390  0.3047
  492MOL0     C64846   3.230   7.625   0.838 -0.4906 -0.6016 -0.0185
  492MOL0     O64847   3.138   7.532   0.794  0.2802 -0.0928 -0.0486
  492MOL0     C64848   3.177   7.403   0.732  0.3250 -0.2435 -1.2923
  492MOL0     C64849   3.059   7.321   0.697 -0.2956 -0.0561  0.4500
  492MOL0     C64850   2.995   7.372   0.576  0.5509  0.3908 -0.0910
  492MOL0     C64851   2.863   7.300   0.540  0.4709  0.0648  0.8195
  492MOL0     C64852   2.794   7.355   0.409 -0.5697 -0.4428 -0.2615
  492MOL0     C64853   2.669   7.267   0.386 -0.9305  0.1218  0.6038
  492MOL0     C64854   2.557   7.347   0.310  0.1963  0.9981 -0.0631
  492MOL0     C64855   2.437   7.255   0.320 -0.4138 -0.8033  0.5922
  492MOL0    Cl64856   2.282   7.331   0.273 -0.2365  0.0763 -0.1648
  492MOL0     C64857   3.199   7.768   0.860 -0.4995  0.1667 -0.3514
  492MOL0     C64858   3.304   7.848   0.917  0.4939 -0.1200 -0.9847
  492MOL0     O64859   3.501   8.039   0.849  0.2071  0.0496  0.3305
  492MOL0     C64860   3.751   8.158   0.947 -0.2868 -0.8355 -0.7555
  492MOL0     C64861   3.871   8.208   1.006  0.6064 -1.1745 -0.7607
  492MOL0     N64862   4.541   8.215   1.700 -0.5829 -0.1087  0.2030
  492MOL0     N64863   4.592   8.262   1.808  0.1363 -0.5251  0.0026
  492MOL0     C64864   5.570   8.675   2.351 -0.3065 -0.8419 -0.0596
  492MOL0     C64865   5.704   8.693   2.307  0.0938 -0.5992  1.1477
  492MOL0     C64866   6.066   8.816   2.186 -0.3902  0.8942  0.2287
  492MOL0     C64867   6.053   8.901   2.078 -0.1416 -0.1892 -0.1803
  492MOL0     C64868   6.153   8.996   2.053 -0.5712  1.5473 -0.6654
  492MOL0     C64869   6.263   9.015   2.142 -0.4352  0.0448 -0.6963
  492MOL0     O64870   6.343   9.127   2.121 -0.1562 -0.4699 -0.1936
  492MOL0     C64871   6.340   9.223   2.228 -0.1609 -0.8674  0.2935
  492MOL0     C64872   6.203   9.286   2.260  0.8302  0.5882  0.4645
  492MOL0     C64873   6.227   9.427   2.333 -0.0950 -0.2415 -0.2208
  492MOL0     C64874   6.094   9.459   2.400 -0.1046 -0.0078 -0.5455
  492MOL0     C64875   6.105   9.595   2.455  0.5349  0.3314 -0.1420
  492MOL0     C64876   6.111   9.702   2.504 -0.1355 -0.5501 -0.3405
  492MOL0     C64877   6.283   8.925   2.247  0.6303 -0.4689  0.4945
  492MOL0     C64878   6.185   8.827   2.269  0.1792  0.8477  0.4700
  492MOL0     H64879   5.677   8.582   1.991  2.0612 -0.1563 -0.1980
  492MOL0     H64880   5.449   8.526   2.070 -0.6653  0.2883  1.0810
  492MOL0     H64881   5.325   8.707   2.438  0.8113  0.7395 -0.4756
  492MOL0     H64882   5.196   8.591   2.422 -0.7477  2.6867  2.9729
  492MOL0     H64883   5.265   8.833   2.256 -2.4896  2.0408  0.3597
  492MOL0     H64884   5.115   8.801   2.329  0.4146  0.4992  0.8020
  492MOL0     H64885   5.221   8.638   2.099 -0.6621  1.0947 -1.9556
  492MOL0     H64886   5.134   8.782   2.064  0.9793  0.5212 -1.1613
  492MOL0     H64887   5.011   8.569   2.231 -1.2524  2.1942  0.4000
  492MOL0     H64888   4.938   8.711   2.191 -0.0048 -0.0503  0.2827
  492MOL0     H64889   5.009   8.476   2.018  3.1188  2.4639 -0.5505
  492MOL0     H64890   4.975   8.628   1.941 -1.2264 -0.8544 -0.8099
  492MOL0     H64891   4.764   8.642   2.097  0.9454  0.4969  0.2081
  492MOL0     H64892   4.784   8.473   2.141 -2.0088 -2.1811 -2.0171
  492MOL0     H64893   4.771   8.567   1.846 -4.0740 -0.6264 -2.6186
  492MOL0     H64894   4.791   8.400   1.921  0.5288 -0.0265 -0.1178
  492MOL0     H64895   4.547   8.564   1.925 -0.3622 -1.3911  0.0438
  492MOL0     H64896   4.577   8.406   2.022  3.7698 -0.1057  1.7536
  492MOL0     H64897   4.431   8.529   1.711  0.2661 -0.4115 -1.3504
  492MOL0     H64898   4.498   8.242   1.447 -0.2422  0.0935 -1.4821
  492MOL0     H64899   4.452   8.401   1.433  0.2233 -0.4641  0.2401
  492MOL0     H64900   4.209   8.312   1.547 -2.1492 -1.4116  1.1400
  492MOL0     H64901   4.278   8.158   1.499 -0.9304 -0.0065 -2.3391
  492MOL0     H64902   4.214   8.381   1.313  0.1050 -1.1072 -2.5544
  492MOL0     H64903   4.305   8.245   1.250 -0.3093 -1.3265 -1.0360
  492MOL0     H64904   4.010   8.221   1.356  0.1306  2.9112 -1.8547
  492MOL0     H64905   4.112   8.084   1.319 -0.3995  0.1198  1.1661
  492MOL0     H64906   3.875   8.040   1.292 -1.2257  1.2354  1.0876
  492MOL0     H64907   3.673   7.931   1.185 -3.7160  1.7382 -1.5990
  492MOL0     H64908   3.549   7.617   0.948 -0.0948  0.3919  0.9485
  492MOL0     H64909   3.374   7.468   0.863 -3.7672  0.0092 -1.7254
  492MOL0     H64910   3.212   7.337   0.811 -3.0160  1.4521  1.8785
  492MOL0     H64911   3.255   7.405   0.655  3.0065  3.3861  1.1736
  492MOL0     H64912   2.984   7.319   0.777 -2.1905 -0.3706 -1.2685
  492MOL0     H64913   3.082   7.214   0.685 -0.1294 -0.0958  1.0826
  492MOL0     H64914   3.057   7.358   0.487  0.5412  2.0738 -0.4033
  492MOL0     H64915   2.994   7.481   0.588  0.5919  0.1507  2.7995
  492MOL0     H64916   2.865   7.192   0.526 -3.0386  0.0957 -0.8083
  492MOL0     H64917   2.801   7.328   0.626  0.0858  3.0519 -0.2977
  492MOL0     H64918   2.859   7.348   0.321 -2.1965 -2.5234 -1.4018
  492MOL0     H64919   2.764   7.459   0.422  0.2102 -0.1145 -1.0070
  492MOL0     H64920   2.625   7.230   0.479 -0.3636 -3.1831 -0.3120
  492MOL0     H64921   2.693   7.177   0.329 -3.1125  0.8828 -1.7247
  492MOL0     H64922   2.541   7.438   0.368  2.3241  0.1030  2.0707
  492MOL0     H64923   2.585   7.379   0.209 -0.2187 -0.7825 -0.7778
  492MOL0     H64924   2.437   7.215   0.422  1.0978  1.9219  1.7467
  492MOL0     H64925   2.462   7.166   0.262  1.4073 -0.0205  0.1103
  492MOL0     H64926   3.101   7.812   0.847 -0.3260  1.9437  3.0416
  492MOL0     H64927   3.285   7.951   0.946 -1.6444 -0.2838 -1.6450
  492MOL0     H64928   3.719   8.209   0.856  0.4204 -0.1358 -0.6205
  492MOL0     H64929   3.922   8.283   0.945  0.5475  1.6753  2.4459
  492MOL0     H64930   5.537   8.703   2.451 -0.2054 -3.0463  0.6386
  492MOL0     H64931   5.770   8.759   2.362  1.8115 -0.9535 -0.4145
  492MOL0     H64932   5.962   8.907   2.019 -1.0247  0.9434  1.2175
  492MOL0     H64933   6.131   9.073   1.981 -0.8947  1.1849 -0.9602
  492MOL0     H64934   6.407   9.302   2.192 -2.9002  1.8338  0.6877
  492MOL0     H64935   6.377   9.170   2.316  0.7442 -2.4175 -0.9483
  492MOL0     H64936   6.148   9.311   2.169  0.3679 -0.0854  0.5551
  492MOL0     H64937   6.144   9.216   2.319  1.1631  1.5710  2.0326
  492MOL0     H64938   6.245   9.501   2.255  0.9013 -2.6505 -2.4337
  492MOL0     H64939   6.308   9.423   2.406  0.8620  1.0268 -1.1636
  492MOL0     H64940   6.010   9.443   2.332 -0.3924 -1.5860  0.1472
  492MOL0     H64941   6.087   9.394   2.488  3.3726  2.8569  2.1280
  492MOL0     H64942   6.116   9.805   2.535  3.9640 -0.4053 -0.8958
  492MOL0     H64943   6.366   8.922   2.317  0.0571 -3.2132  1.1565
  492MOL0     H64944   6.196   8.766   2.358  2.9661  1.4317  0.6072
  493MOL0     O64945   1.892   7.049  10.145 -0.2395  0.0602  0.6666
  493MOL0     C64946   1.976   6.959  10.129 -0.5859 -0.3770  0.0807
  493MOL0     O64947   1.961   6.820  10.099 -0.7537  0.3747 -0.6873
  493MOL0     C64948   1.841   6.761  10.071  0.1546  0.2549 -0.4117
  493MOL0     C64949   1.742   6.808   9.986  0.6006 -0.0094 -0.2706
  493MOL0     C64950   1.617   6.749   9.965  0.3772 -0.6311  0.0161
  493MOL0     C64951   1.597   6.626  10.029 -0.0160  0.9273 -0.0080
  493MOL0     O64952   1.474   6.566  10.039 -0.3148  0.3464  1.1983
  493MOL0     C64953   1.368   6.652  10.089  0.0262  0.1030  0.0635
  493MOL0     C64954   1.231   6.578  10.078  0.6422 -0.1417 -0.7304
  493MOL0     C64955   1.119   6.682  10.118 -0.7195  0.6363  0.0076
  493MOL0     C64956   0.975   6.650  10.091  0.3684 -0.2810 -0.3640
  493MOL0     C64957   0.946   6.642   9.943 -0.8235 -0.0321 -0.8326
  493MOL0     C64958   0.798   6.611   9.922 -0.1923 -0.1434 -0.2343
  493MOL0     C64959   0.748   6.525   9.804  0.3237  0.0129  0.3236
  493MOL0     C64960   0.780   6.605   9.678  0.5967  0.9483  0.0424
  493MOL0     N64961   0.695   6.725   9.667  0.0560  0.4052  0.0102
  493MOL0     C64962   0.722   6.853   9.688 -0.5737 -0.5794  0.1261
  493MOL0     C64963   0.616   6.924   9.646  0.8770  0.3969 -0.4436
  493MOL0     C64964   0.621   7.081   9.653 -0.1046  1.0273  0.9826
  493MOL0     C64965   0.588   7.129   9.790 -0.4097 -0.0696 -0.0295
  493MOL0     C64966   0.697   7.137   9.902 -0.1855  1.0113  0.1710
  493MOL0     C64967   0.627   7.155  10.039  0.3438 -0.2388  0.2440
  493MOL0     O64968   0.575   7.038  10.108 -0.0591  0.3800  0.0380
  493MOL0     C64969   0.456   7.046  10.176  1.2663  0.1318 -0.2730
  493MOL0     C64970   0.408   6.923  10.215 -0.1816 -0.3759  0.3815
  493MOL0     C64971   0.299   6.912  10.305  0.2482 -0.9044 -0.1117
  493MOL0     C64972   0.242   7.030  10.365 -0.0146 -0.2640  0.1885
  493MOL0     C64973   0.128   7.029  10.454  0.2193 -0.1889 -0.1916
  493MOL0     O64974   0.043   7.143  10.449 -0.9592 -0.0804 -0.1900
  493MOL0     C64975  -0.064   7.151  10.525 -0.5046  0.0754 -1.4807
  493MOL0     C64976  -0.156   7.045  10.560 -0.1085  0.4447 -1.3933
  493MOL0     C64977  -0.276   7.058  10.631  0.6907  0.1295  0.7116
  493MOL0     C64978  -0.293   7.181  10.688  0.3798 -0.0011  0.2241
  493MOL0     O64979  -0.400   7.202  10.764 -0.2334 -0.7340 -0.9805
  493MOL0     C64980  -0.377   7.189  10.903  0.3186 -0.0037 -0.7365
  493MOL0     C64981  -0.491   7.117  10.980 -0.0639  0.2265  0.3274
  493MOL0     C64982  -0.501   6.972  10.929 -0.3887 -0.5028 -0.6515
  493MOL0     C64983  -0.589   6.891  11.023 -0.2537  0.7419  0.1992
  493MOL0     C64984  -0.615   6.753  10.963  1.0600 -1.4514  0.2036
  493MOL0     C64985  -0.657   6.651  11.070  0.0671 -0.7942  1.1673
  493MOL0     C64986  -0.548   6.559  11.139 -0.6228  0.6137 -0.9227
  493MOL0     C64987  -0.622   6.426  11.191  0.6813  0.2268  0.2838
  493MOL0    Cl64988  -0.715   6.349  11.062  0.3608 -0.2677 -0.5006
  493MOL0     C64989  -0.206   7.288  10.674  0.2945  0.1756  0.3391
  493MOL0     C64990  -0.092   7.270  10.598 -0.7159 -0.2165  0.2481
  493MOL0     O64991   0.110   6.927  10.514 -0.3909  0.6332 -0.1670
  493MOL0     C64992   0.306   7.148  10.341 -0.1351 -1.0407 -0.5077
  493MOL0     C64993   0.411   7.158  10.241  0.9150 -1.1571 -0.5088
  493MOL0     N64994   0.510   6.833   9.621  0.0587  0.3253 -0.6428
  493MOL0     N64995   0.565   6.715   9.628  0.1461 -0.2139  0.7178
  493MOL0     C64996   1.710   6.560  10.086  1.0867 -0.6461 -0.5755
  493MOL0     C64997   1.824   6.624  10.116 -0.1746 -0.5154 -0.3932
  493MOL0     C64998   2.114   7.002  10.157 -0.6132 -1.2086  0.1740
  493MOL0     C64999   2.209   6.908  10.192  0.5493 -0.0127  0.0463
  493MOL0     C65000   2.333   6.943  10.229  0.2292  0.2093 -0.5453
  493MOL0     C65001   2.374   7.075  10.231  0.8093 -0.5041 -0.8834
  493MOL0     O65002   2.491   7.132  10.270 -0.5822  0.2793 -0.1312
  493MOL0     C65003   2.585   7.049  10.345  0.9084  0.4632  0.2262
  493MOL0     C65004   2.691   6.996  10.239 -0.7616 -0.1491  0.3127
  493MOL0     C65005   2.804   6.920  10.306 -0.1819 -0.5638 -0.9395
  493MOL0     C65006   2.756   6.811  10.404 -0.3424 -1.1411 -0.7275
  493MOL0     C65007   2.876   6.755  10.466 -0.2688  0.1718  0.0503
  493MOL0     C65008   2.976   6.699  10.500  0.9625 -0.2410 -0.6223
  493MOL0     C65009   2.278   7.173  10.201  0.3493  1.4021 -0.3464
  493MOL0     C65010   2.145   7.137  10.167 -0.4647  0.5825 -0.3792
  493MOL0     H65011   1.757   6.905   9.938  3.4303  0.1049  0.6291
  493MOL0     H65012   1.538   6.805   9.915 -0.5708 -0.7267  1.3615
  493MOL0     H65013   1.350   6.742  10.029 -3.2957 -2.3333 -3.0760
  493MOL0     H65014   1.389   6.675  10.194  0.8257  0.7763 -0.2317
  493MOL0     H65015   1.216   6.495  10.148 -4.7229 -0.6968 -2.1155
  493MOL0     H65016   1.209   6.550   9.975 -0.3123 -1.9777 -0.0748
  493MOL0     H65017   1.142   6.779  10.073 -0.7533  1.3764  1.5082
  493MOL0     H65018   1.127   6.689  10.227 -3.4298  2.9968  0.1909
  493MOL0     H65019   0.970   6.545  10.124  4.1083 -1.6556 -3.3865
  493MOL0     H65020   0.898   6.719  10.128  0.3235  0.6064 -2.0266
  493MOL0     H65021   1.012   6.561   9.913  2.7486  1.5257  2.0312
  493MOL0     H65022   0.968   6.732   9.885 -2.5006  1.2896  0.4648
  493MOL0     H65023   0.742   6.704   9.923 -0.6131 -0.2512 -3.5001
  493MOL0     H65024   0.765   6.558  10.011  0.6508  3.2972  2.3455
  493MOL0     H65025   0.810   6.435   9.798  2.5529  1.5541 -2.2214
  493MOL0     H65026   0.645   6.491   9.813  1.3933 -3.9182 -0.6224
  493MOL0     H65027   0.752   6.538   9.596 -0.4777 -0.2271  1.3208
  493MOL0     H65028   0.887   6.629   9.672  0.6533  0.6480 -0.1773
  493MOL0     H65029   0.810   6.897   9.734  2.1366 -3.3596 -1.9922
  493MOL0     H65030   0.549   7.119   9.580  0.9968  0.1981 -0.5811
  493MOL0     H65031   0.719   7.118   9.624 -1.3617  2.9452 -1.1400
  493MOL0     H65032   0.498   7.074   9.818 -1.2424  1.9780  1.5713
  493MOL0     H65033   0.561   7.234   9.779 -3.2248 -0.9336 -3.1661
  493MOL0     H65034   0.756   7.045   9.895 -0.2416  1.1133 -2.7721
  493MOL0     H65035   0.756   7.227   9.886  5.0416 -1.7846  1.5657
  493MOL0     H65036   0.552   7.234  10.028  1.9469  1.5214  1.2141
  493MOL0     H65037   0.702   7.197  10.107  0.8180 -0.2845 -0.2341
  493MOL0     H65038   0.450   6.831  10.174  0.5003 -0.5900  1.5078
  493MOL0     H65039   0.254   6.816  10.331 -2.8120  1.0403  2.4223
  493MOL0     H65040  -0.128   6.949  10.519  0.8872  1.1748 -2.5173
  493MOL0     H65041  -0.352   6.980  10.637  1.3830 -1.0328 -3.1235
  493MOL0     H65042  -0.371   7.288  10.949 -1.8867 -1.1837  2.4893
  493MOL0     H65043  -0.284   7.138  10.929 -0.1544 -1.9856 -2.6497
  493MOL0     H65044  -0.587   7.164  10.956 -0.0162 -0.6113 -1.7130
  493MOL0     H65045  -0.466   7.116  11.087  0.0309  2.6803  0.3994
  493MOL0     H65046  -0.402   6.924  10.927  0.0540  0.4101 -1.5126
  493MOL0     H65047  -0.540   6.967  10.826 -2.0707  0.6062 -0.1011
  493MOL0     H65048  -0.533   6.888  11.117 -1.3816  2.1237  0.9560
  493MOL0     H65049  -0.681   6.945  11.049 -0.4156 -0.4326  2.2834
  493MOL0     H65050  -0.531   6.724  10.898  1.3031 -0.1465 -0.0852
  493MOL0     H65051  -0.693   6.764  10.887  2.0733  1.2257 -0.5393
  493MOL0     H65052  -0.720   6.588  11.007 -0.1115 -1.1086  1.6450
  493MOL0     H65053  -0.725   6.701  11.140 -1.2615 -0.6237 -0.1951
  493MOL0     H65054  -0.468   6.521  11.075  0.2330  0.1838  0.3730
  493MOL0     H65055  -0.500   6.600  11.228 -1.2516 -4.1771  1.9594
  493MOL0     H65056  -0.696   6.452  11.267 -0.6714  1.8517 -1.4745
  493MOL0     H65057  -0.548   6.353  11.225  1.2184 -0.3422 -1.9356
  493MOL0     H65058  -0.220   7.387  10.718 -0.1991 -0.3735  1.4598
  493MOL0     H65059  -0.027   7.356  10.585  0.2094 -0.2977  3.4344
  493MOL0     H65060   0.266   7.233  10.396  0.3816 -1.8626  1.2022
  493MOL0     H65061   0.472   7.248  10.243  1.2878 -1.4106  0.8783
  493MOL0     H65062   1.694   6.459  10.123 -2.4597 -0.6102 -1.6003
  493MOL0     H65063   1.897   6.569  10.175  0.9628 -1.1485 -2.3278
  493MOL0     H65064   2.182   6.806  10.216  0.8594 -0.8601 -2.8752
  493MOL0     H65065   2.383   6.862  10.280 -1.8068 -0.7819 -0.0019
  493MOL0     H65066   2.537   6.970  10.404  1.3047 -0.2888 -0.4329
  493MOL0     H65067   2.624   7.121  10.417  0.4861  0.7774  0.1439
  493MOL0     H65068   2.631   6.934  10.171 -2.3064  0.8941  0.6560
  493MOL0     H65069   2.729   7.079  10.179 -3.6106  0.8322 -0.3193
  493MOL0     H65070   2.875   6.993  10.347  0.9659 -0.5755 -2.7835
  493MOL0     H65071   2.855   6.880  10.218  1.6260  0.3404 -0.3617
  493MOL0     H65072   2.695   6.855  10.484  0.1620 -0.8566 -0.4961
  493MOL0     H65073   2.696   6.742  10.345  0.4750 -2.8493  0.3725
  493MOL0     H65074   3.071   6.650  10.508 -0.0864 -2.0469  2.6358
  493MOL0     H65075   2.297   7.279  10.190 -2.2419  2.3012  2.5813
  493MOL0     H65076   2.072   7.213  10.140 -1.0001  0.0775 -0.3708
  494MOL0     O65077   8.940  10.883   1.618  0.5748  0.2161  0.4980
  494MOL0     C65078   8.938  10.759   1.583 -0.8629  0.1591 -0.1264
  494MOL0     O65079   9.048  10.673   1.581  0.0260  0.4233  0.4355
  494MOL0     C65080   9.154  10.736   1.637  0.2560 -0.6195 -1.5618
  494MOL0     C65081   9.239  10.835   1.581 -0.0632  0.5160  0.7929
  494MOL0     C65082   9.356  10.872   1.656 -0.2061 -0.4469  1.2966
  494MOL0     C65083   9.392  10.832   1.779 -0.0790  0.7537 -0.4711
  494MOL0     O65084   9.495  10.902   1.836 -0.5942 -0.1399 -0.1929
  494MOL0     C65085   9.546  10.851   1.961  0.6024  0.3422  0.4069
  494MOL0     C65086   9.646  10.945   2.013 -0.6325 -0.2122  0.2354
  494MOL0     C65087   9.681  10.916   2.168  0.4149 -0.6540 -0.8791
  494MOL0     C65088   9.791  11.013   2.213  0.3349 -0.8061 -0.5648
  494MOL0     C65089   9.747  11.161   2.214 -0.0473 -0.8146  1.1842
  494MOL0     C65090   9.843  11.243   2.313  0.3630 -0.5584  0.6879
  494MOL0     C65091   9.849  11.397   2.270  0.7106 -0.1863  1.0271
  494MOL0     C65092   9.717  11.479   2.271  0.3982 -0.0128  0.0307
  494MOL0     N65093   9.696  11.536   2.403  0.0984 -0.0167 -0.3105
  494MOL0     C65094   9.738  11.655   2.440 -0.0546  0.7641 -0.2278
  494MOL0     C65095   9.745  11.652   2.574 -0.1523  0.2657 -0.4478
  494MOL0     C65096   9.796  11.760   2.664  0.3149  0.0190  0.2696
  494MOL0     C65097   9.871  11.879   2.595  0.7550 -1.0612  0.3448
  494MOL0     C65098   9.831  12.008   2.671  0.7866 -0.0166 -0.4116
  494MOL0     C65099   9.941  12.110   2.678 -0.3851 -0.0233 -0.3974
  494MOL0     O65100  10.000  12.142   2.547  0.4454  0.1394 -0.2406
  494MOL0     C65101   9.953  12.258   2.489  0.0382 -0.0038 -0.5951
  494MOL0     C65102   9.827  12.309   2.510 -1.0494 -0.0688  0.6368
  494MOL0     C65103   9.796  12.428   2.440  0.5571  0.4348  0.8151
  494MOL0     C65104   9.877  12.481   2.339  0.4129  0.0889  0.1901
  494MOL0     C65105   9.830  12.605   2.261 -0.0676  0.7937  0.1744
  494MOL0     O65106   9.702  12.628   2.273  0.7224 -0.3841  0.5681
  494MOL0     C65107   9.646  12.740   2.238  0.1920  0.4007 -0.3238
  494MOL0     C65108   9.684  12.819   2.122 -1.2080 -1.0324 -0.8438
  494MOL0     C65109   9.620  12.943   2.091 -0.1967  0.0655  0.0847
  494MOL0     C65110   9.517  12.983   2.180  0.2460 -0.0548 -0.1414
  494MOL0     O65111   9.444  13.090   2.150 -0.1070 -0.4889  0.9615
  494MOL0     C65112   9.405  13.176   2.264 -1.2178  1.0789  0.3390
  494MOL0     C65113   9.370  13.325   2.216  0.2502 -0.1706  0.1554
  494MOL0     C65114   9.229  13.346   2.158 -0.0949  0.7598 -0.6211
  494MOL0     C65115   9.219  13.492   2.115 -1.4511 -1.3358  1.0469
  494MOL0     C65116   9.107  13.522   2.019  1.0635 -0.4650 -0.6162
  494MOL0     C65117   8.967  13.488   2.075 -0.2917  0.6464 -0.3918
  494MOL0     C65118   8.866  13.540   1.971 -0.1806  0.0430 -0.4807
  494MOL0     C65119   8.731  13.469   1.974  0.4372 -0.3745 -0.1324
  494MOL0    Cl65120   8.660  13.502   2.120  0.1193  0.3481 -0.5499
  494MOL0     C65121   9.473  12.898   2.283  0.0677 -1.0130  0.3461
  494MOL0     C65122   9.541  12.783   2.310  0.9597  0.2906  0.3475
  494MOL0     O65123   9.910  12.675   2.198 -0.3332 -0.1481  0.5086
  494MOL0     C65124   9.996  12.418   2.302 -0.0050  0.1663  0.4415
  494MOL0     C65125  10.033  12.314   2.380  0.1298  0.4583 -0.3488
  494MOL0     N65126   9.700  11.530   2.623  0.4061 -0.2225 -0.3016
  494MOL0     N65127   9.669  11.461   2.520  0.9875  0.4635  1.1899
  494MOL0     C65128   9.314  10.726   1.829  0.0514 -0.2319 -0.8817
  494MOL0     C65129   9.198  10.678   1.761  0.7351 -0.2157  0.3239
  494MOL0     C65130   8.814  10.717   1.516 -0.2532 -0.8154  0.8604
  494MOL0     C65131   8.787  10.582   1.486 -0.8819  0.3323  0.7646
  494MOL0     C65132   8.679  10.543   1.408 -0.1840 -0.0803  0.4976
  494MOL0     C65133   8.567  10.628   1.396 -0.2397  0.3323  0.3536
  494MOL0     O65134   8.451  10.602   1.337 -1.0876 -0.4968 -0.8107
  494MOL0     C65135   8.418  10.483   1.267  0.0228 -0.3120  0.2442
  494MOL0     C65136   8.307  10.415   1.347 -0.2661  0.3489 -0.8321
  494MOL0     C65137   8.350  10.387   1.496 -1.3904  0.8642  0.0743
  494MOL0     C65138   8.235  10.308   1.563 -0.3280 -1.0152  0.2755
  494MOL0     C65139   8.159  10.406   1.637  0.0823  0.1058 -0.1931
  494MOL0     C65140   8.112  10.494   1.703  1.0300  0.2821  0.3020
  494MOL0     C65141   8.581  10.753   1.444  0.6409 -0.3314  0.3697
  494MOL0     C65142   8.695  10.793   1.509  0.0795  0.6255  0.5561
  494MOL0     H65143   9.221  10.871   1.479  0.8430 -0.8530  0.1351
  494MOL0     H65144   9.423  10.948   1.617  0.6936 -1.8789 -0.0805
  494MOL0     H65145   9.591  10.753   1.942 -1.3353 -0.2041 -1.8844
  494MOL0     H65146   9.455  10.847   2.021 -0.1991 -2.1741 -0.8422
  494MOL0     H65147   9.616  11.047   1.989 -0.2752 -0.6737 -2.5071
  494MOL0     H65148   9.738  10.943   1.953  0.0920  2.9825  1.0420
  494MOL0     H65149   9.724  10.815   2.174  0.9138 -0.3636  1.4000
  494MOL0     H65150   9.588  10.916   2.226 -0.4915 -1.1210 -2.2749
  494MOL0     H65151   9.831  10.972   2.307  0.5437 -1.2880 -0.8594
  494MOL0     H65152   9.890  11.011   2.166  1.8158  0.9838  2.1560
  494MOL0     H65153   9.644  11.187   2.242 -0.3115  2.9047 -2.2974
  494MOL0     H65154   9.762  11.204   2.114  0.6614 -0.7947  1.2983
  494MOL0     H65155   9.946  11.207   2.317 -0.1748 -2.1121  1.5244
  494MOL0     H65156   9.790  11.237   2.409 -0.7763 -0.4707  0.0828
  494MOL0     H65157   9.928  11.445   2.328  0.1158  1.1994  0.7330
  494MOL0     H65158   9.891  11.406   2.169  3.4979 -1.0145  2.0110
  494MOL0     H65159   9.633  11.422   2.230  1.4280 -1.0085 -0.7591
  494MOL0     H65160   9.717  11.554   2.192 -2.0969  2.2571  1.9664
  494MOL0     H65161   9.764  11.744   2.383  0.2385  1.5533  1.0803
  494MOL0     H65162   9.848  11.713   2.748  1.3972  0.5987 -0.0645
  494MOL0     H65163   9.706  11.803   2.708 -1.5369 -2.2321 -1.0936
  494MOL0     H65164   9.861  11.895   2.487  2.7124  0.8682  0.3931
  494MOL0     H65165   9.978  11.858   2.597  1.0573  0.0811 -1.4021
  494MOL0     H65166   9.746  12.056   2.623 -1.3959  0.1144  3.2168
  494MOL0     H65167   9.795  11.980   2.771 -2.6267  0.6133 -1.3172
  494MOL0     H65168  10.021  12.062   2.735 -1.8588 -1.2901  0.6831
  494MOL0     H65169   9.909  12.201   2.730  1.2986  0.4334 -0.1179
  494MOL0     H65170   9.751  12.260   2.571 -2.2120 -0.4260 -1.0083
  494MOL0     H65171   9.700  12.472   2.465 -1.5870 -2.6525 -1.2349
  494MOL0     H65172   9.760  12.788   2.051 -0.2673 -0.5877 -0.0520
  494MOL0     H65173   9.651  12.994   2.000  1.5848 -1.1630 -0.0510
  494MOL0     H65174   9.486  13.176   2.338 -2.1461 -0.6358  1.4303
  494MOL0     H65175   9.314  13.134   2.308  0.0364 -1.5519  0.6158
  494MOL0     H65176   9.445  13.361   2.146  2.5115  0.1477  2.5918
  494MOL0     H65177   9.381  13.397   2.298 -1.9228  1.2777 -0.7292
  494MOL0     H65178   9.146  13.338   2.230  1.1986  0.4883  0.8904
  494MOL0     H65179   9.210  13.278   2.075 -1.7181 -1.7548  1.6285
  494MOL0     H65180   9.219  13.562   2.200 -1.0079  0.1399 -0.1140
  494MOL0     H65181   9.314  13.510   2.063 -2.6704  2.4918 -0.1589
  494MOL0     H65182   9.120  13.468   1.925 -2.3672 -1.8985 -0.4058
  494MOL0     H65183   9.102  13.630   2.001  1.2231  0.0184  1.8100
  494MOL0     H65184   8.958  13.549   2.166  2.1405  2.2681 -1.1199
  494MOL0     H65185   8.947  13.385   2.107 -2.6307  1.4805  1.1483
  494MOL0     H65186   8.862  13.649   1.976  1.8906  0.1385 -0.0514
  494MOL0     H65187   8.897  13.513   1.869  1.1398 -3.1477  0.6260
  494MOL0     H65188   8.759  13.364   1.978  0.4380 -0.3514  1.9777
  494MOL0     H65189   8.657  13.489   1.897  0.0304 -0.3189  0.2671
  494MOL0     H65190   9.388  12.927   2.344  1.2738  0.0972  1.5780
  494MOL0     H65191   9.504  12.717   2.388  1.9483 -1.8137 -0.8493
  494MOL0     H65192  10.064  12.476   2.242  2.2042 -0.2409  2.4026
  494MOL0     H65193  10.130  12.266   2.368 -1.0523 -2.7007  1.2664
  494MOL0     H65194   9.325  10.684   1.928  0.3792  0.6188 -0.5462
  494MOL0     H65195   9.138  10.602   1.810  0.4781 -0.6218 -0.5972
  494MOL0     H65196   8.866  10.509   1.502  0.7235  0.6755 -3.8256
  494MOL0     H65197   8.667  10.436   1.389  1.1192 -0.3863  1.2846
  494MOL0     H65198   8.505  10.419   1.247 -0.3201 -0.5186 -0.6216
  494MOL0     H65199   8.380  10.513   1.169 -1.0382 -0.0241  0.7281
  494MOL0     H65200   8.213  10.472   1.349 -0.5306 -0.0829 -0.8729
  494MOL0     H65201   8.283  10.323   1.293 -0.4289  0.0667 -0.2822
  494MOL0     H65202   8.375  10.486   1.535  1.6581  0.9896 -1.8226
  494MOL0     H65203   8.446  10.337   1.504 -0.2536  3.1981  2.3087
  494MOL0     H65204   8.169  10.264   1.487  2.1318 -3.0702 -0.8020
  494MOL0     H65205   8.270  10.236   1.637  2.6529 -1.3727 -1.3420
  494MOL0     H65206   8.067  10.572   1.761 -3.1073 -0.2758 -1.8082
  494MOL0     H65207   8.494  10.819   1.445 -0.4797 -1.7042  2.7775
  494MOL0     H65208   8.706  10.896   1.543 -1.1309  0.3179  2.0166
  495MOL0     O65209  10.024  10.861   6.116  0.3875  0.3770 -0.6138
  495MOL0     C65210   9.960  10.958   6.083  0.0476 -0.4449 -0.1880
  495MOL0     O65211   9.967  11.014   5.952 -0.2932 -0.2084  0.0796
  495MOL0     C65212  10.032  10.955   5.846  0.7180 -0.5393 -0.3540
  495MOL0     C65213  10.055  10.818   5.829  1.3574  1.1089  0.0602
  495MOL0     C65214  10.119  10.772   5.715  0.5805 -0.0563  0.3511
  495MOL0     C65215  10.162  10.859   5.613  0.4678  0.3950  0.4418
  495MOL0     O65216  10.251  10.799   5.528  0.2382  0.3028  0.2733
  495MOL0     C65217  10.260  10.839   5.390 -0.6566  0.7040 -0.4343
  495MOL0     C65218  10.336  10.735   5.321 -0.1883  0.5783  0.2368
  495MOL0     C65219  10.398  10.815   5.206  0.2053  0.3137 -0.4972
  495MOL0     C65220  10.459  10.726   5.106  0.5225  0.2664 -0.5050
  495MOL0     C65221  10.479  10.782   4.961 -0.3694  0.0027  0.1731
  495MOL0     C65222  10.601  10.875   4.961 -0.1340  0.1029 -0.1119
  495MOL0     C65223  10.616  10.960   4.826  0.5559 -0.2781 -0.2799
  495MOL0     C65224  10.641  10.893   4.698 -0.5234 -0.7039  0.1860
  495MOL0     N65225  10.651  10.985   4.577  0.2308 -0.1272 -0.3563
  495MOL0     C65226  10.753  11.079   4.551  0.4257  0.5561 -1.2244
  495MOL0     C65227  10.733  11.106   4.418 -1.1409  1.3351  0.3097
  495MOL0     C65228  10.822  11.198   4.333  0.3162 -0.3704  0.7875
  495MOL0     C65229  10.905  11.294   4.426  0.3904  0.5741  0.3703
  495MOL0     C65230  10.817  11.406   4.488 -0.6587 -1.3728 -0.4446
  495MOL0     C65231  10.875  11.487   4.601 -0.5655 -0.4871  0.1265
  495MOL0     O65232  10.942  11.404   4.693  0.4802  0.9050  0.6500
  495MOL0     C65233  10.893  11.357   4.815  1.0681 -0.0414  0.3239
  495MOL0     C65234  10.757  11.333   4.842  0.0747 -0.8645 -0.1317
  495MOL0     C65235  10.712  11.291   4.970 -0.6365  0.0217  0.5349
  495MOL0     C65236  10.803  11.275   5.078 -0.5367  0.9438 -0.0333
  495MOL0     C65237  10.762  11.234   5.218  0.7099 -0.4476 -0.6147
  495MOL0     O65238  10.646  11.158   5.234 -0.5841 -0.1691  0.0922
  495MOL0     C65239  10.592  11.128   5.355 -0.8842  0.5444 -0.8393
  495MOL0     C65240  10.654  11.030   5.435  0.7958 -0.3625  0.5256
  495MOL0     C65241  10.596  10.997   5.556  0.9279  1.2818  0.3465
  495MOL0     C65242  10.479  11.062   5.604 -0.8242  0.2549  1.9114
  495MOL0     O65243  10.432  11.053   5.729 -0.5486  1.0340 -0.0939
  495MOL0     C65244  10.496  10.953   5.821 -0.1907 -0.1836  0.9541
  495MOL0     C65245  10.408  10.935   5.936 -0.2308 -0.6367 -0.3723
  495MOL0     C65246  10.460  10.820   6.024 -0.4655  0.8173  0.3078
  495MOL0     C65247  10.401  10.816   6.169  0.1913 -0.5370  0.1897
  495MOL0     C65248  10.476  10.911   6.270 -0.1400 -0.4281  0.1971
  495MOL0     C65249  10.395  10.978   6.380  0.7543 -0.1391 -0.5321
  495MOL0     C65250  10.337  10.869   6.468  0.4958  0.0250  0.1870
  495MOL0     C65251  10.262  10.940   6.588 -0.5044 -0.0022 -0.3471
  495MOL0    Cl65252  10.362  11.051   6.695  0.5490 -0.0744  0.0137
  495MOL0     C65253  10.430  11.171   5.531  0.6501  0.0473 -0.2100
  495MOL0     C65254  10.479  11.197   5.405 -0.6186  0.3834 -0.3873
  495MOL0     O65255  10.840  11.266   5.306  0.2978  0.5362 -1.4600
  495MOL0     C65256  10.937  11.309   5.050 -0.1705  0.2697  0.4219
  495MOL0     C65257  10.981  11.342   4.927  0.4155 -0.3591  0.7034
  495MOL0     N65258  10.614  11.039   4.372 -0.4642 -0.1098 -0.3048
  495MOL0     N65259  10.573  10.963   4.472 -0.5796  0.0025 -0.0230
  495MOL0     C65260  10.127  10.988   5.621  0.5555 -0.0201 -0.3088
  495MOL0     C65261  10.071  11.038   5.740  0.8739 -0.2213 -0.0566
  495MOL0     C65262   9.905  11.032   6.199  0.4084 -0.4719  0.1942
  495MOL0     C65263   9.820  11.142   6.176  0.0603  0.6882 -0.1021
  495MOL0     C65264   9.790  11.236   6.277 -0.4844 -0.4022  0.2771
  495MOL0     C65265   9.826  11.215   6.409 -0.0289 -0.3062 -0.4225
  495MOL0     O65266   9.807  11.309   6.502  0.0134 -0.1296  0.3950
  495MOL0     C65267   9.677  11.355   6.549 -0.2065  0.3784  0.3483
  495MOL0     C65268   9.662  11.501   6.500 -0.2038  0.5903 -0.0321
  495MOL0     C65269   9.565  11.577   6.584 -0.6227  0.9318 -0.2798
  495MOL0     C65270   9.533  11.725   6.523  0.0399 -0.0821  0.4521
  495MOL0     C65271   9.456  11.710   6.398 -0.2403  0.3172 -0.9727
  495MOL0     C65272   9.391  11.705   6.295  0.6207  0.1411 -0.3463
  495MOL0     C65273   9.910  11.109   6.441 -0.3693  0.3216 -0.6255
  495MOL0     C65274   9.943  11.013   6.337  0.1648 -0.0011 -0.5660
  495MOL0     H65275  10.029  10.745   5.906  1.3105 -1.6450 -2.3573
  495MOL0     H65276  10.157  10.671   5.704 -0.3882 -0.1712 -3.5462
  495MOL0     H65277  10.307  10.937   5.381  1.7384 -0.3299  0.0530
  495MOL0     H65278  10.158  10.852   5.352 -0.2688  4.0540 -0.5626
  495MOL0     H65279  10.276  10.656   5.276 -1.5854  2.0826 -0.6421
  495MOL0     H65280  10.424  10.712   5.382 -0.0267  4.1373  1.6374
  495MOL0     H65281  10.468  10.883   5.255 -0.8026  0.5060  0.7401
  495MOL0     H65282  10.317  10.866   5.154 -0.6331 -0.8765 -0.4218
  495MOL0     H65283  10.557  10.688   5.136  0.3764 -0.0539 -0.4312
  495MOL0     H65284  10.394  10.640   5.086  1.6799 -0.6632 -0.4038
  495MOL0     H65285  10.385  10.817   4.918 -0.3475 -3.6332 -3.4680
  495MOL0     H65286  10.516  10.698   4.902 -1.2844 -1.3425  1.4328
  495MOL0     H65287  10.692  10.818   4.984  1.9789  3.2615  0.0459
  495MOL0     H65288  10.594  10.934   5.052 -1.2669 -1.4631  0.8510
  495MOL0     H65289  10.520  11.013   4.818 -1.1744 -3.1302  0.3134
  495MOL0     H65290  10.696  11.034   4.836 -0.7419  1.4099 -1.5934
  495MOL0     H65291  10.567  10.815   4.680 -1.7523  0.8461 -1.9106
  495MOL0     H65292  10.730  10.829   4.707 -0.5506 -0.6717  0.7250
  495MOL0     H65293  10.834  11.099   4.620  0.3771 -2.1166 -0.2714
  495MOL0     H65294  10.755  11.245   4.261  1.3902 -0.4269 -0.2752
  495MOL0     H65295  10.898  11.155   4.268  0.0556  2.1403 -1.2995
  495MOL0     H65296  10.972  11.346   4.356  1.7583 -0.7249  0.6619
  495MOL0     H65297  10.965  11.234   4.495  0.0440 -0.6406 -0.3421
  495MOL0     H65298  10.789  11.479   4.411 -0.6823  0.5107  1.2538
  495MOL0     H65299  10.729  11.356   4.530 -0.3429 -1.6450 -0.1012
  495MOL0     H65300  10.797  11.540   4.656  0.2460 -0.2741  1.0967
  495MOL0     H65301  10.948  11.559   4.565  0.8092 -1.0488  1.6536
  495MOL0     H65302  10.675  11.352   4.773  0.7917  1.8739 -0.3695
  495MOL0     H65303  10.606  11.291   4.992 -0.8964 -0.5532 -0.6453
  495MOL0     H65304  10.740  10.967   5.414  0.6522 -0.4488  0.1870
  495MOL0     H65305  10.650  10.921   5.612 -0.2586 -0.3007 -0.5808
  495MOL0     H65306  10.595  10.988   5.849  0.2284  0.0283 -0.7040
  495MOL0     H65307  10.503  10.852   5.780  1.8899  0.0791  0.5732
  495MOL0     H65308  10.309  10.918   5.892 -2.3151 -0.1035  3.6400
  495MOL0     H65309  10.410  11.029   5.991  2.8078  0.3091 -1.8462
  495MOL0     H65310  10.568  10.834   6.037  0.3678 -2.4834 -1.9034
  495MOL0     H65311  10.442  10.724   5.975 -3.5878 -0.7417  3.9674
  495MOL0     H65312  10.297  10.848   6.166  0.7983  1.6279 -1.6271
  495MOL0     H65313  10.407  10.712   6.202  1.9390 -0.5397 -0.0077
  495MOL0     H65314  10.521  10.985   6.204 -0.4236 -0.8063 -0.4390
  495MOL0     H65315  10.558  10.856   6.317 -0.2969 -1.5052 -0.7339
  495MOL0     H65316  10.303  11.018   6.337  0.6849  1.5259  1.0311
  495MOL0     H65317  10.454  11.044   6.444 -0.5627  0.6836 -0.1408
  495MOL0     H65318  10.256  10.821   6.412 -2.5758  2.6919  1.9635
  495MOL0     H65319  10.403  10.788   6.497 -0.9755 -2.5033 -2.8951
  495MOL0     H65320  10.209  10.859   6.640  0.4497 -2.0379 -2.3835
  495MOL0     H65321  10.192  11.020   6.563 -0.1661  1.8639  3.8622
  495MOL0     H65322  10.353  11.236   5.571 -0.6824 -1.0500 -0.9054
  495MOL0     H65323  10.435  11.277   5.347 -0.1107  2.2330  1.6411
  495MOL0     H65324  11.015  11.278   5.118  0.6071  0.5409 -0.3309
  495MOL0     H65325  11.088  11.351   4.908  0.4368 -1.9992 -0.1791
  495MOL0     H65326  10.161  11.056   5.544  2.1682 -1.5590 -1.0133
  495MOL0     H65327  10.064  11.146   5.732  1.7780 -0.2730 -2.4292
  495MOL0     H65328   9.793  11.162   6.073  0.9358  3.4495  0.1171
  495MOL0     H65329   9.736  11.330   6.272 -0.7235 -0.0098  5.3020
  495MOL0     H65330   9.669  11.356   6.658 -0.8845  1.3969  0.2979
  495MOL0     H65331   9.600  11.289   6.510 -0.6680  2.9592 -3.6540
  495MOL0     H65332   9.759  11.553   6.498 -0.3725  0.8876 -1.4412
  495MOL0     H65333   9.636  11.481   6.396  2.9772 -1.3856 -0.5793
  495MOL0     H65334   9.631  11.576   6.671  1.8692 -1.9247 -2.0153
  495MOL0     H65335   9.473  11.518   6.592  1.2192 -3.5210 -5.4199
  495MOL0     H65336   9.486  11.786   6.601 -1.5474 -3.2402  2.1925
  495MOL0     H65337   9.631  11.770   6.507  1.4847 -2.4346  2.0820
  495MOL0     H65338   9.333  11.705   6.205  3.0734 -3.5184 -2.1537
  495MOL0     H65339   9.948  11.115   6.543 -1.6121  1.8193 -0.2151
  495MOL0     H65340  10.021  10.939   6.344 -1.6210 -1.9819 -0.6376
  496MOL0     O65341   0.307   2.977   1.727 -0.1226 -0.1989 -0.7978
  496MOL0     C65342   0.367   2.947   1.626 -0.0467 -0.8801  0.2175
  496MOL0     O65343   0.435   2.835   1.607  0.1979  0.5027  0.0724
  496MOL0     C65344   0.424   2.735   1.706 -0.0328 -0.4558  0.8222
  496MOL0     C65345   0.532   2.719   1.794  0.9231 -0.4236 -1.6178
  496MOL0     C65346   0.550   2.599   1.872 -0.6333  0.7089 -0.2446
  496MOL0     C65347   0.440   2.516   1.891  0.5963  0.3011 -0.2214
  496MOL0     O65348   0.455   2.401   1.970  0.0842  0.7223  0.9238
  496MOL0     C65349   0.532   2.291   1.918 -0.8016  0.2332  0.8357
  496MOL0     C65350   0.599   2.215   2.031  0.5904 -0.1025 -0.3014
  496MOL0     C65351   0.680   2.305   2.128 -0.3358 -0.0425 -0.0950
  496MOL0     C65352   0.808   2.362   2.063 -0.2368 -0.1865  1.1666
  496MOL0     C65353   0.870   2.461   2.158 -0.7652  0.1776 -0.7178
  496MOL0     C65354   0.985   2.532   2.079  1.1398  0.9916 -0.2643
  496MOL0     C65355   1.051   2.619   2.180  0.3222  0.1430  0.2447
  496MOL0     C65356   1.172   2.691   2.127 -0.6539  0.3602  0.1001
  496MOL0     N65357   1.280   2.595   2.089  0.2434 -0.6299 -0.3035
  496MOL0     C65358   1.319   2.569   1.955  0.1698 -0.6818  0.3127
  496MOL0     C65359   1.441   2.500   1.962  0.3587  0.7968 -0.4107
  496MOL0     C65360   1.506   2.436   1.844 -0.2989  0.0784 -0.8841
  496MOL0     C65361   1.650   2.474   1.835 -0.2088 -0.1637  0.2904
  496MOL0     C65362   1.749   2.428   1.934 -0.0624  0.6232 -0.9066
  496MOL0     C65363   1.800   2.287   1.911  0.3181 -0.2914  0.1234
  496MOL0     O65364   1.896   2.300   1.803  0.6410  0.5797 -0.3950
  496MOL0     C65365   1.993   2.201   1.785  0.3981 -0.0359  0.0566
  496MOL0     C65366   2.106   2.217   1.696  0.1327  0.4346  0.6281
  496MOL0     C65367   2.192   2.112   1.669  0.5977  0.6238 -0.6936
  496MOL0     C65368   2.175   1.991   1.750  0.0738 -0.0240 -0.0619
  496MOL0     C65369   2.268   1.883   1.736 -0.0568  0.0260 -0.5858
  496MOL0     O65370   2.268   1.783   1.827 -0.4797  0.4363 -0.5692
  496MOL0     C65371   2.360   1.683   1.798  0.2065  0.3619 -0.5371
  496MOL0     C65372   2.324   1.549   1.771  0.1405  0.6499  0.0348
  496MOL0     C65373   2.421   1.450   1.778  0.4738  0.4784  0.2305
  496MOL0     C65374   2.557   1.482   1.802 -0.1962 -0.9129  0.7869
  496MOL0     O65375   2.645   1.382   1.811  0.0849 -0.5199  0.2991
  496MOL0     C65376   2.650   1.283   1.702  1.0941  0.0937 -0.0140
  496MOL0     C65377   2.782   1.204   1.704  1.1011 -0.1687 -0.7746
  496MOL0     C65378   2.895   1.282   1.634 -0.0972 -0.3498  0.5210
  496MOL0     C65379   3.019   1.203   1.645  0.6059  0.7578  0.2673
  496MOL0     C65380   3.136   1.286   1.578  0.2972 -0.7592  0.6366
  496MOL0     C65381   3.284   1.281   1.633  0.0335 -0.5564  0.2961
  496MOL0     C65382   3.304   1.335   1.773 -0.2353  0.1397  0.1514
  496MOL0     C65383   3.452   1.321   1.807 -0.4071  0.0030  0.6295
  496MOL0    Cl65384   3.571   1.415   1.707 -0.2609 -0.2964  0.0288
  496MOL0     C65385   2.587   1.610   1.843 -0.7243 -0.5652 -0.1676
  496MOL0     C65386   2.495   1.717   1.839  0.1753 -0.7337 -0.6382
  496MOL0     O65387   2.352   1.898   1.640 -0.0049 -0.8918 -0.9942
  496MOL0     C65388   2.064   1.973   1.830  0.5199  1.3637  0.3640
  496MOL0     C65389   1.969   2.073   1.845 -0.0174  0.2160  0.0357
  496MOL0     N65390   1.466   2.489   2.100  0.0677  0.4094  0.4068
  496MOL0     N65391   1.369   2.550   2.177  0.1088  0.2956 -0.4350
  496MOL0     C65392   0.325   2.542   1.809  0.0877 -0.0346 -0.2717
  496MOL0     C65393   0.333   2.638   1.706  0.3037 -0.3490 -0.0496
  496MOL0     C65394   0.380   3.050   1.510  0.0770  0.4381 -0.3074
  496MOL0     C65395   0.298   3.161   1.522  0.2468 -0.0545  0.1214
  496MOL0     C65396   0.292   3.253   1.418 -0.1229 -0.6289  0.1232
  496MOL0     C65397   0.363   3.238   1.302 -0.2077  1.2397 -0.0630
  496MOL0     O65398   0.355   3.326   1.200  0.3071  1.1497 -0.7941
  496MOL0     C65399   0.419   3.296   1.069 -0.3439  0.1364 -0.3705
  496MOL0     C65400   0.561   3.349   1.060 -0.0065 -1.0466 -0.2835
  496MOL0     C65401   0.648   3.271   0.964 -0.7904  0.3289 -0.8004
  496MOL0     C65402   0.795   3.278   0.972  0.6887 -0.8624  0.8427
  496MOL0     C65403   0.836   3.244   1.107 -0.5120  0.4721  0.1800
  496MOL0     C65404   0.865   3.221   1.218  0.4214 -0.3655 -0.5283
  496MOL0     C65405   0.440   3.114   1.292 -0.5228 -1.1792 -0.5200
  496MOL0     C65406   0.455   3.033   1.393 -0.2836 -0.0404  0.0542
  496MOL0     H65407   0.612   2.791   1.777  0.9988 -0.4316 -1.3090
  496MOL0     H65408   0.652   2.581   1.906 -1.0385 -1.6051 -0.0920
  496MOL0     H65409   0.623   2.318   1.864 -0.2726 -1.8613  0.5791
  496MOL0     H65410   0.467   2.222   1.864 -1.0724  1.8667 -1.0187
  496MOL0     H65411   0.652   2.124   2.002 -3.1230 -2.5741  0.0701
  496MOL0     H65412   0.517   2.181   2.095 -0.6456  4.4530  0.9049
  496MOL0     H65413   0.716   2.257   2.219  0.9034  2.6614  0.9661
  496MOL0     H65414   0.624   2.391   2.166  0.1899 -1.5200  4.6717
  496MOL0     H65415   0.868   2.278   2.028 -0.5080  0.4966 -1.1291
  496MOL0     H65416   0.785   2.427   1.977 -1.6491  1.0005  2.3750
  496MOL0     H65417   0.894   2.409   2.251  0.3128 -0.7954 -1.5084
  496MOL0     H65418   0.805   2.537   2.202 -0.5149  0.1020 -0.2145
  496MOL0     H65419   0.939   2.594   2.001 -2.6955  1.6605  2.2528
  496MOL0     H65420   1.056   2.461   2.037  0.7918  0.6628 -0.3008
  496MOL0     H65421   0.977   2.693   2.212  0.5984  0.3183  0.4838
  496MOL0     H65422   1.079   2.558   2.267 -2.2936 -2.2898 -0.4741
  496MOL0     H65423   1.203   2.765   2.202 -0.6669  0.5716 -0.0992
  496MOL0     H65424   1.152   2.754   2.040 -0.2899  0.8258  0.3453
  496MOL0     H65425   1.273   2.593   1.860 -0.7821  1.2328  1.1952
  496MOL0     H65426   1.452   2.444   1.749 -0.7824 -2.2977 -0.8625
  496MOL0     H65427   1.505   2.330   1.868  2.8256 -0.0551 -0.8817
  496MOL0     H65428   1.650   2.583   1.823 -2.1838 -0.1904 -0.2486
  496MOL0     H65429   1.694   2.431   1.744  2.6088 -1.4491  2.1246
  496MOL0     H65430   1.822   2.510   1.940 -0.4341  0.9021 -0.1116
  496MOL0     H65431   1.701   2.434   2.032  0.2377 -0.5315 -0.6749
  496MOL0     H65432   1.718   2.225   1.874 -1.1840  0.5535  1.8530
  496MOL0     H65433   1.843   2.238   1.999 -0.7226 -0.1826  0.7149
  496MOL0     H65434   2.111   2.317   1.654  2.1043  1.4640  3.0734
  496MOL0     H65435   2.278   2.118   1.602  2.6712  3.5400  1.9103
  496MOL0     H65436   2.223   1.518   1.750  0.6180 -0.8575 -0.1648
  496MOL0     H65437   2.383   1.348   1.773 -0.9340  0.9855 -0.0059
  496MOL0     H65438   2.645   1.322   1.600  2.4380  0.5024  0.0610
  496MOL0     H65439   2.565   1.214   1.716 -0.1895  1.1675 -1.9462
  496MOL0     H65440   2.775   1.102   1.664 -1.0997 -0.6457  0.5995
  496MOL0     H65441   2.796   1.177   1.809 -1.2110  0.0737 -0.3358
  496MOL0     H65442   2.919   1.375   1.686 -0.7865  1.7316 -2.6216
  496MOL0     H65443   2.863   1.302   1.531 -0.6231 -3.2967  0.0102
  496MOL0     H65444   3.036   1.190   1.752 -0.1759 -0.7562  0.2399
  496MOL0     H65445   3.010   1.108   1.591  2.2626  0.6477  0.1264
  496MOL0     H65446   3.118   1.394   1.573  3.6843  0.1927  3.9574
  496MOL0     H65447   3.148   1.248   1.477  1.0140 -0.0154  0.4275
  496MOL0     H65448   3.336   1.351   1.567 -1.5694 -1.3649 -1.9466
  496MOL0     H65449   3.329   1.181   1.627  1.9386  0.2951 -0.3025
  496MOL0     H65450   3.282   1.442   1.780 -1.3887 -0.1197  0.7700
  496MOL0     H65451   3.227   1.289   1.836 -0.7389  2.0855  1.0583
  496MOL0     H65452   3.469   1.213   1.811 -2.0737 -0.3067  0.2289
  496MOL0     H65453   3.465   1.346   1.912 -2.2963  1.9143  0.4886
  496MOL0     H65454   2.688   1.645   1.859 -1.7197  2.7020 -0.2360
  496MOL0     H65455   2.524   1.820   1.853  1.6165 -1.1695 -0.2818
  496MOL0     H65456   2.055   1.871   1.867  1.0737  1.9131  2.0862
  496MOL0     H65457   1.883   2.047   1.907 -0.8435  0.4640 -0.9777
  496MOL0     H65458   0.239   2.476   1.807 -0.1497  0.2307  0.6818
  496MOL0     H65459   0.258   2.628   1.628  0.3067 -1.0840  0.0303
  496MOL0     H65460   0.239   3.175   1.612  1.8766  1.8161  0.9744
  496MOL0     H65461   0.226   3.338   1.415 -0.4622 -0.9262 -1.8298
  496MOL0     H65462   0.350   3.352   1.005 -0.7020 -0.1877 -0.2788
  496MOL0     H65463   0.407   3.193   1.033  3.4552 -1.6966  2.8743
  496MOL0     H65464   0.551   3.451   1.023 -2.4059 -1.2677 -0.4015
  496MOL0     H65465   0.605   3.360   1.160  1.0214  0.8728 -0.9043
  496MOL0     H65466   0.626   3.311   0.864 -2.3280  0.7669 -0.3209
  496MOL0     H65467   0.628   3.166   0.986  1.1071  0.0342 -0.3033
  496MOL0     H65468   0.835   3.218   0.889  1.8889  1.1068 -0.0803
  496MOL0     H65469   0.842   3.377   0.960  0.0184 -0.6478 -0.2352
  496MOL0     H65470   0.889   3.196   1.319 -0.0786 -0.3851 -0.4137
  496MOL0     H65471   0.511   3.093   1.212  0.9332  1.1413  0.0555
  496MOL0     H65472   0.528   2.953   1.390 -1.3524 -1.0076 -0.9216
  497MOL0     O65473   8.610   2.673   6.629 -0.7256  0.9924  0.0282
  497MOL0     C65474   8.702   2.756   6.654  0.1291  1.5307 -0.6705
  497MOL0     O65475   8.693   2.891   6.648  0.3589  0.3710  0.2539
  497MOL0     C65476   8.578   2.958   6.597 -0.5855  0.0030 -0.2379
  497MOL0     C65477   8.594   3.087   6.572  0.5709 -0.0200  0.7416
  497MOL0     C65478   8.483   3.159   6.528 -0.0318 -0.5620 -0.4936
  497MOL0     C65479   8.367   3.105   6.490  0.6690  0.2165  0.4988
  497MOL0     O65480   8.252   3.164   6.458  0.2252 -0.9274  0.7212
  497MOL0     C65481   8.230   3.306   6.472 -0.6344  0.3190  0.2999
  497MOL0     C65482   8.084   3.323   6.442  0.5118  0.0726  0.3218
  497MOL0     C65483   8.055   3.466   6.470 -0.3107  0.3669 -0.0281
  497MOL0     C65484   7.901   3.504   6.475 -0.0766 -0.0084 -0.3533
  497MOL0     C65485   7.882   3.658   6.523 -0.2469  0.4005  0.1523
  497MOL0     C65486   7.730   3.687   6.535 -0.5371  0.7924 -0.0879
  497MOL0     C65487   7.637   3.619   6.635  0.0449 -0.6522  0.0641
  497MOL0     C65488   7.563   3.494   6.594  0.4818  0.2065  0.2410
  497MOL0     N65489   7.438   3.471   6.661 -0.1999 -0.4755  0.1557
  497MOL0     C65490   7.327   3.548   6.635  0.1940 -0.9513  0.8347
  497MOL0     C65491   7.219   3.487   6.688  0.0212  0.5687  0.6820
  497MOL0     C65492   7.067   3.520   6.692 -0.7181 -0.5956  1.1363
  497MOL0     C65493   7.031   3.645   6.609  0.1440  0.4099 -0.3474
  497MOL0     C65494   6.877   3.644   6.609 -0.4178  0.4851  0.0230
  497MOL0     C65495   6.805   3.737   6.511 -0.5188  0.2818 -0.5421
  497MOL0     O65496   6.827   3.700   6.378 -0.0614  0.1303 -0.1345
  497MOL0     C65497   6.846   3.804   6.291 -0.0117 -0.1971  0.4667
  497MOL0     C65498   6.730   3.873   6.256  0.3740  1.3262 -0.4654
  497MOL0     C65499   6.718   3.954   6.148 -0.0235  0.5252  0.6983
  497MOL0     C65500   6.830   3.999   6.085  1.2257  0.3765  0.4633
  497MOL0     C65501   6.807   4.093   5.980 -0.4090 -0.4054  0.2503
  497MOL0     O65502   6.689   4.099   5.911  0.1941  0.2360  0.1047
  497MOL0     C65503   6.654   4.204   5.833 -0.0416  0.3821 -0.0578
  497MOL0     C65504   6.524   4.265   5.859  0.2543  0.2223 -0.3442
  497MOL0     C65505   6.498   4.380   5.791 -0.0821 -0.5177  0.5763
  497MOL0     C65506   6.581   4.437   5.692 -1.3350  0.0336  0.0285
  497MOL0     O65507   6.537   4.553   5.632  0.4925  0.1819 -0.5431
  497MOL0     C65508   6.627   4.633   5.553  0.1259  0.3969 -0.2016
  497MOL0     C65509   6.549   4.769   5.517  0.5642 -0.7629  0.7073
  497MOL0     C65510   6.535   4.872   5.633  0.4038  0.6032  0.8282
  497MOL0     C65511   6.419   4.967   5.614 -0.0461  0.3800  0.6719
  497MOL0     C65512   6.412   5.056   5.484 -0.4325  1.1348  0.7689
  497MOL0     C65513   6.323   5.178   5.496  0.0561 -0.3875 -0.4811
  497MOL0     C65514   6.309   5.260   5.366  0.6893  0.4527 -0.1618
  497MOL0     C65515   6.182   5.342   5.375 -1.0302 -0.0341 -0.7495
  497MOL0    Cl65516   6.139   5.413   5.205 -0.2441 -0.0051 -0.2389
  497MOL0     C65517   6.707   4.375   5.671 -0.2355  0.3156  0.6489
  497MOL0     C65518   6.735   4.260   5.743 -0.3946  0.5827  0.6604
  497MOL0     O65519   6.896   4.174   5.975  0.3042  0.0013 -0.2101
  497MOL0     C65520   6.958   3.953   6.126 -0.1973 -0.0530  0.2941
  497MOL0     C65521   6.967   3.848   6.220 -0.0595  0.3588  0.1283
  497MOL0     N65522   7.269   3.382   6.768 -0.1723 -0.1056  0.5434
  497MOL0     N65523   7.397   3.375   6.747 -0.0481  0.4362  0.2413
  497MOL0     C65524   8.345   2.972   6.527 -0.9073  0.0580 -0.8061
  497MOL0     C65525   8.448   2.903   6.593 -0.6621  0.0282 -0.0458
  497MOL0     C65526   8.834   2.701   6.686 -0.1821  0.4880  0.0128
  497MOL0     C65527   8.939   2.775   6.750  0.1640  1.0527  0.2475
  497MOL0     C65528   9.069   2.713   6.763  0.7981  0.2272  0.4102
  497MOL0     C65529   9.092   2.579   6.727  0.1690 -0.3636  0.1962
  497MOL0     O65530   9.216   2.521   6.750  0.3535 -0.6035  0.0837
  497MOL0     C65531   9.256   2.392   6.685  0.6483 -0.3649  0.2769
  497MOL0     C65532   9.392   2.342   6.709 -0.6893 -0.7371 -1.3041
  497MOL0     C65533   9.417   2.203   6.647 -0.6392 -0.0596  0.8057
  497MOL0     C65534   9.570   2.153   6.648 -0.7495 -0.6223 -0.1199
  497MOL0     C65535   9.627   2.165   6.785 -0.6529 -0.4588  0.1286
  497MOL0     C65536   9.679   2.171   6.894  0.1491 -0.9406 -0.3461
  497MOL0     C65537   8.987   2.501   6.669 -0.2294 -0.5209  0.1475
  497MOL0     C65538   8.868   2.574   6.640 -0.8110  0.1754 -0.3122
  497MOL0     H65539   8.688   3.137   6.595  2.3444 -3.2128  1.0275
  497MOL0     H65540   8.504   3.265   6.515 -1.9346 -0.1987 -0.7816
  497MOL0     H65541   8.283   3.352   6.389 -2.6767  2.7101  0.2289
  497MOL0     H65542   8.273   3.335   6.568  1.2817 -1.8207  0.1760
  497MOL0     H65543   8.033   3.261   6.516  1.1202  1.5539  2.0505
  497MOL0     H65544   8.061   3.291   6.340  0.2686  0.2225  0.3311
  497MOL0     H65545   8.094   3.521   6.384  0.5132 -1.9354 -1.2261
  497MOL0     H65546   8.103   3.501   6.562 -2.0597 -1.6496  1.7968
  497MOL0     H65547   7.858   3.475   6.378  0.1046  1.2951 -0.8457
  497MOL0     H65548   7.857   3.442   6.553 -1.6975  1.4603 -0.0203
  497MOL0     H65549   7.916   3.726   6.445 -2.9648 -0.2912 -1.7975
  497MOL0     H65550   7.929   3.665   6.622 -0.0946 -0.0087  0.1089
  497MOL0     H65551   7.695   3.664   6.434  1.9106  0.6589 -0.9731
  497MOL0     H65552   7.728   3.796   6.550  2.9173  1.1498 -1.3052
  497MOL0     H65553   7.692   3.589   6.724 -0.0698 -1.2768 -0.0704
  497MOL0     H65554   7.562   3.696   6.658 -1.0636 -0.0139 -4.4997
  497MOL0     H65555   7.629   3.412   6.624  0.6521  1.2321  2.9111
  497MOL0     H65556   7.548   3.492   6.486 -2.1762  3.3997  0.3808
  497MOL0     H65557   7.324   3.637   6.573 -0.6237 -1.6305 -0.1311
  497MOL0     H65558   7.041   3.545   6.795 -1.8067 -0.5463  0.8615
  497MOL0     H65559   7.018   3.431   6.652 -0.1846 -0.4054  0.0186
  497MOL0     H65560   7.069   3.629   6.508 -0.0611 -0.7709 -0.2456
  497MOL0     H65561   7.062   3.744   6.646 -1.6301  0.5860  0.7801
  497MOL0     H65562   6.836   3.545   6.585  1.3714  0.0019 -1.3059
  497MOL0     H65563   6.843   3.658   6.712 -1.2216 -1.9281  0.1703
  497MOL0     H65564   6.842   3.838   6.529  0.2044 -0.0902  0.1428
  497MOL0     H65565   6.701   3.737   6.543  0.5066  2.5662  3.3403
  497MOL0     H65566   6.634   3.847   6.298  0.7239 -2.1302 -1.4697
  497MOL0     H65567   6.622   4.003   6.133  0.2777  1.3009  1.2784
  497MOL0     H65568   6.458   4.221   5.934  0.2997  0.6034 -0.0796
  497MOL0     H65569   6.417   4.442   5.827  2.3234  2.8144  0.7055
  497MOL0     H65570   6.650   4.573   5.465 -1.5838 -0.8471  0.1490
  497MOL0     H65571   6.721   4.650   5.607 -0.4092 -1.6417  1.5262
  497MOL0     H65572   6.449   4.745   5.480  0.9367  1.4440 -2.1594
  497MOL0     H65573   6.605   4.813   5.433  0.3681  2.1234  1.9598
  497MOL0     H65574   6.627   4.927   5.648 -0.3974  1.9323  0.9957
  497MOL0     H65575   6.518   4.824   5.730  0.8591  0.5197  0.8681
  497MOL0     H65576   6.321   4.918   5.621 -2.3245  3.7621 -3.1103
  497MOL0     H65577   6.439   5.037   5.697 -0.3680  1.8880 -0.4785
  497MOL0     H65578   6.387   4.990   5.400 -2.5532 -2.7898  4.1055
  497MOL0     H65579   6.509   5.095   5.454 -0.5880  1.0392  0.1204
  497MOL0     H65580   6.381   5.236   5.569 -0.2957 -2.3433  1.4797
  497MOL0     H65581   6.232   5.143   5.545  0.6075  1.0941  1.7784
  497MOL0     H65582   6.400   5.310   5.331  1.9259 -3.2916 -2.9417
  497MOL0     H65583   6.291   5.172   5.303 -1.1769  0.1047  0.7836
  497MOL0     H65584   6.204   5.401   5.464  1.5408  0.3272 -1.5459
  497MOL0     H65585   6.102   5.272   5.401 -0.0968 -0.5949  0.6869
  497MOL0     H65586   6.786   4.403   5.602  1.4772 -1.6299  1.7153
  497MOL0     H65587   6.832   4.213   5.731 -1.1023 -0.6834 -0.4499
  497MOL0     H65588   7.045   3.988   6.071  0.0423  0.2131  0.8340
  497MOL0     H65589   7.060   3.798   6.243 -0.6935 -1.3353 -0.7907
  497MOL0     H65590   8.247   2.926   6.537 -1.4247  0.7228 -2.4681
  497MOL0     H65591   8.428   2.806   6.636 -0.0890 -1.0396 -2.0708
  497MOL0     H65592   8.925   2.881   6.770 -2.4400  0.6139  1.2216
  497MOL0     H65593   9.147   2.765   6.819  1.0606 -0.1938  0.4405
  497MOL0     H65594   9.241   2.386   6.577 -1.0232 -4.1175  0.5494
  497MOL0     H65595   9.190   2.318   6.731 -0.5546  0.5304  0.0326
  497MOL0     H65596   9.456   2.421   6.669 -1.2818 -0.2860 -1.3599
  497MOL0     H65597   9.412   2.331   6.816  0.4325 -0.1605 -1.4446
  497MOL0     H65598   9.384   2.202   6.543  1.2223  1.2808  0.1515
  497MOL0     H65599   9.371   2.126   6.710  2.2965 -2.2049  0.5711
  497MOL0     H65600   9.575   2.048   6.621 -0.5842  0.2797 -4.2616
  497MOL0     H65601   9.628   2.201   6.569  4.2334 -1.2115  2.7583
  497MOL0     H65602   9.724   2.186   6.989  0.1406 -3.3529  0.1171
  497MOL0     H65603   9.000   2.398   6.637 -0.7014 -0.8865  1.0765
  497MOL0     H65604   8.801   2.499   6.599  0.9952 -1.9286  0.3883
  498MOL0     O65605   2.832   0.524   9.070  0.0767 -0.1493 -0.4985
  498MOL0     C65606   2.859   0.642   9.050 -0.5403  0.6087  0.1688
  498MOL0     O65607   2.969   0.702   9.104 -0.0584  0.0575 -0.1611
  498MOL0     C65608   3.070   0.635   9.172  0.6374 -0.2840 -0.0069
  498MOL0     C65609   3.097   0.499   9.164 -0.3696  0.4965  0.7441
  498MOL0     C65610   3.212   0.445   9.230  1.0140  0.3723  0.1817
  498MOL0     C65611   3.297   0.525   9.310 -0.4157 -0.1886  0.8764
  498MOL0     O65612   3.401   0.475   9.371 -0.5162 -0.2021  0.3301
  498MOL0     C65613   3.367   0.398   9.481 -0.3268  0.1512  0.1509
  498MOL0     C65614   3.495   0.380   9.554 -0.1275 -0.7727  0.9249
  498MOL0     C65615   3.550   0.496   9.613 -0.8289 -0.0184 -0.2326
  498MOL0     C65616   3.676   0.473   9.704 -0.0436 -0.0317  0.9091
  498MOL0     C65617   3.735   0.605   9.729  0.4646 -0.0479  0.3933
  498MOL0     C65618   3.871   0.595   9.791  0.5831 -1.0295  0.8623
  498MOL0     C65619   3.930   0.730   9.823  0.0811 -0.7828 -0.9306
  498MOL0     C65620   4.077   0.716   9.876  0.5383 -0.6353 -0.2201
  498MOL0     N65621   4.154   0.829   9.824 -0.8810 -0.8830 -0.0006
  498MOL0     C65622   4.177   0.948   9.891 -0.9250 -0.5027  0.4678
  498MOL0     C65623   4.244   1.027   9.793  0.0145  1.1185  0.2006
  498MOL0     C65624   4.314   1.150   9.818 -0.8303  0.8685 -0.5615
  498MOL0     C65625   4.240   1.280   9.797 -0.0044  0.1060 -0.0291
  498MOL0     C65626   4.188   1.272   9.653 -0.1105 -0.3886 -0.1989
  498MOL0     C65627   4.110   1.407   9.621 -0.5119 -0.5215 -0.1699
  498MOL0     O65628   3.997   1.421   9.716 -0.1897  0.2740 -0.1625
  498MOL0     C65629   3.910   1.529   9.700  0.3880 -0.5592 -0.9229
  498MOL0     C65630   3.795   1.530   9.782  1.0063 -0.1731  0.6121
  498MOL0     C65631   3.688   1.621   9.768  0.3847  0.4670 -0.1627
  498MOL0     C65632   3.694   1.722   9.675  0.8096 -0.4779 -0.0432
  498MOL0     C65633   3.565   1.794   9.642 -0.1999 -1.1814  0.5945
  498MOL0     O65634   3.471   1.799   9.737 -0.5704 -0.0954  0.0506
  498MOL0     C65635   3.343   1.810   9.691  0.1633  0.4772 -0.0172
  498MOL0     C65636   3.302   1.765   9.559  0.9708 -0.7618 -0.7381
  498MOL0     C65637   3.168   1.750   9.536 -0.1535 -0.4953  0.4356
  498MOL0     C65638   3.071   1.786   9.622  1.2991  0.5985  1.0472
  498MOL0     O65639   2.937   1.779   9.592 -0.1877 -0.4121 -0.4577
  498MOL0     C65640   2.852   1.896   9.638 -0.4662  0.2834 -0.3482
  498MOL0     C65641   2.768   1.953   9.536 -0.3322 -0.6286 -0.3000
  498MOL0     C65642   2.627   2.009   9.571 -1.2363 -0.2207 -0.5477
  498MOL0     C65643   2.553   2.057   9.443 -0.4700  0.0107 -0.9153
  498MOL0     C65644   2.639   2.164   9.375  0.2904  0.1831 -0.0014
  498MOL0     C65645   2.656   2.291   9.463 -0.1067 -0.0048  0.0646
  498MOL0     C65646   2.680   2.411   9.371  0.2945 -0.6812 -0.3704
  498MOL0     C65647   2.568   2.440   9.274  0.3687 -0.0653 -0.2356
  498MOL0    Cl65648   2.414   2.470   9.359  0.2555  0.0964 -0.5743
  498MOL0     C65649   3.107   1.819   9.753  0.1871  0.0201  0.2616
  498MOL0     C65650   3.241   1.828   9.791  0.3279 -0.6936 -0.3971
  498MOL0     O65651   3.561   1.847   9.538 -0.4481  0.2695 -0.0389
  498MOL0     C65652   3.809   1.727   9.592 -1.1407  0.2481  0.0823
  498MOL0     C65653   3.921   1.637   9.608 -0.1693 -0.2891  0.0470
  498MOL0     N65654   4.242   0.954   9.671 -0.4293  0.0649 -0.1485
  498MOL0     N65655   4.198   0.839   9.692 -0.4275  0.4304  0.5044
  498MOL0     C65656   3.268   0.659   9.312 -1.2779 -0.3273  0.0950
  498MOL0     C65657   3.159   0.712   9.246 -0.0717  0.2775 -0.1171
  498MOL0     C65658   2.776   0.721   8.966  0.2230 -0.3689  0.4131
  498MOL0     C65659   2.825   0.845   8.924 -0.7201 -0.5564  0.9625
  498MOL0     C65660   2.754   0.913   8.828 -0.4731 -0.2330  0.0776
  498MOL0     C65661   2.629   0.868   8.772 -0.2669  0.1274 -0.3969
  498MOL0     O65662   2.547   0.934   8.682 -0.4948  0.7081  0.2842
  498MOL0     C65663   2.621   1.002   8.582 -0.5795  0.9418  0.0701
  498MOL0     C65664   2.551   1.046   8.457  0.5842  0.0202 -0.1669
  498MOL0     C65665   2.470   1.170   8.471  0.6228  0.1078  0.8230
  498MOL0     C65666   2.547   1.285   8.413 -0.3301 -0.0021 -0.1946
  498MOL0     C65667   2.459   1.402   8.403  0.1504  0.2708  0.2227
  498MOL0     C65668   2.371   1.483   8.403  1.2841  0.7485 -0.4251
  498MOL0     C65669   2.578   0.752   8.828 -0.9877  0.3788  0.6718
  498MOL0     C65670   2.643   0.686   8.930 -0.1598 -0.1064  0.6307
  498MOL0     H65671   3.039   0.433   9.100  0.9838 -0.2494  0.2682
  498MOL0     H65672   3.236   0.344   9.198 -1.3782 -0.3409  0.4159
  498MOL0     H65673   3.332   0.306   9.434  0.1748  1.0429 -2.1526
  498MOL0     H65674   3.293   0.448   9.543 -1.3392 -0.9069 -0.1661
  498MOL0     H65675   3.572   0.330   9.495  0.3546  0.4373  0.5158
  498MOL0     H65676   3.490   0.318   9.644  2.9902  1.6178  2.9568
  498MOL0     H65677   3.473   0.539   9.678 -0.9309  0.2488 -0.5309
  498MOL0     H65678   3.580   0.575   9.544 -0.4169  1.8209  1.9362
  498MOL0     H65679   3.655   0.411   9.791 -0.4319 -0.3353  0.6083
  498MOL0     H65680   3.743   0.408   9.648 -0.2231  0.5964 -0.0786
  498MOL0     H65681   3.663   0.648   9.800 -1.7062 -1.8302 -0.6269
  498MOL0     H65682   3.743   0.657   9.633 -4.5049  1.2909  0.4556
  498MOL0     H65683   3.945   0.559   9.719  1.1729  2.4680 -0.5032
  498MOL0     H65684   3.874   0.546   9.888 -0.0287 -1.3004  0.7481
  498MOL0     H65685   3.928   0.775   9.724  3.5028  1.7882 -0.0148
  498MOL0     H65686   3.876   0.801   9.886  0.3170 -0.1390 -1.4504
  498MOL0     H65687   4.130   0.630   9.835  0.5155 -1.3392  1.1884
  498MOL0     H65688   4.058   0.704   9.983 -4.7420  0.2987 -0.7547
  498MOL0     H65689   4.157   0.963   9.997  0.2137 -0.5423  0.7078
  498MOL0     H65690   4.401   1.148   9.751 -0.8907  1.1325 -0.6523
  498MOL0     H65691   4.330   1.148   9.926  1.0066 -2.3268 -0.7816
  498MOL0     H65692   4.318   1.356   9.805 -1.3535  1.7932 -1.7538
  498MOL0     H65693   4.164   1.288   9.875  1.7214  1.8415  1.5676
  498MOL0     H65694   4.268   1.245   9.584  0.8180 -2.6970  1.6130
  498MOL0     H65695   4.119   1.187   9.645  0.3612 -0.7802 -0.1587
  498MOL0     H65696   4.076   1.399   9.518  0.7540 -1.6050 -0.5286
  498MOL0     H65697   4.181   1.488   9.637  0.7089 -1.5327 -0.2929
  498MOL0     H65698   3.769   1.455   9.856 -2.5661  0.9805  0.7185
  498MOL0     H65699   3.593   1.600   9.815 -1.4366 -0.7368 -3.9999
  498MOL0     H65700   3.366   1.722   9.483  0.6134  0.8018 -1.9995
  498MOL0     H65701   3.140   1.711   9.439  1.1252  1.4104 -0.7709
  498MOL0     H65702   2.923   1.963   9.688  0.9566  1.0792 -3.2259
  498MOL0     H65703   2.795   1.863   9.726  2.7556 -0.6890  1.5385
  498MOL0     H65704   2.743   1.874   9.465 -2.7405 -0.1024 -0.1079
  498MOL0     H65705   2.834   2.029   9.494 -1.4266  1.3018  1.2715
  498MOL0     H65706   2.639   2.089   9.645 -0.1163  1.8785 -2.8318
  498MOL0     H65707   2.569   1.928   9.615  0.8052 -2.6359 -2.0465
  498MOL0     H65708   2.528   1.971   9.379  4.2081 -1.5486 -1.0285
  498MOL0     H65709   2.456   2.101   9.468 -0.2161 -0.5133  1.2034
  498MOL0     H65710   2.572   2.190   9.293 -2.0512  1.7400  2.2631
  498MOL0     H65711   2.733   2.130   9.330  0.7105 -0.4404  1.2799
  498MOL0     H65712   2.743   2.278   9.528  1.0156  1.8181 -0.9805
  498MOL0     H65713   2.576   2.310   9.535  0.8401 -1.2932  1.5150
  498MOL0     H65714   2.699   2.497   9.436  1.0732 -0.5999 -0.6901
  498MOL0     H65715   2.770   2.401   9.308 -1.2662 -1.5334 -2.5982
  498MOL0     H65716   2.550   2.367   9.195 -2.5818  0.9889 -0.6470
  498MOL0     H65717   2.593   2.529   9.215 -0.8753 -1.0100 -2.2952
  498MOL0     H65718   3.015   1.821   9.811 -2.3094 -2.5166 -3.2293
  498MOL0     H65719   3.268   1.834   9.896 -3.5777  0.2119  0.7212
  498MOL0     H65720   3.798   1.796   9.509 -0.5010 -1.6495 -1.6679
  498MOL0     H65721   4.008   1.645   9.543 -1.2504  0.6848 -1.3580
  498MOL0     H65722   3.332   0.728   9.365  2.1167 -1.3438 -2.3563
  498MOL0     H65723   3.139   0.818   9.253 -0.4541  0.2231 -0.3363
  498MOL0     H65724   2.915   0.893   8.960 -0.4700  0.7560 -1.1901
  498MOL0     H65725   2.810   1.003   8.807  0.3022 -0.9062 -0.8925
  498MOL0     H65726   2.703   0.938   8.548  0.5925  0.5158  3.3386
  498MOL0     H65727   2.669   1.089   8.627  0.8556  0.4677 -0.4990
  498MOL0     H65728   2.622   1.052   8.374 -2.7112 -1.9137 -3.4443
  498MOL0     H65729   2.469   0.975   8.440 -1.3570  1.6917  1.5451
  498MOL0     H65730   2.441   1.186   8.575  1.9629 -0.3036  1.2886
  498MOL0     H65731   2.381   1.158   8.408  1.2912  0.1686 -0.1686
  498MOL0     H65732   2.639   1.306   8.469  0.5164 -3.2157 -0.1766
  498MOL0     H65733   2.563   1.248   8.311  3.2910 -0.2402  0.3262
  498MOL0     H65734   2.285   1.547   8.412 -0.6305 -1.8735  1.6369
  498MOL0     H65735   2.482   0.716   8.793 -1.2512  1.4038  0.3021
  498MOL0     H65736   2.607   0.591   8.968  1.6501 -1.9193 -1.8131
  499MOL0     O65737   8.201   1.922  10.359 -0.0138  0.7729 -0.5227
  499MOL0     C65738   8.090   1.894  10.315 -0.8721  0.3014  0.2566
  499MOL0     O65739   7.979   1.976  10.315 -0.4473 -0.3693 -0.7257
  499MOL0     C65740   7.996   2.112  10.341 -0.6468 -0.1612 -0.3810
  499MOL0     C65741   8.108   2.203  10.356 -0.1071  0.0885 -0.5084
  499MOL0     C65742   8.088   2.342  10.363 -0.0113  0.2411  0.3051
  499MOL0     C65743   7.957   2.396  10.362 -1.0569 -0.6802  1.0171
  499MOL0     O65744   7.939   2.531  10.390 -1.0630  0.6226  0.2668
  499MOL0     C65745   7.812   2.576  10.363  0.3138  0.3595  0.4193
  499MOL0     C65746   7.814   2.732  10.367  0.6555  0.5238  0.2089
  499MOL0     C65747   7.873   2.788  10.233  0.2296 -0.4215  0.4292
  499MOL0     C65748   8.018   2.739  10.192  0.6884  0.0697  0.5884
  499MOL0     C65749   8.088   2.824  10.088  0.0949 -0.5822  0.3412
  499MOL0     C65750   8.213   2.773  10.020  0.8238  0.4883 -0.4324
  499MOL0     C65751   8.284   2.880   9.934  0.7881  0.2496  0.5919
  499MOL0     C65752   8.194   2.905   9.811 -0.6587 -0.4411  0.7205
  499MOL0     N65753   8.291   2.938   9.706 -0.3085 -1.1714  0.6775
  499MOL0     C65754   8.349   3.065   9.684 -0.2352 -0.2611  0.2299
  499MOL0     C65755   8.447   3.047   9.590  0.0034  0.7646  0.5520
  499MOL0     C65756   8.541   3.153   9.538  0.1327 -0.4889  0.1092
  499MOL0     C65757   8.683   3.142   9.605  0.4884  0.2979  0.4169
  499MOL0     C65758   8.679   3.176   9.755  0.2726 -0.0097 -0.3700
  499MOL0     C65759   8.821   3.202   9.804  0.5862  0.2739 -0.9778
  499MOL0     O65760   8.900   3.083   9.805  0.1928  0.0138  0.2801
  499MOL0     C65761   9.025   3.083   9.867  0.0720 -0.3110  0.8979
  499MOL0     C65762   9.127   3.008   9.818 -0.9309  0.5101 -0.7413
  499MOL0     C65763   9.254   3.002   9.881  0.0672  0.2751  0.3009
  499MOL0     C65764   9.279   3.063  10.007 -1.0752  0.0344  0.8696
  499MOL0     C65765   9.411   3.060  10.068  0.6489 -0.3092 -0.5491
  499MOL0     O65766   9.471   2.933  10.067  0.1026  1.0074  0.0785
  499MOL0     C65767   9.600   2.931  10.075 -0.3019 -0.6148  0.7684
  499MOL0     C65768   9.686   2.940   9.958  0.9645 -0.3025 -0.7728
  499MOL0     C65769   9.828   2.924   9.973  0.5410  0.8651 -0.6428
  499MOL0     C65770   9.877   2.920  10.105  0.5980 -1.1547  0.0164
  499MOL0     O65771  10.011   2.924  10.135 -0.2375  0.2564 -0.0080
  499MOL0     C65772  10.107   2.925  10.027 -0.2252  0.0956 -1.0521
  499MOL0     C65773  10.235   2.958  10.090 -0.6054  0.4510  0.2727
  499MOL0     C65774  10.317   3.033   9.990  0.1017 -0.5775  0.6366
  499MOL0     C65775  10.467   3.013  10.010 -0.2698  0.7024 -0.1578
  499MOL0     C65776  10.560   3.000   9.889 -0.0634 -0.1122  1.4651
  499MOL0     C65777  10.552   2.882   9.802  0.5869  1.0038 -0.0057
  499MOL0     C65778  10.659   2.890   9.689  0.0023 -0.3457 -1.2682
  499MOL0     C65779  10.708   2.743   9.667  0.6100  0.1128 -0.0597
  499MOL0    Cl65780  10.574   2.646   9.606 -0.6700  0.6706  0.2952
  499MOL0     C65781   9.788   2.928  10.215 -0.7983  0.3901 -0.3675
  499MOL0     C65782   9.654   2.942  10.200 -0.0602 -0.4157  0.4897
  499MOL0     O65783   9.455   3.160  10.128  0.6400  0.5709 -0.3416
  499MOL0     C65784   9.173   3.144  10.051  0.0319 -0.3202 -0.4555
  499MOL0     C65785   9.046   3.147   9.988 -0.0631  0.1420 -0.7824
  499MOL0     N65786   8.427   2.918   9.542  0.0725  0.4428  0.6902
  499MOL0     N65787   8.333   2.853   9.606 -0.0438 -0.2065  0.4555
  499MOL0     C65788   7.855   2.308  10.349  0.7262  0.2035 -0.4384
  499MOL0     C65789   7.872   2.173  10.354 -0.3254  0.4237  0.3806
  499MOL0     C65790   8.068   1.761  10.243  0.0938 -1.4867  0.1259
  499MOL0     C65791   8.178   1.685  10.215  0.2223 -0.3850 -0.2251
  499MOL0     C65792   8.163   1.558  10.155  0.3732  0.5316  0.0514
  499MOL0     C65793   8.036   1.500  10.133  1.4340 -0.3348 -0.7648
  499MOL0     O65794   8.000   1.385  10.078 -0.1142 -0.9603  0.0739
  499MOL0     C65795   8.097   1.286  10.053  0.4081 -0.0841 -0.5412
  499MOL0     C65796   8.156   1.222  10.183  0.2736 -0.5265  0.0404
  499MOL0     C65797   8.039   1.145  10.260 -0.4382 -0.3547 -0.4499
  499MOL0     C65798   8.068   1.143  10.414  0.5176  0.1341 -0.6424
  499MOL0     C65799   7.945   1.114  10.495 -0.2328  0.5320  0.2415
  499MOL0     C65800   7.831   1.106  10.544 -0.2167  0.9673 -0.3223
  499MOL0     C65801   7.924   1.583  10.168 -0.3355 -1.1743  0.1505
  499MOL0     C65802   7.935   1.716  10.219 -0.6342 -0.2480 -0.1027
  499MOL0     H65803   8.209   2.172  10.334  0.2184  2.0435 -1.9999
  499MOL0     H65804   8.168   2.415  10.370 -0.1820  0.5466 -0.7706
  499MOL0     H65805   7.735   2.542  10.433  0.5495 -0.5988  0.2189
  499MOL0     H65806   7.779   2.555  10.261  0.3521  2.9061 -0.1906
  499MOL0     H65807   7.876   2.772  10.448 -1.8023  1.5335  1.6726
  499MOL0     H65808   7.710   2.762  10.374 -0.8369 -3.8611  0.3357
  499MOL0     H65809   7.869   2.897  10.229  1.7861 -0.3117  1.3180
  499MOL0     H65810   7.810   2.747  10.153  0.6953  0.7122 -0.5588
  499MOL0     H65811   8.074   2.724  10.285 -2.4269 -2.5116  2.2566
  499MOL0     H65812   8.006   2.637  10.153  1.3615 -0.0390  0.6513
  499MOL0     H65813   8.105   2.908  10.157 -4.0734 -0.6021  1.6842
  499MOL0     H65814   8.017   2.846  10.008  0.6096 -2.0106 -0.5355
  499MOL0     H65815   8.191   2.678   9.970  0.4677 -0.0956  0.8130
  499MOL0     H65816   8.283   2.741  10.098  0.8075 -0.5323 -0.8139
  499MOL0     H65817   8.276   2.976   9.986 -1.5854 -1.3137  3.4511
  499MOL0     H65818   8.386   2.845   9.919  1.3327  2.8697 -2.9497
  499MOL0     H65819   8.127   2.990   9.824  2.3782  2.3656 -0.5167
  499MOL0     H65820   8.142   2.812   9.785 -1.9574 -0.2703  2.5490
  499MOL0     H65821   8.325   3.156   9.737  2.6249  0.6412  0.0989
  499MOL0     H65822   8.486   3.242   9.570  0.8009 -0.4098  1.0883
  499MOL0     H65823   8.558   3.144   9.430 -1.1564 -0.5142 -0.1032
  499MOL0     H65824   8.761   3.190   9.546  2.5932 -1.4161  1.6433
  499MOL0     H65825   8.714   3.037   9.606 -0.6600 -0.0645  1.3855
  499MOL0     H65826   8.627   3.269   9.777  2.6916  1.8817 -2.0645
  499MOL0     H65827   8.639   3.090   9.810 -0.9828  0.5612 -0.3647
  499MOL0     H65828   8.808   3.219   9.911 -2.3730 -0.1458 -1.1827
  499MOL0     H65829   8.874   3.284   9.754  0.1813  0.8831 -0.4289
  499MOL0     H65830   9.113   2.931   9.742  2.9018 -0.6439 -0.4835
  499MOL0     H65831   9.335   2.946   9.837 -0.1563 -0.0987  0.3606
  499MOL0     H65832   9.642   2.948   9.859 -2.5621 -0.7711  0.6457
  499MOL0     H65833   9.886   2.917   9.882  0.4864  2.9512 -0.8761
  499MOL0     H65834  10.075   3.012   9.969 -0.7438  0.9656  0.4604
  499MOL0     H65835  10.108   2.838   9.962 -0.7172  1.1080 -2.4665
  499MOL0     H65836  10.277   2.859  10.114 -1.4124  0.0048 -0.1296
  499MOL0     H65837  10.226   3.017  10.181 -1.5024 -0.7470  1.0005
  499MOL0     H65838  10.305   3.142   9.994 -0.3965 -0.5485 -1.0600
  499MOL0     H65839  10.290   3.003   9.889  4.1708  1.0247 -1.1532
  499MOL0     H65840  10.512   3.100  10.059  0.7379 -0.1396  0.4542
  499MOL0     H65841  10.493   2.921  10.064 -1.4918  0.1137 -0.5436
  499MOL0     H65842  10.657   3.000   9.939 -0.4756  0.2144  2.2849
  499MOL0     H65843  10.544   3.085   9.822 -0.5559 -2.0630 -1.0280
  499MOL0     H65844  10.456   2.875   9.749  0.2734 -2.7203  0.8032
  499MOL0     H65845  10.536   2.786   9.852 -1.1577  1.4924  0.4749
  499MOL0     H65846  10.604   2.922   9.600 -1.3133 -0.2298 -0.4399
  499MOL0     H65847  10.736   2.967   9.702 -1.2492  0.9936 -1.4513
  499MOL0     H65848  10.744   2.690   9.755 -0.6814  0.8500  0.9403
  499MOL0     H65849  10.780   2.730   9.585 -0.2532 -1.0770 -0.6808
  499MOL0     H65850   9.846   2.926  10.307  0.0492  0.0849 -0.8945
  499MOL0     H65851   9.589   2.955  10.286 -1.1821 -1.5887 -0.1370
  499MOL0     H65852   9.180   3.194  10.146  2.4527 -1.3886 -0.0065
  499MOL0     H65853   8.970   3.212  10.029  1.7061  3.3596 -2.1463
  499MOL0     H65854   7.752   2.340  10.356  0.8857  0.8018 -0.7274
  499MOL0     H65855   7.779   2.120  10.337 -0.7887  1.1783  0.5043
  499MOL0     H65856   8.280   1.707  10.243 -0.0509  0.0008  0.5148
  499MOL0     H65857   8.250   1.500  10.127 -0.6989 -0.7668 -0.7334
  499MOL0     H65858   8.181   1.331   9.999  0.1622 -0.7036 -1.4564
  499MOL0     H65859   8.045   1.210   9.995 -2.8718  1.8845 -0.4161
  499MOL0     H65860   8.238   1.155  10.159 -1.1024 -3.7792  3.3933
  499MOL0     H65861   8.205   1.305  10.236  0.4954 -0.6283 -0.0035
  499MOL0     H65862   8.041   1.044  10.218 -0.5253 -0.1064 -1.0658
  499MOL0     H65863   7.945   1.192  10.232 -1.5011 -2.2808 -0.2864
  499MOL0     H65864   8.141   1.065  10.435 -1.2046 -1.9321 -1.8752
  499MOL0     H65865   8.104   1.233  10.464 -1.5415  0.8060 -0.2456
  499MOL0     H65866   7.741   1.099  10.602  0.4964  1.7002  0.9142
  499MOL0     H65867   7.825   1.541  10.152 -1.4038  1.8426 -2.2985
  499MOL0     H65868   7.854   1.780  10.252 -1.1551 -1.6085  1.4036
  500MOL0     O65869   4.038   6.148   8.859  0.2271 -0.2525  0.1648
  500MOL0     C65870   4.092   6.248   8.809  1.9099  0.1045 -0.5385
  500MOL0     O65871   4.206   6.302   8.851  0.0991 -0.3129  0.2427
  500MOL0     C65872   4.251   6.253   8.973  0.2320  0.7760 -0.1944
  500MOL0     C65873   4.248   6.322   9.094 -0.2351 -0.4395 -0.7726
  500MOL0     C65874   4.292   6.267   9.211 -0.3744 -0.3840  0.2343
  500MOL0     C65875   4.347   6.139   9.222 -0.5177  0.1321  0.1043
  500MOL0     O65876   4.378   6.074   9.344 -0.1067 -0.7924 -0.4112
  500MOL0     C65877   4.496   5.996   9.358 -0.2501  0.1798  0.1163
  500MOL0     C65878   4.490   5.891   9.473  0.6207 -0.0429  0.0386
  500MOL0     C65879   4.434   5.944   9.603  0.3803  0.7153 -0.2813
  500MOL0     C65880   4.446   5.823   9.707 -0.3356  0.2762  0.8284
  500MOL0     C65881   4.492   5.864   9.843  0.1111 -0.4932  0.6329
  500MOL0     C65882   4.643   5.892   9.868 -0.7659 -0.0613  0.5034
  500MOL0     C65883   4.733   5.769   9.866 -0.5106  0.3873 -0.3395
  500MOL0     C65884   4.882   5.798   9.885  0.5753  0.3799  0.0339
  500MOL0     N65885   4.967   5.681   9.861  0.5128 -0.0119  0.4899
  500MOL0     C65886   4.931   5.545   9.839 -0.9312 -0.0602 -0.8874
  500MOL0     C65887   5.031   5.481   9.890 -1.2139 -0.6991 -0.8015
  500MOL0     C65888   5.055   5.344   9.924  1.2151 -0.1170 -0.6250
  500MOL0     C65889   4.974   5.281  10.040 -0.6031  0.9769  0.9911
  500MOL0     C65890   5.031   5.346  10.168 -0.4140  0.4138  0.9740
  500MOL0     C65891   4.929   5.335  10.280 -0.3854  0.1879  0.3397
  500MOL0     O65892   4.991   5.394  10.396  0.3528 -0.7986 -0.0524
  500MOL0     C65893   4.930   5.373  10.521  0.1135 -0.5203  0.0815
  500MOL0     C65894   4.814   5.308  10.549 -0.3785 -0.1667  0.1390
  500MOL0     C65895   4.770   5.282  10.673  0.0066  0.4438 -0.9905
  500MOL0     C65896   4.842   5.340  10.789 -0.4622  0.7676  0.0285
  500MOL0     C65897   4.789   5.322  10.927 -0.3860  0.1674  0.4082
  500MOL0     O65898   4.656   5.289  10.943  0.2233  0.7891  0.5649
  500MOL0     C65899   4.603   5.264  11.066  0.2329  0.1885 -0.2746
  500MOL0     C65900   4.468   5.294  11.068 -0.3713 -1.1428  0.4654
  500MOL0     C65901   4.391   5.311  11.182  0.5862 -0.2685  0.8382
  500MOL0     C65902   4.454   5.293  11.308  0.1169 -0.2207  0.4033
  500MOL0     O65903   4.391   5.301  11.431 -0.1496  0.8496 -0.0619
  500MOL0     C65904   4.403   5.425  11.501 -0.1465  0.7672 -0.1823
  500MOL0     C65905   4.297   5.517  11.438  0.0895 -0.0973 -0.3070
  500MOL0     C65906   4.271   5.637  11.525 -0.4538 -0.6595 -0.4358
  500MOL0     C65907   4.194   5.745  11.448  0.5129 -0.1907 -0.7223
  500MOL0     C65908   4.111   5.837  11.546 -1.0674  0.0607  0.0365
  500MOL0     C65909   3.994   5.914  11.489  0.1599 -0.9069  0.4253
  500MOL0     C65910   3.916   5.981  11.607  0.5661  0.0715  0.0390
  500MOL0     C65911   3.819   6.099  11.559  0.4360 -0.2407 -0.8997
  500MOL0    Cl65912   3.697   6.141  11.680 -0.1116 -0.1748 -0.4990
  500MOL0     C65913   4.589   5.254  11.311 -0.4526  0.7706 -0.2933
  500MOL0     C65914   4.664   5.260  11.188  0.1016  0.3447 -0.7483
  500MOL0     O65915   4.868   5.341  11.011 -0.3198 -0.9480 -0.5608
  500MOL0     C65916   4.960   5.410  10.759  0.0945 -0.3777  0.5839
  500MOL0     C65917   5.003   5.429  10.624  0.3533  0.4728 -0.0045
  500MOL0     N65918   5.134   5.575   9.919 -0.1106  0.2088 -0.5415
  500MOL0     N65919   5.095   5.690   9.904  1.1359 -0.8793 -0.2805
  500MOL0     C65920   4.355   6.068   9.100 -0.3189 -0.6188  0.2254
  500MOL0     C65921   4.315   6.124   8.974  0.1837 -1.0252 -0.7302
  500MOL0     C65922   4.004   6.305   8.700 -0.4479 -0.4755 -0.8153
  500MOL0     C65923   4.038   6.427   8.626 -0.1926 -0.3708  0.4595
  500MOL0     C65924   3.957   6.492   8.535 -0.0421  0.1543  0.2636
  500MOL0     C65925   3.832   6.438   8.498  0.6636 -0.9750 -0.2686
  500MOL0     O65926   3.734   6.496   8.416  0.2889 -0.0701  0.0769
  500MOL0     C65927   3.777   6.604   8.330 -0.5365 -0.1042  0.1951
  500MOL0     C65928   3.661   6.669   8.263 -0.7167 -0.1795  0.7623
  500MOL0     C65929   3.600   6.575   8.154  0.7715 -0.1513 -0.5399
  500MOL0     C65930   3.474   6.647   8.093 -0.8516 -0.5985 -0.3145
  500MOL0     C65931   3.414   6.558   8.001 -0.6964  0.3246  0.6941
  500MOL0     C65932   3.359   6.486   7.930  0.1607  0.0018  0.4293
  500MOL0     C65933   3.789   6.320   8.558 -0.0022  0.1008 -0.5125
  500MOL0     C65934   3.878   6.254   8.661 -0.6270  0.4487  0.6547
  500MOL0     H65935   4.211   6.423   9.082 -0.5841 -0.7686 -2.7359
  500MOL0     H65936   4.284   6.314   9.308  2.2035 -1.6103  1.1373
  500MOL0     H65937   4.582   6.063   9.370 -0.1353  0.3793 -1.5759
  500MOL0     H65938   4.509   5.948   9.260 -0.1285 -0.5976  0.5074
  500MOL0     H65939   4.588   5.845   9.490  0.1379 -0.5301  1.7452
  500MOL0     H65940   4.422   5.813   9.438 -1.5677  0.9715  1.7660
  500MOL0     H65941   4.328   5.969   9.597  0.0517 -0.7195 -0.8395
  500MOL0     H65942   4.497   6.022   9.645  1.9045 -2.0822  3.1621
  500MOL0     H65943   4.350   5.772   9.711  0.2088 -0.8538 -0.0547
  500MOL0     H65944   4.517   5.751   9.665  0.0116  1.7476 -1.2927
  500MOL0     H65945   4.468   5.779   9.908  3.3788 -1.5975  0.5723
  500MOL0     H65946   4.431   5.949   9.877  1.5125  0.3851  1.0148
  500MOL0     H65947   4.657   5.946   9.962 -0.7454  2.0491 -0.6675
  500MOL0     H65948   4.688   5.958   9.794  0.9592 -0.3224  1.2713
  500MOL0     H65949   4.697   5.703   9.946  1.1320 -1.3695 -0.9852
  500MOL0     H65950   4.716   5.719   9.770  1.2378  1.7179 -1.3993
  500MOL0     H65951   4.896   5.845   9.983 -0.4769  2.6698 -0.8493
  500MOL0     H65952   4.904   5.888   9.827 -0.5257  0.5019 -0.2160
  500MOL0     H65953   4.834   5.506   9.811 -1.5650  0.4080  0.5610
  500MOL0     H65954   5.163   5.335   9.933  1.4346  3.0233  1.1245
  500MOL0     H65955   5.022   5.290   9.835  0.3285  1.0006 -1.0044
  500MOL0     H65956   4.989   5.173  10.055 -3.7061  0.3577  0.3341
  500MOL0     H65957   4.866   5.288  10.031 -0.3870  1.0145 -3.5697
  500MOL0     H65958   5.122   5.291  10.192 -2.1829 -4.2800 -1.8275
  500MOL0     H65959   5.046   5.452  10.144 -2.1418  0.6522  0.8683
  500MOL0     H65960   4.898   5.230  10.283 -0.3714  0.1122 -1.4504
  500MOL0     H65961   4.832   5.379  10.257 -0.0166  1.7529  1.6116
  500MOL0     H65962   4.752   5.283  10.464 -0.8953 -1.0924  0.7768
  500MOL0     H65963   4.687   5.214  10.687  1.4225 -1.0621  0.5247
  500MOL0     H65964   4.414   5.312  10.975  1.4787  0.4622 -0.3790
  500MOL0     H65965   4.296   5.362  11.166  1.8079  1.3060 -2.4050
  500MOL0     H65966   4.501   5.473  11.491  0.9099 -0.8289  1.7070
  500MOL0     H65967   4.386   5.403  11.607  1.7824 -6.1651 -0.8306
  500MOL0     H65968   4.204   5.461  11.421  2.3264 -3.9458 -0.9323
  500MOL0     H65969   4.338   5.566  11.349 -0.3715  0.1062 -0.4111
  500MOL0     H65970   4.363   5.680  11.563 -0.4093 -1.6878  0.6640
  500MOL0     H65971   4.204   5.610  11.608 -0.1043 -0.2535 -0.0212
  500MOL0     H65972   4.253   5.806  11.379 -1.7039  2.8560 -0.1381
  500MOL0     H65973   4.113   5.706  11.386 -0.2964  3.2670 -2.0761
  500MOL0     H65974   4.193   5.899  11.585  0.4049 -2.1150  0.5447
  500MOL0     H65975   4.075   5.771  11.625 -3.1074 -0.1648 -1.0278
  500MOL0     H65976   3.928   5.845  11.436  0.4291  0.8824 -2.4361
  500MOL0     H65977   4.044   5.977  11.415  4.0458 -0.2864  3.2531
  500MOL0     H65978   3.867   5.898  11.658  1.4865  0.7443  2.1249
  500MOL0     H65979   3.975   6.013  11.693  0.9915 -1.7454  0.4462
  500MOL0     H65980   3.757   6.078  11.471 -4.0261  1.7026  1.4855
  500MOL0     H65981   3.878   6.187  11.532 -2.5444  1.2384 -3.2405
  500MOL0     H65982   4.636   5.224  11.404 -0.5395 -1.5979 -0.9584
  500MOL0     H65983   4.772   5.266  11.197  0.2109 -1.7530 -0.2927
  500MOL0     H65984   5.025   5.454  10.834  1.1680  0.1015 -0.5905
  500MOL0     H65985   5.087   5.495  10.609  0.2285  0.1545 -2.6484
  500MOL0     H65986   4.401   5.970   9.090 -2.1812 -1.7024  1.6571
  500MOL0     H65987   4.332   6.076   8.878 -2.5950  0.4786 -2.1064
  500MOL0     H65988   4.134   6.478   8.635 -2.2401  3.8775  0.5727
  500MOL0     H65989   3.994   6.578   8.480 -1.2465  0.5073 -0.0264
  500MOL0     H65990   3.846   6.558   8.259 -0.5226 -2.8744  1.8302
  500MOL0     H65991   3.826   6.684   8.385  0.3343 -0.3449 -0.2197
  500MOL0     H65992   3.587   6.710   8.333 -2.7641  0.7034 -1.7293
  500MOL0     H65993   3.707   6.751   8.206  0.4249 -1.8243 -0.7780
  500MOL0     H65994   3.570   6.481   8.202 -1.4960  0.6058 -0.3224
  500MOL0     H65995   3.671   6.552   8.075  0.4251  2.9616 -1.9158
  500MOL0     H65996   3.409   6.689   8.171 -1.5604 -0.2863 -1.0632
  500MOL0     H65997   3.524   6.732   8.044 -1.9756  0.2323 -0.0595
  500MOL0     H65998   3.311   6.429   7.853 -1.2565  1.5949  0.0720
  500MOL0     H65999   3.684   6.295   8.546 -0.4869  2.1558 -0.8991
  500MOL0     H66000   3.838   6.166   8.708 -0.7254 -1.4177 -2.6248
  501MOL0     O66001  11.355   0.762   4.805 -0.2687 -0.0707  0.0924
  501MOL0     C66002  11.283   0.854   4.773 -0.4211  0.5761  0.6592
  501MOL0     O66003  11.274   0.912   4.648 -0.2779  1.2066 -0.4781
  501MOL0     C66004  11.360   0.872   4.554  0.4300  0.1629  0.2744
  501MOL0     C66005  11.502   0.918   4.558 -0.1065  0.1062  0.1485
  501MOL0     C66006  11.594   0.862   4.460  0.1034  0.3648 -0.2546
  501MOL0     C66007  11.551   0.785   4.360 -0.7649  0.1473  0.0471
  501MOL0     O66008  11.651   0.735   4.289 -0.1302  0.7054  0.7419
  501MOL0     C66009  11.613   0.654   4.176  0.3484 -0.6634 -1.6379
  501MOL0     C66010  11.736   0.609   4.098 -0.2248  0.7720  0.2204
  501MOL0     C66011  11.866   0.694   4.094 -0.0486  0.5886  0.4976
  501MOL0     C66012  11.868   0.817   3.997 -0.5028  0.2180  0.0937
  501MOL0     C66013  12.008   0.871   3.966 -0.0534  0.4809 -0.4040
  501MOL0     C66014  12.008   0.993   3.857 -0.7683  1.2685  1.0271
  501MOL0     C66015  12.145   1.066   3.846 -0.0549 -0.5915  0.0599
  501MOL0     C66016  12.150   1.192   3.756 -0.0439 -0.8519 -0.0278
  501MOL0     N66017  12.267   1.276   3.779  0.1286 -0.4660 -0.0962
  501MOL0     C66018  12.394   1.251   3.724 -0.3029  0.5461 -0.6309
  501MOL0     C66019  12.451   1.364   3.736  0.5498  0.0689  1.0848
  501MOL0     C66020  12.583   1.419   3.684  0.6915 -0.0994  0.4328
  501MOL0     C66021  12.709   1.357   3.734  0.4240  0.3072  0.1300
  501MOL0     C66022  12.828   1.436   3.694  0.2587  0.5775 -0.4329
  501MOL0     C66023  12.948   1.394   3.775  0.1964 -0.4662  0.3490
  501MOL0     O66024  13.011   1.282   3.717  0.2713 -0.5570  0.3091
  501MOL0     C66025  12.964   1.156   3.745  0.3243  0.2619  1.1104
  501MOL0     C66026  12.907   1.100   3.858 -0.1440 -0.7544  0.9769
  501MOL0     C66027  12.827   0.985   3.861  0.2888 -0.7924  0.2669
  501MOL0     C66028  12.827   0.900   3.742  0.4568 -0.0022 -1.1251
  501MOL0     C66029  12.769   0.760   3.752 -0.5406 -0.0749  0.6728
  501MOL0     O66030  12.760   0.701   3.626  0.4474  0.3466  0.0638
  501MOL0     C66031  12.709   0.578   3.600 -0.9280  0.1629 -0.0708
  501MOL0     C66032  12.724   0.540   3.472  0.3680  0.7025 -0.0272
  501MOL0     C66033  12.705   0.413   3.416  0.1478 -0.6508 -0.4065
  501MOL0     C66034  12.667   0.312   3.506 -0.2242  1.1519  0.5206
  501MOL0     O66035  12.651   0.178   3.466  0.1985  0.2761 -0.4968
  501MOL0     C66036  12.586   0.163   3.341  0.1594 -0.0515  1.3751
  501MOL0     C66037  12.521   0.023   3.326 -0.7533 -0.0614  0.2793
  501MOL0     C66038  12.630  -0.079   3.284  0.1532  0.6276  0.3048
  501MOL0     C66039  12.574  -0.212   3.285 -0.2233 -0.6389  1.4249
  501MOL0     C66040  12.661  -0.322   3.225 -0.1376  0.1267 -0.0843
  501MOL0     C66041  12.601  -0.459   3.238  0.4884  0.6755  0.4756
  501MOL0     C66042  12.709  -0.575   3.245 -0.8740  0.5246  0.0804
  501MOL0     C66043  12.638  -0.703   3.274  0.5700 -0.2509 -0.1543
  501MOL0    Cl66044  12.763  -0.837   3.254  0.0778 -0.0126  0.1731
  501MOL0     C66045  12.657   0.342   3.641 -0.3475 -0.0664 -0.1290
  501MOL0     C66046  12.679   0.474   3.685  0.6032  0.3004 -0.6661
  501MOL0     O66047  12.728   0.725   3.858 -0.2481  0.0902 -0.3877
  501MOL0     C66048  12.884   0.952   3.629 -0.2629 -0.1249  0.4299
  501MOL0     C66049  12.951   1.075   3.630  0.0962  0.2506  0.2902
  501MOL0     N66050  12.367   1.456   3.787  0.8337  0.5340  0.1279
  501MOL0     N66051  12.262   1.402   3.820  0.5690  0.5429  0.1690
  501MOL0     C66052  11.414   0.761   4.346  0.1905  0.5670 -0.5067
  501MOL0     C66053  11.320   0.789   4.446 -0.4932  0.0073 -0.0292
  501MOL0     C66054  11.192   0.896   4.887 -0.0071 -0.4149  0.4059
  501MOL0     C66055  11.126   1.014   4.880  0.6290 -0.7645 -0.2432
  501MOL0     C66056  11.036   1.052   4.986  0.0184  0.3877  0.0834
  501MOL0     C66057  11.015   0.964   5.098  0.2374 -0.7840 -0.3135
  501MOL0     O66058  10.934   1.000   5.201  0.3940  0.5219  0.4606
  501MOL0     C66059  10.804   1.054   5.166 -0.5048  1.1971  0.4777
  501MOL0     C66060  10.700   1.041   5.272  0.1117 -0.3844 -0.5805
  501MOL0     C66061  10.744   1.101   5.398  0.2161 -0.2687  0.1822
  501MOL0     C66062  10.648   1.057   5.508  0.6536 -0.3135 -0.4612
  501MOL0     C66063  10.604   1.165   5.607  0.2352  0.5317  0.0131
  501MOL0     C66064  10.579   1.250   5.693 -0.3144  0.3837  0.0012
  501MOL0     C66065  11.088   0.849   5.108  0.0373 -0.0156 -0.0946
  501MOL0     C66066  11.163   0.813   4.995 -0.1808 -0.1761 -1.0229
  501MOL0     H66067  11.543   0.975   4.640  2.3384 -1.7540  0.3469
  501MOL0     H66068  11.699   0.886   4.467 -0.4985  3.9282 -1.1788
  501MOL0     H66069  11.551   0.710   4.106 -0.5562 -1.5350 -1.5544
  501MOL0     H66070  11.553   0.571   4.212  2.9647 -2.0408 -0.1553
  501MOL0     H66071  11.701   0.576   3.999  3.2255 -1.1943 -0.4952
  501MOL0     H66072  11.771   0.520   4.151  0.8423  0.7988 -0.4225
  501MOL0     H66073  11.940   0.623   4.056 -0.2239  1.1882 -1.0520
  501MOL0     H66074  11.897   0.723   4.194 -0.9277 -1.1693  1.3294
  501MOL0     H66075  11.832   0.783   3.899  2.3255  0.5832 -1.1677
  501MOL0     H66076  11.792   0.882   4.042  1.1790  1.3722  1.3998
  501MOL0     H66077  12.066   0.785   3.933  1.9964  2.9684 -4.0130
  501MOL0     H66078  12.057   0.916   4.054  0.1118 -1.5526  0.6043
  501MOL0     H66079  11.944   1.072   3.896 -0.3071  1.6034  1.1079
  501MOL0     H66080  11.989   0.975   3.751  1.8274  3.6228  0.0444
  501MOL0     H66081  12.177   1.086   3.949  0.1154  1.3962 -0.3389
  501MOL0     H66082  12.220   0.994   3.812  1.3308  2.1994 -3.4507
  501MOL0     H66083  12.061   1.251   3.781 -0.9562 -0.5515 -3.4476
  501MOL0     H66084  12.155   1.172   3.649  2.1803  1.8714 -0.5793
  501MOL0     H66085  12.454   1.170   3.683 -1.1794 -0.9960  0.9930
  501MOL0     H66086  12.584   1.528   3.694 -0.6206  0.0944 -1.1342
  501MOL0     H66087  12.575   1.392   3.578 -1.1593 -1.4199  0.8411
  501MOL0     H66088  12.723   1.258   3.688 -0.9173  0.7568 -1.3311
  501MOL0     H66089  12.700   1.351   3.843 -1.3236  1.6509  0.0980
  501MOL0     H66090  12.835   1.431   3.585 -2.1213  1.5646 -0.6895
  501MOL0     H66091  12.804   1.538   3.727 -3.2883  0.3399 -1.8114
  501MOL0     H66092  12.918   1.382   3.880 -2.2362  1.9370  0.0459
  501MOL0     H66093  13.015   1.480   3.773 -1.6675  1.0730  0.9026
  501MOL0     H66094  12.914   1.163   3.946  2.1303  1.4952 -0.6748
  501MOL0     H66095  12.773   0.979   3.954  2.0115 -0.4188  1.3333
  501MOL0     H66096  12.761   0.617   3.406 -1.1656  2.5041  1.1095
  501MOL0     H66097  12.727   0.390   3.313 -2.4702  5.0214 -2.6407
  501MOL0     H66098  12.660   0.174   3.260  0.5249  2.9217  1.9887
  501MOL0     H66099  12.505   0.236   3.339  0.9685  0.8844 -0.7674
  501MOL0     H66100  12.443   0.027   3.249  1.0885 -1.6514 -1.8077
  501MOL0     H66101  12.459   0.008   3.414 -1.2397  1.0528  0.1423
  501MOL0     H66102  12.716  -0.073   3.351  0.4606 -2.6576  0.3580
  501MOL0     H66103  12.678  -0.051   3.189 -2.1245 -0.6232 -1.3289
  501MOL0     H66104  12.514  -0.225   3.376 -3.3034 -0.6802 -0.4563
  501MOL0     H66105  12.489  -0.218   3.217  1.0463 -2.3625 -0.1051
  501MOL0     H66106  12.759  -0.313   3.273 -0.4561 -1.5717  0.9885
  501MOL0     H66107  12.667  -0.300   3.118 -0.2555  1.3316  0.1534
  501MOL0     H66108  12.536  -0.473   3.151  0.0459  1.6498  0.6352
  501MOL0     H66109  12.544  -0.457   3.332  1.0166 -1.3390  0.8997
  501MOL0     H66110  12.766  -0.583   3.152 -0.7639  1.5974  0.0396
  501MOL0     H66111  12.776  -0.557   3.329 -0.1065  1.0726 -0.6283
  501MOL0     H66112  12.550  -0.700   3.211  1.1912  2.8936 -1.0451
  501MOL0     H66113  12.604  -0.693   3.378  1.1949 -0.4874  0.0837
  501MOL0     H66114  12.643   0.256   3.705  0.3279 -0.3658 -0.3693
  501MOL0     H66115  12.683   0.484   3.793 -1.7648 -3.6557 -0.0322
  501MOL0     H66116  12.872   0.891   3.540 -2.2151 -2.3259  2.0546
  501MOL0     H66117  12.983   1.103   3.530 -1.6825  0.8585 -0.1483
  501MOL0     H66118  11.379   0.724   4.250  1.4473 -0.5549 -0.5564
  501MOL0     H66119  11.220   0.746   4.447 -0.6922  0.4061 -1.1912
  501MOL0     H66120  11.142   1.080   4.794 -0.2706 -0.7996 -0.4441
  501MOL0     H66121  10.997   1.153   4.985 -0.0621  0.3537 -0.6073
  501MOL0     H66122  10.758   0.995   5.087 -0.3358 -0.1325  1.3518
  501MOL0     H66123  10.822   1.159   5.141  2.6638  0.6701  0.2229
  501MOL0     H66124  10.608   1.088   5.237  0.5718  0.3855 -0.7848
  501MOL0     H66125  10.681   0.937   5.300 -0.3129  0.7507  4.3583
  501MOL0     H66126  10.753   1.208   5.378  0.2473 -0.3420 -0.1904
  501MOL0     H66127  10.845   1.073   5.429 -0.4347 -3.3162 -0.1487
  501MOL0     H66128  10.560   1.014   5.460 -0.2662  0.6044  0.3495
  501MOL0     H66129  10.687   0.979   5.575 -0.9406  0.0680  0.9860
  501MOL0     H66130  10.562   1.319   5.772  2.8128 -0.3507  1.4794
  501MOL0     H66131  11.079   0.793   5.201 -0.8001 -0.3357 -0.3624
  501MOL0     H66132  11.198   0.710   5.000 -0.0329 -0.2353  5.1719
  502MOL0     O66133   8.276   5.309   3.653 -0.1437 -0.5447  0.6664
  502MOL0     C66134   8.298   5.424   3.665 -0.2956 -0.4159  1.2592
  502MOL0     O66135   8.325   5.488   3.786  0.4486  0.0259  1.2091
  502MOL0     C66136   8.339   5.403   3.895  0.6895 -0.0311 -0.0535
  502MOL0     C66137   8.234   5.334   3.947  0.5172  0.1221  0.5428
  502MOL0     C66138   8.238   5.242   4.049 -0.7241  0.6591 -0.7691
  502MOL0     C66139   8.357   5.213   4.098 -0.1386  0.6118 -0.2645
  502MOL0     O66140   8.379   5.120   4.198 -0.2186 -0.1503 -0.0397
  502MOL0     C66141   8.419   5.171   4.325  0.1905  0.5950  0.1594
  502MOL0     C66142   8.387   5.082   4.440 -1.6674 -0.8706 -0.2158
  502MOL0     C66143   8.417   4.939   4.411  0.3380 -0.4688  0.4531
  502MOL0     C66144   8.567   4.894   4.400  0.7603  0.6799  0.6185
  502MOL0     C66145   8.568   4.733   4.430  0.2518 -0.1629 -0.6212
  502MOL0     C66146   8.652   4.645   4.333 -0.2927 -0.1511  1.0869
  502MOL0     C66147   8.675   4.500   4.379  0.6351 -0.3095 -0.2914
  502MOL0     C66148   8.556   4.423   4.418  0.7539 -0.1865 -0.0092
  502MOL0     N66149   8.460   4.413   4.307  0.5704  0.3819 -0.2990
  502MOL0     C66150   8.451   4.310   4.217 -0.2412 -0.0373 -0.7617
  502MOL0     C66151   8.335   4.333   4.150 -0.5063  0.9589  0.0844
  502MOL0     C66152   8.280   4.259   4.035 -0.1198 -0.3649 -0.1004
  502MOL0     C66153   8.278   4.359   3.916 -0.1345  0.2409 -0.2593
  502MOL0     C66154   8.280   4.278   3.788  0.0592 -0.6287  0.7719
  502MOL0     C66155   8.142   4.232   3.741 -0.8456 -0.4097  0.0595
  502MOL0     O66156   8.066   4.141   3.824 -1.2203 -0.0757  0.1768
  502MOL0     C66157   7.937   4.137   3.802 -0.2397  0.9803  0.1643
  502MOL0     C66158   7.857   4.117   3.912 -0.7269  0.4739 -0.2927
  502MOL0     C66159   7.719   4.112   3.893  0.3457 -0.0713 -0.6631
  502MOL0     C66160   7.661   4.119   3.765  0.0751  0.1004  0.0083
  502MOL0     C66161   7.514   4.090   3.749  1.1065  0.1117  0.1837
  502MOL0     O66162   7.440   4.047   3.859  0.5099 -0.5912  0.7177
  502MOL0     C66163   7.305   4.089   3.859 -0.5861 -0.4696  0.8846
  502MOL0     C66164   7.199   3.993   3.835 -0.6942 -0.0375  0.3061
  502MOL0     C66165   7.066   4.035   3.844 -0.1228  0.0924  0.2035
  502MOL0     C66166   7.033   4.162   3.875  0.6243 -0.2746  0.3496
  502MOL0     O66167   6.896   4.189   3.878  0.0554 -0.7424 -0.3963
  502MOL0     C66168   6.854   4.289   3.976  0.4973 -0.5705  0.9990
  502MOL0     C66169   6.697   4.296   3.957 -0.5644  0.2693 -0.1389
  502MOL0     C66170   6.650   4.372   4.079  0.0093  0.0973  0.9962
  502MOL0     C66171   6.510   4.429   4.073 -0.9098 -0.3670 -0.2873
  502MOL0     C66172   6.461   4.455   4.216 -0.2307 -0.1193  0.1418
  502MOL0     C66173   6.342   4.547   4.199 -0.6428 -0.2728  0.0493
  502MOL0     C66174   6.380   4.685   4.150  0.7531 -0.7817 -0.2930
  502MOL0     C66175   6.321   4.789   4.243 -0.5387 -0.5856  0.0971
  502MOL0    Cl66176   6.439   4.823   4.371 -0.3233  0.2807 -0.0461
  502MOL0     C66177   7.134   4.261   3.902  0.6843  0.4711  0.2951
  502MOL0     C66178   7.271   4.221   3.889  0.4516  0.2669  0.3555
  502MOL0     O66179   7.465   4.111   3.630 -0.6642  0.0849  0.1953
  502MOL0     C66180   7.743   4.131   3.654  0.6203  0.4808  0.5030
  502MOL0     C66181   7.875   4.130   3.674 -0.1852 -0.2523 -0.4632
  502MOL0     N66182   8.281   4.448   4.206  0.9674  0.5229  0.9113
  502MOL0     N66183   8.348   4.484   4.303 -0.4699 -0.5655 -1.0702
  502MOL0     C66184   8.467   5.279   4.046 -0.8709  0.5420  0.3962
  502MOL0     C66185   8.460   5.381   3.949 -0.4223  0.7199 -1.1340
  502MOL0     C66186   8.300   5.509   3.543 -0.3748 -0.5575  0.0376
  502MOL0     C66187   8.301   5.446   3.415 -0.5038 -0.0081 -0.0284
  502MOL0     C66188   8.273   5.519   3.297 -0.5080 -0.0888 -0.4903
  502MOL0     C66189   8.240   5.653   3.300 -0.5645  0.1358  0.2244
  502MOL0     O66190   8.199   5.712   3.179 -0.5581 -0.3501  0.3451
  502MOL0     C66191   8.113   5.827   3.193  0.2714  0.1026 -1.2517
  502MOL0     C66192   8.099   5.882   3.059 -0.1439 -0.4267 -0.2488
  502MOL0     C66193   8.029   6.026   3.057  0.3238  0.1696 -0.5400
  502MOL0     C66194   7.953   6.070   2.935  1.2611  0.2514 -0.2603
  502MOL0     C66195   7.900   6.206   2.945 -0.2940 -0.2869  1.0019
  502MOL0     C66196   7.854   6.313   2.964  0.1710 -0.2188 -0.2177
  502MOL0     C66197   8.249   5.717   3.430  0.8785 -0.2089  0.6341
  502MOL0     C66198   8.281   5.648   3.546  0.5629  0.6555 -0.0693
  502MOL0     H66199   8.141   5.374   3.909  1.0199 -1.5186 -2.7830
  502MOL0     H66200   8.146   5.204   4.094  1.2977 -2.8201  0.9171
  502MOL0     H66201   8.372   5.268   4.341 -1.0166 -0.0077  0.3939
  502MOL0     H66202   8.527   5.186   4.328  0.4687 -1.0071  3.9640
  502MOL0     H66203   8.283   5.106   4.467 -0.9949  0.9814  0.9577
  502MOL0     H66204   8.451   5.108   4.525 -1.3119 -3.1387  0.2723
  502MOL0     H66205   8.359   4.913   4.322  0.2201  1.0227  0.0661
  502MOL0     H66206   8.378   4.878   4.492  0.7225 -2.5917 -0.8858
  502MOL0     H66207   8.600   4.914   4.298 -1.0854 -0.3462 -0.2415
  502MOL0     H66208   8.630   4.942   4.475  3.0916 -0.2746 -0.6136
  502MOL0     H66209   8.463   4.705   4.416  0.3058  0.0609 -1.5719
  502MOL0     H66210   8.591   4.705   4.533  1.6654  0.0133 -0.8570
  502MOL0     H66211   8.750   4.694   4.328 -0.4564  0.0683 -0.3518
  502MOL0     H66212   8.609   4.650   4.232 -1.0940 -0.3776  1.4156
  502MOL0     H66213   8.717   4.442   4.296  0.3874  1.1221 -1.4733
  502MOL0     H66214   8.755   4.506   4.452  1.1830 -2.2365 -0.6924
  502MOL0     H66215   8.510   4.482   4.498 -2.5506  0.4075 -2.1497
  502MOL0     H66216   8.574   4.320   4.451  2.0329 -0.0447 -0.2354
  502MOL0     H66217   8.537   4.245   4.202  1.4032  2.1879 -1.5536
  502MOL0     H66218   8.178   4.229   4.062 -0.3705 -0.7331 -1.3978
  502MOL0     H66219   8.341   4.169   4.021  0.9068  0.7825 -4.6246
  502MOL0     H66220   8.372   4.414   3.911 -0.8832  1.7437  1.0056
  502MOL0     H66221   8.188   4.422   3.922 -1.4583 -1.4935 -0.9003
  502MOL0     H66222   8.330   4.344   3.717 -0.2251  1.4452  2.4234
  502MOL0     H66223   8.335   4.185   3.804 -2.9747 -3.0046 -1.2123
  502MOL0     H66224   8.148   4.173   3.648 -1.1586 -1.4456  0.6803
  502MOL0     H66225   8.087   4.321   3.711 -2.5896 -1.2669  0.5508
  502MOL0     H66226   7.900   4.117   4.011 -1.0823 -1.8534 -0.1018
  502MOL0     H66227   7.643   4.104   3.970  1.6358  2.1052  0.9566
  502MOL0     H66228   7.219   3.889   3.811  2.6042  0.4337  0.5133
  502MOL0     H66229   6.984   3.967   3.820 -0.0694 -1.2045  3.3370
  502MOL0     H66230   6.897   4.388   3.960  2.4190 -1.5156  0.0124
  502MOL0     H66231   6.882   4.262   4.079  1.7458 -1.7762  0.3821
  502MOL0     H66232   6.647   4.199   3.963 -2.0394  0.9496 -1.0328
  502MOL0     H66233   6.672   4.359   3.871  1.4680  2.2491  0.6485
  502MOL0     H66234   6.717   4.457   4.089  2.2866 -1.5833  0.7987
  502MOL0     H66235   6.661   4.319   4.174  3.2764  0.2340  0.7817
  502MOL0     H66236   6.510   4.523   4.017 -0.3297  0.6671  1.3739
  502MOL0     H66237   6.435   4.363   4.029 -2.6592 -0.4761  2.6189
  502MOL0     H66238   6.532   4.513   4.276 -0.4512  1.1253 -0.7508
  502MOL0     H66239   6.441   4.362   4.271 -1.0279  1.3420  2.4607
  502MOL0     H66240   6.288   4.545   4.294  0.3120 -1.8889  0.5992
  502MOL0     H66241   6.276   4.496   4.128 -2.3713 -0.0519  1.4104
  502MOL0     H66242   6.487   4.705   4.147  0.5689  0.1884 -1.1249
  502MOL0     H66243   6.339   4.700   4.049 -1.2973  4.3672  0.9565
  502MOL0     H66244   6.224   4.770   4.289  0.7869 -0.7254  3.0201
  502MOL0     H66245   6.302   4.879   4.183 -1.7993 -2.1678 -2.0225
  502MOL0     H66246   7.121   4.367   3.922  2.3567  0.0951  4.1063
  502MOL0     H66247   7.348   4.297   3.899 -0.1435  1.2535 -1.9230
  502MOL0     H66248   7.717   4.141   3.550 -1.1736  3.8706  1.1477
  502MOL0     H66249   7.927   4.122   3.579 -0.9485  0.9073 -1.0048
  502MOL0     H66250   8.565   5.238   4.070 -0.8980  0.8985  1.1417
  502MOL0     H66251   8.537   5.446   3.908  1.6594 -0.9212 -0.0535
  502MOL0     H66252   8.318   5.340   3.402 -0.4669 -0.3088  2.1351
  502MOL0     H66253   8.289   5.463   3.206  3.7361 -2.2075  1.2581
  502MOL0     H66254   8.160   5.903   3.256  2.6945 -0.3299 -2.4413
  502MOL0     H66255   8.022   5.806   3.250  2.9272 -0.7083  3.2180
  502MOL0     H66256   8.197   5.909   3.019  0.3073  0.5709  1.4079
  502MOL0     H66257   8.043   5.824   2.985  0.3592 -0.9818 -0.2004
  502MOL0     H66258   8.120   6.087   3.065  0.7215 -0.4953  0.2378
  502MOL0     H66259   7.976   6.048   3.150  2.4368  3.2597  0.0818
  502MOL0     H66260   8.021   6.072   2.850  0.8745 -0.5808 -0.6030
  502MOL0     H66261   7.866   6.004   2.927 -0.0613  1.8806  0.0687
  502MOL0     H66262   7.805   6.409   2.959 -0.7763 -0.6939 -0.2715
  502MOL0     H66263   8.214   5.819   3.445 -1.6028 -1.2490  2.5169
  502MOL0     H66264   8.281   5.697   3.643  0.5160  3.2761 -1.3167
  503MOL0     O66265   8.480   7.152   2.322  0.8917 -0.5161  0.3153
  503MOL0     C66266   8.588   7.156   2.264  0.6360  0.2484 -0.4859
  503MOL0     O66267   8.613   7.191   2.136  0.8483 -0.5114 -0.0462
  503MOL0     C66268   8.517   7.190   2.038  0.2260 -0.7841  0.2621
  503MOL0     C66269   8.541   7.276   1.926 -0.1908 -0.8796  0.0546
  503MOL0     C66270   8.461   7.281   1.809 -0.4813 -0.5091 -0.8002
  503MOL0     C66271   8.352   7.189   1.795  0.2388 -0.4894  0.0465
  503MOL0     O66272   8.297   7.183   1.667  0.1053 -1.0284 -0.0588
  503MOL0     C66273   8.152   7.162   1.663  0.2267  0.6687 -0.0010
  503MOL0     C66274   8.103   7.210   1.531  0.7167  0.3106  0.9228
  503MOL0     C66275   8.108   7.113   1.412 -0.1711  0.1140  0.1738
  503MOL0     C66276   8.031   6.979   1.433  0.5206  0.6058 -0.1371
  503MOL0     C66277   7.983   6.905   1.311  0.4605  0.0110 -0.9469
  503MOL0     C66278   7.903   6.782   1.361 -0.5615 -0.6168  0.1358
  503MOL0     C66279   7.814   6.717   1.255 -1.1460 -0.4000 -0.8621
  503MOL0     C66280   7.698   6.797   1.205 -0.5289  0.1328 -0.9784
  503MOL0     N66281   7.593   6.726   1.135  0.3895 -0.3763 -0.3210
  503MOL0     C66282   7.469   6.777   1.109 -0.1546 -0.6131 -0.6635
  503MOL0     C66283   7.420   6.703   1.008  0.2370  0.9377 -1.2720
  503MOL0     C66284   7.287   6.732   0.940  0.9491 -0.9218 -0.2958
  503MOL0     C66285   7.198   6.610   0.920 -0.2184  0.3169 -0.3262
  503MOL0     C66286   7.227   6.500   0.818  0.3659  0.4297  0.2090
  503MOL0     C66287   7.233   6.548   0.675  0.0085  0.2755 -0.0161
  503MOL0     O66288   7.241   6.436   0.585 -0.1887 -0.0590 -0.5292
  503MOL0     C66289   7.363   6.376   0.568 -0.1929  0.2670  0.0669
  503MOL0     C66290   7.487   6.415   0.617 -0.0440 -0.2239 -0.1657
  503MOL0     C66291   7.605   6.333   0.588  0.7812 -0.0117 -0.4352
  503MOL0     C66292   7.597   6.203   0.531 -0.8795 -0.5334 -0.1473
  503MOL0     C66293   7.709   6.129   0.487 -0.0932  0.5132  0.0377
  503MOL0     O66294   7.833   6.184   0.511  0.2911 -0.1348  0.3061
  503MOL0     C66295   7.951   6.132   0.464 -0.1733 -1.1131 -0.3275
  503MOL0     C66296   8.004   6.168   0.339  0.5370 -0.9037  0.5986
  503MOL0     C66297   8.117   6.109   0.286  0.4575  0.7740  0.1300
  503MOL0     C66298   8.184   6.003   0.355 -0.3548  0.2625  0.7820
  503MOL0     O66299   8.305   5.941   0.323 -0.2142  0.4156  0.5698
  503MOL0     C66300   8.383   5.988   0.217 -0.7579 -0.4370  0.5260
  503MOL0     C66301   8.472   6.110   0.257 -0.8549  0.2419  0.7297
  503MOL0     C66302   8.562   6.095   0.380 -0.1350  0.2129 -1.0549
  503MOL0     C66303   8.673   6.002   0.345  0.1911  0.2550 -0.2772
  503MOL0     C66304   8.792   6.009   0.447  0.1634 -0.1967  0.4718
  503MOL0     C66305   8.837   5.869   0.478  0.7739  0.7527 -0.2460
  503MOL0     C66306   8.945   5.861   0.589 -0.1781 -0.5575 -0.0538
  503MOL0     C66307   8.995   5.714   0.613 -0.5430 -0.7684  0.6979
  503MOL0    Cl66308   9.125   5.671   0.488 -0.0414 -0.0652  0.0740
  503MOL0     C66309   8.134   5.963   0.477  0.6323 -0.9565 -0.5178
  503MOL0     C66310   8.019   6.024   0.531  0.0197 -0.5922  0.3285
  503MOL0     O66311   7.694   6.023   0.430  0.5528 -0.2304  0.3773
  503MOL0     C66312   7.465   6.167   0.491 -0.2155  0.2225 -0.6040
  503MOL0     C66313   7.353   6.250   0.511 -0.3782  0.1149  0.6114
  503MOL0     N66314   7.506   6.596   0.985 -0.4158 -0.4573  0.4742
  503MOL0     N66315   7.609   6.624   1.058  0.4211 -0.2621 -0.7055
  503MOL0     C66316   8.322   7.111   1.902  0.1464  0.5041  0.0472
  503MOL0     C66317   8.396   7.111   2.027 -0.0035 -0.9909 -0.9199
  503MOL0     C66318   8.710   7.140   2.348  0.4930 -0.4932  1.2265
  503MOL0     C66319   8.838   7.121   2.287 -0.7158  0.2787  0.3926
  503MOL0     C66320   8.942   7.093   2.369  0.1768  0.0384  0.4646
  503MOL0     C66321   8.937   7.080   2.508  0.5893 -0.9530 -0.0705
  503MOL0     O66322   9.055   7.058   2.583  0.1567 -0.7516 -0.0025
  503MOL0     C66323   9.043   6.999   2.713 -0.2466 -0.2482 -1.3828
  503MOL0     C66324   9.180   6.956   2.749 -0.2034  0.1424 -0.5884
  503MOL0     C66325   9.282   7.065   2.778 -0.1511  0.3605 -0.3718
  503MOL0     C66326   9.350   7.076   2.921 -0.0605  0.7880 -0.0869
  503MOL0     C66327   9.245   7.112   3.013 -0.5614 -0.2593  0.1019
  503MOL0     C66328   9.151   7.141   3.086  0.4724 -0.8199 -1.0691
  503MOL0     C66329   8.806   7.092   2.568 -0.5487  0.2933  0.5632
  503MOL0     C66330   8.700   7.125   2.485  1.3964  0.4195 -0.0205
  503MOL0     H66331   8.622   7.348   1.927 -0.2515 -0.7800  2.2070
  503MOL0     H66332   8.478   7.340   1.720  0.7873 -0.4945 -0.5667
  503MOL0     H66333   8.103   7.220   1.742 -2.5210 -1.4256 -0.0473
  503MOL0     H66334   8.123   7.058   1.673  0.8467  0.6370  1.8320
  503MOL0     H66335   8.162   7.298   1.505  1.6163 -0.6816 -0.5894
  503MOL0     H66336   7.998   7.234   1.549  0.1737 -0.8654 -0.4120
  503MOL0     H66337   8.212   7.093   1.384 -0.2640 -0.0562 -0.0604
  503MOL0     H66338   8.065   7.164   1.325  0.2325  0.9622  0.4637
  503MOL0     H66339   8.095   6.919   1.498  0.0859  0.5478  0.2407
  503MOL0     H66340   7.943   7.013   1.489  2.2706  3.0970  1.3522
  503MOL0     H66341   8.058   6.871   1.239 -1.3577 -0.7239 -2.6048
  503MOL0     H66342   7.911   6.978   1.273 -0.5913  0.7246  2.1149
  503MOL0     H66343   7.829   6.820   1.433 -1.3821  0.0604 -1.0185
  503MOL0     H66344   7.980   6.716   1.402  0.9907  0.3933 -1.0490
  503MOL0     H66345   7.863   6.684   1.163  1.8120  0.2369  0.3650
  503MOL0     H66346   7.786   6.618   1.293 -0.2041 -1.6219 -3.1246
  503MOL0     H66347   7.748   6.875   1.147  3.8568  0.7575  3.0549
  503MOL0     H66348   7.656   6.855   1.288 -2.8999 -1.2816 -1.0942
  503MOL0     H66349   7.422   6.867   1.147  0.4409 -0.0322 -1.2682
  503MOL0     H66350   7.290   6.789   0.847  6.9967  2.6831  1.5540
  503MOL0     H66351   7.236   6.804   1.005  1.4901 -0.4386 -0.3978
  503MOL0     H66352   7.099   6.656   0.914 -0.0285  1.0419  1.4715
  503MOL0     H66353   7.208   6.555   1.015 -2.0250 -1.4401 -1.0821
  503MOL0     H66354   7.322   6.454   0.843  0.7100  0.2027 -1.4164
  503MOL0     H66355   7.149   6.425   0.833  0.1974  0.2574 -1.3452
  503MOL0     H66356   7.318   6.612   0.651 -1.6456  2.7335  0.3587
  503MOL0     H66357   7.138   6.589   0.640 -1.0964 -4.0412 -2.9438
  503MOL0     H66358   7.506   6.507   0.671  0.9848  0.6181 -1.8830
  503MOL0     H66359   7.704   6.372   0.612  0.3355  3.8688 -3.6792
  503MOL0     H66360   7.948   6.251   0.296 -1.8467 -1.8880  1.6249
  503MOL0     H66361   8.159   6.146   0.192  1.6830 -0.4638  0.1606
  503MOL0     H66362   8.323   6.022   0.131 -0.1160  0.0650  0.2643
  503MOL0     H66363   8.442   5.904   0.178  2.0363  2.2289 -1.4634
  503MOL0     H66364   8.402   6.191   0.282  1.1758  1.8716  1.3902
  503MOL0     H66365   8.523   6.153   0.171  0.5001 -0.4082  1.1876
  503MOL0     H66366   8.500   6.056   0.461  0.1863  1.1986 -0.3214
  503MOL0     H66367   8.613   6.189   0.403  3.5133 -2.1355  1.8438
  503MOL0     H66368   8.636   5.903   0.319 -0.3074  0.2033  0.5892
  503MOL0     H66369   8.718   6.037   0.251  1.3349  1.9201  0.8290
  503MOL0     H66370   8.766   6.052   0.545 -2.2818  0.1784 -0.2659
  503MOL0     H66371   8.871   6.068   0.400 -0.2818 -0.2701 -0.3813
  503MOL0     H66372   8.880   5.822   0.389  1.5890  0.8577  0.0788
  503MOL0     H66373   8.754   5.804   0.507  0.9417 -0.0882 -1.5659
  503MOL0     H66374   9.035   5.917   0.561  1.9883 -3.2993  0.8786
  503MOL0     H66375   8.908   5.904   0.682 -1.3735 -1.4450 -0.1030
  503MOL0     H66376   8.907   5.649   0.610 -2.8874  2.2126 -1.9319
  503MOL0     H66377   9.046   5.708   0.710  0.2041 -1.9066  0.2481
  503MOL0     H66378   8.176   5.883   0.537 -0.1816  0.0803  1.5323
  503MOL0     H66379   7.971   6.003   0.626 -0.9647  1.5737  0.3798
  503MOL0     H66380   7.451   6.075   0.436 -0.2169 -1.2245  1.6687
  503MOL0     H66381   7.262   6.222   0.459 -0.7891  0.0963  1.3217
  503MOL0     H66382   8.242   7.040   1.883 -0.9571  2.3755 -3.1324
  503MOL0     H66383   8.359   7.035   2.095 -2.0377 -1.0757 -2.0539
  503MOL0     H66384   8.844   7.126   2.179  0.6287 -0.3328  0.4213
  503MOL0     H66385   9.037   7.058   2.330  0.0287 -0.4936  0.5709
  503MOL0     H66386   8.975   6.914   2.707  0.7584 -1.0020 -2.6516
  503MOL0     H66387   9.007   7.071   2.787  2.3413 -0.9705  0.7457
  503MOL0     H66388   9.186   6.890   2.836  4.8268 -0.9822 -1.5132
  503MOL0     H66389   9.219   6.898   2.666  0.4141  1.6878 -1.4302
  503MOL0     H66390   9.246   7.163   2.748 -1.1648 -0.1171 -0.7719
  503MOL0     H66391   9.365   7.043   2.711  1.0270  3.0212  0.1211
  503MOL0     H66392   9.401   6.986   2.956  0.5386  1.6929  1.4522
  503MOL0     H66393   9.429   7.149   2.904  0.5109  0.0366 -0.8064
  503MOL0     H66394   9.084   7.171   3.163  2.6905  0.0570  0.6431
  503MOL0     H66395   8.788   7.082   2.674 -0.4610 -4.3574  0.3500
  503MOL0     H66396   8.604   7.147   2.530  1.3447 -0.6278  0.4233
  504MOL0     O66397   2.250   6.524   7.656  0.1875 -0.0390 -0.1390
  504MOL0     C66398   2.190   6.585   7.575  0.0722  0.3194  0.6512
  504MOL0     O66399   2.146   6.540   7.453 -0.6064  0.5203 -0.2404
  504MOL0     C66400   2.198   6.418   7.414 -0.1901 -0.0134  0.2309
  504MOL0     C66401   2.322   6.354   7.448  0.2962 -0.2287  0.7052
  504MOL0     C66402   2.358   6.226   7.401  0.5855 -0.0053 -0.0374
  504MOL0     C66403   2.293   6.174   7.294  0.3389 -0.0999 -0.3031
  504MOL0     O66404   2.342   6.058   7.239  0.1891 -0.2094 -0.2993
  504MOL0     C66405   2.286   6.014   7.112 -0.0097 -0.4101 -0.5456
  504MOL0     C66406   2.352   5.888   7.068  0.0448 -0.8961  0.5127
  504MOL0     C66407   2.334   5.861   6.919 -0.6242  0.5228 -0.2831
  504MOL0     C66408   2.429   5.752   6.867  0.5656  0.2381 -0.7145
  504MOL0     C66409   2.409   5.726   6.712 -0.0445  0.9203  0.2333
  504MOL0     C66410   2.434   5.839   6.613 -0.0033 -0.5717  0.1552
  504MOL0     C66411   2.453   5.821   6.461 -0.5953 -1.2658 -0.2625
  504MOL0     C66412   2.549   5.723   6.410 -0.2702 -0.2340 -0.8652
  504MOL0     N66413   2.534   5.696   6.264 -0.1127  1.1804  0.3082
  504MOL0     C66414   2.563   5.785   6.164  0.3553 -0.0156 -0.2016
  504MOL0     C66415   2.536   5.732   6.043  0.6022  0.1187 -0.3705
  504MOL0     C66416   2.518   5.794   5.908  0.1703  0.4582  0.7812
  504MOL0     C66417   2.367   5.803   5.876 -0.4870  0.1412  0.5792
  504MOL0     C66418   2.288   5.919   5.920  0.0857  0.5817  0.0894
  504MOL0     C66419   2.178   5.932   5.811  0.5648 -0.3414 -0.3099
  504MOL0     O66420   2.109   6.060   5.840 -0.0943  0.4877  0.1571
  504MOL0     C66421   1.976   6.072   5.840  0.7067  0.1879 -0.5798
  504MOL0     C66422   1.886   5.991   5.778 -0.0618 -0.8293  1.2179
  504MOL0     C66423   1.753   6.001   5.800 -0.1016 -0.4510 -0.3820
  504MOL0     C66424   1.704   6.110   5.875 -0.3200  0.1188  0.8728
  504MOL0     C66425   1.561   6.135   5.891  0.0377  0.3825 -1.4724
  504MOL0     O66426   1.478   6.018   5.907 -0.3670  0.0354 -0.7969
  504MOL0     C66427   1.350   6.040   5.950  0.5475  0.6634  0.2149
  504MOL0     C66428   1.251   5.952   5.896  0.8006 -0.7591  0.1957
  504MOL0     C66429   1.120   5.935   5.957 -0.3878 -0.2381 -0.1269
  504MOL0     C66430   1.089   6.018   6.060 -0.3486  1.1453 -0.4814
  504MOL0     O66431   0.968   6.007   6.131  0.0130  0.2118 -0.4382
  504MOL0     C66432   0.848   6.035   6.057 -0.4316 -0.3753  0.1950
  504MOL0     C66433   0.748   6.100   6.150  0.3655  0.1038 -0.0145
  504MOL0     C66434   0.648   6.193   6.071  0.3428  1.0915  0.1103
  504MOL0     C66435   0.568   6.268   6.179  0.4285 -0.2307 -0.3190
  504MOL0     C66436   0.486   6.384   6.131  0.5236 -0.0076 -0.3469
  504MOL0     C66437   0.388   6.428   6.252 -0.1678  0.3953 -0.4833
  504MOL0     C66438   0.269   6.513   6.228  0.3720 -0.5173 -0.2390
  504MOL0     C66439   0.306   6.653   6.217  0.4740  0.5120  0.3177
  504MOL0    Cl66440   0.348   6.731   6.369  0.4832 -0.3190 -0.1269
  504MOL0     C66441   1.190   6.104   6.111  0.1549  0.6320 -0.6201
  504MOL0     C66442   1.314   6.113   6.059  0.0579  0.0566 -0.5650
  504MOL0     O66443   1.525   6.250   5.904  0.1280 -0.4739  0.9059
  504MOL0     C66444   1.798   6.198   5.926  0.8480  0.4876  0.3938
  504MOL0     C66445   1.931   6.179   5.909 -0.2437 -0.1801 -0.0079
  504MOL0     N66446   2.502   5.599   6.073  0.0338 -0.0523 -0.0753
  504MOL0     N66447   2.488   5.583   6.203 -0.3289  0.2296 -0.6906
  504MOL0     C66448   2.173   6.235   7.254 -0.7558  0.4171 -0.6986
  504MOL0     C66449   2.126   6.350   7.317 -1.1861 -0.2551  0.3204
  504MOL0     C66450   2.132   6.714   7.616  0.1894  0.1420 -0.3858
  504MOL0     C66451   2.099   6.732   7.751 -0.3791 -0.0291  0.1730
  504MOL0     C66452   2.049   6.855   7.786  0.4928  1.1814 -1.2372
  504MOL0     C66453   2.023   6.959   7.698  0.5295 -0.8144  0.2832
  504MOL0     O66454   1.969   7.071   7.753  0.6395 -0.1234 -0.5230
  504MOL0     C66455   1.955   7.196   7.675 -0.4597  0.2958 -0.3914
  504MOL0     C66456   1.849   7.284   7.751 -0.4882  0.6396 -1.0826
  504MOL0     C66457   1.914   7.343   7.873  0.4032 -0.4040 -0.5497
  504MOL0     C66458   1.828   7.435   7.959  0.4940 -0.3905 -0.4288
  504MOL0     C66459   1.891   7.453   8.098 -0.6925  0.6326 -0.0515
  504MOL0     C66460   1.947   7.481   8.204 -0.7378  0.6865 -0.7755
  504MOL0     C66461   2.063   6.945   7.570  0.1324 -0.0334 -0.3179
  504MOL0     C66462   2.120   6.826   7.530 -0.3676  0.3968  0.7604
  504MOL0     H66463   2.392   6.410   7.508 -0.0671  0.1069  0.8227
  504MOL0     H66464   2.450   6.185   7.440 -0.3608  0.9138  3.4844
  504MOL0     H66465   2.301   6.092   7.036  1.7863  0.0623  0.2505
  504MOL0     H66466   2.180   6.000   7.136  0.3228 -1.6005  0.2909
  504MOL0     H66467   2.312   5.807   7.130 -0.7253 -0.0144  1.2071
  504MOL0     H66468   2.459   5.902   7.088 -0.2498 -1.3822  2.7041
  504MOL0     H66469   2.358   5.958   6.875  2.9780  0.3353  0.9240
  504MOL0     H66470   2.229   5.835   6.904  0.0028 -3.7945  1.5249
  504MOL0     H66471   2.532   5.785   6.882  1.0352 -2.4139  3.2604
  504MOL0     H66472   2.420   5.661   6.927 -0.8422  0.6575 -0.2453
  504MOL0     H66473   2.307   5.687   6.706 -0.5013  1.6354  2.3671
  504MOL0     H66474   2.474   5.647   6.674 -1.7653 -0.9080  0.8863
  504MOL0     H66475   2.520   5.896   6.650  0.9807 -1.3359 -0.8891
  504MOL0     H66476   2.360   5.919   6.619  0.4824  0.2989 -3.2933
  504MOL0     H66477   2.358   5.795   6.412 -0.9129  0.4668 -0.6320
  504MOL0     H66478   2.478   5.920   6.421 -0.3285  1.0861  4.8831
  504MOL0     H66479   2.533   5.628   6.462  1.6579 -1.2540 -1.9988
  504MOL0     H66480   2.650   5.753   6.440 -0.3009 -1.0324  0.0786
  504MOL0     H66481   2.590   5.890   6.171  1.8251 -0.4602  1.4131
  504MOL0     H66482   2.560   5.724   5.835  1.7546 -0.2960  2.3355
  504MOL0     H66483   2.559   5.895   5.906  0.2058  0.4811 -2.1902
  504MOL0     H66484   2.322   5.711   5.916 -0.0549  0.0823  0.9325
  504MOL0     H66485   2.359   5.808   5.767 -0.5357 -2.4053  0.4051
  504MOL0     H66486   2.244   5.897   6.017 -4.6885  1.4908 -1.6165
  504MOL0     H66487   2.338   6.015   5.907  2.4205 -0.6061 -0.3303
  504MOL0     H66488   2.118   5.841   5.818 -0.8811  0.6872  1.8659
  504MOL0     H66489   2.216   5.938   5.708  0.9685 -0.1298 -0.1484
  504MOL0     H66490   1.922   5.906   5.720  1.7354  1.0802 -0.5867
  504MOL0     H66491   1.692   5.924   5.753  2.1442 -4.2057  2.2710
  504MOL0     H66492   1.285   5.885   5.818  1.2210  0.9968 -1.2027
  504MOL0     H66493   1.056   5.862   5.908 -1.2545 -0.6570  1.5691
  504MOL0     H66494   0.809   5.956   5.992  3.2589 -0.0494 -2.7782
  504MOL0     H66495   0.873   6.111   5.982  4.2259  0.6307  2.3713
  504MOL0     H66496   0.801   6.157   6.227 -2.9176  0.2935  2.2857
  504MOL0     H66497   0.689   6.028   6.207  1.6722 -1.3868 -0.4799
  504MOL0     H66498   0.584   6.127   6.012  2.9433 -2.6981  1.1084
  504MOL0     H66499   0.717   6.256   6.014  1.1744  0.6717  0.6260
  504MOL0     H66500   0.502   6.197   6.229  0.9480  0.6645  1.7537
  504MOL0     H66501   0.644   6.308   6.247  2.4997 -1.4236 -1.8059
  504MOL0     H66502   0.434   6.353   6.039  0.8769 -3.6049  0.4986
  504MOL0     H66503   0.559   6.463   6.112 -2.3906  3.2017  0.6539
  504MOL0     H66504   0.450   6.480   6.326 -0.2267  0.8064 -0.7188
  504MOL0     H66505   0.345   6.336   6.293 -2.3887  1.7800  0.4686
  504MOL0     H66506   0.219   6.492   6.133 -2.3728  2.1286  0.4786
  504MOL0     H66507   0.197   6.490   6.307  0.6853  0.7542  0.4607
  504MOL0     H66508   0.223   6.712   6.176  1.5908  2.0854  0.2151
  504MOL0     H66509   0.391   6.665   6.149 -2.3161  2.4329 -3.2738
  504MOL0     H66510   1.163   6.163   6.198  1.1286 -0.1847  0.2701
  504MOL0     H66511   1.382   6.175   6.117 -0.3713  2.0184 -2.0443
  504MOL0     H66512   1.770   6.259   6.011 -4.1136 -1.1549  0.2575
  504MOL0     H66513   2.003   6.248   5.952  2.2972 -3.1369  0.8736
  504MOL0     H66514   2.117   6.187   7.174  1.8405 -2.4408 -0.9509
  504MOL0     H66515   2.035   6.404   7.293 -0.5703  1.0303  0.7638
  504MOL0     H66516   2.123   6.658   7.827 -1.0557  0.6520  1.0684
  504MOL0     H66517   2.016   6.846   7.889 -2.3147 -0.8232 -2.1974
  504MOL0     H66518   1.933   7.182   7.569  1.6758  3.1759 -1.3398
  504MOL0     H66519   2.054   7.241   7.668 -0.0493 -0.3876  0.7598
  504MOL0     H66520   1.822   7.367   7.686  1.4120  2.5130  0.3573
  504MOL0     H66521   1.759   7.230   7.781 -0.1055  1.8917  2.9753
  504MOL0     H66522   2.005   7.402   7.857 -0.1533  0.9740  1.0753
  504MOL0     H66523   1.954   7.256   7.927 -0.7855 -1.2642 -1.0319
  504MOL0     H66524   1.819   7.535   7.916 -0.1847  0.3223  1.2718
  504MOL0     H66525   1.733   7.380   7.960  0.8733 -1.1240  1.9771
  504MOL0     H66526   1.993   7.508   8.297  3.4521 -2.7685 -1.5363
  504MOL0     H66527   2.048   7.029   7.503  1.8661  1.3533  0.9502
  504MOL0     H66528   2.143   6.807   7.426  0.4173 -1.7255  1.2673
  505MOL0     O66529   4.878   1.815   4.945 -0.5746 -0.3188  0.0828
  505MOL0     C66530   4.820   1.917   4.990 -0.1648  0.2150 -0.3324
  505MOL0     O66531   4.718   1.986   4.923 -0.1446 -0.8338 -0.5041
  505MOL0     C66532   4.690   1.960   4.796  0.3668  1.0808 -0.4733
  505MOL0     C66533   4.711   2.056   4.704 -0.0881  0.0006 -1.0063
  505MOL0     C66534   4.686   2.026   4.572  0.3871  0.0457 -0.0778
  505MOL0     C66535   4.638   1.905   4.533 -0.7770  0.5167 -0.2565
  505MOL0     O66536   4.618   1.872   4.398 -0.4569 -0.4010 -0.5094
  505MOL0     C66537   4.581   1.981   4.315  0.1273  0.1571  0.4535
  505MOL0     C66538   4.542   1.933   4.170  0.5326 -0.8833 -0.4288
  505MOL0     C66539   4.489   2.048   4.085  0.0111  0.2761  0.1736
  505MOL0     C66540   4.487   1.993   3.943  0.3583  0.3167  0.5442
  505MOL0     C66541   4.445   2.098   3.839  0.4746  0.0163  0.7254
  505MOL0     C66542   4.535   2.222   3.812  0.5962 -0.2485 -0.2899
  505MOL0     C66543   4.472   2.313   3.702  0.0677 -0.6562 -0.1168
  505MOL0     C66544   4.578   2.422   3.650 -1.1593  0.6266 -0.0384
  505MOL0     N66545   4.691   2.351   3.578 -0.8736 -0.4169 -1.1141
  505MOL0     C66546   4.807   2.334   3.649  0.2985 -0.4859  0.6030
  505MOL0     C66547   4.887   2.262   3.579 -0.2174 -1.4801  1.0810
  505MOL0     C66548   5.022   2.192   3.593  0.1282  0.1493 -0.3533
  505MOL0     C66549   5.037   2.124   3.721  0.3891 -0.0995  0.7655
  505MOL0     C66550   4.930   2.029   3.767 -0.0145  0.1556 -0.2084
  505MOL0     C66551   4.938   2.011   3.921  0.7323  0.5233  0.1090
  505MOL0     O66552   4.915   2.143   3.978  0.4159  0.1143 -0.2941
  505MOL0     C66553   4.934   2.159   4.115 -1.0884  1.2249 -0.6021
  505MOL0     C66554   4.981   2.294   4.149  0.4378 -0.5046 -0.2109
  505MOL0     C66555   4.995   2.333   4.286 -0.5128 -0.1376 -0.5681
  505MOL0     C66556   4.976   2.243   4.396  0.4778  0.7109  1.3626
  505MOL0     C66557   4.993   2.281   4.546 -0.8979  0.9180 -0.1644
  505MOL0     O66558   5.028   2.185   4.641 -0.0498  0.6368  0.3748
  505MOL0     C66559   5.113   2.213   4.747  0.3188 -0.2133  0.8153
  505MOL0     C66560   5.211   2.310   4.736 -0.1090  0.5501  0.0314
  505MOL0     C66561   5.285   2.330   4.849 -0.1551 -0.1528 -0.9184
  505MOL0     C66562   5.261   2.271   4.975 -0.8509  0.3792  0.5186
  505MOL0     O66563   5.353   2.317   5.069  0.1618 -0.2278  0.8502
  505MOL0     C66564   5.303   2.302   5.202 -0.1497  0.3518  0.3401
  505MOL0     C66565   5.386   2.398   5.294  0.2392  0.3871 -0.4952
  505MOL0     C66566   5.545   2.405   5.256  1.0184 -0.9127  0.5076
  505MOL0     C66567   5.618   2.479   5.364  0.6331 -0.0137 -0.3479
  505MOL0     C66568   5.763   2.466   5.324  0.4337 -0.0233 -0.9919
  505MOL0     C66569   5.854   2.557   5.414 -0.1644  0.0211  0.3394
  505MOL0     C66570   5.996   2.526   5.392  0.0620  0.8533  0.4413
  505MOL0     C66571   6.069   2.588   5.522  0.3781  0.5193  0.0344
  505MOL0    Cl66572   6.229   2.546   5.500 -0.0825 -0.2680  0.0761
  505MOL0     C66573   5.157   2.186   4.990  0.0218  0.4770 -0.0872
  505MOL0     C66574   5.084   2.169   4.876  0.0845  0.1249 -0.8314
  505MOL0     O66575   4.981   2.402   4.574 -0.2347 -0.0061  0.8996
  505MOL0     C66576   4.944   2.108   4.357 -0.5867  0.2001  0.1745
  505MOL0     C66577   4.919   2.063   4.222  2.0897  0.8181 -0.0735
  505MOL0     N66578   4.817   2.244   3.458  0.0326 -0.4629 -0.6543
  505MOL0     N66579   4.698   2.288   3.457  0.4496 -0.2519 -0.3962
  505MOL0     C66580   4.608   1.809   4.630 -0.1651 -0.1417 -0.3090
  505MOL0     C66581   4.647   1.839   4.764  0.3981  1.1123  1.2080
  505MOL0     C66582   4.874   1.968   5.112  0.6528 -0.7607  0.1998
  505MOL0     C66583   4.804   2.062   5.182 -0.3963 -0.9150  0.4292
  505MOL0     C66584   4.860   2.117   5.303  0.0673  0.4643  0.8297
  505MOL0     C66585   4.978   2.058   5.355 -0.0336  0.5731 -0.1297
  505MOL0     O66586   5.037   2.090   5.481  0.0953  0.2013 -0.2930
  505MOL0     C66587   4.960   2.182   5.561 -0.4711  0.8040  0.4136
  505MOL0     C66588   5.016   2.177   5.701 -0.3807 -0.2033  0.3586
  505MOL0     C66589   5.153   2.219   5.714 -0.1492  0.2306 -0.3341
  505MOL0     C66590   5.229   2.166   5.829 -0.3132 -0.5398 -0.5383
  505MOL0     C66591   5.151   2.156   5.955  0.0764 -0.2871  1.1629
  505MOL0     C66592   5.084   2.154   6.056 -0.6031  1.1151  0.0990
  505MOL0     C66593   5.042   1.964   5.278  0.2061  0.5174  0.0656
  505MOL0     C66594   5.003   1.923   5.148  1.7670 -0.4561  0.0755
  505MOL0     H66595   4.735   2.157   4.736 -0.2691 -0.7879  1.8307
  505MOL0     H66596   4.694   2.114   4.508  1.8090  0.2293  0.3205
  505MOL0     H66597   4.674   2.034   4.290  0.0495  0.0501 -0.0568
  505MOL0     H66598   4.497   2.040   4.353 -0.9209 -1.8881  1.5018
  505MOL0     H66599   4.474   1.848   4.167 -0.4407 -0.1262 -0.2353
  505MOL0     H66600   4.633   1.890   4.127  2.3044  1.9858  0.1465
  505MOL0     H66601   4.546   2.141   4.087  1.9770 -0.7679 -2.5139
  505MOL0     H66602   4.386   2.072   4.113 -0.1061  0.2943 -0.2630
  505MOL0     H66603   4.588   1.956   3.922 -0.2932 -1.3774  0.2820
  505MOL0     H66604   4.415   1.912   3.931 -3.2008  3.4378 -1.3282
  505MOL0     H66605   4.341   2.122   3.860  0.4203  0.0769  0.4014
  505MOL0     H66606   4.434   2.046   3.743 -1.3250  3.3659 -1.0826
  505MOL0     H66607   4.638   2.193   3.792  2.0587  2.6718  2.2199
  505MOL0     H66608   4.547   2.277   3.906  4.6666  0.4969 -1.0830
  505MOL0     H66609   4.450   2.244   3.620  0.2644 -1.9534  0.8901
  505MOL0     H66610   4.385   2.376   3.728 -0.3185 -0.4405 -1.8330
  505MOL0     H66611   4.616   2.484   3.732  0.0103  0.3142 -0.3379
  505MOL0     H66612   4.536   2.491   3.576  0.1623  0.1990 -1.2103
  505MOL0     H66613   4.830   2.359   3.752  1.9731 -2.4758  0.7741
  505MOL0     H66614   5.100   2.265   3.568  1.5943 -0.8378  1.1466
  505MOL0     H66615   5.021   2.106   3.525 -0.7679 -3.1773  3.4993
  505MOL0     H66616   5.052   2.205   3.793 -3.1365  1.6761 -0.2573
  505MOL0     H66617   5.133   2.072   3.716  0.2757 -0.3372  1.0514
  505MOL0     H66618   4.828   2.061   3.749 -0.4856 -1.5918 -0.9050
  505MOL0     H66619   4.953   1.930   3.726  3.4143  0.1493  1.3530
  505MOL0     H66620   5.030   1.962   3.952 -0.1268 -1.5201 -0.3946
  505MOL0     H66621   4.869   1.932   3.954  1.1341 -0.3055 -0.9810
  505MOL0     H66622   4.992   2.368   4.072  2.3862 -2.0434 -1.5159
  505MOL0     H66623   5.023   2.432   4.319 -1.6062 -0.9173  3.1916
  505MOL0     H66624   5.230   2.359   4.641 -1.0522 -0.2569 -0.5935
  505MOL0     H66625   5.359   2.410   4.843 -0.9069  0.7386  0.8908
  505MOL0     H66626   5.322   2.196   5.221  0.0749 -0.0852 -1.9876
  505MOL0     H66627   5.198   2.330   5.195  0.1090  1.1400 -0.6852
  505MOL0     H66628   5.373   2.368   5.398  1.6260 -1.0979 -0.7002
  505MOL0     H66629   5.334   2.493   5.277 -1.5888  0.2099  3.2115
  505MOL0     H66630   5.554   2.453   5.158  2.2020  1.4579  1.7077
  505MOL0     H66631   5.565   2.297   5.248 -0.8881 -1.2481 -0.2890
  505MOL0     H66632   5.582   2.582   5.377  3.1426  0.6706  2.4767
  505MOL0     H66633   5.601   2.432   5.462 -0.5165  1.0740  0.0081
  505MOL0     H66634   5.771   2.490   5.218 -1.1659  1.0298 -0.9144
  505MOL0     H66635   5.795   2.363   5.340 -0.1252 -0.4219 -2.2812
  505MOL0     H66636   5.839   2.530   5.519 -0.0668 -1.8016 -0.0701
  505MOL0     H66637   5.814   2.659   5.414  0.8165  0.7055  5.7246
  505MOL0     H66638   6.009   2.418   5.388 -0.9491  0.7588 -2.2981
  505MOL0     H66639   6.033   2.576   5.302 -0.4200  1.5906  0.6430
  505MOL0     H66640   6.038   2.531   5.610 -1.2820  0.7794 -0.3408
  505MOL0     H66641   6.050   2.694   5.543 -0.9524 -0.1550  2.6570
  505MOL0     H66642   5.127   2.143   5.084 -0.5471 -3.2486 -1.7792
  505MOL0     H66643   4.989   2.117   4.888 -1.8989  3.2200 -1.7293
  505MOL0     H66644   4.948   2.037   4.439  1.5947  2.1679  1.9318
  505MOL0     H66645   4.880   1.963   4.208 -1.2809  2.3868 -4.5503
  505MOL0     H66646   4.581   1.706   4.606  2.3683 -1.8205  3.0743
  505MOL0     H66647   4.633   1.752   4.827 -0.4245 -0.3618 -0.8947
  505MOL0     H66648   4.706   2.092   5.144  0.7488  3.5620  0.4339
  505MOL0     H66649   4.804   2.191   5.360 -2.6068 -2.2542  2.0030
  505MOL0     H66650   4.852   2.165   5.566 -0.6165  1.7668  0.6657
  505MOL0     H66651   4.969   2.287   5.530 -2.1862  2.1810  4.0209
  505MOL0     H66652   4.954   2.242   5.764  3.1526  3.5476  0.3938
  505MOL0     H66653   5.010   2.072   5.731  0.9401 -1.0738 -2.1574
  505MOL0     H66654   5.156   2.328   5.725  0.7410  0.4292 -2.2217
  505MOL0     H66655   5.206   2.200   5.621  0.5068  1.9558 -0.3364
  505MOL0     H66656   5.274   2.070   5.804  0.6711 -0.2408  0.0472
  505MOL0     H66657   5.315   2.232   5.844  0.6213 -1.6410 -0.9267
  505MOL0     H66658   5.044   2.136   6.154  0.6385 -1.2157  0.2531
  505MOL0     H66659   5.133   1.918   5.315 -0.6566  0.5153  2.3389
  505MOL0     H66660   5.070   1.866   5.085  0.4277 -0.4488 -1.3895
  506MOL0     O66661   1.148  10.190   2.493 -0.1173  0.5326 -0.2783
  506MOL0     C66662   1.111  10.070   2.504 -0.4100  0.8706  0.3610
  506MOL0     O66663   1.042  10.010   2.416 -0.3408 -0.7519 -0.2672
  506MOL0     C66664   0.988  10.089   2.316  0.5374 -0.4356 -0.7408
  506MOL0     C66665   1.066  10.143   2.208 -0.9299  0.3988 -0.4685
  506MOL0     C66666   1.001  10.215   2.110 -0.6875  0.0082 -0.2545
  506MOL0     C66667   0.866  10.240   2.111 -0.5774  0.5095 -0.4025
  506MOL0     O66668   0.800  10.313   2.019  0.1519 -0.3277 -0.3601
  506MOL0     C66669   0.831  10.291   1.886  0.4433  0.0903  0.3157
  506MOL0     C66670   0.703  10.295   1.807 -1.1970  0.8047 -0.2665
  506MOL0     C66671   0.633  10.424   1.799 -0.7133 -0.4882  0.4226
  506MOL0     C66672   0.556  10.459   1.924  0.4932  0.4054 -0.1358
  506MOL0     C66673   0.475  10.593   1.915  0.3377  0.4217 -0.3439
  506MOL0     C66674   0.369  10.618   1.812  0.5403 -0.0764  0.5180
  506MOL0     C66675   0.282  10.739   1.851 -0.9524  0.4531 -1.0019
  506MOL0     C66676   0.341  10.874   1.802 -0.0066 -0.7251  0.1117
  506MOL0     N66677   0.260  10.979   1.852  0.4381 -0.0087  0.1132
  506MOL0     C66678   0.163  11.043   1.776 -0.4051  0.6471 -0.8815
  506MOL0     C66679   0.113  11.143   1.862  0.4409  0.0872  1.0994
  506MOL0     C66680   0.014  11.253   1.819  0.1976 -0.5391 -0.3320
  506MOL0     C66681  -0.009  11.354   1.938 -0.1460 -0.1611  0.3823
  506MOL0     C66682  -0.097  11.294   2.051 -1.0475 -0.0014 -0.2011
  506MOL0     C66683  -0.100  11.377   2.174  0.6161  0.4544  0.2993
  506MOL0     O66684  -0.222  11.360   2.246 -0.5712 -0.0837  0.1268
  506MOL0     C66685  -0.233  11.240   2.311 -0.1115 -0.1834 -0.4891
  506MOL0     C66686  -0.341  11.162   2.290  1.4007  0.2793 -0.2050
  506MOL0     C66687  -0.366  11.051   2.361 -0.7381  0.3518 -0.4643
  506MOL0     C66688  -0.285  11.012   2.468  0.1173  0.8087 -0.2488
  506MOL0     C66689  -0.318  10.883   2.535  0.3558 -0.0578 -1.0026
  506MOL0     O66690  -0.417  10.803   2.473 -0.1403 -0.3036  0.6820
  506MOL0     C66691  -0.449  10.666   2.516  0.5362 -0.2199 -0.1598
  506MOL0     C66692  -0.365  10.580   2.586  0.0053  0.5421 -0.5396
  506MOL0     C66693  -0.385  10.438   2.604 -0.1426  0.6589  0.1627
  506MOL0     C66694  -0.506  10.388   2.570  0.6023  1.3175  0.1732
  506MOL0     O66695  -0.528  10.256   2.603 -0.3835  0.2216  0.2219
  506MOL0     C66696  -0.659  10.215   2.651 -0.3343 -0.1324  0.3997
  506MOL0     C66697  -0.688  10.086   2.577 -0.7362  0.8326 -0.1579
  506MOL0     C66698  -0.774  10.120   2.451  0.7909 -0.0408 -0.0338
  506MOL0     C66699  -0.802   9.991   2.374 -0.2573 -0.0207  0.1751
  506MOL0     C66700  -0.929  10.011   2.294 -0.4185  0.2800  0.5042
  506MOL0     C66701  -0.970   9.885   2.227 -0.5713  0.3044 -0.7249
  506MOL0     C66702  -1.084   9.895   2.119  0.0844  0.5423 -0.4870
  506MOL0     C66703  -1.199   9.980   2.168 -0.3232 -0.3810 -0.8327
  506MOL0    Cl66704  -1.240   9.970   2.335 -0.1889  0.4170 -0.1594
  506MOL0     C66705  -0.602  10.470   2.505 -0.7217 -0.8640 -0.0812
  506MOL0     C66706  -0.567  10.605   2.469  0.1229  0.4564 -0.1245
  506MOL0     O66707  -0.271  10.860   2.643 -0.8059  0.4300  0.2489
  506MOL0     C66708  -0.181  11.095   2.505  0.6236  0.0196 -0.4968
  506MOL0     C66709  -0.150  11.203   2.421 -0.0381  0.1816 -0.1039
  506MOL0     N66710   0.179  11.134   1.978 -0.6120  0.3681 -0.0069
  506MOL0     N66711   0.262  11.033   1.981  1.1408 -0.8354  0.3023
  506MOL0     C66712   0.805  10.205   2.224  0.1278 -0.1441 -0.2377
  506MOL0     C66713   0.854  10.129   2.330  0.0631 -0.4299  0.6698
  506MOL0     C66714   1.181   9.997   2.610  1.4167 -0.9621  0.4052
  506MOL0     C66715   1.177   9.855   2.615  0.6582 -0.3250 -0.0435
  506MOL0     C66716   1.264   9.780   2.701  0.8689  0.7398  0.5226
  506MOL0     C66717   1.319   9.845   2.808 -0.5084  0.0463 -0.0392
  506MOL0     O66718   1.379   9.769   2.905 -0.5051  0.2852 -0.0260
  506MOL0     C66719   1.489   9.816   2.979  1.5015 -0.9138 -0.3545
  506MOL0     C66720   1.607   9.854   2.893 -0.3436 -1.1845 -0.3317
  506MOL0     C66721   1.682   9.730   2.832  0.0672 -0.8744 -0.9818
  506MOL0     C66722   1.774   9.760   2.713  0.2613 -0.3662 -0.3673
  506MOL0     C66723   1.780   9.653   2.615  0.9042  0.6639  0.2140
  506MOL0     C66724   1.778   9.553   2.542 -0.4322  0.7738 -0.3019
  506MOL0     C66725   1.306   9.989   2.820  0.8434  0.4031 -0.3498
  506MOL0     C66726   1.236  10.061   2.719 -0.4137  0.1675  0.5885
  506MOL0     H66727   1.173  10.123   2.207 -0.7325  0.6573 -4.8738
  506MOL0     H66728   1.059  10.248   2.025 -0.9579  1.1224 -0.0135
  506MOL0     H66729   0.861  10.187   1.871 -0.2665 -0.1983  0.8395
  506MOL0     H66730   0.912  10.361   1.862  1.2381 -0.7216  0.5888
  506MOL0     H66731   0.645  10.210   1.842  2.0874 -1.5260 -0.0467
  506MOL0     H66732   0.734  10.269   1.705 -0.3477  5.6472 -1.5096
  506MOL0     H66733   0.556  10.404   1.724 -1.3657  1.3324  0.5569
  506MOL0     H66734   0.700  10.504   1.768  2.1656 -2.0332  2.2006
  506MOL0     H66735   0.473  10.391   1.945  1.1430  0.0541  1.4246
  506MOL0     H66736   0.615  10.455   2.016  0.1183 -1.6479  0.0776
  506MOL0     H66737   0.553  10.667   1.891 -0.1009  0.6713 -1.0040
  506MOL0     H66738   0.435  10.613   2.015 -0.7174  3.7415 -1.3062
  506MOL0     H66739   0.309  10.527   1.811 -2.0091  1.4443  2.6296
  506MOL0     H66740   0.422  10.623   1.716  2.2431  0.1986  1.4185
  506MOL0     H66741   0.184  10.722   1.806 -2.2280  1.1357  1.3511
  506MOL0     H66742   0.261  10.735   1.958 -1.4928  0.2851 -1.1142
  506MOL0     H66743   0.360  10.879   1.694  2.9755  0.7136  0.6041
  506MOL0     H66744   0.441  10.885   1.843 -0.3907  1.1227  0.6240
  506MOL0     H66745   0.133  11.035   1.671  4.5423 -0.2335 -2.4912
  506MOL0     H66746  -0.080  11.219   1.776 -0.4730  1.3404 -0.4322
  506MOL0     H66747   0.059  11.324   1.748  0.4716 -0.4427 -0.0691
  506MOL0     H66748  -0.048  11.443   1.888  2.4181  1.4280  1.0275
  506MOL0     H66749   0.087  11.387   1.978 -0.3010  0.0702  0.5652
  506MOL0     H66750  -0.196  11.280   2.006 -0.0686 -0.7773 -2.2830
  506MOL0     H66751  -0.066  11.195   2.086 -3.7661 -0.1391  2.2194
  506MOL0     H66752  -0.092  11.480   2.136  0.9555  0.9795  1.7223
  506MOL0     H66753  -0.014  11.342   2.232 -1.4230 -3.6325  1.1791
  506MOL0     H66754  -0.404  11.183   2.204  1.9065 -3.2131 -1.5874
  506MOL0     H66755  -0.448  10.988   2.329  0.3789 -0.3224 -2.1676
  506MOL0     H66756  -0.266  10.602   2.625 -1.0251 -0.1881  2.8338
  506MOL0     H66757  -0.316  10.364   2.644 -2.4579 -2.4221 -1.1272
  506MOL0     H66758  -0.748  10.277   2.640 -2.0585 -2.8305 -2.4693
  506MOL0     H66759  -0.653  10.189   2.758 -0.9164 -0.8462  0.2688
  506MOL0     H66760  -0.749  10.025   2.644 -1.1228  1.4858  0.0979
  506MOL0     H66761  -0.602  10.022   2.558 -2.0014 -0.7461 -0.7628
  506MOL0     H66762  -0.723  10.187   2.380  3.2400 -2.9425 -1.2186
  506MOL0     H66763  -0.861  10.167   2.497  1.9477  2.7088 -0.4309
  506MOL0     H66764  -0.713   9.968   2.314  0.7660  1.1409  1.1840
  506MOL0     H66765  -0.819   9.906   2.440  0.1456  0.6241  1.1188
  506MOL0     H66766  -0.914  10.098   2.230  3.9234 -0.8488 -0.3794
  506MOL0     H66767  -1.005  10.039   2.368 -1.8731  1.1264 -1.2563
  506MOL0     H66768  -0.993   9.811   2.305  0.2071 -0.6029 -1.3436
  506MOL0     H66769  -0.892   9.846   2.162  0.3206  1.6027 -0.4820
  506MOL0     H66770  -1.046   9.941   2.027  0.5191  2.4736  0.6037
  506MOL0     H66771  -1.137   9.803   2.097  1.6369 -0.2663 -1.0207
  506MOL0     H66772  -1.284   9.964   2.101  0.1320 -1.2074 -1.2176
  506MOL0     H66773  -1.161  10.082   2.152  0.7553 -0.5676  0.3402
  506MOL0     H66774  -0.702  10.428   2.499  0.0076 -3.0909  1.6005
  506MOL0     H66775  -0.625  10.678   2.414 -1.2457  0.4695  1.2711
  506MOL0     H66776  -0.127  11.074   2.596  0.9389  1.9152 -0.2123
  506MOL0     H66777  -0.052  11.247   2.437  0.0043  0.0669 -0.0459
  506MOL0     H66778   0.714  10.256   2.252  2.1821  2.7811  1.6465
  506MOL0     H66779   0.781  10.111   2.409  0.4404  0.0939  1.1440
  506MOL0     H66780   1.106   9.799   2.555  1.9670 -1.0897 -0.9223
  506MOL0     H66781   1.255   9.671   2.699  0.6284  0.7646 -0.8879
  506MOL0     H66782   1.507   9.744   3.060  1.1922 -1.2312 -0.5619
  506MOL0     H66783   1.446   9.901   3.034  0.2470  1.3131 -4.3888
  506MOL0     H66784   1.590   9.918   2.806  3.3031 -0.8707 -0.9835
  506MOL0     H66785   1.681   9.912   2.948 -3.7361  1.4281  1.8989
  506MOL0     H66786   1.603   9.658   2.809  0.3158 -1.8149  0.9553
  506MOL0     H66787   1.749   9.682   2.904 -1.2313  0.6371  1.3335
  506MOL0     H66788   1.743   9.852   2.664  1.9857  1.1848  1.2667
  506MOL0     H66789   1.872   9.773   2.761 -1.5385 -0.7010  3.8050
  506MOL0     H66790   1.781   9.465   2.481  1.1683 -0.3303  1.2590
  506MOL0     H66791   1.352  10.052   2.896  3.3616 -0.1351 -1.3031
  506MOL0     H66792   1.251  10.169   2.726 -0.1423  0.2269 -0.7215
  507MOL0     O66793   7.436   9.972   5.940  0.0564 -0.1086  0.1303
  507MOL0     C66794   7.469  10.040   5.841  0.4855 -0.4042  0.6676
  507MOL0     O66795   7.382  10.098   5.751 -0.8052  0.8524  0.1002
  507MOL0     C66796   7.247  10.069   5.759  0.3992 -0.4534  0.1506
  507MOL0     C66797   7.187   9.995   5.661 -0.8484 -0.1102  0.1903
  507MOL0     C66798   7.051   9.971   5.659  1.2502 -0.3962 -0.7445
  507MOL0     C66799   6.967  10.041   5.749 -1.3012 -0.2456 -0.1764
  507MOL0     O66800   6.833  10.041   5.747  0.2795 -0.6663 -0.0089
  507MOL0     C66801   6.760   9.989   5.641 -0.2319 -0.5230 -0.4830
  507MOL0     C66802   6.616  10.040   5.642 -0.1236 -0.9462 -0.0425
  507MOL0     C66803   6.623  10.195   5.632  0.2923  0.5230  0.4218
  507MOL0     C66804   6.497  10.258   5.563 -0.8218  0.5225 -0.3497
  507MOL0     C66805   6.503  10.405   5.528 -0.1801  0.0486  0.4454
  507MOL0     C66806   6.510  10.492   5.651  0.2859  0.0302 -0.7481
  507MOL0     C66807   6.527  10.650   5.620 -0.9084  0.2744 -0.0846
  507MOL0     C66808   6.498  10.741   5.737 -0.4010 -0.4688 -0.1282
  507MOL0     N66809   6.601  10.749   5.839 -0.7309 -0.1415 -1.2324
  507MOL0     C66810   6.670  10.651   5.900 -0.0668 -0.6590 -0.1942
  507MOL0     C66811   6.784  10.708   5.945  0.3517  0.0915 -0.7153
  507MOL0     C66812   6.892  10.638   6.012 -0.6668  0.1763  0.5291
  507MOL0     C66813   6.999  10.600   5.916  0.6170 -0.7296  0.4564
  507MOL0     C66814   7.101  10.516   5.993  0.0930 -0.0473  0.7004
  507MOL0     C66815   7.218  10.481   5.894 -0.1816  0.2782  0.2862
  507MOL0     O66816   7.291  10.610   5.884  0.2075  0.3788  0.1801
  507MOL0     C66817   7.407  10.590   5.816  0.8242 -0.2620 -1.1720
  507MOL0     C66818   7.433  10.493   5.722  0.1773  0.7227  0.6713
  507MOL0     C66819   7.564  10.474   5.666  0.4539  0.4092 -0.1042
  507MOL0     C66820   7.667  10.565   5.703 -0.0727 -1.0248  0.1558
  507MOL0     C66821   7.807  10.553   5.647 -1.1096 -1.0131  0.3090
  507MOL0     O66822   7.824  10.467   5.551  0.0823 -0.6705 -0.4099
  507MOL0     C66823   7.946  10.450   5.496  0.1309  0.8112  0.6845
  507MOL0     C66824   7.941  10.476   5.355 -0.3244  0.0503  0.0625
  507MOL0     C66825   8.048  10.437   5.268 -0.3789 -0.2831  0.3916
  507MOL0     C66826   8.156  10.370   5.324  0.6916 -1.1082 -0.8362
  507MOL0     O66827   8.260  10.314   5.258  0.1489  0.5676  0.2811
  507MOL0     C66828   8.278  10.365   5.123 -0.0993 -0.4123 -0.1075
  507MOL0     C66829   8.422  10.335   5.070 -0.1792 -0.6875 -0.1441
  507MOL0     C66830   8.430  10.185   5.067  0.5738  0.7186 -0.3747
  507MOL0     C66831   8.558  10.134   4.999 -0.3367  0.2847 -0.0325
  507MOL0     C66832   8.573  10.183   4.848  0.2111 -0.0283  0.2403
  507MOL0     C66833   8.436  10.161   4.782 -0.2942 -0.1286 -0.0242
  507MOL0     C66834   8.446  10.144   4.628  1.1214 -0.4289 -0.2829
  507MOL0     C66835   8.303  10.131   4.560 -0.4999  0.1275 -0.6116
  507MOL0    Cl66836   8.259  10.306   4.513  0.0899  0.3754  0.1399
  507MOL0     C66837   8.165  10.370   5.469 -0.5484 -0.6004 -0.2521
  507MOL0     C66838   8.061  10.400   5.561 -0.1437  0.0996  0.0094
  507MOL0     O66839   7.890  10.646   5.671 -0.0357 -0.5985 -0.3682
  507MOL0     C66840   7.633  10.673   5.797  0.7225 -0.1561 -0.0346
  507MOL0     C66841   7.500  10.686   5.856 -0.2188  0.3793  0.8142
  507MOL0     N66842   6.762  10.847   5.945 -0.3501 -0.7867 -0.0648
  507MOL0     N66843   6.649  10.865   5.879 -0.9146 -0.0794 -0.2853
  507MOL0     C66844   7.028  10.124   5.849  0.8455  0.3051 -0.0158
  507MOL0     C66845   7.171  10.131   5.861  0.0689  0.4780  0.6472
  507MOL0     C66846   7.610  10.060   5.822 -0.0214  0.1095 -0.8315
  507MOL0     C66847   7.652  10.139   5.715  0.2315  0.0557  0.0709
  507MOL0     C66848   7.789  10.167   5.712  0.4548  0.4463  0.3757
  507MOL0     C66849   7.881  10.140   5.815  1.2140  0.4018 -0.1942
  507MOL0     O66850   7.998  10.201   5.806 -0.7489 -0.2155  0.2364
  507MOL0     C66851   8.086  10.201   5.923  0.2071 -1.1112  0.5486
  507MOL0     C66852   8.046  10.319   6.020  0.0159  0.1424 -0.2797
  507MOL0     C66853   8.091  10.282   6.163 -0.3051  0.4970  0.6058
  507MOL0     C66854   7.993  10.185   6.243 -0.3339  0.1515 -0.0422
  507MOL0     C66855   8.032  10.174   6.386  0.3331 -0.4738 -1.2479
  507MOL0     C66856   8.056  10.168   6.503 -0.4802  0.8835 -0.3947
  507MOL0     C66857   7.830  10.056   5.924 -0.0188  0.3870  1.1429
  507MOL0     C66858   7.696  10.015   5.920 -0.1470 -0.0342 -0.0699
  507MOL0     H66859   7.254   9.967   5.580  0.7205  2.7021  0.3955
  507MOL0     H66860   7.017   9.904   5.580  1.8567 -0.1203 -1.2497
  507MOL0     H66861   6.756   9.879   5.645 -2.4004 -0.4462  2.4099
  507MOL0     H66862   6.809  10.022   5.549  0.1806 -0.3537 -0.2070
  507MOL0     H66863   6.579  10.005   5.738  2.2866  1.1644  1.7782
  507MOL0     H66864   6.559   9.998   5.558  0.0190  3.9924 -3.0551
  507MOL0     H66865   6.719  10.221   5.586  0.0002 -0.8146 -1.0230
  507MOL0     H66866   6.624  10.236   5.733 -0.0939  3.0506 -0.5281
  507MOL0     H66867   6.477  10.196   5.474  1.9095 -2.9304  1.1843
  507MOL0     H66868   6.411  10.249   5.630 -0.7687 -2.6487 -0.5614
  507MOL0     H66869   6.417  10.418   5.462 -0.0871 -1.7232 -0.0665
  507MOL0     H66870   6.591  10.417   5.464 -1.0575  1.5394 -0.5490
  507MOL0     H66871   6.599  10.455   5.703  2.1295  2.0264 -2.3262
  507MOL0     H66872   6.418  10.473   5.706 -0.0323 -1.9892 -1.8834
  507MOL0     H66873   6.630  10.674   5.593 -0.7170  0.0526  0.4358
  507MOL0     H66874   6.450  10.678   5.547 -2.0669  2.4647  1.8630
  507MOL0     H66875   6.405  10.718   5.788 -0.6544  1.1346  0.1899
  507MOL0     H66876   6.484  10.838   5.688  0.5666 -0.9749 -1.4576
  507MOL0     H66877   6.661  10.544   5.884  4.2582 -0.9609 -2.2494
  507MOL0     H66878   6.861  10.552   6.072 -0.3070 -0.0525  0.3922
  507MOL0     H66879   6.937  10.699   6.090  1.2538  0.9859 -1.1052
  507MOL0     H66880   7.041  10.695   5.880  0.7505 -0.7941  0.4436
  507MOL0     H66881   6.953  10.553   5.828  0.8796  0.4252 -0.3234
  507MOL0     H66882   7.134  10.570   6.083  0.3072  0.9825  0.0186
  507MOL0     H66883   7.049  10.422   6.015 -1.0012 -0.8078 -4.0924
  507MOL0     H66884   7.182  10.451   5.795  0.4476 -1.1982  0.4822
  507MOL0     H66885   7.278  10.404   5.942  0.5464  1.5129  1.4277
  507MOL0     H66886   7.353  10.426   5.694 -0.6317  1.3362  1.4805
  507MOL0     H66887   7.605  10.400   5.599  1.6314  0.2988  0.7074
  507MOL0     H66888   7.859  10.528   5.308  0.6131  0.3103 -1.3482
  507MOL0     H66889   8.035  10.440   5.160  3.1005 -1.3299 -0.1916
  507MOL0     H66890   8.265  10.472   5.145 -0.8344 -0.7113  0.9896
  507MOL0     H66891   8.206  10.324   5.052  0.9355 -1.5144 -0.5566
  507MOL0     H66892   8.501  10.381   5.129  1.3955 -2.7664 -0.4931
  507MOL0     H66893   8.430  10.389   4.976 -1.1568  0.9561  0.6688
  507MOL0     H66894   8.340  10.141   5.023  0.1384  0.7745  0.4430
  507MOL0     H66895   8.438  10.147   5.170 -1.1228  1.2331 -0.0156
  507MOL0     H66896   8.644  10.185   5.042 -0.3105  1.0732 -0.9730
  507MOL0     H66897   8.571  10.026   5.004 -0.0020  0.2497 -1.3202
  507MOL0     H66898   8.647  10.125   4.791  1.2695 -0.9650  2.4376
  507MOL0     H66899   8.601  10.288   4.839 -4.2091  1.2072 -1.4609
  507MOL0     H66900   8.370  10.247   4.800 -2.0022 -0.4401 -3.7719
  507MOL0     H66901   8.386  10.075   4.827  0.1345 -0.0065  0.6947
  507MOL0     H66902   8.510  10.215   4.575 -0.0292  0.0052 -1.1460
  507MOL0     H66903   8.494  10.047   4.614  0.4626 -1.3654  2.9125
  507MOL0     H66904   8.231  10.084   4.628  0.3998 -0.3200  0.0700
  507MOL0     H66905   8.325  10.066   4.475  1.1916 -0.4876  0.2396
  507MOL0     H66906   8.252  10.325   5.516 -0.6493 -1.7480 -1.1180
  507MOL0     H66907   8.068  10.367   5.665 -2.5855 -1.8005 -0.3450
  507MOL0     H66908   7.717  10.735   5.825 -0.2643  1.2683 -0.1402
  507MOL0     H66909   7.467  10.759   5.930 -0.1840 -0.7561  1.9740
  507MOL0     H66910   6.962  10.173   5.920 -1.5094  1.7012 -2.9169
  507MOL0     H66911   7.218  10.177   5.948 -1.2279 -3.0067  3.4306
  507MOL0     H66912   7.585  10.187   5.645  1.0677  2.2622  0.6950
  507MOL0     H66913   7.817  10.226   5.625 -4.0142 -0.5350 -2.0466
  507MOL0     H66914   8.187  10.232   5.896 -0.0657  4.3162  4.1604
  507MOL0     H66915   8.096  10.109   5.981  2.9185 -1.3038 -0.0959
  507MOL0     H66916   8.103  10.407   5.988  3.9805 -1.6394  1.2731
  507MOL0     H66917   7.937  10.330   6.023 -0.2030 -1.5959 -0.5276
  507MOL0     H66918   8.092  10.374   6.222 -0.7542  0.9603 -0.0881
  507MOL0     H66919   8.194  10.245   6.161 -0.4831 -0.4192  3.7670
  507MOL0     H66920   7.887  10.203   6.225 -0.2136 -2.2355 -4.8968
  507MOL0     H66921   8.022  10.088   6.201  2.6221  0.4481  1.0678
  507MOL0     H66922   8.068  10.156   6.608 -0.4361 -1.8683 -0.6421
  507MOL0     H66923   7.895  10.013   5.999  1.9329  2.6373  0.8842
  507MOL0     H66924   7.680   9.939   5.995  2.0589 -0.5870 -0.0860
  508MOL0     O66925   1.109  10.546   1.870 -0.1455 -0.8324  0.6791
  508MOL0     C66926   1.147  10.625   1.778 -0.8169  0.8016  0.8294
  508MOL0     O66927   1.164  10.594   1.647  1.3053  0.0614 -1.1876
  508MOL0     C66928   1.123  10.467   1.620 -0.1406 -0.3141  0.2101
  508MOL0     C66929   1.163  10.355   1.687 -0.0674  0.6806  0.3647
  508MOL0     C66930   1.115  10.221   1.647  0.3344  0.0841 -0.4514
  508MOL0     C66931   1.016  10.211   1.547  0.1890  0.9032 -0.5975
  508MOL0     O66932   0.973  10.088   1.506  0.6182 -0.3334  0.0953
  508MOL0     C66933   0.844  10.067   1.457 -1.0026 -1.6604 -0.0298
  508MOL0     C66934   0.866  10.074   1.308  0.7926 -0.1393 -0.1611
  508MOL0     C66935   0.879   9.931   1.252 -0.0293 -0.9273  0.0291
  508MOL0     C66936   0.901   9.946   1.104  0.0895 -1.1233  0.4778
  508MOL0     C66937   0.916   9.803   1.035  0.4191 -0.0886  0.2596
  508MOL0     C66938   0.794   9.715   1.037  0.2677  1.2307 -0.6904
  508MOL0     C66939   0.685   9.765   0.941  0.6949  0.2716 -0.5199
  508MOL0     C66940   0.586   9.655   0.901  0.2492  0.0859 -0.2475
  508MOL0     N66941   0.497   9.710   0.802  0.3165  0.3892  0.5431
  508MOL0     C66942   0.413   9.819   0.834  0.8651 -0.5371  0.7249
  508MOL0     C66943   0.373   9.876   0.715 -0.3688 -0.1997 -0.8634
  508MOL0     C66944   0.302  10.010   0.708  0.0439  0.2844  0.5336
  508MOL0     C66945   0.386  10.127   0.641  0.0278 -0.0388 -0.2455
  508MOL0     C66946   0.485  10.170   0.745 -0.1147  0.9390  0.0697
  508MOL0     C66947   0.429  10.267   0.833  0.7756  0.3337 -0.1146
  508MOL0     O66948   0.501  10.286   0.963  0.2149  0.3955  0.5125
  508MOL0     C66949   0.443  10.374   1.057 -0.3538  0.1271 -0.3060
  508MOL0     C66950   0.525  10.399   1.168  0.2534  0.1575  0.1098
  508MOL0     C66951   0.488  10.502   1.254  0.1193  0.1289  0.2359
  508MOL0     C66952   0.359  10.569   1.241 -0.6299 -0.7903 -0.4098
  508MOL0     C66953   0.321  10.681   1.325  0.2855  0.1676  0.5571
  508MOL0     O66954   0.212  10.741   1.279 -0.0248 -0.2551  0.1651
  508MOL0     C66955   0.168  10.869   1.307 -0.2389  0.6974 -0.2811
  508MOL0     C66956   0.086  10.922   1.197 -0.2287 -0.6690  0.8602
  508MOL0     C66957   0.042  11.055   1.197 -0.5530 -0.7940 -0.0124
  508MOL0     C66958   0.066  11.130   1.312  1.6114  0.0733  0.9546
  508MOL0     O66959   0.014  11.260   1.306  0.5800  0.3355  0.6955
  508MOL0     C66960   0.023  11.350   1.413 -0.7980  0.2260 -0.2065
  508MOL0     C66961  -0.106  11.412   1.435  0.2723 -0.8177  0.0779
  508MOL0     C66962  -0.213  11.317   1.507  0.3963 -0.5906  0.7647
  508MOL0     C66963  -0.345  11.384   1.547  0.2130 -0.9683  0.1851
  508MOL0     C66964  -0.429  11.266   1.596 -0.0210  0.4770 -0.4186
  508MOL0     C66965  -0.400  11.214   1.743  0.0220  0.3981  0.4395
  508MOL0     C66966  -0.393  11.063   1.754 -0.5893 -1.0200 -0.0786
  508MOL0     C66967  -0.369  11.006   1.890  0.4697 -0.1579  0.1152
  508MOL0    Cl66968  -0.504  11.030   1.997  0.2532 -0.6333  0.0097
  508MOL0     C66969   0.144  11.079   1.416  0.0723  0.4174  0.3368
  508MOL0     C66970   0.200  10.945   1.421  0.9198 -0.5953 -0.5431
  508MOL0     O66971   0.374  10.700   1.427 -0.4623  0.0292 -0.2194
  508MOL0     C66972   0.280  10.529   1.136  0.2336 -0.3629  0.5198
  508MOL0     C66973   0.323  10.445   1.041  0.6723  0.4209  0.0947
  508MOL0     N66974   0.425   9.796   0.618 -0.6382 -0.2725  0.4924
  508MOL0     N66975   0.502   9.704   0.665  0.1795  0.7827  0.4785
  508MOL0     C66976   0.965  10.331   1.493  0.3037 -0.4990  0.1373
  508MOL0     C66977   1.026  10.452   1.521  0.8073  0.1527  0.0563
  508MOL0     C66978   1.159  10.773   1.804 -0.4715  0.9937  0.5996
  508MOL0     C66979   1.237  10.855   1.716 -0.3294 -1.0150 -0.2841
  508MOL0     C66980   1.255  10.991   1.740 -0.2332  0.2276 -0.5844
  508MOL0     C66981   1.192  11.052   1.854  0.3980 -0.4799  0.2151
  508MOL0     O66982   1.179  11.183   1.877  0.4534 -0.0564  0.1116
  508MOL0     C66983   1.202  11.281   1.775  0.3164 -0.8508 -0.0301
  508MOL0     C66984   1.208  11.428   1.833  0.7077  0.4265 -0.1027
  508MOL0     C66985   1.284  11.536   1.751 -0.5486 -0.1364 -0.3439
  508MOL0     C66986   1.324  11.486   1.601  0.0967 -0.6772 -0.7348
  508MOL0     C66987   1.348  11.583   1.491  0.8440  1.2962 -0.6100
  508MOL0     C66988   1.370  11.656   1.403  0.4467 -0.9864  0.1803
  508MOL0     C66989   1.147  10.965   1.952  1.1882  0.5777  0.7100
  508MOL0     C66990   1.122  10.831   1.924 -1.5004  0.3773 -0.2670
  508MOL0     H66991   1.246  10.356   1.757  1.1882 -0.0223 -1.0632
  508MOL0     H66992   1.148  10.128   1.690  0.9814  0.8271  0.7156
  508MOL0     H66993   0.790  10.159   1.481  0.5956 -0.5865 -0.4503
  508MOL0     H66994   0.794   9.980   1.501 -1.1005 -1.3921  0.3898
  508MOL0     H66995   0.952  10.133   1.277 -0.2364  2.0478  0.8426
  508MOL0     H66996   0.775  10.122   1.270  1.4387  1.7820  0.6035
  508MOL0     H66997   0.790   9.874   1.279 -1.0378  1.2326  1.5325
  508MOL0     H66998   0.960   9.873   1.298 -0.8591 -2.9244 -0.9096
  508MOL0     H66999   0.821  10.009   1.063 -0.8327 -0.5644  2.9832
  508MOL0     H67000   0.989  10.009   1.085 -1.3838  0.9882  0.2849
  508MOL0     H67001   0.995   9.752   1.091 -0.0432  2.2559  3.3500
  508MOL0     H67002   0.938   9.827   0.931 -1.7456  0.4758 -0.1040
  508MOL0     H67003   0.760   9.716   1.141  1.7610 -3.0661  0.0176
  508MOL0     H67004   0.817   9.610   1.019  0.0214  1.5489 -3.2792
  508MOL0     H67005   0.630   9.844   0.992  1.1965  1.9434 -2.4737
  508MOL0     H67006   0.729   9.817   0.856  1.5925  2.2249  1.0744
  508MOL0     H67007   0.533   9.623   0.992  0.6693  0.0686 -0.0059
  508MOL0     H67008   0.639   9.570   0.857  2.3036  1.5655 -0.7808
  508MOL0     H67009   0.384   9.853   0.933  1.9465 -1.0798  1.2387
  508MOL0     H67010   0.264  10.033   0.808  1.2713 -2.5253  1.7712
  508MOL0     H67011   0.208  10.008   0.654  0.5261 -0.3051 -0.3060
  508MOL0     H67012   0.319  10.210   0.617 -1.1217 -0.9526 -0.2732
  508MOL0     H67013   0.431  10.090   0.549 -0.1724  0.0130 -0.3652
  508MOL0     H67014   0.533  10.082   0.789 -2.5520 -2.3999 -3.3195
  508MOL0     H67015   0.556  10.225   0.683 -1.5413 -0.0716 -2.6488
  508MOL0     H67016   0.325  10.250   0.863  0.9662  2.5152  2.1390
  508MOL0     H67017   0.421  10.366   0.789  0.9189  0.9212  1.1260
  508MOL0     H67018   0.621  10.349   1.176 -0.3229 -0.9084  0.6199
  508MOL0     H67019   0.559  10.538   1.327  0.5635 -1.4083  0.5944
  508MOL0     H67020   0.074  10.863   1.107  1.8439  1.2172 -0.7847
  508MOL0     H67021  -0.015  11.085   1.110 -0.7543 -2.3340 -0.4419
  508MOL0     H67022   0.086  11.432   1.378  0.1043 -0.2842  0.1868
  508MOL0     H67023   0.056  11.304   1.507  1.4418 -1.5195 -1.7467
  508MOL0     H67024  -0.136  11.447   1.336 -1.5278 -1.1095  0.4686
  508MOL0     H67025  -0.100  11.500   1.498  0.5476 -1.7771  1.4343
  508MOL0     H67026  -0.161  11.273   1.593  0.2628 -1.1104  0.5790
  508MOL0     H67027  -0.237  11.245   1.429  0.8455  1.3717 -1.2677
  508MOL0     H67028  -0.340  11.463   1.622  1.6392  0.9980 -1.8311
  508MOL0     H67029  -0.396  11.421   1.457 -1.3722 -1.2560  0.9316
  508MOL0     H67030  -0.412  11.181   1.529 -4.2105 -0.0355 -1.1397
  508MOL0     H67031  -0.533  11.299   1.595 -0.2579 -0.0900  1.5379
  508MOL0     H67032  -0.483  11.253   1.803 -2.8713  0.7685 -3.4518
  508MOL0     H67033  -0.304  11.260   1.768  0.7521  2.1130 -4.4394
  508MOL0     H67034  -0.486  11.031   1.706 -0.4818  0.1331 -1.1103
  508MOL0     H67035  -0.311  11.030   1.690  0.2801  1.1575 -0.1713
  508MOL0     H67036  -0.282  11.046   1.943  0.6692 -0.3232 -0.0883
  508MOL0     H67037  -0.345  10.900   1.878  4.1859  0.6562 -0.8327
  508MOL0     H67038   0.168  11.161   1.483 -0.9524  3.1158 -2.3470
  508MOL0     H67039   0.269  10.916   1.499 -0.1958  0.7250  0.9774
  508MOL0     H67040   0.184  10.574   1.112  0.3657 -1.3835 -2.3259
  508MOL0     H67041   0.265  10.435   0.950 -1.3568 -3.2928  1.5507
  508MOL0     H67042   0.885  10.335   1.419 -0.4274  0.6067  0.9574
  508MOL0     H67043   0.995  10.546   1.477  1.5995  1.0204  1.2903
  508MOL0     H67044   1.286  10.816   1.628  1.1732  0.6578 -0.2493
  508MOL0     H67045   1.313  11.058   1.677  2.0847 -0.7491  0.4224
  508MOL0     H67046   1.113  11.266   1.713  0.9964 -0.6699 -1.0784
  508MOL0     H67047   1.298  11.262   1.725  1.7782  0.6443  2.0326
  508MOL0     H67048   1.110  11.466   1.863 -0.6377 -0.6501 -2.8046
  508MOL0     H67049   1.262  11.413   1.927 -4.0934 -2.5176  2.6055
  508MOL0     H67050   1.367  11.568   1.814  1.2684  1.0273 -3.1168
  508MOL0     H67051   1.229  11.630   1.739  2.1347  1.6239  0.2676
  508MOL0     H67052   1.411  11.421   1.608  0.2831 -0.7692 -3.1308
  508MOL0     H67053   1.237  11.430   1.566 -0.6247  0.0674 -0.1849
  508MOL0     H67054   1.403  11.732   1.335  1.7677  1.2545  3.1048
  508MOL0     H67055   1.115  11.006   2.048 -0.2154 -0.7215  0.8432
  508MOL0     H67056   1.071  10.773   2.000 -0.4382 -1.0285 -0.5902
  509MOL0     O67057   1.274   2.886   5.266  0.0868 -0.6660 -0.5251
  509MOL0     C67058   1.293   2.905   5.390 -0.2203 -0.2531 -0.3044
  509MOL0     O67059   1.385   2.996   5.449  0.1149  0.0513 -0.2685
  509MOL0     C67060   1.452   3.080   5.369 -0.4353 -1.1267  0.8924
  509MOL0     C67061   1.534   3.045   5.260 -0.9205 -0.2086 -0.3027
  509MOL0     C67062   1.585   3.134   5.171  0.5868 -0.4544  1.4018
  509MOL0     C67063   1.565   3.271   5.193  0.7814 -0.1536 -0.5258
  509MOL0     O67064   1.611   3.379   5.120 -0.1182 -0.5045  0.3214
  509MOL0     C67065   1.685   3.359   4.997  0.2817  0.8196 -0.6579
  509MOL0     C67066   1.736   3.482   4.937  0.6299  0.2118  0.0299
  509MOL0     C67067   1.789   3.461   4.796 -0.6307 -0.1840 -0.2948
  509MOL0     C67068   1.877   3.573   4.749 -0.1710 -0.2391 -0.2405
  509MOL0     C67069   1.794   3.660   4.660 -0.0948  0.0711  0.5196
  509MOL0     C67070   1.762   3.596   4.521  0.1190 -0.9114  0.1394
  509MOL0     C67071   1.879   3.642   4.425  0.1609  0.1973  0.3820
  509MOL0     C67072   1.842   3.609   4.281  0.0292 -0.3687  0.3543
  509MOL0     N67073   1.864   3.461   4.238  0.4244  0.1418  0.0030
  509MOL0     C67074   1.943   3.423   4.138 -0.7815 -0.0790 -0.1486
  509MOL0     C67075   1.931   3.288   4.143 -0.0699  0.2344 -0.0357
  509MOL0     C67076   1.986   3.202   4.040  0.8004  0.1897 -0.6082
  509MOL0     C67077   2.111   3.132   4.091 -0.4685  0.8663  0.7066
  509MOL0     C67078   2.106   3.050   4.226 -0.2161 -0.3315 -0.3091
  509MOL0     C67079   2.167   3.136   4.345  0.2315  0.5824 -0.0639
  509MOL0     O67080   2.309   3.161   4.315  0.0567 -0.1904 -0.0878
  509MOL0     C67081   2.386   3.208   4.427 -0.4896 -0.4720  1.2660
  509MOL0     C67082   2.330   3.269   4.538  0.1960  0.1176  0.4452
  509MOL0     C67083   2.409   3.336   4.626  0.3170  0.0988  0.2230
  509MOL0     C67084   2.547   3.353   4.603  0.3850  0.8501  0.8016
  509MOL0     C67085   2.625   3.432   4.700 -0.9476 -0.5340  0.0577
  509MOL0     O67086   2.749   3.456   4.658 -0.4480 -0.3542  0.6106
  509MOL0     C67087   2.828   3.502   4.755 -0.7479 -0.3177 -0.5843
  509MOL0     C67088   2.914   3.408   4.822 -0.2389 -0.1996 -0.1817
  509MOL0     C67089   3.012   3.455   4.908 -0.7887 -0.2738  0.0201
  509MOL0     C67090   3.036   3.590   4.940 -0.0981 -1.0417 -0.3946
  509MOL0     O67091   3.143   3.622   5.027 -0.4589  0.6920  0.6177
  509MOL0     C67092   3.127   3.757   5.077  0.2669 -0.2219  0.2387
  509MOL0     C67093   3.253   3.798   5.149  0.5004  0.4710  0.7228
  509MOL0     C67094   3.219   3.930   5.216 -0.3043  0.2571  0.1643
  509MOL0     C67095   3.337   4.016   5.248 -0.5838 -0.4191 -0.3529
  509MOL0     C67096   3.294   4.119   5.352 -0.4933 -0.1453 -0.2076
  509MOL0     C67097   3.410   4.193   5.430 -0.0258 -0.1376  0.2022
  509MOL0     C67098   3.540   4.216   5.342  0.6884  0.1518 -0.4021
  509MOL0     C67099   3.627   4.335   5.399 -0.2759  0.6985 -0.5238
  509MOL0    Cl67100   3.644   4.324   5.580  0.0851  0.2196 -0.4349
  509MOL0     C67101   2.929   3.675   4.889 -1.2372  0.8090 -1.2084
  509MOL0     C67102   2.834   3.638   4.795  0.3019 -0.1968 -0.8456
  509MOL0     O67103   2.571   3.480   4.799  0.4033  0.7145 -0.3148
  509MOL0     C67104   2.606   3.289   4.489 -0.1556 -0.0803 -0.0833
  509MOL0     C67105   2.519   3.215   4.407  0.0587 -0.0811  0.0936
  509MOL0     N67106   1.851   3.254   4.244 -0.2762  0.0207  0.0493
  509MOL0     N67107   1.814   3.356   4.311 -0.0807  0.8836 -0.7057
  509MOL0     C67108   1.499   3.309   5.314  0.3865 -0.0657 -0.6138
  509MOL0     C67109   1.439   3.216   5.398  0.3646  0.4160  0.2884
  509MOL0     C67110   1.210   2.827   5.485 -0.8111 -0.0902  0.0216
  509MOL0     C67111   1.224   2.830   5.619 -0.3532 -0.7882  1.0606
  509MOL0     C67112   1.160   2.746   5.702  0.6825  0.4183 -0.4060
  509MOL0     C67113   1.084   2.636   5.653  0.8887  0.0533 -0.2383
  509MOL0     O67114   1.026   2.544   5.737  0.5713  0.9639 -0.1602
  509MOL0     C67115   0.955   2.428   5.693 -0.3949 -0.1781  0.2809
  509MOL0     C67116   0.873   2.376   5.804 -0.1919 -0.3199  0.3596
  509MOL0     C67117   0.943   2.330   5.930 -0.4191 -0.5418 -0.0928
  509MOL0     C67118   1.072   2.253   5.895 -0.2462  0.6562 -0.1276
  509MOL0     C67119   1.149   2.238   6.020  0.0725  0.2369  0.3527
  509MOL0     C67120   1.201   2.236   6.127 -0.6687  0.7670 -0.2831
  509MOL0     C67121   1.066   2.629   5.515 -0.5600 -0.1828 -1.2591
  509MOL0     C67122   1.120   2.729   5.432  0.1637  0.6027 -0.3354
  509MOL0     H67123   1.548   2.940   5.237 -1.6658 -0.0921 -1.3709
  509MOL0     H67124   1.629   3.100   5.078 -4.1552  1.7539 -2.1023
  509MOL0     H67125   1.617   3.327   4.917 -3.3492  0.5112  2.2821
  509MOL0     H67126   1.763   3.285   5.014 -0.7271 -0.4985 -1.5705
  509MOL0     H67127   1.820   3.515   4.998  1.9149  0.4928 -1.8042
  509MOL0     H67128   1.654   3.555   4.947  0.3391 -0.0697 -0.2745
  509MOL0     H67129   1.726   3.431   4.712 -0.3914 -0.1126 -0.5033
  509MOL0     H67130   1.861   3.383   4.825  0.0597  0.4905 -0.1528
  509MOL0     H67131   1.909   3.632   4.835  3.0893 -0.5677 -1.1001
  509MOL0     H67132   1.972   3.546   4.702 -0.5668 -0.2161 -1.0676
  509MOL0     H67133   1.829   3.763   4.645 -0.1383 -0.3538 -3.5375
  509MOL0     H67134   1.696   3.674   4.708  1.0629  2.8289  2.3770
  509MOL0     H67135   1.672   3.641   4.478  2.4225  3.2059 -0.9390
  509MOL0     H67136   1.748   3.487   4.521  1.8511 -1.2946 -3.2967
  509MOL0     H67137   1.894   3.750   4.425 -1.3805  0.4431 -0.0765
  509MOL0     H67138   1.963   3.581   4.459 -1.3345 -1.1893  1.8230
  509MOL0     H67139   1.903   3.670   4.214  0.5999 -0.6477  0.6137
  509MOL0     H67140   1.738   3.640   4.266  0.8407  2.1818 -0.6185
  509MOL0     H67141   1.995   3.497   4.079 -0.1666  1.5472  2.2666
  509MOL0     H67142   2.003   3.265   3.952  0.1738 -0.5887 -1.2971
  509MOL0     H67143   1.910   3.133   4.003 -0.9285  0.2590  2.4466
  509MOL0     H67144   2.185   3.210   4.115 -3.9889  4.2781  1.4682
  509MOL0     H67145   2.138   3.068   4.006 -1.1975  2.8792 -1.1400
  509MOL0     H67146   1.999   3.027   4.236 -0.6350  1.3800 -0.6286
  509MOL0     H67147   2.163   2.957   4.232 -1.6070 -1.1927  0.0591
  509MOL0     H67148   2.162   3.080   4.438  2.7306 -3.9270 -2.2996
  509MOL0     H67149   2.117   3.233   4.354 -4.0700 -1.1300 -2.3708
  509MOL0     H67150   2.224   3.276   4.563 -0.3633 -0.6145 -1.5157
  509MOL0     H67151   2.366   3.390   4.710  0.9969 -1.3144  1.5515
  509MOL0     H67152   2.915   3.303   4.792  1.2392 -0.1332 -0.4218
  509MOL0     H67153   3.086   3.381   4.939 -0.9087 -0.4803 -0.1848
  509MOL0     H67154   3.035   3.762   5.136 -1.8526  0.5890 -2.9042
  509MOL0     H67155   3.118   3.829   4.995 -1.2961 -1.4695 -0.7241
  509MOL0     H67156   3.336   3.811   5.078  1.9506 -0.9059  2.1008
  509MOL0     H67157   3.275   3.727   5.228 -2.1800 -2.7083 -1.1335
  509MOL0     H67158   3.177   3.902   5.313  3.8168 -0.2790  2.0503
  509MOL0     H67159   3.155   3.991   5.153  0.7588  0.8609 -0.3667
  509MOL0     H67160   3.426   3.959   5.278  0.1485  1.3085  0.9637
  509MOL0     H67161   3.369   4.070   5.159  2.4266 -1.9042 -0.2791
  509MOL0     H67162   3.238   4.077   5.437  1.2733  2.6497  2.5573
  509MOL0     H67163   3.224   4.185   5.300 -1.5322  2.2845  3.7853
  509MOL0     H67164   3.438   4.149   5.527 -0.9498  2.1805  1.6178
  509MOL0     H67165   3.373   4.295   5.448 -0.1702  0.7933 -4.2003
  509MOL0     H67166   3.596   4.124   5.319 -0.4780 -1.1842  1.8652
  509MOL0     H67167   3.506   4.255   5.245  0.2458  2.4354  0.6065
  509MOL0     H67168   3.579   4.430   5.373 -1.6731 -0.0701 -0.8642
  509MOL0     H67169   3.722   4.345   5.346 -0.6416  2.5934 -0.9190
  509MOL0     H67170   2.918   3.780   4.915 -1.4555  0.7152 -0.9212
  509MOL0     H67171   2.777   3.716   4.746  0.8109  1.5511  1.2043
  509MOL0     H67172   2.709   3.279   4.458 -0.6974  0.1570 -2.0956
  509MOL0     H67173   2.562   3.171   4.318  0.6917  0.8077 -0.0517
  509MOL0     H67174   1.500   3.414   5.341  0.1767 -0.1899 -0.1105
  509MOL0     H67175   1.399   3.255   5.491  1.7304  2.1116  0.2163
  509MOL0     H67176   1.298   2.896   5.665  0.8369 -0.2798 -1.4364
  509MOL0     H67177   1.169   2.753   5.810 -1.5662 -0.6516 -0.0866
  509MOL0     H67178   1.022   2.347   5.660 -0.6533 -1.6664  3.0898
  509MOL0     H67179   0.878   2.449   5.618 -0.5843  1.0243  0.7883
  509MOL0     H67180   0.795   2.447   5.832 -0.4479 -0.8961  1.1193
  509MOL0     H67181   0.817   2.292   5.763  0.7459 -1.5910  1.5593
  509MOL0     H67182   0.873   2.268   5.986  0.2363 -0.2463  1.0742
  509MOL0     H67183   0.970   2.425   5.978 -0.0750 -0.0259 -1.2707
  509MOL0     H67184   1.039   2.161   5.846  1.3316  0.1525 -0.3077
  509MOL0     H67185   1.132   2.322   5.834 -1.0586  2.6287  1.2027
  509MOL0     H67186   1.237   2.231   6.227  2.9727  0.8466 -1.4548
  509MOL0     H67187   1.022   2.542   5.466  2.0281 -0.3818 -3.5044
  509MOL0     H67188   1.120   2.705   5.326 -1.1844  2.6206 -0.8444
  510MOL0     O67189   1.051   4.067   2.905  0.5235 -0.1198 -0.3014
  510MOL0     C67190   1.169   4.082   2.936  1.2512 -0.5697 -0.0048
  510MOL0     O67191   1.245   4.004   3.016 -0.4865  0.5967  0.3532
  510MOL0     C67192   1.178   3.918   3.104  0.5142  0.1141 -0.5283
  510MOL0     C67193   1.209   3.778   3.085  1.4231  0.4933 -0.3718
  510MOL0     C67194   1.159   3.692   3.175 -0.9625  0.5069  0.0117
  510MOL0     C67195   1.059   3.742   3.271 -0.4632 -0.5832  0.8262
  510MOL0     O67196   1.000   3.650   3.359  0.1289  0.8629 -0.1526
  510MOL0     C67197   0.999   3.663   3.503 -0.4086 -0.3500 -0.0105
  510MOL0     C67198   0.858   3.693   3.564  0.7778 -0.1483  0.1602
  510MOL0     C67199   0.767   3.575   3.534  0.0487  1.4186 -0.4509
  510MOL0     C67200   0.627   3.613   3.587  0.2307 -0.3482 -0.2856
  510MOL0     C67201   0.541   3.496   3.643 -0.4025 -0.4758 -0.7699
  510MOL0     C67202   0.406   3.557   3.677  0.0273  0.0264 -0.7254
  510MOL0     C67203   0.284   3.486   3.622  0.2587  0.0748 -0.2155
  510MOL0     C67204   0.156   3.522   3.685  0.0173 -1.0354 -0.3523
  510MOL0     N67205   0.049   3.437   3.634  0.4032  0.1926 -0.1153
  510MOL0     C67206  -0.084   3.467   3.639 -0.0147  0.1706  0.3397
  510MOL0     C67207  -0.149   3.372   3.558  0.4706  0.4133  0.4268
  510MOL0     C67208  -0.300   3.393   3.511  0.0215  0.6131  0.4453
  510MOL0     C67209  -0.387   3.421   3.632  0.0741 -0.8416 -0.4693
  510MOL0     C67210  -0.410   3.566   3.656  0.0885  0.3469  0.0555
  510MOL0     C67211  -0.444   3.595   3.808 -0.7941 -0.3171 -0.8229
  510MOL0     O67212  -0.579   3.569   3.832  0.2684 -0.6518  0.1245
  510MOL0     C67213  -0.676   3.671   3.825 -0.3575  0.3901 -0.1239
  510MOL0     C67214  -0.660   3.781   3.741  0.1475 -0.4247  0.3614
  510MOL0     C67215  -0.767   3.876   3.747 -0.6677  0.5140 -0.1336
  510MOL0     C67216  -0.880   3.861   3.839 -0.1606  0.1873  0.2379
  510MOL0     C67217  -0.999   3.952   3.840 -0.7686  0.2812 -0.1067
  510MOL0     O67218  -1.127   3.903   3.868  0.0644 -0.3001 -0.1509
  510MOL0     C67219  -1.221   3.999   3.867  0.7623  0.0908 -0.7501
  510MOL0     C67220  -1.208   4.116   3.950  0.4687  0.5610  0.7593
  510MOL0     C67221  -1.304   4.214   3.936 -0.0337 -1.1668  0.8611
  510MOL0     C67222  -1.423   4.200   3.863 -0.0121  0.7178  0.2340
  510MOL0     O67223  -1.521   4.294   3.835 -0.6020 -0.0245  0.6449
  510MOL0     C67224  -1.528   4.407   3.916 -0.3444 -0.8929  0.3112
  510MOL0     C67225  -1.673   4.454   3.906 -1.0920  1.3030  0.1749
  510MOL0     C67226  -1.695   4.576   3.998  0.1666  0.1267 -0.2646
  510MOL0     C67227  -1.845   4.627   4.006  0.9071  0.0318 -0.4119
  510MOL0     C67228  -1.856   4.756   4.093 -0.8270  0.0539  0.1896
  510MOL0     C67229  -1.831   4.730   4.240 -0.8739  0.6858  0.0711
  510MOL0     C67230  -1.871   4.847   4.324 -0.2301 -0.4778 -0.7890
  510MOL0     C67231  -1.855   4.806   4.475  0.0712 -1.0046 -0.0188
  510MOL0    Cl67232  -1.884   4.931   4.596  0.5214  0.0041  0.2143
  510MOL0     C67233  -1.432   4.080   3.782  0.4855 -1.2511 -0.6170
  510MOL0     C67234  -1.333   3.984   3.788 -0.4678  0.4051 -0.0558
  510MOL0     O67235  -0.967   4.068   3.820  0.0022 -0.5732  0.3473
  510MOL0     C67236  -0.888   3.740   3.916 -0.4108 -0.3977  0.0761
  510MOL0     C67237  -0.786   3.651   3.899 -1.4432  0.0975  0.0247
  510MOL0     N67238  -0.050   3.305   3.490  0.3587  0.5456 -0.3964
  510MOL0     N67239   0.063   3.334   3.548  0.8129  0.7125  0.2032
  510MOL0     C67240   1.018   3.875   3.281 -0.5034  0.0554  1.0641
  510MOL0     C67241   1.082   3.963   3.197  0.7906 -0.2560 -0.8454
  510MOL0     C67242   1.240   4.192   2.866  0.3574 -0.1703 -1.1480
  510MOL0     C67243   1.364   4.238   2.901 -1.4128  1.3345  1.1757
  510MOL0     C67244   1.429   4.345   2.831 -0.4104  0.2974  0.0382
  510MOL0     C67245   1.352   4.420   2.739 -0.2711 -0.3969  0.3922
  510MOL0     O67246   1.399   4.523   2.667  0.0332 -0.2909 -0.6777
  510MOL0     C67247   1.534   4.545   2.644 -0.4153  0.1245  0.2891
  510MOL0     C67248   1.538   4.682   2.574  0.4056 -0.4684  0.7845
  510MOL0     C67249   1.671   4.761   2.576  0.0065  1.1896  0.6381
  510MOL0     C67250   1.720   4.775   2.437  0.7218  0.8957  0.5073
  510MOL0     C67251   1.760   4.632   2.397 -1.2349 -0.3792 -0.6458
  510MOL0     C67252   1.796   4.521   2.364 -0.7600 -0.5601  0.3674
  510MOL0     C67253   1.224   4.378   2.711 -0.6631  0.8573  0.5748
  510MOL0     C67254   1.171   4.260   2.770  0.3558  0.1053  0.3459
  510MOL0     H67255   1.281   3.744   3.012  0.7673  0.2869 -0.9386
  510MOL0     H67256   1.175   3.585   3.164 -0.1299  0.1869  3.4183
  510MOL0     H67257   1.087   3.716   3.540 -0.9221 -0.1790  1.0057
  510MOL0     H67258   1.010   3.562   3.543 -1.7728 -0.0751  1.1477
  510MOL0     H67259   0.822   3.788   3.524 -0.7857 -0.5736  0.5084
  510MOL0     H67260   0.867   3.713   3.671 -0.2157 -1.6992  0.5677
  510MOL0     H67261   0.802   3.483   3.580 -0.3189  1.5034  0.0084
  510MOL0     H67262   0.751   3.560   3.427  1.8685  0.3956 -0.6144
  510MOL0     H67263   0.641   3.685   3.669  0.9843 -0.1127 -0.6155
  510MOL0     H67264   0.580   3.673   3.508  0.8000  0.2067 -0.2163
  510MOL0     H67265   0.590   3.472   3.738 -0.4185 -1.1810 -0.9275
  510MOL0     H67266   0.545   3.419   3.565  1.8864 -1.0408 -0.1637
  510MOL0     H67267   0.394   3.662   3.648  1.6306  0.0397 -1.4955
  510MOL0     H67268   0.401   3.561   3.786  0.2633 -0.0568 -0.7100
  510MOL0     H67269   0.281   3.508   3.515 -3.4904  2.2573  0.1852
  510MOL0     H67270   0.301   3.379   3.640 -2.1279 -0.5422 -1.1606
  510MOL0     H67271   0.137   3.629   3.676  0.5765 -0.8024  1.0113
  510MOL0     H67272   0.154   3.504   3.793 -0.3068  0.6539 -0.0529
  510MOL0     H67273  -0.127   3.534   3.711  0.2777  0.5106  0.2008
  510MOL0     H67274  -0.353   3.308   3.467 -2.3740  1.7153  1.0318
  510MOL0     H67275  -0.315   3.471   3.436  3.1886  2.2536  1.3111
  510MOL0     H67276  -0.342   3.365   3.715 -1.6185  0.9260  1.7795
  510MOL0     H67277  -0.484   3.373   3.616  0.6356 -1.3493 -2.5272
  510MOL0     H67278  -0.331   3.626   3.609  2.0910 -2.8724 -1.0997
  510MOL0     H67279  -0.500   3.593   3.601  0.9152  2.4698 -0.3305
  510MOL0     H67280  -0.406   3.691   3.843 -2.5124  0.4093 -0.9042
  510MOL0     H67281  -0.380   3.528   3.867 -0.5759  1.1803  0.7144
  510MOL0     H67282  -0.578   3.791   3.671  2.3969 -0.3095  2.8749
  510MOL0     H67283  -0.766   3.955   3.673 -2.5314 -3.0762 -4.4949
  510MOL0     H67284  -1.128   4.135   4.021 -0.7994 -2.0447  3.0791
  510MOL0     H67285  -1.299   4.305   3.996 -0.7011 -1.1088  0.8402
  510MOL0     H67286  -1.463   4.486   3.879 -0.7265 -0.5540  0.3507
  510MOL0     H67287  -1.498   4.380   4.018 -1.7706  0.9967  1.2842
  510MOL0     H67288  -1.743   4.371   3.919 -1.4473  1.6792  0.6715
  510MOL0     H67289  -1.687   4.490   3.804  0.3639 -0.5396 -0.7469
  510MOL0     H67290  -1.632   4.659   3.966  0.8793 -0.1208  0.4678
  510MOL0     H67291  -1.661   4.544   4.097 -2.7078  2.7632  1.7977
  510MOL0     H67292  -1.889   4.661   3.911 -2.2621  0.9588  1.2471
  510MOL0     H67293  -1.910   4.553   4.053 -0.0382  0.1270 -1.5159
  510MOL0     H67294  -1.960   4.790   4.099 -2.2431 -3.8589  1.2522
  510MOL0     H67295  -1.786   4.836   4.067 -0.8575 -0.3758 -1.3266
  510MOL0     H67296  -1.725   4.711   4.256 -1.4266 -0.8679  2.3509
  510MOL0     H67297  -1.879   4.640   4.280  1.4764 -0.3119  0.7869
  510MOL0     H67298  -1.823   4.943   4.301  1.6092  0.2235  4.5456
  510MOL0     H67299  -1.975   4.878   4.306 -0.9369 -1.7402  0.8639
  510MOL0     H67300  -1.752   4.772   4.478  0.2168 -0.6089 -0.4088
  510MOL0     H67301  -1.926   4.729   4.509 -0.3011 -0.0612  1.3978
  510MOL0     H67302  -1.518   4.072   3.717  0.1766 -4.9304 -0.0000
  510MOL0     H67303  -1.333   3.892   3.731 -2.3537 -0.5977  1.4725
  510MOL0     H67304  -0.977   3.707   3.970 -1.3869  2.0027  0.0668
  510MOL0     H67305  -0.809   3.558   3.952 -4.2246 -0.0827 -1.3496
  510MOL0     H67306   0.954   3.898   3.365  0.0702 -2.1479  2.1883
  510MOL0     H67307   1.063   4.068   3.212 -2.9598 -0.6221 -1.8844
  510MOL0     H67308   1.415   4.187   2.982 -0.4333 -0.9444 -0.7573
  510MOL0     H67309   1.527   4.374   2.866 -0.2091  1.7045 -1.5525
  510MOL0     H67310   1.578   4.481   2.568  0.2729 -0.5911  1.2719
  510MOL0     H67311   1.600   4.548   2.731 -1.4734  1.6399  1.1003
  510MOL0     H67312   1.490   4.677   2.476 -1.0940  1.8745  1.3047
  510MOL0     H67313   1.469   4.756   2.617  0.3235  1.9702 -3.1117
  510MOL0     H67314   1.746   4.706   2.633 -1.4030 -2.2648 -0.5543
  510MOL0     H67315   1.672   4.862   2.616 -0.0257  2.5349 -2.4409
  510MOL0     H67316   1.645   4.821   2.373  1.0436  0.9609  0.1764
  510MOL0     H67317   1.802   4.847   2.436 -1.8388  4.0767  1.7287
  510MOL0     H67318   1.830   4.425   2.331 -2.0220 -0.6049 -0.8862
  510MOL0     H67319   1.164   4.406   2.625 -1.6813  4.0537  2.1616
  510MOL0     H67320   1.074   4.228   2.733 -1.2554  0.1087  4.0418
  511MOL0     O67321   0.884   6.924   4.791 -0.4992 -0.2864  0.6427
  511MOL0     C67322   1.005   6.939   4.829  0.4201  0.4814 -0.3106
  511MOL0     O67323   1.105   6.860   4.791 -0.2734  0.5082  0.6888
  511MOL0     C67324   1.082   6.747   4.708 -0.4814 -0.0414 -0.4820
  511MOL0     C67325   0.975   6.657   4.719 -0.6587 -1.0923  0.0394
  511MOL0     C67326   0.952   6.540   4.642 -0.1379 -0.0217  0.0627
  511MOL0     C67327   1.054   6.493   4.550  0.0629 -0.8443 -0.8448
  511MOL0     O67328   1.049   6.369   4.489  0.6094 -0.7854 -0.1751
  511MOL0     C67329   1.079   6.378   4.351 -1.0510 -0.6479  0.5376
  511MOL0     C67330   0.941   6.354   4.272  0.3969 -0.1690  0.9212
  511MOL0     C67331   0.863   6.224   4.306 -0.1607  1.0923 -0.2954
  511MOL0     C67332   0.730   6.212   4.229 -0.4035 -0.6184 -0.7305
  511MOL0     C67333   0.747   6.201   4.076  0.0867  0.6684  0.3322
  511MOL0     C67334   0.603   6.225   4.023  0.1032 -0.5966 -0.1119
  511MOL0     C67335   0.599   6.242   3.865 -0.1212  0.1894 -0.7748
  511MOL0     C67336   0.646   6.112   3.796  0.2293  0.2569  1.5802
  511MOL0     N67337   0.575   5.993   3.838  0.8488 -0.2381  0.1939
  511MOL0     C67338   0.440   5.976   3.799  0.0402 -0.4207 -0.5403
  511MOL0     C67339   0.384   5.894   3.881 -0.7906 -0.3482 -0.4378
  511MOL0     C67340   0.245   5.836   3.879 -0.2059 -0.6903 -0.2121
  511MOL0     C67341   0.225   5.699   3.804  0.4100 -0.2337 -1.1591
  511MOL0     C67342   0.112   5.699   3.703  0.0070  0.1087 -0.7050
  511MOL0     C67343   0.097   5.568   3.631  0.2810 -0.6565  0.8079
  511MOL0     O67344   0.091   5.452   3.719  0.0521 -0.8404  0.3673
  511MOL0     C67345   0.112   5.329   3.661  0.6886 -0.6659 -0.1403
  511MOL0     C67346   0.044   5.223   3.717  0.6642 -0.5527 -0.3834
  511MOL0     C67347   0.068   5.090   3.693 -0.0478 -0.6601 -0.2220
  511MOL0     C67348   0.160   5.062   3.591 -0.1563 -0.1891 -0.1948
  511MOL0     C67349   0.200   4.920   3.561  1.3547 -0.8344  0.6217
  511MOL0     O67350   0.250   4.886   3.435  0.3813 -0.5643 -0.3122
  511MOL0     C67351   0.299   4.762   3.407  0.1582 -0.1369 -0.0539
  511MOL0     C67352   0.213   4.652   3.384 -0.2818  0.0134  0.0666
  511MOL0     C67353   0.268   4.527   3.361 -0.1817  0.2586 -0.4718
  511MOL0     C67354   0.405   4.500   3.349 -0.0428  0.2280  0.8301
  511MOL0     O67355   0.463   4.378   3.307 -0.5278 -0.0082  0.1042
  511MOL0     C67356   0.393   4.261   3.264  0.5980  0.8510  1.1126
  511MOL0     C67357   0.476   4.164   3.186 -0.0212 -0.5538 -0.6889
  511MOL0     C67358   0.567   4.087   3.275  1.0679  0.7434 -0.8435
  511MOL0     C67359   0.684   4.047   3.194 -1.1786 -0.0838  0.1419
  511MOL0     C67360   0.659   3.919   3.099 -0.1252 -1.2163 -0.6184
  511MOL0     C67361   0.708   3.941   2.958  0.5173  0.5551 -0.3453
  511MOL0     C67362   0.631   4.064   2.886  0.0577  0.1262  0.0241
  511MOL0     C67363   0.659   4.078   2.736  0.1815  0.2195 -0.7101
  511MOL0    Cl67364   0.571   4.208   2.643  0.2553 -0.1772 -0.0767
  511MOL0     C67365   0.486   4.613   3.379  0.2990  0.4317  0.1296
  511MOL0     C67366   0.435   4.741   3.400  0.8950  0.3788  0.4344
  511MOL0     O67367   0.203   4.846   3.657 -0.5113 -0.0647  0.0601
  511MOL0     C67368   0.219   5.163   3.522 -0.8375  0.3169  0.7803
  511MOL0     C67369   0.207   5.296   3.562  0.6733  0.2601  0.5091
  511MOL0     N67370   0.479   5.864   3.978  0.0358 -0.3167 -0.2509
  511MOL0     N67371   0.590   5.921   3.951  0.4161  0.0444  0.9355
  511MOL0     C67372   1.158   6.588   4.534  0.1855  0.4375 -1.2365
  511MOL0     C67373   1.179   6.695   4.618 -0.9785  0.0424  0.5997
  511MOL0     C67374   1.023   7.036   4.939  0.2782  0.2858 -0.2283
  511MOL0     C67375   1.154   7.080   4.978 -0.3783  0.3597 -0.4721
  511MOL0     C67376   1.169   7.179   5.068  0.7299 -0.2474  0.5297
  511MOL0     C67377   1.063   7.235   5.134 -0.3251  0.1510 -1.5508
  511MOL0     O67378   1.088   7.332   5.225  0.3757  0.8140 -0.1929
  511MOL0     C67379   0.996   7.378   5.330  0.3067  0.5096  0.1284
  511MOL0     C67380   1.046   7.507   5.398 -0.2378  0.2454 -0.4763
  511MOL0     C67381   1.046   7.626   5.292 -0.2987  1.0285  0.1781
  511MOL0     C67382   1.103   7.747   5.345 -0.3450 -0.0159 -0.3957
  511MOL0     C67383   1.237   7.724   5.391 -0.3539 -1.3284 -0.1336
  511MOL0     C67384   1.352   7.710   5.426  0.6773 -0.1802 -0.1686
  511MOL0     C67385   0.935   7.184   5.116 -0.2764 -0.1052 -0.6879
  511MOL0     C67386   0.912   7.089   5.021 -0.1279  1.8068  0.5451
  511MOL0     H67387   0.889   6.682   4.782 -0.9228 -2.4083  0.2267
  511MOL0     H67388   0.868   6.472   4.655 -0.3591 -0.3676 -2.6159
  511MOL0     H67389   1.150   6.297   4.329  0.6764  1.0664 -0.5252
  511MOL0     H67390   1.131   6.468   4.316  0.5655 -1.4782  0.7241
  511MOL0     H67391   0.985   6.345   4.173  1.5235  0.8510  1.2986
  511MOL0     H67392   0.883   6.447   4.280  2.0038  1.0132 -0.4561
  511MOL0     H67393   0.847   6.203   4.412  3.3298  0.6800  0.2665
  511MOL0     H67394   0.922   6.134   4.289  0.5771  1.0964  1.9227
  511MOL0     H67395   0.688   6.120   4.272  2.4388 -1.1024  1.3179
  511MOL0     H67396   0.665   6.294   4.261  0.4586  0.5967 -1.9918
  511MOL0     H67397   0.790   6.108   4.038 -0.4987  1.3488 -2.1542
  511MOL0     H67398   0.813   6.280   4.040  0.0351  1.0905  1.1365
  511MOL0     H67399   0.564   6.321   4.058  2.1827 -0.5265  2.2918
  511MOL0     H67400   0.538   6.146   4.062 -0.6947 -0.8266 -1.8319
  511MOL0     H67401   0.496   6.262   3.836 -1.2628 -0.6147  2.3247
  511MOL0     H67402   0.660   6.326   3.831  2.4546 -0.3847  1.9949
  511MOL0     H67403   0.755   6.095   3.799  0.0864 -1.7634 -1.0605
  511MOL0     H67404   0.619   6.123   3.691  1.4211 -0.4874  1.1761
  511MOL0     H67405   0.381   6.023   3.721 -2.5411  2.2098  2.7126
  511MOL0     H67406   0.176   5.911   3.841 -0.9027 -2.2046 -2.1429
  511MOL0     H67407   0.208   5.836   3.982 -2.3460  3.0425 -0.8144
  511MOL0     H67408   0.207   5.621   3.879 -0.5670  0.9510 -0.1200
  511MOL0     H67409   0.324   5.672   3.767  0.5574  1.9883 -2.5249
  511MOL0     H67410   0.022   5.723   3.762  0.1720  0.5351 -0.6215
  511MOL0     H67411   0.133   5.777   3.629  2.5336 -0.8070 -1.0182
  511MOL0     H67412   0.183   5.554   3.566  2.0979  0.8877  2.7178
  511MOL0     H67413   0.007   5.574   3.570  1.7266  0.0647 -1.3580
  511MOL0     H67414  -0.028   5.251   3.793  0.3707 -1.0821 -0.4632
  511MOL0     H67415   0.013   5.019   3.754 -0.0524 -0.4905 -0.0274
  511MOL0     H67416   0.107   4.678   3.392 -0.4886 -0.6435 -0.4688
  511MOL0     H67417   0.197   4.445   3.362  1.6528 -1.4747  2.2357
  511MOL0     H67418   0.310   4.299   3.203 -0.1176 -2.4936 -0.1885
  511MOL0     H67419   0.352   4.217   3.356  1.8290 -0.7802  0.9191
  511MOL0     H67420   0.541   4.225   3.122  3.9091 -0.7618  2.6258
  511MOL0     H67421   0.414   4.107   3.118  2.0007 -3.0085 -0.6199
  511MOL0     H67422   0.495   4.011   3.307  0.4932  2.2163  1.6731
  511MOL0     H67423   0.598   4.143   3.364  2.1058 -2.5830  1.0664
  511MOL0     H67424   0.728   4.131   3.140 -1.5569 -1.0621 -1.7460
  511MOL0     H67425   0.761   4.011   3.264 -1.5604 -2.8294 -0.7071
  511MOL0     H67426   0.553   3.892   3.090  0.1488 -2.9910  0.8156
  511MOL0     H67427   0.703   3.840   3.161  0.1120 -1.0463 -0.5683
  511MOL0     H67428   0.679   3.856   2.896 -2.6154  3.0637 -2.6459
  511MOL0     H67429   0.816   3.962   2.957  0.8421 -1.0231 -0.4103
  511MOL0     H67430   0.524   4.062   2.911 -0.8519  1.2428 -3.3160
  511MOL0     H67431   0.660   4.157   2.936 -2.0269  0.0957  1.4252
  511MOL0     H67432   0.635   3.990   2.677 -0.2461 -0.4726  0.4507
  511MOL0     H67433   0.762   4.113   2.732  0.7389 -1.2784 -0.1591
  511MOL0     H67434   0.593   4.600   3.365  0.1368  0.6328 -1.6031
  511MOL0     H67435   0.495   4.824   3.437  2.5977  0.2177 -1.7567
  511MOL0     H67436   0.283   5.150   3.436 -0.7064 -0.5037  1.0003
  511MOL0     H67437   0.266   5.367   3.504  0.4804 -2.0028 -2.6638
  511MOL0     H67438   1.236   6.574   4.460 -2.5808 -1.3260 -4.0720
  511MOL0     H67439   1.280   6.732   4.602 -1.4849  0.6147 -1.6329
  511MOL0     H67440   1.245   7.040   4.934 -1.0243 -0.6289 -0.9504
  511MOL0     H67441   1.271   7.210   5.088  1.9280 -3.0215 -0.7388
  511MOL0     H67442   0.984   7.299   5.404  1.0275  0.5818  0.3372
  511MOL0     H67443   0.900   7.404   5.284 -0.4710  1.1219  2.0114
  511MOL0     H67444   0.983   7.539   5.481 -0.6541  1.3127 -1.1854
  511MOL0     H67445   1.151   7.499   5.428  0.2122  1.5643 -1.5843
  511MOL0     H67446   0.942   7.646   5.265 -0.4145  0.3185  0.0788
  511MOL0     H67447   1.092   7.588   5.201 -4.0202 -1.3085 -0.9423
  511MOL0     H67448   1.108   7.831   5.275  0.9961  1.3773  1.2970
  511MOL0     H67449   1.038   7.785   5.425 -0.7164  1.1823 -1.2292
  511MOL0     H67450   1.453   7.692   5.457  0.6670  0.2741  0.1475
  511MOL0     H67451   0.848   7.217   5.171 -1.7056  0.8943 -3.3441
  511MOL0     H67452   0.811   7.065   4.992  0.3312 -0.0035  0.3541
  512MOL0     O67453   9.056   3.302   5.989 -0.1731 -0.7470  0.4289
  512MOL0     C67454   9.017   3.387   6.065 -0.6631  0.7038  0.2632
  512MOL0     O67455   9.049   3.389   6.196 -0.5191 -0.2826 -0.2004
  512MOL0     C67456   9.115   3.292   6.261  0.5004 -1.4056  0.2463
  512MOL0     C67457   9.052   3.241   6.381  0.9238 -0.2180  0.5133
  512MOL0     C67458   9.085   3.128   6.449 -0.1034 -0.6282  1.3545
  512MOL0     C67459   9.206   3.061   6.397 -0.3313  0.8384  0.1380
  512MOL0     O67460   9.248   2.947   6.465 -0.5187  0.3842 -0.1443
  512MOL0     C67461   9.318   2.841   6.394 -0.0665  0.3978  0.6084
  512MOL0     C67462   9.330   2.710   6.477  0.0266  0.1957 -1.6720
  512MOL0     C67463   9.390   2.598   6.390  0.4111  0.3933 -0.4540
  512MOL0     C67464   9.541   2.594   6.366 -0.4784 -0.2093  0.6779
  512MOL0     C67465   9.579   2.467   6.275  0.4222 -0.1194  0.7634
  512MOL0     C67466   9.730   2.430   6.273  0.8848  0.0895  1.1390
  512MOL0     C67467   9.822   2.537   6.226  0.2597 -0.5914  0.5674
  512MOL0     C67468   9.794   2.595   6.082  0.7928 -0.5134 -0.3935
  512MOL0     N67469   9.677   2.682   6.079 -1.1973 -0.5820 -0.5704
  512MOL0     C67470   9.555   2.665   6.011 -0.3181 -0.3008  1.2071
  512MOL0     C67471   9.500   2.787   6.007  0.2356 -0.5532 -0.2370
  512MOL0     C67472   9.374   2.827   5.933 -1.1669 -0.1524 -0.8417
  512MOL0     C67473   9.257   2.809   6.017  0.4118  0.7067 -0.5843
  512MOL0     C67474   9.131   2.807   5.920 -0.5588  0.0962 -0.7764
  512MOL0     C67475   9.000   2.805   5.997  0.3076 -0.0932 -0.7036
  512MOL0     O67476   8.886   2.764   5.911  0.0295 -0.1237 -0.9963
  512MOL0     C67477   8.811   2.864   5.845 -0.9044  0.3216  0.3999
  512MOL0     C67478   8.826   3.004   5.853 -0.0031  0.0319 -0.7339
  512MOL0     C67479   8.725   3.090   5.799  0.0272 -0.5481  0.1995
  512MOL0     C67480   8.608   3.027   5.737 -0.4028  0.2461 -0.0088
  512MOL0     C67481   8.494   3.117   5.683 -1.7849 -0.1102 -0.3491
  512MOL0     O67482   8.383   3.056   5.634  0.2076  0.9959  0.2157
  512MOL0     C67483   8.274   3.126   5.583  0.0129 -0.5604 -0.4410
  512MOL0     C67484   8.212   3.223   5.663  0.2715  0.2335 -0.4015
  512MOL0     C67485   8.109   3.296   5.616  0.1447 -0.1789  0.0825
  512MOL0     C67486   8.065   3.280   5.478 -0.3078 -0.0084  0.2588
  512MOL0     O67487   7.955   3.347   5.444  0.4146  0.9125  0.8577
  512MOL0     C67488   7.940   3.400   5.302  0.4446  0.3423 -0.3102
  512MOL0     C67489   7.853   3.303   5.221  0.3440 -0.2420  0.3140
  512MOL0     C67490   7.776   3.383   5.122 -0.0323 -0.8081 -0.5994
  512MOL0     C67491   7.685   3.297   5.026  0.0667  0.2267  0.2759
  512MOL0     C67492   7.544   3.363   5.005 -0.3329  0.3310 -0.1997
  512MOL0     C67493   7.561   3.502   4.944 -0.1417  0.1618 -0.8415
  512MOL0     C67494   7.431   3.558   4.894  0.1776 -0.8842 -0.0806
  512MOL0     C67495   7.447   3.710   4.856  0.3766 -0.3601 -0.3389
  512MOL0    Cl67496   7.292   3.774   4.789  0.1207  0.0331  0.0709
  512MOL0     C67497   8.126   3.183   5.403 -0.3395 -0.1896  0.2217
  512MOL0     C67498   8.227   3.111   5.456 -1.2401 -0.0874 -0.0058
  512MOL0     O67499   8.520   3.237   5.673  0.0860 -0.2500  0.2623
  512MOL0     C67500   8.601   2.886   5.724 -1.2597  0.2522  0.3570
  512MOL0     C67501   8.705   2.809   5.771 -0.1965 -0.4329 -0.2496
  512MOL0     N67502   9.577   2.879   6.077  0.5905 -0.3891 -0.5327
  512MOL0     N67503   9.684   2.813   6.125  0.3270 -0.1191 -0.0379
  512MOL0     C67504   9.285   3.115   6.292  0.5569  0.2542 -0.1583
  512MOL0     C67505   9.232   3.228   6.219 -0.1201 -0.0557 -0.8848
  512MOL0     C67506   8.928   3.481   6.008 -0.5538 -0.6855 -0.1890
  512MOL0     C67507   8.860   3.569   6.096 -0.3214  0.2165  0.1845
  512MOL0     C67508   8.783   3.663   6.037  1.1703  0.0227  0.6957
  512MOL0     C67509   8.768   3.680   5.897 -0.1650  0.4282  0.8467
  512MOL0     O67510   8.703   3.772   5.822 -0.0086  0.2155  0.5324
  512MOL0     C67511   8.567   3.730   5.805  0.5268 -0.9218  0.3994
  512MOL0     C67512   8.496   3.791   5.683 -0.3509  0.2284  0.5657
  512MOL0     C67513   8.363   3.713   5.665  0.4261  0.0579 -0.2052
  512MOL0     C67514   8.263   3.789   5.574  0.0479 -1.2495  0.3960
  512MOL0     C67515   8.129   3.732   5.584  0.1951  0.2361  0.7565
  512MOL0     C67516   8.023   3.682   5.591 -0.0520  0.9647 -0.5234
  512MOL0     C67517   8.832   3.587   5.813 -0.7071  0.6836 -0.9604
  512MOL0     C67518   8.906   3.489   5.865  0.4265  0.9496  0.5296
  512MOL0     H67519   8.968   3.293   6.426  2.0296  1.9096  0.2682
  512MOL0     H67520   9.029   3.092   6.534 -1.5999 -1.5218  0.0243
  512MOL0     H67521   9.419   2.876   6.374 -0.2546  1.6616  1.7317
  512MOL0     H67522   9.272   2.827   6.295  1.3932 -0.2612 -0.0003
  512MOL0     H67523   9.233   2.669   6.509 -0.0281 -0.4930 -2.6649
  512MOL0     H67524   9.396   2.715   6.563  1.4960 -2.4189 -2.5466
  512MOL0     H67525   9.334   2.617   6.297  1.4418 -0.0595 -1.1873
  512MOL0     H67526   9.361   2.505   6.440  3.0206  0.0711  0.6232
  512MOL0     H67527   9.568   2.686   6.314 -0.2061  0.9379  2.7384
  512MOL0     H67528   9.585   2.605   6.466 -1.0516  4.3419  0.6407
  512MOL0     H67529   9.536   2.470   6.174  1.8423 -0.9617  0.1037
  512MOL0     H67530   9.533   2.375   6.310  2.4085 -2.2160 -1.6985
  512MOL0     H67531   9.737   2.338   6.215 -0.1275  0.1045  0.9660
  512MOL0     H67532   9.763   2.414   6.376  3.0291  0.5790  0.5688
  512MOL0     H67533   9.819   2.615   6.301  1.7388  1.0689 -1.0013
  512MOL0     H67534   9.925   2.500   6.215 -1.1534 -4.3120 -3.5195
  512MOL0     H67535   9.769   2.509   6.019  5.1439 -0.3293 -2.7280
  512MOL0     H67536   9.888   2.646   6.056  1.2487 -0.9062  0.4550
  512MOL0     H67537   9.509   2.578   5.966 -0.9795  0.0780  1.1238
  512MOL0     H67538   9.368   2.758   5.847  0.2980  1.0668 -1.9912
  512MOL0     H67539   9.379   2.928   5.891  0.6989  0.5160  0.8242
  512MOL0     H67540   9.249   2.882   6.098  0.3164 -0.3303  0.3801
  512MOL0     H67541   9.263   2.718   6.079  3.8402  1.4231  0.3468
  512MOL0     H67542   9.135   2.906   5.874 -0.4465  1.0279  1.1384
  512MOL0     H67543   9.137   2.728   5.845 -0.8270  1.2088 -2.0009
  512MOL0     H67544   8.970   2.901   6.040 -0.7067 -1.3027  1.4977
  512MOL0     H67545   9.014   2.735   6.081 -0.3645 -0.2698 -0.7295
  512MOL0     H67546   8.903   3.045   5.917  0.0967  0.0652 -0.8753
  512MOL0     H67547   8.756   3.193   5.811  0.9175 -0.6232 -1.2191
  512MOL0     H67548   8.232   3.230   5.769 -2.0747  2.5378 -0.0001
  512MOL0     H67549   8.048   3.360   5.678 -0.8177 -1.5736  0.6195
  512MOL0     H67550   8.037   3.429   5.260 -0.6981  2.8083 -1.4240
  512MOL0     H67551   7.887   3.495   5.314 -2.5189 -1.4212  1.9437
  512MOL0     H67552   7.777   3.254   5.283  1.0528 -4.5582 -1.8157
  512MOL0     H67553   7.918   3.222   5.185  1.5938  0.5909  0.6066
  512MOL0     H67554   7.844   3.442   5.060 -1.5654  1.0685 -0.6025
  512MOL0     H67555   7.715   3.453   5.179 -0.1239  0.2902 -1.9866
  512MOL0     H67556   7.715   3.298   4.921 -4.4879  2.0115 -1.2416
  512MOL0     H67557   7.675   3.196   5.067  1.9390 -0.3892 -0.6548
  512MOL0     H67558   7.485   3.361   5.098 -0.1277  1.3045 -0.0405
  512MOL0     H67559   7.488   3.299   4.936  0.2569  0.3946 -0.7465
  512MOL0     H67560   7.637   3.508   4.865 -0.0366  1.6685 -0.6408
  512MOL0     H67561   7.601   3.565   5.023 -0.1215 -0.7305 -0.1309
  512MOL0     H67562   7.397   3.501   4.806  0.9910 -2.1009  0.3672
  512MOL0     H67563   7.359   3.545   4.975  1.7689 -3.6189  1.0311
  512MOL0     H67564   7.520   3.718   4.776 -0.4149 -1.5891 -1.2159
  512MOL0     H67565   7.475   3.763   4.948  1.0998 -2.6419  0.8428
  512MOL0     H67566   8.098   3.167   5.300 -0.9685  0.6864  0.2429
  512MOL0     H67567   8.279   3.043   5.389 -1.5804 -0.6288  0.2728
  512MOL0     H67568   8.511   2.839   5.687  0.9124 -1.4163 -3.4418
  512MOL0     H67569   8.685   2.702   5.762  0.1405 -0.3576 -2.6004
  512MOL0     H67570   9.379   3.077   6.251  0.5651  2.1346 -2.0555
  512MOL0     H67571   9.280   3.261   6.128 -0.9829  2.9913 -0.3547
  512MOL0     H67572   8.874   3.563   6.204 -2.0093  1.4213  0.5180
  512MOL0     H67573   8.721   3.728   6.098 -0.4016 -2.6501  2.1304
  512MOL0     H67574   8.501   3.762   5.887 -1.6252 -0.0149 -1.5983
  512MOL0     H67575   8.558   3.622   5.813  0.7530 -0.8113  3.2687
  512MOL0     H67576   8.477   3.887   5.731  0.7341 -0.7190  3.1156
  512MOL0     H67577   8.554   3.807   5.592 -1.4182 -0.6736 -0.2995
  512MOL0     H67578   8.321   3.694   5.764  1.8225 -0.9178  0.2402
  512MOL0     H67579   8.376   3.621   5.607  1.2652  1.0335 -1.6022
  512MOL0     H67580   8.262   3.893   5.608 -2.5928 -0.6972 -1.0975
  512MOL0     H67581   8.286   3.793   5.467 -2.5505 -1.6753 -0.2353
  512MOL0     H67582   7.939   3.615   5.594  2.3510 -2.2695  0.0367
  512MOL0     H67583   8.808   3.580   5.707 -0.4887 -3.5450 -0.8990
  512MOL0     H67584   8.947   3.421   5.791  0.6795  2.1183 -0.4171
  513MOL0     O67585   3.394  10.881  10.046 -0.2568 -0.3388 -0.4016
  513MOL0     C67586   3.272  10.890  10.073 -0.0586 -0.2281  0.2914
  513MOL0     O67587   3.182  10.789  10.060 -0.2851  0.4018  1.0488
  513MOL0     C67588   3.214  10.675   9.979 -0.3436  0.2769 -0.6053
  513MOL0     C67589   3.198  10.560  10.048 -0.8460  0.0276  0.8787
  513MOL0     C67590   3.215  10.436   9.973  0.0136 -0.9791  0.0598
  513MOL0     C67591   3.260  10.425   9.836  0.1709 -0.4249  0.4911
  513MOL0     O67592   3.294  10.305   9.767 -0.0507  0.0388  0.7291
  513MOL0     C67593   3.345  10.302   9.632  0.2817  0.7109  0.0240
  513MOL0     C67594   3.494  10.333   9.602  0.2314 -0.6576 -0.7130
  513MOL0     C67595   3.585  10.335   9.724 -0.7115 -0.3043  0.1175
  513MOL0     C67596   3.721  10.398   9.685 -0.0525 -0.3957 -0.2641
  513MOL0     C67597   3.827  10.405   9.792 -0.1958  0.6739 -0.3210
  513MOL0     C67598   3.903  10.280   9.841  0.7134 -0.3888 -0.2543
  513MOL0     C67599   4.008  10.312   9.946  0.3443  0.9999  0.1239
  513MOL0     C67600   4.073  10.189  10.018 -0.8278 -1.1411  0.3587
  513MOL0     N67601   3.989  10.147  10.129  0.8120  0.1312 -0.1359
  513MOL0     C67602   3.929  10.033  10.126  0.4785  0.7906  0.3384
  513MOL0     C67603   3.872  10.017  10.254 -0.5089  0.0783 -0.4885
  513MOL0     C67604   3.793   9.895  10.300 -0.3364 -0.4662 -0.0251
  513MOL0     C67605   3.879   9.769  10.288 -0.2085  0.0085 -0.5627
  513MOL0     C67606   3.772   9.660  10.276  0.0407 -0.3088  0.5182
  513MOL0     C67607   3.820   9.523  10.232  0.6187 -0.6012  0.6709
  513MOL0     O67608   3.870   9.534  10.095 -0.0841  0.4247  0.2256
  513MOL0     C67609   3.799   9.486   9.990  0.7741 -0.0514  0.7378
  513MOL0     C67610   3.655   9.489   9.978 -0.7686  0.0895 -0.4476
  513MOL0     C67611   3.596   9.419   9.867 -0.1922 -0.6093  0.0332
  513MOL0     C67612   3.678   9.375   9.760  0.0402 -0.0010  0.1046
  513MOL0     C67613   3.620   9.322   9.631 -0.5536  0.9889 -0.6852
  513MOL0     O67614   3.695   9.217   9.575  0.7556  0.4112 -0.6629
  513MOL0     C67615   3.631   9.118   9.508 -1.1913  0.4316  0.4989
  513MOL0     C67616   3.696   9.082   9.396  0.3114  0.1227  0.5456
  513MOL0     C67617   3.659   8.969   9.331  0.5724  0.0475 -0.4827
  513MOL0     C67618   3.538   8.906   9.353  0.1699  0.8950  1.0023
  513MOL0     O67619   3.517   8.784   9.290 -0.5106  0.2254 -0.5994
  513MOL0     C67620   3.385   8.731   9.292 -0.1892 -1.2106 -0.6360
  513MOL0     C67621   3.355   8.629   9.185  0.2649 -0.8618 -0.4753
  513MOL0     C67622   3.454   8.513   9.180 -0.4364  0.5831 -0.2290
  513MOL0     C67623   3.445   8.451   9.036 -0.3632  0.4494 -0.7344
  513MOL0     C67624   3.518   8.320   9.032  0.2646  0.3577 -0.3136
  513MOL0     C67625   3.671   8.321   9.026 -0.1485 -0.1649  0.1949
  513MOL0     C67626   3.734   8.174   9.036 -0.0338  0.1687 -0.3823
  513MOL0     C67627   3.881   8.185   9.087 -0.5413 -0.0221 -0.6602
  513MOL0    Cl67628   3.941   8.020   9.117 -0.8088 -0.1434 -0.2062
  513MOL0     C67629   3.462   8.955   9.469  0.2964  1.1938 -0.1488
  513MOL0     C67630   3.511   9.059   9.544  0.3773  0.8390 -0.0474
  513MOL0     O67631   3.506   9.346   9.607  0.4428  0.3265 -0.3869
  513MOL0     C67632   3.816   9.385   9.775 -0.3547 -0.6141  0.0694
  513MOL0     C67633   3.871   9.443   9.886  0.6701  0.8110  0.1487
  513MOL0     N67634   3.920  10.115  10.330  0.7359 -0.2471  0.0297
  513MOL0     N67635   3.986  10.202  10.252 -1.0247 -0.0093  0.4012
  513MOL0     C67636   3.271  10.550   9.770  0.5193 -0.2163  0.3363
  513MOL0     C67637   3.258  10.671   9.845 -0.5968 -0.1877  0.1485
  513MOL0     C67638   3.211  11.019  10.106 -0.5306 -0.6269  0.2600
  513MOL0     C67639   3.081  11.052  10.081 -1.0108  0.2054  0.6911
  513MOL0     C67640   3.042  11.184  10.109  0.2049 -0.7049  0.3056
  513MOL0     C67641   3.122  11.280  10.158 -0.7787 -0.9656 -0.4431
  513MOL0     O67642   3.093  11.407  10.191  0.2136 -0.4284 -0.2911
  513MOL0     C67643   2.958  11.437  10.228  0.5745  0.8442  0.5798
  513MOL0     C67644   2.957  11.582  10.263 -0.1279  0.6610 -0.4180
  513MOL0     C67645   2.864  11.623  10.375  1.1387 -0.6237  0.0983
  513MOL0     C67646   2.727  11.570  10.353 -0.1215  0.1135 -0.3386
  513MOL0     C67647   2.650  11.627  10.243  0.2252 -0.2328 -0.7669
  513MOL0     C67648   2.580  11.677  10.161  0.1631  0.3093 -0.3354
  513MOL0     C67649   3.249  11.234  10.177 -0.3312 -0.6563  0.3782
  513MOL0     C67650   3.299  11.114  10.147 -0.6786 -0.5501  0.0058
  513MOL0     H67651   3.154  10.555  10.148  0.0690 -1.1546  1.2424
  513MOL0     H67652   3.195  10.348  10.034  0.8870 -0.4013  1.2190
  513MOL0     H67653   3.276  10.360   9.570 -1.3498 -0.1811  0.9414
  513MOL0     H67654   3.347  10.198   9.599  0.4877  1.1585 -1.4496
  513MOL0     H67655   3.479  10.437   9.571 -0.8489 -0.9692 -1.2976
  513MOL0     H67656   3.541  10.273   9.523  2.4938  1.5770 -1.1967
  513MOL0     H67657   3.604  10.231   9.753  4.0230  0.0773 -0.8200
  513MOL0     H67658   3.545  10.401   9.801  2.2382  1.8197 -0.0203
  513MOL0     H67659   3.754  10.346   9.595 -0.1455 -2.7443  0.9964
  513MOL0     H67660   3.708  10.505   9.663  0.4388 -0.1102  0.7767
  513MOL0     H67661   3.776  10.447   9.879 -0.9674 -0.2622 -0.3036
  513MOL0     H67662   3.897  10.480   9.753  0.0421 -0.8877 -3.2385
  513MOL0     H67663   3.943  10.230   9.752  1.0740  3.5329 -2.5398
  513MOL0     H67664   3.827  10.217   9.887  2.0490  0.1737  3.0149
  513MOL0     H67665   4.096  10.356   9.897  2.1329 -0.8687  1.4598
  513MOL0     H67666   3.967  10.379  10.023 -2.4490  0.5238 -0.8473
  513MOL0     H67667   4.166  10.229  10.060 -2.3046  2.1836  0.7913
  513MOL0     H67668   4.095  10.112   9.944 -1.6368  0.0665 -1.2043
  513MOL0     H67669   3.919   9.967  10.040  0.7291  1.8263 -0.5126
  513MOL0     H67670   3.701   9.897  10.242  0.9292  2.2075 -2.1240
  513MOL0     H67671   3.772   9.906  10.407  0.9900 -0.1753  0.2218
  513MOL0     H67672   3.939   9.742  10.375 -2.2498  1.3422  1.3997
  513MOL0     H67673   3.938   9.772  10.196 -0.7418 -0.4783 -0.9313
  513MOL0     H67674   3.719   9.643  10.371 -0.1884 -4.0372 -0.1434
  513MOL0     H67675   3.700   9.694  10.201 -0.9937 -1.9851  0.6827
  513MOL0     H67676   3.732   9.458  10.235 -0.0865  0.3381  0.9299
  513MOL0     H67677   3.897   9.482  10.298  1.3214 -0.3512  0.0300
  513MOL0     H67678   3.592   9.538  10.051 -1.5971 -2.7841  0.9422
  513MOL0     H67679   3.489   9.416   9.848 -0.6495  0.3742  2.1842
  513MOL0     H67680   3.794   9.114   9.363  1.1230 -0.4051  2.3182
  513MOL0     H67681   3.727   8.919   9.262 -0.5076 -1.8839 -0.2261
  513MOL0     H67682   3.317   8.813   9.268  0.1852 -0.1471  1.6387
  513MOL0     H67683   3.356   8.698   9.392 -1.2116  0.2175 -0.4411
  513MOL0     H67684   3.359   8.687   9.092 -2.0091  2.6206  1.3596
  513MOL0     H67685   3.254   8.595   9.209  0.6481 -0.5760  1.7855
  513MOL0     H67686   3.419   8.433   9.246 -2.1331  1.6217  0.1916
  513MOL0     H67687   3.556   8.549   9.194  2.2647 -5.0048 -2.4525
  513MOL0     H67688   3.336   8.439   9.026 -0.7906 -1.4049  3.7582
  513MOL0     H67689   3.484   8.516   8.957 -1.0832  4.2902  1.8111
  513MOL0     H67690   3.480   8.268   8.944 -0.5090  0.9628 -0.3550
  513MOL0     H67691   3.488   8.265   9.122  1.6925  0.0653  0.0115
  513MOL0     H67692   3.711   8.383   9.106  0.8967 -0.9899  0.3360
  513MOL0     H67693   3.701   8.375   8.936  0.3530 -2.2562 -0.9508
  513MOL0     H67694   3.676   8.127   9.116  1.1962  0.6340  0.8115
  513MOL0     H67695   3.715   8.119   8.943 -0.3459  1.0255 -0.8408
  513MOL0     H67696   3.884   8.242   9.180  1.0911 -1.0135 -0.0573
  513MOL0     H67697   3.944   8.227   9.008  1.1573 -0.5908  0.3237
  513MOL0     H67698   3.369   8.910   9.502  0.4642  1.8860  1.3512
  513MOL0     H67699   3.445   9.093   9.623 -2.2504 -1.2045 -1.2018
  513MOL0     H67700   3.880   9.357   9.691 -0.9956 -0.6136 -0.4303
  513MOL0     H67701   3.979   9.455   9.894  0.6385  0.6665  0.8594
  513MOL0     H67702   3.286  10.549   9.663 -1.3321 -0.1985  0.0430
  513MOL0     H67703   3.254  10.766   9.793  3.2179  0.9786  1.6221
  513MOL0     H67704   3.027  10.972  10.032  0.5851  0.3746 -1.4992
  513MOL0     H67705   2.939  11.200  10.079  1.3964  5.0189 -2.2107
  513MOL0     H67706   2.932  11.376  10.316  0.9460  0.2636  0.2903
  513MOL0     H67707   2.891  11.420  10.143 -1.2398  1.5928  1.7961
  513MOL0     H67708   3.057  11.615  10.292  0.4150 -0.5779 -0.8110
  513MOL0     H67709   2.923  11.637  10.175 -0.0936  0.9162 -0.2704
  513MOL0     H67710   2.856  11.732  10.379  1.4012 -0.6148  0.3242
  513MOL0     H67711   2.909  11.594  10.470 -0.5038 -1.8162  0.5542
  513MOL0     H67712   2.732  11.461  10.342 -2.8690 -0.0318 -0.9117
  513MOL0     H67713   2.666  11.586  10.442  1.3475 -1.0076  0.9253
  513MOL0     H67714   2.513  11.736  10.101 -0.0499 -0.9921 -1.4137
  513MOL0     H67715   3.324  11.302  10.216 -3.1607  1.7933  1.8987
  513MOL0     H67716   3.406  11.102  10.162 -0.7763  0.0366  1.3335
  514MOL0     O67717   1.161   0.415   0.529  0.4700  0.9586  0.0421
  514MOL0     C67718   1.108   0.330   0.606 -0.4374 -0.6111  0.7952
  514MOL0     O67719   1.005   0.252   0.586 -0.1468 -0.2584 -0.4828
  514MOL0     C67720   0.902   0.286   0.514 -0.1888 -0.0604  0.3935
  514MOL0     C67721   0.891   0.390   0.421  0.5490 -0.7656 -0.1839
  514MOL0     C67722   0.773   0.399   0.346 -0.1774  0.0251  0.3769
  514MOL0     C67723   0.663   0.304   0.374 -0.6021 -0.4145 -0.3838
  514MOL0     O67724   0.545   0.325   0.312  0.1083 -0.5190  0.3693
  514MOL0     C67725   0.477   0.443   0.331  0.2278  0.7126 -0.1794
  514MOL0     C67726   0.368   0.455   0.219  1.0307  0.0939  0.2541
  514MOL0     C67727   0.413   0.556   0.106  0.4303 -0.4050 -0.7055
  514MOL0     C67728   0.322   0.530  -0.015 -0.3302 -0.6492 -0.2677
  514MOL0     C67729   0.313   0.654  -0.110 -0.2129 -0.5627  1.3545
  514MOL0     C67730   0.214   0.641  -0.227 -0.2707 -0.3693  0.0118
  514MOL0     C67731   0.268   0.554  -0.338 -0.0678  0.2703  1.4230
  514MOL0     C67732   0.156   0.538  -0.442 -0.7304 -0.5038 -0.0836
  514MOL0     N67733   0.191   0.426  -0.535  0.0291 -0.0114 -0.6793
  514MOL0     C67734   0.311   0.412  -0.603  0.3363  0.1692 -0.1334
  514MOL0     C67735   0.286   0.301  -0.669 -0.1263 -0.1318  0.2538
  514MOL0     C67736   0.369   0.240  -0.783  0.2592 -0.5545  0.6359
  514MOL0     C67737   0.500   0.176  -0.734  0.4790 -0.9147  0.4917
  514MOL0     C67738   0.605   0.280  -0.686 -0.5686 -0.0340 -1.1448
  514MOL0     C67739   0.745   0.211  -0.677 -0.1298  0.4888 -0.1750
  514MOL0     O67740   0.742   0.120  -0.568  0.6153  0.0304  0.1236
  514MOL0     C67741   0.843   0.047  -0.530  0.7719  0.2388  0.1853
  514MOL0     C67742   0.821  -0.038  -0.423 -0.1948 -0.2978  0.5013
  514MOL0     C67743   0.910  -0.134  -0.389 -0.9994 -0.0013  0.7759
  514MOL0     C67744   1.040  -0.140  -0.446 -0.0010  0.2101 -0.3955
  514MOL0     C67745   1.138  -0.237  -0.407 -0.4941  0.0553  0.7213
  514MOL0     O67746   1.249  -0.225  -0.480  0.0621 -0.5836 -0.7672
  514MOL0     C67747   1.346  -0.318  -0.450 -0.5873 -0.1506  0.1592
  514MOL0     C67748   1.349  -0.439  -0.503  0.6015  0.2293 -0.5474
  514MOL0     C67749   1.461  -0.524  -0.481 -0.0017 -0.9617 -0.5554
  514MOL0     C67750   1.568  -0.484  -0.394 -0.3133 -0.2849 -0.1270
  514MOL0     O67751   1.679  -0.562  -0.392 -0.7781 -0.1108  0.8010
  514MOL0     C67752   1.754  -0.557  -0.263  0.1803  0.6832 -0.2968
  514MOL0     C67753   1.743  -0.690  -0.194  0.0720  0.3658  0.1798
  514MOL0     C67754   1.827  -0.720  -0.071  0.7701 -0.3007  0.2401
  514MOL0     C67755   1.970  -0.721  -0.123 -0.7603  0.1077  0.1564
  514MOL0     C67756   2.061  -0.756  -0.014  0.0320  0.4487 -0.5885
  514MOL0     C67757   2.204  -0.785  -0.072  0.3225  0.5695  0.7233
  514MOL0     C67758   2.295  -0.660  -0.031  0.0128 -0.0720 -0.3390
  514MOL0     C67759   2.415  -0.639  -0.134  0.8183  0.4951 -1.0934
  514MOL0    Cl67760   2.349  -0.578  -0.290  0.3344 -0.0781 -0.0905
  514MOL0     C67761   1.560  -0.356  -0.341  0.4572 -0.3135 -0.0461
  514MOL0     C67762   1.452  -0.274  -0.374  0.0058 -0.5359 -0.8174
  514MOL0     O67763   1.111  -0.319  -0.321  0.7473  0.2345 -0.1535
  514MOL0     C67764   1.066  -0.049  -0.558 -0.8217  0.1229 -0.3037
  514MOL0     C67765   0.969   0.043  -0.593 -0.2484  0.3636  0.3070
  514MOL0     N67766   0.162   0.250  -0.635 -0.6177  0.9877 -0.2726
  514MOL0     N67767   0.102   0.327  -0.560 -0.4883  0.7177 -0.6261
  514MOL0     C67768   0.681   0.202   0.462  0.2992  0.2862  0.7394
  514MOL0     C67769   0.795   0.198   0.531 -0.0196  0.5858  0.6965
  514MOL0     C67770   1.192   0.303   0.718  0.2476  0.3594  0.6647
  514MOL0     C67771   1.330   0.328   0.717  0.9848  0.3803 -1.2608
  514MOL0     C67772   1.416   0.301   0.831 -0.0279 -0.1197  0.3725
  514MOL0     C67773   1.355   0.251   0.945 -0.7052  0.4973  0.1308
  514MOL0     O67774   1.424   0.219   1.058 -0.8734 -0.0769  0.7656
  514MOL0     C67775   1.571   0.221   1.070 -0.0501  0.7388  0.0699
  514MOL0     C67776   1.614   0.340   1.158  0.0255 -0.1961  0.1698
  514MOL0     C67777   1.752   0.375   1.131 -0.3124 -0.6620  0.1929
  514MOL0     C67778   1.797   0.496   1.211  1.3067 -0.7670 -0.1821
  514MOL0     C67779   1.705   0.619   1.211 -0.6214  0.2936 -0.4817
  514MOL0     C67780   1.634   0.718   1.200 -0.2993  0.4511  0.1827
  514MOL0     C67781   1.216   0.215   0.938  0.8222 -0.0211 -0.3255
  514MOL0     C67782   1.140   0.230   0.828 -0.3111 -0.5995  0.6187
  514MOL0     H67783   0.965   0.467   0.403  0.1160 -0.5713 -1.2494
  514MOL0     H67784   0.766   0.483   0.277 -0.6199 -2.1648 -2.4185
  514MOL0     H67785   0.548   0.525   0.319 -0.9856  1.5980 -1.7340
  514MOL0     H67786   0.429   0.441   0.430  0.0251  1.3062 -0.2635
  514MOL0     H67787   0.270   0.475   0.264  1.3677  0.8752  0.6448
  514MOL0     H67788   0.351   0.357   0.174  1.1882 -0.6716  1.7968
  514MOL0     H67789   0.520   0.542   0.085  0.3922 -1.3248 -0.3400
  514MOL0     H67790   0.401   0.657   0.144  0.8299 -0.8157  0.5761
  514MOL0     H67791   0.367   0.449  -0.074  0.5443  1.2630 -2.3859
  514MOL0     H67792   0.222   0.492   0.007 -0.4069 -1.4971 -1.8805
  514MOL0     H67793   0.414   0.679  -0.144 -1.1498  3.0275  0.8651
  514MOL0     H67794   0.275   0.729  -0.040 -0.9435 -0.0626  0.4466
  514MOL0     H67795   0.185   0.741  -0.261  1.0110 -0.0711 -0.2667
  514MOL0     H67796   0.120   0.597  -0.194 -0.6161  0.8324  0.7051
  514MOL0     H67797   0.358   0.598  -0.383 -1.9506 -0.2087 -3.4173
  514MOL0     H67798   0.290   0.457  -0.293 -1.9379  0.4426  2.8272
  514MOL0     H67799   0.154   0.629  -0.503  0.8974 -0.6559 -0.4315
  514MOL0     H67800   0.065   0.512  -0.388 -1.1957 -3.9308 -2.1865
  514MOL0     H67801   0.399   0.474  -0.613  0.3633 -0.2630 -4.0216
  514MOL0     H67802   0.379   0.320  -0.858  2.1547 -0.9429  0.4182
  514MOL0     H67803   0.310   0.159  -0.827 -0.1904 -0.2973  0.7552
  514MOL0     H67804   0.553   0.149  -0.826 -0.2913  1.9472 -0.9196
  514MOL0     H67805   0.476   0.093  -0.666 -0.5463  0.8484  2.4286
  514MOL0     H67806   0.605   0.374  -0.742 -1.3022  0.5191 -0.2509
  514MOL0     H67807   0.583   0.299  -0.580  0.4429 -4.6216  0.0999
  514MOL0     H67808   0.819   0.290  -0.659 -1.0103  1.4297 -0.6125
  514MOL0     H67809   0.780   0.157  -0.765 -0.5222  2.6881 -1.7646
  514MOL0     H67810   0.717  -0.033  -0.390 -0.5548  0.6306 -0.7124
  514MOL0     H67811   0.878  -0.206  -0.313  1.3258 -0.7487  1.1383
  514MOL0     H67812   1.278  -0.481  -0.573  2.6074 -4.7233 -0.0400
  514MOL0     H67813   1.456  -0.622  -0.528  2.3664 -1.1850 -0.4567
  514MOL0     H67814   1.723  -0.481  -0.190 -3.3224 -2.5612  1.9637
  514MOL0     H67815   1.859  -0.531  -0.281  0.0490  1.5300  0.1086
  514MOL0     H67816   1.763  -0.769  -0.267 -2.7427 -0.8297  0.5659
  514MOL0     H67817   1.639  -0.702  -0.162 -0.3726 -2.1310 -1.8826
  514MOL0     H67818   1.800  -0.818  -0.031  1.4836 -0.5402  0.1558
  514MOL0     H67819   1.805  -0.647   0.007 -3.3547 -1.2270  0.1895
  514MOL0     H67820   1.993  -0.798  -0.197  2.3579 -0.2620  1.3470
  514MOL0     H67821   2.000  -0.626  -0.170 -2.1419 -0.6306 -2.4102
  514MOL0     H67822   2.020  -0.847   0.031  0.9493 -1.4934 -3.3627
  514MOL0     H67823   2.058  -0.676   0.060  0.9710  0.7696 -0.8897
  514MOL0     H67824   2.192  -0.818  -0.176  2.4259 -2.0708  1.2052
  514MOL0     H67825   2.251  -0.875  -0.031 -0.4560  0.7498  2.0536
  514MOL0     H67826   2.235  -0.569  -0.018 -2.2947 -1.5045 -0.2754
  514MOL0     H67827   2.349  -0.693   0.057 -1.4936 -3.9514 -0.6580
  514MOL0     H67828   2.465  -0.734  -0.150  0.7915  0.0744  0.9826
  514MOL0     H67829   2.494  -0.579  -0.087 -0.7708 -0.0309  2.6044
  514MOL0     H67830   1.647  -0.303  -0.303  1.3998 -1.6962 -0.1786
  514MOL0     H67831   1.440  -0.173  -0.337  0.0416 -1.5707  2.3236
  514MOL0     H67832   1.155  -0.059  -0.619 -0.6187  0.4051 -0.0571
  514MOL0     H67833   0.992   0.113  -0.673 -0.0633  1.2115  1.0863
  514MOL0     H67834   0.610   0.124   0.485  1.2575 -1.1952 -1.0905
  514MOL0     H67835   0.812   0.122   0.606  0.4991 -0.8617 -0.8348
  514MOL0     H67836   1.397   0.380   0.650  0.4818  1.8920 -0.6240
  514MOL0     H67837   1.522   0.327   0.839 -0.5496  1.5977  2.5883
  514MOL0     H67838   1.621   0.231   0.973  0.9014  0.9996  0.5773
  514MOL0     H67839   1.593   0.121   1.109 -0.9564  0.2663 -0.5932
  514MOL0     H67840   1.549   0.426   1.135  0.3174  1.0535  3.5498
  514MOL0     H67841   1.594   0.308   1.260 -1.6395  0.8623  0.2295
  514MOL0     H67842   1.775   0.385   1.025 -0.5185 -0.7055  0.1444
  514MOL0     H67843   1.815   0.294   1.168 -0.5025 -1.3614 -0.9667
  514MOL0     H67844   1.821   0.472   1.315  1.7158 -2.3467 -0.6098
  514MOL0     H67845   1.888   0.542   1.170 -0.7825  4.5203  0.2699
  514MOL0     H67846   1.561   0.793   1.182  0.8903  1.8467  0.9570
  514MOL0     H67847   1.180   0.155   1.021 -0.5113  1.4553  0.2162
  514MOL0     H67848   1.035   0.204   0.836 -1.0113  2.1757  1.5651
  515MOL0     O67849  10.284   7.327   9.078 -0.0139 -0.0554  0.7360
  515MOL0     C67850  10.231   7.300   9.186  0.7545 -0.4367 -0.4018
  515MOL0     O67851  10.090   7.276   9.196  0.7914  1.0442 -0.6468
  515MOL0     C67852  10.010   7.275   9.088 -0.2585  0.5051 -0.8910
  515MOL0     C67853   9.998   7.153   9.014 -0.0253  0.2057 -0.0578
  515MOL0     C67854   9.909   7.148   8.908  0.3877  0.3605  0.4643
  515MOL0     C67855   9.825   7.247   8.880  0.7636  0.0204 -0.7459
  515MOL0     O67856   9.744   7.249   8.769  0.4581 -0.7315 -0.0145
  515MOL0     C67857   9.703   7.125   8.715 -0.4259  0.7707 -0.2782
  515MOL0     C67858   9.563   7.148   8.648  0.1871 -0.7510  0.4712
  515MOL0     C67859   9.508   7.026   8.575 -0.5290 -0.4950 -0.0383
  515MOL0     C67860   9.590   6.969   8.466  0.0339 -0.2984  0.4237
  515MOL0     C67861   9.541   6.840   8.406  0.5443 -0.4250  0.2625
  515MOL0     C67862   9.426   6.864   8.303  1.0609  0.4528 -0.9371
  515MOL0     C67863   9.411   6.737   8.226 -0.4774  0.1278 -0.3490
  515MOL0     C67864   9.305   6.641   8.271  0.7180  0.7577  0.5364
  515MOL0     N67865   9.358   6.506   8.233  0.1873 -1.2670 -0.2559
  515MOL0     C67866   9.415   6.427   8.324  0.0529 -0.8028 -0.1748
  515MOL0     C67867   9.481   6.331   8.254  0.3706 -0.0950 -0.3012
  515MOL0     C67868   9.571   6.224   8.306  0.7044  0.3717  1.0671
  515MOL0     C67869   9.478   6.107   8.358  0.7659 -0.2847 -0.2973
  515MOL0     C67870   9.555   5.984   8.398  1.1167  0.6580 -0.3115
  515MOL0     C67871   9.469   5.884   8.479  0.8057  0.5037 -0.2673
  515MOL0     O67872   9.347   5.869   8.403 -0.5522 -0.8556 -0.4112
  515MOL0     C67873   9.248   5.786   8.459 -0.3455  0.4887  0.4484
  515MOL0     C67874   9.252   5.727   8.586  0.4181 -0.6185 -0.3799
  515MOL0     C67875   9.141   5.642   8.628  0.2408  0.0664  0.2841
  515MOL0     C67876   9.026   5.619   8.552  0.0757  0.1048 -1.3603
  515MOL0     C67877   8.907   5.540   8.604 -0.5289 -0.2902  0.0111
  515MOL0     O67878   8.882   5.540   8.738  0.6801 -0.1534  0.0129
  515MOL0     C67879   8.790   5.441   8.796  0.2632 -1.1740 -0.3517
  515MOL0     C67880   8.650   5.444   8.778 -0.7085 -0.2253 -0.4140
  515MOL0     C67881   8.571   5.356   8.853  0.0442 -0.1746  0.6373
  515MOL0     C67882   8.625   5.289   8.966  0.4235 -0.3490  0.6665
  515MOL0     O67883   8.541   5.218   9.039  0.3423 -0.0237 -0.3387
  515MOL0     C67884   8.573   5.176   9.178  0.1374 -0.3466  0.5106
  515MOL0     C67885   8.446   5.149   9.254 -0.3134  0.4436 -0.0003
  515MOL0     C67886   8.392   5.012   9.237  0.0311  0.2755 -0.1611
  515MOL0     C67887   8.352   4.984   9.090  0.6266 -0.0004  0.0463
  515MOL0     C67888   8.242   4.878   9.084  0.4390  0.5044 -0.1910
  515MOL0     C67889   8.223   4.810   8.953 -0.9173  0.4517  0.4894
  515MOL0     C67890   8.118   4.699   8.974 -0.3851 -0.5478  0.6911
  515MOL0     C67891   8.174   4.571   8.903 -0.2175  0.3135 -0.2316
  515MOL0    Cl67892   8.241   4.481   9.040 -0.5797 -0.4402 -0.4574
  515MOL0     C67893   8.762   5.272   8.967 -0.0125 -0.3302  0.8274
  515MOL0     C67894   8.844   5.363   8.892 -1.2403  0.5414  0.2840
  515MOL0     O67895   8.834   5.493   8.521 -0.1848 -0.1081 -0.2118
  515MOL0     C67896   9.032   5.667   8.421 -0.0152  0.5382 -0.3424
  515MOL0     C67897   9.134   5.750   8.374  0.3386  0.2565  0.0996
  515MOL0     N67898   9.440   6.351   8.121 -0.2157  0.9206  0.1924
  515MOL0     N67899   9.375   6.456   8.110 -0.6216 -0.6455  0.0606
  515MOL0     C67900   9.835   7.367   8.944 -0.8140  0.0999 -1.1522
  515MOL0     C67901   9.929   7.377   9.055  0.2814 -0.9595 -0.2399
  515MOL0     C67902  10.325   7.260   9.287 -0.2708 -0.3197  0.2051
  515MOL0     C67903  10.461   7.298   9.287  0.8857 -0.5986 -0.9976
  515MOL0     C67904  10.551   7.267   9.387  0.1071  0.1226 -0.3222
  515MOL0     C67905  10.512   7.188   9.495 -0.7800  0.1742  0.5476
  515MOL0     O67906  10.606   7.184   9.600 -0.1435  0.6320 -0.0220
  515MOL0     C67907  10.610   7.064   9.683 -0.2959  0.4235 -0.4751
  515MOL0     C67908  10.646   7.121   9.824  0.3146 -0.5032  0.1659
  515MOL0     C67909  10.535   7.201   9.887  0.2397 -0.2869 -1.0562
  515MOL0     C67910  10.550   7.210  10.044 -0.3181  0.2177  0.2586
  515MOL0     C67911  10.445   7.296  10.095 -0.8845 -0.2925  0.5057
  515MOL0     C67912  10.357   7.365  10.143 -0.3204 -0.5119 -0.2208
  515MOL0     C67913  10.377   7.152   9.510  0.4645  0.4000  0.8135
  515MOL0     C67914  10.290   7.176   9.399 -0.5695 -0.2505 -0.3658
  515MOL0     H67915  10.067   7.074   9.043 -0.0564  0.6674  1.3549
  515MOL0     H67916   9.898   7.047   8.870  2.2924  0.3374 -0.1334
  515MOL0     H67917   9.689   7.050   8.794 -1.4550 -0.8260 -1.8986
  515MOL0     H67918   9.778   7.085   8.647 -0.2253 -0.8911  0.8542
  515MOL0     H67919   9.568   7.240   8.589  0.2663 -0.6833  0.5826
  515MOL0     H67920   9.494   7.163   8.732 -1.2609 -0.7929 -0.6746
  515MOL0     H67921   9.407   7.051   8.541 -0.6294  1.8729  1.7446
  515MOL0     H67922   9.506   6.943   8.646  4.9732 -0.4764  0.5866
  515MOL0     H67923   9.603   7.052   8.396  0.1628 -0.1404  0.6323
  515MOL0     H67924   9.688   6.953   8.510 -0.8679  1.2994  3.3108
  515MOL0     H67925   9.522   6.761   8.480 -0.4477 -0.1856  0.2660
  515MOL0     H67926   9.616   6.794   8.340 -2.2327 -0.9962 -2.7504
  515MOL0     H67927   9.453   6.949   8.240 -0.0499  0.2446 -1.7129
  515MOL0     H67928   9.336   6.899   8.356  0.6116  0.4837 -1.7050
  515MOL0     H67929   9.382   6.763   8.124  0.0623 -1.4397 -0.9387
  515MOL0     H67930   9.511   6.693   8.222  0.5561  2.4431 -1.1291
  515MOL0     H67931   9.207   6.678   8.237  1.5483  3.8533  1.2036
  515MOL0     H67932   9.307   6.645   8.381 -1.7778 -1.6105  0.7786
  515MOL0     H67933   9.406   6.444   8.430  0.3030  0.8497 -0.3897
  515MOL0     H67934   9.628   6.262   8.391  2.7607 -1.3556  0.5450
  515MOL0     H67935   9.636   6.192   8.224 -2.1378 -3.1753 -0.1082
  515MOL0     H67936   9.410   6.091   8.274  1.8906  0.0732 -1.3126
  515MOL0     H67937   9.437   6.153   8.448 -1.7812 -0.7479 -1.1463
  515MOL0     H67938   9.601   5.943   8.308  2.9152  0.4354  0.6655
  515MOL0     H67939   9.638   6.020   8.459  1.4633 -1.7601  0.7424
  515MOL0     H67940   9.450   5.926   8.578  0.8574 -0.1434  0.0209
  515MOL0     H67941   9.518   5.790   8.503 -1.5730  0.0925  3.9469
  515MOL0     H67942   9.340   5.740   8.648  2.1657 -0.1267 -2.8210
  515MOL0     H67943   9.147   5.609   8.731  1.7908  1.6918  0.7810
  515MOL0     H67944   8.599   5.498   8.699  1.3148  1.7723 -0.4597
  515MOL0     H67945   8.466   5.349   8.827  0.3795  1.9422 -1.7161
  515MOL0     H67946   8.621   5.258   9.232 -1.2883 -0.1831  1.5660
  515MOL0     H67947   8.636   5.086   9.171  0.6663 -0.1324  2.1938
  515MOL0     H67948   8.375   5.229   9.233 -1.9949 -0.6419  1.2579
  515MOL0     H67949   8.466   5.169   9.360 -0.4388 -0.2766  0.1614
  515MOL0     H67950   8.317   4.991   9.314 -3.3827  1.8218 -2.7944
  515MOL0     H67951   8.473   4.945   9.264 -1.9155 -1.0361  2.9226
  515MOL0     H67952   8.303   5.070   9.042  3.0430  0.9655 -0.8726
  515MOL0     H67953   8.432   4.957   9.021 -1.1753 -2.2074 -1.3329
  515MOL0     H67954   8.148   4.931   9.104 -0.0561  0.2663 -1.7301
  515MOL0     H67955   8.265   4.799   9.155  3.0802  0.0468 -1.4416
  515MOL0     H67956   8.318   4.757   8.946 -0.8187  0.1709  2.9291
  515MOL0     H67957   8.208   4.876   8.867 -0.3314  1.5168  1.1699
  515MOL0     H67958   8.096   4.685   9.080  0.3709 -1.1050  0.7834
  515MOL0     H67959   8.028   4.725   8.916  0.7011  0.6252 -0.5470
  515MOL0     H67960   8.252   4.586   8.828 -0.6544 -1.4663 -1.0865
  515MOL0     H67961   8.094   4.504   8.868 -1.8342  1.8716  0.3038
  515MOL0     H67962   8.799   5.189   9.027  0.5388 -1.9806 -1.6186
  515MOL0     H67963   8.952   5.355   8.905 -1.4748 -0.0599  2.2331
  515MOL0     H67964   8.950   5.648   8.352 -0.5818  0.7724  0.2569
  515MOL0     H67965   9.134   5.803   8.279 -0.0369 -1.0306 -0.6459
  515MOL0     H67966   9.776   7.453   8.914  0.4030  0.4568 -2.7202
  515MOL0     H67967   9.921   7.471   9.109 -4.2001 -1.7222  0.8109
  515MOL0     H67968  10.495   7.368   9.211  0.2990  2.6580  1.5289
  515MOL0     H67969  10.653   7.305   9.391  0.8504 -1.8395  1.3377
  515MOL0     H67970  10.688   7.000   9.641 -1.3387  1.5015 -4.4493
  515MOL0     H67971  10.515   7.011   9.679  0.3420 -0.6988 -1.6335
  515MOL0     H67972  10.673   7.037   9.889  0.1985 -0.3246  0.4504
  515MOL0     H67973  10.733   7.187   9.816  0.0326 -0.0861  0.4811
  515MOL0     H67974  10.437   7.158   9.868 -0.5510  0.2560  1.4149
  515MOL0     H67975  10.536   7.302   9.845  0.3574 -0.0605 -0.5205
  515MOL0     H67976  10.548   7.108  10.083 -0.0746 -0.0404 -0.3857
  515MOL0     H67977  10.648   7.255  10.063 -0.2220 -0.8119  2.4809
  515MOL0     H67978  10.280   7.425  10.189 -0.1494 -0.3102 -0.1961
  515MOL0     H67979  10.354   7.077   9.586  0.3644  0.3122  0.6962
  515MOL0     H67980  10.194   7.127   9.407 -0.0127 -1.4510 -0.9098
  516MOL0     O67981  10.315   5.782   2.073  0.4850 -0.8867  1.6952
  516MOL0     C67982  10.353   5.754   1.953  0.5646  1.3028 -0.9217
  516MOL0     O67983  10.412   5.843   1.866  0.5078  1.1718  1.3552
  516MOL0     C67984  10.422   5.982   1.897 -0.0980  0.8682  0.4837
  516MOL0     C67985  10.372   6.076   1.805 -0.9239 -0.2695 -0.6873
  516MOL0     C67986  10.376   6.215   1.843  0.8878  0.4057  0.3120
  516MOL0     C67987  10.423   6.262   1.965  0.6913  0.8558  0.5616
  516MOL0     O67988  10.415   6.398   1.992 -0.2183 -0.5062 -0.1111
  516MOL0     C67989  10.519   6.446   2.077  0.0592 -1.0968  0.4784
  516MOL0     C67990  10.557   6.586   2.026  0.2933 -0.5359  0.3222
  516MOL0     C67991  10.452   6.693   2.080 -0.3450 -0.0794 -0.7294
  516MOL0     C67992  10.470   6.840   2.027  0.0554 -0.2068  0.3845
  516MOL0     C67993  10.349   6.923   2.009 -0.2480 -0.3470  0.3769
  516MOL0     C67994  10.262   6.979   2.119  0.9751  0.8475  0.3544
  516MOL0     C67995  10.153   7.082   2.096  0.3410  0.5499 -0.1104
  516MOL0     C67996  10.051   7.039   1.985  0.1659  0.2017 -0.1943
  516MOL0     N67997   9.968   6.925   2.034 -0.8290  0.2819 -0.3928
  516MOL0     C67998   9.984   6.789   2.006  0.1038  0.1758  0.1557
  516MOL0     C67999   9.897   6.728   2.088  0.6667  0.1262  0.4289
  516MOL0     C68000   9.900   6.576   2.104  0.2511  0.0993 -0.0036
  516MOL0     C68001   9.949   6.540   2.241 -0.2219 -0.4097  0.3925
  516MOL0     C68002  10.102   6.569   2.263  0.0874  0.2140  0.3143
  516MOL0     C68003  10.156   6.463   2.369  0.0691 -0.6072  0.6709
  516MOL0     O68004  10.287   6.487   2.406 -0.6589 -0.7942  0.1714
  516MOL0     C68005  10.349   6.403   2.495  0.0499 -0.0154  0.0375
  516MOL0     C68006  10.342   6.440   2.628 -0.2903  0.3110 -0.0241
  516MOL0     C68007  10.386   6.344   2.724 -0.1901 -0.1372  0.9134
  516MOL0     C68008  10.451   6.227   2.689 -0.0927 -0.2170 -0.2467
  516MOL0     C68009  10.510   6.124   2.789  0.7524 -0.0070 -0.2232
  516MOL0     O68010  10.537   5.995   2.744  0.7618  0.0019  0.3364
  516MOL0     C68011  10.611   5.914   2.834  0.2848 -0.4804  0.0421
  516MOL0     C68012  10.750   5.944   2.828  0.6585  0.6829 -0.3711
  516MOL0     C68013  10.837   5.875   2.917 -0.2359  0.8420 -0.1790
  516MOL0     C68014  10.783   5.777   3.005 -0.0259  0.3703 -0.0578
  516MOL0     O68015  10.852   5.718   3.106 -0.7493 -0.4957 -0.2104
  516MOL0     C68016  10.996   5.690   3.095  0.4374  0.3045  0.0664
  516MOL0     C68017  11.038   5.651   3.244  0.2960 -0.6811 -0.8390
  516MOL0     C68018  11.018   5.767   3.347 -0.4795  0.0995 -0.2867
  516MOL0     C68019  11.040   5.736   3.494  0.2130  0.4899  0.4852
  516MOL0     C68020  10.948   5.825   3.589  1.2035  0.5392 -0.1566
  516MOL0     C68021  11.003   5.971   3.627  0.1394  0.6628  0.2326
  516MOL0     C68022  11.046   6.055   3.506  0.1852 -0.8399 -0.4354
  516MOL0     C68023  11.092   6.194   3.547 -0.1447 -0.5207 -0.0256
  516MOL0    Cl68024  11.185   6.263   3.409 -0.2144 -0.1998  0.3822
  516MOL0     C68025  10.644   5.763   3.018 -0.2000  0.4508 -0.1010
  516MOL0     C68026  10.560   5.824   2.922 -0.1152  0.5062  0.5144
  516MOL0     O68027  10.528   6.155   2.905  0.0623 -0.3398 -0.0003
  516MOL0     C68028  10.470   6.208   2.555 -0.0931 -0.6437  0.9311
  516MOL0     C68029  10.413   6.288   2.456  0.1421 -0.1212 -0.0960
  516MOL0     N68030   9.819   6.826   2.156 -1.2726 -0.5966  0.5182
  516MOL0     N68031   9.867   6.945   2.122 -0.0660 -0.2833  0.1034
  516MOL0     C68032  10.477   6.157   2.051  0.6433  0.1196 -0.3380
  516MOL0     C68033  10.470   6.019   2.021 -0.9236 -0.3344  1.0509
  516MOL0     C68034  10.338   5.602   1.921  0.9349 -0.9569 -0.1189
  516MOL0     C68035  10.294   5.503   2.016  1.0804  0.6963  0.0482
  516MOL0     C68036  10.274   5.369   1.982  0.5837 -1.0398  1.1581
  516MOL0     C68037  10.296   5.327   1.851 -0.2695  0.0325 -0.5131
  516MOL0     O68038  10.265   5.205   1.794 -0.2102 -0.7261 -0.6976
  516MOL0     C68039  10.171   5.133   1.861 -0.2387 -0.5253 -0.4733
  516MOL0     C68040  10.109   5.026   1.778  1.0996 -0.7224  0.3329
  516MOL0     C68041  10.040   5.084   1.649  0.3760  0.2959 -0.7269
  516MOL0     C68042   9.900   5.039   1.635  0.3839  0.8638 -0.1397
  516MOL0     C68043   9.829   5.105   1.528 -0.4407  0.3715 -0.4888
  516MOL0     C68044   9.754   5.148   1.450 -0.5528  0.1410 -0.0783
  516MOL0     C68045  10.350   5.425   1.765  0.2645  0.3858 -0.6960
  516MOL0     C68046  10.362   5.563   1.786  0.2291 -0.8461  0.0082
  516MOL0     H68047  10.320   6.049   1.713  0.4195 -2.5774 -0.8413
  516MOL0     H68048  10.336   6.296   1.782  0.7078 -0.3129 -0.5372
  516MOL0     H68049  10.607   6.384   2.060 -0.8893 -1.6796 -3.3407
  516MOL0     H68050  10.495   6.453   2.184  0.1993  1.2934  0.4148
  516MOL0     H68051  10.552   6.597   1.917 -1.2144  0.2962  0.4420
  516MOL0     H68052  10.658   6.625   2.043  0.1735 -0.5745  1.1733
  516MOL0     H68053  10.429   6.689   2.187  0.9596 -0.9523 -0.4429
  516MOL0     H68054  10.353   6.665   2.043 -1.9077  1.5713  1.9125
  516MOL0     H68055  10.533   6.899   2.094 -0.4151  1.1120 -0.2960
  516MOL0     H68056  10.525   6.836   1.932 -0.0248  1.1790  0.2565
  516MOL0     H68057  10.285   6.869   1.940  1.6254  0.1806 -1.9135
  516MOL0     H68058  10.392   7.012   1.961 -1.6754 -0.1476 -0.5641
  516MOL0     H68059  10.327   7.028   2.191  2.2393  0.0195 -0.1827
  516MOL0     H68060  10.214   6.895   2.170  1.6239 -0.6149 -1.3376
  516MOL0     H68061  10.103   7.104   2.191  1.2245  0.2000  0.4479
  516MOL0     H68062  10.204   7.174   2.065 -1.0813  1.4258  0.0563
  516MOL0     H68063  10.103   7.003   1.897  3.0690  0.8276  1.1577
  516MOL0     H68064   9.990   7.126   1.957 -0.6721 -0.9827 -2.2838
  516MOL0     H68065  10.063   6.751   1.943  2.3156  1.9692  1.6432
  516MOL0     H68066   9.968   6.532   2.030 -0.8937  1.2862 -1.8486
  516MOL0     H68067   9.801   6.533   2.085 -0.7180  2.8582 -1.7970
  516MOL0     H68068   9.937   6.432   2.251  0.2977 -0.5041  0.0117
  516MOL0     H68069   9.890   6.578   2.325 -1.6885  2.0011 -1.5837
  516MOL0     H68070  10.166   6.556   2.176  0.6860 -0.2181  0.8138
  516MOL0     H68071  10.110   6.671   2.302  0.6083  0.4042 -0.2842
  516MOL0     H68072  10.130   6.363   2.333 -5.8286  0.7393  0.1028
  516MOL0     H68073  10.088   6.468   2.455 -0.7223 -2.7911  0.2434
  516MOL0     H68074  10.313   6.541   2.652 -1.5258  0.2427 -1.1480
  516MOL0     H68075  10.368   6.377   2.826 -1.7538  1.3956  0.1750
  516MOL0     H68076  10.777   6.017   2.753 -2.5395  1.4689 -0.9087
  516MOL0     H68077  10.941   5.902   2.900  0.4707 -2.0855 -1.1064
  516MOL0     H68078  11.059   5.779   3.092  0.7051  0.1232  0.3176
  516MOL0     H68079  11.017   5.608   3.026 -0.1437  1.0850 -1.0884
  516MOL0     H68080  11.143   5.620   3.238  0.6072  0.2829 -0.6866
  516MOL0     H68081  10.985   5.572   3.297  0.1100  1.1318  1.9162
  516MOL0     H68082  10.913   5.798   3.343  0.2300  2.6449 -1.1372
  516MOL0     H68083  11.080   5.850   3.311  1.3197 -1.2522 -0.4536
  516MOL0     H68084  11.016   5.632   3.517 -1.9041  0.5083 -1.3673
  516MOL0     H68085  11.142   5.763   3.522  0.1773  1.0653  0.0875
  516MOL0     H68086  10.930   5.762   3.677  0.6462 -0.0585 -0.6825
  516MOL0     H68087  10.846   5.842   3.552  0.7687  0.2344  0.8646
  516MOL0     H68088  11.092   5.947   3.686  0.2221  1.7806  0.5811
  516MOL0     H68089  10.921   6.019   3.682  0.2177  0.1795  0.7779
  516MOL0     H68090  11.128   6.010   3.449  0.7004 -0.3684 -0.0870
  516MOL0     H68091  10.966   6.061   3.432  1.0690 -4.3616 -1.8618
  516MOL0     H68092  11.158   6.178   3.633 -1.5586  0.7137  1.3559
  516MOL0     H68093  11.004   6.255   3.571  0.9163  0.8168  0.6683
  516MOL0     H68094  10.605   5.712   3.105 -2.1509  1.0381 -0.5790
  516MOL0     H68095  10.451   5.820   2.918 -0.0715 -2.1812 -0.5899
  516MOL0     H68096  10.529   6.130   2.508  1.7451  2.1307 -1.7895
  516MOL0     H68097  10.429   6.260   2.352  1.7419 -2.2901  0.6566
  516MOL0     H68098  10.526   6.181   2.144  2.3381 -2.6592 -0.3846
  516MOL0     H68099  10.504   5.943   2.091  0.2406  1.3184  2.3767
  516MOL0     H68100  10.286   5.530   2.120 -0.0453  0.6136 -0.0043
  516MOL0     H68101  10.255   5.292   2.056  1.9920 -0.5922  2.0224
  516MOL0     H68102  10.084   5.195   1.885 -1.0202 -1.3892 -1.0177
  516MOL0     H68103  10.232   5.101   1.946 -0.2636  2.6840  0.9155
  516MOL0     H68104  10.186   4.952   1.752 -0.0224 -1.4170 -1.1359
  516MOL0     H68105  10.043   4.971   1.846  0.3853 -0.6950 -0.3292
  516MOL0     H68106  10.098   5.047   1.564 -1.4328 -1.6207 -1.2165
  516MOL0     H68107  10.054   5.192   1.649 -2.6916  0.7909  0.3915
  516MOL0     H68108   9.902   4.930   1.632  1.0922  0.7789  1.8654
  516MOL0     H68109   9.837   5.069   1.719  0.7321  2.6707 -0.4798
  516MOL0     H68110   9.704   5.190   1.365  2.1244  1.2994 -1.1975
  516MOL0     H68111  10.369   5.387   1.665  2.1914 -0.5508 -0.0219
  516MOL0     H68112  10.388   5.631   1.706 -2.5242  1.6447  1.0551
  517MOL0     O68113   8.043   4.654   6.318  0.1995 -0.0276 -1.1686
  517MOL0     C68114   8.104   4.552   6.289 -0.7081 -0.3939  0.3959
  517MOL0     O68115   8.107   4.495   6.165 -0.0360 -0.3076  0.2881
  517MOL0     C68116   8.058   4.554   6.047  0.4390  0.2552  0.4191
  517MOL0     C68117   7.970   4.479   5.970  0.5324  0.6429 -0.2792
  517MOL0     C68118   7.905   4.539   5.859  0.1363  0.5895  0.4804
  517MOL0     C68119   7.931   4.670   5.823 -0.1716 -0.2037 -0.9175
  517MOL0     O68120   7.871   4.731   5.710  1.7707 -0.5504  0.1625
  517MOL0     C68121   7.730   4.768   5.725 -0.2707  0.6173  0.2363
  517MOL0     C68122   7.697   4.829   5.591 -0.0883  0.4925 -0.4953
  517MOL0     C68123   7.708   4.982   5.573  0.7176 -0.1018 -0.2798
  517MOL0     C68124   7.625   5.028   5.453 -0.7941  0.4213 -0.6946
  517MOL0     C68125   7.683   4.983   5.313 -0.0318  0.6301  0.2366
  517MOL0     C68126   7.638   5.076   5.196 -0.1556  0.8188 -0.6328
  517MOL0     C68127   7.490   5.047   5.164  0.1804 -0.3428 -0.5894
  517MOL0     C68128   7.395   5.170   5.179  0.2274  0.6830 -0.2287
  517MOL0     N68129   7.361   5.186   5.320  0.1541 -0.0086  0.1427
  517MOL0     C68130   7.391   5.292   5.401 -0.3411  0.3706  0.6062
  517MOL0     C68131   7.331   5.268   5.519 -0.5682  0.7254 -0.7514
  517MOL0     C68132   7.329   5.351   5.644 -0.0477 -0.1971 -0.5760
  517MOL0     C68133   7.453   5.322   5.717  0.5740  0.7907  0.2774
  517MOL0     C68134   7.487   5.408   5.844  0.2430 -0.4414 -0.7593
  517MOL0     C68135   7.429   5.349   5.972 -0.4788  0.8610  0.1994
  517MOL0     O68136   7.301   5.293   5.960  0.0650  0.8074  0.7857
  517MOL0     C68137   7.198   5.375   5.946  0.0775  0.6639 -0.4268
  517MOL0     C68138   7.077   5.312   5.924  0.5596  0.4773  0.3443
  517MOL0     C68139   6.950   5.385   5.912 -0.0962 -0.6393  0.5080
  517MOL0     C68140   6.954   5.524   5.922 -0.0830  0.9118  1.3580
  517MOL0     C68141   6.834   5.603   5.891  0.4367 -0.5195 -0.4778
  517MOL0     O68142   6.855   5.722   5.848  0.1965 -0.1478 -0.8921
  517MOL0     C68143   6.753   5.797   5.807  0.9841 -0.5335  0.2056
  517MOL0     C68144   6.713   5.794   5.677 -0.4938  0.1547 -0.9054
  517MOL0     C68145   6.633   5.901   5.632 -0.2722  0.9261 -0.4686
  517MOL0     C68146   6.601   6.002   5.717  0.1573 -0.1108 -0.7296
  517MOL0     O68147   6.535   6.119   5.676 -0.7912  0.7411  0.4213
  517MOL0     C68148   6.512   6.143   5.533  1.6376 -0.0367 -0.4857
  517MOL0     C68149   6.469   6.286   5.530 -0.5631 -0.8917 -0.8670
  517MOL0     C68150   6.393   6.336   5.405  0.7066  0.2243 -0.4925
  517MOL0     C68151   6.295   6.453   5.439 -0.2172 -0.3811 -0.4032
  517MOL0     C68152   6.194   6.473   5.326  0.6240  0.8376 -0.3995
  517MOL0     C68153   6.101   6.590   5.347 -0.1381  1.0087 -0.0213
  517MOL0     C68154   6.000   6.614   5.226  0.9598 -0.3082  0.2202
  517MOL0     C68155   6.064   6.666   5.101 -1.0363  0.1204  0.1109
  517MOL0    Cl68156   5.951   6.656   4.970  0.5616  0.1086  0.2456
  517MOL0     C68157   6.630   5.995   5.849 -0.2795 -0.0034 -0.3758
  517MOL0     C68158   6.708   5.889   5.898 -0.0499  0.0809 -0.5896
  517MOL0     O68159   6.724   5.555   5.914  0.8533 -0.4943  0.4505
  517MOL0     C68160   7.079   5.583   5.943  0.0946 -0.8417  0.3703
  517MOL0     C68161   7.196   5.515   5.954  0.6921  0.7326 -0.1695
  517MOL0     N68162   7.283   5.144   5.508  0.1308  0.0755 -0.8106
  517MOL0     N68163   7.293   5.093   5.390  1.1240  0.3079 -0.1923
  517MOL0     C68164   8.025   4.739   5.900 -0.7977  0.3782 -0.0358
  517MOL0     C68165   8.087   4.688   6.013 -0.2237 -0.0876 -0.0404
  517MOL0     C68166   8.202   4.494   6.379 -0.3031 -0.2882 -0.3362
  517MOL0     C68167   8.215   4.529   6.517  0.2031 -0.4978  0.1167
  517MOL0     C68168   8.327   4.491   6.591  0.1934  0.1646  0.1951
  517MOL0     C68169   8.435   4.419   6.535  0.8767 -0.7907 -0.2696
  517MOL0     O68170   8.544   4.406   6.613  0.2390 -0.9755 -0.5176
  517MOL0     C68171   8.652   4.327   6.559 -0.5742 -0.4092 -0.1173
  517MOL0     C68172   8.623   4.177   6.545 -0.7359  0.4709  0.3716
  517MOL0     C68173   8.733   4.106   6.462 -0.9467  0.3082 -0.3781
  517MOL0     C68174   8.694   3.965   6.421  0.5020 -0.4860  0.1528
  517MOL0     C68175   8.800   3.873   6.408 -1.3914 -0.8112 -0.2602
  517MOL0     C68176   8.891   3.794   6.397  0.1885  0.3077 -0.1910
  517MOL0     C68177   8.419   4.389   6.400 -0.6940  0.0820  0.2600
  517MOL0     C68178   8.311   4.423   6.332  0.0655  0.9982  0.4984
  517MOL0     H68179   7.949   4.374   5.987  3.0195  0.2732  0.8802
  517MOL0     H68180   7.838   4.471   5.807  0.8414 -2.1355  2.8059
  517MOL0     H68181   7.720   4.848   5.799 -1.3213  0.4655  0.2736
  517MOL0     H68182   7.664   4.682   5.737  3.2703 -2.7154 -1.8028
  517MOL0     H68183   7.596   4.787   5.576  1.1331 -1.9824 -2.6037
  517MOL0     H68184   7.760   4.780   5.516  0.2212 -2.9811  1.7824
  517MOL0     H68185   7.815   4.991   5.552  0.7202  0.5642  0.0061
  517MOL0     H68186   7.669   5.040   5.657 -1.9402 -2.1340  0.0238
  517MOL0     H68187   7.522   4.993   5.465 -1.0372  1.5133  0.6562
  517MOL0     H68188   7.620   5.137   5.454 -0.0531  0.6470  4.4369
  517MOL0     H68189   7.651   4.881   5.290 -0.5737  0.3554  2.0680
  517MOL0     H68190   7.792   4.986   5.315  0.1878 -2.8262 -0.0855
  517MOL0     H68191   7.701   5.043   5.113  1.2770 -0.4819  0.9132
  517MOL0     H68192   7.651   5.177   5.237  1.6418 -0.0960  1.1817
  517MOL0     H68193   7.483   5.012   5.061  2.1247  0.1739 -0.9430
  517MOL0     H68194   7.456   4.964   5.226  1.5894 -1.1685 -0.8612
  517MOL0     H68195   7.309   5.147   5.115  1.7458 -5.0659 -0.7928
  517MOL0     H68196   7.456   5.252   5.139 -0.6190  1.3280 -0.2303
  517MOL0     H68197   7.449   5.379   5.370  1.1902 -0.3367  1.3679
  517MOL0     H68198   7.238   5.335   5.702  0.5951  1.0509  0.8104
  517MOL0     H68199   7.326   5.454   5.609  2.3805 -0.0403 -0.5298
  517MOL0     H68200   7.538   5.333   5.650 -0.8895 -1.6082 -2.1720
  517MOL0     H68201   7.451   5.220   5.757  1.0689  0.9809  0.8027
  517MOL0     H68202   7.594   5.429   5.847  0.0034  1.3644 -2.6610
  517MOL0     H68203   7.444   5.508   5.833  0.6704 -0.1262  0.2887
  517MOL0     H68204   7.436   5.415   6.059 -1.0784  0.1925  0.7776
  517MOL0     H68205   7.498   5.267   5.994 -1.3094 -0.2671 -1.2251
  517MOL0     H68206   7.092   5.204   5.916  1.8334  0.6690 -0.1030
  517MOL0     H68207   6.856   5.335   5.890 -2.5147  2.7128  2.3608
  517MOL0     H68208   6.730   5.709   5.612 -1.6737  1.2517 -2.7198
  517MOL0     H68209   6.605   5.897   5.527  3.8444 -0.5997 -1.6795
  517MOL0     H68210   6.454   6.069   5.477  0.2381 -1.0334  2.1150
  517MOL0     H68211   6.612   6.145   5.490  2.4214 -2.0697  1.1273
  517MOL0     H68212   6.559   6.349   5.532 -1.3719  0.3496  1.7165
  517MOL0     H68213   6.421   6.305   5.627  2.2262 -0.8950  0.6515
  517MOL0     H68214   6.329   6.253   5.374 -0.0139  0.1508  1.1103
  517MOL0     H68215   6.461   6.362   5.324 -0.5127 -2.2806 -2.4546
  517MOL0     H68216   6.240   6.423   5.529 -0.2826 -0.7231 -0.5568
  517MOL0     H68217   6.356   6.539   5.467  0.1756 -1.5317  2.6830
  517MOL0     H68218   6.138   6.381   5.311 -2.4341  1.8013  3.4646
  517MOL0     H68219   6.240   6.501   5.230  0.3726  0.3728 -0.6591
  517MOL0     H68220   6.163   6.675   5.377 -1.0253  1.3745  0.8498
  517MOL0     H68221   6.044   6.576   5.439 -1.0326 -0.8961 -0.8147
  517MOL0     H68222   5.942   6.522   5.211 -1.6299  1.6722 -3.5711
  517MOL0     H68223   5.922   6.687   5.246  0.7052 -0.2667 -0.8593
  517MOL0     H68224   6.144   6.601   5.065 -2.1070 -1.9052  1.1518
  517MOL0     H68225   6.105   6.766   5.116  4.7263 -1.4256 -2.5818
  517MOL0     H68226   6.600   6.070   5.921  1.8567  0.2016  0.3721
  517MOL0     H68227   6.751   5.883   5.997  1.9839 -1.9991 -1.5263
  517MOL0     H68228   7.081   5.689   5.966  1.6853 -0.9197  0.6949
  517MOL0     H68229   7.294   5.559   5.968  0.9767 -0.3433  1.4106
  517MOL0     H68230   8.048   4.837   5.860 -0.2887  0.1957 -0.1994
  517MOL0     H68231   8.149   4.758   6.068 -2.8621  2.2944  0.1385
  517MOL0     H68232   8.133   4.586   6.558  1.7581  1.4866  0.6545
  517MOL0     H68233   8.340   4.527   6.692 -0.8799 -0.6327  0.6350
  517MOL0     H68234   8.739   4.349   6.622 -0.0600 -0.5815 -0.7655
  517MOL0     H68235   8.692   4.370   6.467  4.8036 -2.9201  0.6616
  517MOL0     H68236   8.618   4.133   6.645 -0.5033  2.7676  1.4651
  517MOL0     H68237   8.529   4.157   6.493 -0.6130  1.5118 -0.2954
  517MOL0     H68238   8.822   4.121   6.524 -0.4146  1.4399 -1.3718
  517MOL0     H68239   8.748   4.178   6.381  1.3826  3.1508  2.3089
  517MOL0     H68240   8.632   3.922   6.500 -1.1916 -1.9279 -1.8371
  517MOL0     H68241   8.638   3.963   6.327 -0.8008 -0.2566  0.9084
  517MOL0     H68242   8.951   3.705   6.398  0.4162  0.4515  1.2748
  517MOL0     H68243   8.490   4.331   6.342 -0.4516  1.7512 -1.1870
  517MOL0     H68244   8.311   4.399   6.226  1.0181 -2.7834  1.2177
  518MOL0     O68245   8.999   6.036  10.150 -0.1261 -0.7735  0.8117
  518MOL0     C68246   8.990   6.132  10.069 -0.7638  0.8673 -0.0222
  518MOL0     O68247   8.889   6.213  10.043  0.6223 -0.0452  0.5884
  518MOL0     C68248   8.778   6.178  10.114  0.4239  0.0894 -1.0770
  518MOL0     C68249   8.738   6.246  10.234  0.7591 -0.5947  0.4660
  518MOL0     C68250   8.617   6.216  10.278 -0.0052  0.6179 -0.2049
  518MOL0     C68251   8.530   6.121  10.221 -0.6074  0.7646 -0.5328
  518MOL0     O68252   8.410   6.115  10.287 -0.1219 -0.1306 -0.2549
  518MOL0     C68253   8.305   6.064  10.206  0.5672  0.7608  0.6410
  518MOL0     C68254   8.179   6.127  10.255 -0.0067 -0.1369  0.4010
  518MOL0     C68255   8.057   6.079  10.175 -0.3102  0.2428  0.4103
  518MOL0     C68256   7.937   6.089  10.279  0.0388  1.3106  0.3706
  518MOL0     C68257   7.815   6.017  10.217  0.8010 -0.9034  0.1360
  518MOL0     C68258   7.705   6.027  10.315 -0.1511 -0.1382  0.6720
  518MOL0     C68259   7.596   5.929  10.273 -0.5838  0.3512 -0.9419
  518MOL0     C68260   7.456   5.976  10.304  0.4908 -0.3444 -0.5838
  518MOL0     N68261   7.400   5.908  10.417  0.3245  0.4742  1.1147
  518MOL0     C68262   7.456   5.900  10.538 -0.2324 -0.1445 -0.3600
  518MOL0     C68263   7.417   5.782  10.590 -0.1954  0.6339  0.7580
  518MOL0     C68264   7.477   5.720  10.712 -0.6848  0.3112 -0.6945
  518MOL0     C68265   7.592   5.629  10.670 -0.6510 -0.7830  0.5255
  518MOL0     C68266   7.721   5.708  10.660  1.2470  0.1857 -0.6920
  518MOL0     C68267   7.802   5.710  10.789 -0.3561 -0.5053 -0.6738
  518MOL0     O68268   7.832   5.579  10.830 -0.0196  0.7075 -0.0174
  518MOL0     C68269   7.966   5.553  10.848 -1.1131 -0.0567  0.1267
  518MOL0     C68270   8.036   5.572  10.968 -0.6903  0.1259  0.0666
  518MOL0     C68271   8.167   5.527  10.987  0.0905  0.4732 -0.1033
  518MOL0     C68272   8.227   5.459  10.888 -0.3167  0.9127 -0.5179
  518MOL0     C68273   8.354   5.402  10.912 -0.4200  0.9792 -0.7113
  518MOL0     O68274   8.439   5.372  10.805  0.8567 -1.3767 -0.6029
  518MOL0     C68275   8.566   5.318  10.814  1.1315  1.1974 -0.3730
  518MOL0     C68276   8.590   5.185  10.871 -0.2594 -0.7329 -0.3818
  518MOL0     C68277   8.723   5.132  10.852 -0.0654  0.1687  0.1520
  518MOL0     C68278   8.826   5.209  10.794 -1.2838 -0.2732 -0.2296
  518MOL0     O68279   8.953   5.162  10.782 -0.2938  1.2170  0.5273
  518MOL0     C68280   9.009   5.094  10.894  0.4872 -0.7800 -0.1234
  518MOL0     C68281   9.148   5.149  10.915  0.4840 -0.3978 -0.2693
  518MOL0     C68282   9.217   5.073  11.023 -0.1589  0.6905 -0.0661
  518MOL0     C68283   9.372   5.116  11.012 -0.3226  1.0786  0.2611
  518MOL0     C68284   9.458   5.025  11.107  0.4638  0.1053 -0.3478
  518MOL0     C68285   9.598   5.056  11.088  0.2516  0.1072 -0.2222
  518MOL0     C68286   9.630   5.173  11.190  0.7215  0.0229  0.9954
  518MOL0     C68287   9.765   5.248  11.160  0.2807 -0.4631 -0.0214
  518MOL0    Cl68288   9.893   5.147  11.102  0.4233 -0.2223 -0.1824
  518MOL0     C68289   8.798   5.341  10.754  0.4851  0.2440 -0.3434
  518MOL0     C68290   8.666   5.393  10.758  0.7413  0.2261  0.7813
  518MOL0     O68291   8.374   5.358  11.026  0.0273 -0.2919  0.1177
  518MOL0     C68292   8.175   5.475  10.755  0.6277  0.1837  0.1460
  518MOL0     C68293   8.038   5.508  10.735 -0.0197  0.9510  0.1951
  518MOL0     N68294   7.333   5.722  10.496  0.1779 -0.3852  0.7586
  518MOL0     N68295   7.311   5.802  10.398 -0.3584  0.3329 -0.7634
  518MOL0     C68296   8.567   6.043  10.110 -0.7805 -0.2697 -0.3731
  518MOL0     C68297   8.692   6.079  10.062 -0.0091 -0.0992  0.6189
  518MOL0     C68298   9.127   6.184  10.037 -0.7838  0.0567  0.2410
  518MOL0     C68299   9.225   6.092   9.992 -0.6768 -0.6030  0.0660
  518MOL0     C68300   9.356   6.132   9.970  0.6581 -0.1316  0.3315
  518MOL0     C68301   9.398   6.263  10.006 -0.1051  0.3535 -0.3154
  518MOL0     O68302   9.531   6.292   9.988  0.1386  0.6482  0.2077
  518MOL0     C68303   9.583   6.406  10.047 -0.5101  0.0217  0.8278
  518MOL0     C68304   9.733   6.386  10.075 -0.3687 -0.0443 -0.7106
  518MOL0     C68305   9.768   6.274  10.184  0.1909 -0.0852  0.2088
  518MOL0     C68306   9.711   6.129  10.155 -0.5531 -0.2757  0.4042
  518MOL0     C68307   9.770   6.084  10.025  0.1287 -0.8039 -0.2225
  518MOL0     C68308   9.802   6.027   9.923 -1.0455  0.0080  0.7968
  518MOL0     C68309   9.302   6.363  10.041  0.5437  0.3168  0.4661
  518MOL0     C68310   9.161   6.325  10.047  0.6800  0.3041  0.7828
  518MOL0     H68311   8.800   6.328  10.270  4.9182 -3.4608  0.5303
  518MOL0     H68312   8.592   6.271  10.367  1.5905  1.2623 -0.1300
  518MOL0     H68313   8.307   5.958  10.230 -0.5099  1.0618  2.2131
  518MOL0     H68314   8.313   6.079  10.098  0.5485 -0.1737  0.5013
  518MOL0     H68315   8.181   6.236  10.261  1.0011 -0.1657  0.9019
  518MOL0     H68316   8.182   6.110  10.363 -0.3484  2.8342  0.9455
  518MOL0     H68317   8.078   5.979  10.135  1.4385  0.9016 -0.3881
  518MOL0     H68318   8.034   6.150  10.095 -4.6019  0.8287  1.8557
  518MOL0     H68319   7.977   6.039  10.367  1.8401  2.2670  0.1407
  518MOL0     H68320   7.909   6.184  10.325 -3.8626  0.3684  0.2999
  518MOL0     H68321   7.849   5.916  10.194  2.6518 -1.2384  3.6737
  518MOL0     H68322   7.788   6.087  10.137  2.3805  2.5971  2.4164
  518MOL0     H68323   7.669   6.130  10.312  0.4018  0.0472 -2.4829
  518MOL0     H68324   7.746   6.005  10.414 -1.0453 -1.4122  0.7874
  518MOL0     H68325   7.614   5.923  10.165 -0.4028  0.7614 -0.9390
  518MOL0     H68326   7.610   5.831  10.319  1.4357  0.0025 -2.1775
  518MOL0     H68327   7.395   5.961  10.215 -2.4157  0.5579  1.1264
  518MOL0     H68328   7.452   6.084  10.325 -0.7141 -0.5828  0.5617
  518MOL0     H68329   7.538   5.956  10.582  2.8217 -2.3684 -2.7465
  518MOL0     H68330   7.398   5.663  10.762 -1.0786  1.7965  0.4597
  518MOL0     H68331   7.511   5.796  10.782 -2.4807 -0.0735  0.6734
  518MOL0     H68332   7.568   5.593  10.570  0.5808  1.1433 -0.5254
  518MOL0     H68333   7.603   5.533  10.723 -1.7105 -0.8652  0.6044
  518MOL0     H68334   7.773   5.662  10.575  1.0340 -0.9159 -0.2489
  518MOL0     H68335   7.699   5.811  10.631 -1.3871 -0.8429 -2.7708
  518MOL0     H68336   7.758   5.768  10.870  4.3146  0.4436  1.5117
  518MOL0     H68337   7.890   5.769  10.764 -1.4662  1.4229 -0.2208
  518MOL0     H68338   7.973   5.614  11.046 -2.4467 -0.1735 -1.1175
  518MOL0     H68339   8.220   5.550  11.079 -2.6354  0.5115  1.5787
  518MOL0     H68340   8.518   5.123  10.924  1.9988 -3.2272 -0.0182
  518MOL0     H68341   8.745   5.030  10.881  0.3962  0.4265  0.7101
  518MOL0     H68342   9.009   4.987  10.874 -3.3055 -0.6822 -1.4796
  518MOL0     H68343   8.961   5.117  10.989  0.9066 -0.8544  0.1111
  518MOL0     H68344   9.141   5.256  10.939  0.4713  0.3162 -3.0810
  518MOL0     H68345   9.201   5.141  10.819  0.4626  1.5664 -0.4863
  518MOL0     H68346   9.203   4.965  11.009 -2.8242  0.6598  1.9264
  518MOL0     H68347   9.174   5.103  11.119 -1.9080  0.3242 -0.6969
  518MOL0     H68348   9.416   5.102  10.913  1.5206 -3.2928  1.5065
  518MOL0     H68349   9.372   5.223  11.035 -0.7328  0.6497  2.5102
  518MOL0     H68350   9.443   4.930  11.055 -0.9494  1.1615 -2.0121
  518MOL0     H68351   9.434   5.035  11.213  0.6579  2.8325 -0.4902
  518MOL0     H68352   9.612   5.086  10.984 -2.5040  0.6852 -0.5011
  518MOL0     H68353   9.667   4.974  11.111 -1.6557 -2.1828 -2.0816
  518MOL0     H68354   9.549   5.246  11.191 -2.4131 -3.0639 -2.0035
  518MOL0     H68355   9.634   5.139  11.294 -0.7386 -0.0048  1.0626
  518MOL0     H68356   9.802   5.299  11.249  0.5612  0.7061 -0.7879
  518MOL0     H68357   9.740   5.315  11.077 -2.9506 -1.9982 -0.4539
  518MOL0     H68358   8.873   5.415  10.729 -1.4405  1.8691 -1.7088
  518MOL0     H68359   8.629   5.488  10.721 -0.2962 -1.0320 -1.6429
  518MOL0     H68360   8.232   5.450  10.665  0.9160  1.0732  0.0759
  518MOL0     H68361   7.987   5.488  10.641 -2.3235 -0.6385  1.6955
  518MOL0     H68362   8.509   5.963  10.065  1.6638 -2.8721  0.7671
  518MOL0     H68363   8.742   6.018   9.987  0.1658  1.2398 -0.4224
  518MOL0     H68364   9.192   5.988   9.988 -0.3234 -0.7209  0.1521
  518MOL0     H68365   9.430   6.053   9.963  1.3481  0.5694 -0.4078
  518MOL0     H68366   9.522   6.431  10.135 -3.0501  3.3119 -1.5789
  518MOL0     H68367   9.566   6.496   9.987  1.2235 -0.6743 -0.7889
  518MOL0     H68368   9.783   6.352   9.983  1.7143 -4.3547  1.6592
  518MOL0     H68369   9.788   6.478  10.092 -1.8303  1.5230 -3.6311
  518MOL0     H68370   9.732   6.302  10.283  0.7543  1.0096  0.1266
  518MOL0     H68371   9.876   6.261  10.195 -0.0288 -0.7075  1.9038
  518MOL0     H68372   9.748   6.063  10.234  0.7007  0.8989  0.8465
  518MOL0     H68373   9.602   6.131  10.148 -0.4936  1.0590 -0.4850
  518MOL0     H68374   9.825   5.981   9.829 -4.0075 -3.2346  1.4616
  518MOL0     H68375   9.332   6.466  10.060  4.1794 -0.7381  1.2464
  518MOL0     H68376   9.086   6.398  10.073  1.1300  1.3430 -0.6912
  519MOL0     O68377   8.606   6.311  10.841  0.4884 -0.4511 -0.1780
  519MOL0     C68378   8.652   6.336  10.736 -0.1894 -0.1952 -0.1141
  519MOL0     O68379   8.577   6.341  10.617  0.4654  0.0729  0.3949
  519MOL0     C68380   8.441   6.327  10.644  0.6148 -0.3054 -0.1347
  519MOL0     C68381   8.381   6.201  10.619 -0.2962 -0.4994  0.4655
  519MOL0     C68382   8.248   6.166  10.638 -0.4130  0.8663 -0.3208
  519MOL0     C68383   8.163   6.276  10.675  0.0685 -0.6529 -0.4332
  519MOL0     O68384   8.032   6.276  10.705 -0.0721  0.6339  0.0495
  519MOL0     C68385   7.965   6.158  10.688  0.1733  0.1764 -0.4656
  519MOL0     C68386   7.820   6.165  10.737 -0.8186  1.1801  0.0972
  519MOL0     C68387   7.797   6.122  10.881 -0.4037 -0.4609  0.3204
  519MOL0     C68388   7.650   6.116  10.913  0.1072  0.2020  0.4836
  519MOL0     C68389   7.594   6.263  10.929  0.0239  0.6115 -0.6767
  519MOL0     C68390   7.445   6.266  10.971  0.1444  0.1230 -0.6929
  519MOL0     C68391   7.410   6.407  10.990  0.0185 -0.9501  0.4487
  519MOL0     C68392   7.257   6.429  11.028  0.0573  1.0155  0.3584
  519MOL0     N68393   7.221   6.575  11.062  0.7094  0.2772  0.0837
  519MOL0     C68394   7.219   6.685  10.977 -0.1363  0.2095 -0.0597
  519MOL0     C68395   7.179   6.793  11.057 -0.1079 -0.5774 -0.3717
  519MOL0     C68396   7.134   6.938  11.020 -0.4711 -0.7026 -0.0855
  519MOL0     C68397   6.985   6.941  10.995  0.6502  0.3171  0.7657
  519MOL0     C68398   6.908   7.052  11.060  0.1694 -1.0660 -0.5528
  519MOL0     C68399   6.945   7.184  10.994  0.0167  0.1244  1.2740
  519MOL0     O68400   6.922   7.299  11.075 -0.0111  0.3199 -0.0160
  519MOL0     C68401   6.794   7.328  11.119  0.6665 -1.1793  0.0712
  519MOL0     C68402   6.678   7.268  11.079  0.1088 -0.2981  1.4613
  519MOL0     C68403   6.554   7.308  11.120  0.3540  0.9348  0.7944
  519MOL0     C68404   6.544   7.414  11.210 -0.3462 -0.7309 -1.1860
  519MOL0     C68405   6.421   7.487  11.259 -0.8481  0.3220 -0.1277
  519MOL0     O68406   6.431   7.628  11.252 -0.1534  0.6419 -0.3388
  519MOL0     C68407   6.328   7.701  11.295  0.4545 -0.4992  0.0606
  519MOL0     C68408   6.228   7.721  11.204 -0.0149 -0.1770  0.2970
  519MOL0     C68409   6.119   7.796  11.242 -0.9339  0.4566 -0.8162
  519MOL0     C68410   6.111   7.847  11.371 -0.3370 -0.2620 -0.2360
  519MOL0     O68411   6.001   7.918  11.384 -0.1106 -0.4089 -0.3171
  519MOL0     C68412   5.999   8.005  11.497  0.1593 -0.1540  0.1465
  519MOL0     C68413   5.872   8.085  11.502  0.3724  0.4779  0.9121
  519MOL0     C68414   5.886   8.212  11.584 -0.1114 -0.5252  0.4224
  519MOL0     C68415   5.932   8.177  11.721 -0.6880 -0.2556 -0.6853
  519MOL0     C68416   5.928   8.297  11.814 -0.3777  0.4886  1.5464
  519MOL0     C68417   5.994   8.275  11.942 -0.8371  0.2891 -0.0853
  519MOL0     C68418   6.002   8.401  12.022  0.7340 -1.1261  0.3914
  519MOL0     C68419   6.086   8.375  12.145  0.4171 -0.3418  0.5396
  519MOL0    Cl68420   6.074   8.508  12.263 -0.2758 -0.3149 -0.8291
  519MOL0     C68421   6.221   7.827  11.460  0.7941  0.3501  0.0969
  519MOL0     C68422   6.331   7.755  11.418 -0.0858 -0.2897 -0.6256
  519MOL0     O68423   6.318   7.419  11.281 -0.1961 -0.4343 -0.3375
  519MOL0     C68424   6.662   7.465  11.261 -0.8378  0.0471 -0.3920
  519MOL0     C68425   6.785   7.433  11.212 -0.5386  0.2525  0.2917
  519MOL0     N68426   7.155   6.743  11.186  0.5951  0.7891 -0.4250
  519MOL0     N68427   7.187   6.615  11.184  0.2293 -0.6816  0.0326
  519MOL0     C68428   8.223   6.409  10.702  0.5258  1.1207  0.0888
  519MOL0     C68429   8.356   6.430  10.685 -0.9789 -0.6993 -0.7927
  519MOL0     C68430   8.785   6.377  10.730 -0.7064  0.5851 -0.0351
  519MOL0     C68431   8.859   6.370  10.615 -0.5954 -0.1336 -0.0016
  519MOL0     C68432   8.995   6.412  10.602 -0.7851 -0.7080 -1.3664
  519MOL0     C68433   9.068   6.444  10.717  0.2366 -0.2399 -0.3311
  519MOL0     O68434   9.198   6.486  10.699  0.2655  0.6304 -0.4728
  519MOL0     C68435   9.295   6.403  10.772  0.4075  0.0534  0.2097
  519MOL0     C68436   9.428   6.480  10.775 -0.7746  0.3232  0.1530
  519MOL0     C68437   9.536   6.384  10.841 -0.9472 -0.3806 -0.4071
  519MOL0     C68438   9.614   6.461  10.952  0.2305  0.4234  1.1161
  519MOL0     C68439   9.533   6.508  11.062  0.5422 -0.9954  0.2006
  519MOL0     C68440   9.477   6.553  11.165 -0.1927  0.3310 -0.1882
  519MOL0     C68441   8.997   6.439  10.840  0.7896 -1.2456  0.6495
  519MOL0     C68442   8.860   6.412  10.850  0.5071 -0.6309  0.2366
  519MOL0     H68443   8.461   6.140  10.579  3.6667  2.8435  2.4405
  519MOL0     H68444   8.206   6.067  10.626  0.5907  0.7125 -3.4238
  519MOL0     H68445   8.020   6.076  10.735 -0.2497 -0.0499 -0.3642
  519MOL0     H68446   7.960   6.131  10.583  1.5921 -1.5178 -0.1408
  519MOL0     H68447   7.768   6.090  10.678 -2.5203 -0.5402  3.5254
  519MOL0     H68448   7.776   6.265  10.727  0.5473  2.3117  3.6733
  519MOL0     H68449   7.834   6.201  10.947 -0.6212  0.6832 -0.8672
  519MOL0     H68450   7.850   6.027  10.892  0.1030 -0.5685 -2.3268
  519MOL0     H68451   7.591   6.057  10.843 -0.3473 -1.3271  2.0927
  519MOL0     H68452   7.648   6.062  11.008  0.5073 -2.7042 -1.0411
  519MOL0     H68453   7.598   6.327  10.841 -2.6545  2.5209  0.4575
  519MOL0     H68454   7.648   6.317  11.008 -2.8393 -1.6333  3.2092
  519MOL0     H68455   7.441   6.212  11.066 -2.8972 -0.9091 -1.3111
  519MOL0     H68456   7.370   6.221  10.906  0.1000 -0.5192 -0.1986
  519MOL0     H68457   7.464   6.454  11.072 -2.2353  0.7601  1.0410
  519MOL0     H68458   7.430   6.459  10.896 -0.6504  2.4302  2.0445
  519MOL0     H68459   7.237   6.372  11.118  2.5894 -0.7297 -0.0927
  519MOL0     H68460   7.200   6.372  10.954  1.1424 -1.5329  1.3765
  519MOL0     H68461   7.247   6.681  10.873  1.2075  0.7637  0.2658
  519MOL0     H68462   7.179   6.970  10.925  2.1119  1.0345  1.5997
  519MOL0     H68463   7.177   7.003  11.096 -3.6815  0.6810  0.6988
  519MOL0     H68464   6.935   6.854  11.037 -0.7641  0.2772 -0.8977
  519MOL0     H68465   6.957   6.943  10.890 -3.3224  1.5975  1.6923
  519MOL0     H68466   6.801   7.036  11.051 -0.2528  1.4102 -0.5548
  519MOL0     H68467   6.941   7.054  11.164 -0.0349 -2.9252 -0.4234
  519MOL0     H68468   6.900   7.208  10.897  3.5353  0.6436 -0.3873
  519MOL0     H68469   7.052   7.184  10.971  0.4836 -2.4096  2.9942
  519MOL0     H68470   6.680   7.190  11.003  0.1894  0.9861  0.1063
  519MOL0     H68471   6.475   7.255  11.069  2.8932 -0.7806 -1.6251
  519MOL0     H68472   6.237   7.683  11.103 -3.4575  1.4069 -0.7911
  519MOL0     H68473   6.037   7.816  11.174 -0.8665  3.4656 -0.1490
  519MOL0     H68474   6.079   8.079  11.487  1.5495 -0.9742  3.5963
  519MOL0     H68475   6.000   7.950  11.592 -0.1738 -2.5107 -1.1365
  519MOL0     H68476   5.798   8.013  11.539 -0.9327  0.4864 -1.5046
  519MOL0     H68477   5.847   8.114  11.400  0.5166 -1.8625  0.1358
  519MOL0     H68478   5.786   8.255  11.600  0.0451 -0.3568  0.9956
  519MOL0     H68479   5.945   8.290  11.537 -1.9045  0.5736 -0.0804
  519MOL0     H68480   5.862   8.104  11.763  0.2774 -0.9681 -0.2857
  519MOL0     H68481   6.034   8.140  11.709 -0.7027  0.0438 -1.8521
  519MOL0     H68482   5.831   8.347  11.817 -2.8364 -3.1706 -2.9548
  519MOL0     H68483   5.998   8.360  11.759  0.0351 -2.2065 -1.3377
  519MOL0     H68484   6.093   8.229  11.930 -2.0625 -2.1099 -1.6402
  519MOL0     H68485   5.937   8.203  12.001 -1.7029  0.9352 -0.1220
  519MOL0     H68486   6.047   8.488  11.973 -2.2755  1.5861  2.0479
  519MOL0     H68487   5.901   8.429  12.051  1.1583  0.7281  0.2162
  519MOL0     H68488   6.190   8.342  12.136 -0.5711 -4.4771  2.0581
  519MOL0     H68489   6.031   8.289  12.185 -2.1950  0.2770 -1.4393
  519MOL0     H68490   6.220   7.857  11.564  2.4493 -0.3751  0.3440
  519MOL0     H68491   6.423   7.753  11.477 -0.3417  0.0430 -0.2123
  519MOL0     H68492   6.664   7.535  11.343  1.5580  0.2346 -0.5302
  519MOL0     H68493   6.875   7.485  11.245  0.6884 -0.9861 -0.9668
  519MOL0     H68494   8.159   6.487  10.742 -0.2249  0.5107  0.0907
  519MOL0     H68495   8.399   6.526  10.712  2.8540 -3.1419  2.8418
  519MOL0     H68496   8.811   6.355  10.519  1.7736  2.7843 -1.8384
  519MOL0     H68497   9.042   6.421  10.505  0.6056  1.0030 -0.6013
  519MOL0     H68498   9.285   6.314  10.709 -4.3001  2.0679 -2.4052
  519MOL0     H68499   9.265   6.390  10.877  0.6871  0.2568  0.3159
  519MOL0     H68500   9.470   6.508  10.678 -0.1969 -3.3602 -0.8280
  519MOL0     H68501   9.416   6.570  10.835  1.0306  1.6936 -1.4037
  519MOL0     H68502   9.614   6.361  10.768 -0.7980  0.5073 -0.5338
  519MOL0     H68503   9.499   6.287  10.874  0.1600 -1.3332 -1.8302
  519MOL0     H68504   9.697   6.402  10.992  0.0036 -1.0934 -0.5332
  519MOL0     H68505   9.651   6.551  10.901 -2.0393  1.5887  1.3727
  519MOL0     H68506   9.422   6.608  11.239  0.5183  0.8473 -0.0358
  519MOL0     H68507   9.051   6.480  10.924  0.9637  0.5756 -0.2994
  519MOL0     H68508   8.815   6.422  10.948 -0.6744  1.1262 -0.4328
  520MOL0     O68509   3.297   1.096   6.340 -0.0047  0.3230 -0.3389
  520MOL0     C68510   3.222   1.192   6.296 -0.7156  0.1241 -0.5482
  520MOL0     O68511   3.096   1.170   6.253 -0.2251 -0.2605 -1.4429
  520MOL0     C68512   3.037   1.049   6.285 -0.1459 -0.0239  0.4338
  520MOL0     C68513   3.034   0.948   6.186 -0.4904 -0.0867  0.1207
  520MOL0     C68514   2.981   0.827   6.225  0.5086 -0.2019  1.2690
  520MOL0     C68515   2.931   0.797   6.348  0.2692  0.4733  0.9293
  520MOL0     O68516   2.884   0.672   6.370 -0.6237  0.4511  0.0019
  520MOL0     C68517   2.826   0.640   6.495  0.3514  0.3305  0.3305
  520MOL0     C68518   2.730   0.522   6.470 -0.8057  0.5842  0.8707
  520MOL0     C68519   2.647   0.476   6.585 -0.1914  0.2999 -0.0593
  520MOL0     C68520   2.728   0.439   6.708 -0.6991  1.0010 -0.1126
  520MOL0     C68521   2.657   0.367   6.817  1.0019  0.3979  0.1328
  520MOL0     C68522   2.754   0.331   6.927  1.1337  0.7918 -0.1680
  520MOL0     C68523   2.679   0.244   7.033 -0.7093  0.5249 -0.6892
  520MOL0     C68524   2.655   0.100   6.984  0.2423  0.9291  0.7058
  520MOL0     N68525   2.759   0.003   7.003  0.0986  0.2384  0.6493
  520MOL0     C68526   2.891   0.029   7.011  0.4069 -1.1882  0.6981
  520MOL0     C68527   2.953  -0.083   7.061 -0.8973  0.0412  0.2440
  520MOL0     C68528   3.108  -0.098   7.082  1.1862 -0.7727  0.2594
  520MOL0     C68529   3.148  -0.048   7.225  0.2385 -0.0770  1.0067
  520MOL0     C68530   3.244   0.079   7.212 -0.2353 -0.4780 -0.3421
  520MOL0     C68531   3.319   0.091   7.343  0.1982  0.3104 -0.0352
  520MOL0     O68532   3.254   0.201   7.408 -0.1728  0.0395  0.3973
  520MOL0     C68533   3.334   0.322   7.424  0.3992  0.6109  0.1186
  520MOL0     C68534   3.337   0.377   7.547  0.4601 -0.9643 -0.9858
  520MOL0     C68535   3.412   0.495   7.573  0.2852  0.0419  0.6818
  520MOL0     C68536   3.484   0.557   7.469  0.6873 -0.7359  0.0159
  520MOL0     C68537   3.557   0.687   7.487 -0.5471  0.3479  0.0451
  520MOL0     O68538   3.539   0.737   7.610  0.0459 -0.0290 -0.8566
  520MOL0     C68539   3.612   0.844   7.657  0.7236 -0.0684 -0.3798
  520MOL0     C68540   3.650   0.835   7.787 -0.1629  0.0529 -0.0637
  520MOL0     C68541   3.725   0.942   7.853 -0.0461  0.5270  0.5454
  520MOL0     C68542   3.754   1.065   7.777 -0.3050 -0.1867 -0.2583
  520MOL0     O68543   3.835   1.147   7.847  0.2333  0.2283  0.2545
  520MOL0     C68544   3.935   1.213   7.777 -1.0445  0.6866  0.5744
  520MOL0     C68545   4.022   1.286   7.881 -0.6534  0.6768  0.3090
  520MOL0     C68546   4.095   1.405   7.812 -0.0261 -0.6938 -0.0684
  520MOL0     C68547   4.188   1.482   7.905  0.3949 -0.9303 -0.6584
  520MOL0     C68548   4.225   1.625   7.856  0.0198 -0.1909 -0.0369
  520MOL0     C68549   4.345   1.611   7.760 -0.5289 -0.2951  0.2985
  520MOL0     C68550   4.393   1.739   7.696  0.1057  0.9771 -0.6098
  520MOL0     C68551   4.547   1.746   7.658 -0.7028  0.3208 -0.2413
  520MOL0    Cl68552   4.605   1.921   7.658  0.0232  0.5207  0.0669
  520MOL0     C68553   3.710   1.070   7.642 -0.6470  0.4073 -1.1772
  520MOL0     C68554   3.648   0.963   7.576  0.2337 -0.6313 -0.4374
  520MOL0     O68555   3.631   0.734   7.399  0.3082 -0.3565  0.8767
  520MOL0     C68556   3.478   0.496   7.341  0.1409  0.4334 -0.5566
  520MOL0     C68557   3.403   0.376   7.318 -0.2056 -0.2500  0.1191
  520MOL0     N68558   2.850  -0.177   7.086  0.6396  0.4701 -0.1602
  520MOL0     N68559   2.739  -0.129   7.039  0.3659  0.0503  0.2508
  520MOL0     C68560   2.937   0.897   6.442 -0.5324 -0.2139  0.3280
  520MOL0     C68561   2.984   1.025   6.414 -0.8550 -0.7539 -0.0729
  520MOL0     C68562   3.290   1.323   6.267  0.4728 -0.0711 -0.4535
  520MOL0     C68563   3.220   1.432   6.202  1.2031 -0.5688 -0.0094
  520MOL0     C68564   3.288   1.547   6.189 -0.2600 -0.9150  0.6555
  520MOL0     C68565   3.428   1.568   6.215  0.4197 -0.7205 -1.0960
  520MOL0     O68566   3.511   1.674   6.202  0.6103 -0.1254  0.0951
  520MOL0     C68567   3.550   1.731   6.067 -0.1672  0.8672 -0.8965
  520MOL0     C68568   3.437   1.793   5.987  0.0259 -0.3060  0.1357
  520MOL0     C68569   3.426   1.941   6.011 -0.1595 -0.7668  0.1755
  520MOL0     C68570   3.285   1.994   5.959 -0.2409 -0.5022  0.3850
  520MOL0     C68571   3.170   1.911   5.988  0.6196 -0.6369  0.8041
  520MOL0     C68572   3.068   1.848   6.002  0.4337  0.5511 -0.2843
  520MOL0     C68573   3.497   1.453   6.255 -0.0519 -0.6017 -0.2586
  520MOL0     C68574   3.426   1.340   6.291  0.2819  0.2729  0.1848
  520MOL0     H68575   3.068   0.958   6.083  1.6406 -0.8985  0.7107
  520MOL0     H68576   2.972   0.749   6.150 -2.5337 -0.0563  1.3814
  520MOL0     H68577   2.755   0.718   6.525  0.4607  1.0543 -1.2034
  520MOL0     H68578   2.899   0.613   6.571 -0.8837 -1.8052  0.8650
  520MOL0     H68579   2.795   0.442   6.432 -0.1778  2.1737 -1.7098
  520MOL0     H68580   2.652   0.546   6.397 -0.0016 -0.5985 -0.4325
  520MOL0     H68581   2.606   0.382   6.546  3.3600 -0.5579 -2.2309
  520MOL0     H68582   2.565   0.546   6.603 -0.3979  1.0214 -3.2157
  520MOL0     H68583   2.812   0.375   6.677 -0.6128  1.2659 -0.4398
  520MOL0     H68584   2.777   0.530   6.743  2.0112  0.6593 -2.5718
  520MOL0     H68585   2.625   0.272   6.774  0.7198  0.9138 -0.8287
  520MOL0     H68586   2.580   0.431   6.862  2.0021 -0.0929  2.7063
  520MOL0     H68587   2.795   0.421   6.974 -0.0025 -0.1083  2.7584
  520MOL0     H68588   2.840   0.275   6.888 -0.3383 -1.5852 -0.2041
  520MOL0     H68589   2.746   0.250   7.119 -2.3017 -0.1860  0.6788
  520MOL0     H68590   2.589   0.297   7.066 -0.7928 -0.1954  0.2712
  520MOL0     H68591   2.628   0.094   6.878 -0.8429  1.7650  0.9169
  520MOL0     H68592   2.570   0.050   7.033 -0.2879  0.9653 -0.1498
  520MOL0     H68593   2.934   0.121   6.973  2.5430 -3.9087 -4.5820
  520MOL0     H68594   3.168  -0.050   7.004  2.0551  1.0881  1.9890
  520MOL0     H68595   3.124  -0.206   7.079  2.0515 -0.6296 -0.6487
  520MOL0     H68596   3.195  -0.130   7.278 -0.5911 -0.1954  1.5701
  520MOL0     H68597   3.059  -0.014   7.279 -2.1058 -5.2385  0.9768
  520MOL0     H68598   3.313   0.072   7.127 -1.3180 -1.8611 -1.1599
  520MOL0     H68599   3.178   0.164   7.193 -1.8240 -1.1270  1.9119
  520MOL0     H68600   3.426   0.112   7.333 -0.0679  3.9581  2.6293
  520MOL0     H68601   3.310   0.001   7.405 -0.0983  0.4289  0.0987
  520MOL0     H68602   3.287   0.337   7.635 -1.6699  1.0901 -1.1590
  520MOL0     H68603   3.416   0.543   7.670  5.1227  0.1251  0.7126
  520MOL0     H68604   3.627   0.747   7.845  0.8865  1.5148  2.7535
  520MOL0     H68605   3.761   0.924   7.953 -0.7758 -0.4856  0.6430
  520MOL0     H68606   3.884   1.290   7.720 -2.5318 -0.0280  0.8764
  520MOL0     H68607   3.999   1.146   7.719 -0.9978 -0.1090  1.5128
  520MOL0     H68608   4.097   1.223   7.929 -0.8884  0.5497  0.5147
  520MOL0     H68609   3.960   1.328   7.960 -2.0184  2.2623 -1.5074
  520MOL0     H68610   4.022   1.475   7.771 -0.8097 -0.6993  1.2390
  520MOL0     H68611   4.162   1.378   7.731  0.8329  0.9467  0.0605
  520MOL0     H68612   4.137   1.497   8.000  3.0081  0.3369  0.6743
  520MOL0     H68613   4.277   1.424   7.932  2.7150  3.2255  1.6664
  520MOL0     H68614   4.262   1.697   7.929  1.2200  0.9725 -1.7090
  520MOL0     H68615   4.137   1.670   7.810 -0.3322 -0.8873 -0.0543
  520MOL0     H68616   4.314   1.544   7.679 -0.6810  2.4422 -2.0974
  520MOL0     H68617   4.426   1.572   7.822 -0.8606 -0.7253  0.4651
  520MOL0     H68618   4.339   1.761   7.603  0.6459  0.4865 -1.0495
  520MOL0     H68619   4.366   1.828   7.754 -2.4284  0.5335 -1.0023
  520MOL0     H68620   4.563   1.709   7.556 -3.9504  0.7191 -0.9930
  520MOL0     H68621   4.603   1.695   7.737 -2.3205 -1.2361 -0.0349
  520MOL0     H68622   3.720   1.166   7.594 -0.0150  0.4119 -1.0477
  520MOL0     H68623   3.645   0.973   7.468  2.5280  0.1221 -0.4895
  520MOL0     H68624   3.537   0.517   7.252 -0.7010 -3.7044 -2.3067
  520MOL0     H68625   3.412   0.327   7.222  1.8360  1.2387 -0.5328
  520MOL0     H68626   2.904   0.871   6.543 -0.6267 -1.5436 -0.0235
  520MOL0     H68627   2.969   1.115   6.471 -0.1578 -1.2929  0.9868
  520MOL0     H68628   3.114   1.426   6.180  0.7729 -0.8591  1.9594
  520MOL0     H68629   3.236   1.636   6.155  0.9223 -1.0489 -1.7089
  520MOL0     H68630   3.590   1.644   6.014 -0.9263 -0.1295  0.1246
  520MOL0     H68631   3.631   1.805   6.072  1.6665 -1.1369  1.2434
  520MOL0     H68632   3.455   1.782   5.880  0.1419 -0.5064  0.1737
  520MOL0     H68633   3.340   1.745   5.999 -1.6518  2.6712 -0.5028
  520MOL0     H68634   3.514   1.976   5.955  0.8609  0.0643  2.1774
  520MOL0     H68635   3.434   1.972   6.115  0.2049 -1.2777  0.3069
  520MOL0     H68636   3.276   2.099   5.987  1.9412 -0.7610  2.3476
  520MOL0     H68637   3.291   2.000   5.850  4.0132  2.0619  0.5440
  520MOL0     H68638   2.974   1.796   6.002  1.0140 -0.5612 -1.4928
  520MOL0     H68639   3.605   1.464   6.265  0.3825 -2.5094 -2.1538
  520MOL0     H68640   3.482   1.254   6.329 -0.7831 -0.7399 -0.4529
  521MOL0     O68641   0.663   9.927   9.074  0.9144 -0.9283  0.3835
  521MOL0     C68642   0.595  10.030   9.071 -0.0527 -0.3173 -0.1387
  521MOL0     O68643   0.636  10.156   9.103  0.5484 -0.6002  0.4728
  521MOL0     C68644   0.771  10.174   9.112 -0.5259 -0.8055 -0.2496
  521MOL0     C68645   0.836  10.231   9.226  0.0400 -0.4870  0.0929
  521MOL0     C68646   0.974  10.231   9.247  0.3274 -0.6075 -0.1591
  521MOL0     C68647   1.052  10.203   9.136 -0.5741 -0.4219 -0.7337
  521MOL0     O68648   1.189  10.214   9.167  0.2545  0.8931 -0.3127
  521MOL0     C68649   1.272  10.104   9.134  0.4478  0.3259 -0.1486
  521MOL0     C68650   1.390  10.114   9.235 -0.6180 -0.1235 -0.6165
  521MOL0     C68651   1.526  10.113   9.165 -1.2860  0.1492 -0.2083
  521MOL0     C68652   1.641  10.070   9.261  0.4658  1.0930 -0.4154
  521MOL0     C68653   1.779  10.089   9.197  0.7643  0.2530 -0.3928
  521MOL0     C68654   1.824  10.239   9.213 -0.1479 -0.1393  0.0710
  521MOL0     C68655   1.947  10.262   9.118  0.4414  0.6160 -0.1310
  521MOL0     C68656   2.056  10.144   9.123  0.7263  0.3257 -1.2567
  521MOL0     N68657   2.024  10.029   9.039  0.4263  0.5568  0.8757
  521MOL0     C68658   1.996  10.031   8.903  0.1782 -1.1776 -0.2208
  521MOL0     C68659   1.992   9.903   8.861  0.3424 -0.4798  0.1723
  521MOL0     C68660   1.976   9.846   8.725  0.3237  0.0424 -0.4089
  521MOL0     C68661   1.845   9.881   8.656 -0.4543 -0.4011 -0.8585
  521MOL0     C68662   1.837   9.898   8.503 -1.5475 -0.1655  0.7702
  521MOL0     C68663   1.702   9.878   8.439 -0.1545  0.0520  0.3739
  521MOL0     O68664   1.726   9.893   8.300  0.0586  0.6618 -0.2330
  521MOL0     C68665   1.636   9.836   8.215  0.5483 -0.3277  0.1391
  521MOL0     C68666   1.506   9.883   8.218 -0.0987 -0.4550  0.2164
  521MOL0     C68667   1.414   9.834   8.124  0.3665  0.6774  0.1726
  521MOL0     C68668   1.446   9.732   8.029  0.0699  0.4487  0.1044
  521MOL0     C68669   1.347   9.677   7.938  0.0821  0.2913  0.6761
  521MOL0     O68670   1.219   9.708   7.975 -0.1142  0.4907  0.3430
  521MOL0     C68671   1.101   9.654   7.916 -0.4007  1.0669 -0.1826
  521MOL0     C68672   0.989   9.655   8.007 -0.0018  0.0746 -0.2457
  521MOL0     C68673   0.861   9.636   7.960  0.1085 -0.2714  0.5715
  521MOL0     C68674   0.845   9.611   7.821 -0.8474 -0.5876  1.1220
  521MOL0     O68675   0.718   9.609   7.773  0.7213 -0.2611 -1.0179
  521MOL0     C68676   0.696   9.579   7.634  0.4078  0.7038  0.2509
  521MOL0     C68677   0.547   9.582   7.625 -0.9272 -0.1672 -0.4644
  521MOL0     C68678   0.486   9.590   7.480  0.1477 -0.0486 -0.9134
  521MOL0     C68679   0.366   9.491   7.462  0.6882  0.6208  0.9779
  521MOL0     C68680   0.385   9.347   7.504 -0.0306 -0.5710  0.5497
  521MOL0     C68681   0.504   9.277   7.438 -0.7624 -0.1211  0.1410
  521MOL0     C68682   0.505   9.124   7.479  0.3486 -0.6179  0.1998
  521MOL0     C68683   0.622   9.073   7.560  0.3516  0.6156  0.7531
  521MOL0    Cl68684   0.605   9.132   7.713  0.3463 -0.3469 -0.1179
  521MOL0     C68685   0.957   9.604   7.735  0.6275  0.0088  0.2694
  521MOL0     C68686   1.086   9.619   7.782 -0.2385 -0.0476 -0.8256
  521MOL0     O68687   1.373   9.611   7.842  0.0567  0.0140  0.0681
  521MOL0     C68688   1.582   9.690   8.025  0.0014  0.4304  0.1283
  521MOL0     C68689   1.680   9.744   8.119 -0.0116  0.4462  0.1028
  521MOL0     N68690   2.025   9.827   8.960  0.5703  0.2450 -0.1481
  521MOL0     N68691   2.044   9.905   9.065  0.0373  0.2519  0.1841
  521MOL0     C68692   0.999  10.164   9.015  0.2999  0.1765  0.2642
  521MOL0     C68693   0.857  10.142   9.009  0.1677 -0.3267  0.3744
  521MOL0     C68694   0.455  10.026   9.007 -0.5918  1.0874  0.8293
  521MOL0     C68695   0.416   9.928   8.914  0.2231 -0.3651 -0.0727
  521MOL0     C68696   0.288   9.928   8.861 -0.8013 -0.0512  0.0401
  521MOL0     C68697   0.182  10.003   8.913  0.5892 -0.2576  0.3519
  521MOL0     O68698   0.048   9.997   8.866  0.3844 -0.2119 -0.4233
  521MOL0     C68699   0.009   9.905   8.767  0.9556  1.2167 -0.1856
  521MOL0     C68700  -0.026   9.767   8.827 -0.3457  0.1824 -0.9670
  521MOL0     C68701  -0.144   9.777   8.939 -0.1287 -0.8855 -0.1802
  521MOL0     C68702  -0.119   9.656   9.022  0.1852  0.9926  0.6349
  521MOL0     C68703  -0.173   9.525   8.972  0.5705  0.4096  0.6693
  521MOL0     C68704  -0.236   9.430   8.937 -0.2848  1.0086  0.1488
  521MOL0     C68705   0.223  10.108   9.000  0.3701 -0.0173  0.7722
  521MOL0     C68706   0.359  10.121   9.048  0.3766 -0.2276  0.6397
  521MOL0     H68707   0.766  10.251   9.307 -0.2303 -1.2032  0.0421
  521MOL0     H68708   1.011  10.254   9.346  2.8670  1.9351 -1.5466
  521MOL0     H68709   1.296  10.116   9.028 -4.2612  1.4230 -1.3497
  521MOL0     H68710   1.216  10.010   9.129 -1.8065  1.5653 -0.0129
  521MOL0     H68711   1.380  10.032   9.307 -0.9591  1.8790  1.7131
  521MOL0     H68712   1.391  10.202   9.300  2.6813 -1.4508  1.4206
  521MOL0     H68713   1.537  10.216   9.129  2.5924 -0.4039 -1.0364
  521MOL0     H68714   1.526  10.053   9.073 -2.5247 -0.6786  0.2978
  521MOL0     H68715   1.635  10.140   9.345  0.5179  1.8468 -1.0394
  521MOL0     H68716   1.629   9.967   9.296  1.3473  1.6731  1.8383
  521MOL0     H68717   1.779  10.073   9.088  2.5733  1.4243 -0.5981
  521MOL0     H68718   1.849  10.017   9.239  0.1596 -0.6295 -0.8483
  521MOL0     H68719   1.845  10.253   9.320 -1.3474 -2.9474  0.7763
  521MOL0     H68720   1.750  10.314   9.183  3.0276  2.5867 -1.6395
  521MOL0     H68721   1.926  10.277   9.011  1.1863  1.1669 -0.2079
  521MOL0     H68722   1.996  10.359   9.119  0.2377  0.7178  0.2890
  521MOL0     H68723   2.050  10.103   9.225 -2.5020  1.5541 -0.8311
  521MOL0     H68724   2.158  10.172   9.096  0.2704  1.3365 -1.9627
  521MOL0     H68725   1.991  10.119   8.839 -1.8162 -0.1522  1.2265
  521MOL0     H68726   1.983   9.737   8.732  0.6860  0.1366  0.9304
  521MOL0     H68727   2.058   9.872   8.657 -1.3328  1.0296 -2.1209
  521MOL0     H68728   1.815   9.974   8.706  3.1687 -0.4495  1.7813
  521MOL0     H68729   1.778   9.802   8.691  3.2137 -3.6226 -0.4540
  521MOL0     H68730   1.878   9.994   8.469 -3.1885 -0.0431 -1.1418
  521MOL0     H68731   1.907   9.826   8.460  2.2038  3.0498  0.9149
  521MOL0     H68732   1.632   9.954   8.475  0.7719  0.8861  0.4710
  521MOL0     H68733   1.669   9.774   8.452 -1.5094  0.5305  0.9224
  521MOL0     H68734   1.485   9.950   8.301  1.5491  1.7930 -1.0722
  521MOL0     H68735   1.315   9.875   8.140 -0.3296 -0.7855 -0.3062
  521MOL0     H68736   1.006   9.699   8.105 -2.3342  2.2320 -0.7067
  521MOL0     H68737   0.777   9.631   8.028 -0.3766  0.0508  0.0019
  521MOL0     H68738   0.730   9.481   7.600 -0.6886  0.4730 -0.2397
  521MOL0     H68739   0.751   9.648   7.569  4.0437 -1.5702  0.6236
  521MOL0     H68740   0.527   9.677   7.676  2.1175  2.0024 -2.9288
  521MOL0     H68741   0.506   9.494   7.676 -0.2645 -0.3683 -0.2627
  521MOL0     H68742   0.568   9.556   7.416 -0.3432 -1.7020 -0.7080
  521MOL0     H68743   0.460   9.694   7.460 -1.0704 -0.3418 -0.9823
  521MOL0     H68744   0.272   9.519   7.510 -2.1042  0.9414 -4.0110
  521MOL0     H68745   0.345   9.493   7.355  3.8743 -1.1730  0.1767
  521MOL0     H68746   0.300   9.287   7.469  0.2339 -0.7679  0.2417
  521MOL0     H68747   0.398   9.343   7.612 -2.1532  0.9804  0.9411
  521MOL0     H68748   0.595   9.313   7.487  0.9029 -3.1083 -0.5553
  521MOL0     H68749   0.510   9.287   7.329  3.7543  1.6403  0.3117
  521MOL0     H68750   0.407   9.113   7.528 -0.7561 -3.1620 -2.2525
  521MOL0     H68751   0.498   9.060   7.391 -5.5577 -1.8271  1.1117
  521MOL0     H68752   0.715   9.103   7.510 -0.0931  0.9250  0.0951
  521MOL0     H68753   0.620   8.964   7.574  2.9198  0.2270 -1.1031
  521MOL0     H68754   0.953   9.590   7.627 -1.4232 -2.4064  0.5710
  521MOL0     H68755   1.165   9.626   7.708 -0.6660  2.4684 -1.1452
  521MOL0     H68756   1.610   9.617   7.950 -0.7916  1.2996 -1.0475
  521MOL0     H68757   1.781   9.703   8.130 -0.2901 -0.4604 -0.5784
  521MOL0     H68758   1.056  10.143   8.925 -1.4062 -2.8801 -0.2757
  521MOL0     H68759   0.818  10.099   8.918  0.2074 -0.3117  0.3498
  521MOL0     H68760   0.482   9.845   8.893 -2.8487 -3.2059  0.6859
  521MOL0     H68761   0.277   9.855   8.781  0.5505 -1.5856  1.1957
  521MOL0     H68762   0.093   9.894   8.698  2.3194 -0.7705  1.6447
  521MOL0     H68763  -0.078   9.953   8.720  1.5279  1.8320 -0.6364
  521MOL0     H68764  -0.069   9.711   8.744 -3.8542 -1.1390  1.4977
  521MOL0     H68765   0.066   9.723   8.869 -1.0074  2.1009  3.0224
  521MOL0     H68766  -0.243   9.764   8.892 -1.0940 -1.6307  1.9508
  521MOL0     H68767  -0.145   9.874   8.989 -2.2973 -1.1226  0.3491
  521MOL0     H68768  -0.013   9.645   9.048  0.1733 -0.4217  0.1764
  521MOL0     H68769  -0.171   9.671   9.117 -2.0932  0.7982 -0.5109
  521MOL0     H68770  -0.299   9.348   8.911 -0.3230  0.3428  2.1513
  521MOL0     H68771   0.156  10.183   9.041  1.3829  1.5860 -0.3888
  521MOL0     H68772   0.400  10.195   9.115  1.8281  0.2705 -0.7350
  522MOL0     O68773   9.830   0.203   8.977  0.2543 -0.0291  0.8657
  522MOL0     C68774   9.852   0.178   8.864  0.0376  0.6069  0.9473
  522MOL0     O68775   9.878   0.272   8.772 -0.5623 -0.7010  0.3000
  522MOL0     C68776   9.936   0.388   8.808  0.2426  0.6645 -0.4181
  522MOL0     C68777  10.049   0.435   8.741 -0.6124 -0.3327 -0.2874
  522MOL0     C68778  10.130   0.540   8.791 -0.2842 -0.1450 -0.0193
  522MOL0     C68779  10.087   0.614   8.905 -0.2014 -0.0646  0.4030
  522MOL0     O68780  10.166   0.722   8.942 -0.4937  0.4761 -0.1118
  522MOL0     C68781  10.234   0.700   9.071  0.0443 -0.4162 -0.1863
  522MOL0     C68782  10.311   0.825   9.128 -0.0969  0.1828 -0.0319
  522MOL0     C68783  10.437   0.861   9.043 -0.6363 -0.9459  0.2569
  522MOL0     C68784  10.431   0.866   8.890  1.4525 -0.5991 -0.6083
  522MOL0     C68785  10.557   0.937   8.834 -0.1832 -1.2557  0.2194
  522MOL0     C68786  10.571   0.911   8.680  0.0458 -0.1887 -0.4427
  522MOL0     C68787  10.703   0.964   8.629 -0.9568 -0.1556 -0.3753
  522MOL0     C68788  10.696   0.947   8.475 -0.3038 -0.1766  0.3180
  522MOL0     N68789  10.572   1.006   8.413 -0.7502 -0.4498 -0.0601
  522MOL0     C68790  10.525   1.133   8.432  0.1025  0.7449 -1.0102
  522MOL0     C68791  10.420   1.141   8.341 -1.0029 -0.1996  0.2367
  522MOL0     C68792  10.342   1.268   8.314 -0.7513  0.1154 -0.8598
  522MOL0     C68793  10.389   1.349   8.183  0.0443  1.0902 -0.7650
  522MOL0     C68794  10.417   1.271   8.051  1.6499  0.6233 -0.2463
  522MOL0     C68795  10.289   1.229   7.975  0.0605  0.7569  0.2152
  522MOL0     O68796  10.239   1.336   7.895 -0.4013  0.1098 -0.7537
  522MOL0     C68797  10.105   1.351   7.883  0.2192 -0.8069 -0.0532
  522MOL0     C68798  10.058   1.481   7.906 -0.1050 -0.3405  1.3193
  522MOL0     C68799   9.914   1.503   7.913  0.7097  0.3819 -0.3760
  522MOL0     C68800   9.819   1.401   7.880  0.1044  0.1374  0.0344
  522MOL0     C68801   9.674   1.415   7.869 -0.0466 -0.6932 -0.8948
  522MOL0     O68802   9.613   1.518   7.935  0.2296  0.5170  0.9481
  522MOL0     C68803   9.481   1.520   7.920  0.1498 -0.7600  0.4758
  522MOL0     C68804   9.377   1.426   7.963 -0.3586  0.0358  0.3205
  522MOL0     C68805   9.243   1.461   7.944 -0.6408 -0.2037  0.0444
  522MOL0     C68806   9.204   1.584   7.898 -0.3706  0.5047 -0.6701
  522MOL0     O68807   9.071   1.590   7.863 -0.5099 -0.1276 -0.3196
  522MOL0     C68808   9.020   1.718   7.814  0.2488  0.4307  0.4166
  522MOL0     C68809   8.868   1.713   7.804 -0.7424 -0.6878 -0.3725
  522MOL0     C68810   8.807   1.819   7.718 -0.2592  0.3665 -0.4874
  522MOL0     C68811   8.648   1.821   7.712 -1.5606  0.2881 -0.0620
  522MOL0     C68812   8.607   1.941   7.629  0.2269  0.1920  0.2657
  522MOL0     C68813   8.457   1.934   7.618  0.3341 -0.2241  0.8408
  522MOL0     C68814   8.403   2.062   7.547  0.2827  0.2639 -0.1387
  522MOL0     C68815   8.253   2.084   7.556  0.0789 -0.5486 -0.4577
  522MOL0    Cl68816   8.181   1.972   7.439 -0.2141  0.0509 -0.6928
  522MOL0     C68817   9.302   1.683   7.872 -0.0780  0.6941  0.4555
  522MOL0     C68818   9.438   1.651   7.889  0.1486  0.9061 -0.5064
  522MOL0     O68819   9.616   1.316   7.820  0.2659  0.1213  0.3490
  522MOL0     C68820   9.875   1.276   7.877 -0.6885 -0.2184  0.6868
  522MOL0     C68821  10.010   1.245   7.873 -0.0042  0.0878  0.4976
  522MOL0     N68822  10.397   1.018   8.282  0.3961  0.1672  0.2387
  522MOL0     N68823  10.482   0.933   8.334  0.3946  0.7396 -0.0292
  522MOL0     C68824   9.972   0.578   8.965  0.1576 -0.2686 -0.6713
  522MOL0     C68825   9.901   0.466   8.928 -0.1171 -0.0627  0.9810
  522MOL0     C68826   9.829   0.037   8.825  0.0790 -0.9604 -0.1992
  522MOL0     C68827   9.837  -0.065   8.929 -0.3525 -0.5462  0.2658
  522MOL0     C68828   9.813  -0.204   8.896 -1.0639 -0.2766  0.0474
  522MOL0     C68829   9.778  -0.243   8.764 -0.1936  0.5652  0.0201
  522MOL0     O68830   9.764  -0.374   8.728  0.6887  0.0721 -0.3013
  522MOL0     C68831   9.749  -0.418   8.593 -0.1212  0.5091 -0.4461
  522MOL0     C68832   9.760  -0.571   8.575 -0.3669  0.0845 -0.4651
  522MOL0     C68833   9.889  -0.629   8.647  0.2021  0.5588  0.2746
  522MOL0     C68834   9.897  -0.784   8.661  0.4767  0.5722  1.3402
  522MOL0     C68835   9.812  -0.836   8.773 -0.1495 -0.2293  0.0544
  522MOL0     C68836   9.739  -0.889   8.855 -1.1328  0.4883 -0.8756
  522MOL0     C68837   9.768  -0.141   8.668 -0.1876 -0.1132  0.3090
  522MOL0     C68838   9.794  -0.011   8.699 -0.4223 -0.6092  0.1049
  522MOL0     H68839  10.081   0.374   8.657 -0.0875 -2.1064  1.1331
  522MOL0     H68840  10.220   0.571   8.737 -0.7616 -1.1342 -1.4283
  522MOL0     H68841  10.307   0.620   9.057 -0.1825 -1.0674  1.9185
  522MOL0     H68842  10.160   0.662   9.143  0.1512  0.0279  0.1655
  522MOL0     H68843  10.342   0.812   9.233  1.2256  2.3537 -0.0844
  522MOL0     H68844  10.243   0.911   9.125 -0.4656 -0.1222 -3.2816
  522MOL0     H68845  10.518   0.788   9.054 -0.0238 -0.6247 -1.6764
  522MOL0     H68846  10.477   0.952   9.089 -2.8398  0.5905 -0.7124
  522MOL0     H68847  10.432   0.761   8.863  2.4411 -1.5202  2.5902
  522MOL0     H68848  10.335   0.906   8.855 -0.1573 -0.3686  3.5657
  522MOL0     H68849  10.641   0.889   8.884  1.3269  1.6339  0.6794
  522MOL0     H68850  10.560   1.046   8.843 -0.7894 -1.1720 -0.5085
  522MOL0     H68851  10.483   0.946   8.625 -0.0034 -2.2091 -1.7663
  522MOL0     H68852  10.572   0.804   8.655  1.5995 -0.6596  1.3640
  522MOL0     H68853  10.704   1.066   8.668 -1.4868  0.4485 -1.8548
  522MOL0     H68854  10.781   0.902   8.673 -1.2109  0.9568  1.7598
  522MOL0     H68855  10.691   0.843   8.444 -2.3551 -0.2671  0.8215
  522MOL0     H68856  10.785   0.987   8.425 -0.9793 -0.3766 -1.0854
  522MOL0     H68857  10.577   1.213   8.483  1.3778 -1.6112  1.6949
  522MOL0     H68858  10.341   1.340   8.396 -0.6350  0.5388 -1.2284
  522MOL0     H68859  10.238   1.237   8.308 -1.0188  0.2819  1.7419
  522MOL0     H68860  10.474   1.407   8.218 -0.5734  0.8763  1.2342
  522MOL0     H68861  10.311   1.422   8.161  0.3019  1.6405  0.1050
  522MOL0     H68862  10.489   1.327   7.990  1.2026  0.2289 -1.1528
  522MOL0     H68863  10.482   1.185   8.070  0.2275 -0.7191 -1.1743
  522MOL0     H68864  10.213   1.191   8.044 -0.6328 -0.4736 -1.1790
  522MOL0     H68865  10.312   1.147   7.907  0.0914  1.2687 -0.3988
  522MOL0     H68866  10.140   1.551   7.913  1.4862 -2.2605  3.2976
  522MOL0     H68867   9.867   1.600   7.929  3.4889  1.5796  1.3051
  522MOL0     H68868   9.405   1.332   8.009 -3.5922 -1.9028 -1.2803
  522MOL0     H68869   9.163   1.391   7.963  0.4355 -1.4833  0.0158
  522MOL0     H68870   9.055   1.723   7.710 -3.6633  1.1465 -1.0508
  522MOL0     H68871   9.064   1.806   7.862  0.1505 -0.2914  1.8720
  522MOL0     H68872   8.830   1.715   7.906  1.1201 -1.8788  0.4120
  522MOL0     H68873   8.835   1.624   7.750 -2.1606  0.5620 -1.6476
  522MOL0     H68874   8.866   1.814   7.627  2.5746  0.2757  1.2224
  522MOL0     H68875   8.830   1.913   7.771 -0.9337 -1.0816  2.5977
  522MOL0     H68876   8.616   1.725   7.670  2.3526 -0.5909 -1.4388
  522MOL0     H68877   8.614   1.824   7.816  0.5046  0.0507  0.6629
  522MOL0     H68878   8.642   1.955   7.527  1.4250  1.4547  0.8184
  522MOL0     H68879   8.632   2.030   7.688 -0.5670 -0.3389  1.4534
  522MOL0     H68880   8.405   1.907   7.711 -4.2072 -0.5494 -1.5140
  522MOL0     H68881   8.439   1.855   7.544 -0.4103 -0.9192  1.7411
  522MOL0     H68882   8.443   2.151   7.595 -1.3996  0.7742  0.3778
  522MOL0     H68883   8.448   2.045   7.448  1.3225 -2.3115  0.6690
  522MOL0     H68884   8.221   2.182   7.521  1.6447 -0.3253 -1.3695
  522MOL0     H68885   8.215   2.059   7.656  1.5418  3.2885  1.2648
  522MOL0     H68886   9.280   1.786   7.844  1.3717  0.6217 -1.1706
  522MOL0     H68887   9.510   1.731   7.876  0.5307  0.4200 -1.4717
  522MOL0     H68888   9.813   1.188   7.865 -1.2950  0.4678 -1.7364
  522MOL0     H68889  10.015   1.137   7.884  0.0188  0.0364 -0.0308
  522MOL0     H68890   9.942   0.633   9.054  1.2253  0.9616 -1.0453
  522MOL0     H68891   9.814   0.439   8.985 -1.7289  2.5303 -0.0757
  522MOL0     H68892   9.843  -0.037   9.034 -0.8160 -1.0799  0.4392
  522MOL0     H68893   9.828  -0.273   8.978 -5.2794  1.2679  2.4160
  522MOL0     H68894   9.834  -0.379   8.536 -1.3455  0.8675 -2.1103
  522MOL0     H68895   9.653  -0.384   8.553 -0.5252  1.9054  1.5439
  522MOL0     H68896   9.668  -0.625   8.597 -0.3981 -0.3023 -1.5085
  522MOL0     H68897   9.771  -0.584   8.467  0.6963 -1.9967 -0.1630
  522MOL0     H68898   9.899  -0.593   8.749  2.2486 -2.0879  1.1061
  522MOL0     H68899   9.972  -0.584   8.591 -0.5002  1.6026  0.0293
  522MOL0     H68900   9.857  -0.839   8.576  0.2025  2.0765  0.4518
  522MOL0     H68901  10.000  -0.821   8.663  1.0174  1.5798 -2.0180
  522MOL0     H68902   9.683  -0.921   8.941  1.7940 -1.7303  0.3899
  522MOL0     H68903   9.742  -0.150   8.563  1.2630 -1.7439  0.0337
  522MOL0     H68904   9.784   0.060   8.618  1.7469  0.2363  0.5114
  523MOL0     O68905  10.891   8.649   3.523  0.5667  0.9343  0.7393
  523MOL0     C68906  10.979   8.571   3.547 -0.7490  0.0718 -0.1708
  523MOL0     O68907  11.091   8.552   3.469 -0.0924  0.4663  0.5696
  523MOL0     C68908  11.092   8.626   3.350  0.0470 -0.4292 -0.1822
  523MOL0     C68909  11.007   8.603   3.241 -0.4222  0.5611 -1.0016
  523MOL0     C68910  11.036   8.675   3.120  0.4015  0.6569  0.5697
  523MOL0     C68911  11.140   8.768   3.101 -0.7031  0.2965 -0.2701
  523MOL0     O68912  11.154   8.851   2.989  0.8300 -0.1341  0.0611
  523MOL0     C68913  11.069   8.835   2.874  0.2313  1.1481 -0.2014
  523MOL0     C68914  11.120   8.727   2.784  0.0207 -0.0176  0.0610
  523MOL0     C68915  11.014   8.689   2.680 -0.2676 -0.5136  0.4790
  523MOL0     C68916  10.894   8.626   2.733 -0.3881  0.1993 -0.3360
  523MOL0     C68917  10.799   8.588   2.613 -0.2908  0.4835 -0.1884
  523MOL0     C68918  10.665   8.531   2.642 -0.0041 -0.9337  0.6460
  523MOL0     C68919  10.572   8.507   2.523  0.8773 -0.0237  0.0867
  523MOL0     C68920  10.602   8.398   2.412 -0.8786  0.2719 -0.5612
  523MOL0     N68921  10.497   8.387   2.315  0.1446 -0.0945  0.5886
  523MOL0     C68922  10.377   8.332   2.351 -0.3248  0.0041 -1.0048
  523MOL0     C68923  10.329   8.294   2.230  0.9366 -0.2688 -0.3792
  523MOL0     C68924  10.192   8.221   2.219 -0.3716 -0.4791  0.0294
  523MOL0     C68925  10.106   8.265   2.090 -0.7968  0.7342 -0.4759
  523MOL0     C68926  10.017   8.150   2.036 -0.1827 -0.1041  0.4318
  523MOL0     C68927   9.936   8.207   1.921 -0.1263 -0.9712 -1.1009
  523MOL0     O68928   9.871   8.338   1.934 -0.2337  0.1972 -0.0805
  523MOL0     C68929   9.735   8.333   1.967  0.2442 -0.3064  0.0104
  523MOL0     C68930   9.647   8.311   1.865  0.0550  0.4811 -0.1801
  523MOL0     C68931   9.507   8.308   1.875  0.0217 -0.2516 -0.5390
  523MOL0     C68932   9.452   8.320   2.003  0.0097  0.2888 -0.3944
  523MOL0     C68933   9.306   8.320   2.027  0.7862  1.2839  0.1380
  523MOL0     O68934   9.222   8.270   1.927 -0.2166 -0.8090  0.1395
  523MOL0     C68935   9.092   8.296   1.908 -0.3362  0.4383  0.5389
  523MOL0     C68936   9.045   8.338   1.788 -0.1390  0.0337 -0.0856
  523MOL0     C68937   8.927   8.387   1.769 -0.4879 -1.0141  0.4049
  523MOL0     C68938   8.835   8.390   1.878 -0.6070  0.7254  0.2522
  523MOL0     O68939   8.709   8.431   1.841  0.2994 -0.0262 -0.0635
  523MOL0     C68940   8.618   8.463   1.945  0.1160  0.0692 -0.0557
  523MOL0     C68941   8.500   8.536   1.880 -0.7460  0.2082 -0.6736
  523MOL0     C68942   8.422   8.460   1.785  1.0243  0.4257 -0.0898
  523MOL0     C68943   8.299   8.529   1.722  0.0866  0.9243 -0.0459
  523MOL0     C68944   8.235   8.454   1.604 -0.4020  0.8524  0.6875
  523MOL0     C68945   8.106   8.526   1.564 -0.2384 -0.3277  0.4303
  523MOL0     C68946   7.986   8.457   1.629  0.0928 -0.1128 -0.1703
  523MOL0     C68947   7.874   8.554   1.611 -0.7262  0.2580 -0.0541
  523MOL0    Cl68948   7.878   8.692   1.730 -0.2187  0.4677 -0.0060
  523MOL0     C68949   8.867   8.329   2.001 -0.5742 -0.5109  0.7954
  523MOL0     C68950   9.001   8.291   2.016  0.8437  0.1548 -0.3544
  523MOL0     O68951   9.267   8.365   2.132 -0.1222 -0.2454  0.5700
  523MOL0     C68952   9.545   8.323   2.120  0.4289 -0.2358  0.0997
  523MOL0     C68953   9.683   8.329   2.099  0.4850 -0.6627 -1.1217
  523MOL0     N68954  10.424   8.319   2.133  0.1680 -0.0759  0.0736
  523MOL0     N68955  10.527   8.372   2.186  0.6689  0.3689 -0.3335
  523MOL0     C68956  11.227   8.778   3.205 -0.7904 -0.3039  0.5832
  523MOL0     C68957  11.207   8.705   3.318 -1.2777 -0.2496 -0.6027
  523MOL0     C68958  10.970   8.500   3.674 -0.1689  0.7444 -0.2270
  523MOL0     C68959  10.869   8.527   3.770 -0.5014 -0.3788 -0.7168
  523MOL0     C68960  10.874   8.454   3.890  0.6013  0.6556 -0.1623
  523MOL0     C68961  10.987   8.383   3.924 -0.1901 -0.4924  0.3590
  523MOL0     O68962  11.020   8.336   4.048  0.9476 -0.1032  0.0085
  523MOL0     C68963  10.910   8.319   4.140 -0.2813  0.9594  0.7579
  523MOL0     C68964  10.853   8.456   4.199 -0.6367  0.7226  0.6281
  523MOL0     C68965  10.957   8.505   4.304  0.1497 -0.8999 -0.4185
  523MOL0     C68966  10.916   8.630   4.371  0.7707  0.6935 -0.2593
  523MOL0     C68967  10.791   8.609   4.447 -0.9322 -0.4923 -0.3043
  523MOL0     C68968  10.714   8.599   4.541 -0.8922  0.4149  0.5224
  523MOL0     C68969  11.086   8.355   3.838 -0.7268 -0.2333 -0.2142
  523MOL0     C68970  11.071   8.399   3.709 -0.4177 -1.0127  0.0674
  523MOL0     H68971  10.922   8.538   3.256 -1.2463  1.4752 -1.5884
  523MOL0     H68972  10.965   8.650   3.043 -2.2256  3.6226  1.7997
  523MOL0     H68973  11.055   8.932   2.825  0.8417  1.4182  0.1461
  523MOL0     H68974  10.966   8.821   2.909  0.5177  2.7893  1.4566
  523MOL0     H68975  11.151   8.638   2.839  0.1903  0.9228  1.5377
  523MOL0     H68976  11.210   8.774   2.743  1.0042  0.1861  2.3178
  523MOL0     H68977  11.051   8.609   2.614  0.6034 -0.4955  0.9326
  523MOL0     H68978  10.986   8.776   2.620  2.6898  0.0245 -0.2844
  523MOL0     H68979  10.930   8.538   2.788  1.0957 -1.2150 -3.3056
  523MOL0     H68980  10.831   8.685   2.800 -0.6184  1.1028 -1.3288
  523MOL0     H68981  10.852   8.513   2.554  0.3510  0.6884  0.1181
  523MOL0     H68982  10.770   8.675   2.552 -1.6344 -0.5719 -1.1145
  523MOL0     H68983  10.618   8.607   2.706  1.5677  2.8298 -2.2740
  523MOL0     H68984  10.683   8.437   2.696  1.2480 -0.7494  0.5755
  523MOL0     H68985  10.482   8.477   2.578  2.0203  3.6197  4.5002
  523MOL0     H68986  10.560   8.605   2.476  0.1709 -0.0546  0.1851
  523MOL0     H68987  10.612   8.296   2.451  0.4944 -0.2619 -2.2128
  523MOL0     H68988  10.699   8.422   2.369 -1.1965  2.5155 -0.1525
  523MOL0     H68989  10.332   8.343   2.450  2.4584  2.3759  0.1711
  523MOL0     H68990  10.130   8.258   2.301 -2.8669  2.8546 -3.0254
  523MOL0     H68991  10.206   8.112   2.219  0.3723 -0.4174  1.5150
  523MOL0     H68992  10.178   8.300   2.015  1.7104 -3.9953 -0.6608
  523MOL0     H68993  10.042   8.349   2.119 -1.6486 -0.1751  0.3431
  523MOL0     H68994  10.073   8.060   2.007  3.4000  1.2103  2.6182
  523MOL0     H68995   9.942   8.119   2.110 -2.0380 -2.9008 -2.3527
  523MOL0     H68996   9.852   8.139   1.903 -0.8883  0.5925 -4.2726
  523MOL0     H68997   9.995   8.207   1.830  0.5666  0.8755 -0.6965
  523MOL0     H68998   9.684   8.298   1.763  0.2417  1.4399 -0.2390
  523MOL0     H68999   9.439   8.309   1.791 -1.0445  0.3381  0.3066
  523MOL0     H69000   9.113   8.329   1.704 -0.0886  3.9262 -0.6423
  523MOL0     H69001   8.902   8.420   1.669 -1.6238  1.0722  1.3306
  523MOL0     H69002   8.665   8.522   2.025  0.7879  2.8769 -2.3477
  523MOL0     H69003   8.569   8.371   1.979 -3.2421  1.4491 -0.7561
  523MOL0     H69004   8.518   8.633   1.834 -2.0037 -0.1367 -2.0032
  523MOL0     H69005   8.435   8.556   1.966 -1.7391  0.3183 -1.4260
  523MOL0     H69006   8.399   8.360   1.825  0.8546 -0.0936 -1.4235
  523MOL0     H69007   8.483   8.429   1.699 -0.6286 -0.2546 -1.0751
  523MOL0     H69008   8.227   8.537   1.804 -0.2819  1.8349 -0.4452
  523MOL0     H69009   8.318   8.633   1.694 -3.0221  1.1169 -1.8911
  523MOL0     H69010   8.206   8.353   1.633 -1.3153  0.8804 -0.0844
  523MOL0     H69011   8.306   8.447   1.521  1.4225 -1.0931  2.3079
  523MOL0     H69012   8.106   8.520   1.455  1.3274  5.2546 -0.1996
  523MOL0     H69013   8.100   8.631   1.592 -1.5839 -0.9700  2.7915
  523MOL0     H69014   7.955   8.373   1.566 -3.3533  3.0514 -3.2179
  523MOL0     H69015   7.994   8.430   1.734  1.6985 -4.3032 -1.1602
  523MOL0     H69016   7.779   8.502   1.627 -0.8679  0.9634  1.5472
  523MOL0     H69017   7.870   8.603   1.513 -0.1915  1.3212  0.4412
  523MOL0     H69018   8.785   8.310   2.069 -1.8129 -1.3314 -0.8365
  523MOL0     H69019   9.032   8.266   2.117  0.4689  2.5626  0.4020
  523MOL0     H69020   9.503   8.317   2.219  0.0990 -0.5159 -0.0542
  523MOL0     H69021   9.753   8.346   2.181  0.8017  3.3333 -2.0107
  523MOL0     H69022  11.303   8.855   3.198  1.5318 -2.5141 -0.3509
  523MOL0     H69023  11.293   8.697   3.384 -0.4753  1.1019 -1.4349
  523MOL0     H69024  10.791   8.603   3.762  2.0789  2.3616 -1.7118
  523MOL0     H69025  10.792   8.470   3.958 -1.0424 -0.2927 -1.8336
  523MOL0     H69026  10.937   8.248   4.219 -1.5635 -0.0585  0.2991
  523MOL0     H69027  10.839   8.263   4.079  1.4186 -0.3990 -0.0613
  523MOL0     H69028  10.838   8.532   4.122  0.9712 -1.0743 -1.5948
  523MOL0     H69029  10.754   8.437   4.241 -1.9094 -0.4009 -2.5104
  523MOL0     H69030  11.050   8.528   4.251 -0.3479 -4.6002 -3.3617
  523MOL0     H69031  10.976   8.422   4.372  0.1792  0.5207  1.3625
  523MOL0     H69032  10.993   8.682   4.429  0.6048  0.7836 -0.1199
  523MOL0     H69033  10.889   8.703   4.295  1.3733  0.3453 -0.8277
  523MOL0     H69034  10.630   8.591   4.606 -0.4177 -0.5991  1.0397
  523MOL0     H69035  11.167   8.289   3.865 -0.5533 -0.3336 -0.9558
  523MOL0     H69036  11.138   8.365   3.630 -1.3845 -1.2798 -0.6668
  524MOL0     O69037   2.193   4.611   4.627  0.0500 -0.3031  0.3060
  524MOL0     C69038   2.257   4.706   4.670 -0.1391  0.2918  0.0583
  524MOL0     O69039   2.382   4.707   4.707  0.0756 -0.0151  0.0440
  524MOL0     C69040   2.444   4.579   4.683 -0.9942 -0.3662 -0.0204
  524MOL0     C69041   2.409   4.457   4.741 -0.6173 -0.4561 -0.3011
  524MOL0     C69042   2.491   4.344   4.727 -0.9739 -0.4511 -0.0675
  524MOL0     C69043   2.605   4.356   4.650  0.0058 -0.1350 -0.5517
  524MOL0     O69044   2.687   4.244   4.630 -0.6177  0.2546  0.3050
  524MOL0     C69045   2.827   4.257   4.638 -0.7543  0.3124 -0.9756
  524MOL0     C69046   2.865   4.226   4.785 -0.1012  0.5030 -1.4188
  524MOL0     C69047   2.987   4.295   4.835 -0.8903 -0.6011 -0.2805
  524MOL0     C69048   2.995   4.286   4.988  0.4249  0.5889 -0.1688
  524MOL0     C69049   3.128   4.346   5.049  0.2968  0.4837 -0.1570
  524MOL0     C69050   3.101   4.417   5.180  1.0515  0.0917  0.9601
  524MOL0     C69051   3.222   4.509   5.214  0.1832 -0.1810 -0.3661
  524MOL0     C69052   3.189   4.578   5.343 -0.3429  0.7489  0.7617
  524MOL0     N69053   3.291   4.663   5.386  0.3751  0.2101 -0.2853
  524MOL0     C69054   3.396   4.625   5.462 -0.2769 -0.1148 -0.3571
  524MOL0     C69055   3.470   4.737   5.477  1.1374 -0.5403 -0.2527
  524MOL0     C69056   3.604   4.764   5.542 -0.1657 -1.0606  0.1330
  524MOL0     C69057   3.707   4.780   5.429  0.9624 -0.3253 -0.3037
  524MOL0     C69058   3.839   4.856   5.462 -0.3576  0.3582  0.3886
  524MOL0     C69059   3.856   5.002   5.437  0.2159  0.9034 -0.6464
  524MOL0     O69060   3.784   5.089   5.523 -0.0314 -0.6471  0.1386
  524MOL0     C69061   3.776   5.221   5.478 -0.4392 -0.3183 -0.0508
  524MOL0     C69062   3.670   5.308   5.505  0.2194 -0.6084 -0.5148
  524MOL0     C69063   3.656   5.435   5.441 -0.2101  0.7441 -0.0562
  524MOL0     C69064   3.761   5.478   5.363 -0.1499 -1.0158  0.5470
  524MOL0     C69065   3.758   5.625   5.307 -0.7143 -0.2619  0.2166
  524MOL0     O69066   3.878   5.687   5.295 -0.6937 -0.1803 -0.2545
  524MOL0     C69067   3.896   5.808   5.230  0.6122 -0.9712  0.1117
  524MOL0     C69068   3.819   5.846   5.119 -0.0166 -0.4961  0.4363
  524MOL0     C69069   3.857   5.971   5.059  0.2046 -1.1629  0.4622
  524MOL0     C69070   3.966   6.045   5.113  0.0624  0.1520 -0.1693
  524MOL0     O69071   3.987   6.171   5.067  0.4735  0.0066 -0.4644
  524MOL0     C69072   4.003   6.188   4.917  0.1047  0.6331  0.0767
  524MOL0     C69073   4.051   6.338   4.892  0.3875  1.2054  0.6641
  524MOL0     C69074   4.054   6.365   4.741 -0.6868 -0.0509  0.6133
  524MOL0     C69075   4.020   6.512   4.700  0.2752 -0.2814 -0.7871
  524MOL0     C69076   4.144   6.565   4.635  0.2958 -0.5066 -0.9817
  524MOL0     C69077   4.108   6.714   4.599  0.2876  0.1178  0.7824
  524MOL0     C69078   4.225   6.799   4.544  1.1425  0.4897  0.3367
  524MOL0     C69079   4.187   6.942   4.518 -0.2309  1.0948 -0.0466
  524MOL0    Cl69080   4.337   7.041   4.463 -0.0201  0.0183 -0.3155
  524MOL0     C69081   4.037   5.995   5.223  0.4942 -0.8183  0.3462
  524MOL0     C69082   4.009   5.875   5.282 -0.1408  0.5322 -0.0019
  524MOL0     O69083   3.653   5.689   5.297 -0.5045  0.5551  0.7697
  524MOL0     C69084   3.869   5.396   5.337 -0.1780 -0.0534 -0.4359
  524MOL0     C69085   3.879   5.271   5.393  0.2250  0.1993 -0.0628
  524MOL0     N69086   3.403   4.835   5.414  0.1418 -0.0061  0.5000
  524MOL0     N69087   3.302   4.797   5.350  0.3546  0.4780 -0.2607
  524MOL0     C69088   2.623   4.467   4.579 -0.7496 -0.1577 -0.2524
  524MOL0     C69089   2.547   4.586   4.594 -0.6490  0.6177  1.3522
  524MOL0     C69090   2.187   4.837   4.688 -0.2043  0.2443 -0.9375
  524MOL0     C69091   2.231   4.919   4.787 -1.5895 -0.5001  0.3656
  524MOL0     C69092   2.173   5.035   4.820 -0.4761  0.1584  0.1934
  524MOL0     C69093   2.045   5.061   4.774  0.7203  0.9640  0.1387
  524MOL0     O69094   1.964   5.166   4.798  0.0908  0.1360  0.3063
  524MOL0     C69095   2.019   5.282   4.853  1.1354  0.0836  0.6930
  524MOL0     C69096   2.081   5.364   4.731 -0.1302 -0.0229 -0.2312
  524MOL0     C69097   1.975   5.381   4.618  0.5528 -0.0333  0.8278
  524MOL0     C69098   1.832   5.411   4.662  0.9684  0.0282  0.0751
  524MOL0     C69099   1.740   5.453   4.550 -0.5344  0.1708 -0.6656
  524MOL0     C69100   1.672   5.501   4.465 -0.3898  0.0462  0.4487
  524MOL0     C69101   1.992   4.972   4.681  0.6584  0.1591 -0.1516
  524MOL0     C69102   2.068   4.870   4.622 -0.4506  0.2982  0.5736
  524MOL0     H69103   2.331   4.460   4.816 -0.6743  2.3003 -0.3583
  524MOL0     H69104   2.469   4.255   4.785 -4.1809 -0.9983 -1.8789
  524MOL0     H69105   2.873   4.352   4.610  0.2873 -0.3596 -1.6032
  524MOL0     H69106   2.867   4.181   4.571 -0.9146 -0.0579 -0.6579
  524MOL0     H69107   2.854   4.123   4.821 -2.5714  1.2513  0.1582
  524MOL0     H69108   2.787   4.275   4.843  1.3183  1.3968 -0.1906
  524MOL0     H69109   2.983   4.400   4.806  2.9161 -0.5434 -1.1697
  524MOL0     H69110   3.076   4.259   4.782  0.1496  1.9876 -0.4631
  524MOL0     H69111   2.902   4.317   5.036 -1.0893 -2.5179 -0.8423
  524MOL0     H69112   2.995   4.179   5.010  0.6693  0.6728  0.2592
  524MOL0     H69113   3.172   4.426   4.990 -0.8168  0.2005 -1.4123
  524MOL0     H69114   3.213   4.277   5.054 -1.1786 -1.3237  2.3806
  524MOL0     H69115   3.077   4.342   5.256 -2.4179 -0.4630 -0.5326
  524MOL0     H69116   3.010   4.477   5.185  2.1611  2.5577 -3.2400
  524MOL0     H69117   3.301   4.435   5.232 -1.2743 -1.3915  1.4771
  524MOL0     H69118   3.253   4.583   5.140  1.7831 -0.2303  0.2010
  524MOL0     H69119   3.149   4.507   5.416 -0.6316 -0.6628 -0.7180
  524MOL0     H69120   3.116   4.659   5.327  0.4734  1.2449 -0.5617
  524MOL0     H69121   3.419   4.522   5.489  0.3629 -0.4014 -1.8919
  524MOL0     H69122   3.637   4.688   5.613  1.7736 -0.3876 -0.0011
  524MOL0     H69123   3.592   4.856   5.601  0.2383 -1.4761  0.8721
  524MOL0     H69124   3.659   4.833   5.347  1.2821 -0.9858 -0.9350
  524MOL0     H69125   3.740   4.685   5.386 -2.5489 -0.8579 -2.1335
  524MOL0     H69126   3.856   4.844   5.569 -0.9470  0.6702  0.5193
  524MOL0     H69127   3.922   4.811   5.406 -1.3928  0.8741 -1.6648
  524MOL0     H69128   3.846   5.030   5.332 -0.8428  1.8803 -0.2972
  524MOL0     H69129   3.964   5.018   5.445  0.7075 -1.2710 -2.1098
  524MOL0     H69130   3.595   5.264   5.571  1.2471 -0.5555  0.7179
  524MOL0     H69131   3.569   5.500   5.447 -0.5799  0.4918 -2.0406
  524MOL0     H69132   3.739   5.788   5.073 -0.0180  0.2563 -0.5202
  524MOL0     H69133   3.789   6.010   4.984 -0.6030 -0.1411  1.6868
  524MOL0     H69134   3.912   6.163   4.863 -0.8301  0.1104  1.8048
  524MOL0     H69135   4.094   6.132   4.891 -1.2656 -1.5954 -0.1465
  524MOL0     H69136   4.149   6.370   4.930 -0.3912  3.0782  1.1986
  524MOL0     H69137   3.977   6.400   4.943  1.2878  0.4382  3.0179
  524MOL0     H69138   3.989   6.294   4.688 -1.2690  0.6941  0.3198
  524MOL0     H69139   4.147   6.329   4.695 -0.6192  0.4876  0.3247
  524MOL0     H69140   3.925   6.524   4.645 -0.5586  2.5096  1.0355
  524MOL0     H69141   4.003   6.567   4.793 -1.0024 -0.2618 -1.0048
  524MOL0     H69142   4.183   6.504   4.553  2.6340 -1.5821  0.8107
  524MOL0     H69143   4.220   6.560   4.713 -0.7225 -1.2286 -0.0177
  524MOL0     H69144   4.073   6.751   4.696  1.2570 -3.1664  2.5302
  524MOL0     H69145   4.027   6.702   4.526 -1.9640  1.5848  2.8885
  524MOL0     H69146   4.301   6.787   4.622  0.3133 -1.6321  0.8761
  524MOL0     H69147   4.245   6.757   4.445 -0.5797  1.5727 -0.5192
  524MOL0     H69148   4.140   6.985   4.606 -1.6405 -0.3834 -0.0353
  524MOL0     H69149   4.111   6.939   4.439  0.6247 -1.0013 -0.8748
  524MOL0     H69150   4.106   6.065   5.269 -1.0756  1.1586 -0.1278
  524MOL0     H69151   4.067   5.834   5.364 -1.9878 -3.2025 -0.3527
  524MOL0     H69152   3.955   5.423   5.277 -0.8335 -1.5044 -2.1006
  524MOL0     H69153   3.969   5.215   5.371  0.5909  0.3309  1.0382
  524MOL0     H69154   2.706   4.459   4.510  0.8448  1.5365  1.3618
  524MOL0     H69155   2.569   4.674   4.535  0.5845  0.2073  1.1668
  524MOL0     H69156   2.325   4.899   4.839 -0.6465  1.8138 -0.3033
  524MOL0     H69157   2.214   5.107   4.890 -1.2528  0.5260  0.2767
  524MOL0     H69158   2.103   5.273   4.922  1.3095 -1.8304  0.2672
  524MOL0     H69159   1.938   5.337   4.903 -0.7935 -3.8424  2.2782
  524MOL0     H69160   2.109   5.463   4.768  0.7009  0.3495 -1.7688
  524MOL0     H69161   2.177   5.325   4.698  0.5805  2.3189 -1.1789
  524MOL0     H69162   1.991   5.306   4.540  4.0858 -0.5852  1.9326
  524MOL0     H69163   2.009   5.470   4.564  2.3029 -0.6730  0.8136
  524MOL0     H69164   1.786   5.325   4.712  0.5459  0.0976 -0.1794
  524MOL0     H69165   1.830   5.495   4.732 -3.3324 -0.6923  1.1190
  524MOL0     H69166   1.613   5.552   4.392 -1.2626 -0.2720  0.9192
  524MOL0     H69167   1.895   4.995   4.638  0.1640 -2.2795 -0.4639
  524MOL0     H69168   2.029   4.811   4.539  2.6807 -1.5623  0.2792
  525MOL0     O69169   8.937   3.307   5.149  0.3327  0.1678  0.5438
  525MOL0     C69170   8.913   3.348   5.256 -0.0716 -1.2659  0.6946
  525MOL0     O69171   8.793   3.359   5.319  0.1240 -0.2939 -0.0595
  525MOL0     C69172   8.671   3.386   5.261  0.1973  0.1561 -0.0022
  525MOL0     C69173   8.552   3.355   5.333 -0.3181  0.1797 -0.1009
  525MOL0     C69174   8.421   3.372   5.279  0.7847 -0.3533 -0.2743
  525MOL0     C69175   8.405   3.427   5.144  0.3012  0.4509 -0.0621
  525MOL0     O69176   8.273   3.433   5.099  0.2783 -0.4628 -0.8703
  525MOL0     C69177   8.252   3.502   4.978 -0.4916 -0.0560  0.0256
  525MOL0     C69178   8.105   3.513   4.939 -0.0244  0.0537 -0.7991
  525MOL0     C69179   8.102   3.627   4.832  0.5011 -1.0031 -0.1315
  525MOL0     C69180   7.968   3.629   4.775  0.0503 -0.4379 -0.2270
  525MOL0     C69181   7.942   3.768   4.703  0.3952 -0.0825 -0.2370
  525MOL0     C69182   7.791   3.774   4.662 -0.3088  0.3337 -0.1916
  525MOL0     C69183   7.762   3.907   4.587 -0.3685 -0.2246 -0.6522
  525MOL0     C69184   7.646   3.905   4.486  0.0282  0.2098  0.3181
  525MOL0     N69185   7.668   4.018   4.394  0.5235  0.1648 -0.0002
  525MOL0     C69186   7.594   4.125   4.384 -0.4571  0.9171 -0.8909
  525MOL0     C69187   7.649   4.209   4.293 -0.4285  0.2257 -0.5104
  525MOL0     C69188   7.609   4.348   4.257 -0.3549 -0.2919  1.3406
  525MOL0     C69189   7.696   4.455   4.331 -0.2033 -0.0972 -0.6173
  525MOL0     C69190   7.694   4.454   4.485  0.1722 -0.0965 -0.6077
  525MOL0     C69191   7.584   4.549   4.524  0.1764  0.6027 -0.1736
  525MOL0     O69192   7.575   4.552   4.674 -0.1723 -1.0303 -0.7643
  525MOL0     C69193   7.657   4.631   4.746 -0.7284  0.2826  0.2841
  525MOL0     C69194   7.761   4.573   4.817  0.0015 -0.3409 -0.4129
  525MOL0     C69195   7.873   4.652   4.862  0.9978 -0.0093 -0.3976
  525MOL0     C69196   7.876   4.794   4.847 -0.0296  0.0450 -0.3218
  525MOL0     C69197   7.994   4.883   4.868  1.0211 -0.3794  0.0618
  525MOL0     O69198   8.105   4.819   4.922  0.2536  0.0230  0.0319
  525MOL0     C69199   8.219   4.887   4.904  0.0138 -0.7165 -0.1417
  525MOL0     C69200   8.270   4.969   5.007  0.7172  0.5128  0.3816
  525MOL0     C69201   8.391   5.026   5.007  0.9521 -0.5617 -0.1679
  525MOL0     C69202   8.487   4.985   4.915  0.5758 -0.5752  0.1113
  525MOL0     O69203   8.615   5.037   4.912  0.7170  0.5670  0.2837
  525MOL0     C69204   8.666   5.134   5.000 -0.1460  1.0115  0.4014
  525MOL0     C69205   8.812   5.157   4.964 -0.6682 -0.3376  0.4403
  525MOL0     C69206   8.836   5.202   4.816  0.5617  0.3625 -0.2665
  525MOL0     C69207   8.753   5.312   4.748  0.4346  0.5159 -0.1159
  525MOL0     C69208   8.789   5.316   4.600 -0.2060 -0.0600  0.0242
  525MOL0     C69209   8.707   5.412   4.523  0.2032  0.2368 -0.7369
  525MOL0     C69210   8.747   5.411   4.377 -0.1905 -0.2693 -0.2102
  525MOL0     C69211   8.674   5.527   4.302  0.4355 -0.0616  0.4168
  525MOL0    Cl69212   8.493   5.518   4.296 -0.0917 -0.2768 -0.2365
  525MOL0     C69213   8.444   4.891   4.824 -0.4124  0.0811 -0.4651
  525MOL0     C69214   8.314   4.849   4.807 -0.0026 -0.9331  0.1454
  525MOL0     O69215   7.987   5.002   4.832 -0.3745 -0.3114 -0.3440
  525MOL0     C69216   7.768   4.844   4.776  0.9300 -0.2835  0.1359
  525MOL0     C69217   7.656   4.770   4.738  0.0129  0.3884  0.4120
  525MOL0     N69218   7.761   4.143   4.254  0.0147 -0.1593  0.7396
  525MOL0     N69219   7.768   4.024   4.303 -0.9557  0.2165  0.2890
  525MOL0     C69220   8.518   3.450   5.068  0.1158 -0.9757  0.0349
  525MOL0     C69221   8.645   3.426   5.127  0.3419 -0.2725  0.6036
  525MOL0     C69222   9.030   3.401   5.330  0.1404 -0.6515  0.0380
  525MOL0     C69223   9.013   3.426   5.466 -0.2422  0.2220 -0.8958
  525MOL0     C69224   9.123   3.479   5.542 -0.0067 -0.0181  0.0079
  525MOL0     C69225   9.255   3.492   5.494  0.6391 -0.8619 -0.3103
  525MOL0     O69226   9.369   3.521   5.570  0.1958 -0.4177  0.0970
  525MOL0     C69227   9.363   3.551   5.716  0.3501  0.6490 -0.3614
  525MOL0     C69228   9.333   3.420   5.793 -0.1187 -0.1149  1.0010
  525MOL0     C69229   9.449   3.321   5.781 -0.0056  0.1483 -0.9976
  525MOL0     C69230   9.587   3.387   5.803  0.2090 -0.4901 -0.0080
  525MOL0     C69231   9.697   3.285   5.832  0.4478 -0.6439 -0.1968
  525MOL0     C69232   9.776   3.197   5.830 -0.4687 -0.4635 -0.0476
  525MOL0     C69233   9.267   3.469   5.358 -0.2092 -1.6784 -0.9363
  525MOL0     C69234   9.158   3.422   5.274  0.0835 -0.3321 -0.1657
  525MOL0     H69235   8.562   3.317   5.434  1.0915  2.5129  0.7323
  525MOL0     H69236   8.337   3.354   5.346  1.9307 -0.2819  1.2326
  525MOL0     H69237   8.290   3.454   4.887  0.9707  2.3337 -0.7110
  525MOL0     H69238   8.293   3.603   4.991 -0.6763  0.3995 -2.3906
  525MOL0     H69239   8.039   3.532   5.024  0.1534 -2.1702 -0.0952
  525MOL0     H69240   8.070   3.417   4.899  0.6855 -0.9572  0.9183
  525MOL0     H69241   8.181   3.623   4.756  1.7619 -0.0402  1.0690
  525MOL0     H69242   8.122   3.726   4.875  0.2555  0.1968 -2.6262
  525MOL0     H69243   7.965   3.551   4.698 -2.8706  0.9434 -1.6745
  525MOL0     H69244   7.891   3.614   4.851 -0.5007  0.0879 -0.6725
  525MOL0     H69245   8.018   3.791   4.627  0.9828  0.1193  0.4007
  525MOL0     H69246   7.968   3.847   4.775  3.7809 -2.4259  1.3827
  525MOL0     H69247   7.721   3.744   4.741  0.4994 -3.1638 -0.6325
  525MOL0     H69248   7.774   3.693   4.591  0.5960 -4.1574  4.1593
  525MOL0     H69249   7.738   3.981   4.664 -1.5839 -3.3260  2.1618
  525MOL0     H69250   7.850   3.931   4.525 -0.4354  0.5964 -0.4328
  525MOL0     H69251   7.552   3.922   4.540  0.3763  0.2072  0.9340
  525MOL0     H69252   7.643   3.807   4.437  0.7164 -0.6317  1.8773
  525MOL0     H69253   7.507   4.143   4.447 -0.2661 -0.9291 -0.0352
  525MOL0     H69254   7.502   4.370   4.263  0.0493  2.3502  0.5332
  525MOL0     H69255   7.650   4.354   4.156  3.4994  0.6084  2.7740
  525MOL0     H69256   7.661   4.547   4.285 -3.8603 -1.8178 -1.6228
  525MOL0     H69257   7.801   4.433   4.309  0.1017  0.0046  0.6726
  525MOL0     H69258   7.691   4.350   4.516 -2.6688 -0.0682 -0.5073
  525MOL0     H69259   7.789   4.496   4.519  0.7991 -0.0932 -2.2609
  525MOL0     H69260   7.490   4.517   4.477 -0.7625  1.1957  1.2345
  525MOL0     H69261   7.598   4.648   4.479 -1.1415  0.6544 -0.5100
  525MOL0     H69262   7.761   4.466   4.839  4.6822 -0.4191  0.1501
  525MOL0     H69263   7.964   4.604   4.895  1.0221  0.7810  0.7610
  525MOL0     H69264   8.195   4.990   5.082  1.3566  3.3234  0.3396
  525MOL0     H69265   8.416   5.094   5.088 -1.7633  0.6447 -0.2628
  525MOL0     H69266   8.659   5.103   5.104  2.6047 -1.5008 -0.0178
  525MOL0     H69267   8.613   5.228   4.983  1.8617  2.8635  3.4510
  525MOL0     H69268   8.877   5.072   4.988 -0.8545 -0.9101 -0.9721
  525MOL0     H69269   8.832   5.239   5.033 -0.6700  0.7026 -0.7530
  525MOL0     H69270   8.820   5.109   4.761  0.4880 -0.1388  0.5802
  525MOL0     H69271   8.941   5.229   4.826  0.0281  1.8109  2.1229
  525MOL0     H69272   8.647   5.294   4.763 -0.0133  4.4499  3.1729
  525MOL0     H69273   8.769   5.406   4.802 -0.4683  0.2180  0.6992
  525MOL0     H69274   8.775   5.218   4.554 -1.6330  1.2661 -2.5914
  525MOL0     H69275   8.894   5.346   4.590  0.3128 -2.4914 -4.1926
  525MOL0     H69276   8.719   5.513   4.563 -0.2834  1.3357 -3.1774
  525MOL0     H69277   8.599   5.391   4.529 -0.1323  2.1065  1.2582
  525MOL0     H69278   8.855   5.429   4.383  0.0806 -2.2009  2.3683
  525MOL0     H69279   8.732   5.315   4.326  0.6084  0.7284 -2.4849
  525MOL0     H69280   8.733   5.522   4.210  0.7824 -0.5067  0.6562
  525MOL0     H69281   8.690   5.625   4.347 -2.2215  1.6345 -1.9986
  525MOL0     H69282   8.518   4.853   4.754  2.5317  1.5023  1.6473
  525MOL0     H69283   8.270   4.787   4.730 -3.4060  0.7947  0.5250
  525MOL0     H69284   7.759   4.952   4.768  0.5637 -0.0042  3.2871
  525MOL0     H69285   7.576   4.814   4.680  0.8270 -0.9491 -1.8563
  525MOL0     H69286   8.518   3.490   4.967 -1.6810  1.1509  0.8079
  525MOL0     H69287   8.732   3.450   5.067 -1.0637  0.1454 -1.3840
  525MOL0     H69288   8.914   3.414   5.507 -1.7079 -2.3626 -4.6438
  525MOL0     H69289   9.103   3.502   5.646  2.0605 -0.4712  0.5579
  525MOL0     H69290   9.289   3.629   5.734 -1.8349 -1.6231  1.1798
  525MOL0     H69291   9.455   3.589   5.762 -1.3025  0.6320  3.2559
  525MOL0     H69292   9.323   3.445   5.899 -0.8237  0.0868  0.8896
  525MOL0     H69293   9.243   3.370   5.758 -0.4197 -0.1060  1.7464
  525MOL0     H69294   9.445   3.279   5.680  0.0131 -1.0308 -0.5279
  525MOL0     H69295   9.427   3.237   5.848 -2.0824  2.9756  2.1887
  525MOL0     H69296   9.618   3.447   5.717 -0.0668  0.1303  0.3166
  525MOL0     H69297   9.590   3.459   5.886 -0.1335  1.5693 -1.7085
  525MOL0     H69298   9.856   3.127   5.818 -0.5448 -0.3454 -1.3930
  525MOL0     H69299   9.368   3.472   5.318 -0.3599 -2.2102 -1.3755
  525MOL0     H69300   9.171   3.404   5.168 -1.5675  3.2935 -1.1560
  526MOL0     O69301   2.635   2.604   3.986 -0.3043 -0.0977 -0.5208
  526MOL0     C69302   2.661   2.533   4.087  0.3037 -0.7362 -0.3482
  526MOL0     O69303   2.775   2.535   4.155  0.1183  0.7805 -1.0434
  526MOL0     C69304   2.890   2.607   4.132  0.6107  0.6455 -0.1002
  526MOL0     C69305   2.901   2.731   4.071 -0.3182 -0.0593 -0.5011
  526MOL0     C69306   3.021   2.800   4.081 -0.5329 -0.4228  1.2335
  526MOL0     C69307   3.131   2.757   4.156 -0.6067 -0.5053  0.0593
  526MOL0     O69308   3.235   2.836   4.193 -0.7666  0.0174 -0.9234
  526MOL0     C69309   3.255   2.975   4.146 -0.0708  0.6795 -1.0308
  526MOL0     C69310   3.354   3.061   4.221 -0.3110  0.1198 -0.0972
  526MOL0     C69311   3.498   3.010   4.241  0.5974  0.0694  0.0292
  526MOL0     C69312   3.509   2.883   4.326  1.2908 -0.6656 -0.6038
  526MOL0     C69313   3.649   2.832   4.372 -0.2902  0.3295 -1.0051
  526MOL0     C69314   3.615   2.724   4.475  0.1275  0.1607 -0.3536
  526MOL0     C69315   3.731   2.629   4.502 -0.0798  0.2921 -0.7215
  526MOL0     C69316   3.835   2.695   4.598  0.5047  0.3389 -0.8233
  526MOL0     N69317   3.780   2.738   4.724 -0.1402  0.4567  0.1637
  526MOL0     C69318   3.711   2.661   4.818 -0.4580 -0.0508  0.0720
  526MOL0     C69319   3.653   2.748   4.909 -0.7793 -0.4905  0.0104
  526MOL0     C69320   3.568   2.700   5.025 -0.7101 -0.3257  0.0370
  526MOL0     C69321   3.421   2.717   5.008 -1.0640  0.4268 -0.3340
  526MOL0     C69322   3.368   2.857   4.986  0.7218 -1.0783 -0.1638
  526MOL0     C69323   3.222   2.866   5.040 -0.4465  0.5423 -0.3204
  526MOL0     O69324   3.153   2.761   4.987  0.4729  0.3822  0.0982
  526MOL0     C69325   3.015   2.763   5.009 -0.0679 -0.4262 -0.0064
  526MOL0     C69326   2.970   2.732   5.135  0.5037 -0.2788  0.9848
  526MOL0     C69327   2.841   2.756   5.175  1.2654  0.3490  0.8751
  526MOL0     C69328   2.742   2.799   5.077  0.0288 -0.6200 -0.1243
  526MOL0     C69329   2.596   2.777   5.095  0.0095 -0.3575 -0.4728
  526MOL0     O69330   2.517   2.847   5.020  0.1280  0.4717 -0.7507
  526MOL0     C69331   2.386   2.828   5.017 -0.3547 -0.2459 -0.4329
  526MOL0     C69332   2.304   2.908   5.087 -0.0726 -1.0326 -1.0623
  526MOL0     C69333   2.167   2.905   5.084  0.2177  0.8008 -1.2935
  526MOL0     C69334   2.105   2.818   5.001  0.8694  0.5494  0.3579
  526MOL0     O69335   1.967   2.800   5.006  0.4104  0.2534  0.5080
  526MOL0     C69336   1.906   2.704   4.920  0.1744 -0.2523  0.3864
  526MOL0     C69337   1.760   2.693   4.964 -0.5369 -0.3139 -0.1459
  526MOL0     C69338   1.680   2.624   4.864  0.1194 -0.2857  0.3765
  526MOL0     C69339   1.705   2.473   4.868  1.2874 -0.4513  0.1065
  526MOL0     C69340   1.607   2.394   4.778  0.3861  0.5933 -0.0104
  526MOL0     C69341   1.660   2.249   4.762 -0.1381 -1.3389 -0.2893
  526MOL0     C69342   1.591   2.161   4.648 -0.0787 -0.2581 -0.2843
  526MOL0     C69343   1.455   2.114   4.682  0.3648  0.0391  0.6067
  526MOL0    Cl69344   1.462   2.011   4.823 -0.3886  0.1714  0.0402
  526MOL0     C69345   2.186   2.737   4.913  0.1601  1.7183 -0.9695
  526MOL0     C69346   2.321   2.746   4.921  0.6252  0.2689  0.1545
  526MOL0     O69347   2.559   2.702   5.183 -1.0054  0.0112  0.4167
  526MOL0     C69348   2.789   2.838   4.945  0.0650  0.3032 -0.5585
  526MOL0     C69349   2.920   2.816   4.920  0.4106 -0.2670  0.6993
  526MOL0     N69350   3.703   2.873   4.879  0.7505  0.5032  0.1205
  526MOL0     N69351   3.772   2.862   4.771 -0.2552 -1.1097  0.4533
  526MOL0     C69352   3.128   2.628   4.203 -0.2966 -0.8205 -0.1359
  526MOL0     C69353   3.001   2.566   4.199 -0.1087 -0.2116  0.4166
  526MOL0     C69354   2.557   2.452   4.149 -0.8102  0.1624  0.0284
  526MOL0     C69355   2.432   2.438   4.087 -0.1260 -0.4280  0.4149
  526MOL0     C69356   2.327   2.378   4.154 -0.6152  0.2939  0.3627
  526MOL0     C69357   2.355   2.309   4.280 -0.1770  0.2115 -0.8440
  526MOL0     O69358   2.256   2.226   4.322 -0.4825  0.1496 -0.5578
  526MOL0     C69359   2.249   2.165   4.454  0.0967 -0.3272  0.4869
  526MOL0     C69360   2.112   2.147   4.509 -0.3943  0.1623 -0.7840
  526MOL0     C69361   2.025   2.081   4.409  0.6351  0.5104  0.3340
  526MOL0     C69362   1.885   2.057   4.453 -0.5018 -0.1052  0.3518
  526MOL0     C69363   1.866   1.924   4.514  0.6582 -0.3015  1.1989
  526MOL0     C69364   1.864   1.822   4.565 -0.2179 -0.5989 -0.8437
  526MOL0     C69365   2.480   2.320   4.344  0.0366  0.7317  0.0755
  526MOL0     C69366   2.575   2.394   4.281 -0.1280  0.1216  0.4599
  526MOL0     H69367   2.812   2.760   4.017 -0.8978  0.1627  0.5671
  526MOL0     H69368   3.014   2.900   4.040 -0.5752 -1.5200 -1.7206
  526MOL0     H69369   3.159   3.020   4.172  1.0363  1.9908  1.1415
  526MOL0     H69370   3.277   2.969   4.039  1.0985 -0.9387 -0.7343
  526MOL0     H69371   3.318   3.085   4.322  2.1536 -1.2072  1.1878
  526MOL0     H69372   3.343   3.151   4.160 -2.5806 -0.1026 -0.1110
  526MOL0     H69373   3.572   3.079   4.283  1.1136 -1.4135  1.6352
  526MOL0     H69374   3.527   2.985   4.138 -0.8519 -0.0427 -0.3828
  526MOL0     H69375   3.456   2.912   4.417 -0.1625 -1.3485 -1.1878
  526MOL0     H69376   3.458   2.796   4.282 -1.2882 -1.6174  3.6734
  526MOL0     H69377   3.713   2.909   4.415  2.6298 -2.8068  0.6752
  526MOL0     H69378   3.705   2.788   4.289  2.3178  0.8527  0.3964
  526MOL0     H69379   3.543   2.658   4.426  1.6531 -1.8397 -0.0310
  526MOL0     H69380   3.571   2.768   4.565 -0.2118 -1.0961  0.1256
  526MOL0     H69381   3.699   2.530   4.536  0.5583  0.4970  0.5219
  526MOL0     H69382   3.800   2.623   4.418  3.9716  0.9287  2.2678
  526MOL0     H69383   3.880   2.783   4.552  0.9775 -0.0400 -1.0973
  526MOL0     H69384   3.920   2.628   4.616  1.9936  2.8599  2.5119
  526MOL0     H69385   3.681   2.557   4.809  0.4363 -0.2089 -1.3968
  526MOL0     H69386   3.602   2.764   5.107 -2.4422  4.4837 -2.5886
  526MOL0     H69387   3.596   2.596   5.046  2.2347 -0.0104 -1.7917
  526MOL0     H69388   3.369   2.671   5.092 -0.6907 -0.0367 -0.3563
  526MOL0     H69389   3.396   2.670   4.912 -1.2797  0.4758 -0.3025
  526MOL0     H69390   3.431   2.930   5.039  0.7261 -1.7625  0.8124
  526MOL0     H69391   3.379   2.879   4.879 -0.8829 -2.0314 -0.5537
  526MOL0     H69392   3.187   2.967   5.019 -1.6825  0.5254  1.4532
  526MOL0     H69393   3.232   2.845   5.147  1.2325 -0.1684 -0.5849
  526MOL0     H69394   3.035   2.677   5.201  0.4619 -1.3205  0.1809
  526MOL0     H69395   2.798   2.733   5.272 -1.2306 -1.0457 -0.4640
  526MOL0     H69396   2.332   2.987   5.156 -0.1271 -1.8647 -0.0651
  526MOL0     H69397   2.096   2.957   5.148 -0.2660 -1.0504 -0.2186
  526MOL0     H69398   1.942   2.601   4.927  0.9524 -0.0296 -0.1451
  526MOL0     H69399   1.919   2.736   4.816  0.8309  1.1656  0.8732
  526MOL0     H69400   1.718   2.792   4.981  3.5773  1.3133  1.9975
  526MOL0     H69401   1.751   2.638   5.058 -2.4274  1.1227  0.5645
  526MOL0     H69402   1.705   2.659   4.764  1.2858  0.5626  0.9476
  526MOL0     H69403   1.574   2.651   4.875  0.2685  0.1223  0.8609
  526MOL0     H69404   1.809   2.450   4.846  1.7207 -0.7772  2.2128
  526MOL0     H69405   1.680   2.441   4.970  3.5982 -0.7696  0.6264
  526MOL0     H69406   1.608   2.438   4.678  2.1741  2.0066  0.5627
  526MOL0     H69407   1.502   2.398   4.809  0.1464 -3.5975  0.3135
  526MOL0     H69408   1.641   2.211   4.863  1.6319  0.8680  0.9760
  526MOL0     H69409   1.767   2.252   4.736  0.4985  2.1584  2.0584
  526MOL0     H69410   1.574   2.230   4.565 -1.2323 -0.9746 -0.6611
  526MOL0     H69411   1.655   2.075   4.626  1.0620  0.2633  0.8327
  526MOL0     H69412   1.403   2.060   4.602  0.2301 -2.8025  2.4571
  526MOL0     H69413   1.401   2.206   4.704 -0.9970 -0.0704 -1.8804
  526MOL0     H69414   2.149   2.666   4.840  1.8968 -1.2346  0.8493
  526MOL0     H69415   2.382   2.710   4.838  3.4477 -1.4111  2.7568
  526MOL0     H69416   2.728   2.867   4.860  0.2771  1.1535 -0.4259
  526MOL0     H69417   2.945   2.825   4.815  1.1380 -0.5810  0.8400
  526MOL0     H69418   3.219   2.596   4.253  0.9217 -0.6385 -2.1046
  526MOL0     H69419   3.004   2.471   4.253 -1.1684  1.0769  2.9024
  526MOL0     H69420   2.419   2.480   3.988 -2.5102 -3.2199 -0.6056
  526MOL0     H69421   2.230   2.357   4.112  0.9600  0.6889 -3.9289
  526MOL0     H69422   2.309   2.214   4.531  1.8023  3.4168 -2.8779
  526MOL0     H69423   2.290   2.067   4.425 -0.1483  0.5148 -3.1801
  526MOL0     H69424   2.121   2.079   4.594  0.5360 -2.6229 -2.9515
  526MOL0     H69425   2.068   2.238   4.551  0.2610  0.5079 -0.8413
  526MOL0     H69426   2.066   1.982   4.387 -3.0494 -0.7213 -2.0304
  526MOL0     H69427   2.023   2.150   4.324 -0.3891  2.3213  1.7529
  526MOL0     H69428   1.862   2.128   4.533  1.3179 -0.0340  0.8446
  526MOL0     H69429   1.810   2.077   4.376  2.2558  1.9338 -2.0292
  526MOL0     H69430   1.861   1.720   4.599  0.4696 -1.0447 -2.0335
  526MOL0     H69431   2.498   2.261   4.433 -2.0660 -1.2716 -0.7181
  526MOL0     H69432   2.674   2.379   4.321 -1.4086 -0.9312  3.5797
  527MOL0     O69433  10.244  10.955   2.963 -0.2845  0.4802 -0.4541
  527MOL0     C69434  10.295  11.040   3.030 -0.8175  0.0387 -0.9654
  527MOL0     O69435  10.312  11.045   3.171 -0.5820  1.5952 -0.4827
  527MOL0     C69436  10.277  10.929   3.246 -0.1570  0.1458  0.0928
  527MOL0     C69437  10.201  10.947   3.365 -0.1362  0.6896 -0.9168
  527MOL0     C69438  10.175  10.840   3.450  0.7311  0.0049 -0.0742
  527MOL0     C69439  10.217  10.709   3.426  0.7154 -0.1214  0.1100
  527MOL0     O69440  10.178  10.600   3.499  0.1821 -0.0935 -0.8139
  527MOL0     C69441  10.170  10.652   3.646  0.0193  0.0781  0.3113
  527MOL0     C69442  10.198  10.527   3.734 -0.4382 -0.1062 -0.6812
  527MOL0     C69443  10.349  10.475   3.712 -0.1418 -0.5980 -0.3674
  527MOL0     C69444  10.440  10.581   3.764 -0.3695 -0.2990 -0.9757
  527MOL0     C69445  10.588  10.534   3.753 -0.0764  0.4152 -0.5365
  527MOL0     C69446  10.633  10.423   3.860 -0.1349 -0.4293  0.8049
  527MOL0     C69447  10.780  10.372   3.846  1.2772  0.0692  0.1365
  527MOL0     C69448  10.850  10.309   3.972  0.6555 -0.5675  0.1946
  527MOL0     N69449  10.860  10.406   4.080 -0.2771 -0.3683  0.0950
  527MOL0     C69450  10.918  10.532   4.073 -0.4199 -0.3281 -0.4198
  527MOL0     C69451  10.906  10.583   4.200  0.7062 -0.6479 -0.1379
  527MOL0     C69452  10.938  10.718   4.260 -1.0820  0.7786 -1.2012
  527MOL0     C69453  10.846  10.837   4.219 -0.0230 -0.0545  1.1813
  527MOL0     C69454  10.836  10.856   4.066 -0.5122  0.1326 -0.1636
  527MOL0     C69455  10.774  10.988   4.031  0.2942  0.0277 -0.4667
  527MOL0     O69456  10.793  11.005   3.894  0.0710 -0.0040 -0.4068
  527MOL0     C69457  10.723  11.114   3.848 -0.6158  0.6613  0.1571
  527MOL0     C69458  10.603  11.167   3.891 -1.4837 -0.8160  0.4388
  527MOL0     C69459  10.538  11.265   3.816 -0.7552 -0.3372  0.0541
  527MOL0     C69460  10.601  11.317   3.700  0.8814  0.1385  0.8903
  527MOL0     C69461  10.533  11.421   3.616  0.2438  1.0669  0.4287
  527MOL0     O69462  10.399  11.445   3.645  0.1514  0.6255 -0.1194
  527MOL0     C69463  10.367  11.573   3.626  1.0576 -0.8232 -0.1493
  527MOL0     C69464  10.272  11.604   3.528 -0.3829  0.2635 -0.2543
  527MOL0     C69465  10.208  11.725   3.517 -0.1853  0.5799 -0.4156
  527MOL0     C69466  10.221  11.815   3.630 -2.3864 -0.9236  0.0707
  527MOL0     O69467  10.120  11.914   3.637 -0.0092 -0.1246 -0.5094
  527MOL0     C69468  10.185  12.046   3.647  0.7963 -0.0081  0.3143
  527MOL0     C69469  10.093  12.146   3.569  0.3537  0.8715 -0.1979
  527MOL0     C69470  10.133  12.171   3.422  0.2497  0.7771  0.1599
  527MOL0     C69471  10.060  12.287   3.369 -0.2623 -0.6855  0.5078
  527MOL0     C69472  10.072  12.289   3.217 -0.1004 -0.2202  0.4590
  527MOL0     C69473   9.972  12.400   3.159  0.3828 -0.2181 -0.0800
  527MOL0     C69474  10.007  12.446   3.012 -0.8965 -0.0948 -0.4592
  527MOL0     C69475   9.918  12.556   2.965 -0.4603 -0.1415 -0.1481
  527MOL0    Cl69476   9.755  12.563   3.044 -0.1824 -0.2087  0.3807
  527MOL0     C69477  10.303  11.779   3.732  0.8276  0.6279  0.5882
  527MOL0     C69478  10.385  11.670   3.729  0.4739 -0.2168 -0.3436
  527MOL0     O69479  10.600  11.479   3.529  0.0721  0.4383 -0.0221
  527MOL0     C69480  10.727  11.273   3.667 -0.0575  0.1105 -0.7780
  527MOL0     C69481  10.783  11.168   3.725  0.4153 -0.2824 -0.0654
  527MOL0     N69482  10.831  10.490   4.271 -0.1554  1.1328  0.0970
  527MOL0     N69483  10.799  10.396   4.198 -0.8089 -0.3455  0.6912
  527MOL0     C69484  10.283  10.688   3.304  0.3409 -0.5642 -0.7000
  527MOL0     C69485  10.310  10.796   3.218  0.7125  0.2829 -0.8492
  527MOL0     C69486  10.344  11.164   2.968 -0.3822 -0.4211 -0.4511
  527MOL0     C69487  10.394  11.283   3.036  1.2192  0.5584  0.0493
  527MOL0     C69488  10.433  11.396   2.968  0.7329 -0.1867 -0.1155
  527MOL0     C69489  10.393  11.399   2.826 -0.1866 -0.7888 -0.0702
  527MOL0     O69490  10.442  11.511   2.773 -0.0512 -0.2105  0.4700
  527MOL0     C69491  10.450  11.528   2.637  0.1201 -0.2951 -0.0248
  527MOL0     C69492  10.451  11.681   2.631 -1.1059  0.1471  0.9395
  527MOL0     C69493  10.316  11.742   2.621  0.2739 -0.0293  0.9844
  527MOL0     C69494  10.311  11.893   2.614  0.3440 -0.2879  0.1850
  527MOL0     C69495  10.407  11.976   2.684 -0.2819  0.2845  0.0391
  527MOL0     C69496  10.470  12.046   2.759 -0.0472 -0.5743  0.3193
  527MOL0     C69497  10.344  11.290   2.759 -0.2006  1.0080 -0.3898
  527MOL0     C69498  10.326  11.176   2.825  0.7242 -0.5805 -0.3537
  527MOL0     H69499  10.176  11.049   3.392 -2.2377 -0.3437  1.3463
  527MOL0     H69500  10.127  10.863   3.544  1.4882 -0.1944  0.3645
  527MOL0     H69501  10.067  10.679   3.669  0.5494 -0.1767  3.3959
  527MOL0     H69502  10.233  10.738   3.668  0.8066 -0.6369  0.9184
  527MOL0     H69503  10.123  10.453   3.707 -0.2893 -0.3466 -0.4481
  527MOL0     H69504  10.191  10.542   3.843 -0.6904  1.4039 -0.8813
  527MOL0     H69505  10.361  10.452   3.606 -1.7289 -0.1267 -0.6656
  527MOL0     H69506  10.357  10.388   3.778 -3.6297  1.7729  3.6856
  527MOL0     H69507  10.422  10.672   3.706  0.4539  0.7080  0.2975
  527MOL0     H69508  10.409  10.600   3.867 -1.8178 -0.3794 -1.3835
  527MOL0     H69509  10.656  10.618   3.766 -0.7517  1.3829 -2.7008
  527MOL0     H69510  10.612  10.491   3.655  0.9722 -0.3240  0.0259
  527MOL0     H69511  10.559  10.344   3.875 -2.6734  1.7907  0.6702
  527MOL0     H69512  10.627  10.469   3.959  3.3037  1.1526  0.4320
  527MOL0     H69513  10.764  10.285   3.782  0.7195  0.9840 -0.9916
  527MOL0     H69514  10.840  10.450   3.799 -0.3399  1.8970  0.9319
  527MOL0     H69515  10.950  10.277   3.942  0.9007  0.7863 -0.4901
  527MOL0     H69516  10.789  10.225   4.007  2.1236 -1.8987 -0.3491
  527MOL0     H69517  10.948  10.584   3.982 -1.9423  3.0680  0.8281
  527MOL0     H69518  11.037  10.758   4.235 -1.3358  2.9066  0.8093
  527MOL0     H69519  10.944  10.711   4.369  0.4853  1.1844 -1.2226
  527MOL0     H69520  10.885  10.926   4.270  0.1975 -0.3390  1.5164
  527MOL0     H69521  10.751  10.805   4.262 -0.4079  0.5371  0.7791
  527MOL0     H69522  10.936  10.857   4.022 -1.0647  1.1103 -1.4505
  527MOL0     H69523  10.777  10.775   4.023  0.1104 -0.7722  0.6496
  527MOL0     H69524  10.833  11.061   4.089  0.0503 -1.6479  2.0396
  527MOL0     H69525  10.668  10.991   4.059  0.1777 -1.3999 -0.7152
  527MOL0     H69526  10.545  11.132   3.976 -3.1706  1.3861  0.3048
  527MOL0     H69527  10.437  11.285   3.851  0.6988  2.0443  3.5277
  527MOL0     H69528  10.243  11.521   3.465 -0.9047 -0.8176  1.3541
  527MOL0     H69529  10.139  11.732   3.433 -0.8251 -1.3561 -0.0832
  527MOL0     H69530  10.286  12.043   3.606  1.7058 -2.2439  2.4668
  527MOL0     H69531  10.195  12.069   3.754  1.8272 -2.2219  0.7388
  527MOL0     H69532  10.100  12.249   3.604 -0.1519  1.1850 -0.9850
  527MOL0     H69533   9.987  12.118   3.565  0.6235 -0.0642 -2.2364
  527MOL0     H69534  10.120  12.079   3.364  1.2179  1.6700 -1.5431
  527MOL0     H69535  10.240  12.190   3.412  0.0816  0.5655 -2.5452
  527MOL0     H69536   9.956  12.272   3.399 -0.4951 -1.4999 -0.6305
  527MOL0     H69537  10.095  12.384   3.406  0.5829 -0.3527 -1.0697
  527MOL0     H69538  10.048  12.192   3.173  0.0466  0.3625 -0.9617
  527MOL0     H69539  10.175  12.314   3.190 -0.2885  0.7735  0.6210
  527MOL0     H69540   9.972  12.487   3.225  2.4471 -0.8486  0.8610
  527MOL0     H69541   9.872  12.357   3.161  1.0733 -1.9389  0.1361
  527MOL0     H69542  10.112  12.474   3.003 -0.8462 -0.0219  0.3312
  527MOL0     H69543   9.980  12.362   2.947 -1.8672  0.2968 -0.5907
  527MOL0     H69544   9.911  12.555   2.856  2.5986 -1.3452 -0.4397
  527MOL0     H69545   9.976  12.645   2.993  0.1899 -0.5433 -0.1799
  527MOL0     H69546  10.318  11.840   3.821  1.1993  4.2838 -1.8113
  527MOL0     H69547  10.460  11.641   3.802  2.2542 -1.7076 -2.5940
  527MOL0     H69548  10.787  11.304   3.582  2.1210 -0.1749  0.5745
  527MOL0     H69549  10.883  11.133   3.703  0.6608  0.0548  0.4635
  527MOL0     H69550  10.317  10.588   3.280 -0.3645 -0.4405 -2.2970
  527MOL0     H69551  10.363  10.757   3.132 -2.1387 -0.9717 -2.1710
  527MOL0     H69552  10.400  11.247   3.139  1.7480 -5.1541 -1.5966
  527MOL0     H69553  10.478  11.475   3.026  1.6942 -0.0158 -1.0709
  527MOL0     H69554  10.366  11.491   2.577  0.0624 -1.3754  0.6868
  527MOL0     H69555  10.535  11.472   2.597  0.8047  0.5043  0.2921
  527MOL0     H69556  10.515  11.712   2.714  1.0185 -2.2554  0.3276
  527MOL0     H69557  10.507  11.704   2.539 -3.0917 -0.3906 -0.4626
  527MOL0     H69558  10.247  11.719   2.702 -0.4336  2.1391  1.0501
  527MOL0     H69559  10.267  11.726   2.524 -1.6369  1.7305  1.5827
  527MOL0     H69560  10.304  11.922   2.509 -1.9252  0.8377  0.6011
  527MOL0     H69561  10.210  11.928   2.638 -1.3560 -2.8194 -2.5531
  527MOL0     H69562  10.527  12.125   2.804 -0.7284  0.9414 -1.3522
  527MOL0     H69563  10.318  11.306   2.655 -1.9230  1.1541  0.0383
  527MOL0     H69564  10.293  11.091   2.766  1.0595 -2.2379  1.7139
  528MOL0     O69565   0.907   5.135   7.919  0.8880 -0.2525 -0.4167
  528MOL0     C69566   1.025   5.168   7.907  0.2418 -0.6127 -0.3833
  528MOL0     O69567   1.094   5.177   7.791 -0.4357  0.1722  0.0859
  528MOL0     C69568   1.034   5.169   7.671  0.7777  0.4309  0.9334
  528MOL0     C69569   1.106   5.109   7.570  0.2448 -0.3152  0.7819
  528MOL0     C69570   1.056   5.109   7.433 -0.6347 -0.2066 -1.6961
  528MOL0     C69571   0.939   5.176   7.404  0.4898 -0.1160  0.3944
  528MOL0     O69572   0.902   5.177   7.271  0.0562  0.3706  0.0735
  528MOL0     C69573   0.766   5.137   7.259  0.6693 -0.1297 -0.2184
  528MOL0     C69574   0.722   5.113   7.120  0.0490  0.0439  0.2414
  528MOL0     C69575   0.593   5.039   7.123 -0.5120 -0.0879  0.1033
  528MOL0     C69576   0.478   5.120   7.167 -0.0787 -0.3720 -0.0481
  528MOL0     C69577   0.358   5.028   7.204  0.1934  0.3505 -0.0863
  528MOL0     C69578   0.292   4.970   7.080 -0.4753  0.8167  0.4864
  528MOL0     C69579   0.188   4.869   7.112  0.6419 -1.1605  0.4039
  528MOL0     C69580   0.052   4.934   7.161  0.5983 -0.0509  0.1077
  528MOL0     N69581  -0.044   4.815   7.187 -0.1205  1.3484  0.7766
  528MOL0     C69582  -0.149   4.776   7.110  0.7811  0.7991  0.2278
  528MOL0     C69583  -0.203   4.660   7.158 -0.0167 -0.3731  0.0874
  528MOL0     C69584  -0.313   4.583   7.092 -1.3522  0.9504 -0.3215
  528MOL0     C69585  -0.444   4.593   7.160  0.4544  0.0108 -0.0405
  528MOL0     C69586  -0.551   4.499   7.102  0.1024 -0.1992 -0.6127
  528MOL0     C69587  -0.598   4.538   6.957 -1.1001 -0.1483  0.1212
  528MOL0     O69588  -0.675   4.657   6.958  0.3549 -0.1470  0.2812
  528MOL0     C69589  -0.803   4.648   7.014  0.3863  0.3648 -0.2198
  528MOL0     C69590  -0.882   4.760   7.034  0.1518 -0.7435 -0.2723
  528MOL0     C69591  -1.007   4.756   7.091 -0.2096 -0.5935 -0.0197
  528MOL0     C69592  -1.073   4.641   7.115  0.7090  0.0422  0.0486
  528MOL0     C69593  -1.218   4.637   7.158  0.4355 -0.2574  0.1299
  528MOL0     O69594  -1.285   4.521   7.136  0.0680 -0.3166  0.2743
  528MOL0     C69595  -1.416   4.523   7.178  0.1988 -0.4601  0.3153
  528MOL0     C69596  -1.456   4.510   7.305 -0.2511  0.2695 -0.1596
  528MOL0     C69597  -1.590   4.521   7.337  0.5808 -0.6319  0.1844
  528MOL0     C69598  -1.690   4.517   7.244 -0.4994 -1.3058 -0.4909
  528MOL0     O69599  -1.825   4.514   7.267  0.0034 -0.4840 -0.2673
  528MOL0     C69600  -1.915   4.613   7.208 -0.0339  0.2997  0.1713
  528MOL0     C69601  -2.054   4.624   7.259 -0.2648  0.5047  0.0595
  528MOL0     C69602  -2.157   4.642   7.155  0.7597  0.4812  0.3235
  528MOL0     C69603  -2.299   4.662   7.208 -0.3253 -0.4202 -0.7160
  528MOL0     C69604  -2.411   4.700   7.107  0.7906 -0.5455  0.0955
  528MOL0     C69605  -2.514   4.804   7.159  0.7438  0.2584  0.3980
  528MOL0     C69606  -2.625   4.846   7.061 -0.5293 -0.3116 -0.7715
  528MOL0     C69607  -2.767   4.844   7.114  1.1519  0.4717  0.1166
  528MOL0    Cl69608  -2.760   4.953   7.261 -0.3678  0.3862 -0.2179
  528MOL0     C69609  -1.645   4.536   7.112 -0.5340 -0.5204 -0.5168
  528MOL0     C69610  -1.511   4.537   7.077 -0.5317  0.4421 -1.3513
  528MOL0     O69611  -1.279   4.746   7.192  0.1570  0.0579 -0.0026
  528MOL0     C69612  -1.006   4.524   7.092  0.6427  0.3772 -0.4778
  528MOL0     C69613  -0.867   4.524   7.048 -0.4758  0.5910  0.8295
  528MOL0     N69614  -0.123   4.621   7.267  0.5326  0.3696  0.1931
  528MOL0     N69615  -0.026   4.711   7.277 -0.3788 -0.2412  0.1607
  528MOL0     C69616   0.863   5.243   7.507 -0.2045 -0.3739 -0.2741
  528MOL0     C69617   0.908   5.225   7.638 -0.2275 -0.5706  0.3055
  528MOL0     C69618   1.096   5.197   8.038  0.3211 -1.5826  0.7789
  528MOL0     C69619   1.205   5.282   8.041  0.8465  0.2928 -0.2965
  528MOL0     C69620   1.257   5.315   8.164 -0.4654 -0.1476 -0.2448
  528MOL0     C69621   1.216   5.265   8.287 -0.2007  0.2324 -0.4003
  528MOL0     O69622   1.281   5.305   8.401 -1.3130  0.5280  0.4389
  528MOL0     C69623   1.227   5.281   8.535 -0.2191  1.2007 -0.7509
  528MOL0     C69624   1.334   5.319   8.639  0.2785  1.1073  0.8268
  528MOL0     C69625   1.486   5.312   8.601  0.5628 -0.2849  0.2881
  528MOL0     C69626   1.563   5.208   8.682  0.3509 -0.5888 -0.2777
  528MOL0     C69627   1.523   5.064   8.677  0.9420 -0.3448 -0.3264
  528MOL0     C69628   1.490   4.945   8.651 -0.4036 -1.0420  0.1848
  528MOL0     C69629   1.119   5.171   8.284 -0.0965 -0.3280  1.0195
  528MOL0     C69630   1.054   5.142   8.163  0.6599 -0.2436  0.1985
  528MOL0     H69631   1.207   5.071   7.581  0.6418  0.2733 -0.7016
  528MOL0     H69632   1.124   5.053   7.369  2.7270 -2.1197  2.9918
  528MOL0     H69633   0.700   5.214   7.299 -1.8845 -1.7220 -1.1034
  528MOL0     H69634   0.744   5.042   7.309  0.6781 -1.6697 -2.9298
  528MOL0     H69635   0.802   5.060   7.068 -0.1517 -2.2068  2.0144
  528MOL0     H69636   0.711   5.211   7.074  0.1900  0.2825  0.7090
  528MOL0     H69637   0.610   4.952   7.187 -0.3690  0.7620  1.2658
  528MOL0     H69638   0.563   5.002   7.025 -2.2966 -1.0329  0.9353
  528MOL0     H69639   0.496   5.170   7.262 -4.0567  0.9194  0.2171
  528MOL0     H69640   0.456   5.199   7.094  1.9255  1.7617  1.5308
  528MOL0     H69641   0.287   5.084   7.266 -1.8923 -0.9717 -1.1685
  528MOL0     H69642   0.399   4.952   7.272 -0.7491 -0.2490 -0.1747
  528MOL0     H69643   0.355   4.903   7.020 -1.3906 -0.8790  1.3207
  528MOL0     H69644   0.258   5.050   7.015 -1.0396  1.3616  1.4350
  528MOL0     H69645   0.158   4.824   7.017 -1.3685 -0.0900  0.4810
  528MOL0     H69646   0.226   4.800   7.188 -1.7950 -0.9632  1.9216
  528MOL0     H69647   0.020   5.017   7.098 -0.2092 -0.5350 -0.1348
  528MOL0     H69648   0.065   4.983   7.258 -2.6126  0.3485  0.4356
  528MOL0     H69649  -0.189   4.830   7.024 -0.2108  0.6767  0.5994
  528MOL0     H69650  -0.282   4.479   7.084 -1.6168  0.6190  2.3625
  528MOL0     H69651  -0.321   4.623   6.990 -1.7943 -1.5376 -1.3392
  528MOL0     H69652  -0.469   4.699   7.162  0.7387  0.0721  1.8141
  528MOL0     H69653  -0.431   4.565   7.265 -0.8231  2.0246  0.7062
  528MOL0     H69654  -0.512   4.398   7.116 -1.6892 -0.7063  1.2017
  528MOL0     H69655  -0.632   4.494   7.176  2.4380  2.3989  2.4728
  528MOL0     H69656  -0.660   4.461   6.910 -1.6777  0.6139 -0.3878
  528MOL0     H69657  -0.513   4.564   6.893 -1.2153  1.1356  0.4637
  528MOL0     H69658  -0.842   4.857   7.006  4.2230 -2.5425 -1.4976
  528MOL0     H69659  -1.059   4.849   7.110 -3.2094 -2.4736  1.9259
  528MOL0     H69660  -1.386   4.515   7.388  0.8513 -2.5641 -0.7966
  528MOL0     H69661  -1.626   4.497   7.437  0.6987 -1.1447  0.1044
  528MOL0     H69662  -1.916   4.581   7.104 -4.5293 -1.9696  0.6917
  528MOL0     H69663  -1.864   4.710   7.215  2.0110 -0.7375  0.2414
  528MOL0     H69664  -2.065   4.713   7.323 -0.2643  1.5135 -1.2987
  528MOL0     H69665  -2.058   4.535   7.323  1.0810  0.6717  0.4039
  528MOL0     H69666  -2.171   4.561   7.083 -1.5403  1.8811 -0.9224
  528MOL0     H69667  -2.141   4.734   7.097 -0.3276 -0.2877 -1.2782
  528MOL0     H69668  -2.338   4.578   7.267 -3.8041  2.3793  1.3268
  528MOL0     H69669  -2.295   4.748   7.276  1.2194  0.8553 -2.3240
  528MOL0     H69670  -2.460   4.612   7.064 -0.9379  1.3456 -2.0745
  528MOL0     H69671  -2.374   4.743   7.014 -1.4426  1.8504  0.2073
  528MOL0     H69672  -2.456   4.892   7.188 -0.5342  1.3580 -0.2581
  528MOL0     H69673  -2.571   4.766   7.244 -1.0651  0.5541 -0.6300
  528MOL0     H69674  -2.599   4.951   7.046  0.4208  0.0619  2.6850
  528MOL0     H69675  -2.608   4.785   6.972 -0.1474 -2.3671  0.6234
  528MOL0     H69676  -2.799   4.746   7.148 -0.1429  0.2664 -1.5638
  528MOL0     H69677  -2.836   4.870   7.034  1.2014 -0.0434 -0.0982
  528MOL0     H69678  -1.720   4.548   7.035 -3.4969 -0.6463  2.1488
  528MOL0     H69679  -1.480   4.563   6.976 -2.1648  2.1307 -1.4638
  528MOL0     H69680  -1.055   4.428   7.104  3.0824 -0.8515  0.2713
  528MOL0     H69681  -0.814   4.431   7.027  2.2264  2.4671 -1.5018
  528MOL0     H69682   0.765   5.285   7.490 -0.8861 -2.3358 -1.4466
  528MOL0     H69683   0.851   5.276   7.715  0.9986 -0.9013  1.4703
  528MOL0     H69684   1.241   5.321   7.946  0.9026 -2.1738 -1.3914
  528MOL0     H69685   1.343   5.381   8.166  0.9899 -1.9098 -1.2123
  528MOL0     H69686   1.214   5.172   8.541  0.5825  1.0259 -1.7897
  528MOL0     H69687   1.132   5.331   8.554 -2.0178 -2.5827  1.4177
  528MOL0     H69688   1.314   5.426   8.650 -0.5731  0.9845  0.5764
  528MOL0     H69689   1.317   5.258   8.729 -0.2999 -1.3743 -0.8414
  528MOL0     H69690   1.524   5.408   8.639 -0.5971  1.1559 -1.9278
  528MOL0     H69691   1.514   5.316   8.495  0.8230  0.2205  0.3691
  528MOL0     H69692   1.664   5.211   8.640 -0.4991  0.7282 -2.4525
  528MOL0     H69693   1.557   5.242   8.785  2.3382 -0.7146 -0.0854
  528MOL0     H69694   1.450   4.855   8.609  1.9456 -2.8173  1.5009
  528MOL0     H69695   1.083   5.111   8.367  1.5680 -4.4294 -0.9267
  528MOL0     H69696   0.967   5.076   8.161  0.3884  0.1234 -0.1802
  529MOL0     O69697   8.616   8.482   5.082 -0.3089  0.5036  0.7886
  529MOL0     C69698   8.635   8.429   4.969  0.7084  0.0731 -0.4634
  529MOL0     O69699   8.584   8.479   4.848  0.3862  0.2247 -0.1833
  529MOL0     C69700   8.481   8.571   4.847  0.1781 -1.0653  0.0805
  529MOL0     C69701   8.353   8.532   4.807  0.2219 -0.4781  0.2604
  529MOL0     C69702   8.246   8.624   4.806 -0.4492  0.0773 -0.5293
  529MOL0     C69703   8.260   8.767   4.825  0.0216  0.3478  0.0397
  529MOL0     O69704   8.165   8.862   4.833 -0.5918  0.4051  0.4013
  529MOL0     C69705   8.040   8.843   4.776  0.3838 -0.2309  0.4113
  529MOL0     C69706   7.950   8.961   4.832 -0.6863 -0.6176  0.1488
  529MOL0     C69707   7.832   8.985   4.741 -0.5007  0.2463  0.8254
  529MOL0     C69708   7.707   9.054   4.791  0.5474  0.0903  1.2073
  529MOL0     C69709   7.607   9.085   4.679  0.7862 -0.7551 -0.3903
  529MOL0     C69710   7.479   9.160   4.721 -0.3619  0.5584  0.8406
  529MOL0     C69711   7.405   9.192   4.587  0.3226 -0.9871 -0.1548
  529MOL0     C69712   7.247   9.207   4.611  0.9792  0.2029 -0.0303
  529MOL0     N69713   7.200   9.348   4.615  0.8814 -0.3214 -0.2417
  529MOL0     C69714   7.195   9.434   4.724 -0.0900 -0.4178  0.1181
  529MOL0     C69715   7.153   9.555   4.666 -0.0284 -0.5601 -0.5124
  529MOL0     C69716   7.166   9.699   4.720 -0.5635 -0.2750  0.3836
  529MOL0     C69717   7.029   9.741   4.760 -0.3781 -0.7630 -0.4430
  529MOL0     C69718   7.024   9.898   4.761 -0.3405 -0.1812 -0.0701
  529MOL0     C69719   6.893   9.933   4.832  0.7267  0.2789 -0.2988
  529MOL0     O69720   6.785   9.905   4.746  0.2172  0.3605 -0.2625
  529MOL0     C69721   6.676   9.843   4.808  0.1481  1.2589 -0.3248
  529MOL0     C69722   6.680   9.730   4.889  0.2881  0.3002 -0.3015
  529MOL0     C69723   6.563   9.671   4.941 -0.3416  0.5930 -0.1196
  529MOL0     C69724   6.430   9.714   4.897 -0.5638 -0.9440 -0.7059
  529MOL0     C69725   6.310   9.645   4.945 -0.2013 -0.4464  0.7353
  529MOL0     O69726   6.194   9.716   4.932  0.3883 -0.4766 -0.0204
  529MOL0     C69727   6.070   9.658   4.959 -0.1665  0.8190 -0.8955
  529MOL0     C69728   6.026   9.531   4.915 -0.0512 -0.0341  0.2071
  529MOL0     C69729   5.897   9.480   4.955 -0.2359 -0.1378  0.2474
  529MOL0     C69730   5.806   9.561   5.026  0.0724  0.1901 -0.3869
  529MOL0     O69731   5.676   9.536   5.045 -0.6904  0.2204 -0.5057
  529MOL0     C69732   5.603   9.460   4.955 -0.7657  0.1037 -1.1600
  529MOL0     C69733   5.505   9.543   4.879 -0.6500 -0.1504  0.1578
  529MOL0     C69734   5.580   9.665   4.811 -0.5807  0.4596  0.2367
  529MOL0     C69735   5.468   9.744   4.735 -1.1145 -0.3340 -0.2783
  529MOL0     C69736   5.508   9.878   4.668 -0.3404 -0.2324  0.4214
  529MOL0     C69737   5.388   9.933   4.597  0.0360  0.0303 -0.3496
  529MOL0     C69738   5.422  10.059   4.510 -0.0065 -0.1972  0.1203
  529MOL0     C69739   5.324  10.135   4.423 -0.3886 -0.1849  0.0536
  529MOL0    Cl69740   5.398  10.286   4.365 -0.4221  0.2436 -0.0794
  529MOL0     C69741   5.844   9.688   5.065 -1.1336 -0.3704 -0.2863
  529MOL0     C69742   5.981   9.734   5.032  0.6914 -1.1555  0.4298
  529MOL0     O69743   6.326   9.538   5.000  0.3595  0.4479  0.0240
  529MOL0     C69744   6.433   9.827   4.808  1.1001 -0.9987 -0.4184
  529MOL0     C69745   6.550   9.882   4.761 -0.5938  0.3928 -0.2583
  529MOL0     N69746   7.093   9.523   4.545  0.3252  0.9205  0.4050
  529MOL0     N69747   7.118   9.405   4.521  0.3239  0.4078  0.5107
  529MOL0     C69748   8.389   8.803   4.854  0.0638 -0.2894  0.1215
  529MOL0     C69749   8.499   8.712   4.865  0.3316  0.1356 -0.2815
  529MOL0     C69750   8.743   8.328   4.962 -0.2134 -0.0338 -0.1697
  529MOL0     C69751   8.793   8.294   4.838  0.3562  0.0015  0.0110
  529MOL0     C69752   8.904   8.211   4.823  0.8238  0.4566 -0.2205
  529MOL0     C69753   8.973   8.177   4.940 -0.5060  0.5199 -0.0463
  529MOL0     O69754   9.073   8.083   4.921  0.3052 -0.7161 -0.2625
  529MOL0     C69755   9.144   8.024   5.022  0.2664 -0.1323  0.3293
  529MOL0     C69756   9.272   7.955   4.965  0.4261  0.3946  0.0614
  529MOL0     C69757   9.244   7.903   4.828 -0.3584  0.7153  0.2393
  529MOL0     C69758   9.374   7.825   4.783 -0.1093  0.1033 -0.3099
  529MOL0     C69759   9.339   7.683   4.806  0.7390 -0.0760 -0.1176
  529MOL0     C69760   9.333   7.563   4.817  0.8847  0.1492  0.7542
  529MOL0     C69761   8.933   8.215   5.068  0.7352 -1.0082 -0.6145
  529MOL0     C69762   8.817   8.289   5.079  0.0053 -0.1024 -0.7210
  529MOL0     H69763   8.322   8.431   4.784 -1.6947  0.3924 -1.3501
  529MOL0     H69764   8.150   8.575   4.793 -1.0555  1.0369  0.2037
  529MOL0     H69765   7.990   8.752   4.811  1.2061 -0.1822  1.8012
  529MOL0     H69766   8.053   8.841   4.668  1.7890 -0.1735  0.5617
  529MOL0     H69767   8.002   9.057   4.843 -0.7220 -0.8694  3.3839
  529MOL0     H69768   7.910   8.923   4.926 -0.1836 -1.4650  0.0247
  529MOL0     H69769   7.810   8.882   4.710 -0.2416  0.3155  0.3961
  529MOL0     H69770   7.862   9.047   4.655 -2.4198 -1.3941 -1.1545
  529MOL0     H69771   7.648   8.995   4.862 -1.9868 -0.4078 -1.1601
  529MOL0     H69772   7.751   9.138   4.847 -0.3373 -0.9792  3.6633
  529MOL0     H69773   7.581   8.987   4.639  4.0536 -1.9106  0.0455
  529MOL0     H69774   7.656   9.134   4.595  0.9943  1.3322  0.8632
  529MOL0     H69775   7.497   9.246   4.787  0.7962 -0.2480  1.6139
  529MOL0     H69776   7.425   9.082   4.774 -0.0505 -3.6711 -4.3098
  529MOL0     H69777   7.443   9.284   4.542  1.3743  0.1086  2.7236
  529MOL0     H69778   7.413   9.114   4.511  1.2134 -1.0110 -0.0505
  529MOL0     H69779   7.216   9.144   4.695  0.9208 -0.9079 -0.8677
  529MOL0     H69780   7.199   9.162   4.524  0.0295  0.9185  0.1051
  529MOL0     H69781   7.223   9.419   4.827 -0.2252  0.3588  0.2702
  529MOL0     H69782   7.201   9.748   4.629 -0.6942  1.7961  1.3803
  529MOL0     H69783   7.248   9.715   4.792 -0.3630  2.6237 -0.3596
  529MOL0     H69784   7.004   9.715   4.864 -0.6012  0.4244 -0.1817
  529MOL0     H69785   6.943   9.711   4.699 -0.4203  1.2338 -1.4745
  529MOL0     H69786   7.117   9.932   4.808 -0.0799 -0.6284 -0.2577
  529MOL0     H69787   7.028   9.933   4.657  0.0525 -1.5988 -0.5563
  529MOL0     H69788   6.895  10.040   4.856 -2.4565 -0.0856  2.2148
  529MOL0     H69789   6.880   9.889   4.931 -2.4125  3.1482  0.7459
  529MOL0     H69790   6.775   9.685   4.918  0.2201 -0.3914 -1.1146
  529MOL0     H69791   6.582   9.585   5.005 -0.3080  0.9008  0.2851
  529MOL0     H69792   6.101   9.475   4.861 -0.7811  0.9903 -2.0033
  529MOL0     H69793   5.864   9.385   4.914 -2.3970  0.9325 -0.6839
  529MOL0     H69794   5.541   9.393   5.016 -1.7575 -0.2453 -2.5162
  529MOL0     H69795   5.662   9.397   4.888  2.1756  2.1211 -0.6386
  529MOL0     H69796   5.438   9.585   4.954 -0.9976 -0.6986  0.1566
  529MOL0     H69797   5.454   9.485   4.801 -0.6123  2.7720 -2.2279
  529MOL0     H69798   5.655   9.628   4.740 -1.3341  2.5159 -1.7338
  529MOL0     H69799   5.624   9.731   4.886  0.1012  3.4799 -2.6236
  529MOL0     H69800   5.409   9.680   4.669 -0.5251  0.1824 -1.3381
  529MOL0     H69801   5.403   9.764   4.820  0.4934  0.1026  0.8944
  529MOL0     H69802   5.567   9.847   4.581 -0.1819  0.5942  0.2257
  529MOL0     H69803   5.564   9.952   4.725 -0.5978  1.1179 -1.0203
  529MOL0     H69804   5.323   9.968   4.678 -0.5385  2.7929 -1.8793
  529MOL0     H69805   5.348   9.859   4.527  2.0198 -0.4250 -1.0499
  529MOL0     H69806   5.473  10.123   4.582  1.8342 -1.9583  0.4856
  529MOL0     H69807   5.496  10.014   4.443  1.3300  0.4394  1.1402
  529MOL0     H69808   5.234  10.162   4.479 -0.7535  0.1814 -0.6901
  529MOL0     H69809   5.289  10.081   4.335  0.9329 -3.1997  1.2338
  529MOL0     H69810   5.774   9.759   5.108  0.3758  0.4683  0.8924
  529MOL0     H69811   5.996   9.841   5.039 -0.6240 -0.8407 -1.0509
  529MOL0     H69812   6.342   9.885   4.803  1.8610  0.7813  3.2405
  529MOL0     H69813   6.540   9.966   4.693  1.8366  0.6303 -0.3813
  529MOL0     H69814   8.394   8.908   4.881  0.2456  0.3823 -2.2647
  529MOL0     H69815   8.600   8.738   4.895 -0.0793 -1.4626  2.9241
  529MOL0     H69816   8.736   8.333   4.755  2.5692  0.4236 -1.3984
  529MOL0     H69817   8.931   8.176   4.725 -1.2994 -2.9277  0.2365
  529MOL0     H69818   9.075   7.955   5.072 -1.2409  1.0191 -0.0898
  529MOL0     H69819   9.171   8.100   5.096 -2.4805  0.3379  0.9815
  529MOL0     H69820   9.356   8.023   4.962 -1.8141  3.4324  1.0228
  529MOL0     H69821   9.298   7.872   5.032 -0.6504  0.3991  0.5241
  529MOL0     H69822   9.231   7.987   4.760  0.1641  1.0332  0.5290
  529MOL0     H69823   9.149   7.849   4.815  0.6453 -1.4982  1.4931
  529MOL0     H69824   9.399   7.844   4.678  4.4584 -0.1154  0.5277
  529MOL0     H69825   9.458   7.856   4.846  0.6233 -0.5962 -0.9227
  529MOL0     H69826   9.330   7.456   4.806  3.2666  0.2221 -2.0638
  529MOL0     H69827   8.975   8.177   5.161 -1.9986 -0.6235  0.9104
  529MOL0     H69828   8.798   8.318   5.182  1.7239 -2.0368  0.2159
  530MOL0     O69829   6.745   7.886   9.811  0.5043  0.1400 -0.2839
  530MOL0     C69830   6.734   7.763   9.813 -0.6019 -0.2449 -0.2217
  530MOL0     O69831   6.615   7.692   9.823 -0.1160  0.5764 -0.1307
  530MOL0     C69832   6.499   7.765   9.822  0.8246 -0.3729  0.4149
  530MOL0     C69833   6.453   7.850   9.725 -0.3655 -0.0379  0.5675
  530MOL0     C69834   6.335   7.923   9.736 -0.5633 -0.0009 -1.7126
  530MOL0     C69835   6.245   7.894   9.844  0.4729 -0.2566 -0.8913
  530MOL0     O69836   6.130   7.959   9.873 -0.0955 -0.4825  0.5390
  530MOL0     C69837   6.140   8.097   9.875 -0.1548 -0.1314  0.3007
  530MOL0     C69838   6.228   8.148   9.996 -0.2386 -0.0714  0.5330
  530MOL0     C69839   6.176   8.090  10.134 -1.3917 -0.4470  0.1212
  530MOL0     C69840   6.243   8.166  10.254  0.0777  0.1571  1.0492
  530MOL0     C69841   6.157   8.178  10.371 -0.0262  0.5458  0.0713
  530MOL0     C69842   6.228   8.253  10.486  1.3551  0.1369  0.2132
  530MOL0     C69843   6.135   8.296  10.601 -0.2624  0.9691  0.7924
  530MOL0     C69844   6.052   8.178  10.657 -0.2839  0.3189  0.7372
  530MOL0     N69845   6.021   8.195  10.800 -0.3961  0.1964 -1.0106
  530MOL0     C69846   6.081   8.120  10.906  1.0729 -0.0681  0.1784
  530MOL0     C69847   6.024   8.185  11.013  1.0222  0.2263 -0.4641
  530MOL0     C69848   6.051   8.170  11.162  0.0438 -0.2042  0.6132
  530MOL0     C69849   6.117   8.301  11.216 -0.0963 -0.4514 -0.3301
  530MOL0     C69850   6.262   8.314  11.181 -0.3139  0.6558  0.0637
  530MOL0     C69851   6.308   8.454  11.218  0.5076 -0.4561 -0.3401
  530MOL0     O69852   6.438   8.470  11.167  0.4395 -0.9447  0.1328
  530MOL0     C69853   6.539   8.406  11.220 -0.4637 -0.5449  0.0410
  530MOL0     C69854   6.559   8.370  11.356  0.1155 -0.3146 -0.3346
  530MOL0     C69855   6.672   8.317  11.408 -0.4812  0.1937 -0.4211
  530MOL0     C69856   6.783   8.300  11.317  0.5530  0.1991  0.5195
  530MOL0     C69857   6.904   8.247  11.373 -1.0563 -0.0622  0.1806
  530MOL0     O69858   6.901   8.220  11.507  0.3525 -0.2644 -0.5097
  530MOL0     C69859   7.027   8.180  11.554 -0.5097 -0.2695 -0.3241
  530MOL0     C69860   7.119   8.276  11.601 -0.1386 -0.3394  0.2251
  530MOL0     C69861   7.252   8.247  11.636 -0.3415  0.1338  0.8022
  530MOL0     C69862   7.297   8.117  11.615  0.9239  0.7882  0.2147
  530MOL0     O69863   7.424   8.088  11.654  0.8044 -0.2249  0.9500
  530MOL0     C69864   7.499   8.086  11.533  0.0821  0.1368  0.2521
  530MOL0     C69865   7.598   7.972  11.544 -0.5752  0.2947 -0.3494
  530MOL0     C69866   7.536   7.832  11.530  0.5722 -0.1892  0.5842
  530MOL0     C69867   7.476   7.810  11.395  0.2498  0.3063  0.9820
  530MOL0     C69868   7.406   7.666  11.383  0.4102 -0.3940  0.2156
  530MOL0     C69869   7.330   7.636  11.249  0.2562 -0.0454  0.0918
  530MOL0     C69870   7.232   7.515  11.259 -0.6525 -0.2173 -0.5721
  530MOL0     C69871   7.292   7.385  11.207  0.0766 -0.9972 -0.1541
  530MOL0    Cl69872   7.424   7.333  11.320 -0.1885 -0.4688  0.1708
  530MOL0     C69873   7.210   8.029  11.557  0.0564 -1.2346 -0.1657
  530MOL0     C69874   7.077   8.056  11.519  0.0593 -0.5919 -0.8019
  530MOL0     O69875   7.002   8.225  11.300  0.2215 -1.0206  0.6519
  530MOL0     C69876   6.769   8.336  11.182 -0.3028 -0.1987  0.5003
  530MOL0     C69877   6.650   8.392  11.137  0.5841  0.1648  0.7728
  530MOL0     N69878   5.934   8.285  10.968  0.3627  0.8893  0.3619
  530MOL0     N69879   5.929   8.284  10.840 -0.4671 -0.8611  0.1769
  530MOL0     C69880   6.273   7.779   9.926 -0.6059 -0.2695 -0.6568
  530MOL0     C69881   6.404   7.722   9.913  0.1515  0.1304  1.1117
  530MOL0     C69882   6.860   7.679   9.820 -0.1892  0.1680  0.3761
  530MOL0     C69883   6.979   7.747   9.807  0.1122  0.8307 -0.9540
  530MOL0     C69884   7.094   7.676   9.789 -0.4706 -0.7463 -0.2074
  530MOL0     C69885   7.096   7.529   9.782 -0.3149 -0.0586  0.3277
  530MOL0     O69886   7.207   7.449   9.766 -0.2589 -0.9891 -0.2557
  530MOL0     C69887   7.337   7.505   9.792 -0.3633 -0.5657 -1.2010
  530MOL0     C69888   7.336   7.545   9.940 -1.3360  0.6331  0.1699
  530MOL0     C69889   7.481   7.578   9.987 -0.3290 -0.0784 -0.4574
  530MOL0     C69890   7.489   7.667  10.114 -0.5525 -0.1662 -0.1987
  530MOL0     C69891   7.630   7.681  10.140 -0.7010 -0.0973 -0.6070
  530MOL0     C69892   7.748   7.706  10.161 -0.1649  0.2206  1.3275
  530MOL0     C69893   6.972   7.465   9.805  0.2312  0.2109 -0.6998
  530MOL0     C69894   6.856   7.540   9.828  0.2849 -0.2617  1.0737
  530MOL0     H69895   6.517   7.883   9.643 -3.5654  1.7307 -1.4386
  530MOL0     H69896   6.300   7.983   9.653 -1.8603 -0.1053 -1.2647
  530MOL0     H69897   6.045   8.148   9.894 -0.3151 -1.4186  3.6346
  530MOL0     H69898   6.186   8.127   9.780 -0.3070 -0.7618  0.0182
  530MOL0     H69899   6.223   8.257   9.994 -0.4077 -0.0204 -2.8931
  530MOL0     H69900   6.335   8.126   9.990 -0.3994 -1.2248  1.5151
  530MOL0     H69901   6.204   7.984  10.132 -2.4236 -0.7235 -1.1674
  530MOL0     H69902   6.067   8.096  10.142 -1.5134 -2.1167 -0.0080
  530MOL0     H69903   6.328   8.104  10.284 -1.9646 -3.3921  0.0619
  530MOL0     H69904   6.283   8.263  10.222 -0.8925  0.4658  0.7261
  530MOL0     H69905   6.134   8.073  10.395 -0.7083  0.1577 -2.0768
  530MOL0     H69906   6.065   8.224  10.335  0.9045  0.5383 -2.5593
  530MOL0     H69907   6.276   8.345  10.451  3.2197 -0.2981  1.4632
  530MOL0     H69908   6.309   8.188  10.521  1.5778  1.3241  2.0535
  530MOL0     H69909   6.200   8.327  10.684 -3.4995  1.7890  3.2310
  530MOL0     H69910   6.065   8.375  10.572  1.4971  2.1177 -0.5897
  530MOL0     H69911   6.096   8.080  10.635 -1.7011 -0.4520  1.1995
  530MOL0     H69912   5.955   8.182  10.607  0.7338  0.0209 -1.3501
  530MOL0     H69913   6.137   8.027  10.902  2.9417  1.0265 -3.5109
  530MOL0     H69914   6.115   8.081  11.163  0.2953 -0.0220  1.3217
  530MOL0     H69915   5.950   8.158  11.203 -0.7074  3.5474  0.2257
  530MOL0     H69916   6.104   8.297  11.325  0.7263 -2.2926 -0.2688
  530MOL0     H69917   6.065   8.390  11.180  2.1675  1.9501  1.8981
  530MOL0     H69918   6.321   8.240  11.236  0.9840  1.0681 -0.7342
  530MOL0     H69919   6.277   8.299  11.074  4.2574  3.3500  0.0557
  530MOL0     H69920   6.292   8.454  11.326 -1.9996 -1.6213 -0.6377
  530MOL0     H69921   6.240   8.531  11.180 -0.9925 -0.1730  2.6093
  530MOL0     H69922   6.475   8.381  11.424 -0.2671 -1.2396 -0.6349
  530MOL0     H69923   6.686   8.313  11.516  2.4017 -0.8946 -0.7424
  530MOL0     H69924   7.095   8.381  11.619  2.9975  0.2262  1.8650
  530MOL0     H69925   7.312   8.330  11.673  1.0134 -0.5946  0.2739
  530MOL0     H69926   7.565   8.172  11.531  1.4164 -0.8631 -0.2974
  530MOL0     H69927   7.437   8.091  11.443 -0.2074 -0.9571  0.3724
  530MOL0     H69928   7.654   7.970  11.638  0.4487 -1.2631 -0.9509
  530MOL0     H69929   7.673   8.004  11.471 -0.9378  0.7248 -0.5381
  530MOL0     H69930   7.464   7.813  11.610 -0.1355  0.9903  0.2396
  530MOL0     H69931   7.620   7.761  11.534  0.7730 -0.2424 -2.5442
  530MOL0     H69932   7.406   7.890  11.372 -0.9661 -1.0388 -0.2247
  530MOL0     H69933   7.552   7.808  11.317 -1.1741 -1.0716 -0.4450
  530MOL0     H69934   7.342   7.654  11.472  1.1486  0.2951  0.8567
  530MOL0     H69935   7.479   7.586  11.398 -2.2784 -2.7766  1.7223
  530MOL0     H69936   7.411   7.603  11.184  0.9143 -2.5660  2.0484
  530MOL0     H69937   7.272   7.720  11.209  1.0654 -0.6107 -2.4396
  530MOL0     H69938   7.194   7.504  11.361 -0.3059  2.2742 -0.1123
  530MOL0     H69939   7.148   7.541  11.194 -1.4703 -1.2317  0.0275
  530MOL0     H69940   7.329   7.396  11.104  0.9221  2.2897  0.4069
  530MOL0     H69941   7.214   7.314  11.178 -2.2293  2.3959 -3.1769
  530MOL0     H69942   7.244   7.928  11.536  2.4441 -0.6145  0.3308
  530MOL0     H69943   7.008   7.988  11.470 -1.5776  1.1280 -1.0176
  530MOL0     H69944   6.853   8.317  11.116 -1.0205 -4.2191  0.4635
  530MOL0     H69945   6.638   8.420  11.033  1.4245  0.8099  0.8390
  530MOL0     H69946   6.199   7.741   9.996  1.9860  0.9870  3.0631
  530MOL0     H69947   6.432   7.644   9.984  2.0817  1.0571  1.4218
  530MOL0     H69948   6.972   7.855   9.810 -5.4360  0.7414 -0.2622
  530MOL0     H69949   7.182   7.739   9.779 -0.5784 -0.2450  1.6921
  530MOL0     H69950   7.364   7.576   9.713  2.4134 -0.2865 -0.1104
  530MOL0     H69951   7.410   7.424   9.793 -0.7618 -1.1048  2.8088
  530MOL0     H69952   7.273   7.632   9.963 -0.7630  0.3436  3.1809
  530MOL0     H69953   7.298   7.468  10.007  1.3092  1.3202  2.6484
  530MOL0     H69954   7.546   7.610   9.906  2.2904  0.2506  1.6387
  530MOL0     H69955   7.517   7.481  10.022 -1.9064 -0.9255 -1.0572
  530MOL0     H69956   7.431   7.757  10.095 -1.7938 -1.1912 -1.6138
  530MOL0     H69957   7.454   7.612  10.202 -0.0822 -1.3585 -0.7378
  530MOL0     H69958   7.852   7.720  10.184  0.4409  1.4455 -1.6707
  530MOL0     H69959   6.959   7.357   9.800 -0.9299  0.3590 -1.2377
  530MOL0     H69960   6.764   7.482   9.827  0.5925 -0.7444  0.1522
  531MOL0     O69961   8.550  10.669   8.085  0.3070  0.6061 -0.7099
  531MOL0     C69962   8.462  10.635   8.011  0.4683 -0.0658  0.8650
  531MOL0     O69963   8.458  10.526   7.939 -0.4489 -0.2391  0.6531
  531MOL0     C69964   8.550  10.426   7.947  0.1220  0.0052  0.6964
  531MOL0     C69965   8.559  10.336   7.835 -0.9995 -1.1118  0.3258
  531MOL0     C69966   8.658  10.232   7.839 -0.1321 -1.1319  0.6632
  531MOL0     C69967   8.746  10.212   7.946 -0.4030 -0.6661 -0.8480
  531MOL0     O69968   8.842  10.114   7.946 -0.3197  0.0192 -0.1954
  531MOL0     C69969   8.842  10.017   7.835 -1.0339 -0.2587  0.1611
  531MOL0     C69970   8.923   9.891   7.855 -0.2233  1.2175 -0.2666
  531MOL0     C69971   9.075   9.913   7.853 -0.1852  0.4892 -0.2557
  531MOL0     C69972   9.138   9.932   7.994  0.6626  0.6994  0.7378
  531MOL0     C69973   9.277   9.983   7.993 -0.4367 -0.5889  0.1260
  531MOL0     C69974   9.338  10.007   8.139  0.0972  0.0218 -0.2236
  531MOL0     C69975   9.477  10.060   8.125  0.7428  0.6926  1.2679
  531MOL0     C69976   9.549  10.060   8.253  0.5183  0.6865 -0.4343
  531MOL0     N69977   9.512  10.181   8.328 -0.1863  0.4502  0.3933
  531MOL0     C69978   9.576  10.303   8.314  0.1445  0.3013 -0.4593
  531MOL0     C69979   9.491  10.391   8.372 -0.9313  0.4440 -0.0913
  531MOL0     C69980   9.504  10.543   8.381 -0.0073 -0.2283  1.0944
  531MOL0     C69981   9.473  10.598   8.239 -0.3628 -0.3732  0.3947
  531MOL0     C69982   9.487  10.750   8.243 -0.0367 -0.4229 -0.2419
  531MOL0     C69983   9.500  10.839   8.116 -0.6786  0.6519  0.5190
  531MOL0     O69984   9.598  10.797   8.026 -0.9062 -0.9527 -0.2412
  531MOL0     C69985   9.727  10.789   8.070  0.0946 -0.3093 -0.1674
  531MOL0     C69986   9.785  10.842   8.186  0.2134  0.5189  0.6464
  531MOL0     C69987   9.917  10.831   8.207 -0.1939  0.2453 -0.3131
  531MOL0     C69988  10.004  10.766   8.114  0.0429  0.2243 -0.7301
  531MOL0     C69989  10.146  10.744   8.133 -1.0355 -0.3405 -0.5046
  531MOL0     O69990  10.212  10.834   8.208 -0.2764 -0.3714  0.4663
  531MOL0     C69991  10.349  10.851   8.215  0.5080 -0.0622 -0.0093
  531MOL0     C69992  10.453  10.799   8.134  0.2960  0.5008  0.0958
  531MOL0     C69993  10.579  10.812   8.183  0.2506 -0.3713  0.3648
  531MOL0     C69994  10.607  10.899   8.292  1.1119  0.3982 -0.5503
  531MOL0     O69995  10.729  10.904   8.351 -0.3193 -0.1834 -0.3368
  531MOL0     C69996  10.787  11.032   8.339  0.4568 -0.4985  0.3910
  531MOL0     C69997  10.943  11.016   8.366  0.8429 -0.0417 -0.2321
  531MOL0     C69998  11.030  10.998   8.246  0.1555 -0.1656 -0.0794
  531MOL0     C69999  11.001  10.869   8.160 -0.6727 -0.0242 -0.7634
  531MOL0     C70000  11.056  10.733   8.203 -0.0880  0.2699 -0.1633
  531MOL0     C70001  10.975  10.670   8.313 -0.3275 -0.5720 -0.2801
  531MOL0     C70002  11.051  10.540   8.347  0.1767 -0.2710  0.1105
  531MOL0     C70003  10.967  10.450   8.443  0.9686  0.2843  0.8062
  531MOL0    Cl70004  10.842  10.373   8.349 -0.0355 -0.4082 -0.1914
  531MOL0     C70005  10.503  10.952   8.364 -0.4503  0.0495 -0.3888
  531MOL0     C70006  10.377  10.926   8.329 -0.2727 -0.9985 -0.0840
  531MOL0     O70007  10.197  10.640   8.083  0.3798  0.0353  0.0630
  531MOL0     C70008   9.945  10.702   7.998 -0.0056 -0.3881  0.0049
  531MOL0     C70009   9.804  10.704   7.986 -0.2238 -0.8635 -0.8214
  531MOL0     N70010   9.386  10.323   8.422 -0.9379 -0.6090 -0.5874
  531MOL0     N70011   9.393  10.202   8.386  0.2110 -0.2683  0.3249
  531MOL0     C70012   8.729  10.276   8.064  0.2373 -0.6852  0.2402
  531MOL0     C70013   8.632  10.387   8.063 -0.2999  0.1796 -0.9955
  531MOL0     C70014   8.357  10.725   7.992  0.3909 -0.2545  0.0572
  531MOL0     C70015   8.360  10.855   8.050 -0.3689  0.4931 -1.0421
  531MOL0     C70016   8.262  10.947   8.020  0.6424 -0.0947 -0.3189
  531MOL0     C70017   8.142  10.914   7.953  0.6040  0.2945  0.0864
  531MOL0     O70018   8.052  11.012   7.929 -0.9245  0.5508  0.4801
  531MOL0     C70019   7.944  10.982   7.838  0.5151  0.2323 -0.5054
  531MOL0     C70020   7.851  11.110   7.805 -0.5961 -0.1606  0.1048
  531MOL0     C70021   7.726  11.059   7.733 -0.2040 -0.4490 -0.0514
  531MOL0     C70022   7.613  11.159   7.729  0.9136  0.1036  0.8985
  531MOL0     C70023   7.588  11.212   7.855  0.9313  0.7092 -0.2638
  531MOL0     C70024   7.568  11.260   7.967 -0.2885 -1.3466 -0.2132
  531MOL0     C70025   8.130  10.778   7.919  0.5404  0.1839  0.2590
  531MOL0     C70026   8.240  10.695   7.929  0.0066 -0.0250  0.4537
  531MOL0     H70027   8.489  10.358   7.756 -0.4095 -2.3937 -0.5749
  531MOL0     H70028   8.678  10.177   7.748 -0.2315  0.2853 -0.2458
  531MOL0     H70029   8.883  10.063   7.745 -0.7290 -0.1962  0.3311
  531MOL0     H70030   8.744   9.975   7.808 -2.4378  2.0450  1.3135
  531MOL0     H70031   8.885   9.836   7.769  0.7269  0.6875 -0.3661
  531MOL0     H70032   8.892   9.831   7.941 -0.6211 -0.3635 -1.4632
  531MOL0     H70033   9.109  10.000   7.796 -1.4114  1.8378  1.0014
  531MOL0     H70034   9.117   9.823   7.808  3.2821  0.2923  2.8847
  531MOL0     H70035   9.076   9.997   8.056 -0.6167  0.4688 -0.2579
  531MOL0     H70036   9.142   9.831   8.038  2.2193  1.2522  1.9439
  531MOL0     H70037   9.283  10.072   7.930  0.8045 -0.9145 -0.2566
  531MOL0     H70038   9.352   9.920   7.943  0.1809 -1.6004  2.2434
  531MOL0     H70039   9.333   9.905   8.178  0.2918 -1.1005 -2.8805
  531MOL0     H70040   9.273  10.074   8.196 -0.1518 -0.7660  0.4373
  531MOL0     H70041   9.542  10.004   8.058  0.4682  0.5313  1.1390
  531MOL0     H70042   9.476  10.161   8.081 -2.6585 -0.6085 -2.1630
  531MOL0     H70043   9.656  10.061   8.234  0.4841 -2.9403 -1.3824
  531MOL0     H70044   9.513   9.979   8.318  3.0590  0.8697  1.3503
  531MOL0     H70045   9.671  10.333   8.271  1.4531 -0.9787  1.3883
  531MOL0     H70046   9.603  10.573   8.417 -0.8672  2.7064  1.3432
  531MOL0     H70047   9.429  10.580   8.451 -1.8144 -0.6371 -0.5481
  531MOL0     H70048   9.374  10.570   8.201  0.4164 -1.3553 -0.9979
  531MOL0     H70049   9.554  10.566   8.173 -0.6929  1.2483 -0.8528
  531MOL0     H70050   9.407  10.797   8.301  0.3108  1.6689 -1.3417
  531MOL0     H70051   9.577  10.766   8.303  0.7062 -0.2710 -1.3658
  531MOL0     H70052   9.531  10.939   8.146  0.0760  0.8213 -0.7496
  531MOL0     H70053   9.401  10.839   8.068  0.2580  1.6363 -1.5512
  531MOL0     H70054   9.719  10.904   8.246 -4.0891 -0.5368 -2.4671
  531MOL0     H70055   9.957  10.874   8.298 -0.1080  0.8155 -0.6175
  531MOL0     H70056  10.428  10.760   8.036 -0.3264 -0.4882  0.6277
  531MOL0     H70057  10.663  10.778   8.124 -0.4733  3.8258 -3.7448
  531MOL0     H70058  10.742  11.106   8.405  1.0714  0.3997 -0.1717
  531MOL0     H70059  10.779  11.082   8.242  0.8780  1.0303  1.1265
  531MOL0     H70060  10.961  10.939   8.442 -2.3109 -1.2664 -0.5294
  531MOL0     H70061  10.968  11.107   8.421  0.6206 -0.5203  0.7010
  531MOL0     H70062  11.134  10.978   8.275 -0.6090 -0.5694  2.6338
  531MOL0     H70063  11.021  11.084   8.178  0.8758  0.3322  0.4377
  531MOL0     H70064  10.894  10.849   8.166  0.0667 -4.8571 -0.0396
  531MOL0     H70065  11.020  10.889   8.054 -0.3502 -7.2184 -2.5185
  531MOL0     H70066  11.156  10.757   8.240 -1.0344  0.3851  2.5193
  531MOL0     H70067  11.059  10.664   8.118  1.1029  1.9845 -1.5808
  531MOL0     H70068  10.872  10.654   8.280 -0.3368 -0.5245 -0.2742
  531MOL0     H70069  10.975  10.732   8.403  0.0667  0.3095 -0.8697
  531MOL0     H70070  11.073  10.485   8.255  0.9874  1.5919 -0.8567
  531MOL0     H70071  11.145  10.569   8.394  1.6396 -1.6048 -1.8633
  531MOL0     H70072  10.925  10.499   8.531 -2.7559 -2.7489  0.9685
  531MOL0     H70073  11.028  10.368   8.483 -2.8308 -5.0190 -2.8440
  531MOL0     H70074  10.516  11.011   8.455  1.8739  0.1344 -0.6963
  531MOL0     H70075  10.302  10.963   8.398 -1.0149  0.0988 -1.4269
  531MOL0     H70076  10.011  10.647   7.931 -0.6630 -1.0479 -0.1042
  531MOL0     H70077   9.740  10.685   7.901 -0.6657  4.3758 -1.9518
  531MOL0     H70078   8.774  10.239   8.155 -0.0154 -2.2608 -0.2537
  531MOL0     H70079   8.616  10.440   8.156 -3.9743 -0.0808 -1.3047
  531MOL0     H70080   8.438  10.887   8.117 -0.6761  0.6941 -0.7790
  531MOL0     H70081   8.284  11.048   8.050  0.0039 -0.1245  0.2765
  531MOL0     H70082   7.875  10.914   7.889 -2.3423  2.9702 -0.4909
  531MOL0     H70083   7.993  10.938   7.751 -0.7364 -2.8416  0.2116
  531MOL0     H70084   7.824  11.166   7.895  2.1617 -1.4658  1.8831
  531MOL0     H70085   7.911  11.173   7.739  1.9674 -1.6887  0.8326
  531MOL0     H70086   7.680  10.979   7.791 -4.2352 -0.0341 -2.2837
  531MOL0     H70087   7.757  11.013   7.638  0.3025 -1.8782  0.7756
  531MOL0     H70088   7.638  11.239   7.658  1.6041  0.4035  1.4680
  531MOL0     H70089   7.520  11.121   7.685  1.3976  0.0563 -0.1360
  531MOL0     H70090   7.541  11.297   8.064  1.2409 -1.0132  0.1135
  531MOL0     H70091   8.043  10.737   7.870  0.8154  1.0836 -1.0209
  531MOL0     H70092   8.229  10.591   7.901  0.1614  0.7225 -2.9162
  532MOL0     O70093   8.052   6.611   4.697  0.6622 -0.2454  0.9092
  532MOL0     C70094   8.163   6.649   4.736 -0.7064  0.6900  0.0167
  532MOL0     O70095   8.187   6.765   4.796  0.7223 -0.1458  0.1469
  532MOL0     C70096   8.107   6.871   4.761  0.2586  0.0130 -1.5592
  532MOL0     C70097   8.128   6.938   4.637 -0.6556 -0.1085 -0.2504
  532MOL0     C70098   8.058   7.048   4.599  0.0954  0.3998  0.7685
  532MOL0     C70099   7.952   7.104   4.674  0.1014  0.6832  0.1600
  532MOL0     O70100   7.902   7.218   4.624 -1.4303 -0.7485 -0.1913
  532MOL0     C70101   7.771   7.271   4.643  0.0392 -0.6684  0.2977
  532MOL0     C70102   7.689   7.243   4.511  0.6669  0.4908 -0.0415
  532MOL0     C70103   7.542   7.275   4.548 -0.3467  0.5442 -0.0771
  532MOL0     C70104   7.444   7.254   4.432  0.6760  0.3203 -0.2775
  532MOL0     C70105   7.294   7.280   4.458 -0.4759  0.1333 -0.0574
  532MOL0     C70106   7.258   7.428   4.489  0.0435 -0.8627  0.7427
  532MOL0     C70107   7.100   7.456   4.485  0.1592  0.2227  0.4270
  532MOL0     C70108   7.082   7.608   4.477  0.1586 -0.1520 -0.2817
  532MOL0     N70109   6.953   7.639   4.407  0.7435  0.5365  0.2189
  532MOL0     C70110   6.930   7.635   4.272 -1.3707  0.1028 -0.4784
  532MOL0     C70111   6.816   7.707   4.245 -0.0104  0.6140  0.5500
  532MOL0     C70112   6.754   7.719   4.114 -0.1647  0.3067 -0.0118
  532MOL0     C70113   6.642   7.618   4.075 -1.0041  0.5860 -0.5152
  532MOL0     C70114   6.511   7.681   4.043  1.0749 -0.0781  0.1070
  532MOL0     C70115   6.439   7.766   4.149 -0.2282 -0.1402  0.1317
  532MOL0     O70116   6.319   7.811   4.087 -0.1940 -0.1042  0.3124
  532MOL0     C70117   6.205   7.726   4.103  0.0858 -0.2478  0.7490
  532MOL0     C70118   6.210   7.591   4.123  0.6660  0.1348 -0.0220
  532MOL0     C70119   6.088   7.513   4.140  0.4408  0.3368  0.2834
  532MOL0     C70120   5.966   7.570   4.133 -0.5983  0.5183  0.9623
  532MOL0     C70121   5.850   7.486   4.124  0.1103 -0.5311  0.5493
  532MOL0     O70122   5.738   7.570   4.109  0.0741  0.1435 -0.3622
  532MOL0     C70123   5.614   7.537   4.163  0.4303 -0.2845  0.4057
  532MOL0     C70124   5.533   7.644   4.184 -0.2803  0.3696  0.8933
  532MOL0     C70125   5.402   7.640   4.233  0.3681  0.8254  0.1099
  532MOL0     C70126   5.343   7.525   4.274 -0.5413 -1.4777  0.8284
  532MOL0     O70127   5.218   7.537   4.336  0.3376 -0.4325  0.2649
  532MOL0     C70128   5.147   7.413   4.347 -0.3615 -0.2058  0.3961
  532MOL0     C70129   5.001   7.443   4.355  0.1954  0.6211 -0.0461
  532MOL0     C70130   4.912   7.323   4.355  0.6924  0.0677 -0.3069
  532MOL0     C70131   4.917   7.245   4.491 -0.7546  0.6505 -0.1762
  532MOL0     C70132   4.818   7.126   4.498  0.5432 -0.1990 -0.6650
  532MOL0     C70133   4.668   7.168   4.499  0.2782  0.6423  0.4385
  532MOL0     C70134   4.638   7.279   4.608 -0.2562 -0.0215 -0.7733
  532MOL0     C70135   4.482   7.267   4.660 -0.2103 -0.5574  0.2673
  532MOL0    Cl70136   4.465   7.388   4.778  0.3251  0.3142  0.3036
  532MOL0     C70137   5.426   7.410   4.255 -0.0346  0.0997  0.3329
  532MOL0     C70138   5.556   7.416   4.198 -0.3696  0.7208 -0.0489
  532MOL0     O70139   5.860   7.364   4.130 -0.1903 -0.7083  0.5158
  532MOL0     C70140   5.968   7.706   4.128  0.0105 -1.2824  0.1473
  532MOL0     C70141   6.080   7.790   4.107 -0.8088  0.3236  0.5962
  532MOL0     N70142   6.767   7.756   4.366  0.0574  0.0305  1.0127
  532MOL0     N70143   6.850   7.714   4.456 -0.2914 -0.0877  0.9975
  532MOL0     C70144   7.927   7.046   4.800 -1.2165  0.5234 -0.2611
  532MOL0     C70145   7.997   6.924   4.839 -0.1105  0.0571  0.8408
  532MOL0     C70146   8.269   6.550   4.727  0.7878 -0.7066  0.5073
  532MOL0     C70147   8.267   6.441   4.644  0.0065  0.1858 -0.3752
  532MOL0     C70148   8.382   6.361   4.628  0.9047 -0.4546  0.4127
  532MOL0     C70149   8.501   6.376   4.702 -0.0739 -0.4454 -0.5055
  532MOL0     O70150   8.611   6.303   4.687 -0.3537 -0.3528  0.7351
  532MOL0     C70151   8.725   6.327   4.767 -0.2803  0.3788 -0.1427
  532MOL0     C70152   8.830   6.224   4.751  0.4966  1.0101 -0.1401
  532MOL0     C70153   8.761   6.079   4.779 -0.2569 -0.9397 -0.1805
  532MOL0     C70154   8.855   5.964   4.814 -0.5811 -0.6721 -0.4382
  532MOL0     C70155   8.954   5.961   4.705  0.8495 -0.2680  0.1070
  532MOL0     C70156   9.014   5.944   4.598  0.7073 -0.9896  0.6583
  532MOL0     C70157   8.497   6.482   4.790  0.0945 -0.4825  0.7404
  532MOL0     C70158   8.386   6.577   4.798  0.7596  0.0510  0.1409
  532MOL0     H70159   8.204   6.898   4.572  1.9260  3.5873  0.2009
  532MOL0     H70160   8.070   7.102   4.506 -1.2101  0.3232  0.5308
  532MOL0     H70161   7.776   7.379   4.660  1.9343 -0.6937  0.1025
  532MOL0     H70162   7.723   7.230   4.732  2.7333 -1.7103  1.3768
  532MOL0     H70163   7.695   7.136   4.485 -1.7667  0.5075 -0.9658
  532MOL0     H70164   7.710   7.296   4.418  3.2852 -1.9358 -0.9855
  532MOL0     H70165   7.541   7.375   4.591  1.7358  0.1641  0.9745
  532MOL0     H70166   7.506   7.200   4.620  0.1026  1.1669  0.8086
  532MOL0     H70167   7.479   7.317   4.350 -0.9696  0.0536 -1.2243
  532MOL0     H70168   7.456   7.155   4.389 -2.4011  0.3557 -1.4458
  532MOL0     H70169   7.258   7.221   4.543  3.9166 -0.4516  1.6945
  532MOL0     H70170   7.259   7.251   4.358 -0.0568 -0.0321 -0.1604
  532MOL0     H70171   7.303   7.496   4.416 -0.3873  0.2102  1.4572
  532MOL0     H70172   7.295   7.448   4.590 -2.0134 -0.1819  1.4321
  532MOL0     H70173   7.059   7.412   4.394  2.0402  2.1058 -1.4618
  532MOL0     H70174   7.061   7.421   4.581  3.1157 -1.4764  1.1319
  532MOL0     H70175   7.162   7.642   4.410  0.2454 -2.4773 -1.4712
  532MOL0     H70176   7.080   7.662   4.572  0.8039 -1.0048  0.2232
  532MOL0     H70177   6.993   7.581   4.202 -0.0535 -0.0025  0.7460
  532MOL0     H70178   6.835   7.711   4.041 -1.3473 -0.7926 -1.2543
  532MOL0     H70179   6.720   7.824   4.110  4.4972  2.0109 -1.3020
  532MOL0     H70180   6.615   7.550   4.156 -4.2204  0.1497 -1.8093
  532MOL0     H70181   6.679   7.545   4.004  1.1970  1.8183 -0.7390
  532MOL0     H70182   6.525   7.742   3.954  0.6474  0.6522  0.5386
  532MOL0     H70183   6.446   7.595   4.024 -0.7138  0.4736  3.0375
  532MOL0     H70184   6.507   7.848   4.177 -0.6159 -0.6403  2.9023
  532MOL0     H70185   6.428   7.715   4.246  0.6639  0.6616  0.6816
  532MOL0     H70186   6.300   7.533   4.142  2.3964  3.1631  1.8540
  532MOL0     H70187   6.101   7.406   4.152  0.9919  0.5989  2.4398
  532MOL0     H70188   5.565   7.746   4.165 -1.3287  0.9417  2.0256
  532MOL0     H70189   5.344   7.730   4.246 -0.2584  0.6787 -1.4744
  532MOL0     H70190   5.182   7.362   4.437 -2.6038  0.5535  1.7885
  532MOL0     H70191   5.165   7.348   4.260  1.4229  3.2516 -2.0303
  532MOL0     H70192   4.966   7.509   4.276  0.9297  1.6557  0.4689
  532MOL0     H70193   4.973   7.501   4.443  0.4969  2.1471 -0.9272
  532MOL0     H70194   4.942   7.266   4.266  1.0301  1.2559 -0.9667
  532MOL0     H70195   4.812   7.366   4.349  0.2052 -1.1095 -0.9813
  532MOL0     H70196   5.018   7.208   4.508 -0.8178 -0.4617 -1.9854
  532MOL0     H70197   4.894   7.304   4.581 -1.6084  2.2685 -1.3894
  532MOL0     H70198   4.841   7.081   4.595 -0.5160 -2.5468 -1.4159
  532MOL0     H70199   4.841   7.054   4.419  2.1505  1.3929 -1.7269
  532MOL0     H70200   4.606   7.079   4.507  1.8750 -0.4215  1.5776
  532MOL0     H70201   4.648   7.223   4.406  1.9108  2.0366  0.8576
  532MOL0     H70202   4.688   7.269   4.705 -2.5997  2.2659  0.8252
  532MOL0     H70203   4.657   7.377   4.562 -2.3527 -0.8851 -3.7959
  532MOL0     H70204   4.469   7.169   4.708 -1.1805 -0.7735 -0.4110
  532MOL0     H70205   4.409   7.283   4.580  1.2553  2.2396 -0.6224
  532MOL0     H70206   5.391   7.311   4.279 -0.2098  0.1889  0.4478
  532MOL0     H70207   5.617   7.331   4.169  1.4221  1.8379  0.2983
  532MOL0     H70208   5.875   7.761   4.139  1.0014 -0.1236  5.1086
  532MOL0     H70209   6.064   7.898   4.105 -1.7421  0.1814 -0.1982
  532MOL0     H70210   7.854   7.070   4.876  1.4831  1.4345  2.2033
  532MOL0     H70211   7.979   6.879   4.936  0.1743  4.5825  3.2987
  532MOL0     H70212   8.182   6.407   4.585 -0.5622 -0.9499  1.0321
  532MOL0     H70213   8.376   6.274   4.564 -0.9061  0.1444 -0.3163
  532MOL0     H70214   8.698   6.344   4.872 -1.6674 -0.3045 -0.3665
  532MOL0     H70215   8.776   6.421   4.744  1.5647 -0.7329 -0.7845
  532MOL0     H70216   8.867   6.216   4.648 -1.0239  0.6412 -0.6856
  532MOL0     H70217   8.919   6.231   4.814 -1.0337 -1.6709  2.5578
  532MOL0     H70218   8.699   6.052   4.692 -1.1314 -2.1374  0.7745
  532MOL0     H70219   8.694   6.083   4.865 -1.0574 -0.1717 -0.8245
  532MOL0     H70220   8.899   5.968   4.914 -5.2039  0.9255  1.8055
  532MOL0     H70221   8.806   5.866   4.819  1.9705 -1.9910  0.8696
  532MOL0     H70222   9.048   5.938   4.497 -2.4600 -0.4112 -0.5586
  532MOL0     H70223   8.582   6.513   4.850  1.3428 -0.7692 -0.8331
  532MOL0     H70224   8.378   6.656   4.871 -0.6247 -1.4621  1.7256
  533MOL0     O70225   2.082   1.338   1.595  0.3621 -0.8802 -0.0926
  533MOL0     C70226   2.159   1.387   1.511  0.2395 -0.1123  1.3632
  533MOL0     O70227   2.167   1.517   1.468  0.2816  0.2629 -0.0510
  533MOL0     C70228   2.055   1.585   1.497  0.3170  0.0210  0.6245
  533MOL0     C70229   2.067   1.720   1.531  0.0236 -0.3531 -0.5940
  533MOL0     C70230   1.954   1.799   1.562 -0.2924 -0.3058 -0.0685
  533MOL0     C70231   1.824   1.748   1.542 -0.3067  0.1289  0.2412
  533MOL0     O70232   1.707   1.795   1.580  0.2740  0.5272 -0.8199
  533MOL0     C70233   1.709   1.887   1.696 -0.2228  0.0902 -0.2612
  533MOL0     C70234   1.562   1.915   1.738  0.6479 -0.0142 -0.0419
  533MOL0     C70235   1.503   2.018   1.643  0.4705  0.8088 -0.7990
  533MOL0     C70236   1.388   2.098   1.711  0.1328  0.3375  0.1704
  533MOL0     C70237   1.303   2.188   1.611 -0.0396  0.5172  0.1704
  533MOL0     C70238   1.185   2.248   1.688  0.9920 -0.8369 -0.0467
  533MOL0     C70239   1.119   2.368   1.615  0.4700  0.3094  0.2605
  533MOL0     C70240   0.977   2.382   1.679 -0.3226 -0.1557 -0.3476
  533MOL0     N70241   0.919   2.517   1.647  0.1213  0.1131 -0.3106
  533MOL0     C70242   0.863   2.557   1.533  0.2157 -0.4398  0.8657
  533MOL0     C70243   0.817   2.677   1.553 -0.5204 -1.4462  0.7926
  533MOL0     C70244   0.732   2.753   1.448  0.1144  0.6421  1.3119
  533MOL0     C70245   0.819   2.838   1.348  1.0131 -0.6327 -0.6956
  533MOL0     C70246   0.864   2.765   1.217  0.2580  0.7214 -2.0163
  533MOL0     C70247   0.875   2.859   1.101  0.1149 -0.3987 -0.0795
  533MOL0     O70248   0.882   2.786   0.980  1.1759  0.4380  0.4751
  533MOL0     C70249   0.992   2.719   0.942  0.6199  0.6548  0.4470
  533MOL0     C70250   1.114   2.760   0.989  0.3710  1.4407  0.8923
  533MOL0     C70251   1.227   2.678   0.974  1.1725  0.1745 -0.3189
  533MOL0     C70252   1.222   2.563   0.893 -0.0024  0.8854  0.1410
  533MOL0     C70253   1.343   2.480   0.862  0.1203  0.9778 -0.7164
  533MOL0     O70254   1.330   2.394   0.760 -0.1116  0.2774  1.1553
  533MOL0     C70255   1.450   2.340   0.710 -0.5167  0.3678  0.0910
  533MOL0     C70256   1.435   2.212   0.645  0.6290 -0.4916 -0.3763
  533MOL0     C70257   1.547   2.159   0.588  1.1777 -0.1703  0.6605
  533MOL0     C70258   1.679   2.209   0.601 -0.0856 -0.0622 -0.1667
  533MOL0     O70259   1.781   2.121   0.562  0.1136 -0.2706  0.3481
  533MOL0     C70260   1.912   2.185   0.568 -0.3285  0.2744 -0.7444
  533MOL0     C70261   1.940   2.280   0.462 -0.0818 -0.3080  0.5628
  533MOL0     C70262   1.947   2.201   0.331 -0.1206 -0.9994 -0.3598
  533MOL0     C70263   1.965   2.276   0.203  0.0953 -0.5754  0.3427
  533MOL0     C70264   2.111   2.349   0.201  1.6001  0.2833 -0.4449
  533MOL0     C70265   2.148   2.399   0.064 -0.2771  0.8617 -0.0391
  533MOL0     C70266   2.299   2.438   0.058 -0.6869  0.1555  0.1723
  533MOL0     C70267   2.340   2.562   0.134 -0.3279 -0.2175 -0.4725
  533MOL0    Cl70268   2.507   2.609   0.099 -0.1162 -0.5780 -0.0257
  533MOL0     C70269   1.678   2.337   0.649 -0.1631 -0.0344 -0.4896
  533MOL0     C70270   1.576   2.397   0.704 -0.0871 -0.2319  0.1229
  533MOL0     O70271   1.435   2.484   0.943 -0.2813 -0.1477  0.2209
  533MOL0     C70272   1.100   2.529   0.842 -0.2529  0.9948  0.5438
  533MOL0     C70273   0.986   2.604   0.865 -0.3930  0.7907 -0.2774
  533MOL0     N70274   0.838   2.704   1.686 -0.4646  0.0945  0.2350
  533MOL0     N70275   0.905   2.610   1.734  0.7399  0.7660 -0.5257
  533MOL0     C70276   1.818   1.616   1.498  0.1480  1.1223  0.2949
  533MOL0     C70277   1.924   1.532   1.476  0.2473  0.2451  0.3658
  533MOL0     C70278   2.274   1.297   1.479  0.2517 -0.1975  0.8613
  533MOL0     C70279   2.282   1.165   1.534 -0.0786 -0.8581  0.2361
  533MOL0     C70280   2.402   1.091   1.501 -0.2387 -0.6987  0.2228
  533MOL0     C70281   2.507   1.136   1.430  0.0657 -0.1051 -0.3575
  533MOL0     O70282   2.612   1.054   1.412 -0.9749 -0.4607  0.5350
  533MOL0     C70283   2.709   1.084   1.310  0.0697  0.7141  0.2427
  533MOL0     C70284   2.803   0.968   1.291 -0.3298 -0.2571  0.1321
  533MOL0     C70285   2.714   0.836   1.286  0.3910  0.5980  1.0402
  533MOL0     C70286   2.762   0.738   1.178  0.7484 -0.5109  2.0158
  533MOL0     C70287   2.688   0.606   1.187 -1.0680 -0.4224  1.0240
  533MOL0     C70288   2.618   0.505   1.166  0.7098 -0.2357 -0.0695
  533MOL0     C70289   2.493   1.270   1.373  0.1839  0.5241 -0.6407
  533MOL0     C70290   2.374   1.341   1.387  0.0722 -0.5107 -0.2798
  533MOL0     H70291   2.168   1.761   1.529 -0.7551  1.8876 -4.4790
  533MOL0     H70292   1.955   1.905   1.586 -0.5128 -0.1788 -0.6110
  533MOL0     H70293   1.756   1.984   1.677  1.0229 -0.2809  0.8211
  533MOL0     H70294   1.763   1.837   1.776 -0.3644 -0.4920 -0.5248
  533MOL0     H70295   1.572   1.955   1.839  0.8321 -0.4416  0.1101
  533MOL0     H70296   1.510   1.819   1.741 -2.6948  1.6517  4.2095
  533MOL0     H70297   1.457   1.967   1.558  1.5638 -0.4643 -0.6536
  533MOL0     H70298   1.582   2.086   1.610  0.3538  2.4332  1.9316
  533MOL0     H70299   1.319   2.026   1.756  1.9722 -2.0404 -0.6365
  533MOL0     H70300   1.428   2.147   1.801  1.8880 -1.4929  0.4478
  533MOL0     H70301   1.254   2.118   1.544 -0.2377  0.1382  0.7042
  533MOL0     H70302   1.352   2.264   1.550  0.4031  0.1656  0.0819
  533MOL0     H70303   1.217   2.278   1.788 -0.6997 -0.7360  0.4854
  533MOL0     H70304   1.116   2.174   1.728  0.9088  1.4710  4.8580
  533MOL0     H70305   1.179   2.455   1.644  2.8062 -0.9387 -0.6468
  533MOL0     H70306   1.105   2.365   1.506  1.4097 -0.9107  0.1587
  533MOL0     H70307   0.972   2.376   1.788  0.5831  2.2628 -0.1158
  533MOL0     H70308   0.913   2.305   1.633 -0.1583  0.3491 -1.4507
  533MOL0     H70309   0.840   2.497   1.446 -0.5870  0.7038  0.2736
  533MOL0     H70310   0.666   2.814   1.511 -0.3777  0.9258  0.5409
  533MOL0     H70311   0.678   2.680   1.388  4.7787 -0.7680 -1.5951
  533MOL0     H70312   0.910   2.868   1.400  0.8852  0.0040 -0.8283
  533MOL0     H70313   0.757   2.927   1.328  2.1896  0.6578  1.1202
  533MOL0     H70314   0.955   2.706   1.230 -2.1119 -2.8596 -0.0708
  533MOL0     H70315   0.781   2.696   1.198 -2.1533  3.0896 -0.8829
  533MOL0     H70316   0.960   2.927   1.112  0.9712 -1.1084 -1.8994
  533MOL0     H70317   0.800   2.938   1.091  0.6784 -0.1725 -4.3701
  533MOL0     H70318   1.138   2.853   1.039  0.9603  1.3768  0.7363
  533MOL0     H70319   1.324   2.714   1.007  0.2185  2.4863  0.1975
  533MOL0     H70320   1.339   2.163   0.656 -0.1779  1.0957 -0.0201
  533MOL0     H70321   1.534   2.064   0.537  1.9571  1.1933 -2.3614
  533MOL0     H70322   1.988   2.106   0.565  0.1925  0.5971  1.6649
  533MOL0     H70323   1.923   2.225   0.669 -0.2098 -0.0974 -0.6086
  533MOL0     H70324   2.036   2.327   0.483 -1.6997  2.9383  1.3810
  533MOL0     H70325   1.867   2.361   0.449  1.0335  0.7454  0.7037
  533MOL0     H70326   1.856   2.141   0.318 -0.9902 -0.7526  3.2471
  533MOL0     H70327   2.030   2.133   0.352  0.2600  0.2682  2.8061
  533MOL0     H70328   1.949   2.213   0.115 -2.2357 -2.0463  1.6999
  533MOL0     H70329   1.898   2.362   0.191  1.1611 -0.1530 -4.9461
  533MOL0     H70330   2.186   2.281   0.241  0.7560  0.2936  1.2608
  533MOL0     H70331   2.120   2.434   0.269  1.9669 -0.1150  0.0121
  533MOL0     H70332   2.085   2.487   0.057 -0.7748  0.5039 -0.1237
  533MOL0     H70333   2.131   2.334  -0.023  3.5879 -0.3506 -0.0965
  533MOL0     H70334   2.371   2.358   0.081  1.1846  0.9326 -2.5324
  533MOL0     H70335   2.313   2.466  -0.046  2.9232  0.2876  0.5704
  533MOL0     H70336   2.343   2.532   0.239 -1.3748 -2.5535 -1.0380
  533MOL0     H70337   2.276   2.646   0.107  2.2819  1.6072 -1.4702
  533MOL0     H70338   1.762   2.405   0.655 -0.6373  0.4435  1.6853
  533MOL0     H70339   1.591   2.491   0.756  4.8694  0.5905 -2.2267
  533MOL0     H70340   1.095   2.433   0.793 -1.2131  1.3260 -0.0331
  533MOL0     H70341   0.883   2.576   0.850 -0.0739 -0.1967 -0.7442
  533MOL0     H70342   1.719   1.586   1.466  0.8870  1.5153 -2.5908
  533MOL0     H70343   1.893   1.431   1.453  0.4399 -0.4166  2.7014
  533MOL0     H70344   2.218   1.119   1.608 -2.4594 -3.1714 -3.0117
  533MOL0     H70345   2.425   1.002   1.559 -0.7144  1.0906  3.3728
  533MOL0     H70346   2.773   1.169   1.337  0.6120  0.6713 -0.8735
  533MOL0     H70347   2.662   1.105   1.214 -2.0512 -1.9569  0.5711
  533MOL0     H70348   2.874   0.983   1.209 -1.3572  1.7813 -0.4476
  533MOL0     H70349   2.868   0.952   1.377 -0.1204 -2.3162 -0.3470
  533MOL0     H70350   2.614   0.854   1.247  0.1745 -2.8605 -0.3841
  533MOL0     H70351   2.700   0.785   1.381  0.8523  1.2747  1.4812
  533MOL0     H70352   2.746   0.780   1.078  1.7347 -0.4543  1.8675
  533MOL0     H70353   2.871   0.729   1.177  1.2575  3.3337 -0.0735
  533MOL0     H70354   2.568   0.412   1.149  1.7306 -0.5884 -1.2746
  533MOL0     H70355   2.569   1.307   1.306 -0.6006 -0.2982 -2.0264
  533MOL0     H70356   2.366   1.438   1.340  1.5806 -0.7474 -1.0974
  534MOL0     O70357   1.639  11.370   4.142  0.3578 -0.6544 -0.3759
  534MOL0     C70358   1.678  11.254   4.101  0.1942  0.0500 -0.9968
  534MOL0     O70359   1.814  11.211   4.096  0.5329 -0.2720  0.1915
  534MOL0     C70360   1.918  11.303   4.117 -0.1880  1.1548 -0.1922
  534MOL0     C70361   1.914  11.437   4.098 -0.2434  0.1566 -0.1324
  534MOL0     C70362   2.038  11.511   4.108  0.3044  0.3513  0.3373
  534MOL0     C70363   2.158  11.448   4.127 -0.4296 -0.4453  0.1739
  534MOL0     O70364   2.277  11.523   4.127 -0.2268  0.2252 -0.2573
  534MOL0     C70365   2.284  11.651   4.187  0.7584  0.3128  0.3924
  534MOL0     C70366   2.423  11.693   4.220  0.4297  0.4691  0.1362
  534MOL0     C70367   2.518  11.681   4.096  0.6582 -0.4158 -0.5388
  534MOL0     C70368   2.629  11.795   4.096 -0.1460  0.4326  0.3910
  534MOL0     C70369   2.710  11.802   3.966  1.0181  0.7109  0.3622
  534MOL0     C70370   2.795  11.928   3.961 -0.4547 -0.6871  0.6692
  534MOL0     C70371   2.873  11.936   3.822 -0.2384 -0.8583 -0.6617
  534MOL0     C70372   2.969  12.050   3.818  0.0620  0.3564  0.3045
  534MOL0     N70373   3.056  12.064   3.693  0.2365  0.3765 -0.1848
  534MOL0     C70374   3.012  12.030   3.564  0.1536 -0.1417  0.2764
  534MOL0     C70375   3.122  12.021   3.482  0.5121 -1.0950  0.8693
  534MOL0     C70376   3.126  12.001   3.331  0.5831 -0.2943 -0.9238
  534MOL0     C70377   3.173  12.135   3.275 -0.1932 -1.0457 -0.0262
  534MOL0     C70378   3.053  12.237   3.274  0.4090  0.2214  1.3952
  534MOL0     C70379   2.969  12.231   3.140  0.2098  0.4609  0.7018
  534MOL0     O70380   2.831  12.246   3.161 -0.2116 -0.5805 -0.9734
  534MOL0     C70381   2.777  12.132   3.206  0.5436 -0.5558 -0.2935
  534MOL0     C70382   2.737  12.128   3.342  0.1409  0.3926 -0.2062
  534MOL0     C70383   2.697  12.006   3.393  0.6081  0.0076 -0.0947
  534MOL0     C70384   2.696  11.886   3.319 -0.5373 -0.0413  0.5231
  534MOL0     C70385   2.662  11.751   3.370  0.0398  0.5879 -0.3341
  534MOL0     O70386   2.611  11.746   3.495 -0.0740  0.2508  0.0688
  534MOL0     C70387   2.587  11.627   3.561 -1.5440  0.7742  0.1859
  534MOL0     C70388   2.516  11.639   3.682  0.8052  0.4117  0.6381
  534MOL0     C70389   2.482  11.520   3.755 -0.1579  0.7342  0.7139
  534MOL0     C70390   2.525  11.394   3.721  0.0175  0.4624  0.1557
  534MOL0     O70391   2.510  11.287   3.802  0.1511  0.3581  0.0194
  534MOL0     C70392   2.395  11.295   3.889  0.5886 -0.0837 -0.2151
  534MOL0     C70393   2.345  11.152   3.912  0.0634  0.2161  0.1507
  534MOL0     C70394   2.364  11.050   3.789  0.5470 -0.7015 -0.7492
  534MOL0     C70395   2.266  11.095   3.680  0.2441  0.0613 -0.2561
  534MOL0     C70396   2.291  11.022   3.546 -0.5127  0.3206 -0.3478
  534MOL0     C70397   2.239  10.874   3.542 -0.5424 -0.9648 -0.5037
  534MOL0     C70398   2.273  10.788   3.419 -0.0037 -0.4835  0.6568
  534MOL0     C70399   2.197  10.654   3.433 -0.6069 -0.3587 -0.0019
  534MOL0    Cl70400   2.178  10.572   3.275  0.0005 -0.1127  0.1306
  534MOL0     C70401   2.613  11.393   3.619  0.2404  0.1094 -0.2790
  534MOL0     C70402   2.647  11.497   3.532 -0.2749  0.4485  0.1160
  534MOL0     O70403   2.673  11.657   3.291 -0.4108  0.3520  0.0290
  534MOL0     C70404   2.716  11.894   3.176 -0.3293 -0.5843 -1.2456
  534MOL0     C70405   2.761  12.019   3.127  0.1468  0.0749 -0.1795
  534MOL0     N70406   3.235  12.036   3.568  0.3294 -0.1102 -0.3740
  534MOL0     N70407   3.193  12.076   3.681  0.4257 -0.5368 -0.3472
  534MOL0     C70408   2.164  11.314   4.154  0.0110  1.6786 -0.4494
  534MOL0     C70409   2.041  11.243   4.158  0.3287  0.5159  0.3615
  534MOL0     C70410   1.578  11.159   4.067  0.6288 -0.0569  0.6523
  534MOL0     C70411   1.614  11.025   4.034 -0.1076 -0.0410 -1.1563
  534MOL0     C70412   1.515  10.944   3.976 -0.4090 -0.8859  0.2074
  534MOL0     C70413   1.380  10.973   3.981  0.5751  0.8273  0.1385
  534MOL0     O70414   1.290  10.884   3.928  0.0529  0.1547  0.2704
  534MOL0     C70415   1.252  10.924   3.797 -0.5136 -0.3991  0.5113
  534MOL0     C70416   1.190  10.811   3.709 -0.0592 -0.1146 -0.6542
  534MOL0     C70417   1.299  10.697   3.701  0.1568  0.7043  0.5970
  534MOL0     C70418   1.227  10.565   3.681 -0.3622 -0.4050 -0.7232
  534MOL0     C70419   1.313  10.442   3.667  0.1911  0.3118  1.0161
  534MOL0     C70420   1.384  10.344   3.659 -0.0712  1.1702 -0.1770
  534MOL0     C70421   1.342  11.098   4.029 -0.0743 -0.3437  0.4884
  534MOL0     C70422   1.439  11.184   4.075 -0.0675 -0.1739  0.4194
  534MOL0     H70423   1.830  11.497   4.064  0.6719  0.6857 -1.5663
  534MOL0     H70424   2.039  11.616   4.081  0.4906  0.6983  1.5994
  534MOL0     H70425   2.223  11.642   4.278 -0.2741  0.3269 -0.2823
  534MOL0     H70426   2.246  11.729   4.121  3.7170  2.2208  0.7414
  534MOL0     H70427   2.457  11.622   4.296 -0.0082  0.5712  0.4383
  534MOL0     H70428   2.423  11.795   4.260 -0.3465  0.3649  0.4228
  534MOL0     H70429   2.465  11.702   4.002 -0.2753  0.2700  0.1232
  534MOL0     H70430   2.563  11.582   4.090  0.8989 -0.2857 -0.9490
  534MOL0     H70431   2.569  11.882   4.125 -4.0066 -3.0661  4.6712
  534MOL0     H70432   2.706  11.781   4.172  4.2274 -0.9945 -3.7632
  534MOL0     H70433   2.640  11.803   3.882 -1.3156 -1.3752  2.1035
  534MOL0     H70434   2.776  11.715   3.958 -1.2798 -1.0282 -0.7984
  534MOL0     H70435   2.876  11.905   4.030 -1.8756 -3.9172  1.4163
  534MOL0     H70436   2.737  12.018   3.984  0.2353 -0.0703  0.0565
  534MOL0     H70437   2.924  11.842   3.798 -0.0729 -1.0411  0.3611
  534MOL0     H70438   2.802  11.960   3.742  0.5349 -0.5962 -1.2886
  534MOL0     H70439   3.036  12.058   3.904  0.7601 -0.8440 -0.1146
  534MOL0     H70440   2.903  12.137   3.828 -3.7835 -1.8506 -3.0149
  534MOL0     H70441   2.908  12.018   3.538 -0.2936  0.6513  1.5981
  534MOL0     H70442   3.025  11.982   3.294 -0.4163  1.6603  0.6088
  534MOL0     H70443   3.210  11.933   3.318  3.8942  1.7105  5.4304
  534MOL0     H70444   3.201  12.120   3.170 -1.6189  0.9144 -0.7372
  534MOL0     H70445   3.263  12.167   3.328  0.0578 -0.0038 -1.0358
  534MOL0     H70446   2.981  12.223   3.355 -1.6401  0.8371 -0.2305
  534MOL0     H70447   3.087  12.341   3.281  1.1536  0.1283 -0.3892
  534MOL0     H70448   2.988  12.131   3.097 -0.1618 -0.3191  2.2785
  534MOL0     H70449   3.016  12.302   3.071  0.2403 -0.8009 -0.6263
  534MOL0     H70450   2.754  12.220   3.395  2.0204  1.5282 -2.5730
  534MOL0     H70451   2.674  12.006   3.499  0.2909  0.6099 -0.1574
  534MOL0     H70452   2.484  11.741   3.702 -1.5670  0.0135 -0.8258
  534MOL0     H70453   2.415  11.541   3.838 -0.0861 -1.2236  1.3278
  534MOL0     H70454   2.319  11.354   3.837  3.9540  6.3207  1.0984
  534MOL0     H70455   2.431  11.349   3.977 -1.8533  0.6690  0.4257
  534MOL0     H70456   2.238  11.152   3.937  0.4377 -1.8744  1.9984
  534MOL0     H70457   2.404  11.112   3.995  1.6246 -0.0713 -1.0677
  534MOL0     H70458   2.335  10.950   3.821 -0.6747  0.4056  1.8525
  534MOL0     H70459   2.464  11.045   3.744  0.5374 -0.4178 -0.8090
  534MOL0     H70460   2.166  11.092   3.725  0.7737  0.9835  1.0452
  534MOL0     H70461   2.291  11.200   3.660  3.5270 -0.1642  2.0412
  534MOL0     H70462   2.400  11.014   3.542 -0.6259 -2.9726  0.1321
  534MOL0     H70463   2.252  11.086   3.466 -1.4312  0.7411  0.4198
  534MOL0     H70464   2.130  10.878   3.546 -0.5090  0.5314 -0.5234
  534MOL0     H70465   2.283  10.823   3.629  2.9653  1.2086 -0.8152
  534MOL0     H70466   2.231  10.832   3.328  0.0166  1.0889  1.3819
  534MOL0     H70467   2.380  10.778   3.395 -0.7040 -2.3855 -2.2560
  534MOL0     H70468   2.096  10.670   3.473 -0.8135 -2.3120  0.3630
  534MOL0     H70469   2.255  10.592   3.502  2.8382  0.9498 -1.4998
  534MOL0     H70470   2.645  11.294   3.588 -1.7301 -1.1412  1.4106
  534MOL0     H70471   2.703  11.472   3.442  1.2014 -0.5702  1.2564
  534MOL0     H70472   2.714  11.805   3.113  0.5278 -2.4272  1.1766
  534MOL0     H70473   2.783  12.019   3.021  1.4711  0.4266  0.0808
  534MOL0     H70474   2.266  11.279   4.167 -0.2185  1.6182  1.4211
  534MOL0     H70475   2.051  11.136   4.171 -2.9748  0.0009 -0.4977
  534MOL0     H70476   1.714  10.982   4.039 -0.2266 -0.2009  0.7822
  534MOL0     H70477   1.544  10.850   3.931  0.3708 -0.8690  0.6595
  534MOL0     H70478   1.342  10.950   3.740  1.1555  0.7040  3.4274
  534MOL0     H70479   1.185  11.010   3.796  1.2904  1.0633 -0.7500
  534MOL0     H70480   1.091  10.803   3.753  0.2692  0.7171  0.2660
  534MOL0     H70481   1.178  10.855   3.610 -1.0489 -0.0365 -0.5053
  534MOL0     H70482   1.356  10.693   3.794  0.0888 -1.3401  0.5846
  534MOL0     H70483   1.360  10.715   3.612  0.6653  0.6958  0.9441
  534MOL0     H70484   1.147  10.544   3.754 -1.0672 -0.4035 -1.4836
  534MOL0     H70485   1.180  10.577   3.583 -2.0246  2.4074  0.2917
  534MOL0     H70486   1.432  10.249   3.649 -2.4667 -0.0243 -1.1010
  534MOL0     H70487   1.244  11.143   4.039  1.0157  2.8980 -1.9071
  534MOL0     H70488   1.411  11.277   4.122  1.6635  1.3123 -1.3351
  535MOL0     O70489   8.442   1.912   4.233  0.1298 -0.4194 -0.3354
  535MOL0     C70490   8.492   1.907   4.124  0.0013  0.2444 -0.7381
  535MOL0     O70491   8.440   1.955   4.005  0.6140 -0.2338 -0.4164
  535MOL0     C70492   8.318   2.030   4.015 -0.2692  0.3032  0.6991
  535MOL0     C70493   8.315   2.143   3.947  0.7254 -0.8666 -0.7367
  535MOL0     C70494   8.216   2.238   3.982  0.3198 -0.4332  1.0039
  535MOL0     C70495   8.099   2.191   4.049  0.5798 -0.2661 -1.4014
  535MOL0     O70496   7.992   2.279   4.067 -0.1019  0.1307  0.2875
  535MOL0     C70497   7.864   2.220   4.092 -0.7256 -0.2412  0.2191
  535MOL0     C70498   7.760   2.341   4.101  0.0012  0.1066 -0.8478
  535MOL0     C70499   7.615   2.290   4.112 -0.5842 -1.0433  0.7862
  535MOL0     C70500   7.513   2.399   4.064  0.4113  0.0853 -0.6059
  535MOL0     C70501   7.476   2.490   4.188  0.0333  0.7892  0.1882
  535MOL0     C70502   7.365   2.593   4.145  0.7188  0.3707  1.5613
  535MOL0     C70503   7.359   2.724   4.229 -0.7587 -0.2879  0.2753
  535MOL0     C70504   7.215   2.745   4.274 -0.5494  0.1803 -0.0197
  535MOL0     N70505   7.153   2.639   4.342 -0.5230  0.0647  0.2711
  535MOL0     C70506   7.206   2.552   4.431 -0.1518 -0.0595 -0.4194
  535MOL0     C70507   7.116   2.448   4.447  0.6029 -0.1714 -0.3593
  535MOL0     C70508   7.131   2.322   4.536  0.4716 -0.1366 -0.7743
  535MOL0     C70509   7.034   2.216   4.513  0.3594 -0.0085  0.4082
  535MOL0     C70510   7.069   2.120   4.403  0.2463 -0.5054 -0.3616
  535MOL0     C70511   7.060   2.183   4.268 -0.4056 -0.6227 -0.1760
  535MOL0     O70512   7.082   2.086   4.163 -0.0908 -0.9904 -0.1835
  535MOL0     C70513   7.199   2.015   4.150  0.7376  0.3619 -0.0311
  535MOL0     C70514   7.326   2.076   4.176  0.6511  0.3632 -0.4164
  535MOL0     C70515   7.438   1.993   4.165  0.3430 -0.8766 -0.7528
  535MOL0     C70516   7.431   1.854   4.135  0.7042 -0.3012 -1.4837
  535MOL0     C70517   7.551   1.775   4.127  0.8947 -0.6940  0.3686
  535MOL0     O70518   7.663   1.846   4.124 -0.9298  0.2578  0.4106
  535MOL0     C70519   7.778   1.773   4.110  0.0582 -0.3624 -0.2264
  535MOL0     C70520   7.821   1.665   4.200  0.0766 -0.6580  1.5020
  535MOL0     C70521   7.932   1.599   4.165 -0.1632 -0.7249  0.1725
  535MOL0     C70522   8.020   1.646   4.070 -0.0757 -0.1532  0.1992
  535MOL0     O70523   8.140   1.578   4.066 -1.0117 -0.0362  0.3393
  535MOL0     C70524   8.249   1.619   3.978 -0.0974  0.1427  1.2210
  535MOL0     C70525   8.370   1.516   3.992  0.0299  0.5168  0.1936
  535MOL0     C70526   8.435   1.541   4.123  0.3746  0.9092  0.5628
  535MOL0     C70527   8.572   1.485   4.141 -0.4329  0.4215 -0.1368
  535MOL0     C70528   8.617   1.517   4.283  0.1868  0.3934 -0.1910
  535MOL0     C70529   8.558   1.415   4.383  0.6069  0.0990  0.6102
  535MOL0     C70530   8.596   1.440   4.535  0.8802 -0.5038  0.7142
  535MOL0     C70531   8.598   1.314   4.608 -0.1936  0.0812 -0.5912
  535MOL0    Cl70532   8.710   1.190   4.561 -0.1747 -0.3721 -0.1195
  535MOL0     C70533   7.984   1.750   3.989 -0.6473  0.1469 -0.0419
  535MOL0     C70534   7.866   1.814   4.012 -0.0781 -0.5077 -0.0182
  535MOL0     O70535   7.533   1.656   4.118  0.0022  0.6436  0.3084
  535MOL0     C70536   7.309   1.800   4.106 -0.0330 -0.1026  0.7229
  535MOL0     C70537   7.197   1.884   4.101 -0.1711 -0.1641  0.0082
  535MOL0     N70538   7.008   2.494   4.389  0.7608  0.0430  0.1738
  535MOL0     N70539   7.023   2.612   4.345  0.2207 -0.0482 -0.6753
  535MOL0     C70540   8.098   2.055   4.108 -0.3185  1.0203  0.3913
  535MOL0     C70541   8.211   1.980   4.091 -0.4882  0.2928  0.5642
  535MOL0     C70542   8.640   1.865   4.120 -0.6829  0.5188 -0.2148
  535MOL0     C70543   8.706   1.849   4.001  1.5769  0.4777 -0.0948
  535MOL0     C70544   8.844   1.808   3.995  0.3195  1.1760  0.4573
  535MOL0     C70545   8.924   1.788   4.110  0.6539  0.1107  0.7197
  535MOL0     O70546   9.061   1.772   4.093  0.1442  0.2788  0.9260
  535MOL0     C70547   9.152   1.802   4.201 -0.2776  0.0534  0.1072
  535MOL0     C70548   9.271   1.889   4.130 -0.1337  0.7357 -0.0840
  535MOL0     C70549   9.230   2.017   4.060  1.5131  0.0469  0.5013
  535MOL0     C70550   9.188   2.125   4.160 -0.6711  0.4701  1.4101
  535MOL0     C70551   9.158   2.242   4.076 -0.0012 -0.3375 -0.3630
  535MOL0     C70552   9.122   2.337   4.003  0.2630  0.5158 -0.6708
  535MOL0     C70553   8.856   1.818   4.232 -0.5169 -0.0300  0.8928
  535MOL0     C70554   8.722   1.858   4.236 -0.2794  0.9784 -0.0696
  535MOL0     H70555   8.411   2.166   3.902  1.4630  1.5084  1.7752
  535MOL0     H70556   8.228   2.334   3.934  2.8682  0.1525  2.6282
  535MOL0     H70557   7.877   2.168   4.187  4.9894 -1.1490 -0.7150
  535MOL0     H70558   7.830   2.134   4.033  1.6678 -0.9842 -0.1955
  535MOL0     H70559   7.784   2.385   4.003  4.4769  1.3649  0.5992
  535MOL0     H70560   7.778   2.417   4.177 -1.3498  1.0591 -1.4242
  535MOL0     H70561   7.592   2.254   4.212 -0.0802 -1.0573  0.9003
  535MOL0     H70562   7.600   2.203   4.048  2.8370 -0.2053 -1.4427
  535MOL0     H70563   7.542   2.456   3.976  2.1657  0.4894  0.1977
  535MOL0     H70564   7.421   2.351   4.029  1.4546 -0.4963 -2.7021
  535MOL0     H70565   7.557   2.552   4.226 -1.8969  2.9898  0.9597
  535MOL0     H70566   7.443   2.429   4.273  1.9301 -1.2915 -0.4657
  535MOL0     H70567   7.267   2.544   4.147  1.9176 -2.4100 -0.5954
  535MOL0     H70568   7.394   2.616   4.042  1.0082 -1.8801  1.0840
  535MOL0     H70569   7.420   2.724   4.320  1.4353  1.6169 -1.0793
  535MOL0     H70570   7.410   2.796   4.164 -0.4129 -1.4964 -0.8375
  535MOL0     H70571   7.155   2.775   4.187  1.1852  0.6411 -1.1228
  535MOL0     H70572   7.212   2.816   4.357  1.4511 -0.2216  0.4546
  535MOL0     H70573   7.311   2.542   4.458 -0.8904 -4.3810  1.8071
  535MOL0     H70574   7.117   2.361   4.637  0.0716 -1.7138 -0.1919
  535MOL0     H70575   7.234   2.286   4.550 -0.0646 -0.6730  2.4323
  535MOL0     H70576   6.932   2.252   4.492  0.8357  1.6141  0.7121
  535MOL0     H70577   7.031   2.147   4.598 -0.0494 -1.0811 -0.4474
  535MOL0     H70578   7.165   2.077   4.433  0.2170 -0.2556  0.1021
  535MOL0     H70579   7.000   2.037   4.421  0.9417 -1.2174 -0.9329
  535MOL0     H70580   7.148   2.248   4.269  2.6592 -4.1750  4.4558
  535MOL0     H70581   6.964   2.232   4.247  0.3550  0.4305 -1.3765
  535MOL0     H70582   7.339   2.182   4.195 -0.3708  0.3201  0.6726
  535MOL0     H70583   7.528   2.050   4.186  0.3535 -0.4690 -1.8732
  535MOL0     H70584   7.756   1.631   4.280  0.9860  0.8393  2.9187
  535MOL0     H70585   7.956   1.511   4.224  0.7802  1.6383  3.6187
  535MOL0     H70586   8.272   1.724   4.000 -0.7113  0.5612 -0.0416
  535MOL0     H70587   8.203   1.612   3.879 -2.2028  2.0204  1.9927
  535MOL0     H70588   8.438   1.535   3.908 -0.6919  2.0238 -0.0671
  535MOL0     H70589   8.326   1.416   3.984  2.2694 -0.5393  0.2327
  535MOL0     H70590   8.368   1.494   4.196  1.4186  0.2202  1.1093
  535MOL0     H70591   8.437   1.645   4.155 -0.3645  0.7618  1.1199
  535MOL0     H70592   8.583   1.377   4.136  0.9059  0.5204  0.3178
  535MOL0     H70593   8.640   1.529   4.067 -1.0706 -2.2403 -2.4502
  535MOL0     H70594   8.582   1.612   4.323  2.4438  0.0406  2.9612
  535MOL0     H70595   8.726   1.519   4.280  0.2385 -1.4209 -2.0986
  535MOL0     H70596   8.578   1.315   4.345 -1.6483  0.4139 -1.6564
  535MOL0     H70597   8.449   1.406   4.384  0.7255 -1.5005  1.2092
  535MOL0     H70598   8.699   1.477   4.541  0.9183 -0.7789  3.0275
  535MOL0     H70599   8.525   1.507   4.584 -0.3171 -2.7804  2.2914
  535MOL0     H70600   8.498   1.274   4.589  0.3076 -0.7192 -1.6511
  535MOL0     H70601   8.621   1.339   4.712  0.8752  0.1949 -0.8434
  535MOL0     H70602   8.053   1.797   3.920  0.4387  0.8200  1.4372
  535MOL0     H70603   7.830   1.891   3.943 -2.6131 -0.2943  1.4140
  535MOL0     H70604   7.292   1.696   4.079 -1.2421  0.3660 -0.3966
  535MOL0     H70605   7.097   1.845   4.081 -1.2278  1.1121  2.3309
  535MOL0     H70606   8.015   2.007   4.158  0.2792 -1.2090 -0.6572
  535MOL0     H70607   8.209   1.883   4.140  0.9346  0.8609  1.8449
  535MOL0     H70608   8.647   1.848   3.910  2.5834  1.4763 -0.7817
  535MOL0     H70609   8.882   1.798   3.894 -0.3809  2.7245  0.0091
  535MOL0     H70610   9.186   1.707   4.243 -4.4605 -1.7057  0.0374
  535MOL0     H70611   9.122   1.871   4.279  1.2104 -0.8059  1.5026
  535MOL0     H70612   9.340   1.919   4.209  2.7395 -2.9990 -0.9313
  535MOL0     H70613   9.329   1.819   4.071 -0.1717  0.8474 -0.2557
  535MOL0     H70614   9.141   2.011   3.998  2.1773  2.1561 -0.7690
  535MOL0     H70615   9.312   2.058   4.000  2.0225  0.2916  1.3314
  535MOL0     H70616   9.104   2.094   4.223 -0.7311 -0.1334  1.0460
  535MOL0     H70617   9.271   2.151   4.226  0.9704 -1.8436  0.3964
  535MOL0     H70618   9.086   2.421   3.948  0.4249  1.0320  0.0079
  535MOL0     H70619   8.904   1.806   4.329  0.8400  0.9719  0.3791
  535MOL0     H70620   8.677   1.872   4.333 -1.8866 -0.7165 -0.5060
  536MOL0     O70621   0.329   7.499   2.313  0.5299 -0.2332  0.4465
  536MOL0     C70622   0.286   7.428   2.403 -0.6878 -0.5318  0.3489
  536MOL0     O70623   0.159   7.381   2.408 -0.1521 -0.3441  0.1660
  536MOL0     C70624   0.056   7.429   2.332 -0.3395 -0.1212 -0.7545
  536MOL0     C70625  -0.027   7.343   2.268  0.1339  0.2924  0.2779
  536MOL0     C70626  -0.137   7.393   2.188 -1.4301  0.2946  0.4106
  536MOL0     C70627  -0.152   7.531   2.168 -0.3892  0.3984 -0.2845
  536MOL0     O70628  -0.243   7.574   2.077  0.3573 -0.4650 -1.1388
  536MOL0     C70629  -0.381   7.522   2.092  0.0379 -0.4236  0.3215
  536MOL0     C70630  -0.453   7.491   1.964 -0.8441  0.5090  0.1815
  536MOL0     C70631  -0.379   7.398   1.870 -0.8242 -0.7848  1.1160
  536MOL0     C70632  -0.461   7.376   1.730 -0.0515 -0.1145  0.3315
  536MOL0     C70633  -0.432   7.247   1.649  0.7861 -0.8244 -0.1061
  536MOL0     C70634  -0.293   7.265   1.583  0.2038  0.0038 -0.0410
  536MOL0     C70635  -0.272   7.163   1.467 -0.5215 -0.4246  0.5662
  536MOL0     C70636  -0.244   7.024   1.522  0.7546 -0.6490 -0.2816
  536MOL0     N70637  -0.358   6.941   1.565 -0.2180  0.0812 -0.8748
  536MOL0     C70638  -0.483   6.935   1.504 -0.0667 -0.7145 -0.2015
  536MOL0     C70639  -0.568   6.888   1.596  0.8433  0.2781  0.0148
  536MOL0     C70640  -0.723   6.862   1.578 -0.2957  0.9647  0.6694
  536MOL0     C70641  -0.757   6.717   1.541  0.0593 -0.1503 -0.1567
  536MOL0     C70642  -0.717   6.614   1.657 -1.1378  0.6279 -0.8334
  536MOL0     C70643  -0.783   6.472   1.635  0.3261 -0.1942 -0.5711
  536MOL0     O70644  -0.716   6.423   1.518  1.1099  0.2256 -0.1850
  536MOL0     C70645  -0.766   6.309   1.458 -0.0793  0.2728 -0.1060
  536MOL0     C70646  -0.702   6.271   1.342  1.1994  0.5735 -0.2242
  536MOL0     C70647  -0.747   6.153   1.278 -0.2485 -0.2059 -0.9824
  536MOL0     C70648  -0.843   6.072   1.334  0.5169  0.9858 -0.3027
  536MOL0     C70649  -0.881   5.938   1.267  0.0291  0.8123 -0.1952
  536MOL0     O70650  -0.849   5.918   1.138  0.9261  0.0861  0.0234
  536MOL0     C70651  -0.905   5.810   1.080  0.8017 -0.1642  0.0822
  536MOL0     C70652  -0.833   5.695   1.042  0.4050  0.3032  0.7346
  536MOL0     C70653  -0.876   5.589   0.970  0.0901 -0.0214 -0.7212
  536MOL0     C70654  -1.007   5.591   0.929  0.9177 -0.5557  0.6267
  536MOL0     O70655  -1.062   5.485   0.859  0.0579 -0.6146  0.1178
  536MOL0     C70656  -1.062   5.367   0.929 -0.0931  0.3578  0.5524
  536MOL0     C70657  -1.180   5.279   0.880  0.1201 -0.1447  0.2491
  536MOL0     C70658  -1.139   5.191   0.759  0.2098  0.9641 -0.3184
  536MOL0     C70659  -1.224   5.068   0.760  0.3685 -0.0161 -0.0826
  536MOL0     C70660  -1.277   5.020   0.630 -0.4877 -0.1079  0.4887
  536MOL0     C70661  -1.369   5.120   0.555  0.5973  0.3159  0.0959
  536MOL0     C70662  -1.505   5.151   0.622 -0.4868  0.0050 -0.7237
  536MOL0     C70663  -1.614   5.240   0.550  0.0687  0.3408 -0.1611
  536MOL0    Cl70664  -1.744   5.273   0.665 -0.2217 -0.1362 -0.2542
  536MOL0     C70665  -1.093   5.694   0.966 -0.1649  0.7653 -0.4397
  536MOL0     C70666  -1.042   5.808   1.040  1.5467  0.2917  1.0330
  536MOL0     O70667  -0.930   5.857   1.328  0.1428 -0.4944 -0.1993
  536MOL0     C70668  -0.894   6.103   1.459  1.0736  0.4001  0.2453
  536MOL0     C70669  -0.861   6.224   1.523  0.1447  0.4235  1.2279
  536MOL0     N70670  -0.495   6.856   1.711  0.2402 -0.1720  0.0740
  536MOL0     N70671  -0.375   6.889   1.690  0.3009 -0.4202 -0.0268
  536MOL0     C70672  -0.081   7.623   2.245  1.0631  0.7323 -0.7305
  536MOL0     C70673   0.028   7.568   2.320 -0.5676  0.7138  0.0898
  536MOL0     C70674   0.388   7.404   2.509  1.1973  0.4304  0.5127
  536MOL0     C70675   0.339   7.344   2.629  0.6592  0.1476  0.0418
  536MOL0     C70676   0.421   7.323   2.742  0.5396 -0.2576  0.3158
  536MOL0     C70677   0.557   7.347   2.730  0.0140  0.1458 -1.3176
  536MOL0     O70678   0.660   7.356   2.826  0.0382  0.1917  0.3324
  536MOL0     C70679   0.638   7.288   2.949 -0.0223 -0.0371  0.6988
  536MOL0     C70680   0.750   7.314   3.040  0.3291 -0.4126 -0.3200
  536MOL0     C70681   0.738   7.219   3.163  0.4019  0.7519  0.0832
  536MOL0     C70682   0.810   7.086   3.158 -0.0878  0.5735 -0.3198
  536MOL0     C70683   0.954   7.104   3.141  0.4263  0.8659  0.0243
  536MOL0     C70684   1.071   7.118   3.109 -0.0780 -0.5700 -0.5522
  536MOL0     C70685   0.608   7.394   2.610  0.0319 -0.6884  1.3229
  536MOL0     C70686   0.522   7.429   2.505  0.5534 -0.8973  0.1806
  536MOL0     H70687  -0.008   7.237   2.281 -0.4715  0.3497  1.9457
  536MOL0     H70688  -0.184   7.321   2.122  1.9450 -0.9033 -0.9052
  536MOL0     H70689  -0.437   7.592   2.154  1.5502  0.8453  0.3168
  536MOL0     H70690  -0.380   7.429   2.149  2.1222 -1.2042 -0.8676
  536MOL0     H70691  -0.463   7.589   1.917  0.0228  0.2345 -0.5919
  536MOL0     H70692  -0.545   7.434   1.981  0.3390 -0.9460  2.2349
  536MOL0     H70693  -0.377   7.297   1.911  0.1096 -1.0438  0.4517
  536MOL0     H70694  -0.280   7.442   1.856 -1.8000  0.8764 -1.3621
  536MOL0     H70695  -0.569   7.378   1.748  0.2647 -0.0516  2.5730
  536MOL0     H70696  -0.430   7.454   1.660  1.6373 -1.4642 -0.5031
  536MOL0     H70697  -0.505   7.227   1.570  2.9714 -1.2048 -2.1701
  536MOL0     H70698  -0.436   7.160   1.714 -0.1816 -0.8241 -0.1441
  536MOL0     H70699  -0.210   7.259   1.654  0.2502 -3.6501 -0.2235
  536MOL0     H70700  -0.288   7.362   1.532  2.2423 -0.0141  0.0560
  536MOL0     H70701  -0.353   7.159   1.394 -0.5185  0.5851  0.4866
  536MOL0     H70702  -0.183   7.179   1.405  0.3215 -3.4111  0.8688
  536MOL0     H70703  -0.172   7.038   1.604  1.5945  1.5642 -1.3259
  536MOL0     H70704  -0.203   6.968   1.438 -0.0132  0.6785 -1.5848
  536MOL0     H70705  -0.494   6.972   1.403  1.4088 -0.5663 -0.3267
  536MOL0     H70706  -0.761   6.930   1.502  1.9344  0.4324 -1.0189
  536MOL0     H70707  -0.780   6.877   1.671  0.8710 -4.6508  2.7500
  536MOL0     H70708  -0.709   6.690   1.447 -1.0945  0.5962 -0.9827
  536MOL0     H70709  -0.863   6.703   1.518  0.5741 -2.8337 -1.1593
  536MOL0     H70710  -0.608   6.610   1.660 -0.9442  0.1128 -4.4073
  536MOL0     H70711  -0.747   6.652   1.755  0.5676  3.2816 -1.2619
  536MOL0     H70712  -0.888   6.486   1.610  0.2816  0.2321 -0.1812
  536MOL0     H70713  -0.767   6.414   1.727  3.2182  1.8997  0.4351
  536MOL0     H70714  -0.630   6.340   1.299 -1.2487  4.6539  1.6208
  536MOL0     H70715  -0.700   6.131   1.183 -0.7792  2.1012 -1.8685
  536MOL0     H70716  -0.732   5.687   1.081  0.1969 -0.6472  1.1144
  536MOL0     H70717  -0.810   5.510   0.935  0.9314 -0.5144  1.7790
  536MOL0     H70718  -1.066   5.385   1.037  1.6489 -4.2835  1.6592
  536MOL0     H70719  -0.975   5.302   0.913 -1.5894 -1.2460 -1.8119
  536MOL0     H70720  -1.278   5.326   0.867 -1.1654 -2.9523 -1.2751
  536MOL0     H70721  -1.201   5.213   0.965  3.2729 -0.0523  1.2267
  536MOL0     H70722  -1.036   5.154   0.767 -1.0139 -2.6456  0.6890
  536MOL0     H70723  -1.149   5.238   0.661  1.0314 -1.1531 -1.5018
  536MOL0     H70724  -1.144   4.998   0.787  2.9339  2.0061 -1.8969
  536MOL0     H70725  -1.301   5.076   0.837  0.0164 -0.5755 -0.3645
  536MOL0     H70726  -1.325   4.922   0.626 -0.6915  0.0351 -2.0105
  536MOL0     H70727  -1.196   5.011   0.557 -1.8769 -0.5431 -1.0448
  536MOL0     H70728  -1.395   5.078   0.457 -2.4760  1.2867  0.3715
  536MOL0     H70729  -1.324   5.217   0.534 -1.2746  0.8984 -1.5814
  536MOL0     H70730  -1.547   5.054   0.652  0.6205 -0.6126 -1.0912
  536MOL0     H70731  -1.469   5.211   0.706  1.9730 -0.1540 -1.5613
  536MOL0     H70732  -1.649   5.187   0.461  4.4681 -0.3628 -1.7354
  536MOL0     H70733  -1.571   5.336   0.520 -1.0964  0.8417 -0.2648
  536MOL0     H70734  -1.193   5.692   0.925 -0.7423 -0.0109  0.9421
  536MOL0     H70735  -1.115   5.887   1.050 -0.4451 -1.4557  0.9715
  536MOL0     H70736  -0.989   6.064   1.495  1.0115 -0.5503 -0.8656
  536MOL0     H70737  -0.923   6.249   1.609  0.3188  0.1224  1.4439
  536MOL0     H70738  -0.097   7.731   2.249 -1.1000  0.4383  1.5863
  536MOL0     H70739   0.098   7.643   2.357  2.8897 -0.4298 -3.4546
  536MOL0     H70740   0.230   7.337   2.632  0.5989  0.7445 -0.6086
  536MOL0     H70741   0.373   7.292   2.835 -1.3624 -0.9910 -0.8498
  536MOL0     H70742   0.629   7.182   2.926  1.0528  0.6018 -3.3176
  536MOL0     H70743   0.548   7.326   2.998  0.8405  1.1589  1.4038
  536MOL0     H70744   0.844   7.292   2.987  0.6154  0.8826 -0.3881
  536MOL0     H70745   0.760   7.419   3.067  1.4522 -0.7825  0.8045
  536MOL0     H70746   0.633   7.196   3.181  0.5603 -2.3064 -2.0601
  536MOL0     H70747   0.777   7.282   3.244 -2.2973  1.2643  1.0744
  536MOL0     H70748   0.797   7.031   3.252  0.4026 -0.0832 -0.6289
  536MOL0     H70749   0.783   7.020   3.075  0.6414  0.2783 -0.3284
  536MOL0     H70750   1.172   7.130   3.076  1.8723 -0.7893  4.4687
  536MOL0     H70751   0.712   7.424   2.606 -0.0686 -0.3710 -2.9269
  536MOL0     H70752   0.554   7.478   2.413 -2.3973  0.3558 -0.2780
  537MOL0     O70753   8.918   5.063   2.415 -1.0510  0.3482 -0.1890
  537MOL0     C70754   9.025   5.046   2.352  0.5910 -0.0397  0.6966
  537MOL0     O70755   9.049   4.959   2.250  0.0605  0.5750  0.4858
  537MOL0     C70756   8.935   4.894   2.208  0.4933  0.9451 -0.3376
  537MOL0     C70757   8.852   4.810   2.291  0.5599  0.1264  0.0348
  537MOL0     C70758   8.742   4.751   2.221 -0.0411  0.4184 -0.1935
  537MOL0     C70759   8.705   4.774   2.086  0.0615  0.5413 -0.3767
  537MOL0     O70760   8.594   4.718   2.034 -0.2375 -0.4650 -0.3854
  537MOL0     C70761   8.552   4.780   1.911  0.2908  0.1041 -0.3597
  537MOL0     C70762   8.415   4.720   1.857  0.6222 -0.1623 -0.0862
  537MOL0     C70763   8.442   4.576   1.814  0.5402  0.3681  0.7091
  537MOL0     C70764   8.474   4.564   1.659  0.4028 -0.3939  0.6710
  537MOL0     C70765   8.343   4.587   1.583  0.1132 -0.3777  0.0295
  537MOL0     C70766   8.385   4.588   1.431 -0.4731  0.5563  0.0170
  537MOL0     C70767   8.256   4.576   1.358  0.0143  0.1991  0.8351
  537MOL0     C70768   8.264   4.545   1.201 -0.1275  0.5503 -1.0873
  537MOL0     N70769   8.119   4.519   1.161 -0.7859  1.0742  0.3517
  537MOL0     C70770   8.031   4.618   1.120  0.2467  0.6698  0.3287
  537MOL0     C70771   7.911   4.566   1.117  0.3263 -0.4967  0.6166
  537MOL0     C70772   7.781   4.640   1.092  0.4627  1.4144 -0.0534
  537MOL0     C70773   7.727   4.698   1.212 -0.5150 -0.0155  0.7738
  537MOL0     C70774   7.617   4.810   1.189  0.0680  1.4870 -1.8298
  537MOL0     C70775   7.523   4.789   1.081  1.1409 -0.1020  0.6700
  537MOL0     O70776   7.421   4.880   1.060 -0.6810  0.1696 -0.4239
  537MOL0     C70777   7.331   4.861   0.952  0.4102 -0.7503 -0.4587
  537MOL0     C70778   7.229   4.955   0.941  0.6772 -0.2135 -0.2557
  537MOL0     C70779   7.124   4.934   0.857 -0.9606  0.6278  0.2435
  537MOL0     C70780   7.122   4.823   0.771 -0.2532 -0.7101 -0.7598
  537MOL0     C70781   7.016   4.797   0.671  0.4464  0.2498  0.2262
  537MOL0     O70782   6.911   4.890   0.668 -0.9182  0.3826 -0.0982
  537MOL0     C70783   6.825   4.866   0.569  0.2632  0.0694 -0.0627
  537MOL0     C70784   6.718   4.780   0.594 -0.7903 -1.4466 -0.3349
  537MOL0     C70785   6.607   4.773   0.517  0.7295 -0.3106  0.2602
  537MOL0     C70786   6.584   4.860   0.412 -0.5537 -0.2286 -0.2025
  537MOL0     O70787   6.470   4.852   0.352  0.2051 -1.0733  0.0439
  537MOL0     C70788   6.447   4.954   0.252 -0.5979 -0.3586  0.2408
  537MOL0     C70789   6.300   4.958   0.210 -1.2294  0.5402 -0.6730
  537MOL0     C70790   6.252   4.819   0.167  0.7450  0.7263 -1.3655
  537MOL0     C70791   6.109   4.845   0.140  0.6625 -0.0787  0.4803
  537MOL0     C70792   6.040   4.714   0.098  1.4419  1.1025 -0.8902
  537MOL0     C70793   5.891   4.705   0.122 -0.2121 -0.4220 -0.2636
  537MOL0     C70794   5.812   4.817   0.063 -0.1236 -0.3977 -0.1306
  537MOL0     C70795   5.760   4.909   0.176 -0.0327  0.0704 -0.2293
  537MOL0    Cl70796   5.591   4.963   0.122 -0.4111  0.3650  0.5710
  537MOL0     C70797   6.699   4.943   0.380  0.5082 -1.0101 -0.2154
  537MOL0     C70798   6.818   4.942   0.456 -0.2110 -0.1106 -1.3454
  537MOL0     O70799   7.026   4.694   0.605  0.0851  0.6098  0.3835
  537MOL0     C70800   7.234   4.733   0.772 -0.5667  0.1855 -0.3371
  537MOL0     C70801   7.332   4.754   0.866  0.0051  0.2641  0.3356
  537MOL0     N70802   7.921   4.435   1.157 -0.0318 -0.8879 -0.2372
  537MOL0     N70803   8.050   4.406   1.182 -0.0181 -0.6917  0.1629
  537MOL0     C70804   8.787   4.859   2.021 -0.8903 -0.4372  0.0783
  537MOL0     C70805   8.909   4.905   2.072 -1.0604 -1.2252  0.6508
  537MOL0     C70806   9.140   5.127   2.389 -0.5834  0.5966  0.5521
  537MOL0     C70807   9.133   5.254   2.440  0.2513 -1.0736 -0.8106
  537MOL0     C70808   9.248   5.317   2.485  0.0730  0.2503  0.1351
  537MOL0     C70809   9.372   5.265   2.464 -1.1464  0.8912  0.4555
  537MOL0     O70810   9.471   5.355   2.479 -0.2087 -0.4202 -0.4598
  537MOL0     C70811   9.608   5.310   2.470  1.3975 -0.4918  0.3230
  537MOL0     C70812   9.701   5.435   2.486  0.4869 -0.0836  0.1880
  537MOL0     C70813   9.689   5.482   2.621 -0.0339  0.0203 -0.6014
  537MOL0     C70814   9.829   5.515   2.682 -0.3332 -0.7596  0.5367
  537MOL0     C70815   9.870   5.647   2.622  0.3633  0.0313 -1.2257
  537MOL0     C70816   9.906   5.758   2.588 -0.1231 -0.3196 -0.0866
  537MOL0     C70817   9.387   5.141   2.401  0.1732  0.2272  0.2857
  537MOL0     C70818   9.268   5.067   2.363 -0.7593 -0.5733  0.6433
  537MOL0     H70819   8.854   4.805   2.400 -1.0485 -1.7272  0.0353
  537MOL0     H70820   8.685   4.677   2.274 -0.7974 -0.2164 -1.8307
  537MOL0     H70821   8.616   4.761   1.824  0.4519  0.0506 -0.2318
  537MOL0     H70822   8.539   4.887   1.929  1.3220  0.0131  1.1241
  537MOL0     H70823   8.387   4.792   1.778  2.0919 -0.1133 -0.5926
  537MOL0     H70824   8.336   4.722   1.932 -1.7992 -0.1427 -2.4773
  537MOL0     H70825   8.350   4.519   1.833  1.8271 -1.5625  1.4066
  537MOL0     H70826   8.515   4.530   1.881  2.4065  0.3418 -1.2350
  537MOL0     H70827   8.548   4.640   1.631 -1.5886  0.9166 -1.5321
  537MOL0     H70828   8.507   4.464   1.632 -0.4382 -0.3623 -0.5599
  537MOL0     H70829   8.297   4.680   1.617  1.1894 -0.3695  1.5713
  537MOL0     H70830   8.268   4.509   1.601 -1.4487  1.0034 -0.2211
  537MOL0     H70831   8.454   4.508   1.404 -1.1324  0.2594 -0.8511
  537MOL0     H70832   8.436   4.683   1.415 -0.3970  0.2864 -1.5205
  537MOL0     H70833   8.197   4.495   1.403 -2.8053  1.8355  0.3045
  537MOL0     H70834   8.195   4.665   1.374 -1.4438 -0.8330  1.2164
  537MOL0     H70835   8.307   4.448   1.176 -1.3927  0.0934 -1.5953
  537MOL0     H70836   8.316   4.628   1.153 -0.0562 -1.0427 -3.9752
  537MOL0     H70837   8.063   4.721   1.109  2.2567  0.3097  2.0501
  537MOL0     H70838   7.711   4.567   1.051 -2.3888  3.8272  0.1836
  537MOL0     H70839   7.790   4.720   1.018  0.1569  1.3948 -0.1145
  537MOL0     H70840   7.797   4.759   1.271 -2.8018  3.3937  0.2510
  537MOL0     H70841   7.685   4.613   1.267  0.5905 -0.5123  0.8855
  537MOL0     H70842   7.554   4.816   1.278  0.8029 -0.4720 -1.1203
  537MOL0     H70843   7.667   4.908   1.183  1.1343  0.9552 -1.8964
  537MOL0     H70844   7.471   4.694   1.099 -1.0776  1.2454  1.9080
  537MOL0     H70845   7.575   4.777   0.986 -3.2230  0.7039 -2.1200
  537MOL0     H70846   7.229   5.038   1.011 -0.0248 -0.6009  0.2150
  537MOL0     H70847   7.048   5.011   0.852 -1.5534  0.0789  0.6514
  537MOL0     H70848   6.727   4.711   0.677  1.8211  1.0837  1.7140
  537MOL0     H70849   6.534   4.695   0.536  0.7721 -0.1551  1.0899
  537MOL0     H70850   6.497   4.928   0.158 -3.1294 -1.9031 -0.7704
  537MOL0     H70851   6.473   5.051   0.295 -1.1860 -0.4657  0.8551
  537MOL0     H70852   6.297   5.029   0.127 -1.1198  1.2115 -0.1141
  537MOL0     H70853   6.242   4.995   0.295 -0.1132 -1.3222  1.0176
  537MOL0     H70854   6.259   4.749   0.250 -1.5544 -1.1455 -2.6135
  537MOL0     H70855   6.297   4.775   0.078 -1.8640 -1.1399 -1.8762
  537MOL0     H70856   6.056   4.901   0.218 -0.0887 -1.7285  1.2071
  537MOL0     H70857   6.113   4.895   0.042  0.6978  0.1609  0.6038
  537MOL0     H70858   6.078   4.630   0.157 -0.9211 -0.8332 -1.9573
  537MOL0     H70859   6.060   4.673  -0.001 -3.3372 -1.6919 -1.0070
  537MOL0     H70860   5.872   4.692   0.229  1.2623  1.0778  0.2176
  537MOL0     H70861   5.855   4.610   0.080  0.5972 -2.9418  4.1300
  537MOL0     H70862   5.871   4.873  -0.009 -0.2193  0.2950  0.3193
  537MOL0     H70863   5.725   4.781   0.006  1.8458 -1.7199 -2.4667
  537MOL0     H70864   5.829   4.994   0.185 -0.4799  0.1600  4.3053
  537MOL0     H70865   5.763   4.865   0.276  2.8713  2.7688  1.0594
  537MOL0     H70866   6.694   5.017   0.301 -1.2857  0.5805  1.2700
  537MOL0     H70867   6.904   5.006   0.438 -1.2412  1.8842  0.4103
  537MOL0     H70868   7.243   4.648   0.705 -0.6565  1.1706 -1.6340
  537MOL0     H70869   7.412   4.681   0.866  0.9862  1.2937  1.4822
  537MOL0     H70870   8.773   4.899   1.921 -2.2676 -1.5802 -0.2253
  537MOL0     H70871   8.967   4.972   2.010 -3.0764 -0.6824 -0.7475
  537MOL0     H70872   9.036   5.298   2.460 -0.1656 -1.8379 -1.0950
  537MOL0     H70873   9.228   5.418   2.521  0.7989  0.9171 -1.2258
  537MOL0     H70874   9.633   5.266   2.374 -0.7244 -1.0111 -0.0315
  537MOL0     H70875   9.640   5.237   2.545  2.7276  0.3943  0.6619
  537MOL0     H70876   9.805   5.403   2.470  0.3652  0.7130 -2.7962
  537MOL0     H70877   9.683   5.506   2.406  1.3329 -0.6659 -0.5374
  537MOL0     H70878   9.630   5.412   2.681  1.3719 -0.2379  0.5264
  537MOL0     H70879   9.626   5.571   2.621  0.6653  0.5678 -2.7733
  537MOL0     H70880   9.819   5.530   2.790  2.3809 -1.4678  0.9462
  537MOL0     H70881   9.909   5.444   2.661  1.0756  0.4085  1.7634
  537MOL0     H70882   9.935   5.858   2.563 -1.4303  0.2372  0.5129
  537MOL0     H70883   9.485   5.112   2.365  1.1517 -1.0063  3.5692
  537MOL0     H70884   9.270   4.971   2.313 -2.6963 -0.5672  0.4583
  538MOL0     O70885  11.042   2.677   0.672  0.7566 -0.5244 -1.0737
  538MOL0     C70886  11.034   2.739   0.564 -0.0208 -1.3324 -0.4878
  538MOL0     O70887  11.122   2.723   0.458  0.4134 -0.0710 -0.3431
  538MOL0     C70888  11.176   2.602   0.425  0.4089  0.1426  0.6467
  538MOL0     C70889  11.159   2.475   0.489 -0.0450  0.7012  0.4023
  538MOL0     C70890  11.242   2.362   0.437  0.6364 -0.9015  0.3506
  538MOL0     C70891  11.326   2.379   0.335  1.2026 -0.0733 -0.1697
  538MOL0     O70892  11.381   2.264   0.287  0.7994  0.3304  0.3757
  538MOL0     C70893  11.435   2.253   0.155  0.6014  0.4288 -0.2033
  538MOL0     C70894  11.455   2.110   0.125 -0.3758  0.1997 -0.1592
  538MOL0     C70895  11.534   2.038   0.228 -0.1262  0.1265 -0.4280
  538MOL0     C70896  11.584   1.900   0.189  0.7625 -0.1713 -0.2589
  538MOL0     C70897  11.697   1.855   0.293  0.1226 -0.5528 -0.7458
  538MOL0     C70898  11.754   1.715   0.247 -0.0364 -0.0154 -0.0385
  538MOL0     C70899  11.675   1.583   0.292 -0.1746  0.0641 -0.4114
  538MOL0     C70900  11.722   1.453   0.237 -0.1052 -0.2047  0.9204
  538MOL0     N70901  11.858   1.425   0.249 -0.2178 -0.3843  0.5415
  538MOL0     C70902  11.965   1.477   0.172 -0.7172 -0.6324  0.0494
  538MOL0     C70903  12.074   1.408   0.208  0.5958 -0.4686 -0.6574
  538MOL0     C70904  12.205   1.412   0.145  0.3595  0.5066  0.1371
  538MOL0     C70905  12.293   1.530   0.188  0.3563 -1.3420 -0.0700
  538MOL0     C70906  12.331   1.526   0.331  0.3153 -0.3384  0.2553
  538MOL0     C70907  12.426   1.633   0.380  0.4183 -2.1757  0.1866
  538MOL0     O70908  12.368   1.765   0.359  0.2662  0.0110  0.5099
  538MOL0     C70909  12.261   1.797   0.443 -0.3053  0.2375  0.3213
  538MOL0     C70910  12.158   1.863   0.385 -0.8237 -0.1249 -0.4270
  538MOL0     C70911  12.043   1.899   0.457 -0.0721  0.5098 -0.3956
  538MOL0     C70912  12.030   1.866   0.596 -0.1858 -0.6324 -0.5457
  538MOL0     C70913  11.923   1.903   0.685 -0.8287  0.1565  0.3638
  538MOL0     O70914  11.839   2.006   0.630  0.3516  0.1935  0.3848
  538MOL0     C70915  11.730   2.048   0.689 -0.3340  0.9922  0.5356
  538MOL0     C70916  11.718   2.078   0.822 -0.0516  1.0722 -0.0712
  538MOL0     C70917  11.601   2.130   0.876 -0.3112  0.4428  0.0147
  538MOL0     C70918  11.485   2.151   0.787 -0.4065  0.7709 -0.4607
  538MOL0     O70919  11.371   2.204   0.851  0.4532  0.5914  0.5502
  538MOL0     C70920  11.245   2.166   0.781  0.1336  0.4759 -0.2528
  538MOL0     C70921  11.128   2.228   0.851 -0.4702  0.3196 -0.8945
  538MOL0     C70922  11.121   2.173   0.988  0.3854  0.0585 -0.5929
  538MOL0     C70923  11.005   2.234   1.054  0.2087  0.5772 -0.6648
  538MOL0     C70924  10.983   2.214   1.202  0.3835 -0.6532 -0.1775
  538MOL0     C70925  10.931   2.083   1.256 -0.3349 -0.2862  0.6304
  538MOL0     C70926  10.797   2.039   1.194  0.1792  0.3137  0.4119
  538MOL0     C70927  10.695   2.150   1.190 -0.0669  1.1366 -1.0180
  538MOL0    Cl70928  10.647   2.198   1.358  0.3636  0.2958  0.1485
  538MOL0     C70929  11.496   2.118   0.660 -0.8700 -0.4270  0.4792
  538MOL0     C70930  11.616   2.069   0.608 -0.4715 -0.4022 -0.3456
  538MOL0     O70931  11.909   1.841   0.798 -0.0792  1.1296  0.2790
  538MOL0     C70932  12.144   1.804   0.656 -1.0769 -0.6161  0.9540
  538MOL0     C70933  12.255   1.775   0.579 -0.4694  1.2560  0.7969
  538MOL0     N70934  12.036   1.317   0.311  0.9203  0.3173  0.9033
  538MOL0     N70935  11.908   1.329   0.328  0.0711  0.7674  0.7168
  538MOL0     C70936  11.346   2.509   0.282 -0.1947  0.2889 -0.0091
  538MOL0     C70937  11.270   2.615   0.323 -0.0111  1.2139 -0.1670
  538MOL0     C70938  10.965   2.862   0.570 -0.1922 -0.2962 -0.0921
  538MOL0     C70939  10.864   2.884   0.672  0.3319 -0.2012  0.4118
  538MOL0     C70940  10.776   2.993   0.663 -1.0061 -0.5224 -0.4000
  538MOL0     C70941  10.790   3.092   0.564 -0.1878 -0.1805 -0.3659
  538MOL0     O70942  10.689   3.178   0.567 -0.1929 -0.1249 -0.1361
  538MOL0     C70943  10.671   3.264   0.459 -0.3102 -0.6877  0.3133
  538MOL0     C70944  10.542   3.339   0.482  0.4343  0.8003 -0.5578
  538MOL0     C70945  10.435   3.247   0.537  0.7832 -0.6239  0.2329
  538MOL0     C70946  10.297   3.312   0.521 -0.5363  0.6635  0.1413
  538MOL0     C70947  10.270   3.403   0.635  0.3788 -0.0356  0.0331
  538MOL0     C70948  10.261   3.483   0.728  0.5981 -0.5377  0.7953
  538MOL0     C70949  10.903   3.079   0.478 -0.3519  0.2054  0.7407
  538MOL0     C70950  10.986   2.972   0.485  0.2965 -0.3603  0.2292
  538MOL0     H70951  11.094   2.460   0.574  0.5476 -2.5624  0.4173
  538MOL0     H70952  11.233   2.264   0.482  1.1837 -1.7250 -1.2490
  538MOL0     H70953  11.531   2.305   0.159  0.9312 -0.1716 -0.2163
  538MOL0     H70954  11.362   2.302   0.091 -0.9744  3.3442  3.4505
  538MOL0     H70955  11.501   2.098   0.027 -2.2062  1.9875 -1.3005
  538MOL0     H70956  11.361   2.055   0.118 -0.7350  0.6323  0.9533
  538MOL0     H70957  11.475   2.032   0.320  3.0002 -0.4995  1.7117
  538MOL0     H70958  11.621   2.097   0.259  0.3511  0.9473 -3.1194
  538MOL0     H70959  11.502   1.827   0.193  0.1046  0.4432 -1.8075
  538MOL0     H70960  11.623   1.904   0.087 -2.9786  0.3420 -1.8569
  538MOL0     H70961  11.661   1.848   0.396  1.4041 -1.3669 -0.3327
  538MOL0     H70962  11.766   1.939   0.289 -0.7675  0.3741  1.5644
  538MOL0     H70963  11.854   1.709   0.290 -1.0373  0.5590  2.5588
  538MOL0     H70964  11.753   1.720   0.138 -1.3000  0.7028 -0.0251
  538MOL0     H70965  11.664   1.585   0.401 -0.4973 -2.1333 -0.3545
  538MOL0     H70966  11.581   1.600   0.239  0.8146  2.0296 -1.7031
  538MOL0     H70967  11.709   1.451   0.128 -1.3561 -2.6986  1.0445
  538MOL0     H70968  11.653   1.378   0.276 -5.0065  3.2522 -0.1410
  538MOL0     H70969  11.956   1.550   0.092 -1.0779 -2.3435 -1.5556
  538MOL0     H70970  12.190   1.430   0.038  1.0284  3.1097  0.4023
  538MOL0     H70971  12.253   1.316   0.163  2.4475  1.5491  0.4163
  538MOL0     H70972  12.235   1.618   0.159  2.6852  0.4850  0.5776
  538MOL0     H70973  12.382   1.529   0.125  1.0838 -2.8729  0.9107
  538MOL0     H70974  12.242   1.532   0.394  1.8340  2.5384  2.4005
  538MOL0     H70975  12.374   1.428   0.354  1.1029  0.2725  1.4735
  538MOL0     H70976  12.516   1.623   0.319 -1.1056 -1.9213 -2.2720
  538MOL0     H70977  12.454   1.618   0.485  2.8658  3.5558  0.6899
  538MOL0     H70978  12.168   1.879   0.278  1.5252  0.5540 -0.1610
  538MOL0     H70979  11.972   1.962   0.404  2.4114  1.6597 -2.6261
  538MOL0     H70980  11.807   2.061   0.880  1.9089  0.2008 -3.1275
  538MOL0     H70981  11.589   2.153   0.982  0.7210  2.0021 -0.1774
  538MOL0     H70982  11.233   2.058   0.772 -3.4911  0.5642  1.4691
  538MOL0     H70983  11.239   2.210   0.681  0.2066 -2.5164 -1.6757
  538MOL0     H70984  11.035   2.213   0.796  0.0446 -3.4345 -0.9916
  538MOL0     H70985  11.144   2.336   0.862 -0.7976  0.3118 -0.2967
  538MOL0     H70986  11.213   2.190   1.045  1.1137  0.4109 -1.8560
  538MOL0     H70987  11.110   2.064   0.983 -0.5251  0.0477  0.9731
  538MOL0     H70988  11.003   2.343   1.042  1.4757  0.5052 -1.7624
  538MOL0     H70989  10.914   2.195   1.007 -1.2388  0.2127  2.1863
  538MOL0     H70990  10.911   2.292   1.228  0.2675 -0.5748 -0.7251
  538MOL0     H70991  11.082   2.233   1.246  1.0400  1.0515 -2.2222
  538MOL0     H70992  10.921   2.095   1.364  0.0060  1.9016  0.4559
  538MOL0     H70993  11.001   1.999   1.258 -2.0062 -1.7578  1.6736
  538MOL0     H70994  10.822   2.016   1.090 -2.1315 -0.7146  0.0305
  538MOL0     H70995  10.747   1.952   1.236 -0.8220  0.9315  0.5362
  538MOL0     H70996  10.602   2.109   1.151 -0.5925 -0.6831  1.8612
  538MOL0     H70997  10.720   2.244   1.141 -0.6530  1.4417 -0.7282
  538MOL0     H70998  11.424   2.130   0.579 -0.1598 -3.6414 -0.7924
  538MOL0     H70999  11.603   2.050   0.502  2.7038  3.0336 -1.5962
  538MOL0     H71000  12.154   1.785   0.763  2.1198 -0.9427  0.7114
  538MOL0     H71001  12.335   1.723   0.630  0.1549  3.0894  1.7625
  538MOL0     H71002  11.419   2.524   0.204  2.1494  1.9228  2.3266
  538MOL0     H71003  11.289   2.713   0.282 -0.2424  0.8378 -1.2011
  538MOL0     H71004  10.840   2.809   0.746 -0.4573 -1.0678 -0.6944
  538MOL0     H71005  10.690   2.979   0.729  0.4989  0.8095  2.0062
  538MOL0     H71006  10.662   3.210   0.364 -3.0422  0.1558  0.0246
  538MOL0     H71007  10.758   3.331   0.451 -0.4614 -0.5823 -0.5334
  538MOL0     H71008  10.553   3.426   0.548 -1.3573  0.0876  0.7495
  538MOL0     H71009  10.513   3.373   0.382  1.6304 -2.0032 -1.9809
  538MOL0     H71010  10.455   3.234   0.644  4.3334 -0.6952 -0.3337
  538MOL0     H71011  10.449   3.150   0.490 -0.7891 -1.0627  0.5988
  538MOL0     H71012  10.302   3.367   0.427  0.9777 -0.7338 -0.6526
  538MOL0     H71013  10.229   3.227   0.517  0.6997 -0.3184 -1.3966
  538MOL0     H71014  10.263   3.550   0.812 -1.0035 -0.8146  1.0859
  538MOL0     H71015  10.925   3.138   0.390  1.3339 -3.0737 -1.2287
  538MOL0     H71016  11.075   2.970   0.423  3.2847 -1.6116  4.0840
  539MOL0     O71017   9.295   5.215   3.209 -0.0356 -0.0631  0.0147
  539MOL0     C71018   9.357   5.110   3.210  0.1509  0.2552  0.1932
  539MOL0     O71019   9.490   5.092   3.249 -0.3042 -0.0080 -0.3418
  539MOL0     C71020   9.582   5.191   3.274  0.4709  0.1424 -0.4646
  539MOL0     C71021   9.569   5.332   3.280  0.1720 -0.1281 -0.3267
  539MOL0     C71022   9.688   5.410   3.308 -0.4062 -0.3494 -0.5906
  539MOL0     C71023   9.804   5.352   3.359  0.3009  0.1645  0.4578
  539MOL0     O71024   9.915   5.430   3.376  0.8141 -0.5061 -0.0747
  539MOL0     C71025  10.008   5.390   3.472  0.4747  0.8860  0.4854
  539MOL0     C71026  10.147   5.458   3.427 -0.2667  0.4074  0.3765
  539MOL0     C71027  10.149   5.605   3.475 -0.3370 -0.0312 -0.9627
  539MOL0     C71028  10.298   5.637   3.507 -0.2706  0.2458 -0.4246
  539MOL0     C71029  10.346   5.767   3.441  0.6654  0.5474  0.3761
  539MOL0     C71030  10.491   5.800   3.485  0.4724 -0.2216  0.1997
  539MOL0     C71031  10.567   5.886   3.382  0.1022 -0.3343 -0.2521
  539MOL0     C71032  10.508   6.020   3.362 -0.7726  0.0004 -0.4567
  539MOL0     N71033  10.595   6.119   3.300  0.0845  0.1606 -0.7291
  539MOL0     C71034  10.658   6.118   3.181 -0.2145  0.5208 -0.3449
  539MOL0     C71035  10.730   6.231   3.170  0.9521 -0.5879 -0.0873
  539MOL0     C71036  10.792   6.293   3.045 -0.3108  0.2160 -0.9949
  539MOL0     C71037  10.920   6.248   2.988 -0.1286 -0.4636 -0.1180
  539MOL0     C71038  11.033   6.263   3.085 -0.2377 -0.1053 -0.2920
  539MOL0     C71039  11.163   6.274   3.004  0.5505  0.1815 -0.5266
  539MOL0     O71040  11.203   6.157   2.942 -0.9390  0.5301  0.0799
  539MOL0     C71041  11.278   6.057   3.003 -0.1310  0.0895 -0.2627
  539MOL0     C71042  11.326   5.956   2.924  0.1621  0.0122 -0.0737
  539MOL0     C71043  11.379   5.828   2.970  1.0037 -0.2737 -0.2197
  539MOL0     C71044  11.377   5.813   3.111 -0.1848  0.4622 -0.1991
  539MOL0     C71045  11.431   5.695   3.163  0.1516  0.7040  0.4467
  539MOL0     O71046  11.413   5.583   3.098 -0.2011  0.5276  0.5504
  539MOL0     C71047  11.486   5.465   3.112  0.4075  0.3815 -0.4853
  539MOL0     C71048  11.620   5.472   3.105 -0.2327 -0.7425 -0.6043
  539MOL0     C71049  11.704   5.369   3.134 -0.7484  0.7751  0.0393
  539MOL0     C71050  11.654   5.239   3.153  1.2295 -0.2416  0.2775
  539MOL0     O71051  11.745   5.144   3.190  0.0394  0.9466  0.0870
  539MOL0     C71052  11.720   5.011   3.141  0.4726  0.2964  0.2774
  539MOL0     C71053  11.859   4.938   3.136  0.0600 -0.3068 -0.1444
  539MOL0     C71054  11.962   5.014   3.060  0.0131 -0.0014 -0.2799
  539MOL0     C71055  12.083   4.936   3.002 -0.0597 -0.1974 -0.1337
  539MOL0     C71056  12.186   5.035   2.944 -0.0911  0.4216  0.1059
  539MOL0     C71057  12.265   5.103   3.046 -0.2754 -0.3442  0.9232
  539MOL0     C71058  12.394   5.147   2.977 -0.0349  0.4685  0.3435
  539MOL0     C71059  12.478   5.250   3.055 -0.3226  0.0310 -0.7464
  539MOL0    Cl71060  12.519   5.173   3.209 -0.0430 -0.2232 -0.3500
  539MOL0     C71061  11.515   5.225   3.146  0.4913 -0.1224 -0.3029
  539MOL0     C71062  11.425   5.337   3.125  0.2703 -0.0171  1.1365
  539MOL0     O71063  11.490   5.704   3.268  0.3694 -0.2812 -0.0403
  539MOL0     C71064  11.335   5.919   3.198  0.3496 -0.0942 -0.8722
  539MOL0     C71065  11.277   6.035   3.144 -0.1375 -0.8446 -0.5350
  539MOL0     N71066  10.719   6.300   3.294 -0.5114 -0.2160 -0.0403
  539MOL0     N71067  10.642   6.228   3.371 -0.8007 -0.0517  0.7824
  539MOL0     C71068   9.812   5.217   3.365 -0.2228  0.0053  0.8967
  539MOL0     C71069   9.706   5.135   3.316  0.6491 -0.4502  0.2264
  539MOL0     C71070   9.286   4.992   3.165  0.0853 -0.3695 -0.4063
  539MOL0     C71071   9.176   5.002   3.071 -0.1494  0.6285 -0.3286
  539MOL0     C71072   9.106   4.878   3.035  0.2327  0.2773  0.2677
  539MOL0     C71073   9.146   4.749   3.084 -0.2149 -0.1026  0.2324
  539MOL0     O71074   9.090   4.641   3.027 -0.6288  0.5616 -0.3840
  539MOL0     C71075   8.985   4.572   3.087  0.4127 -0.1403  1.1307
  539MOL0     C71076   8.910   4.495   2.976 -0.2047 -0.1589  0.3153
  539MOL0     C71077   8.977   4.364   2.921  0.2179  0.7262  0.5751
  539MOL0     C71078   8.877   4.257   2.879 -0.8671 -0.7894  0.4761
  539MOL0     C71079   8.774   4.230   2.978 -0.6848  0.3392 -0.3570
  539MOL0     C71080   8.688   4.208   3.067 -0.1804  1.1273  0.8008
  539MOL0     C71081   9.249   4.750   3.184  0.2604  0.0271  0.3235
  539MOL0     C71082   9.319   4.868   3.228  0.1390  0.0155  0.5252
  539MOL0     H71083   9.483   5.386   3.241  1.0120  1.9834  0.5802
  539MOL0     H71084   9.682   5.518   3.293 -2.0007 -0.3892 -0.4749
  539MOL0     H71085  10.032   5.284   3.474 -2.1339  0.2270  0.4752
  539MOL0     H71086   9.981   5.421   3.573 -2.4845  0.2521 -0.0016
  539MOL0     H71087  10.176   5.438   3.323  0.9652  2.9666  0.1456
  539MOL0     H71088  10.215   5.397   3.486 -0.7127 -0.2609  0.2123
  539MOL0     H71089  10.080   5.628   3.556  0.0410  0.3617 -0.7430
  539MOL0     H71090  10.112   5.678   3.402 -1.3687 -0.5503 -0.9588
  539MOL0     H71091  10.305   5.651   3.615 -2.1504 -2.7785  0.1882
  539MOL0     H71092  10.359   5.548   3.489  1.8014  1.4566  0.2549
  539MOL0     H71093  10.279   5.847   3.473  0.4883 -1.3382  5.6519
  539MOL0     H71094  10.349   5.756   3.332  0.1266 -1.6447  0.5453
  539MOL0     H71095  10.553   5.711   3.498 -0.8232 -0.9536  1.5669
  539MOL0     H71096  10.488   5.850   3.582  3.0498  0.7512 -0.1353
  539MOL0     H71097  10.666   5.882   3.428 -0.0210 -1.2591 -0.0439
  539MOL0     H71098  10.587   5.830   3.290  3.0359 -0.2856  0.2533
  539MOL0     H71099  10.496   6.077   3.455  1.0037  0.1212 -0.2624
  539MOL0     H71100  10.418   6.006   3.302 -0.8172 -0.8033 -0.2079
  539MOL0     H71101  10.642   6.059   3.092 -0.4075  2.7796 -1.9067
  539MOL0     H71102  10.787   6.400   3.069 -0.7447 -0.2077  0.9737
  539MOL0     H71103  10.714   6.263   2.974 -1.7315 -0.7704  0.8969
  539MOL0     H71104  10.947   6.303   2.898  0.6868 -1.7596 -0.6955
  539MOL0     H71105  10.909   6.143   2.960 -0.3903 -0.0221 -1.7593
  539MOL0     H71106  11.023   6.349   3.151  1.3459  0.7807 -1.1512
  539MOL0     H71107  11.032   6.165   3.134  0.9249 -1.7446 -3.2355
  539MOL0     H71108  11.239   6.309   3.074  1.1119  1.6728 -1.8267
  539MOL0     H71109  11.156   6.353   2.929 -0.3814 -0.3580 -1.0206
  539MOL0     H71110  11.307   5.967   2.818 -0.6429 -0.1722  0.0392
  539MOL0     H71111  11.418   5.748   2.907  1.7463 -0.2178  0.1562
  539MOL0     H71112  11.662   5.569   3.079 -0.0313 -1.8798 -5.4411
  539MOL0     H71113  11.812   5.379   3.129 -0.2857 -3.2095 -2.8411
  539MOL0     H71114  11.669   4.998   3.045  1.6935 -1.3661 -0.1849
  539MOL0     H71115  11.642   4.975   3.207 -0.4172  2.6061  0.5964
  539MOL0     H71116  11.847   4.841   3.086 -1.2429  0.3053 -1.0534
  539MOL0     H71117  11.904   4.912   3.233  2.9011  4.2881  0.0727
  539MOL0     H71118  12.000   5.098   3.119  1.2478 -1.1492  0.6119
  539MOL0     H71119  11.898   5.034   2.973 -0.6943  0.8381  0.4114
  539MOL0     H71120  12.131   4.876   3.081  2.8916  2.0945  0.0080
  539MOL0     H71121  12.054   4.866   2.923 -2.4854 -0.5614  0.9802
  539MOL0     H71122  12.135   5.103   2.875 -2.0522  0.1493  1.2463
  539MOL0     H71123  12.251   4.976   2.879  1.3364  1.3328  0.6553
  539MOL0     H71124  12.289   5.032   3.126 -3.2965 -2.2801  0.2722
  539MOL0     H71125  12.205   5.184   3.089 -1.6269  0.0742 -1.5621
  539MOL0     H71126  12.460   5.064   2.949 -0.3142  0.6848 -1.0202
  539MOL0     H71127  12.350   5.189   2.886 -0.4037  0.1982  0.3927
  539MOL0     H71128  12.410   5.330   3.085  2.2470  1.6451  1.2262
  539MOL0     H71129  12.558   5.306   3.007  1.1330 -0.7242  0.7004
  539MOL0     H71130  11.474   5.125   3.154  1.6208 -0.5453  0.3441
  539MOL0     H71131  11.318   5.321   3.117  0.5995 -2.3396  0.2927
  539MOL0     H71132  11.342   5.916   3.306  2.2386 -1.2172 -0.9940
  539MOL0     H71133  11.228   6.107   3.209 -1.2385 -1.1650 -0.9823
  539MOL0     H71134   9.897   5.160   3.401  0.4916 -1.5613 -2.8261
  539MOL0     H71135   9.714   5.027   3.319 -1.3035 -0.6343  0.6752
  539MOL0     H71136   9.154   5.096   3.021 -1.0227  1.9311  2.3066
  539MOL0     H71137   9.039   4.865   2.951  1.5967  2.2137 -1.2104
  539MOL0     H71138   8.917   4.640   3.138 -1.4970 -1.1143  0.0343
  539MOL0     H71139   9.021   4.504   3.165 -2.8288 -2.6126  0.7108
  539MOL0     H71140   8.807   4.473   3.005 -0.6052 -2.1741 -2.2714
  539MOL0     H71141   8.898   4.557   2.887  1.7026  2.2540  1.6067
  539MOL0     H71142   9.044   4.330   3.001  2.9317 -1.0777 -2.2045
  539MOL0     H71143   9.043   4.382   2.835  2.0436 -1.6552  1.3904
  539MOL0     H71144   8.841   4.288   2.781  3.0359  0.3240 -0.7896
  539MOL0     H71145   8.940   4.171   2.853 -1.3137 -0.2958 -2.6075
  539MOL0     H71146   8.622   4.202   3.151 -0.4595  1.0233  0.5766
  539MOL0     H71147   9.307   4.661   3.207  0.8212  0.4632  0.6383
  539MOL0     H71148   9.394   4.875   3.306  0.6363  0.1708  0.0350
  540MOL0     O71149   1.873   8.315   0.303 -0.6192 -0.3340  0.8631
  540MOL0     C71150   1.774   8.262   0.354  0.0442  0.0852  0.2873
  540MOL0     O71151   1.653   8.299   0.323 -0.6555 -0.7500  0.3969
  540MOL0     C71152   1.632   8.399   0.221  0.5069 -0.0757 -0.6141
  540MOL0     C71153   1.696   8.414   0.097  0.6510  0.3182 -0.3628
  540MOL0     C71154   1.648   8.502  -0.004  0.2257 -1.6573  0.0803
  540MOL0     C71155   1.527   8.580   0.013 -0.5592  0.7605  0.5245
  540MOL0     O71156   1.466   8.657  -0.081 -0.0035 -0.1442 -0.2290
  540MOL0     C71157   1.519   8.642  -0.208 -1.2035  1.1844 -0.3337
  540MOL0     C71158   1.430   8.721  -0.314  0.6129  0.5927 -0.7674
  540MOL0     C71159   1.478   8.675  -0.454  1.0773  0.3219  0.2921
  540MOL0     C71160   1.629   8.707  -0.504  1.0576  1.4888  1.2478
  540MOL0     C71161   1.661   8.666  -0.645 -0.3019  0.1330  0.0473
  540MOL0     C71162   1.655   8.510  -0.667 -0.3975  0.5257  0.7214
  540MOL0     C71163   1.734   8.456  -0.788 -0.4237 -0.5749  0.0049
  540MOL0     C71164   1.883   8.480  -0.766  0.6220 -0.6541  0.1340
  540MOL0     N71165   1.964   8.406  -0.866  0.2627 -0.0964 -0.4159
  540MOL0     C71166   2.062   8.312  -0.833 -0.7476  0.0408 -0.1337
  540MOL0     C71167   2.123   8.291  -0.950 -0.0149  0.4749  0.1272
  540MOL0     C71168   2.234   8.184  -0.964 -0.6405 -0.1956  0.3918
  540MOL0     C71169   2.374   8.248  -0.977  0.0558  0.6177 -0.6087
  540MOL0     C71170   2.478   8.134  -0.999 -0.0751 -0.3085 -0.0763
  540MOL0     C71171   2.614   8.173  -1.062  0.5350 -0.4259  0.0867
  540MOL0     O71172   2.674   8.275  -0.987 -0.6414  0.7075 -0.4958
  540MOL0     C71173   2.809   8.272  -0.997 -0.1410 -0.5849  0.7266
  540MOL0     C71174   2.884   8.275  -0.883  0.6771 -0.0341 -0.2217
  540MOL0     C71175   3.022   8.282  -0.895 -0.3644 -0.0550  0.4936
  540MOL0     C71176   3.087   8.262  -1.017  0.4211 -0.6130 -0.6627
  540MOL0     C71177   3.238   8.275  -1.023 -0.0761 -0.3686  0.7027
  540MOL0     O71178   3.292   8.242  -1.143 -0.1082  0.1283 -0.6979
  540MOL0     C71179   3.428   8.217  -1.148  0.5952  0.5212 -1.2493
  540MOL0     C71180   3.490   8.213  -1.270 -0.6236  0.2504  0.5077
  540MOL0     C71181   3.628   8.188  -1.284 -0.2606 -0.7668 -0.0540
  540MOL0     C71182   3.707   8.163  -1.176 -0.2702 -0.9828  0.3179
  540MOL0     O71183   3.840   8.130  -1.193  1.0634  0.0130 -0.1720
  540MOL0     C71184   3.877   8.013  -1.264 -0.9303  0.1236  1.0902
  540MOL0     C71185   3.999   8.054  -1.364 -0.0768 -0.4711 -0.0700
  540MOL0     C71186   4.115   8.116  -1.281  0.2248 -0.3466 -0.2536
  540MOL0     C71187   4.238   8.139  -1.366  0.0888 -1.1547  0.5043
  540MOL0     C71188   4.345   8.196  -1.290 -0.0255  0.5377 -0.1429
  540MOL0     C71189   4.452   8.104  -1.218 -0.0073  0.0054  0.2724
  540MOL0     C71190   4.530   8.025  -1.325 -0.7055  0.0748 -0.2981
  540MOL0     C71191   4.638   7.935  -1.260  0.2686 -1.2021  0.7582
  540MOL0    Cl71192   4.724   7.858  -1.388  0.5294 -0.1473  0.2760
  540MOL0     C71193   3.646   8.177  -1.050 -0.0859 -0.6959 -0.2064
  540MOL0     C71194   3.517   8.196  -1.035 -0.8141 -0.0111  0.3490
  540MOL0     O71195   3.293   8.332  -0.927  0.4677  0.4886  0.3872
  540MOL0     C71196   3.008   8.267  -1.133 -0.6760  0.6106 -0.4835
  540MOL0     C71197   2.871   8.276  -1.119  0.0802  0.0048  1.2152
  540MOL0     N71198   2.067   8.369  -1.054  0.9013 -0.2513 -0.4772
  540MOL0     N71199   1.987   8.449  -0.994  0.3449 -0.2140 -0.2323
  540MOL0     C71200   1.465   8.561   0.140 -0.3030 -0.9546 -0.6748
  540MOL0     C71201   1.521   8.485   0.241  0.1303  0.0580 -0.0834
  540MOL0     C71202   1.792   8.145   0.446 -0.1097 -0.6016 -0.4772
  540MOL0     C71203   1.682   8.094   0.523 -0.0665  0.1418  0.0023
  540MOL0     C71204   1.702   8.008   0.626  0.5135  1.2423  0.4754
  540MOL0     C71205   1.825   7.961   0.654 -0.1565 -0.0724 -0.8487
  540MOL0     O71206   1.837   7.883   0.771  1.0296  0.5393  0.2290
  540MOL0     C71207   1.952   7.798   0.785 -0.4534 -0.5952 -0.5289
  540MOL0     C71208   1.931   7.717   0.915 -0.4769  0.4674  0.3943
  540MOL0     C71209   1.814   7.619   0.883 -0.1817  0.2157  0.1135
  540MOL0     C71210   1.788   7.514   0.999 -1.1361  0.2609  0.8896
  540MOL0     C71211   1.868   7.389   0.981  0.6315 -0.2148 -0.0512
  540MOL0     C71212   1.941   7.297   0.954  0.3547  0.1599 -0.3861
  540MOL0     C71213   1.932   7.998   0.577 -0.1335 -0.0227 -0.0418
  540MOL0     C71214   1.914   8.090   0.472  0.3038 -0.1735  0.4402
  540MOL0     H71215   1.786   8.354   0.084 -0.4400 -1.4166 -0.2034
  540MOL0     H71216   1.700   8.485  -0.098  2.6311 -0.5990  1.1386
  540MOL0     H71217   1.527   8.536  -0.234  0.6179  1.5992 -1.7266
  540MOL0     H71218   1.620   8.682  -0.194 -0.7089 -0.1613  0.0685
  540MOL0     H71219   1.427   8.827  -0.288 -2.1935  0.1863  0.9780
  540MOL0     H71220   1.328   8.683  -0.304 -0.0476  2.8119  2.3952
  540MOL0     H71221   1.398   8.711  -0.520  0.3948 -0.0671  0.8835
  540MOL0     H71222   1.468   8.566  -0.451 -0.3135  0.4114 -0.1382
  540MOL0     H71223   1.660   8.812  -0.500 -0.1033  1.8345  1.6652
  540MOL0     H71224   1.703   8.657  -0.441 -1.1521 -0.9602  2.0676
  540MOL0     H71225   1.762   8.704  -0.667 -1.4247  2.1041 -2.1230
  540MOL0     H71226   1.589   8.714  -0.711 -1.0519  1.8124  1.9990
  540MOL0     H71227   1.557   8.468  -0.691  1.3120 -2.9049 -0.9603
  540MOL0     H71228   1.710   8.461  -0.587 -1.9949 -1.9606  0.3994
  540MOL0     H71229   1.697   8.354  -0.799 -2.7607  0.1511  0.4286
  540MOL0     H71230   1.703   8.506  -0.880 -2.2106 -2.1764 -0.3283
  540MOL0     H71231   1.907   8.443  -0.666  3.0415 -2.8564 -1.1309
  540MOL0     H71232   1.914   8.585  -0.766  0.8200 -0.6972  1.4639
  540MOL0     H71233   2.085   8.273  -0.735 -0.2690 -0.1124 -0.3042
  540MOL0     H71234   2.213   8.140  -1.062 -0.0405  2.4847 -1.0554
  540MOL0     H71235   2.238   8.107  -0.887  2.9116 -1.3752 -0.7551
  540MOL0     H71236   2.400   8.305  -0.887  0.4311 -1.9243  0.9851
  540MOL0     H71237   2.380   8.317  -1.062  2.6630 -0.6887 -1.5996
  540MOL0     H71238   2.501   8.089  -0.903  0.4968  1.9045  0.8876
  540MOL0     H71239   2.436   8.051  -1.057  0.7227 -0.5396 -0.3431
  540MOL0     H71240   2.598   8.225  -1.157  3.6244  1.7154  0.5894
  540MOL0     H71241   2.681   8.089  -1.083  1.7069  0.6936 -0.8239
  540MOL0     H71242   2.836   8.289  -0.787 -0.8619  1.4860 -1.1548
  540MOL0     H71243   3.079   8.289  -0.803 -0.9092  2.9044  0.7174
  540MOL0     H71244   3.434   8.220  -1.363  1.3519  0.2555 -0.7332
  540MOL0     H71245   3.662   8.185  -1.387 -1.6510 -0.5559 -0.5324
  540MOL0     H71246   3.789   7.966  -1.309 -0.6097 -3.7077  4.0279
  540MOL0     H71247   3.917   7.940  -1.193  0.7358  1.9290  2.1311
  540MOL0     H71248   3.960   8.118  -1.445  1.6801  0.6181 -0.0998
  540MOL0     H71249   4.035   7.960  -1.407  0.6769  0.1912 -0.9315
  540MOL0     H71250   4.138   8.046  -1.200 -1.7288 -1.8871 -0.9484
  540MOL0     H71251   4.086   8.201  -1.218  1.0932 -1.6991  2.1335
  540MOL0     H71252   4.267   8.038  -1.397  1.0645 -0.9590  0.7687
  540MOL0     H71253   4.214   8.201  -1.453 -1.9631 -0.4202  1.5299
  540MOL0     H71254   4.319   8.266  -1.210  2.3157  1.2146  0.1214
  540MOL0     H71255   4.409   8.254  -1.357  0.0631  1.2476  0.5377
  540MOL0     H71256   4.414   8.036  -1.141 -1.3254  0.3254 -0.0757
  540MOL0     H71257   4.519   8.173  -1.165  0.5110  1.0597 -1.6616
  540MOL0     H71258   4.472   7.956  -1.387  1.4919 -0.9308 -1.3257
  540MOL0     H71259   4.575   8.099  -1.392  1.9047  1.4652  2.7409
  540MOL0     H71260   4.599   7.862  -1.188 -1.4843 -2.7530 -1.6266
  540MOL0     H71261   4.711   8.000  -1.210 -0.9036  2.5776 -1.9860
  540MOL0     H71262   3.712   8.164  -0.965 -1.5591 -0.4838  1.0253
  540MOL0     H71263   3.475   8.207  -0.936  1.0610  1.0550  1.0796
  540MOL0     H71264   3.045   8.259  -1.234 -1.2222 -2.8240 -0.5299
  540MOL0     H71265   2.822   8.286  -1.215 -1.5056 -0.7077  1.9125
  540MOL0     H71266   1.363   8.598   0.153  1.0233  2.0634  2.9035
  540MOL0     H71267   1.471   8.472   0.337 -0.3093  0.9020 -0.1821
  540MOL0     H71268   1.582   8.130   0.499 -0.9925 -3.1030 -1.6628
  540MOL0     H71269   1.613   7.988   0.685 -0.2510  4.0768  0.4284
  540MOL0     H71270   2.037   7.865   0.771 -1.3628  0.6700 -0.1423
  540MOL0     H71271   1.959   7.728   0.701  1.8720  2.8769 -3.4936
  540MOL0     H71272   2.027   7.671   0.941 -1.7984 -2.0917  1.1132
  540MOL0     H71273   1.914   7.782   1.002 -0.0618  0.3109  0.5944
  540MOL0     H71274   1.838   7.550   0.801 -1.7802 -0.7305  0.4000
  540MOL0     H71275   1.723   7.675   0.861  0.9959  2.0612 -0.2423
  540MOL0     H71276   1.814   7.545   1.101  1.1521 -2.8402  1.3946
  540MOL0     H71277   1.681   7.492   1.013 -0.9361 -0.2237  1.7497
  540MOL0     H71278   2.020   7.227   0.931  1.6327  0.7090  2.0448
  540MOL0     H71279   2.037   7.979   0.596 -0.2825  0.4624  1.3949
  540MOL0     H71280   2.008   8.118   0.426  1.0714 -0.9828  1.4540
  541MOL0     O71281   0.371   7.548   5.954  0.0717 -0.2804  0.1344
  541MOL0     C71282   0.423   7.663   5.947  0.1374 -0.1163 -0.6474
  541MOL0     O71283   0.372   7.779   6.008  0.2438 -0.2826  0.5618
  541MOL0     C71284   0.244   7.772   6.059  0.9602 -0.2704 -0.6603
  541MOL0     C71285   0.133   7.778   5.975  0.2925 -0.3728 -0.2933
  541MOL0     C71286   0.008   7.784   6.031  0.6485 -0.1576  0.7680
  541MOL0     C71287  -0.010   7.789   6.166 -0.5843 -0.4189 -0.0225
  541MOL0     O71288  -0.145   7.807   6.190  0.3870 -0.2264 -0.9953
  541MOL0     C71289  -0.189   7.824   6.326 -0.3626 -0.3297  0.3736
  541MOL0     C71290  -0.329   7.873   6.339  0.7125  0.0081  0.4462
  541MOL0     C71291  -0.439   7.769   6.287  0.2493  1.1304  0.8630
  541MOL0     C71292  -0.584   7.827   6.267 -0.5542  0.9765 -1.0365
  541MOL0     C71293  -0.692   7.724   6.246  0.2307  1.0680  0.3241
  541MOL0     C71294  -0.688   7.600   6.343 -0.8702 -0.0010 -0.4043
  541MOL0     C71295  -0.791   7.494   6.309  0.4073 -0.4385  0.0718
  541MOL0     C71296  -0.792   7.389   6.415 -0.2107 -0.6306  0.2003
  541MOL0     N71297  -0.905   7.289   6.400  0.2974  0.2122 -0.2892
  541MOL0     C71298  -1.020   7.312   6.464  0.1446  0.1881 -0.9669
  541MOL0     C71299  -1.100   7.212   6.421 -0.1945 -0.5391 -0.2644
  541MOL0     C71300  -1.240   7.181   6.467 -0.5645  0.3066  0.0510
  541MOL0     C71301  -1.351   7.252   6.384  0.0483 -0.2814 -0.3317
  541MOL0     C71302  -1.381   7.397   6.421  0.8362  0.0829 -0.8351
  541MOL0     C71303  -1.472   7.452   6.308  0.6152 -0.1148  0.2983
  541MOL0     O71304  -1.604   7.399   6.318 -0.2918  0.5539  0.7109
  541MOL0     C71305  -1.691   7.403   6.206 -0.6374 -1.1870 -1.0198
  541MOL0     C71306  -1.670   7.457   6.077  0.1777  0.2997 -0.1635
  541MOL0     C71307  -1.781   7.464   5.989 -0.6706  0.7451 -0.4005
  541MOL0     C71308  -1.913   7.423   6.030 -1.3892 -0.1878  0.3658
  541MOL0     C71309  -2.025   7.444   5.933 -0.5065 -0.0278 -0.2771
  541MOL0     O71310  -2.139   7.463   5.995  0.2273  0.3670  0.4514
  541MOL0     C71311  -2.254   7.515   5.944  0.6276 -0.5995  0.3906
  541MOL0     C71312  -2.257   7.600   5.833  0.5062 -0.9513  0.1632
  541MOL0     C71313  -2.376   7.666   5.796  0.5973 -1.2920  0.2283
  541MOL0     C71314  -2.493   7.629   5.864  0.6903  0.1203  0.3210
  541MOL0     O71315  -2.624   7.655   5.832  0.2443 -0.6483  0.5969
  541MOL0     C71316  -2.660   7.770   5.754 -0.9248  0.4753  0.5529
  541MOL0     C71317  -2.811   7.765   5.714  0.6004 -0.4008  1.2035
  541MOL0     C71318  -2.862   7.630   5.662  0.2362  0.0099  0.0292
  541MOL0     C71319  -3.002   7.624   5.601 -0.2993 -0.3425  0.3628
  541MOL0     C71320  -3.030   7.509   5.498  0.7506  0.0254 -0.4267
  541MOL0     C71321  -2.975   7.375   5.529  0.3596  0.5351 -0.8596
  541MOL0     C71322  -3.044   7.331   5.659 -0.1239  0.2048 -0.4098
  541MOL0     C71323  -2.999   7.198   5.726 -0.3185  0.1609  0.7505
  541MOL0    Cl71324  -3.131   7.139   5.833 -0.1915  0.3061 -0.6013
  541MOL0     C71325  -2.487   7.543   5.979 -0.0616  0.6721 -0.7828
  541MOL0     C71326  -2.364   7.481   6.018 -0.4413  0.1771 -1.1806
  541MOL0     O71327  -1.991   7.469   5.823  0.1142 -0.1163 -0.1290
  541MOL0     C71328  -1.928   7.356   6.150 -0.1872 -0.9365 -0.8340
  541MOL0     C71329  -1.818   7.356   6.243 -0.1806 -0.6305 -0.5009
  541MOL0     N71330  -1.036   7.135   6.326  0.0504  0.1038  0.3059
  541MOL0     N71331  -0.924   7.189   6.313  0.0928 -0.0511 -0.5248
  541MOL0     C71332   0.097   7.778   6.257 -0.3508  0.3992 -0.7351
  541MOL0     C71333   0.218   7.770   6.199  0.5508  0.2361 -0.2349
  541MOL0     C71334   0.552   7.684   5.877 -0.5730 -0.6555  0.2420
  541MOL0     C71335   0.632   7.575   5.834 -0.2307 -1.0181  0.2565
  541MOL0     C71336   0.765   7.598   5.791 -0.3618  0.0371 -0.7207
  541MOL0     C71337   0.821   7.727   5.790  0.4996  0.4870 -0.2782
  541MOL0     O71338   0.946   7.745   5.736 -0.2409  0.0386  0.2000
  541MOL0     C71339   1.050   7.660   5.776  0.2547  0.0654  1.1405
  541MOL0     C71340   1.184   7.740   5.748  0.1312  0.1636  0.6750
  541MOL0     C71341   1.294   7.633   5.761 -0.3875 -0.3997 -0.0200
  541MOL0     C71342   1.424   7.719   5.769 -0.3279  1.0138  0.2770
  541MOL0     C71343   1.530   7.625   5.764  0.2634  1.2035 -0.2024
  541MOL0     C71344   1.624   7.549   5.757 -0.3996 -0.1824  0.0460
  541MOL0     C71345   0.741   7.834   5.828  0.5455  0.5032 -1.1876
  541MOL0     C71346   0.613   7.816   5.869  0.2478 -0.0968  0.1156
  541MOL0     H71347   0.154   7.777   5.869 -0.6863 -3.4598 -0.5556
  541MOL0     H71348  -0.081   7.781   5.970  2.5117 -1.8965 -2.1176
  541MOL0     H71349  -0.118   7.891   6.374  1.0036 -0.3944 -1.4462
  541MOL0     H71350  -0.185   7.725   6.372  2.0261 -2.0583 -3.0919
  541MOL0     H71351  -0.330   7.957   6.269 -0.4741  0.0991  0.5518
  541MOL0     H71352  -0.364   7.900   6.439 -0.4742 -1.4330  0.4524
  541MOL0     H71353  -0.442   7.693   6.364 -0.1030  0.3133  0.0658
  541MOL0     H71354  -0.403   7.733   6.190  2.2831  2.1574  1.1909
  541MOL0     H71355  -0.610   7.873   6.362 -2.1587  2.4476 -2.1243
  541MOL0     H71356  -0.583   7.901   6.186 -1.3601  0.1562 -1.8185
  541MOL0     H71357  -0.683   7.688   6.143 -2.6480  1.6369 -0.2372
  541MOL0     H71358  -0.789   7.775   6.250  0.3584  1.3068  0.3865
  541MOL0     H71359  -0.694   7.648   6.441  1.2757 -3.6471  1.7316
  541MOL0     H71360  -0.587   7.558   6.344  0.3241  2.6673  0.7146
  541MOL0     H71361  -0.893   7.529   6.289  1.8335  4.5157  0.0694
  541MOL0     H71362  -0.771   7.449   6.211 -0.1501  3.0226 -1.7947
  541MOL0     H71363  -0.789   7.440   6.511  4.2210  4.0764 -1.9367
  541MOL0     H71364  -0.698   7.337   6.394 -0.3783 -0.5182 -0.8618
  541MOL0     H71365  -1.044   7.383   6.543 -0.5315 -0.9315 -0.1337
  541MOL0     H71366  -1.257   7.202   6.573  3.5398  0.0826  0.9221
  541MOL0     H71367  -1.244   7.072   6.459  2.6859  0.1193 -0.3932
  541MOL0     H71368  -1.441   7.192   6.398  1.1954 -1.9177  0.3821
  541MOL0     H71369  -1.322   7.244   6.278 -1.1289  1.0294 -0.7850
  541MOL0     H71370  -1.431   7.420   6.516  0.1334  2.4480 -1.7005
  541MOL0     H71371  -1.301   7.471   6.411 -1.8218  3.5931  1.1018
  541MOL0     H71372  -1.432   7.415   6.213 -1.0237 -2.4518  0.4473
  541MOL0     H71373  -1.475   7.561   6.306 -0.6763 -0.1396 -0.8418
  541MOL0     H71374  -1.574   7.494   6.044 -0.4719  1.8620 -0.4055
  541MOL0     H71375  -1.761   7.515   5.895 -0.7169  0.9339 -0.3082
  541MOL0     H71376  -2.168   7.630   5.779 -0.2564  3.1961  0.8282
  541MOL0     H71377  -2.385   7.730   5.709 -0.0018 -2.3131 -0.4818
  541MOL0     H71378  -2.600   7.772   5.662 -0.7023 -3.4564  0.4730
  541MOL0     H71379  -2.646   7.858   5.818 -2.5472 -0.3250  2.0734
  541MOL0     H71380  -2.826   7.838   5.634 -0.3424 -1.1830  0.6367
  541MOL0     H71381  -2.870   7.785   5.804 -0.9301 -1.9856  0.6077
  541MOL0     H71382  -2.859   7.562   5.748 -1.4627 -1.2975 -0.8740
  541MOL0     H71383  -2.793   7.592   5.586  2.0257 -1.1566  2.1216
  541MOL0     H71384  -3.071   7.610   5.685 -0.9774 -0.7703 -0.2568
  541MOL0     H71385  -3.024   7.717   5.549 -1.6880 -0.3688  0.8528
  541MOL0     H71386  -3.003   7.545   5.398  0.8237  0.1564 -0.3608
  541MOL0     H71387  -3.139   7.498   5.501  0.9092 -2.1739  3.4840
  541MOL0     H71388  -2.867   7.380   5.541  0.3778  0.3081 -0.9205
  541MOL0     H71389  -3.007   7.303   5.454 -1.6570 -1.6507  1.8675
  541MOL0     H71390  -3.023   7.407   5.735  0.6081  0.7727 -1.1523
  541MOL0     H71391  -3.151   7.334   5.640 -0.5971 -4.0590  0.5045
  541MOL0     H71392  -2.898   7.202   5.767  1.2427  2.2976 -2.7774
  541MOL0     H71393  -2.978   7.127   5.646  1.1931 -0.1376  1.3826
  541MOL0     H71394  -2.573   7.518   6.041  0.9738 -0.5828  0.2096
  541MOL0     H71395  -2.348   7.412   6.101  0.5612  0.8698 -0.7781
  541MOL0     H71396  -2.022   7.317   6.187 -1.0488  1.2708 -0.5441
  541MOL0     H71397  -1.827   7.318   6.344  1.3437  1.3811  0.4644
  541MOL0     H71398   0.077   7.788   6.363 -0.1128 -0.1541 -0.6349
  541MOL0     H71399   0.296   7.757   6.273  1.8548  1.3044 -1.3659
  541MOL0     H71400   0.597   7.472   5.837 -2.4091 -0.3507  3.0013
  541MOL0     H71401   0.834   7.521   5.759  0.1729  0.2935 -0.1946
  541MOL0     H71402   1.041   7.560   5.733  1.2328 -0.1196  1.3454
  541MOL0     H71403   1.053   7.649   5.885  7.0934 -2.2196  1.2298
  541MOL0     H71404   1.207   7.781   5.649  1.0555  0.6242  1.0723
  541MOL0     H71405   1.192   7.821   5.821  2.0972  1.9949 -1.3834
  541MOL0     H71406   1.298   7.568   5.673  4.3234  1.0158 -1.1272
  541MOL0     H71407   1.284   7.577   5.854 -1.6069  0.8498  0.6422
  541MOL0     H71408   1.440   7.791   5.688  0.4865  1.1280  0.5388
  541MOL0     H71409   1.426   7.763   5.869  0.8734 -2.6415  2.0256
  541MOL0     H71410   1.706   7.481   5.763 -0.4876 -0.1902  1.8495
  541MOL0     H71411   0.768   7.939   5.823  0.2287  0.6640  0.1270
  541MOL0     H71412   0.568   7.912   5.894  0.9840 -0.0734  1.4624
  542MOL0     O71413   0.118   0.494   1.064  0.5119 -0.3386  0.4490
  542MOL0     C71414   0.206   0.429   1.120  0.0577 -0.3445  0.1123
  542MOL0     O71415   0.214   0.421   1.251 -0.6824 -0.0717 -0.2573
  542MOL0     C71416   0.130   0.489   1.335  0.0849 -0.2433 -0.7969
  542MOL0     C71417   0.151   0.623   1.361 -0.0466  0.3442  0.3075
  542MOL0     C71418   0.079   0.697   1.454 -1.1790  0.4226  1.0231
  542MOL0     C71419  -0.038   0.633   1.508 -0.6919  0.0434 -0.3928
  542MOL0     O71420  -0.114   0.689   1.606 -0.2685  0.7675 -0.1749
  542MOL0     C71421  -0.098   0.826   1.646  0.2029 -0.1179  0.6341
  542MOL0     C71422  -0.180   0.873   1.774 -0.4830  0.3391 -0.3008
  542MOL0     C71423  -0.326   0.887   1.750  0.2931 -0.7414 -0.1124
  542MOL0     C71424  -0.409   0.884   1.872 -0.0094  0.2782 -0.7633
  542MOL0     C71425  -0.560   0.933   1.856 -0.7639 -0.1200 -0.7574
  542MOL0     C71426  -0.608   1.012   1.981 -0.2656  0.3736  0.5354
  542MOL0     C71427  -0.762   1.028   1.964  1.2132  0.2512  0.6258
  542MOL0     C71428  -0.816   1.102   2.087 -0.0126  0.7578 -0.3832
  542MOL0     N71429  -0.964   1.092   2.088 -0.1375 -0.1681  0.6558
  542MOL0     C71430  -1.051   1.176   2.026  0.4246  0.3396 -0.3062
  542MOL0     C71431  -1.178   1.115   2.012 -1.0672  0.5145  0.2342
  542MOL0     C71432  -1.306   1.174   1.953 -0.1996  0.6262 -0.2146
  542MOL0     C71433  -1.307   1.132   1.800 -0.4851  0.8781  0.1477
  542MOL0     C71434  -1.414   1.211   1.717  0.0906 -0.7708 -0.6056
  542MOL0     C71435  -1.394   1.362   1.742  0.1405 -0.0880  0.5629
  542MOL0     O71436  -1.436   1.449   1.628  0.6450  0.0006 -0.2747
  542MOL0     C71437  -1.570   1.492   1.622 -0.9962  0.6285  0.1124
  542MOL0     C71438  -1.601   1.576   1.512 -0.6029  0.1944 -0.1032
  542MOL0     C71439  -1.729   1.623   1.488 -0.5435  0.3343 -0.2128
  542MOL0     C71440  -1.827   1.596   1.578  0.8108  0.4659 -0.4567
  542MOL0     C71441  -1.963   1.644   1.555 -0.7057 -0.6913  0.3193
  542MOL0     O71442  -2.044   1.658   1.668 -0.9008 -0.6798  0.0389
  542MOL0     C71443  -2.178   1.691   1.664 -0.7815 -0.1293 -0.2245
  542MOL0     C71444  -2.228   1.748   1.786  0.3864  0.2849 -0.8038
  542MOL0     C71445  -2.361   1.779   1.798 -0.4980  0.0823 -0.5309
  542MOL0     C71446  -2.455   1.748   1.694 -0.5093 -0.6117  0.1098
  542MOL0     O71447  -2.587   1.772   1.722 -1.5995  0.1849 -0.0843
  542MOL0     C71448  -2.682   1.677   1.663 -0.2500 -0.9571 -0.0025
  542MOL0     C71449  -2.821   1.698   1.729  0.4637 -0.4662 -0.5523
  542MOL0     C71450  -2.902   1.567   1.712 -0.2098 -0.0669  0.0117
  542MOL0     C71451  -3.050   1.600   1.751 -0.4861  0.0383  0.0144
  542MOL0     C71452  -3.132   1.472   1.729 -0.3446  0.2087 -0.2850
  542MOL0     C71453  -3.276   1.491   1.788 -0.7573 -0.3322  0.5439
  542MOL0     C71454  -3.366   1.578   1.695  0.5226  0.4714  0.3744
  542MOL0     C71455  -3.506   1.546   1.709 -0.1597  0.4825 -0.0681
  542MOL0    Cl71456  -3.590   1.615   1.579  0.1828  0.2784 -0.2102
  542MOL0     C71457  -2.410   1.691   1.577 -0.4325  0.6839 -0.0154
  542MOL0     C71458  -2.275   1.667   1.557 -0.3699  0.2967 -0.5641
  542MOL0     O71459  -1.998   1.691   1.447 -0.2866  0.4209  0.0636
  542MOL0     C71460  -1.799   1.518   1.697  0.6028 -0.2536  1.1590
  542MOL0     C71461  -1.674   1.460   1.708 -1.0372 -0.0498 -1.0463
  542MOL0     N71462  -1.163   0.995   2.066  0.2712  0.4983  0.3048
  542MOL0     N71463  -1.037   0.977   2.103 -1.0944  0.0345  0.0792
  542MOL0     C71464  -0.058   0.495   1.485 -0.2089 -0.0313 -0.2047
  542MOL0     C71465   0.024   0.426   1.398 -1.0233  0.0417  0.4098
  542MOL0     C71466   0.304   0.356   1.036 -0.7891 -0.6531  0.8191
  542MOL0     C71467   0.321   0.381   0.904 -0.4327 -0.5069 -0.4742
  542MOL0     C71468   0.420   0.322   0.829 -1.0091 -0.6508 -0.0066
  542MOL0     C71469   0.493   0.218   0.886  0.3618  0.5561 -0.6710
  542MOL0     O71470   0.584   0.170   0.803 -0.3892 -0.2400 -0.0136
  542MOL0     C71471   0.611   0.033   0.814 -0.1276  0.5098 -0.7566
  542MOL0     C71472   0.750   0.024   0.871 -0.4867 -1.2157  0.0875
  542MOL0     C71473   0.807  -0.114   0.861 -0.0126  0.7666  0.3925
  542MOL0     C71474   0.920  -0.143   0.964  0.4083  0.9901  0.7842
  542MOL0     C71475   0.951  -0.288   0.960 -0.3089 -0.7506 -0.0570
  542MOL0     C71476   0.987  -0.407   0.957  0.3596 -0.0092 -1.0699
  542MOL0     C71477   0.476   0.183   1.023 -0.5104 -0.9626  0.0736
  542MOL0     C71478   0.392   0.261   1.097  0.4377  0.0137 -0.6033
  542MOL0     H71479   0.239   0.667   1.316  0.0130 -0.3239 -0.2454
  542MOL0     H71480   0.124   0.791   1.484  0.4370  0.7479 -2.0678
  542MOL0     H71481  -0.130   0.890   1.563 -0.4365  2.2633  2.5862
  542MOL0     H71482   0.006   0.853   1.666 -0.4131  2.0588  1.2502
  542MOL0     H71483  -0.143   0.976   1.782  1.7390 -0.3823 -0.6219
  542MOL0     H71484  -0.164   0.806   1.859 -1.3367  1.2890  0.6378
  542MOL0     H71485  -0.353   0.799   1.692 -0.2663 -0.2041 -0.6799
  542MOL0     H71486  -0.350   0.975   1.690  1.8026  0.5614  1.1137
  542MOL0     H71487  -0.412   0.783   1.914 -1.9688 -1.0992 -3.8114
  542MOL0     H71488  -0.366   0.959   1.939  0.2560 -0.8808  0.3989
  542MOL0     H71489  -0.617   0.845   1.825 -0.5848 -0.0007 -1.4596
  542MOL0     H71490  -0.572   0.995   1.766  1.6126  2.3814  0.4871
  542MOL0     H71491  -0.573   1.115   1.990 -2.8759  1.2043  2.4124
  542MOL0     H71492  -0.592   0.952   2.070 -3.9309 -2.0621 -0.2238
  542MOL0     H71493  -0.785   1.083   1.873  1.5479 -1.0227 -0.2606
  542MOL0     H71494  -0.808   0.929   1.962  1.1419  0.2942  0.1258
  542MOL0     H71495  -0.793   1.208   2.078  1.4731  0.3218 -2.3819
  542MOL0     H71496  -0.771   1.063   2.179  0.2935 -2.2670 -1.6800
  542MOL0     H71497  -1.033   1.276   1.988 -2.7116  1.5252  1.0442
  542MOL0     H71498  -1.302   1.282   1.964 -2.6493  0.9107 -1.3904
  542MOL0     H71499  -1.395   1.133   2.001  0.1350  0.8144  0.5775
  542MOL0     H71500  -1.335   1.028   1.780 -2.5366  0.8260  2.6028
  542MOL0     H71501  -1.211   1.162   1.758 -1.3213  0.3443 -2.3071
  542MOL0     H71502  -1.405   1.203   1.608 -1.6498 -1.1639 -0.7492
  542MOL0     H71503  -1.516   1.181   1.742 -1.2112 -0.5304 -4.7844
  542MOL0     H71504  -1.291   1.384   1.769  0.9049 -0.2951 -1.9015
  542MOL0     H71505  -1.455   1.385   1.830 -1.4611  0.2419 -0.5683
  542MOL0     H71506  -1.515   1.601   1.451  0.9276  1.7498  2.5007
  542MOL0     H71507  -1.765   1.672   1.399 -2.1827 -1.0628 -0.3741
  542MOL0     H71508  -2.153   1.780   1.857  0.8652  2.8374 -2.2987
  542MOL0     H71509  -2.396   1.810   1.896 -1.5646 -2.6102  0.0449
  542MOL0     H71510  -2.646   1.581   1.701 -0.3429 -0.3866  1.6024
  542MOL0     H71511  -2.699   1.694   1.556  0.4280  2.7232  0.3312
  542MOL0     H71512  -2.861   1.790   1.684 -0.1314  1.0829  2.8411
  542MOL0     H71513  -2.830   1.717   1.836  1.1999  2.7029 -0.9381
  542MOL0     H71514  -2.864   1.498   1.788 -0.7359  1.2901  1.5881
  542MOL0     H71515  -2.908   1.530   1.610 -2.5365  0.8300 -0.2315
  542MOL0     H71516  -3.039   1.619   1.858  1.3954  0.7060 -0.2547
  542MOL0     H71517  -3.095   1.684   1.697  1.0723  2.5536  2.3889
  542MOL0     H71518  -3.085   1.390   1.784  0.1559 -0.6309 -1.9047
  542MOL0     H71519  -3.143   1.444   1.624 -1.4785  0.5163 -0.2587
  542MOL0     H71520  -3.273   1.524   1.892 -4.4401  2.0947  0.0537
  542MOL0     H71521  -3.318   1.390   1.784  3.2333 -2.1592 -1.1235
  542MOL0     H71522  -3.345   1.682   1.722 -0.4083  1.2398 -1.7049
  542MOL0     H71523  -3.340   1.566   1.590 -1.6880 -0.1684 -0.1505
  542MOL0     H71524  -3.550   1.580   1.803  0.1920 -2.0583  1.1006
  542MOL0     H71525  -3.529   1.439   1.714 -2.1754  0.9233  1.6247
  542MOL0     H71526  -2.477   1.665   1.496  2.5257 -0.2582 -2.3579
  542MOL0     H71527  -2.255   1.623   1.460 -2.2136  1.0521 -1.3357
  542MOL0     H71528  -1.876   1.515   1.773  0.3209  0.3178  0.8963
  542MOL0     H71529  -1.645   1.397   1.792  0.6457 -0.6930 -2.0618
  542MOL0     H71530  -0.144   0.451   1.534  1.6278 -1.7447  1.7202
  542MOL0     H71531   0.012   0.320   1.375  0.4616  0.4082 -2.4658
  542MOL0     H71532   0.261   0.455   0.852 -1.4259 -1.3933 -0.6141
  542MOL0     H71533   0.432   0.352   0.725  0.4937 -0.5290  0.1842
  542MOL0     H71534   0.604  -0.003   0.711 -2.0402 -0.4363 -0.3430
  542MOL0     H71535   0.546  -0.027   0.879  1.8666 -0.5005  0.3780
  542MOL0     H71536   0.808   0.103   0.823 -0.3300 -2.1124 -1.2643
  542MOL0     H71537   0.747   0.044   0.979 -1.6276 -1.5516  0.1304
  542MOL0     H71538   0.843  -0.139   0.760 -0.4474 -2.4317  0.9490
  542MOL0     H71539   0.726  -0.182   0.887  0.3399  0.5093  0.8348
  542MOL0     H71540   1.005  -0.087   0.922  0.4747 -0.4434 -1.1368
  542MOL0     H71541   0.908  -0.102   1.064 -1.2266 -1.3536  1.6440
  542MOL0     H71542   1.039  -0.499   0.941  1.5120  1.1558 -5.1040
  542MOL0     H71543   0.549   0.129   1.083 -0.7021 -3.3596 -1.6885
  542MOL0     H71544   0.376   0.243   1.202 -1.9343  0.9228 -0.7250
  543MOL0     O71545   4.216  10.942   8.086  1.0474 -0.0499  0.8976
  543MOL0     C71546   4.250  10.842   8.146 -0.0996  0.4349 -0.8219
  543MOL0     O71547   4.325  10.739   8.096  0.5052 -0.6264  0.1359
  543MOL0     C71548   4.382  10.752   7.981  0.5211  0.8378 -0.4349
  543MOL0     C71549   4.367  10.637   7.901  0.3117 -0.9882  0.9511
  543MOL0     C71550   4.431  10.648   7.771 -0.9661  1.1373  0.5776
  543MOL0     C71551   4.514  10.753   7.735 -0.1987 -0.6913  0.4592
  543MOL0     O71552   4.583  10.739   7.615  0.6371  0.3653  0.0871
  543MOL0     C71553   4.649  10.852   7.552 -0.3164 -0.2512 -0.1567
  543MOL0     C71554   4.755  10.799   7.446  0.4136 -0.5735 -0.6125
  543MOL0     C71555   4.691  10.737   7.325  0.1280  0.3751  0.8324
  543MOL0     C71556   4.782  10.669   7.221  0.2874  0.1642 -0.0226
  543MOL0     C71557   4.706  10.607   7.105  0.1556  0.5045  0.6346
  543MOL0     C71558   4.639  10.713   7.015  0.8987 -0.9992 -0.6029
  543MOL0     C71559   4.586  10.656   6.884 -0.6990  0.5077  0.8918
  543MOL0     C71560   4.655  10.726   6.769 -0.2028  0.4500 -0.1804
  543MOL0     N71561   4.577  10.703   6.648 -0.6885  0.2759 -0.0592
  543MOL0     C71562   4.599  10.607   6.553  0.6413  0.2374  0.0937
  543MOL0     C71563   4.517  10.646   6.452  0.4410 -0.3589 -0.0328
  543MOL0     C71564   4.508  10.570   6.332  0.0864 -0.3407  0.1098
  543MOL0     C71565   4.608  10.629   6.233  0.6177  0.3862 -0.5196
  543MOL0     C71566   4.605  10.560   6.097  0.7091  0.9613  0.3972
  543MOL0     C71567   4.491  10.599   6.010 -0.7341 -0.1614 -0.5730
  543MOL0     O71568   4.518  10.531   5.885 -0.1734  0.4131 -1.3214
  543MOL0     C71569   4.444  10.550   5.776 -1.3360  0.1545  0.8192
  543MOL0     C71570   4.328  10.628   5.770  0.1236 -0.4943 -0.3066
  543MOL0     C71571   4.248  10.642   5.656 -0.2491  0.0938 -0.4291
  543MOL0     C71572   4.294  10.601   5.533  0.6261  0.5649  0.1585
  543MOL0     C71573   4.220  10.620   5.408  0.7906 -0.9251  0.4098
  543MOL0     O71574   4.301  10.609   5.296  0.6207 -0.0336  0.4172
  543MOL0     C71575   4.230  10.606   5.178 -0.3115 -0.0134  0.4691
  543MOL0     C71576   4.203  10.730   5.118 -0.3563  0.8723 -0.6292
  543MOL0     C71577   4.153  10.745   4.990  0.0022  0.4606 -0.7433
  543MOL0     C71578   4.127  10.636   4.910  0.3886 -0.0866 -0.1017
  543MOL0     O71579   4.053  10.650   4.795  0.1286 -0.3560 -0.0539
  543MOL0     C71580   3.988  10.534   4.750  0.4189  0.1608  0.7186
  543MOL0     C71581   3.872  10.586   4.659 -0.1090  0.3251  0.2224
  543MOL0     C71582   3.932  10.678   4.556 -0.2810  0.5908 -0.0668
  543MOL0     C71583   3.809  10.738   4.480 -0.1488  0.0607 -0.3310
  543MOL0     C71584   3.845  10.848   4.378 -0.4479  0.4184  0.4242
  543MOL0     C71585   3.938  10.805   4.261  0.3296 -0.1217  0.7105
  543MOL0     C71586   3.962  10.923   4.158  0.1071  1.0051 -1.1020
  543MOL0     C71587   4.088  10.913   4.084  0.1654  0.4398  0.2608
  543MOL0    Cl71588   4.098  10.740   4.027 -0.5059 -0.0827  0.3706
  543MOL0     C71589   4.152  10.510   4.962 -0.1709  0.2513 -0.1254
  543MOL0     C71590   4.206  10.488   5.094 -1.0587 -0.0191 -1.1717
  543MOL0     O71591   4.105  10.658   5.414 -0.0579 -0.5405  0.9348
  543MOL0     C71592   4.417  10.528   5.521 -0.2515 -1.1372 -0.6661
  543MOL0     C71593   4.489  10.499   5.650 -0.2317  0.3871 -0.2558
  543MOL0     N71594   4.451  10.764   6.480 -0.1753  0.8338 -1.0951
  543MOL0     N71595   4.501  10.804   6.591 -0.3961  0.5348  0.0434
  543MOL0     C71596   4.520  10.863   7.820 -0.5609  0.2361  1.3168
  543MOL0     C71597   4.455  10.859   7.939 -0.1960 -0.4320 -0.6364
  543MOL0     C71598   4.214  10.825   8.287  0.3265  0.4264  0.0984
  543MOL0     C71599   4.302  10.757   8.371 -0.7816  1.2541  0.3835
  543MOL0     C71600   4.276  10.764   8.508 -0.1450 -1.0510 -0.1501
  543MOL0     C71601   4.165  10.827   8.565 -0.1599  0.6728  0.8033
  543MOL0     O71602   4.162  10.834   8.695 -0.0428 -0.1127  0.5016
  543MOL0     C71603   4.048  10.895   8.767 -0.0065  0.4964  0.0264
  543MOL0     C71604   4.072  10.838   8.914  0.0884  0.7368  0.1783
  543MOL0     C71605   3.962  10.872   9.016 -0.5376  0.0459 -0.7412
  543MOL0     C71606   3.994  10.814   9.155 -0.8988 -0.0630 -0.0037
  543MOL0     C71607   4.098  10.881   9.250  0.1011 -1.3400  0.6168
  543MOL0     C71608   4.185  10.922   9.320 -1.1256 -0.8461  1.3859
  543MOL0     C71609   4.076  10.889   8.478  0.8494  0.2041 -0.8665
  543MOL0     C71610   4.101  10.892   8.340  0.1314 -0.9233 -0.4855
  543MOL0     H71611   4.326  10.543   7.938 -0.4759 -1.3943 -0.8620
  543MOL0     H71612   4.445  10.562   7.705 -0.4933  1.3925  0.3375
  543MOL0     H71613   4.709  10.910   7.623 -1.3612  1.4071 -0.5725
  543MOL0     H71614   4.574  10.920   7.512 -1.8456 -1.1822  1.0168
  543MOL0     H71615   4.829  10.734   7.492  0.4667 -0.6801 -0.8497
  543MOL0     H71616   4.804  10.888   7.407  1.5572  0.0079  1.9291
  543MOL0     H71617   4.633  10.815   7.275  1.5863  0.3801 -0.9384
  543MOL0     H71618   4.619  10.662   7.360  0.5811 -1.0728 -1.1657
  543MOL0     H71619   4.830  10.757   7.175 -2.0687 -1.0608 -5.6674
  543MOL0     H71620   4.841  10.591   7.269  0.8964  0.9083  0.4821
  543MOL0     H71621   4.638  10.530   7.144  1.9819 -0.9390  1.0675
  543MOL0     H71622   4.780  10.564   7.037  0.4820  0.0449  1.2674
  543MOL0     H71623   4.719  10.787   7.006  0.6473 -0.4021  1.4904
  543MOL0     H71624   4.560  10.765   7.072  2.9901  1.1536  0.5020
  543MOL0     H71625   4.607  10.549   6.872  2.0720  1.1395 -0.8129
  543MOL0     H71626   4.477  10.669   6.876 -0.6940 -0.3380 -1.6706
  543MOL0     H71627   4.758  10.694   6.749 -0.8129 -2.2791  0.5629
  543MOL0     H71628   4.651  10.832   6.794 -0.2895  0.4005  0.0154
  543MOL0     H71629   4.644  10.509   6.555 -2.9500 -1.6012 -0.1364
  543MOL0     H71630   4.410  10.588   6.287  0.4316 -1.2612 -1.0512
  543MOL0     H71631   4.510  10.464   6.356  2.6857 -0.2643  0.5290
  543MOL0     H71632   4.708  10.620   6.277  0.4014  1.7999  0.3279
  543MOL0     H71633   4.598  10.738   6.224  1.6881  0.6047  0.6480
  543MOL0     H71634   4.693  10.579   6.034  0.8299 -2.0072 -0.4634
  543MOL0     H71635   4.601  10.452   6.115  0.6683  0.8348 -0.3407
  543MOL0     H71636   4.491  10.709   6.006 -0.2588 -0.0700  1.1070
  543MOL0     H71637   4.391  10.572   6.044  0.2713 -2.7059  0.5811
  543MOL0     H71638   4.303  10.679   5.863 -0.1206 -2.3421  0.7167
  543MOL0     H71639   4.153  10.693   5.663 -0.2664 -0.1395  1.7463
  543MOL0     H71640   4.223  10.819   5.177 -2.1092 -0.2973  1.9098
  543MOL0     H71641   4.135  10.844   4.950 -2.1150  1.3921  2.1986
  543MOL0     H71642   3.943  10.469   4.826  1.8224 -0.3188  1.1528
  543MOL0     H71643   4.062  10.477   4.694  1.6578  1.1618  1.2983
  543MOL0     H71644   3.805  10.645   4.723  0.1150  1.4961 -0.5938
  543MOL0     H71645   3.827  10.501   4.607 -0.0174 -0.6759  1.7275
  543MOL0     H71646   3.992  10.623   4.484  1.7489  1.5047  0.8418
  543MOL0     H71647   3.971  10.769   4.604 -0.4780 -0.3827  2.0808
  543MOL0     H71648   3.748  10.658   4.438 -0.0285  1.4716 -3.4836
  543MOL0     H71649   3.747  10.790   4.555  0.5045 -0.0229  0.2754
  543MOL0     H71650   3.895  10.934   4.423  0.0944  0.4234 -0.1685
  543MOL0     H71651   3.754  10.882   4.327 -0.0548 -0.0727 -0.6419
  543MOL0     H71652   3.906  10.722   4.197  0.5593 -1.9113  2.8114
  543MOL0     H71653   4.034  10.767   4.296 -0.2124 -0.2184  2.1477
  543MOL0     H71654   3.873  10.936   4.095 -1.8514 -2.2988  0.6990
  543MOL0     H71655   3.955  11.022   4.205 -0.5606  0.1901  0.6299
  543MOL0     H71656   4.179  10.935   4.142  0.3004  0.5546  0.0074
  543MOL0     H71657   4.080  10.975   3.995 -5.3648 -0.9854 -0.5916
  543MOL0     H71658   4.146  10.417   4.906  0.8216  1.2251 -1.9577
  543MOL0     H71659   4.246  10.388   5.112  3.6252  1.5354 -1.6695
  543MOL0     H71660   4.463  10.505   5.426  2.0482  2.5774 -0.6632
  543MOL0     H71661   4.582  10.443   5.639 -2.2049 -3.5264  1.1938
  543MOL0     H71662   4.574  10.955   7.804 -1.0625  0.9598  3.4084
  543MOL0     H71663   4.470  10.951   7.994 -0.5548 -0.0393 -1.1949
  543MOL0     H71664   4.389  10.699   8.344 -1.0955 -1.1525  3.8990
  543MOL0     H71665   4.353  10.722   8.572  1.1897  0.4799 -0.6876
  543MOL0     H71666   3.951  10.863   8.729 -0.2700  0.3360  0.8089
  543MOL0     H71667   4.052  11.005   8.762  1.0546  0.6779  3.0944
  543MOL0     H71668   4.069  10.729   8.906 -0.2078  0.8408 -1.4258
  543MOL0     H71669   4.170  10.865   8.954 -0.1829  4.5181 -1.2536
  543MOL0     H71670   3.862  10.841   8.984 -0.7943  1.0000 -0.8899
  543MOL0     H71671   3.974  10.980   9.020  0.2138  0.0306 -2.2134
  543MOL0     H71672   3.895  10.804   9.201 -1.0045 -0.5363 -0.3267
  543MOL0     H71673   4.019  10.709   9.140 -2.1799 -0.3845  0.0168
  543MOL0     H71674   4.272  10.957   9.370  0.4454 -2.4764 -0.0742
  543MOL0     H71675   3.987  10.939   8.515  0.0370 -0.6168 -1.6805
  543MOL0     H71676   4.036  10.942   8.269 -1.2257  0.5163  1.6486
  544MOL0     O71677   0.717   1.089   4.536  0.1797 -0.1823 -0.3922
  544MOL0     C71678   0.687   0.972   4.525 -0.0519  0.2266  0.0526
  544MOL0     O71679   0.588   0.910   4.590 -0.2506 -0.5428 -0.1911
  544MOL0     C71680   0.511   0.967   4.686 -0.8304  0.1498 -0.2530
  544MOL0     C71681   0.559   1.078   4.771  0.1398 -0.5962 -0.6514
  544MOL0     C71682   0.477   1.105   4.886 -0.1512  0.6606  0.6458
  544MOL0     C71683   0.361   1.031   4.925 -0.4544 -0.1465  0.9195
  544MOL0     O71684   0.292   1.063   5.038  0.1780  1.1112 -0.4302
  544MOL0     C71685   0.154   1.022   5.042  0.0395  0.0514 -0.7351
  544MOL0     C71686   0.064   1.090   4.941  0.8467 -0.2106 -0.6088
  544MOL0     C71687   0.086   1.240   4.929  0.2693  0.1459 -0.2283
  544MOL0     C71688  -0.002   1.303   4.819 -0.5642  1.0900  0.9054
  544MOL0     C71689   0.068   1.438   4.778 -0.3772  1.1358 -1.0777
  544MOL0     C71690   0.055   1.553   4.880  1.1281  0.4576 -0.1083
  544MOL0     C71691   0.106   1.687   4.835 -1.1638  0.1318 -0.5521
  544MOL0     C71692   0.002   1.796   4.846  0.4788 -1.3974 -0.2481
  544MOL0     N71693  -0.019   1.833   4.980  0.4398  0.6223 -0.1227
  544MOL0     C71694   0.077   1.882   5.063 -0.0583  0.8088  0.0018
  544MOL0     C71695   0.024   1.885   5.183  0.7844 -0.8115  0.3469
  544MOL0     C71696   0.088   1.929   5.309  0.3267  0.5329 -0.5652
  544MOL0     C71697   0.155   1.817   5.387 -0.0036  0.8895 -0.6542
  544MOL0     C71698   0.222   1.865   5.514 -1.0737  0.5040 -0.6138
  544MOL0     C71699   0.295   1.746   5.596 -0.1353  1.1066  0.3382
  544MOL0     O71700   0.419   1.702   5.530 -0.0089 -0.2128 -1.0569
  544MOL0     C71701   0.534   1.779   5.538  0.2713 -0.2584  0.9999
  544MOL0     C71702   0.535   1.902   5.599 -0.5920  0.3806 -0.0872
  544MOL0     C71703   0.644   1.996   5.594 -0.3876 -0.1813  0.2606
  544MOL0     C71704   0.769   1.945   5.544  0.0355  0.0448  0.3037
  544MOL0     C71705   0.897   2.022   5.554  0.3389  0.5365 -0.1982
  544MOL0     O71706   1.004   1.970   5.484  0.0203 -0.0524  0.7540
  544MOL0     C71707   1.117   2.039   5.504 -0.5286 -1.0161  0.3211
  544MOL0     C71708   1.158   2.124   5.396 -0.2937  0.1599 -0.2132
  544MOL0     C71709   1.263   2.214   5.415  0.1306  0.0245 -0.1874
  544MOL0     C71710   1.322   2.223   5.544 -0.3055  0.3488 -1.0744
  544MOL0     O71711   1.423   2.308   5.571  0.4435 -0.1154  0.5971
  544MOL0     C71712   1.376   2.436   5.585  0.2605 -0.1466 -0.4780
  544MOL0     C71713   1.488   2.526   5.622 -1.1365 -0.2401 -0.3370
  544MOL0     C71714   1.609   2.522   5.518 -0.6801  0.2829 -0.0624
  544MOL0     C71715   1.677   2.655   5.499 -0.1529  0.2111  0.0317
  544MOL0     C71716   1.804   2.649   5.418  0.0644  0.9328 -0.0092
  544MOL0     C71717   1.905   2.768   5.437 -0.0681  0.8106 -0.0782
  544MOL0     C71718   1.862   2.900   5.372  0.1701  0.5969 -0.2176
  544MOL0     C71719   1.948   3.020   5.415  0.4827 -0.9284  0.4720
  544MOL0    Cl71720   1.909   3.152   5.298  0.0109  0.2064 -0.4521
  544MOL0     C71721   1.281   2.139   5.648 -0.8994 -0.9297  0.7625
  544MOL0     C71722   1.182   2.041   5.621 -0.8820 -0.1402 -0.6359
  544MOL0     O71723   0.898   2.124   5.628 -0.0826 -0.2393  0.3567
  544MOL0     C71724   0.771   1.811   5.497  1.2538  0.5401 -0.3002
  544MOL0     C71725   0.654   1.740   5.478 -0.5265 -0.5206  0.8143
  544MOL0     N71726  -0.110   1.849   5.169  0.2635  0.5566 -0.0513
  544MOL0     N71727  -0.132   1.796   5.047  0.7248  0.2907 -0.7350
  544MOL0     C71728   0.326   0.923   4.840 -0.3344 -0.0247 -0.9486
  544MOL0     C71729   0.404   0.886   4.724  0.7356 -0.9675  0.6419
  544MOL0     C71730   0.767   0.886   4.440  0.5451  0.9470  0.0207
  544MOL0     C71731   0.706   0.772   4.370  0.2170  0.0605 -0.2400
  544MOL0     C71732   0.785   0.706   4.276 -0.2130  0.3953  1.1153
  544MOL0     C71733   0.926   0.730   4.261  0.3871 -0.3586 -0.2920
  544MOL0     O71734   1.009   0.667   4.181  0.4982  0.3072  0.5095
  544MOL0     C71735   0.976   0.688   4.041  0.9620 -0.2138  0.3988
  544MOL0     C71736   0.953   0.551   3.982  0.1246 -0.0540  0.9185
  544MOL0     C71737   0.922   0.553   3.835  0.7270 -0.4518  0.5298
  544MOL0     C71738   0.920   0.418   3.777  0.0632 -0.0547 -0.4204
  544MOL0     C71739   0.890   0.414   3.637  0.4938 -0.5342  0.3552
  544MOL0     C71740   0.860   0.431   3.520 -0.4012  0.4352  0.3476
  544MOL0     C71741   0.976   0.834   4.337 -0.2130  0.7664 -1.1280
  544MOL0     C71742   0.903   0.915   4.418  0.0778 -0.0826 -0.5258
  544MOL0     H71743   0.647   1.139   4.750 -0.4624  0.5141 -0.0407
  544MOL0     H71744   0.528   1.180   4.947  2.0407 -0.2423  0.0458
  544MOL0     H71745   0.132   1.045   5.146  1.3420  0.3851 -0.5068
  544MOL0     H71746   0.124   0.917   5.048  0.0417  0.1101  0.4208
  544MOL0     H71747  -0.040   1.077   4.971 -0.7478  2.2700 -4.3534
  544MOL0     H71748   0.080   1.044   4.843  3.5547 -0.0024 -0.3437
  544MOL0     H71749   0.190   1.265   4.906  1.1094 -0.9504  2.1039
  544MOL0     H71750   0.045   1.285   5.020 -1.5290 -2.9391  0.6354
  544MOL0     H71751  -0.005   1.232   4.736 -1.2384  0.1861  1.6836
  544MOL0     H71752  -0.104   1.324   4.853 -1.1526  0.9102 -0.6596
  544MOL0     H71753   0.025   1.475   4.684 -1.3451  0.3165 -0.9682
  544MOL0     H71754   0.177   1.431   4.769 -0.4173 -1.0821 -0.4236
  544MOL0     H71755   0.110   1.522   4.969 -1.0847  0.4165  1.3022
  544MOL0     H71756  -0.049   1.567   4.909  1.5639  3.7475  0.2390
  544MOL0     H71757   0.204   1.713   4.876 -0.2246 -1.9578 -1.3690
  544MOL0     H71758   0.123   1.678   4.728  1.1124  1.4440 -0.3561
  544MOL0     H71759  -0.096   1.774   4.802  0.5471 -0.3417 -0.9614
  544MOL0     H71760   0.050   1.878   4.793 -2.1100  0.2242 -0.2506
  544MOL0     H71761   0.182   1.894   5.037 -0.1978 -0.6794 -1.4031
  544MOL0     H71762   0.011   1.977   5.371 -0.1358 -0.7310 -0.1337
  544MOL0     H71763   0.165   2.003   5.287  0.1665  1.2917  1.2239
  544MOL0     H71764   0.232   1.760   5.333 -0.0974 -0.0433  0.1628
  544MOL0     H71765   0.076   1.750   5.422 -0.2867  2.8129  2.7962
  544MOL0     H71766   0.297   1.939   5.484 -0.4917 -0.8011 -2.5699
  544MOL0     H71767   0.159   1.925   5.580 -0.4130  2.7010 -1.8520
  544MOL0     H71768   0.213   1.673   5.604 -0.1679  1.0489 -0.4545
  544MOL0     H71769   0.305   1.760   5.704 -2.3815 -2.5820  1.1902
  544MOL0     H71770   0.442   1.922   5.652 -0.5716 -1.7509  0.8793
  544MOL0     H71771   0.646   2.094   5.641 -0.9750 -0.5954  1.1908
  544MOL0     H71772   1.096   2.131   5.307 -2.3605 -3.7263  0.6636
  544MOL0     H71773   1.296   2.277   5.333 -0.5244  1.3478  0.5322
  544MOL0     H71774   1.300   2.437   5.663  0.0266  1.0861 -0.7096
  544MOL0     H71775   1.340   2.471   5.488  0.0623 -0.3890 -0.4915
  544MOL0     H71776   1.529   2.497   5.719  0.7601 -1.8910 -1.5501
  544MOL0     H71777   1.458   2.631   5.633 -0.8879  0.2418 -3.3588
  544MOL0     H71778   1.565   2.499   5.421  0.2095 -1.3250 -0.1169
  544MOL0     H71779   1.675   2.438   5.541 -2.0405 -1.0737 -0.9246
  544MOL0     H71780   1.615   2.736   5.458  0.7268  0.3522 -1.0756
  544MOL0     H71781   1.712   2.692   5.595  0.8263  1.5857 -0.8222
  544MOL0     H71782   1.778   2.648   5.312 -0.0665  1.4246  0.0165
  544MOL0     H71783   1.860   2.557   5.436  1.8216  1.6471 -1.4735
  544MOL0     H71784   2.007   2.755   5.401 -0.0073  0.2611  0.2826
  544MOL0     H71785   1.905   2.794   5.543 -0.9536  4.0171 -0.7663
  544MOL0     H71786   1.850   2.889   5.264  0.1691 -2.2951 -0.0013
  544MOL0     H71787   1.766   2.931   5.414 -1.3414 -2.2334 -1.2723
  544MOL0     H71788   2.053   2.990   5.408  0.7858  0.2043 -0.1249
  544MOL0     H71789   1.942   3.062   5.516  0.7315  1.4196 -0.4242
  544MOL0     H71790   1.349   2.135   5.732  0.2173  1.2237  0.0281
  544MOL0     H71791   1.137   1.971   5.690 -2.1173  0.9002 -0.3409
  544MOL0     H71792   0.858   1.766   5.451  0.4194 -1.5129  0.0207
  544MOL0     H71793   0.650   1.655   5.410 -1.0075 -0.1654  0.3999
  544MOL0     H71794   0.239   0.859   4.852 -2.1335  2.5449  0.6553
  544MOL0     H71795   0.381   0.800   4.661 -0.5386 -0.0135 -0.2631
  544MOL0     H71796   0.608   0.731   4.394 -0.0194  0.3188 -0.7636
  544MOL0     H71797   0.735   0.633   4.213  0.5741  2.7386 -2.5537
  544MOL0     H71798   1.051   0.742   3.984 -1.8095  2.5307 -0.9389
  544MOL0     H71799   0.884   0.748   4.036  2.1129  1.9816  2.9214
  544MOL0     H71800   1.038   0.488   4.011  0.0025  0.4002  2.3758
  544MOL0     H71801   0.852   0.529   4.020 -0.4995  0.3841 -0.4486
  544MOL0     H71802   0.981   0.630   3.784 -3.6301  2.1286 -1.1898
  544MOL0     H71803   0.820   0.591   3.821  0.8994 -1.1412 -3.7190
  544MOL0     H71804   1.015   0.372   3.808 -1.3561 -0.7577  3.4316
  544MOL0     H71805   0.846   0.356   3.827  1.3112 -0.2828  1.2465
  544MOL0     H71806   0.822   0.460   3.424 -1.1350  0.3736  0.6123
  544MOL0     H71807   1.081   0.862   4.335  0.3169 -0.7651  1.5243
  544MOL0     H71808   0.955   0.995   4.468 -4.7006  2.4726  1.0032
  545MOL0     O71809  10.702   8.689   6.075  0.4879 -0.2066  0.1455
  545MOL0     C71810  10.762   8.761   5.994 -0.4196 -0.2512 -1.1845
  545MOL0     O71811  10.744   8.893   5.971 -0.0188  0.5244  0.4598
  545MOL0     C71812  10.663   8.976   6.045  0.1728 -0.0033 -0.3961
  545MOL0     C71813  10.697   9.106   6.056 -0.7215  0.3070  0.6161
  545MOL0     C71814  10.615   9.196   6.127  0.2431 -0.3644 -0.1830
  545MOL0     C71815  10.510   9.146   6.203 -0.1466 -0.3921  0.0149
  545MOL0     O71816  10.432   9.226   6.282  0.5170  0.0018 -0.6581
  545MOL0     C71817  10.432   9.362   6.259  0.7872  0.6862 -0.1057
  545MOL0     C71818  10.304   9.420   6.335  0.3689  0.0150 -0.1064
  545MOL0     C71819  10.300   9.576   6.309  0.4444  0.5593  0.6176
  545MOL0     C71820  10.158   9.636   6.318  0.3239  0.1576 -0.7436
  545MOL0     C71821  10.164   9.787   6.353 -0.3989  0.1403 -0.4295
  545MOL0     C71822  10.038   9.850   6.295  0.3904 -0.0250  0.4833
  545MOL0     C71823  10.048  10.003   6.280  0.4380  0.3179  0.1679
  545MOL0     C71824   9.916  10.065   6.235 -0.1349  0.2693 -0.5608
  545MOL0     N71825   9.822  10.057   6.346  0.8819 -0.4689  0.9271
  545MOL0     C71826   9.804  10.134   6.456  0.0118  0.1619 -0.7945
  545MOL0     C71827   9.694  10.086   6.527 -0.3539 -0.0384  0.5935
  545MOL0     C71828   9.623  10.134   6.648 -0.9746  0.4534 -0.2606
  545MOL0     C71829   9.593  10.284   6.632 -0.2229  0.6359 -0.7868
  545MOL0     C71830   9.470  10.327   6.723 -1.0524 -0.7437  0.4384
  545MOL0     C71831   9.434  10.467   6.685 -0.0479  0.3977 -0.1925
  545MOL0     O71832   9.522  10.559   6.741 -0.0505  0.0985  0.3609
  545MOL0     C71833   9.496  10.685   6.776  0.3854 -0.1107 -0.0670
  545MOL0     C71834   9.366  10.740   6.760 -0.4551  0.2154 -0.0578
  545MOL0     C71835   9.352  10.874   6.789 -0.0679 -0.6968  0.3935
  545MOL0     C71836   9.463  10.962   6.821  1.6986 -0.1449  0.1411
  545MOL0     C71837   9.450  11.104   6.848  0.5046  0.0326 -0.4038
  545MOL0     O71838   9.325  11.142   6.897 -0.6978  0.1102  0.4684
  545MOL0     C71839   9.307  11.275   6.929 -0.7732  0.7342  0.8854
  545MOL0     C71840   9.354  11.337   7.043  0.4323 -0.5688  0.0004
  545MOL0     C71841   9.339  11.468   7.071  0.6903  0.5268 -0.3907
  545MOL0     C71842   9.258  11.544   6.985  0.1986  0.9612 -0.4276
  545MOL0     O71843   9.248  11.672   7.031  0.6586 -0.6016 -0.0995
  545MOL0     C71844   9.143  11.760   6.975 -0.9742  0.3056  0.8435
  545MOL0     C71845   9.153  11.896   7.057  0.9738  0.8496  0.4738
  545MOL0     C71846   9.116  12.009   6.965 -0.0761 -0.1579 -0.3439
  545MOL0     C71847   9.124  12.150   7.042 -0.6058  0.0493 -0.2145
  545MOL0     C71848   9.107  12.261   6.950  0.0197  1.0100  0.0588
  545MOL0     C71849   8.961  12.277   6.909  0.3771 -0.4504  0.0460
  545MOL0     C71850   8.961  12.381   6.790 -0.8103  0.0399  0.5694
  545MOL0     C71851   8.820  12.415   6.747 -0.2921 -0.0811  0.7324
  545MOL0    Cl71852   8.776  12.589   6.788  0.3545  0.3267 -0.3854
  545MOL0     C71853   9.205  11.487   6.867 -0.6155  0.3967 -0.5855
  545MOL0     C71854   9.233  11.355   6.841  0.9056  0.3162 -0.1161
  545MOL0     O71855   9.549  11.181   6.830  0.1252  0.4106  0.9415
  545MOL0     C71856   9.576  10.903   6.852  0.4588  0.1184 -0.0879
  545MOL0     C71857   9.599  10.768   6.837 -0.0234 -0.2494 -0.4669
  545MOL0     N71858   9.646   9.991   6.443  1.0495 -0.1146  0.1829
  545MOL0     N71859   9.712   9.983   6.336 -0.6452 -0.4106 -0.1030
  545MOL0     C71860  10.472   9.013   6.185 -0.2462  0.6107  0.2955
  545MOL0     C71861  10.545   8.931   6.107 -0.9184 -0.3058  0.7412
  545MOL0     C71862  10.869   8.697   5.909  0.9755 -0.1542 -0.9765
  545MOL0     C71863  10.909   8.567   5.931  0.1664 -0.7945  0.2692
  545MOL0     C71864  10.982   8.495   5.834 -0.3679 -0.4705 -0.1243
  545MOL0     C71865  11.041   8.555   5.730 -0.3953 -0.2272 -0.3253
  545MOL0     O71866  11.126   8.483   5.644  0.4857  0.2939  0.2322
  545MOL0     C71867  11.134   8.527   5.504 -0.7131 -0.6498  0.2014
  545MOL0     C71868  11.211   8.414   5.436  0.2048  1.1129  0.3529
  545MOL0     C71869  11.367   8.423   5.449  0.5316  0.0463 -0.0100
  545MOL0     C71870  11.434   8.535   5.387 -0.8205  0.0392  1.3145
  545MOL0     C71871  11.456   8.511   5.239  0.4430  0.4560 -0.3190
  545MOL0     C71872  11.466   8.482   5.122  0.7702 -0.8701  0.8095
  545MOL0     C71873  11.009   8.694   5.708  0.1692 -0.4532 -0.1128
  545MOL0     C71874  10.918   8.754   5.790  0.7143 -0.7579  0.4070
  545MOL0     H71875  10.787   9.134   6.002 -1.2693  1.3351  0.2062
  545MOL0     H71876  10.636   9.303   6.122 -0.0416 -0.3582 -2.3095
  545MOL0     H71877  10.418   9.382   6.152  1.0982 -1.0099 -0.4806
  545MOL0     H71878  10.528   9.407   6.286  0.7453  1.3226 -0.9597
  545MOL0     H71879  10.304   9.404   6.443 -0.6110 -1.2760 -0.2655
  545MOL0     H71880  10.208   9.375   6.307 -1.4788  2.0389  2.4444
  545MOL0     H71881  10.346   9.608   6.215 -3.1830  3.0790 -0.5640
  545MOL0     H71882  10.362   9.616   6.389  1.8523 -2.0864  0.9633
  545MOL0     H71883  10.087   9.613   6.238  0.1353 -0.5059 -0.3950
  545MOL0     H71884  10.110   9.590   6.405  4.9782 -0.3592  1.8851
  545MOL0     H71885  10.260   9.838   6.336 -0.6886  0.4937 -1.0211
  545MOL0     H71886  10.155   9.798   6.462  0.3377  0.6506 -0.4111
  545MOL0     H71887   9.953   9.811   6.352 -2.4798 -0.7402 -3.8178
  545MOL0     H71888  10.028   9.808   6.195 -2.3004  2.1955 -0.3171
  545MOL0     H71889  10.091  10.042   6.372  1.5474 -0.5658  0.0535
  545MOL0     H71890  10.110  10.027   6.193 -2.2639  3.9159 -1.0260
  545MOL0     H71891   9.877  10.011   6.148 -2.1103 -0.1341  0.5108
  545MOL0     H71892   9.924  10.171   6.210 -0.6590  0.2356 -0.8874
  545MOL0     H71893   9.869  10.214   6.489 -2.2567  1.6272  0.4381
  545MOL0     H71894   9.684  10.113   6.736 -3.3296 -3.5806  0.7130
  545MOL0     H71895   9.534  10.075   6.673  1.2514 -2.5428  1.3166
  545MOL0     H71896   9.578  10.305   6.526 -2.3666 -1.9109 -1.0835
  545MOL0     H71897   9.681  10.340   6.664  1.1591  0.7893 -4.3983
  545MOL0     H71898   9.391  10.252   6.715 -1.5929 -0.2126  0.7876
  545MOL0     H71899   9.495  10.339   6.828 -0.9638  2.2763  0.1385
  545MOL0     H71900   9.333  10.492   6.719  0.7057  1.0345  1.7410
  545MOL0     H71901   9.435  10.482   6.577 -0.0690 -1.3841 -0.4577
  545MOL0     H71902   9.275  10.683   6.742  0.9171 -2.0243 -0.3425
  545MOL0     H71903   9.257  10.920   6.764  2.1915  3.2402 -2.0152
  545MOL0     H71904   9.402  11.273   7.117 -0.1108  0.4295  1.2442
  545MOL0     H71905   9.372  11.510   7.165  1.0877  2.9095 -1.5234
  545MOL0     H71906   9.043  11.717   6.980 -0.5344 -1.7181 -3.2239
  545MOL0     H71907   9.156  11.771   6.867 -4.4586 -0.9827  0.1900
  545MOL0     H71908   9.257  11.910   7.088  0.8575  2.2845  0.2908
  545MOL0     H71909   9.092  11.896   7.148  0.1296  1.0856 -0.0810
  545MOL0     H71910   9.016  11.985   6.928  0.6076 -1.6913 -1.2868
  545MOL0     H71911   9.183  12.006   6.879  2.0373  1.5036  1.1206
  545MOL0     H71912   9.049  12.148   7.122  0.1058 -0.3839  0.4609
  545MOL0     H71913   9.221  12.162   7.091 -0.4368  0.8550 -0.7444
  545MOL0     H71914   9.172  12.249   6.863  1.3398  0.9781  1.0308
  545MOL0     H71915   9.134  12.341   7.020  3.1430 -0.2067  0.3951
  545MOL0     H71916   8.915  12.309   7.003  0.4090 -2.6989  0.8826
  545MOL0     H71917   8.922  12.177   6.890 -1.0555 -0.7633  3.7887
  545MOL0     H71918   9.007  12.476   6.818  1.0326  0.6118 -3.6687
  545MOL0     H71919   9.024  12.333   6.715  3.0432  1.5243  2.5570
  545MOL0     H71920   8.751  12.342   6.790 -0.5997 -1.8616 -2.4878
  545MOL0     H71921   8.802  12.405   6.639  1.1594  4.4228 -0.1617
  545MOL0     H71922   9.151  11.559   6.806 -0.0803  3.0571  1.8761
  545MOL0     H71923   9.177  11.310   6.759  1.2272 -0.0121 -0.1630
  545MOL0     H71924   9.654  10.965   6.894 -1.2143  0.4884  2.7936
  545MOL0     H71925   9.694  10.729   6.870 -1.1279 -2.0959  0.7657
  545MOL0     H71926  10.376   8.982   6.226 -2.3152  1.0231 -3.7160
  545MOL0     H71927  10.512   8.828   6.105 -0.7512 -0.4640 -3.5491
  545MOL0     H71928  10.890   8.524   6.028 -1.6587  3.0849  1.8629
  545MOL0     H71929  10.992   8.390   5.857  0.6143 -0.2538  0.4955
  545MOL0     H71930  11.187   8.622   5.496  1.2257 -1.6611  0.2909
  545MOL0     H71931  11.032   8.537   5.465 -0.5626 -1.9790 -0.6096
  545MOL0     H71932  11.168   8.321   5.473  1.7048  0.3566  0.2586
  545MOL0     H71933  11.205   8.420   5.327 -1.8692  1.7441  0.4536
  545MOL0     H71934  11.416   8.329   5.423 -0.6138  0.0960 -2.6536
  545MOL0     H71935  11.389   8.419   5.556  2.5668 -2.6143 -0.4349
  545MOL0     H71936  11.375   8.626   5.398  0.8078  1.0193  2.2777
  545MOL0     H71937  11.535   8.554   5.425 -0.0051  1.5696 -1.3226
  545MOL0     H71938  11.455   8.454   5.019  1.1200 -1.1076  0.8353
  545MOL0     H71939  11.035   8.735   5.611 -0.8038 -2.3114 -1.2298
  545MOL0     H71940  10.894   8.855   5.759  1.2462  0.2530  3.0256
  546MOL0     O71941   6.065  10.142   5.484 -0.8636  0.1624  0.3170
  546MOL0     C71942   6.052  10.031   5.438  0.1017 -0.3013  0.2931
  546MOL0     O71943   5.977   9.994   5.334  0.1285 -0.3998  0.0228
  546MOL0     C71944   5.896  10.086   5.261 -0.4695  0.1579 -0.8168
  546MOL0     C71945   5.949  10.201   5.209  0.7043 -0.1651  0.3517
  546MOL0     C71946   5.874  10.290   5.132 -0.9664 -0.1791  0.0907
  546MOL0     C71947   5.735  10.263   5.099 -0.1313  0.3736 -0.0094
  546MOL0     O71948   5.657  10.361   5.044  0.8086  0.4791  0.7291
  546MOL0     C71949   5.558  10.308   4.950 -0.3673 -0.4905  0.7094
  546MOL0     C71950   5.588  10.378   4.814  0.8834  0.0188 -0.7432
  546MOL0     C71951   5.556  10.524   4.833 -0.1541  0.2970  0.7129
  546MOL0     C71952   5.563  10.581   4.692  0.0567 -0.5550 -0.4991
  546MOL0     C71953   5.518  10.732   4.678 -0.4451 -0.1040  0.2629
  546MOL0     C71954   5.547  10.796   4.544 -0.4706  0.5681 -0.2975
  546MOL0     C71955   5.478  10.934   4.533 -0.2311 -0.1400 -0.2634
  546MOL0     C71956   5.505  11.009   4.407 -0.4360  0.0485 -0.1110
  546MOL0     N71957   5.386  11.024   4.323 -0.0786 -0.1823  0.4249
  546MOL0     C71958   5.331  10.925   4.245 -0.6641 -0.3033 -0.3454
  546MOL0     C71959   5.212  10.983   4.202 -0.1694 -0.4626  0.1387
  546MOL0     C71960   5.107  10.923   4.113 -0.7651 -0.2170  0.9273
  546MOL0     C71961   4.968  10.964   4.160  0.0019  0.8716 -0.4854
  546MOL0     C71962   4.883  10.850   4.105 -0.9287  0.1834  0.6540
  546MOL0     C71963   4.740  10.884   4.120  0.1644  0.1672  1.0076
  546MOL0     O71964   4.662  10.798   4.031 -0.6250 -1.0195 -0.0451
  546MOL0     C71965   4.589  10.710   4.090  0.0447  0.2765 -0.0911
  546MOL0     C71966   4.641  10.579   4.110 -0.7007  0.2003  0.2618
  546MOL0     C71967   4.566  10.477   4.174  0.6971 -0.1094  0.9947
  546MOL0     C71968   4.433  10.509   4.223 -0.4342 -0.8338 -0.3237
  546MOL0     C71969   4.355  10.420   4.312 -0.1721 -0.3885  0.1001
  546MOL0     O71970   4.244  10.468   4.363  0.1760  0.3335 -0.4341
  546MOL0     C71971   4.137  10.381   4.379  0.0555  1.1460 -0.1371
  546MOL0     C71972   4.129  10.262   4.456  0.0924 -0.4069 -0.7036
  546MOL0     C71973   4.016  10.182   4.457 -0.2180  0.6997  0.2905
  546MOL0     C71974   3.897  10.202   4.389 -0.3369  0.2753  0.5101
  546MOL0     O71975   3.783  10.121   4.391 -0.2530 -0.1836 -0.5809
  546MOL0     C71976   3.655  10.170   4.350 -0.1051 -0.1637 -0.0570
  546MOL0     C71977   3.547  10.071   4.389  0.1727  0.1416  0.6866
  546MOL0     C71978   3.519  10.074   4.536 -0.5817  0.2356 -0.5180
  546MOL0     C71979   3.397  10.003   4.599  0.6055 -0.2966 -0.1694
  546MOL0     C71980   3.264  10.072   4.546 -0.1822 -0.5456  1.3331
  546MOL0     C71981   3.141  10.005   4.595  0.1903  0.1727  0.8624
  546MOL0     C71982   3.021  10.089   4.550 -0.6189  1.0329  0.4984
  546MOL0     C71983   2.901  10.015   4.592 -0.3224  0.3832 -0.3604
  546MOL0    Cl71984   2.761  10.122   4.563 -0.1537  0.0178  0.4152
  546MOL0     C71985   3.900  10.323   4.319  0.5606  0.7441 -0.9589
  546MOL0     C71986   4.018  10.404   4.307  0.4351 -0.0338 -0.4250
  546MOL0     O71987   4.397  10.311   4.329 -0.4440 -0.1814 -0.4483
  546MOL0     C71988   4.374  10.624   4.180  0.6316  1.4602 -0.7347
  546MOL0     C71989   4.456  10.723   4.120 -0.0049 -0.0895  0.4819
  546MOL0     N71990   5.215  11.119   4.240 -0.0465  0.5069 -0.3674
  546MOL0     N71991   5.322  11.139   4.313  0.2337  0.3562  0.3423
  546MOL0     C71992   5.685  10.139   5.143 -0.3274  0.2581  0.6389
  546MOL0     C71993   5.764  10.051   5.222 -0.2467 -1.1198  0.1467
  546MOL0     C71994   6.150   9.938   5.487 -0.1026 -0.5049 -0.9025
  546MOL0     C71995   6.229   9.963   5.606  0.5865  0.1066 -0.3262
  546MOL0     C71996   6.314   9.866   5.662 -0.2707 -0.1084  0.4886
  546MOL0     C71997   6.314   9.732   5.603 -0.1701 -0.7534  0.5869
  546MOL0     O71998   6.396   9.629   5.629 -0.3045 -0.2849 -0.0191
  546MOL0     C71999   6.479   9.644   5.742 -1.2386  0.7301  0.1854
  546MOL0     C72000   6.565   9.518   5.751 -0.0542 -0.3458  0.4390
  546MOL0     C72001   6.491   9.394   5.808 -0.1164 -0.1785 -0.1142
  546MOL0     C72002   6.546   9.260   5.756 -0.3210  0.1419  0.7284
  546MOL0     C72003   6.684   9.240   5.794 -0.5316  0.0681 -0.0485
  546MOL0     C72004   6.806   9.244   5.821  0.9290  0.6275  0.1358
  546MOL0     C72005   6.243   9.718   5.485  0.9521 -0.4465  0.5046
  546MOL0     C72006   6.156   9.810   5.429 -0.6482  0.1293 -0.1301
  546MOL0     H72007   6.048  10.233   5.240  0.7974 -1.2008  1.1608
  546MOL0     H72008   5.925  10.381   5.101  0.1376  0.3524  3.0977
  546MOL0     H72009   5.462  10.338   4.991 -1.4533 -0.6907 -1.5443
  546MOL0     H72010   5.562  10.200   4.931  1.6108 -0.5493  1.2188
  546MOL0     H72011   5.516  10.332   4.745 -0.7841  0.8403  0.3913
  546MOL0     H72012   5.690  10.380   4.772  1.0273 -0.4444 -0.4169
  546MOL0     H72013   5.632  10.570   4.898 -1.3763 -0.0963  2.5058
  546MOL0     H72014   5.461  10.552   4.879  0.1499  2.0715  0.3576
  546MOL0     H72015   5.672  10.584   4.682  0.9205 -3.1284  4.6126
  546MOL0     H72016   5.516  10.526   4.610 -2.9007  2.0039 -0.7074
  546MOL0     H72017   5.567  10.794   4.754 -0.7136  0.4559 -0.0189
  546MOL0     H72018   5.415  10.742   4.712 -0.7078 -1.8993  0.1065
  546MOL0     H72019   5.502  10.737   4.463 -0.5248  1.0683 -0.6363
  546MOL0     H72020   5.655  10.785   4.533 -0.6279 -2.8797  0.5346
  546MOL0     H72021   5.371  10.926   4.549 -0.0327  0.8378  1.7968
  546MOL0     H72022   5.504  10.989   4.623  0.8807  1.8430 -1.7029
  546MOL0     H72023   5.591  10.964   4.355 -0.1478  0.4044  0.0524
  546MOL0     H72024   5.535  11.112   4.428  2.8856  0.7629 -6.0119
  546MOL0     H72025   5.386  10.838   4.211  3.2079  2.6602 -2.5946
  546MOL0     H72026   5.128  10.816   4.119  0.4380 -0.0471 -0.0402
  546MOL0     H72027   5.110  10.950   4.007  1.7967  2.4643  1.5403
  546MOL0     H72028   4.929  11.062   4.129 -2.5241  1.2327  3.1495
  546MOL0     H72029   4.970  10.963   4.270  1.8775 -2.3672 -0.4180
  546MOL0     H72030   4.911  10.836   4.000 -2.4382  0.1566  0.2264
  546MOL0     H72031   4.911  10.758   4.157  1.8092  0.5070 -0.0995
  546MOL0     H72032   4.721  10.988   4.090 -2.1414 -0.0433  1.4877
  546MOL0     H72033   4.713  10.865   4.224  1.8426  0.9939  1.6311
  546MOL0     H72034   4.744  10.563   4.080 -1.2884  0.4129 -2.0557
  546MOL0     H72035   4.607  10.378   4.187  2.5402  0.4894 -0.0457
  546MOL0     H72036   4.206  10.233   4.526 -1.3835 -2.2852  0.2241
  546MOL0     H72037   4.016  10.090   4.513 -3.8068 -0.4455 -1.2469
  546MOL0     H72038   3.639  10.191   4.244 -0.2461  0.1931  0.0341
  546MOL0     H72039   3.645  10.271   4.390 -3.3573  0.8801 -2.9896
  546MOL0     H72040   3.571   9.973   4.347  2.1885  0.4078  1.1510
  546MOL0     H72041   3.456  10.106   4.339  0.8041  1.2503  0.2735
  546MOL0     H72042   3.502  10.180   4.557 -2.9428 -0.1821 -0.0600
  546MOL0     H72043   3.609  10.035   4.586 -2.0016 -2.4105  0.1384
  546MOL0     H72044   3.405   9.899   4.564  2.5896  0.2563 -1.5359
  546MOL0     H72045   3.405  10.006   4.708  3.5521  1.3925 -0.3420
  546MOL0     H72046   3.262  10.083   4.437  1.2089 -1.4111  1.1922
  546MOL0     H72047   3.270  10.172   4.589  2.2357  0.1926 -0.4491
  546MOL0     H72048   3.137  10.010   4.704 -0.1768 -3.9990  1.2076
  546MOL0     H72049   3.141   9.900   4.565  0.0009  1.1180 -2.9364
  546MOL0     H72050   3.036  10.188   4.595 -0.2037  0.3191  1.9731
  546MOL0     H72051   3.018  10.085   4.440  5.0567 -3.4699  0.0449
  546MOL0     H72052   2.913   9.981   4.695 -1.9017 -1.9905 -0.8930
  546MOL0     H72053   2.898   9.922   4.535  4.8622 -0.7284  0.6275
  546MOL0     H72054   3.813  10.340   4.257 -2.1619 -1.5735  1.9091
  546MOL0     H72055   4.023  10.477   4.226 -2.9765  0.1785 -0.5957
  546MOL0     H72056   4.269  10.648   4.195  0.3311  1.2853 -2.3419
  546MOL0     H72057   4.394  10.804   4.083  0.6160 -0.9430 -2.8108
  546MOL0     H72058   5.585  10.102   5.121 -0.3273  0.9979 -0.6713
  546MOL0     H72059   5.722   9.962   5.269 -3.8061  1.5681  2.5588
  546MOL0     H72060   6.227  10.056   5.662  1.4528 -1.0808  1.8480
  546MOL0     H72061   6.374   9.894   5.748  0.2967  0.5445 -0.1026
  546MOL0     H72062   6.420   9.650   5.834 -0.9985  4.2561  0.2591
  546MOL0     H72063   6.551   9.726   5.739  1.4815 -1.5277 -0.8724
  546MOL0     H72064   6.608   9.486   5.655 -2.6325 -2.2021 -0.2034
  546MOL0     H72065   6.656   9.525   5.812  0.9427 -0.2093 -0.9957
  546MOL0     H72066   6.382   9.396   5.798  0.0514  1.8256 -2.4210
  546MOL0     H72067   6.495   9.400   5.917 -1.0091 -3.0079  0.1480
  546MOL0     H72068   6.491   9.183   5.811  0.5815  1.0978  3.0522
  546MOL0     H72069   6.541   9.253   5.647 -2.2093  1.1049  0.7062
  546MOL0     H72070   6.911   9.237   5.837  0.7652 -1.3793  0.5475
  546MOL0     H72071   6.233   9.617   5.449  1.5411 -0.8049  1.3085
  546MOL0     H72072   6.104   9.772   5.341 -0.7514  0.4419 -0.2037
  547MOL0     O72073   2.412   3.040  10.874  0.5968 -0.5126  0.1486
  547MOL0     C72074   2.426   2.931  10.933 -0.4313 -0.1459  0.0964
  547MOL0     O72075   2.521   2.842  10.917 -0.0046  0.8555  0.0125
  547MOL0     C72076   2.622   2.853  10.821  0.2271 -0.3774 -0.0971
  547MOL0     C72077   2.691   2.969  10.807 -0.0287 -1.0698  0.2393
  547MOL0     C72078   2.800   2.968  10.710 -0.0090  0.2140 -0.2824
  547MOL0     C72079   2.831   2.854  10.631  0.2954 -0.0193 -1.2723
  547MOL0     O72080   2.942   2.855  10.540  0.0581  0.5697  0.0700
  547MOL0     C72081   3.027   2.741  10.550  0.2232  0.2530  0.3810
  547MOL0     C72082   3.176   2.761  10.519  0.2650 -0.1873  0.0887
  547MOL0     C72083   3.225   2.870  10.598  0.5292 -0.6667  0.1519
  547MOL0     C72084   3.377   2.903  10.593  0.7489 -0.4550  1.0840
  547MOL0     C72085   3.427   3.013  10.680  0.3764 -0.1529  0.6475
  547MOL0     C72086   3.582   3.032  10.673  0.7874 -0.2687  0.8627
  547MOL0     C72087   3.629   3.131  10.562  0.7058  0.0047 -0.1634
  547MOL0     C72088   3.780   3.150  10.564  0.8797 -0.4675  1.2591
  547MOL0     N72089   3.858   3.029  10.587  0.0387  0.2372 -0.2469
  547MOL0     C72090   3.882   2.965  10.707  0.7788 -0.3986  0.0355
  547MOL0     C72091   3.969   2.868  10.669 -0.0170 -0.7714  1.1287
  547MOL0     C72092   4.017   2.773  10.773  0.4858 -0.0183 -0.0909
  547MOL0     C72093   3.929   2.654  10.796 -0.0251  0.3611 -0.7840
  547MOL0     C72094   3.938   2.588  10.924  0.6822  0.1355 -0.5041
  547MOL0     C72095   3.870   2.663  11.037  0.4660 -0.4920 -0.6257
  547MOL0     O72096   3.842   2.565  11.145 -0.1027  0.5238 -0.2143
  547MOL0     C72097   3.736   2.475  11.135 -0.0819 -0.3376 -0.8887
  547MOL0     C72098   3.615   2.510  11.072  0.4966  0.5093  0.2637
  547MOL0     C72099   3.504   2.430  11.075  0.0823 -0.1654 -0.7759
  547MOL0     C72100   3.515   2.297  11.122 -0.1212  0.4571 -0.0822
  547MOL0     C72101   3.397   2.210  11.121 -0.3656  0.1423 -0.6436
  547MOL0     O72102   3.274   2.265  11.104  0.4321 -0.3334 -0.0819
  547MOL0     C72103   3.167   2.189  11.110  0.1079  0.3072 -0.5238
  547MOL0     C72104   3.075   2.199  11.009  1.0031 -0.2655 -0.4696
  547MOL0     C72105   2.973   2.109  10.998 -0.4779 -0.1848 -0.0126
  547MOL0     C72106   2.945   2.006  11.089  0.4538 -0.7382  0.2215
  547MOL0     O72107   2.841   1.918  11.086 -0.4717 -0.5009  0.7680
  547MOL0     C72108   2.742   1.931  10.987 -0.1372 -0.5759 -0.1222
  547MOL0     C72109   2.630   1.825  11.012  0.6765  0.7339  0.5878
  547MOL0     C72110   2.537   1.827  10.891 -0.4568  0.0416  0.2914
  547MOL0     C72111   2.410   1.744  10.921 -0.7372 -0.2875 -1.0209
  547MOL0     C72112   2.318   1.729  10.802  0.5705  0.3963  0.0968
  547MOL0     C72113   2.179   1.699  10.856 -0.1197  0.7358  0.1606
  547MOL0     C72114   2.072   1.666  10.748 -0.5710 -0.2730  0.5352
  547MOL0     C72115   1.947   1.614  10.819 -0.0651 -0.4163 -0.7729
  547MOL0    Cl72116   1.820   1.594  10.699 -0.3919  0.1301 -0.4624
  547MOL0     C72117   3.030   1.999  11.197 -0.1677 -0.4168 -0.9817
  547MOL0     C72118   3.143   2.091  11.213 -0.4611 -0.3412  0.8858
  547MOL0     O72119   3.421   2.093  11.136  0.2132  0.7541  0.2338
  547MOL0     C72120   3.640   2.257  11.174  0.1051  0.0775 -0.2203
  547MOL0     C72121   3.744   2.353  11.185  0.4085  0.1117  0.1729
  547MOL0     N72122   3.986   2.862  10.533  0.1838  0.9363 -0.2257
  547MOL0     N72123   3.911   2.956  10.483  0.6647 -0.5814  0.3039
  547MOL0     C72124   2.749   2.736  10.653  0.1311  0.2412 -0.3824
  547MOL0     C72125   2.655   2.737  10.752 -0.1978 -0.2431  0.3305
  547MOL0     C72126   2.328   2.902  11.040  0.2977 -0.7351  0.2498
  547MOL0     C72127   2.319   2.773  11.097  0.3980  0.8798 -0.3786
  547MOL0     C72128   2.240   2.750  11.208  0.0046 -0.6326  0.4985
  547MOL0     C72129   2.141   2.848  11.241  0.0057  0.2021 -0.0932
  547MOL0     O72130   2.045   2.807  11.325 -0.0372  0.0485  0.4148
  547MOL0     C72131   1.964   2.896  11.383  0.4837  0.0346  0.1082
  547MOL0     C72132   1.869   2.836  11.487 -0.3674 -0.1075  0.1523
  547MOL0     C72133   1.958   2.764  11.593 -0.0415  0.6007  0.2087
  547MOL0     C72134   2.035   2.852  11.682  0.0230 -0.7981  0.7973
  547MOL0     C72135   2.096   2.772  11.794 -0.5137 -0.1837  0.0348
  547MOL0     C72136   2.152   2.700  11.866 -0.1648 -0.0732 -0.2386
  547MOL0     C72137   2.148   2.978  11.178 -0.0442  0.4279 -0.4843
  547MOL0     C72138   2.236   3.001  11.079  0.1000 -0.2436  0.3166
  547MOL0     H72139   2.676   3.063  10.860 -0.7955 -0.6658 -0.6680
  547MOL0     H72140   2.869   3.052  10.701 -0.5522  0.8644  1.2738
  547MOL0     H72141   2.996   2.673  10.471 -0.5427  1.0277 -0.0033
  547MOL0     H72142   3.013   2.701  10.651 -1.6062  0.9905  0.4565
  547MOL0     H72143   3.191   2.788  10.414  0.5846 -0.5143  0.0461
  547MOL0     H72144   3.236   2.670  10.529  1.9480  1.0082  1.4668
  547MOL0     H72145   3.206   2.853  10.705  0.3342 -0.3454  0.1688
  547MOL0     H72146   3.175   2.965  10.580  1.6781  0.2440  1.5305
  547MOL0     H72147   3.424   2.805  10.609 -1.3083 -1.7680 -0.3350
  547MOL0     H72148   3.402   2.930  10.490 -1.9721  0.0714  0.4900
  547MOL0     H72149   3.409   2.997  10.787 -2.2283 -0.4652  0.2243
  547MOL0     H72150   3.386   3.112  10.660 -0.9322 -0.3226  2.3300
  547MOL0     H72151   3.630   2.935  10.660 -0.1917 -0.6348 -0.3004
  547MOL0     H72152   3.616   3.071  10.769  0.5841  3.3133 -0.3563
  547MOL0     H72153   3.598   3.087  10.467 -2.0217 -1.1403  1.1563
  547MOL0     H72154   3.583   3.230  10.573  0.0132 -0.5038  1.9298
  547MOL0     H72155   3.799   3.218  10.647 -0.6924 -0.6983  1.8384
  547MOL0     H72156   3.807   3.181  10.462 -0.2713 -1.8937  0.4827
  547MOL0     H72157   3.870   2.992  10.812  0.6040  0.0461 -0.0955
  547MOL0     H72158   4.041   2.832  10.862  1.1053  1.0952 -0.9678
  547MOL0     H72159   4.111   2.732  10.735  0.6849  0.3204  0.0254
  547MOL0     H72160   3.965   2.582  10.723  0.5231  3.1915 -3.5013
  547MOL0     H72161   3.823   2.680  10.786 -0.6978 -2.0059 -0.4754
  547MOL0     H72162   3.889   2.492  10.909 -0.3448  0.7487 -1.2339
  547MOL0     H72163   4.044   2.584  10.951  0.2430  0.9928  1.6232
  547MOL0     H72164   3.785   2.720  10.999 -0.9783  0.6494  3.6918
  547MOL0     H72165   3.930   2.749  11.069 -2.1508  1.7249 -1.2620
  547MOL0     H72166   3.613   2.602  11.016  0.1873  0.3607  0.0263
  547MOL0     H72167   3.406   2.457  11.038 -1.9382 -5.0469  0.2891
  547MOL0     H72168   3.096   2.272  10.932  0.2397 -0.2522 -0.6725
  547MOL0     H72169   2.921   2.110  10.902  2.0242 -1.7646 -1.4774
  547MOL0     H72170   2.775   1.917  10.884 -1.1007 -0.1367 -0.5086
  547MOL0     H72171   2.699   2.032  10.986  2.6029  0.7158  1.6094
  547MOL0     H72172   2.578   1.839  11.107 -0.0064 -1.9588  0.6839
  547MOL0     H72173   2.670   1.723  11.015  0.8795  0.8226  1.1222
  547MOL0     H72174   2.601   1.792  10.809 -1.9599 -0.5384 -0.6822
  547MOL0     H72175   2.500   1.929  10.875  3.7840  1.4476 -2.0703
  547MOL0     H72176   2.432   1.650  10.974 -0.3355  0.5077  0.2586
  547MOL0     H72177   2.370   1.815  10.993 -0.7193  0.5663 -1.8464
  547MOL0     H72178   2.362   1.640  10.756  0.2337  0.2922 -0.0243
  547MOL0     H72179   2.332   1.814  10.735 -0.1886 -1.1660 -2.1643
  547MOL0     H72180   2.153   1.787  10.916 -0.7591  0.7021 -0.0583
  547MOL0     H72181   2.192   1.611  10.919  1.0340 -1.9149 -3.4412
  547MOL0     H72182   2.058   1.755  10.685  1.4721 -2.2787 -3.1064
  547MOL0     H72183   2.115   1.594  10.677  0.1068 -0.3529  1.0123
  547MOL0     H72184   1.912   1.687  10.892 -0.8305  1.7517 -3.1469
  547MOL0     H72185   1.970   1.519  10.868  1.7797  0.5261  0.3036
  547MOL0     H72186   3.012   1.926  11.276 -2.4606 -0.8489 -1.8456
  547MOL0     H72187   3.198   2.090  11.307 -0.7043  1.6444  1.0983
  547MOL0     H72188   3.652   2.156  11.210 -3.2773 -0.3812 -0.0239
  547MOL0     H72189   3.827   2.312  11.242 -1.1463 -0.4454  2.1476
  547MOL0     H72190   2.773   2.655  10.584 -0.5120 -0.5371  0.2804
  547MOL0     H72191   2.594   2.650  10.775 -2.0225  1.7167  3.6938
  547MOL0     H72192   2.388   2.697  11.062  0.0341  0.0113  0.7411
  547MOL0     H72193   2.242   2.658  11.265  0.4472 -0.7716  0.2711
  547MOL0     H72194   1.902   2.939  11.304  1.8817 -1.1980 -1.7462
  547MOL0     H72195   2.022   2.968  11.442 -0.3251 -1.9600  3.6524
  547MOL0     H72196   1.824   2.922  11.536  0.6407  0.8435 -0.5437
  547MOL0     H72197   1.804   2.758  11.446 -0.2999  0.5028 -1.1742
  547MOL0     H72198   2.026   2.699  11.537 -0.9588 -0.0898 -0.1109
  547MOL0     H72199   1.893   2.701  11.654 -1.5386  2.4287  0.5750
  547MOL0     H72200   2.122   2.904  11.640  2.5926 -2.7696  3.2639
  547MOL0     H72201   1.957   2.916  11.724 -0.2348  1.6710 -2.9977
  547MOL0     H72202   2.212   2.639  11.930  2.2304  1.7095 -0.6418
  547MOL0     H72203   2.100   3.060  11.231  0.5425 -0.2027  1.0873
  547MOL0     H72204   2.240   3.096  11.026  1.6658 -0.2890  0.2990
  548MOL0     O72205   9.390   2.317   0.539  0.0657  0.3062  0.0069
  548MOL0     C72206   9.347   2.203   0.550  0.2618  0.4078  0.0506
  548MOL0     O72207   9.400   2.093   0.488  0.1545 -0.3593  0.0009
  548MOL0     C72208   9.515   2.092   0.414 -0.6506 -0.7149 -0.2575
  548MOL0     C72209   9.602   1.986   0.433  0.0826 -0.1043  0.8454
  548MOL0     C72210   9.718   1.976   0.358 -0.2287  0.8854 -0.0719
  548MOL0     C72211   9.757   2.080   0.276 -0.4308  0.1045  0.2941
  548MOL0     O72212   9.879   2.107   0.213 -0.0386 -0.0646  0.0161
  548MOL0     C72213   9.975   1.997   0.186  0.4390  0.6150  0.0662
  548MOL0     C72214  10.076   2.038   0.081 -0.1710  0.4346 -0.1944
  548MOL0     C72215  10.139   1.916   0.015  0.0614  0.3138 -0.2565
  548MOL0     C72216  10.227   1.957  -0.100 -0.0860  0.5915  0.5638
  548MOL0     C72217  10.261   1.831  -0.190  0.0858 -0.8981  0.3724
  548MOL0     C72218  10.346   1.857  -0.319  0.5862  0.8653  0.3504
  548MOL0     C72219  10.500   1.848  -0.292  0.0564 -0.4725 -0.5257
  548MOL0     C72220  10.554   1.708  -0.267 -0.3615 -0.6048 -0.8816
  548MOL0     N72221  10.695   1.704  -0.216  0.5524  0.2636 -0.2823
  548MOL0     C72222  10.800   1.768  -0.273 -0.4149 -0.8445 -0.1805
  548MOL0     C72223  10.902   1.759  -0.181 -0.3668 -0.6949 -0.6360
  548MOL0     C72224  11.044   1.791  -0.207 -0.2509  0.4771 -0.1274
  548MOL0     C72225  11.122   1.872  -0.105  0.8775 -0.8524 -0.5697
  548MOL0     C72226  11.147   1.803   0.035  0.8124  1.0666  0.9599
  548MOL0     C72227  11.238   1.681   0.028  0.5350 -0.8814  0.1904
  548MOL0     O72228  11.358   1.725  -0.026 -0.0122 -0.3563 -0.2147
  548MOL0     C72229  11.437   1.626  -0.076  0.0777 -0.4519 -0.2719
  548MOL0     C72230  11.427   1.494  -0.040 -0.7140  0.8313  0.2224
  548MOL0     C72231  11.537   1.402  -0.063  0.9217 -0.1821  0.8221
  548MOL0     C72232  11.651   1.440  -0.130 -0.1995  0.9107 -0.7762
  548MOL0     C72233  11.763   1.343  -0.147  0.7158 -0.7568  0.6019
  548MOL0     O72234  11.728   1.213  -0.113  1.2545  0.0552  0.4964
  548MOL0     C72235  11.838   1.136  -0.105  0.7631 -0.1121  0.3100
  548MOL0     C72236  11.846   1.019  -0.192 -0.4023 -0.1949 -0.1612
  548MOL0     C72237  11.963   0.940  -0.189 -0.1982  0.5067  0.2813
  548MOL0     C72238  12.063   0.961  -0.088 -0.3271  0.1680  0.9213
  548MOL0     O72239  12.178   0.896  -0.070 -0.5680  0.0099 -0.2546
  548MOL0     C72240  12.184   0.753  -0.069  0.7248  0.1220 -0.1193
  548MOL0     C72241  12.217   0.696   0.069 -0.5434  0.8204 -0.2725
  548MOL0     C72242  12.375   0.699   0.118 -0.9067 -0.1507 -0.2436
  548MOL0     C72243  12.459   0.578   0.046 -0.0891 -0.0845  0.1899
  548MOL0     C72244  12.604   0.570   0.101 -0.0106 -0.8191 -0.9376
  548MOL0     C72245  12.681   0.470   0.013  0.7510  0.8290 -0.2900
  548MOL0     C72246  12.793   0.401   0.094 -0.3743 -0.7343  0.0996
  548MOL0     C72247  12.910   0.507   0.136  0.6981 -0.4732  0.2927
  548MOL0    Cl72248  12.972   0.608   0.000  0.1013 -0.0434 -0.4736
  548MOL0     C72249  12.039   1.061   0.005  0.5195 -0.0657  0.4314
  548MOL0     C72250  11.929   1.144   0.001 -0.1481  0.5914  0.0421
  548MOL0     O72251  11.880   1.382  -0.168 -0.1160 -0.3222 -0.4835
  548MOL0     C72252  11.662   1.575  -0.173  0.6113  0.0611  0.2399
  548MOL0     C72253  11.551   1.671  -0.146 -0.1973 -0.0287 -0.7366
  548MOL0     N72254  10.860   1.672  -0.088  0.1871  0.1581 -0.5231
  548MOL0     N72255  10.731   1.648  -0.100 -0.5054  0.5294 -0.3153
  548MOL0     C72256   9.673   2.196   0.258 -0.2287 -0.5511 -0.5038
  548MOL0     C72257   9.550   2.194   0.319  0.7370 -0.2842  0.5655
  548MOL0     C72258   9.233   2.179   0.633 -0.2769  0.9818  0.5702
  548MOL0     C72259   9.151   2.278   0.667  0.0369 -0.1712 -0.0453
  548MOL0     C72260   9.024   2.267   0.727 -0.7896 -1.1115  0.1406
  548MOL0     C72261   8.983   2.151   0.780  0.3641 -0.5478 -0.3237
  548MOL0     O72262   8.871   2.138   0.861 -1.3463  0.6666  0.6994
  548MOL0     C72263   8.774   2.244   0.857 -0.3166  0.6746 -0.1541
  548MOL0     C72264   8.636   2.186   0.870 -0.6318  0.5381  1.0077
  548MOL0     C72265   8.622   2.086   0.985  0.2831  0.0788  0.1745
  548MOL0     C72266   8.472   2.057   0.991 -0.2005 -0.2031 -0.6829
  548MOL0     C72267   8.399   2.177   1.029 -0.0162  0.4274 -0.2340
  548MOL0     C72268   8.364   2.293   1.053 -0.5011 -0.7561  0.3677
  548MOL0     C72269   9.063   2.035   0.752  0.0295  0.5283  0.0566
  548MOL0     C72270   9.190   2.049   0.690 -0.6991 -0.3220  0.1411
  548MOL0     H72271   9.569   1.906   0.498 -0.5476 -1.3571 -0.9419
  548MOL0     H72272   9.783   1.894   0.385 -1.9700 -0.2966  0.7005
  548MOL0     H72273   9.925   1.908   0.147  0.3804  1.0828 -0.9626
  548MOL0     H72274  10.017   1.964   0.281  1.0605 -1.8266 -0.9604
  548MOL0     H72275  10.155   2.103   0.119 -0.7096  0.7733  0.3595
  548MOL0     H72276  10.015   2.096   0.010 -1.3073 -0.4410  0.0382
  548MOL0     H72277  10.054   1.859  -0.025  1.2133 -0.4643 -1.6913
  548MOL0     H72278  10.183   1.844   0.085 -2.8330 -1.2694  0.1078
  548MOL0     H72279  10.177   2.032  -0.163  2.0303 -0.2827 -2.3617
  548MOL0     H72280  10.324   2.002  -0.078  0.3100 -0.2028  0.4380
  548MOL0     H72281  10.170   1.790  -0.236  0.7131 -0.7298 -1.0681
  548MOL0     H72282  10.314   1.756  -0.131  0.8996  0.3820  1.3151
  548MOL0     H72283  10.315   1.955  -0.357 -1.3756 -0.4257 -1.5940
  548MOL0     H72284  10.334   1.788  -0.403  1.4956  1.6046 -0.4115
  548MOL0     H72285  10.562   1.885  -0.375 -0.8207 -2.3276 -2.0744
  548MOL0     H72286  10.523   1.900  -0.198  0.3216 -1.7634  0.1402
  548MOL0     H72287  10.561   1.658  -0.365 -1.2734  1.5546 -2.1278
  548MOL0     H72288  10.478   1.653  -0.210 -0.7569 -2.7556 -3.2646
  548MOL0     H72289  10.798   1.804  -0.376 -1.6790 -1.3002 -0.3357
  548MOL0     H72290  11.063   1.849  -0.298  2.1315  1.2752  0.8022
  548MOL0     H72291  11.094   1.694  -0.216 -1.4233 -0.4668  2.4405
  548MOL0     H72292  11.065   1.965  -0.091 -0.0874 -1.3614 -1.0383
  548MOL0     H72293  11.214   1.923  -0.136 -1.0546  3.8575  0.5909
  548MOL0     H72294  11.180   1.873   0.112  2.6095  1.6902 -0.2969
  548MOL0     H72295  11.045   1.771   0.057  0.0571  0.8805 -2.3350
  548MOL0     H72296  11.198   1.609  -0.043  0.9603 -0.0597 -0.9246
  548MOL0     H72297  11.250   1.629   0.124 -1.0622 -4.2593 -1.2823
  548MOL0     H72298  11.346   1.450   0.018 -0.1325 -0.6910 -0.0871
  548MOL0     H72299  11.524   1.302  -0.024  3.6350 -0.7569  0.4451
  548MOL0     H72300  11.764   0.989  -0.257 -2.2475 -1.1665  2.4586
  548MOL0     H72301  11.987   0.864  -0.262  2.1549 -0.4509  1.9423
  548MOL0     H72302  12.249   0.718  -0.150 -0.4103  1.7178 -1.7991
  548MOL0     H72303  12.089   0.704  -0.092  2.0150 -2.9736  0.5969
  548MOL0     H72304  12.180   0.593   0.066  2.3357 -0.4150  1.8986
  548MOL0     H72305  12.162   0.759   0.140  3.4486  3.6902  0.6526
  548MOL0     H72306  12.386   0.671   0.223  3.2161 -1.0857 -0.7228
  548MOL0     H72307  12.441   0.786   0.117 -0.0014 -0.8190 -1.2216
  548MOL0     H72308  12.400   0.487   0.060 -2.3175  1.3172  0.3302
  548MOL0     H72309  12.459   0.607  -0.059 -2.2031  2.1418  0.7178
  548MOL0     H72310  12.597   0.535   0.204  2.2201 -0.6395 -0.6562
  548MOL0     H72311  12.659   0.665   0.095 -0.0799 -0.7778 -0.9170
  548MOL0     H72312  12.728   0.526  -0.068  2.2479  1.6941  1.1067
  548MOL0     H72313  12.611   0.401  -0.035 -0.0922  3.3379 -2.8827
  548MOL0     H72314  12.758   0.350   0.185  0.5083  0.1087  0.9369
  548MOL0     H72315  12.838   0.322   0.034  0.9358  0.0506  0.0126
  548MOL0     H72316  12.998   0.469   0.189  0.3470  0.5834  1.6964
  548MOL0     H72317  12.870   0.580   0.207 -0.7022 -0.4929 -0.4452
  548MOL0     H72318  12.115   1.063   0.082  0.0647  2.0325  0.8648
  548MOL0     H72319  11.907   1.206   0.088  0.8237  0.3125  0.4965
  548MOL0     H72320  11.736   1.614  -0.242  0.8120  3.0079  1.9274
  548MOL0     H72321  11.546   1.776  -0.171  1.2857  0.1481 -0.3969
  548MOL0     H72322   9.695   2.276   0.187 -2.8061  1.1417  0.4333
  548MOL0     H72323   9.484   2.276   0.293 -0.1831 -0.4366  2.2541
  548MOL0     H72324   9.173   2.373   0.620 -0.1956 -0.1593 -0.1293
  548MOL0     H72325   8.974   2.361   0.748 -0.8770 -0.7619 -1.4923
  548MOL0     H72326   8.767   2.307   0.768 -1.1231 -1.0673 -1.3819
  548MOL0     H72327   8.800   2.302   0.946  0.4375 -2.7485  2.0452
  548MOL0     H72328   8.579   2.279   0.865 -2.9531 -0.8143 -3.8319
  548MOL0     H72329   8.618   2.133   0.776 -0.9651  1.3957  0.5691
  548MOL0     H72330   8.659   2.127   1.080  0.5581  1.9543 -0.6922
  548MOL0     H72331   8.687   1.999   0.972  0.3182 -0.5994  3.7897
  548MOL0     H72332   8.446   2.023   0.890 -2.6267  1.7817 -0.8077
  548MOL0     H72333   8.449   1.980   1.065 -0.0448 -0.8690 -1.3097
  548MOL0     H72334   8.321   2.388   1.075  0.8425  0.7135 -2.8562
  548MOL0     H72335   9.025   1.942   0.792 -1.7460  2.1334  2.3937
  548MOL0     H72336   9.246   1.965   0.653  2.2290  1.3679  0.4316
  549MOL0     O72337   4.224   5.153   3.874 -0.5754 -0.5069  0.5098
  549MOL0     C72338   4.317   5.128   3.947 -0.6925  0.4369 -0.5327
  549MOL0     O72339   4.327   5.162   4.075  0.0412 -0.1097 -0.1288
  549MOL0     C72340   4.231   5.237   4.132  0.2861  0.2325 -0.2570
  549MOL0     C72341   4.255   5.373   4.139  0.3325  0.1531  0.0659
  549MOL0     C72342   4.170   5.454   4.206 -0.4453  0.4615 -1.1494
  549MOL0     C72343   4.065   5.407   4.286  0.4175  0.0944  0.4757
  549MOL0     O72344   3.963   5.483   4.356 -0.9810  0.0129 -0.8431
  549MOL0     C72345   3.980   5.627   4.382  0.5054  0.0994  0.2899
  549MOL0     C72346   3.940   5.702   4.246 -0.3489  0.0928  0.8621
  549MOL0     C72347   3.785   5.712   4.214  0.3670 -0.1519 -0.8510
  549MOL0     C72348   3.720   5.819   4.305 -0.0205 -0.6882  0.4034
  549MOL0     C72349   3.591   5.869   4.248 -0.0325 -0.3576 -0.1192
  549MOL0     C72350   3.480   5.777   4.263  0.0436 -1.0528 -0.4921
  549MOL0     C72351   3.369   5.818   4.165 -1.0504  0.2929 -0.0447
  549MOL0     C72352   3.394   5.792   4.019 -0.9043  0.1516 -0.5753
  549MOL0     N72353   3.412   5.641   4.003 -0.0234  0.4293 -0.3582
  549MOL0     C72354   3.506   5.568   3.920 -0.8060  0.8372 -0.4381
  549MOL0     C72355   3.473   5.438   3.928 -0.0492  0.0974 -0.1364
  549MOL0     C72356   3.546   5.324   3.849  0.2639 -0.7611 -0.3343
  549MOL0     C72357   3.652   5.250   3.939 -0.7728 -0.4240 -0.1759
  549MOL0     C72358   3.767   5.186   3.860 -0.1636  0.0828 -0.4298
  549MOL0     C72359   3.864   5.107   3.949 -0.1233  0.0231 -0.2095
  549MOL0     O72360   3.812   4.968   3.965  0.0674 -0.8227  0.0758
  549MOL0     C72361   3.832   4.881   3.856 -0.2287 -0.8610  0.1064
  549MOL0     C72362   3.892   4.909   3.734  0.4113  0.1297  0.6287
  549MOL0     C72363   3.880   4.815   3.630  0.0145 -0.3901  0.3009
  549MOL0     C72364   3.834   4.688   3.655 -0.5117  1.3187 -0.5621
  549MOL0     C72365   3.854   4.587   3.542 -0.0448  0.2239  0.1242
  549MOL0     O72366   3.798   4.465   3.570  0.2172  0.4159  1.0169
  549MOL0     C72367   3.788   4.385   3.456 -0.0139  0.0881  0.1962
  549MOL0     C72368   3.827   4.251   3.453  0.4966 -0.5299  0.6869
  549MOL0     C72369   3.800   4.175   3.339 -0.2153  0.3907 -0.5247
  549MOL0     C72370   3.747   4.225   3.221  0.1149  0.1633  0.3517
  549MOL0     O72371   3.716   4.141   3.117 -0.6425 -0.2559 -0.8370
  549MOL0     C72372   3.745   3.992   3.132 -0.2424 -0.4080 -0.3584
  549MOL0     C72373   3.651   3.918   3.219  0.2419  0.2636 -1.2730
  549MOL0     C72374   3.510   3.936   3.181 -0.3075 -0.1141  0.0071
  549MOL0     C72375   3.412   3.851   3.267 -0.1289  0.4798 -0.3940
  549MOL0     C72376   3.427   3.857   3.417 -0.2667  0.5494 -0.5398
  549MOL0     C72377   3.408   3.989   3.475  0.1605 -0.4958 -0.1434
  549MOL0     C72378   3.440   3.995   3.627  0.4601  0.3456 -0.0520
  549MOL0     C72379   3.486   4.135   3.673  0.5384 -0.2468 -0.2176
  549MOL0    Cl72380   3.553   4.098   3.835 -0.2670  0.1576  0.3190
  549MOL0     C72381   3.699   4.357   3.226  0.1414  0.2299  0.0745
  549MOL0     C72382   3.716   4.435   3.343  0.5085  0.2995  1.0516
  549MOL0     O72383   3.908   4.621   3.436  0.4272 -0.3102 -0.6123
  549MOL0     C72384   3.790   4.654   3.780 -0.3587 -0.7453 -0.7391
  549MOL0     C72385   3.797   4.749   3.879  1.3798 -0.1025 -1.1288
  549MOL0     N72386   3.368   5.421   4.014 -1.0870  1.0341  0.2056
  549MOL0     N72387   3.335   5.541   4.062  0.6406  0.6298  0.0503
  549MOL0     C72388   4.034   5.265   4.275 -0.1019  0.4141 -0.2898
  549MOL0     C72389   4.127   5.182   4.204 -0.4031 -0.4703 -0.1705
  549MOL0     C72390   4.433   5.035   3.909  0.5389  0.6026 -0.0836
  549MOL0     C72391   4.542   4.999   3.990 -0.2441 -0.1013  0.4245
  549MOL0     C72392   4.658   4.930   3.938 -0.0893  0.5459  0.1644
  549MOL0     C72393   4.647   4.864   3.812  0.4119 -0.6611  0.1905
  549MOL0     O72394   4.742   4.793   3.749 -0.7587 -0.5382  0.1758
  549MOL0     C72395   4.862   4.753   3.829 -0.4152  0.4636 -0.0546
  549MOL0     C72396   4.841   4.613   3.876  0.1235  0.4472 -0.2933
  549MOL0     C72397   4.838   4.499   3.767  0.0578 -0.3872 -1.0773
  549MOL0     C72398   4.724   4.396   3.793 -0.0873  1.5430  0.6791
  549MOL0     C72399   4.752   4.318   3.912 -0.1760  0.1414 -0.4587
  549MOL0     C72400   4.769   4.250   4.010  0.1120  0.9114 -0.1842
  549MOL0     C72401   4.525   4.884   3.735 -0.2960 -0.5734 -0.6949
  549MOL0     C72402   4.431   4.973   3.782  0.0233 -0.5799  0.2480
  549MOL0     H72403   4.345   5.415   4.097  1.8753 -0.6038  2.4209
  549MOL0     H72404   4.200   5.559   4.208  0.7732  0.1929 -3.0342
  549MOL0     H72405   4.083   5.649   4.414  0.7416 -1.5102  0.7586
  549MOL0     H72406   3.918   5.650   4.468  0.3265  1.4646 -0.1877
  549MOL0     H72407   4.001   5.678   4.159  1.0592  1.4837  1.4019
  549MOL0     H72408   3.975   5.804   4.266 -1.2204  0.5162  0.3058
  549MOL0     H72409   3.747   5.620   4.258 -2.6619  1.8031  1.0286
  549MOL0     H72410   3.771   5.728   4.107 -0.1456 -0.0964 -0.7786
  549MOL0     H72411   3.712   5.777   4.406  1.5545 -2.7776 -0.2548
  549MOL0     H72412   3.792   5.901   4.309 -0.5411 -0.2491  3.6136
  549MOL0     H72413   3.604   5.913   4.148 -2.7063  3.5104  0.9759
  549MOL0     H72414   3.574   5.958   4.309 -2.0623 -1.6504  1.3058
  549MOL0     H72415   3.451   5.788   4.368  1.9972 -0.4482  0.0359
  549MOL0     H72416   3.519   5.678   4.238  1.8441 -0.2531 -1.0175
  549MOL0     H72417   3.273   5.768   4.185 -0.5928 -0.0585  1.3791
  549MOL0     H72418   3.344   5.922   4.185 -1.9369  0.0700  0.0440
  549MOL0     H72419   3.483   5.841   3.978 -1.1999  2.0729  0.8850
  549MOL0     H72420   3.299   5.812   3.967 -0.6189 -0.1500 -1.2140
  549MOL0     H72421   3.594   5.602   3.868  3.0273 -4.4557  1.7033
  549MOL0     H72422   3.604   5.362   3.764  2.0746  2.8882  2.2607
  549MOL0     H72423   3.462   5.260   3.819 -2.3951  2.4311 -0.2099
  549MOL0     H72424   3.605   5.170   3.997 -1.2503 -1.3538 -1.7820
  549MOL0     H72425   3.699   5.310   4.018  1.2858 -1.7993 -0.2938
  549MOL0     H72426   3.731   5.122   3.779 -2.1330  2.2084 -1.3560
  549MOL0     H72427   3.823   5.269   3.816 -1.1333  0.0551 -1.8137
  549MOL0     H72428   3.871   5.169   4.039 -2.4193  0.8891 -0.5548
  549MOL0     H72429   3.969   5.109   3.920  0.5842  3.2921  1.9617
  549MOL0     H72430   3.953   4.998   3.718  2.4592 -0.9285  1.9965
  549MOL0     H72431   3.916   4.848   3.533 -1.6567  1.8720  0.3534
  549MOL0     H72432   3.875   4.219   3.546  1.6612  4.6235  2.2200
  549MOL0     H72433   3.831   4.072   3.353  0.2878  0.8341  2.2216
  549MOL0     H72434   3.845   3.979   3.175 -0.9933  0.9184  1.9645
  549MOL0     H72435   3.746   3.951   3.031  1.7006 -0.7142 -0.2564
  549MOL0     H72436   3.661   3.944   3.325  4.3142 -3.8238 -0.3259
  549MOL0     H72437   3.690   3.816   3.230  0.4368  0.4892  0.4495
  549MOL0     H72438   3.498   3.898   3.079 -3.0029 -3.3699  1.3379
  549MOL0     H72439   3.481   4.041   3.176  2.9038  0.9448  1.1798
  549MOL0     H72440   3.318   3.898   3.237 -0.7949 -0.6431 -0.1301
  549MOL0     H72441   3.421   3.744   3.246  1.9296  1.0604 -3.1411
  549MOL0     H72442   3.525   3.817   3.444 -0.2332  0.0434 -1.3712
  549MOL0     H72443   3.354   3.789   3.461  1.1950  0.4000  1.8158
  549MOL0     H72444   3.308   4.030   3.462 -0.7418 -2.5692 -0.0991
  549MOL0     H72445   3.478   4.053   3.421  0.6297 -0.0325  0.9702
  549MOL0     H72446   3.360   3.975   3.698  0.9408  1.0146  0.6931
  549MOL0     H72447   3.534   3.941   3.641  1.1180  1.9878  2.3795
  549MOL0     H72448   3.398   4.199   3.677  0.1189 -0.7004 -1.6432
  549MOL0     H72449   3.563   4.166   3.602  0.7325 -1.1609 -0.4150
  549MOL0     H72450   3.646   4.395   3.139  0.3168 -1.9875 -1.0737
  549MOL0     H72451   3.668   4.532   3.330 -0.9518 -0.7181 -1.9880
  549MOL0     H72452   3.743   4.565   3.821 -4.3860  0.6810 -1.7923
  549MOL0     H72453   3.765   4.729   3.980  0.1370 -2.3292 -1.8968
  549MOL0     H72454   3.941   5.219   4.305  0.0744 -0.2962 -0.8080
  549MOL0     H72455   4.112   5.074   4.206 -1.3764 -0.3419  1.3342
  549MOL0     H72456   4.533   5.038   4.091 -1.0610 -0.9147  0.6794
  549MOL0     H72457   4.748   4.913   3.996  0.8420  0.5477 -1.2429
  549MOL0     H72458   4.899   4.821   3.906  1.0461  1.4514 -1.5563
  549MOL0     H72459   4.946   4.754   3.758 -2.0937  0.9983 -2.1201
  549MOL0     H72460   4.924   4.585   3.942  1.5110  2.3126 -1.1421
  549MOL0     H72461   4.745   4.613   3.928  0.1867 -0.2370 -0.1730
  549MOL0     H72462   4.935   4.449   3.768  0.9448  1.0577  2.3762
  549MOL0     H72463   4.828   4.540   3.666  2.7366 -0.0480 -1.2811
  549MOL0     H72464   4.620   4.429   3.802 -1.3331 -2.0643  0.8809
  549MOL0     H72465   4.723   4.338   3.701  0.5016  2.4786  0.0583
  549MOL0     H72466   4.764   4.197   4.103 -0.6696  2.1620  0.5066
  549MOL0     H72467   4.511   4.836   3.639 -0.7267 -1.3280 -0.2629
  549MOL0     H72468   4.355   5.009   3.713 -0.8234 -2.3939  0.1996
  550MOL0     O72469   5.259   7.549   0.627 -0.7593 -0.4599 -0.6672
  550MOL0     C72470   5.186   7.566   0.530 -0.1814  0.7294 -0.2086
  550MOL0     O72471   5.211   7.534   0.398 -0.6035 -0.3749  0.4226
  550MOL0     C72472   5.303   7.450   0.350  0.2283 -0.1183 -0.3256
  550MOL0     C72473   5.435   7.432   0.403 -0.3055  0.9592 -0.3073
  550MOL0     C72474   5.526   7.353   0.327  0.2451  0.3260 -0.7271
  550MOL0     C72475   5.496   7.298   0.201  0.4982  0.3571 -0.6408
  550MOL0     O72476   5.582   7.218   0.129  0.2105  0.0497  0.2842
  550MOL0     C72477   5.620   7.276   0.001 -0.2956 -0.7991  0.7684
  550MOL0     C72478   5.757   7.223  -0.033 -0.0589  0.8046 -0.1117
  550MOL0     C72479   5.806   7.295  -0.156  0.0126  0.2998 -0.4295
  550MOL0     C72480   5.924   7.240  -0.237  0.1934  0.0846  0.5848
  550MOL0     C72481   5.975   7.324  -0.355 -0.0034  0.6800 -0.2680
  550MOL0     C72482   5.875   7.398  -0.449 -0.3476 -0.2917  0.1172
  550MOL0     C72483   5.956   7.491  -0.542 -0.2377  0.9069  0.1964
  550MOL0     C72484   5.876   7.610  -0.603  0.1321  0.5177  0.0629
  550MOL0     N72485   5.949   7.680  -0.703 -0.4557 -0.4316  0.1108
  550MOL0     C72486   5.979   7.636  -0.829  0.3437 -0.5055  0.7990
  550MOL0     C72487   6.016   7.751  -0.894 -0.6334  0.5496  0.0075
  550MOL0     C72488   6.049   7.762  -1.035  1.2626 -0.3191 -0.4725
  550MOL0     C72489   6.195   7.791  -1.050 -0.5602 -0.3325  0.0276
  550MOL0     C72490   6.281   7.662  -1.057  0.0862 -0.0783  0.2667
  550MOL0     C72491   6.429   7.679  -1.085  0.5935  0.4484 -0.0077
  550MOL0     O72492   6.444   7.763  -1.200 -0.1734  0.2977  0.7764
  550MOL0     C72493   6.555   7.854  -1.207 -0.3353 -0.2711  0.4852
  550MOL0     C72494   6.570   7.941  -1.302  0.4085  0.7292  0.2954
  550MOL0     C72495   6.689   8.023  -1.323  0.7454 -0.7329 -0.8937
  550MOL0     C72496   6.794   8.004  -1.235 -0.7180 -0.3057 -0.5392
  550MOL0     C72497   6.912   8.099  -1.248 -0.9493 -0.0980  0.5039
  550MOL0     O72498   6.956   8.136  -1.375  0.1227  0.0306 -0.6252
  550MOL0     C72499   7.066   8.204  -1.382 -0.2061 -0.0085  0.6993
  550MOL0     C72500   7.058   8.341  -1.379  0.0111  0.3997 -0.6394
  550MOL0     C72501   7.174   8.419  -1.400 -0.5470  0.3494  0.1392
  550MOL0     C72502   7.295   8.357  -1.405 -0.5248 -0.9544  0.3709
  550MOL0     O72503   7.402   8.446  -1.403 -0.1775  0.6348  0.1914
  550MOL0     C72504   7.432   8.530  -1.278  0.8214 -0.6661 -0.1179
  550MOL0     C72505   7.549   8.622  -1.295 -0.2956  0.9851  1.0654
  550MOL0     C72506   7.679   8.539  -1.304 -0.6378  0.1153 -0.3717
  550MOL0     C72507   7.801   8.623  -1.338 -0.9269  0.6731 -0.0539
  550MOL0     C72508   7.924   8.526  -1.362 -0.0920  0.0389  0.1085
  550MOL0     C72509   8.053   8.599  -1.387  0.4072  0.6534 -0.6944
  550MOL0     C72510   8.115   8.662  -1.252  0.4014  0.5514  0.0302
  550MOL0     C72511   8.166   8.564  -1.145  0.3324 -0.8364  0.3616
  550MOL0    Cl72512   8.319   8.489  -1.193 -0.3713  0.3410 -0.1008
  550MOL0     C72513   7.301   8.218  -1.391 -0.8880 -0.9574 -0.2757
  550MOL0     C72514   7.186   8.140  -1.397  0.3438  0.3522 -0.2358
  550MOL0     O72515   6.981   8.108  -1.153 -0.5562 -0.0582 -0.4530
  550MOL0     C72516   6.773   7.928  -1.122  0.0059 -0.8466 -0.4218
  550MOL0     C72517   6.662   7.847  -1.116  0.8409  0.2672 -0.1907
  550MOL0     N72518   5.988   7.856  -0.808  0.4519  0.6193 -0.0810
  550MOL0     N72519   5.954   7.818  -0.696 -0.3010  0.1006  0.0215
  550MOL0     C72520   5.364   7.320   0.162  0.0190  0.6196  0.0404
  550MOL0     C72521   5.276   7.395   0.227 -0.4920 -0.3426  0.6281
  550MOL0     C72522   5.062   7.638   0.552  0.2306  0.3014  0.2344
  550MOL0     C72523   4.961   7.634   0.441 -0.7828 -0.4232  0.3701
  550MOL0     C72524   4.838   7.703   0.457  0.1606  0.6446  0.0518
  550MOL0     C72525   4.821   7.794   0.561 -0.0982 -0.4820 -0.3393
  550MOL0     O72526   4.717   7.863   0.552  0.0949 -0.3937  0.2953
  550MOL0     C72527   4.680   7.959   0.650 -1.1953  0.3999 -0.0675
  550MOL0     C72528   4.577   7.901   0.750 -0.4634 -0.5823 -0.5722
  550MOL0     C72529   4.440   7.859   0.694  0.0874  0.1207  0.5557
  550MOL0     C72530   4.357   7.773   0.787 -0.4235 -0.4169  0.8150
  550MOL0     C72531   4.298   7.856   0.886 -0.2172 -0.0741  0.4074
  550MOL0     C72532   4.256   7.918   0.983 -0.8346 -0.3318  0.6871
  550MOL0     C72533   4.916   7.791   0.662  0.0238 -0.2620 -0.3741
  550MOL0     C72534   5.037   7.714   0.665 -0.2271  0.0158 -0.2215
  550MOL0     H72535   5.456   7.485   0.495 -1.0555  0.7042  0.0236
  550MOL0     H72536   5.632   7.344   0.348  0.2830 -1.6087 -1.5204
  550MOL0     H72537   5.627   7.385   0.004 -4.0523 -0.4286  1.6687
  550MOL0     H72538   5.546   7.255  -0.076 -1.8086  2.8207  1.0472
  550MOL0     H72539   5.755   7.117  -0.060 -2.7446  0.6554  0.4031
  550MOL0     H72540   5.828   7.239   0.048  0.4571  2.4471 -0.8573
  550MOL0     H72541   5.828   7.400  -0.136 -0.4604  0.4153 -0.5048
  550MOL0     H72542   5.726   7.286  -0.231 -0.1472 -0.5863 -0.1664
  550MOL0     H72543   6.006   7.215  -0.170  2.2481  2.8789 -0.6638
  550MOL0     H72544   5.896   7.145  -0.283 -0.5620 -1.3994  3.8291
  550MOL0     H72545   6.034   7.253  -0.413 -0.3557  1.2854 -1.4220
  550MOL0     H72546   6.041   7.397  -0.308 -0.1120  0.4860  0.1921
  550MOL0     H72547   5.809   7.451  -0.379 -0.4621 -2.1486  1.5201
  550MOL0     H72548   5.806   7.333  -0.504 -0.5685 -0.8082  0.9762
  550MOL0     H72549   6.037   7.532  -0.480 -0.2719 -0.2391  1.0283
  550MOL0     H72550   5.994   7.428  -0.624 -1.7179  0.5695 -0.2534
  550MOL0     H72551   5.826   7.669  -0.524  1.4485 -0.4902  1.7243
  550MOL0     H72552   5.797   7.569  -0.666 -1.1852 -0.2011  2.0543
  550MOL0     H72553   5.970   7.536  -0.870 -0.1300  0.1723 -0.8298
  550MOL0     H72554   5.992   7.848  -1.070 -1.8081 -1.8094  0.4846
  550MOL0     H72555   6.008   7.677  -1.091  0.5606  0.1262 -0.6395
  550MOL0     H72556   6.219   7.862  -0.970  0.0856 -3.9208  3.2659
  550MOL0     H72557   6.192   7.846  -1.145 -5.6589 -0.3945 -0.1187
  550MOL0     H72558   6.267   7.603  -0.966  2.3958 -1.8438 -0.4187
  550MOL0     H72559   6.240   7.594  -1.133  3.2921 -0.6236 -1.1509
  550MOL0     H72560   6.480   7.583  -1.102 -1.7865 -1.0774  0.9301
  550MOL0     H72561   6.470   7.710  -0.988  0.5850  1.1933 -0.2366
  550MOL0     H72562   6.490   7.933  -1.375  0.5730 -0.8046  0.2672
  550MOL0     H72563   6.700   8.095  -1.403 -0.5151 -0.5817 -0.9617
  550MOL0     H72564   6.959   8.383  -1.363 -0.0689  0.3560 -1.0061
  550MOL0     H72565   7.164   8.527  -1.408  0.3059  0.4441  0.2364
  550MOL0     H72566   7.431   8.469  -1.187  1.8399 -1.7586 -0.8053
  550MOL0     H72567   7.352   8.604  -1.280 -0.6273 -2.1565 -0.0180
  550MOL0     H72568   7.561   8.696  -1.216 -0.4651 -0.6857  2.7222
  550MOL0     H72569   7.538   8.676  -1.389 -1.6845 -1.7276 -0.4664
  550MOL0     H72570   7.680   8.453  -1.371 -2.8367  0.6498 -1.1630
  550MOL0     H72571   7.691   8.503  -1.201 -1.7389  0.7115 -0.0175
  550MOL0     H72572   7.765   8.663  -1.433  0.0090 -1.1074 -1.2244
  550MOL0     H72573   7.818   8.697  -1.260 -3.0570 -0.9071  2.0380
  550MOL0     H72574   7.900   8.459  -1.444  0.2822 -0.1978  0.1883
  550MOL0     H72575   7.934   8.460  -1.275 -1.9277 -3.0095 -1.8326
  550MOL0     H72576   8.017   8.682  -1.449 -0.9335 -0.6123 -1.6489
  550MOL0     H72577   8.115   8.528  -1.442  0.9035 -3.1923  4.1469
  550MOL0     H72578   8.203   8.725  -1.269  0.8182  0.1899  0.7910
  550MOL0     H72579   8.030   8.720  -1.213 -2.5264 -3.4149  0.1700
  550MOL0     H72580   8.094   8.484  -1.123  0.0278 -0.3774  1.0629
  550MOL0     H72581   8.188   8.614  -1.050  2.1867  3.2346 -1.9334
  550MOL0     H72582   7.403   8.180  -1.391 -1.3926 -2.3826  1.0963
  550MOL0     H72583   7.204   8.033  -1.393  1.4415  0.4953 -0.8130
  550MOL0     H72584   6.846   7.934  -1.042  1.3494 -0.5306 -1.6286
  550MOL0     H72585   6.659   7.770  -1.039 -1.4759  1.6481  1.2353
  550MOL0     H72586   5.332   7.284   0.065 -0.3830  0.7810  0.1094
  550MOL0     H72587   5.178   7.410   0.184  0.4884  1.4167 -1.1373
  550MOL0     H72588   4.973   7.580   0.348 -1.0962 -0.9608  0.6347
  550MOL0     H72589   4.755   7.693   0.388 -1.6146 -0.0466  2.1997
  550MOL0     H72590   4.650   8.049   0.596  0.5819  2.7220  2.5585
  550MOL0     H72591   4.762   7.990   0.715  0.4470 -0.5239 -1.6140
  550MOL0     H72592   4.628   7.814   0.792 -3.2822 -0.8829  2.7497
  550MOL0     H72593   4.566   7.980   0.825 -0.3249 -0.6157 -0.5165
  550MOL0     H72594   4.471   7.795   0.610  1.8013  0.8530  0.5908
  550MOL0     H72595   4.384   7.944   0.654 -2.3777 -0.7647  1.8649
  550MOL0     H72596   4.279   7.713   0.738  1.2460 -1.8313 -0.2502
  550MOL0     H72597   4.424   7.703   0.838  2.7580  1.3802 -0.5422
  550MOL0     H72598   4.234   7.985   1.062  2.8591  1.2134  0.6169
  550MOL0     H72599   4.894   7.846   0.753  1.6279 -0.7573  0.3497
  550MOL0     H72600   5.107   7.723   0.747  0.4979 -1.8509 -0.5918
  551MOL0     O72601   1.625   1.508  11.176  0.1560  0.5029  0.3242
  551MOL0     C72602   1.641   1.598  11.255  0.2231 -0.5010 -0.0016
  551MOL0     O72603   1.547   1.661  11.323 -0.0070 -0.8055 -0.3219
  551MOL0     C72604   1.422   1.609  11.314 -0.3532 -0.6031 -0.2704
  551MOL0     C72605   1.313   1.687  11.259  0.2091  0.0729 -0.4230
  551MOL0     C72606   1.185   1.628  11.239  0.2937 -0.2398  0.8592
  551MOL0     C72607   1.164   1.494  11.276  1.3119 -0.2290 -0.9744
  551MOL0     O72608   1.033   1.437  11.257 -0.5058 -0.6649  0.2498
  551MOL0     C72609   0.944   1.481  11.155 -0.2620 -0.0963 -0.2642
  551MOL0     C72610   0.831   1.381  11.139  0.4826  0.2595 -0.1370
  551MOL0     C72611   0.897   1.254  11.079 -0.2726 -0.0565  0.2273
  551MOL0     C72612   0.785   1.151  11.041  0.5947 -1.3130 -0.5397
  551MOL0     C72613   0.841   1.024  10.963  0.2634  0.0580  0.4532
  551MOL0     C72614   0.896   0.917  11.057 -0.7604 -0.1944 -0.7730
  551MOL0     C72615   0.973   0.793  10.988  0.0858 -0.3297 -0.4592
  551MOL0     C72616   0.896   0.715  10.893  0.2169 -0.3931  0.3881
  551MOL0     N72617   0.801   0.621  10.966  0.2199 -0.1676 -0.3769
  551MOL0     C72618   0.827   0.490  11.002 -0.6195  0.0091  0.2905
  551MOL0     C72619   0.706   0.442  11.038 -0.0142  0.1513  0.4185
  551MOL0     C72620   0.688   0.303  11.103  0.6531 -0.0357  0.7579
  551MOL0     C72621   0.669   0.327  11.246  0.1365 -0.3797 -1.1074
  551MOL0     C72622   0.695   0.211  11.336 -0.8911  0.1354  0.2784
  551MOL0     C72623   0.831   0.144  11.313  0.6323 -0.0678  0.7872
  551MOL0     O72624   0.851   0.026  11.391  0.7086 -0.4163  0.7202
  551MOL0     C72625   0.969   0.025  11.448  0.8489 -0.3496  0.5951
  551MOL0     C72626   1.074  -0.022  11.370 -0.2976 -0.9948 -0.1766
  551MOL0     C72627   1.204   0.001  11.417  0.3940  1.0625 -0.5194
  551MOL0     C72628   1.221   0.049  11.547  0.0555 -0.9390  0.8188
  551MOL0     C72629   1.358   0.060  11.599  0.1282  0.1294 -0.4952
  551MOL0     O72630   1.386   0.079  11.729  0.0698  0.2088 -0.1334
  551MOL0     C72631   1.506   0.042  11.790 -0.7137  0.3083  0.4935
  551MOL0     C72632   1.522   0.079  11.922 -0.1354 -0.1981 -0.7620
  551MOL0     C72633   1.631   0.045  12.004 -0.1009 -0.0387 -0.6474
  551MOL0     C72634   1.732  -0.031  11.951 -0.3725  0.2201 -0.0909
  551MOL0     O72635   1.841  -0.076  12.016 -0.2865 -0.5576 -0.2531
  551MOL0     C72636   1.907  -0.004  12.125 -0.2083  0.3915 -0.0449
  551MOL0     C72637   1.928  -0.094  12.249  0.5935 -0.3152  0.1669
  551MOL0     C72638   1.976  -0.037  12.380 -0.3253 -0.3014 -0.4425
  551MOL0     C72639   1.940  -0.115  12.502  0.3828 -0.1095  0.5743
  551MOL0     C72640   1.957  -0.030  12.634 -0.4371 -0.1512 -0.5680
  551MOL0     C72641   2.004  -0.117  12.741  0.6007 -0.4344 -0.5991
  551MOL0     C72642   2.001  -0.050  12.881  0.1922  0.2440 -0.6872
  551MOL0     C72643   2.100  -0.118  12.975  0.3150  1.3230  0.1080
  551MOL0    Cl72644   2.065  -0.088  13.153 -0.0938  0.3029  0.4314
  551MOL0     C72645   1.722  -0.079  11.813  0.2829  0.4625 -0.0426
  551MOL0     C72646   1.610  -0.042  11.735  0.8459  0.5945 -1.4623
  551MOL0     O72647   1.437   0.062  11.513 -0.3547  0.1099  0.3361
  551MOL0     C72648   1.119   0.074  11.633  0.0280 -0.4433 -0.3237
  551MOL0     C72649   0.984   0.076  11.577 -0.7108  1.1889  0.1995
  551MOL0     N72650   0.607   0.541  11.036  0.1613 -0.2180  0.9604
  551MOL0     N72651   0.672   0.651  10.984  0.0677  0.3642  0.4257
  551MOL0     C72652   1.270   1.416  11.334  1.4498  0.1382 -0.4369
  551MOL0     C72653   1.399   1.473  11.350  0.8735  0.3528 -0.4468
  551MOL0     C72654   1.778   1.660  11.260  0.9173  0.1808  0.8142
  551MOL0     C72655   1.880   1.629  11.166  0.1672  0.1504  0.2428
  551MOL0     C72656   2.008   1.686  11.171 -0.1809 -0.1984  1.3952
  551MOL0     C72657   2.043   1.778  11.270 -0.9271 -0.0896 -0.4611
  551MOL0     O72658   2.178   1.815  11.264 -0.2620  0.2479  0.7822
  551MOL0     C72659   2.199   1.948  11.300 -0.6086  0.1759  0.0883
  551MOL0     C72660   2.335   2.000  11.238 -0.0497 -0.9345 -0.9106
  551MOL0     C72661   2.375   2.132  11.299  0.0677  0.0050  0.1379
  551MOL0     C72662   2.513   2.170  11.243 -0.0387 -0.5748 -0.7494
  551MOL0     C72663   2.625   2.127  11.327  1.3844 -0.8898  0.0469
  551MOL0     C72664   2.717   2.090  11.395  0.0060  0.6196 -0.1113
  551MOL0     C72665   1.942   1.816  11.363  0.1405  0.8077 -0.9403
  551MOL0     C72666   1.810   1.761  11.357  0.3210  0.6979  2.1565
  551MOL0     H72667   1.332   1.789  11.228  0.1984 -0.0112 -0.7107
  551MOL0     H72668   1.113   1.702  11.205  0.8614  1.2053  2.6315
  551MOL0     H72669   1.003   1.495  11.064 -1.9245 -1.0756 -1.5591
  551MOL0     H72670   0.906   1.573  11.199 -0.4316 -0.4308  0.2981
  551MOL0     H72671   0.756   1.426  11.073  0.3970 -0.4934 -0.5548
  551MOL0     H72672   0.781   1.364  11.235  2.7665  0.2414  1.1078
  551MOL0     H72673   0.971   1.223  11.154  0.0201  1.4150  0.5796
  551MOL0     H72674   0.962   1.273  10.993 -0.0330 -2.6580 -0.2781
  551MOL0     H72675   0.725   1.121  11.128  0.6641 -0.0761 -0.0528
  551MOL0     H72676   0.716   1.193  10.968  0.6613  0.1649  0.2144
  551MOL0     H72677   0.917   1.047  10.888  0.2739  2.3999  1.0762
  551MOL0     H72678   0.756   0.980  10.910  0.2537 -0.3569  0.8090
  551MOL0     H72679   0.813   0.875  11.114  0.4808  2.2564  3.2830
  551MOL0     H72680   0.962   0.970  11.126 -2.4660  0.7482  0.2114
  551MOL0     H72681   1.067   0.826  10.943 -0.4353  0.1120 -1.2376
  551MOL0     H72682   1.010   0.733  11.072 -1.2374 -1.3612 -0.5838
  551MOL0     H72683   0.965   0.657  10.831  1.9636 -0.2145  2.0692
  551MOL0     H72684   0.846   0.781  10.821  1.5323 -1.6333 -1.7642
  551MOL0     H72685   0.924   0.441  10.992 -0.9121 -0.0950 -2.8657
  551MOL0     H72686   0.789   0.266  11.086 -0.3200 -1.1360 -4.6376
  551MOL0     H72687   0.611   0.247  11.049 -1.2771  4.6411 -1.9596
  551MOL0     H72688   0.563   0.350  11.258 -0.1589 -0.8961 -2.5056
  551MOL0     H72689   0.734   0.411  11.272  0.2152 -1.1924  1.5816
  551MOL0     H72690   0.688   0.249  11.438 -1.6667  2.7302 -0.6506
  551MOL0     H72691   0.615   0.139  11.319 -2.1823  0.9183  2.6131
  551MOL0     H72692   0.916   0.211  11.328  3.8192 -2.9363 -2.4068
  551MOL0     H72693   0.836   0.101  11.212 -1.2353 -1.0583  1.0912
  551MOL0     H72694   1.046  -0.069  11.276 -2.4892 -0.4644  0.1487
  551MOL0     H72695   1.293  -0.009  11.356 -0.7118  1.6882 -2.3299
  551MOL0     H72696   1.437   0.125  11.970  1.4070  1.2507  0.7119
  551MOL0     H72697   1.635   0.092  12.102 -2.8603 -0.2813 -0.3411
  551MOL0     H72698   1.852   0.089  12.142 -2.2752 -1.0025  1.1816
  551MOL0     H72699   2.005   0.025  12.085  0.8014 -4.2515 -1.5202
  551MOL0     H72700   2.006  -0.166  12.224  1.0085  0.3320 -0.4549
  551MOL0     H72701   1.828  -0.135  12.267  0.6962 -1.9130 -2.3753
  551MOL0     H72702   1.935   0.063  12.398 -0.1454 -0.5936  1.8209
  551MOL0     H72703   2.085  -0.032  12.371 -0.1799  1.0978  1.5723
  551MOL0     H72704   1.837  -0.152  12.504  0.8310 -1.3810  1.4632
  551MOL0     H72705   2.005  -0.202  12.499  0.8752  0.2685 -2.3043
  551MOL0     H72706   1.867   0.021  12.670 -1.0763 -1.5385 -0.1206
  551MOL0     H72707   2.038   0.038  12.608  0.4052 -1.7524 -2.3749
  551MOL0     H72708   2.104  -0.153  12.713  0.8017  0.3810 -0.9341
  551MOL0     H72709   1.939  -0.205  12.742 -2.4914  1.6661 -2.0062
  551MOL0     H72710   2.030   0.054  12.863 -1.1268  0.5939 -0.8464
  551MOL0     H72711   1.896  -0.049  12.913 -0.1621  0.1564 -1.8323
  551MOL0     H72712   2.203  -0.090  12.951  0.6436 -0.6436 -0.9468
  551MOL0     H72713   2.092  -0.227  12.966 -4.0711  1.3131  1.8747
  551MOL0     H72714   1.800  -0.137  11.764  0.0801 -1.0166  1.2992
  551MOL0     H72715   1.583  -0.077  11.636 -0.6273  2.3972 -1.7582
  551MOL0     H72716   1.142   0.108  11.734  3.2718  1.6125 -1.6136
  551MOL0     H72717   0.890   0.105  11.622 -0.9563  0.5379  0.1095
  551MOL0     H72718   1.234   1.326  11.382 -0.7509  1.0441 -0.2771
  551MOL0     H72719   1.485   1.416  11.383  0.2152 -0.4987 -0.1739
  551MOL0     H72720   1.852   1.561  11.087 -1.3287  0.9575  0.0390
  551MOL0     H72721   2.088   1.652  11.106 -1.2034 -0.3069  0.1601
  551MOL0     H72722   2.212   1.957  11.408  3.5289  1.4054 -0.3048
  551MOL0     H72723   2.130   2.023  11.261  1.2475  1.3427 -1.1525
  551MOL0     H72724   2.423   1.940  11.261 -0.5720 -1.8600 -1.2528
  551MOL0     H72725   2.328   2.001  11.129  1.5605  0.3533 -1.0233
  551MOL0     H72726   2.377   2.145  11.408  1.3277  2.8373 -0.1424
  551MOL0     H72727   2.297   2.203  11.269  0.8284  2.1063  2.7535
  551MOL0     H72728   2.525   2.125  11.144 -2.3975 -2.2428 -0.3509
  551MOL0     H72729   2.520   2.276  11.216  0.9427 -0.5492 -0.4288
  551MOL0     H72730   2.776   2.055  11.477 -2.5625 -0.6686  1.3283
  551MOL0     H72731   1.952   1.889  11.443 -2.7344 -0.2171  0.5149
  551MOL0     H72732   1.735   1.784  11.432 -1.8572  2.7348 -0.4344
  552MOL0     O72733   6.230   1.080   1.998 -0.5640 -0.1424  1.2837
  552MOL0     C72734   6.316   1.038   2.073  0.3947 -0.3318 -0.0841
  552MOL0     O72735   6.314   0.910   2.127 -0.4695  0.3239  0.6078
  552MOL0     C72736   6.387   0.807   2.065  0.0929 -0.6685  0.5686
  552MOL0     C72737   6.404   0.682   2.126  0.4443 -1.5142  0.1211
  552MOL0     C72738   6.470   0.575   2.060 -0.4227 -0.1403  0.0372
  552MOL0     C72739   6.524   0.601   1.931  0.0754 -0.0998  0.2854
  552MOL0     O72740   6.584   0.505   1.854 -0.0910  0.7423  0.2628
  552MOL0     C72741   6.508   0.383   1.835 -0.0568  0.4025 -0.1550
  552MOL0     C72742   6.475   0.364   1.693 -0.3835  0.5017 -0.3955
  552MOL0     C72743   6.411   0.227   1.677 -0.9155  0.9788 -0.4729
  552MOL0     C72744   6.408   0.179   1.530 -1.3572  0.0156  0.0569
  552MOL0     C72745   6.424   0.034   1.509  0.1028  0.1360 -0.1094
  552MOL0     C72746   6.299  -0.032   1.542 -0.0359  1.0067 -0.9451
  552MOL0     C72747   6.325  -0.187   1.522 -0.2509  0.0779  0.2946
  552MOL0     C72748   6.196  -0.265   1.572 -0.8100  0.0719 -0.4495
  552MOL0     N72749   6.195  -0.261   1.718 -0.4018 -0.1696 -0.0966
  552MOL0     C72750   6.097  -0.192   1.792 -0.4481 -0.0132 -0.3442
  552MOL0     C72751   6.109  -0.243   1.920 -0.2180 -0.3223  0.3163
  552MOL0     C72752   6.031  -0.204   2.045 -1.2180  0.2404 -1.0046
  552MOL0     C72753   5.921  -0.312   2.069 -0.7124 -0.0049  0.2038
  552MOL0     C72754   5.825  -0.254   2.177  1.3637 -0.3338 -1.3290
  552MOL0     C72755   5.709  -0.355   2.220  0.0525  0.0416 -0.1115
  552MOL0     O72756   5.595  -0.314   2.150 -0.1355 -0.2685 -0.1260
  552MOL0     C72757   5.475  -0.370   2.186 -0.4112 -0.0854  0.2409
  552MOL0     C72758   5.463  -0.497   2.243  0.3108 -1.2999  0.8447
  552MOL0     C72759   5.331  -0.546   2.264  0.1517 -0.5994  0.3902
  552MOL0     C72760   5.210  -0.476   2.243  0.2521 -0.0226  0.5795
  552MOL0     C72761   5.086  -0.534   2.291  0.3109  0.1015 -0.1374
  552MOL0     O72762   5.003  -0.454   2.350 -0.2445 -1.0547 -0.0700
  552MOL0     C72763   4.878  -0.501   2.372 -0.6422 -0.0200  1.2882
  552MOL0     C72764   4.807  -0.464   2.489  0.0644  0.3950  0.2730
  552MOL0     C72765   4.674  -0.509   2.512  0.0966 -0.5763 -0.0367
  552MOL0     C72766   4.613  -0.592   2.417 -0.2627 -1.3244 -0.2821
  552MOL0     O72767   4.489  -0.647   2.439 -0.1560  0.8337  0.3614
  552MOL0     C72768   4.405  -0.579   2.536 -0.7945  0.4893 -0.1458
  552MOL0     C72769   4.259  -0.639   2.539 -0.1616 -1.2784  0.4473
  552MOL0     C72770   4.166  -0.575   2.639  0.1847 -0.2300  0.3852
  552MOL0     C72771   4.217  -0.567   2.783  0.2589  0.7382 -0.5983
  552MOL0     C72772   4.118  -0.509   2.883 -0.1282 -0.8895 -0.1930
  552MOL0     C72773   4.066  -0.373   2.835 -0.2127 -0.4735 -0.4414
  552MOL0     C72774   4.011  -0.286   2.953 -0.3305 -0.0332 -1.0147
  552MOL0     C72775   3.922  -0.165   2.924  0.5501  0.3105 -0.5738
  552MOL0    Cl72776   3.974  -0.091   2.765 -0.2495  0.2190  0.2254
  552MOL0     C72777   4.674  -0.616   2.297 -0.3895 -0.5050 -0.3920
  552MOL0     C72778   4.802  -0.560   2.270  0.3220  0.8949  0.7498
  552MOL0     O72779   5.072  -0.658   2.275  1.0530  0.7204 -0.3274
  552MOL0     C72780   5.231  -0.346   2.190  1.0023  0.4613 -0.2932
  552MOL0     C72781   5.352  -0.293   2.171  0.6658 -0.1564  0.1360
  552MOL0     N72782   6.214  -0.333   1.921  0.3378 -0.2878 -0.8145
  552MOL0     N72783   6.270  -0.339   1.803  0.5241  0.6594 -0.0226
  552MOL0     C72784   6.530   0.728   1.885  0.3044 -0.3253 -0.4290
  552MOL0     C72785   6.442   0.824   1.941 -0.3294  0.6540 -0.0429
  552MOL0     C72786   6.424   1.137   2.123 -0.1521 -0.3049  0.1028
  552MOL0     C72787   6.553   1.098   2.165  0.4388 -0.2111 -0.7479
  552MOL0     C72788   6.651   1.186   2.209 -0.5743  0.7601  0.5229
  552MOL0     C72789   6.630   1.326   2.204 -0.3427  0.2210  0.4098
  552MOL0     O72790   6.732   1.405   2.257 -0.2445  0.0267  0.0611
  552MOL0     C72791   6.736   1.537   2.195  0.4942  0.2364 -0.0870
  552MOL0     C72792   6.756   1.543   2.042  0.8173  0.0274 -0.5319
  552MOL0     C72793   6.865   1.460   1.998 -0.7990  0.0458  0.5011
  552MOL0     C72794   6.998   1.511   2.031 -0.3240  0.1214  0.6307
  552MOL0     C72795   7.041   1.596   1.919 -0.6754 -1.0920  0.2556
  552MOL0     C72796   7.089   1.668   1.824 -0.6031 -0.4666 -0.3034
  552MOL0     C72797   6.503   1.364   2.156  0.3210 -0.0930  0.1956
  552MOL0     C72798   6.402   1.275   2.113 -1.3064  0.6109 -0.3392
  552MOL0     H72799   6.363   0.685   2.227 -0.7523 -0.6506 -0.3688
  552MOL0     H72800   6.453   0.469   2.075 -1.5792 -0.2338 -1.6163
  552MOL0     H72801   6.415   0.381   1.892  0.0625  0.4520  0.0404
  552MOL0     H72802   6.569   0.300   1.871 -1.8209 -0.8437  0.1177
  552MOL0     H72803   6.566   0.381   1.634  1.6697  0.6628  2.5588
  552MOL0     H72804   6.412   0.448   1.663  1.7324  3.4237  2.5436
  552MOL0     H72805   6.306   0.244   1.700 -0.3216  3.1647  0.8862
  552MOL0     H72806   6.450   0.151   1.747  1.4289  2.6860  0.2038
  552MOL0     H72807   6.327   0.219   1.469 -1.6057 -0.4974  0.0439
  552MOL0     H72808   6.499   0.226   1.490 -1.4844  1.0042  0.8962
  552MOL0     H72809   6.507  -0.001   1.571 -1.2713 -1.0535  1.1351
  552MOL0     H72810   6.444   0.013   1.404 -0.1338 -0.2465 -0.0801
  552MOL0     H72811   6.230   0.003   1.465 -1.0441  1.8882  0.3132
  552MOL0     H72812   6.264  -0.011   1.644  2.2861 -1.6449  0.5620
  552MOL0     H72813   6.351  -0.216   1.420 -2.0639 -2.6038  0.4868
  552MOL0     H72814   6.415  -0.218   1.576 -0.7648 -1.4629  0.3154
  552MOL0     H72815   6.199  -0.373   1.553  1.9825 -0.9273  4.1384
  552MOL0     H72816   6.110  -0.219   1.523  1.2457  2.0176 -2.5161
  552MOL0     H72817   6.031  -0.115   1.755 -0.6659 -1.1230 -2.4399
  552MOL0     H72818   5.993  -0.101   2.048 -1.1374  0.2982 -1.7897
  552MOL0     H72819   6.104  -0.211   2.126 -3.4090  1.6280  1.2381
  552MOL0     H72820   5.968  -0.406   2.100  2.0608  1.1374 -0.2081
  552MOL0     H72821   5.864  -0.329   1.977  0.3550 -0.7554 -0.3379
  552MOL0     H72822   5.881  -0.220   2.265  2.5032  0.9587 -2.5085
  552MOL0     H72823   5.781  -0.157   2.155 -1.0092 -0.4765  1.9748
  552MOL0     H72824   5.679  -0.340   2.324 -0.2770  0.4335 -0.2626
  552MOL0     H72825   5.747  -0.458   2.219  2.6608  0.7583  3.5188
  552MOL0     H72826   5.544  -0.565   2.268  1.9492  1.3265  3.3072
  552MOL0     H72827   5.315  -0.639   2.318 -1.0739 -1.8507 -2.0113
  552MOL0     H72828   4.848  -0.406   2.571 -0.6333 -2.2106  2.6141
  552MOL0     H72829   4.620  -0.474   2.600 -0.1067 -0.0884 -0.3523
  552MOL0     H72830   4.404  -0.470   2.530 -0.3876  0.4778 -0.5000
  552MOL0     H72831   4.450  -0.605   2.633 -0.3728  1.9436  0.0693
  552MOL0     H72832   4.258  -0.745   2.566  5.1557 -2.3770 -2.3083
  552MOL0     H72833   4.221  -0.622   2.437 -4.1557 -0.0642  1.9348
  552MOL0     H72834   4.080  -0.642   2.633  2.2029 -2.8854 -1.1774
  552MOL0     H72835   4.127  -0.479   2.605 -1.1190  0.3709  3.3200
  552MOL0     H72836   4.268  -0.661   2.808 -0.5502  0.1877 -0.9846
  552MOL0     H72837   4.307  -0.505   2.791  1.1443 -0.5269 -0.4913
  552MOL0     H72838   4.176  -0.512   2.976  0.9566 -3.8590 -0.8584
  552MOL0     H72839   4.040  -0.582   2.906  0.1203 -1.0300  0.2316
  552MOL0     H72840   3.991  -0.381   2.757 -2.4643  3.4474  1.0311
  552MOL0     H72841   4.143  -0.317   2.780 -0.1706 -0.4467 -0.3575
  552MOL0     H72842   3.967  -0.351   3.030  1.4558  0.3824  0.4462
  552MOL0     H72843   4.103  -0.240   2.992 -1.4561  1.5757 -0.1268
  552MOL0     H72844   3.936  -0.091   3.002 -1.4173  0.5873 -0.4192
  552MOL0     H72845   3.815  -0.189   2.920 -0.3224  3.4143  1.4038
  552MOL0     H72846   4.648  -0.683   2.216  0.8377 -1.6636  0.1376
  552MOL0     H72847   4.848  -0.581   2.174  1.4532 -0.8475  1.6156
  552MOL0     H72848   5.149  -0.275   2.178  2.6814  2.8888  1.6112
  552MOL0     H72849   5.359  -0.187   2.145  0.6134  0.6235  2.9941
  552MOL0     H72850   6.584   0.754   1.794 -1.0533 -0.8867 -1.4258
  552MOL0     H72851   6.438   0.922   1.894  2.9400  1.7037  1.5550
  552MOL0     H72852   6.571   0.992   2.155 -0.8233 -0.4516 -0.6166
  552MOL0     H72853   6.744   1.146   2.247  0.4949  2.0407 -0.6205
  552MOL0     H72854   6.807   1.595   2.254 -0.9448  0.7834  1.1821
  552MOL0     H72855   6.637   1.581   2.213  0.6132  1.5107 -2.2114
  552MOL0     H72856   6.658   1.522   1.997 -0.3142  0.3931  1.6265
  552MOL0     H72857   6.781   1.649   2.027 -2.2161  1.1368  1.2338
  552MOL0     H72858   6.867   1.449   1.889 -0.3839 -1.5119  0.6384
  552MOL0     H72859   6.841   1.358   2.030 -0.2411 -1.1062 -2.3815
  552MOL0     H72860   6.991   1.567   2.125  1.9869  0.7204  0.5092
  552MOL0     H72861   7.065   1.424   2.029 -0.3531  0.0646  1.5709
  552MOL0     H72862   7.138   1.732   1.753 -0.6832 -1.0682 -0.9093
  552MOL0     H72863   6.485   1.471   2.145  2.6937  0.4477  1.1114
  552MOL0     H72864   6.311   1.322   2.076 -1.1530  0.3910 -1.0127
  553MOL0     O72865  10.843   1.382   6.413 -1.0500 -0.1188  0.3669
  553MOL0     C72866  10.871   1.328   6.517 -0.0748 -0.3234  1.1551
  553MOL0     O72867  10.993   1.289   6.555  0.1858 -0.2453  0.4992
  553MOL0     C72868  11.111   1.297   6.481 -0.1844  0.7749 -0.6555
  553MOL0     C72869  11.230   1.260   6.554 -0.5119  0.1361 -0.4135
  553MOL0     C72870  11.364   1.268   6.491  0.0666 -0.6365  0.0405
  553MOL0     C72871  11.372   1.302   6.357  1.4011 -0.2417 -0.0401
  553MOL0     O72872  11.493   1.307   6.307  0.0745 -0.5032  0.8559
  553MOL0     C72873  11.524   1.240   6.180  0.8293  0.2592  0.3655
  553MOL0     C72874  11.663   1.231   6.147 -0.4528  0.2413  0.3259
  553MOL0     C72875  11.706   1.125   6.051 -0.3540  0.2604  0.3553
  553MOL0     C72876  11.854   1.084   6.048 -0.8698 -0.0115 -0.5819
  553MOL0     C72877  11.948   1.168   6.127 -0.7016  0.2116  1.0747
  553MOL0     C72878  12.094   1.131   6.114  0.1551  0.1334  0.2464
  553MOL0     C72879  12.126   1.005   6.194  0.2199 -0.0862 -0.6513
  553MOL0     C72880  12.273   0.993   6.221  0.6774 -0.0029 -0.9351
  553MOL0     N72881  12.360   0.920   6.134  0.2495  0.0137  0.3882
  553MOL0     C72882  12.417   0.969   6.016 -0.2801  0.0585  0.2819
  553MOL0     C72883  12.504   0.871   5.980  0.4294  0.6590  0.2374
  553MOL0     C72884  12.580   0.892   5.853 -1.0864 -0.1099  1.0633
  553MOL0     C72885  12.706   0.981   5.873 -0.1894  0.2461 -0.8334
  553MOL0     C72886  12.833   0.902   5.916  1.6488  0.5966 -0.1581
  553MOL0     C72887  12.928   0.851   5.799 -0.1465 -0.5242  0.2491
  553MOL0     O72888  12.923   0.912   5.671 -0.2399 -0.3364 -0.2049
  553MOL0     C72889  12.999   1.023   5.654 -0.3873  0.3259  0.5051
  553MOL0     C72890  13.017   1.062   5.523 -0.8876 -0.5190 -0.4411
  553MOL0     C72891  13.100   1.173   5.493 -0.0268 -0.9523  0.7240
  553MOL0     C72892  13.175   1.238   5.596 -0.5958 -0.4667  0.7992
  553MOL0     C72893  13.281   1.337   5.553 -0.3377  0.3090  0.2103
  553MOL0     O72894  13.277   1.395   5.423 -0.3525 -0.0843 -1.0734
  553MOL0     C72895  13.382   1.472   5.393 -0.3061  0.1591  0.2116
  553MOL0     C72896  13.361   1.614   5.389  0.6715 -0.0003 -0.9247
  553MOL0     C72897  13.463   1.700   5.349  0.5128 -0.4597  0.1295
  553MOL0     C72898  13.589   1.651   5.326 -0.0369  0.5536  0.8300
  553MOL0     O72899  13.691   1.736   5.291 -0.4041 -0.1600 -0.3805
  553MOL0     C72900  13.675   1.885   5.288 -0.8520 -0.5914  0.4825
  553MOL0     C72901  13.813   1.946   5.257 -0.0154  0.1520  0.0939
  553MOL0     C72902  13.884   1.898   5.142  0.8375  0.4582 -0.2489
  553MOL0     C72903  14.019   1.976   5.109 -0.0531 -0.3164 -0.4212
  553MOL0     C72904  14.109   1.899   5.012  0.1504  0.0891 -0.4141
  553MOL0     C72905  14.244   1.966   4.980  0.0427  0.7793  0.9084
  553MOL0     C72906  14.315   1.884   4.870 -0.2383  0.2037 -0.2404
  553MOL0     C72907  14.454   1.956   4.840  0.3375 -0.0402 -0.5005
  553MOL0    Cl72908  14.450   2.130   4.818  0.2186  0.8663  0.4932
  553MOL0     C72909  13.619   1.514   5.333  0.5075  0.0919 -0.0830
  553MOL0     C72910  13.511   1.427   5.362  0.2298 -0.1950  0.3885
  553MOL0     O72911  13.365   1.347   5.642  0.0306 -0.5146  1.2373
  553MOL0     C72912  13.160   1.186   5.726 -0.1992  1.1091  0.4464
  553MOL0     C72913  13.065   1.091   5.759 -0.7950  0.5511  0.0790
  553MOL0     N72914  12.483   0.756   6.060 -0.3055 -0.4463 -0.4303
  553MOL0     N72915  12.393   0.780   6.151  0.3243  0.3637  0.3593
  553MOL0     C72916  11.259   1.341   6.285 -0.0624  0.0670 -0.4964
  553MOL0     C72917  11.132   1.330   6.346 -1.1713  0.4838  0.2482
  553MOL0     C72918  10.747   1.295   6.602  0.5436  0.5739  0.2517
  553MOL0     C72919  10.764   1.239   6.730 -0.0391  1.2663 -0.2350
  553MOL0     C72920  10.656   1.196   6.810 -0.8437 -0.5698  0.0840
  553MOL0     C72921  10.524   1.206   6.755 -0.5762  0.2631  0.1975
  553MOL0     O72922  10.411   1.160   6.821  0.7391  0.3768 -0.3051
  553MOL0     C72923  10.397   1.140   6.959  0.4387  0.2234 -0.7304
  553MOL0     C72924  10.252   1.125   6.983 -0.5469  0.2305 -0.1631
  553MOL0     C72925  10.183   1.260   6.974 -0.2518  0.7071  0.1477
  553MOL0     C72926  10.130   1.302   7.109  0.3640 -0.7096 -0.2589
  553MOL0     C72927  10.232   1.363   7.199 -0.2304 -0.5740  0.1541
  553MOL0     C72928  10.308   1.408   7.283  0.6696 -0.2340 -0.1983
  553MOL0     C72929  10.509   1.265   6.629  0.0310 -0.3633 -0.2501
  553MOL0     C72930  10.617   1.305   6.550 -0.3089  0.5596  0.3844
  553MOL0     H72931  11.208   1.242   6.659  1.7737 -2.2451 -0.2295
  553MOL0     H72932  11.452   1.253   6.552  1.2985  1.9075 -0.9499
  553MOL0     H72933  11.467   1.288   6.099 -0.6899 -1.6072  0.2615
  553MOL0     H72934  11.491   1.140   6.208 -1.2305  0.9589  0.5925
  553MOL0     H72935  11.719   1.218   6.240 -1.8388 -0.9192  1.0490
  553MOL0     H72936  11.685   1.334   6.116 -3.5315 -0.0418 -3.6697
  553MOL0     H72937  11.668   1.169   5.959  0.4084 -0.3699 -0.2693
  553MOL0     H72938  11.648   1.032   6.057  1.8058 -1.3490 -1.6578
  553MOL0     H72939  11.853   0.983   6.090 -1.3413 -0.3921 -1.4725
  553MOL0     H72940  11.888   1.086   5.944  0.3624 -1.0097 -0.2227
  553MOL0     H72941  11.928   1.182   6.233 -1.3634  2.4551  0.7063
  553MOL0     H72942  11.944   1.273   6.095 -0.9348 -0.1152 -0.0096
  553MOL0     H72943  12.166   1.209   6.143  2.4756 -1.5778 -0.5554
  553MOL0     H72944  12.117   1.110   6.009  0.4114  0.9100  0.1367
  553MOL0     H72945  12.072   1.025   6.287  1.2156  3.0028 -0.6552
  553MOL0     H72946  12.081   0.912   6.157 -0.5548 -0.6725  1.5575
  553MOL0     H72947  12.276   0.943   6.318 -0.2620  1.1046 -0.3089
  553MOL0     H72948  12.321   1.091   6.230  2.5179 -0.8210 -1.5535
  553MOL0     H72949  12.400   1.061   5.961 -1.8626 -0.8929 -0.9069
  553MOL0     H72950  12.511   0.925   5.775  0.2960 -2.8132 -1.5001
  553MOL0     H72951  12.619   0.797   5.818 -0.4370  0.3029  0.6519
  553MOL0     H72952  12.684   1.051   5.955  2.1761 -2.0471  2.0002
  553MOL0     H72953  12.730   1.048   5.790  0.4469 -1.2561 -1.8900
  553MOL0     H72954  12.884   0.965   5.990  1.1593 -1.0097  1.6252
  553MOL0     H72955  12.809   0.811   5.972 -2.0650  0.7547 -1.1950
  553MOL0     H72956  12.896   0.752   5.763 -1.1764  0.2075 -0.9201
  553MOL0     H72957  13.026   0.834   5.843  0.1833 -1.4997 -0.8328
  553MOL0     H72958  12.957   1.013   5.447  0.1252 -0.8662 -1.0398
  553MOL0     H72959  13.108   1.200   5.388 -0.8685 -0.0273  0.8856
  553MOL0     H72960  13.272   1.664   5.428  2.5667  0.7316  2.9467
  553MOL0     H72961  13.438   1.805   5.351 -0.8275 -0.7643  1.3349
  553MOL0     H72962  13.644   1.925   5.386 -1.6276 -2.2051  0.9287
  553MOL0     H72963  13.595   1.904   5.216 -1.6697 -1.6019  1.0991
  553MOL0     H72964  13.885   1.932   5.338  0.1649  3.3602  0.6046
  553MOL0     H72965  13.806   2.055   5.261 -0.8438  0.1464 -0.8286
  553MOL0     H72966  13.823   1.889   5.051 -0.6639 -0.1319  0.7810
  553MOL0     H72967  13.915   1.796   5.167 -0.2467  0.3618  0.7516
  553MOL0     H72968  13.982   2.068   5.064 -1.1825 -0.5215  0.0753
  553MOL0     H72969  14.075   2.002   5.199  0.1785 -1.1264 -0.3203
  553MOL0     H72970  14.050   1.875   4.923 -1.7260  0.5884  0.6400
  553MOL0     H72971  14.140   1.805   5.060  4.7226  0.9973 -1.1381
  553MOL0     H72972  14.303   1.988   5.070  0.0548 -2.2297  1.7246
  553MOL0     H72973  14.239   2.062   4.928  1.5980  0.5463  0.2617
  553MOL0     H72974  14.322   1.778   4.896 -2.6066  0.1927  0.5486
  553MOL0     H72975  14.259   1.884   4.777  0.6341 -0.9869 -0.7963
  553MOL0     H72976  14.498   1.931   4.743 -2.6772  0.1973 -2.0336
  553MOL0     H72977  14.526   1.918   4.914 -0.1588 -1.7532 -0.8487
  553MOL0     H72978  13.706   1.463   5.293 -1.6826 -1.8462 -2.7208
  553MOL0     H72979  13.537   1.322   5.358  3.7524  0.5773 -1.3198
  553MOL0     H72980  13.221   1.230   5.804  3.3332 -0.9877 -0.9438
  553MOL0     H72981  13.057   1.072   5.866 -0.8506 -1.7065 -0.2796
  553MOL0     H72982  11.259   1.387   6.186 -2.0029  4.2472  1.2273
  553MOL0     H72983  11.048   1.353   6.282 -1.6944 -1.1304  0.2914
  553MOL0     H72984  10.862   1.223   6.773 -1.1824  2.0244  2.9611
  553MOL0     H72985  10.663   1.148   6.907 -0.5836  0.8871  0.8185
  553MOL0     H72986  10.439   1.220   7.020 -1.9115  0.3606  0.8435
  553MOL0     H72987  10.461   1.057   6.992  2.7636  2.2696  0.1733
  553MOL0     H72988  10.210   1.060   6.905  0.1910 -2.1114  1.2975
  553MOL0     H72989  10.239   1.080   7.082 -2.1342  1.2464  0.1242
  553MOL0     H72990  10.105   1.260   6.898 -2.7480  1.5359  2.5568
  553MOL0     H72991  10.255   1.338   6.946 -0.2753  0.3778 -0.8515
  553MOL0     H72992  10.055   1.380   7.090 -0.0070 -0.6637  1.2545
  553MOL0     H72993  10.079   1.225   7.167 -1.6999  1.9117  1.6728
  553MOL0     H72994  10.354   1.449   7.370 -3.4531 -0.5410  2.4038
  553MOL0     H72995  10.420   1.251   6.569  1.2108 -2.4556 -1.6181
  553MOL0     H72996  10.613   1.338   6.447  0.2282  0.4411  0.3220
  554MOL0     O72997   0.934   9.052   2.158 -0.6267  0.1165 -0.2151
  554MOL0     C72998   0.846   9.036   2.088  0.5606 -0.1688  0.9299
  554MOL0     O72999   0.830   8.936   2.000 -0.3626 -0.3164  0.0427
  554MOL0     C73000   0.939   8.896   1.916  0.7285  0.6621 -1.5167
  554MOL0     C73001   0.957   8.754   1.898  0.4949  0.4784  0.3048
  554MOL0     C73002   1.061   8.700   1.829 -0.8281 -0.1739  0.2265
  554MOL0     C73003   1.160   8.792   1.773 -0.0945 -0.6921 -0.0393
  554MOL0     O73004   1.250   8.761   1.674 -0.7442  0.3247 -0.0286
  554MOL0     C73005   1.253   8.617   1.626  0.3882 -0.6077 -0.4913
  554MOL0     C73006   1.365   8.579   1.530 -0.8154  0.5392  1.0573
  554MOL0     C73007   1.499   8.606   1.599  0.0344 -0.2667  0.3781
  554MOL0     C73008   1.615   8.551   1.518 -0.1817  0.1509  0.4011
  554MOL0     C73009   1.735   8.542   1.611  0.1085 -0.4500  0.1029
  554MOL0     C73010   1.862   8.502   1.541 -0.3926  0.2475  0.6786
  554MOL0     C73011   1.979   8.460   1.632  0.4744  0.8096  1.4620
  554MOL0     C73012   1.955   8.322   1.706  1.2154 -0.0082 -0.2953
  554MOL0     N73013   2.065   8.280   1.796 -0.1184  0.3875  0.5695
  554MOL0     C73014   2.178   8.197   1.767  0.5817  0.7180  0.1827
  554MOL0     C73015   2.253   8.190   1.880 -1.1958 -0.3329 -0.3957
  554MOL0     C73016   2.372   8.104   1.906  0.6898 -0.4205  0.3608
  554MOL0     C73017   2.416   8.079   2.058 -0.1168  0.2161 -0.7319
  554MOL0     C73018   2.518   8.182   2.110 -0.0617  0.1614  0.5349
  554MOL0     C73019   2.525   8.180   2.260 -0.9500  0.1535 -0.2366
  554MOL0     O73020   2.635   8.263   2.308  0.3213  0.1268  0.0705
  554MOL0     C73021   2.747   8.190   2.336 -0.3586 -0.8572  0.3493
  554MOL0     C73022   2.836   8.254   2.421  0.1592 -0.1724  0.2046
  554MOL0     C73023   2.965   8.194   2.446 -0.3673 -0.2461 -1.0430
  554MOL0     C73024   3.013   8.085   2.369  0.4042 -0.4773 -0.2208
  554MOL0     C73025   3.143   8.025   2.409  0.2653  0.7407  1.7162
  554MOL0     O73026   3.170   7.891   2.376  0.4709  1.0399 -0.8000
  554MOL0     C73027   3.303   7.846   2.410 -0.6442 -0.7847 -0.0487
  554MOL0     C73028   3.422   7.893   2.342  0.4460 -0.3251 -0.6955
  554MOL0     C73029   3.546   7.860   2.399 -0.4249  0.1204  0.4444
  554MOL0     C73030   3.549   7.789   2.525 -0.1215  0.7515  1.0055
  554MOL0     O73031   3.669   7.773   2.585 -0.0162 -0.8231  0.7290
  554MOL0     C73032   3.696   7.834   2.716 -0.0862  0.5060 -0.4285
  554MOL0     C73033   3.689   7.988   2.702 -0.1407  0.6159 -0.9761
  554MOL0     C73034   3.553   8.055   2.697  0.5707  0.0419 -0.1995
  554MOL0     C73035   3.557   8.188   2.775  0.7248  1.0482  0.7330
  554MOL0     C73036   3.659   8.290   2.739  0.5218 -0.4149  0.1303
  554MOL0     C73037   3.657   8.336   2.587 -0.3097  0.5223  0.2660
  554MOL0     C73038   3.770   8.430   2.567 -0.4539 -0.6407  0.6085
  554MOL0     C73039   3.767   8.463   2.415 -0.2639  0.0331  0.5024
  554MOL0    Cl73040   3.882   8.592   2.383 -0.1668  0.1158 -0.1286
  554MOL0     C73041   3.425   7.738   2.582  0.2441  0.3490 -0.4389
  554MOL0     C73042   3.304   7.763   2.520  0.0082 -0.0012  0.0704
  554MOL0     O73043   3.212   8.098   2.478  0.3352  0.3862  0.6335
  554MOL0     C73044   2.917   8.026   2.286  0.5499 -0.4829 -0.1581
  554MOL0     C73045   2.785   8.084   2.262  0.4127 -0.7329  0.2864
  554MOL0     N73046   2.211   8.293   1.960  0.4523 -0.5908  0.2667
  554MOL0     N73047   2.097   8.342   1.913  1.2048 -0.2396  0.0830
  554MOL0     C73048   1.139   8.931   1.797 -0.2746 -0.6842  0.6051
  554MOL0     C73049   1.029   8.980   1.868  0.0219  0.3000  0.2528
  554MOL0     C73050   0.741   9.142   2.091 -0.2666 -0.1690  0.6742
  554MOL0     C73051   0.735   9.236   2.190 -0.1188  0.4473  1.0095
  554MOL0     C73052   0.627   9.323   2.190 -0.2726 -0.3145 -1.1184
  554MOL0     C73053   0.526   9.325   2.097 -0.1196  0.4504 -0.0455
  554MOL0     O73054   0.429   9.421   2.090 -0.6802  0.1979  0.1544
  554MOL0     C73055   0.399   9.535   2.177  0.1089 -0.6424  0.7842
  554MOL0     C73056   0.364   9.490   2.317  0.5449 -0.2668 -0.3287
  554MOL0     C73057   0.222   9.417   2.321 -0.6837 -0.3136  0.3072
  554MOL0     C73058   0.204   9.340   2.456  0.1026  0.6974 -0.7113
  554MOL0     C73059   0.171   9.434   2.566  0.4064  0.3313  0.4294
  554MOL0     C73060   0.129   9.521   2.647 -0.5503  0.4124  0.9959
  554MOL0     C73061   0.538   9.230   1.996  1.2263 -0.1587  0.4810
  554MOL0     C73062   0.645   9.147   1.994  0.6482 -0.2195 -0.3186
  554MOL0     H73063   0.896   8.688   1.959  1.9826 -0.7818  0.4963
  554MOL0     H73064   1.066   8.594   1.807  3.0966 -0.1434  0.2714
  554MOL0     H73065   1.152   8.593   1.591 -0.7130  3.8319 -0.9571
  554MOL0     H73066   1.259   8.556   1.717 -1.8092  0.5407  0.5192
  554MOL0     H73067   1.344   8.636   1.439 -1.4430 -2.3322 -0.7081
  554MOL0     H73068   1.362   8.473   1.505  3.2342  0.2107  1.3745
  554MOL0     H73069   1.494   8.553   1.694 -2.4735  0.1004  0.5071
  554MOL0     H73070   1.522   8.711   1.621  1.2644 -0.6846  1.1546
  554MOL0     H73071   1.586   8.455   1.475  1.1093 -1.1597  2.2782
  554MOL0     H73072   1.629   8.627   1.440 -1.3384  2.7483  2.5667
  554MOL0     H73073   1.713   8.462   1.682  1.1537  0.9113  2.0663
  554MOL0     H73074   1.737   8.639   1.663  0.3126 -0.1965 -0.3691
  554MOL0     H73075   1.909   8.580   1.480  3.2616 -1.9246  0.4332
  554MOL0     H73076   1.840   8.414   1.481  0.4547 -0.4865  1.4146
  554MOL0     H73077   2.066   8.456   1.566 -1.9954 -2.1875 -1.9481
  554MOL0     H73078   1.998   8.541   1.704  2.1738  0.6978  1.1932
  554MOL0     H73079   1.930   8.239   1.640  1.7140  0.6845 -1.3917
  554MOL0     H73080   1.870   8.330   1.775  0.5997 -0.3790 -0.9924
  554MOL0     H73081   2.201   8.141   1.677  0.8928  2.2670 -0.7413
  554MOL0     H73082   2.458   8.142   1.850  0.1406 -1.7178 -1.4197
  554MOL0     H73083   2.331   8.006   1.879 -1.8097 -0.3528  3.3912
  554MOL0     H73084   2.472   7.985   2.052  1.1133  0.9936 -1.8013
  554MOL0     H73085   2.333   8.085   2.129  1.1807 -1.8784  1.1026
  554MOL0     H73086   2.617   8.158   2.070 -1.0707 -3.0543 -0.2716
  554MOL0     H73087   2.487   8.279   2.068 -2.7150 -1.9022 -2.7902
  554MOL0     H73088   2.520   8.082   2.310 -1.8175  1.6116  2.7833
  554MOL0     H73089   2.442   8.233   2.308 -1.6284  2.5545 -3.7739
  554MOL0     H73090   2.794   8.340   2.473  0.6465  0.2430 -0.0711
  554MOL0     H73091   3.034   8.239   2.516  0.1314  0.5070 -1.9861
  554MOL0     H73092   3.422   7.955   2.253  1.5892  1.4833  0.5005
  554MOL0     H73093   3.647   7.887   2.371 -0.9597  2.8605  0.8912
  554MOL0     H73094   3.786   7.800   2.768 -0.9404 -0.4464  0.4931
  554MOL0     H73095   3.617   7.797   2.782  0.5765 -2.5537 -1.2070
  554MOL0     H73096   3.752   8.014   2.617 -0.1094  0.5482 -0.9747
  554MOL0     H73097   3.747   8.024   2.788 -1.2675  1.8355 -0.7018
  554MOL0     H73098   3.490   7.993   2.762 -1.7307  3.0750  0.6484
  554MOL0     H73099   3.532   8.071   2.591  1.3758 -2.8542 -0.8927
  554MOL0     H73100   3.462   8.237   2.752 -1.1326 -1.2431  2.8699
  554MOL0     H73101   3.567   8.164   2.882 -1.0757 -0.1441  0.6885
  554MOL0     H73102   3.761   8.267   2.770 -0.2322 -2.5093  1.2906
  554MOL0     H73103   3.643   8.383   2.794  1.7839 -1.5793  2.6178
  554MOL0     H73104   3.557   8.376   2.566 -0.5012 -0.1813 -0.1903
  554MOL0     H73105   3.683   8.254   2.520  0.6458 -0.1169  1.3932
  554MOL0     H73106   3.761   8.515   2.636  1.7051  0.4359 -0.3580
  554MOL0     H73107   3.868   8.386   2.585 -0.7292 -0.0448  4.4446
  554MOL0     H73108   3.669   8.493   2.377 -0.8908 -3.3530 -0.9736
  554MOL0     H73109   3.807   8.379   2.357  1.4604  1.0559  0.1500
  554MOL0     H73110   3.428   7.673   2.668  3.0948  0.5411 -0.2832
  554MOL0     H73111   3.207   7.742   2.566  0.1954 -0.8737  0.0848
  554MOL0     H73112   2.943   7.938   2.227 -1.0012 -0.2454 -1.2481
  554MOL0     H73113   2.728   8.037   2.182 -1.2774  0.3030  0.8389
  554MOL0     H73114   1.207   9.000   1.751 -1.3529 -0.6456 -1.0079
  554MOL0     H73115   1.011   9.086   1.884 -0.8399  0.3145 -0.7567
  554MOL0     H73116   0.808   9.244   2.269 -0.8018  1.5838  1.5413
  554MOL0     H73117   0.624   9.402   2.264 -0.8102 -1.7844  0.4788
  554MOL0     H73118   0.315   9.593   2.137  0.4577  0.9937  2.2644
  554MOL0     H73119   0.477   9.609   2.156  1.9711 -3.1079 -1.6805
  554MOL0     H73120   0.435   9.424   2.367 -0.6282  0.2555  2.2414
  554MOL0     H73121   0.362   9.582   2.377  1.3259 -1.1402  1.0910
  554MOL0     H73122   0.207   9.339   2.245 -0.5362  0.5272 -0.6064
  554MOL0     H73123   0.148   9.497   2.315 -1.7037 -1.1986  0.7649
  554MOL0     H73124   0.119   9.271   2.462  1.8901 -1.5454  0.2880
  554MOL0     H73125   0.294   9.281   2.477 -0.8655 -0.6553 -0.2424
  554MOL0     H73126   0.085   9.595   2.710 -0.9026  1.1894 -0.1381
  554MOL0     H73127   0.465   9.225   1.916 -1.8907 -1.8608  3.1716
  554MOL0     H73128   0.663   9.083   1.908  1.0935  1.8324 -1.8310
  555MOL0     O73129   6.952   4.719   7.890  0.0819  0.0169  0.2915
  555MOL0     C73130   7.011   4.699   7.995 -0.7154 -0.0218  0.0146
  555MOL0     O73131   7.127   4.757   8.019 -0.0277  0.6273 -0.2357
  555MOL0     C73132   7.166   4.857   7.940 -0.0308 -0.5777 -0.7853
  555MOL0     C73133   7.092   4.975   7.910  0.9532 -0.2568 -1.0008
  555MOL0     C73134   7.126   5.055   7.804 -0.6003  0.4560  0.4704
  555MOL0     C73135   7.239   5.028   7.732 -0.1748  0.7125 -0.8323
  555MOL0     O73136   7.267   5.118   7.638 -0.1949 -0.1617 -0.4311
  555MOL0     C73137   7.392   5.105   7.562 -0.0683 -0.9817 -0.5940
  555MOL0     C73138   7.409   5.226   7.467 -0.1999 -0.5444  0.1827
  555MOL0     C73139   7.413   5.363   7.544  0.3631 -0.9213  0.4209
  555MOL0     C73140   7.469   5.468   7.435 -0.3806  0.1876 -0.3401
  555MOL0     C73141   7.488   5.608   7.497  0.0235  0.4296  0.0392
  555MOL0     C73142   7.593   5.679   7.413 -0.6477  0.8002 -0.4276
  555MOL0     C73143   7.656   5.797   7.493 -0.1963  0.7841  0.2556
  555MOL0     C73144   7.544   5.894   7.531  0.5141 -0.2805 -0.0371
  555MOL0     N73145   7.608   6.026   7.550  0.3887 -0.2901  0.3844
  555MOL0     C73146   7.625   6.114   7.447 -0.3834  0.9144  0.1386
  555MOL0     C73147   7.724   6.205   7.480  0.2042  1.0451 -0.6488
  555MOL0     C73148   7.760   6.328   7.391  0.5899 -0.3814 -0.9691
  555MOL0     C73149   7.771   6.313   7.242 -0.0266  0.8747  1.2845
  555MOL0     C73150   7.794   6.438   7.164 -0.1881 -0.7706  0.3195
  555MOL0     C73151   7.666   6.505   7.093  0.1997 -0.6772 -0.4157
  555MOL0     O73152   7.605   6.407   7.017 -0.0659  0.7633 -0.3152
  555MOL0     C73153   7.546   6.463   6.908  0.0641  0.4768  0.0096
  555MOL0     C73154   7.502   6.591   6.890  0.0574 -0.1306 -0.2620
  555MOL0     C73155   7.430   6.639   6.775  0.6647  0.5082  0.7433
  555MOL0     C73156   7.396   6.543   6.679  0.4520 -0.0877  0.3150
  555MOL0     C73157   7.314   6.588   6.564 -0.5783  0.8624 -0.7221
  555MOL0     O73158   7.278   6.716   6.561 -0.1099  0.1936 -0.5204
  555MOL0     C73159   7.197   6.763   6.467  0.3280  0.3844  0.3237
  555MOL0     C73160   7.115   6.871   6.511  0.0150  0.3577  0.1163
  555MOL0     C73161   7.039   6.945   6.419 -0.0333  0.4320  1.0664
  555MOL0     C73162   7.034   6.914   6.285 -0.7210  1.3688 -0.6815
  555MOL0     O73163   6.955   6.983   6.192 -0.7551  0.9004 -0.2289
  555MOL0     C73164   6.859   6.903   6.132 -0.6266 -0.0046  0.1742
  555MOL0     C73165   6.735   6.883   6.223  0.1926  0.2449 -0.8261
  555MOL0     C73166   6.674   7.022   6.269 -0.3423 -0.4770 -0.1446
  555MOL0     C73167   6.535   7.022   6.345 -0.4530  0.6797  0.8292
  555MOL0     C73168   6.458   7.157   6.348 -0.3132  0.0468 -0.1411
  555MOL0     C73169   6.529   7.269   6.405  0.2548 -0.2113  0.5462
  555MOL0     C73170   6.445   7.402   6.420  0.1178 -0.8485 -1.3755
  555MOL0     C73171   6.324   7.388   6.510  0.5059 -0.7712 -0.4659
  555MOL0    Cl73172   6.357   7.349   6.673 -0.4798 -0.5262 -0.3667
  555MOL0     C73173   7.120   6.813   6.241 -0.8442  0.4516  0.5070
  555MOL0     C73174   7.209   6.742   6.332  0.3559  0.3688 -1.5188
  555MOL0     O73175   7.280   6.503   6.478  0.6352 -0.4268 -0.4073
  555MOL0     C73176   7.431   6.414   6.702 -0.0914  1.1623  0.1952
  555MOL0     C73177   7.520   6.371   6.808  0.3180  0.4964 -0.3899
  555MOL0     N73178   7.758   6.182   7.612  0.2413 -0.7591 -0.3077
  555MOL0     N73179   7.686   6.074   7.646  0.1096  1.0418  0.5344
  555MOL0     C73180   7.325   4.915   7.768 -0.1428  0.5642  0.1051
  555MOL0     C73181   7.284   4.829   7.866  0.2703  0.2809 -0.3501
  555MOL0     C73182   6.952   4.606   8.088  1.0236  1.2783 -0.1696
  555MOL0     C73183   7.004   4.581   8.213  0.3542 -0.7884  0.1439
  555MOL0     C73184   6.933   4.507   8.306 -0.1297  0.6494 -0.1237
  555MOL0     C73185   6.812   4.444   8.271 -1.0340 -0.1343 -0.0671
  555MOL0     O73186   6.753   4.366   8.368  0.1514 -0.0512  0.3169
  555MOL0     C73187   6.620   4.317   8.343  0.4324  0.0303  0.8841
  555MOL0     C73188   6.579   4.243   8.468  0.0648 -0.1108  0.4228
  555MOL0     C73189   6.429   4.206   8.463  0.1480 -0.1432  1.2556
  555MOL0     C73190   6.390   4.094   8.553  0.1825 -0.4734  0.6749
  555MOL0     C73191   6.434   3.962   8.512  0.6120 -0.1125 -0.4529
  555MOL0     C73192   6.456   3.843   8.492 -0.2514 -0.1497  0.6329
  555MOL0     C73193   6.751   4.476   8.144 -0.4046 -1.0186 -0.2046
  555MOL0     C73194   6.828   4.553   8.051  1.4283  0.5061  0.0335
  555MOL0     H73195   7.009   5.004   7.975 -0.2770 -1.6248 -1.8875
  555MOL0     H73196   7.077   5.150   7.792  0.8983  0.9948 -2.0026
  555MOL0     H73197   7.368   5.010   7.513 -0.3950 -1.9805  1.4077
  555MOL0     H73198   7.486   5.097   7.618  0.0361 -1.6824 -0.8515
  555MOL0     H73199   7.329   5.244   7.394  0.1166  2.4702  0.4628
  555MOL0     H73200   7.500   5.220   7.407 -0.6408 -0.3854 -0.5248
  555MOL0     H73201   7.485   5.352   7.625 -1.5322 -3.9068  1.8637
  555MOL0     H73202   7.320   5.401   7.588  1.4389 -0.6877  2.6317
  555MOL0     H73203   7.562   5.418   7.406 -0.6289 -0.8052  0.5070
  555MOL0     H73204   7.406   5.471   7.346 -1.7593 -1.2675  0.5423
  555MOL0     H73205   7.537   5.599   7.594  2.7087 -1.0376 -1.3405
  555MOL0     H73206   7.396   5.667   7.498 -0.4483 -0.2218 -1.6989
  555MOL0     H73207   7.560   5.706   7.312  0.6146  4.5951  0.0141
  555MOL0     H73208   7.679   5.613   7.404 -1.5659 -0.8989  2.0560
  555MOL0     H73209   7.713   5.765   7.581  1.5200 -5.1645 -2.5454
  555MOL0     H73210   7.729   5.846   7.429  0.1103  1.2806  0.9714
  555MOL0     H73211   7.496   5.865   7.625 -2.5497 -0.1500 -1.4461
  555MOL0     H73212   7.466   5.895   7.454  1.8628  1.9855 -1.5051
  555MOL0     H73213   7.577   6.122   7.349  1.1458  4.0045 -0.4773
  555MOL0     H73214   7.856   6.369   7.425  0.0978  1.9012 -2.1481
  555MOL0     H73215   7.677   6.395   7.414  1.3858  0.4350 -0.4206
  555MOL0     H73216   7.680   6.261   7.210 -0.0252 -0.4880  3.2953
  555MOL0     H73217   7.866   6.261   7.230 -0.4574  0.4681 -0.7035
  555MOL0     H73218   7.829   6.515   7.233 -0.8875  0.8419 -1.0527
  555MOL0     H73219   7.879   6.416   7.099 -0.8579 -2.3969 -0.0572
  555MOL0     H73220   7.711   6.589   7.039 -2.8137  1.3178 -0.0498
  555MOL0     H73221   7.596   6.543   7.169  2.2085 -0.0199  1.1989
  555MOL0     H73222   7.521   6.669   6.962 -0.2540  1.5097 -1.8910
  555MOL0     H73223   7.427   6.747   6.759  2.8323  0.2073 -2.8733
  555MOL0     H73224   7.101   6.898   6.616 -1.4409  1.7488 -0.3900
  555MOL0     H73225   6.975   7.023   6.459 -0.4471 -0.5152  2.3114
  555MOL0     H73226   6.901   6.810   6.094  2.5309  2.5731 -3.3419
  555MOL0     H73227   6.818   6.962   6.049 -0.7343 -1.4057 -0.7841
  555MOL0     H73228   6.763   6.822   6.310 -1.9925  0.0728 -0.1822
  555MOL0     H73229   6.652   6.841   6.164  0.4414 -1.0318 -0.3134
  555MOL0     H73230   6.660   7.074   6.174 -1.3098 -2.5634 -1.2179
  555MOL0     H73231   6.742   7.074   6.337 -3.0293 -1.4219  3.6098
  555MOL0     H73232   6.464   6.957   6.294  3.3548 -1.5038 -2.2346
  555MOL0     H73233   6.560   6.993   6.447 -1.9363  3.0003  1.9235
  555MOL0     H73234   6.382   7.143   6.424  0.2193  1.7399  0.7488
  555MOL0     H73235   6.407   7.170   6.252 -1.9761 -1.1781  0.5446
  555MOL0     H73236   6.625   7.281   6.353  0.3357 -0.9752  0.5161
  555MOL0     H73237   6.555   7.233   6.505 -2.0011  0.3067  1.3827
  555MOL0     H73238   6.522   7.464   6.467  0.7161 -2.0109 -0.7807
  555MOL0     H73239   6.410   7.439   6.322 -3.6134  0.5203  0.2861
  555MOL0     H73240   6.261   7.311   6.465  2.7693 -2.9705 -0.1096
  555MOL0     H73241   6.275   7.484   6.496  1.4929 -0.5898 -3.3421
  555MOL0     H73242   7.130   6.779   6.138 -3.9098 -1.1245  0.6110
  555MOL0     H73243   7.277   6.681   6.274 -1.0187 -2.0366 -0.7510
  555MOL0     H73244   7.393   6.337   6.635  1.5043 -1.2876  1.9075
  555MOL0     H73245   7.561   6.270   6.812 -0.6204  0.1276  0.0842
  555MOL0     H73246   7.408   4.888   7.703 -0.1428 -1.0735  0.7394
  555MOL0     H73247   7.328   4.737   7.902 -3.5570 -1.5639  0.2009
  555MOL0     H73248   7.093   4.627   8.254 -0.3574 -0.3464  1.2251
  555MOL0     H73249   6.977   4.482   8.402 -0.9234  2.5924  0.7822
  555MOL0     H73250   6.631   4.253   8.255  0.7746 -1.3016  1.8808
  555MOL0     H73251   6.554   4.403   8.322 -1.7744 -1.3118  1.9543
  555MOL0     H73252   6.643   4.156   8.484  1.1086  0.8296  1.4976
  555MOL0     H73253   6.599   4.309   8.553  0.2487  1.8030 -1.0458
  555MOL0     H73254   6.417   4.172   8.359  1.0633 -1.8545  1.6671
  555MOL0     H73255   6.370   4.295   8.484 -0.4902  0.6317 -2.8692
  555MOL0     H73256   6.422   4.119   8.655 -0.3224  0.3840  0.6354
  555MOL0     H73257   6.281   4.094   8.557  0.1375 -1.4021 -0.2124
  555MOL0     H73258   6.460   3.742   8.457  1.7365  1.3339 -4.3916
  555MOL0     H73259   6.653   4.446   8.109 -0.4829  0.6219 -1.5368
  555MOL0     H73260   6.778   4.576   7.958  2.7211 -2.5445 -1.5792
  556MOL0     O73261   7.244   1.831   0.201  0.9278  0.2724 -0.1186
  556MOL0     C73262   7.251   1.743   0.278 -0.7833  0.8442  0.2323
  556MOL0     O73263   7.270   1.754   0.411 -0.3246  0.5872 -0.1286
  556MOL0     C73264   7.263   1.879   0.475 -0.9830 -0.1576  0.1906
  556MOL0     C73265   7.357   1.910   0.575 -0.2710 -0.4782 -0.3032
  556MOL0     C73266   7.348   2.025   0.658  0.1390 -0.3474 -0.0852
  556MOL0     C73267   7.249   2.122   0.626  0.5497  0.4285 -0.6386
  556MOL0     O73268   7.255   2.238   0.687  0.5936  0.3802 -0.5465
  556MOL0     C73269   7.254   2.245   0.833 -0.2094  0.1353 -0.1406
  556MOL0     C73270   7.121   2.216   0.888 -0.0465  0.0911  0.3416
  556MOL0     C73271   7.024   2.334   0.871  0.7492  0.6723  1.1115
  556MOL0     C73272   6.907   2.317   0.969  0.0261 -0.1169  0.1410
  556MOL0     C73273   6.822   2.450   0.955 -0.3930  0.1457 -0.0651
  556MOL0     C73274   6.895   2.557   1.048  0.1558 -0.1719  0.0748
  556MOL0     C73275   6.783   2.646   1.104  0.4143 -0.2294 -0.7344
  556MOL0     C73276   6.722   2.735   0.999 -0.8881 -0.4842 -0.0494
  556MOL0     N73277   6.608   2.825   1.050 -0.9945 -0.5103  0.3825
  556MOL0     C73278   6.629   2.904   1.159 -0.4321 -0.6194  1.2906
  556MOL0     C73279   6.518   2.976   1.163 -0.2132  0.7619 -0.9410
  556MOL0     C73280   6.491   3.089   1.260 -0.0364 -0.1979  0.1759
  556MOL0     C73281   6.495   3.223   1.178 -0.8919 -0.0224  0.8500
  556MOL0     C73282   6.640   3.250   1.153 -0.5703 -0.0522 -0.5415
  556MOL0     C73283   6.661   3.370   1.060  0.4127  0.9340 -0.5240
  556MOL0     O73284   6.633   3.477   1.152  0.0487 -0.2351  0.6689
  556MOL0     C73285   6.655   3.603   1.101  0.9550  0.1496  0.0368
  556MOL0     C73286   6.674   3.700   1.193  1.1129  0.2648 -0.3930
  556MOL0     C73287   6.669   3.839   1.161 -0.3330  0.5647 -0.5215
  556MOL0     C73288   6.671   3.874   1.031 -0.0311  0.0754 -0.2274
  556MOL0     C73289   6.662   4.023   1.003  0.2389  0.4604  0.0439
  556MOL0     O73290   6.630   4.048   0.876 -0.1047  0.2021  0.0276
  556MOL0     C73291   6.576   4.168   0.837  0.2069  0.0652  0.0499
  556MOL0     C73292   6.630   4.229   0.727 -0.6778 -0.3891  0.8029
  556MOL0     C73293   6.588   4.354   0.671  0.3909  0.6984 -0.2359
  556MOL0     C73294   6.475   4.408   0.743 -0.9388 -0.5377  0.0556
  556MOL0     O73295   6.433   4.533   0.695 -0.7384 -1.3656  0.0519
  556MOL0     C73296   6.293   4.555   0.672 -0.4398 -0.1835  0.0609
  556MOL0     C73297   6.271   4.609   0.532  0.0349  0.4939  1.0017
  556MOL0     C73298   6.131   4.631   0.496  0.0527 -0.6452  0.6295
  556MOL0     C73299   6.073   4.747   0.590  0.2200 -0.1700 -0.5013
  556MOL0     C73300   5.924   4.771   0.556 -0.1647 -0.0911 -0.3851
  556MOL0     C73301   5.861   4.858   0.656  0.8119  0.2301 -0.0693
  556MOL0     C73302   5.713   4.868   0.626 -0.3056 -0.5233 -0.5873
  556MOL0     C73303   5.669   5.016   0.632  0.0323  0.0072  0.6073
  556MOL0    Cl73304   5.708   5.117   0.782 -0.3456 -0.1442  0.2173
  556MOL0     C73305   6.405   4.341   0.853  0.0752 -0.0112  1.2339
  556MOL0     C73306   6.468   4.223   0.897 -0.4058  0.1543 -0.0518
  556MOL0     O73307   6.689   4.113   1.088 -0.3134  0.5828 -0.1374
  556MOL0     C73308   6.659   3.774   0.937  0.1586 -0.3915  0.0349
  556MOL0     C73309   6.644   3.643   0.966  0.7376 -0.7117 -0.6471
  556MOL0     N73310   6.429   2.930   1.059 -0.2509 -0.1638 -0.3734
  556MOL0     N73311   6.484   2.839   0.988 -0.2381  0.0876 -0.4419
  556MOL0     C73312   7.147   2.084   0.531 -0.0842 -0.2414  0.3899
  556MOL0     C73313   7.157   1.967   0.454  0.2578  0.7548  0.2406
  556MOL0     C73314   7.268   1.604   0.220 -0.0132 -0.9412 -0.2885
  556MOL0     C73315   7.360   1.508   0.273  0.6776  0.6028 -0.1460
  556MOL0     C73316   7.377   1.375   0.221 -0.4044  0.4970 -0.4734
  556MOL0     C73317   7.312   1.343   0.106  0.6150 -0.3187  0.7617
  556MOL0     O73318   7.304   1.224   0.037 -0.2658 -0.0011  0.2319
  556MOL0     C73319   7.325   1.100   0.107 -0.2573  0.1658  0.0388
  556MOL0     C73320   7.205   1.070   0.198  0.3973 -0.3020  0.4956
  556MOL0     C73321   7.063   1.074   0.137  0.7349 -0.5156  0.1248
  556MOL0     C73322   6.959   1.060   0.253  0.3248 -0.1189 -0.2298
  556MOL0     C73323   6.922   0.920   0.307 -1.2612  0.6203 -0.5194
  556MOL0     C73324   6.873   0.820   0.362  0.8111  0.0758 -0.0833
  556MOL0     C73325   7.244   1.446   0.039 -0.5704  0.5949 -0.4984
  556MOL0     C73326   7.221   1.567   0.095  0.3413  0.1300  0.4312
  556MOL0     H73327   7.449   1.854   0.589  0.2916  0.6888  0.8578
  556MOL0     H73328   7.425   2.032   0.734  0.2266 -0.6716 -0.1450
  556MOL0     H73329   7.279   2.341   0.880 -0.3396 -2.1457  5.4030
  556MOL0     H73330   7.323   2.177   0.884  0.9035  1.2958 -0.0276
  556MOL0     H73331   7.128   2.198   0.996  0.7192  0.5947  0.3842
  556MOL0     H73332   7.074   2.130   0.839  1.6101 -1.4022  1.2504
  556MOL0     H73333   6.987   2.333   0.768  2.1929 -1.0299  0.5614
  556MOL0     H73334   7.077   2.426   0.899  1.4995  0.5255  0.1947
  556MOL0     H73335   6.850   2.231   0.933  1.8772 -1.6104  0.5986
  556MOL0     H73336   6.939   2.302   1.073  0.3622  2.7292  0.5315
  556MOL0     H73337   6.720   2.431   0.990  0.9514 -2.8483  2.7110
  556MOL0     H73338   6.819   2.486   0.851  2.4498  0.4143 -0.1287
  556MOL0     H73339   6.972   2.608   0.990 -0.5726  0.0629 -0.7048
  556MOL0     H73340   6.936   2.506   1.136 -0.4113 -1.8376 -0.5682
  556MOL0     H73341   6.698   2.588   1.140 -1.3987  2.1520 -0.9474
  556MOL0     H73342   6.826   2.709   1.183  1.3593 -2.4582  0.6164
  556MOL0     H73343   6.689   2.690   0.905  0.2564 -0.8923 -0.2734
  556MOL0     H73344   6.807   2.796   0.967  0.0241 -1.1629  1.0344
  556MOL0     H73345   6.721   2.920   1.215 -0.0143 -4.0216  1.7698
  556MOL0     H73346   6.563   3.086   1.343 -1.1041 -0.5236  1.1236
  556MOL0     H73347   6.395   3.090   1.311 -1.3957  0.7044 -2.2514
  556MOL0     H73348   6.455   3.301   1.243  0.8971 -0.0702  2.0886
  556MOL0     H73349   6.444   3.206   1.083  1.8478  1.3785 -1.0019
  556MOL0     H73350   6.696   3.268   1.245  0.9608  0.1519 -1.4774
  556MOL0     H73351   6.676   3.168   1.090  0.1217 -0.8285  0.8026
  556MOL0     H73352   6.590   3.361   0.977 -3.4888 -3.5201  2.7052
  556MOL0     H73353   6.760   3.380   1.017  1.0160 -1.1834  0.2802
  556MOL0     H73354   6.670   3.684   1.300  0.0586  0.1849 -0.4348
  556MOL0     H73355   6.673   3.919   1.234 -1.6821  0.5653 -0.4235
  556MOL0     H73356   6.699   4.176   0.663 -0.7798  0.7463 -0.3009
  556MOL0     H73357   6.628   4.408   0.586  2.9311  0.9515  1.0165
  556MOL0     H73358   6.266   4.631   0.745 -0.1309 -0.1091  0.0989
  556MOL0     H73359   6.237   4.462   0.688  0.0409 -0.6843 -1.0300
  556MOL0     H73360   6.302   4.535   0.458  1.7049 -1.2067  3.2774
  556MOL0     H73361   6.313   4.708   0.517 -0.6803  0.7675  0.7679
  556MOL0     H73362   6.079   4.537   0.516  3.9875 -3.4768 -0.9905
  556MOL0     H73363   6.121   4.658   0.391  0.9196  3.7917  1.5076
  556MOL0     H73364   6.079   4.718   0.695  1.0918 -2.0699 -1.0370
  556MOL0     H73365   6.123   4.844   0.582  0.8199 -0.3655  0.6745
  556MOL0     H73366   5.858   4.685   0.545 -1.7056  0.8303  1.2711
  556MOL0     H73367   5.935   4.820   0.459  2.5427  1.0098  0.3757
  556MOL0     H73368   5.910   4.955   0.648  0.6119  0.2281 -1.7618
  556MOL0     H73369   5.879   4.824   0.758  1.0752 -0.2689 -0.2779
  556MOL0     H73370   5.692   4.829   0.526  0.8059  0.5499 -1.2615
  556MOL0     H73371   5.656   4.804   0.694 -1.2440  0.3293 -0.5398
  556MOL0     H73372   5.562   5.026   0.617  0.3111  1.7972 -0.4523
  556MOL0     H73373   5.716   5.062   0.544  3.2429 -1.1147  1.5651
  556MOL0     H73374   6.319   4.390   0.898 -0.5832 -1.3767  1.5121
  556MOL0     H73375   6.438   4.169   0.986  0.8764  3.1172  2.3595
  556MOL0     H73376   6.636   3.796   0.833 -3.3597 -1.4074  0.4575
  556MOL0     H73377   6.628   3.564   0.893 -2.2509 -0.3980 -0.4325
  556MOL0     H73378   7.069   2.157   0.513 -0.9906 -1.5943 -1.4434
  556MOL0     H73379   7.076   1.935   0.390  0.6334  0.7028 -0.2119
  556MOL0     H73380   7.414   1.530   0.364  0.6889 -1.6626  0.4457
  556MOL0     H73381   7.444   1.304   0.269 -1.1029  0.5615  0.6207
  556MOL0     H73382   7.412   1.097   0.174  0.2892  0.0146 -0.6731
  556MOL0     H73383   7.334   1.026   0.027  1.8760  0.5751 -0.1458
  556MOL0     H73384   7.223   0.979   0.257 -3.7926 -0.7034  1.5090
  556MOL0     H73385   7.196   1.152   0.269 -1.5505  0.9439 -1.1102
  556MOL0     H73386   7.048   0.991   0.067  1.4072 -0.3626 -0.2046
  556MOL0     H73387   7.044   1.164   0.078  0.0455 -1.0778 -0.5458
  556MOL0     H73388   6.989   1.114   0.343 -0.0910  1.5102 -1.0464
  556MOL0     H73389   6.861   1.097   0.223 -0.3408 -0.0389  1.8541
  556MOL0     H73390   6.831   0.725   0.391 -1.1646  0.2249 -2.2007
  556MOL0     H73391   7.206   1.421  -0.060 -0.2916 -0.7887 -0.2816
  556MOL0     H73392   7.166   1.628   0.024  1.0624 -0.1277 -0.3650
  557MOL0     O73393   3.185   6.836   6.419 -0.7951 -0.4093 -0.1123
  557MOL0     C73394   3.227   6.858   6.537  0.9228  0.5979  0.9329
  557MOL0     O73395   3.314   6.774   6.606 -0.2099  1.3430 -0.5801
  557MOL0     C73396   3.337   6.638   6.572  0.0715 -0.9947 -0.0613
  557MOL0     C73397   3.442   6.580   6.633  0.3079  0.0358 -0.5209
  557MOL0     C73398   3.470   6.444   6.615 -0.3950  0.2786  0.5905
  557MOL0     C73399   3.398   6.364   6.525 -0.2628  0.2948 -0.5060
  557MOL0     O73400   3.431   6.234   6.500  0.4870  0.6381  0.4718
  557MOL0     C73401   3.386   6.177   6.375  1.0634 -0.2995 -0.4904
  557MOL0     C73402   3.269   6.084   6.392  0.0903  0.3191 -0.5742
  557MOL0     C73403   3.224   6.018   6.260  0.2203 -0.3600 -0.6028
  557MOL0     C73404   3.320   5.947   6.156 -0.3021 -0.2290  0.4878
  557MOL0     C73405   3.414   5.843   6.211 -0.0672  0.5289 -1.0041
  557MOL0     C73406   3.350   5.706   6.236  0.4573  0.1740 -0.2343
  557MOL0     C73407   3.449   5.588   6.263  0.3738  0.8996  0.1508
  557MOL0     C73408   3.524   5.577   6.396 -0.5850 -0.3742 -0.2935
  557MOL0     N73409   3.421   5.584   6.508  0.2462  0.0352 -0.1926
  557MOL0     C73410   3.424   5.684   6.604 -0.6193  0.2472 -0.6054
  557MOL0     C73411   3.306   5.673   6.670 -0.1030 -0.2703 -0.4532
  557MOL0     C73412   3.269   5.753   6.795 -0.3736  1.1837 -1.0393
  557MOL0     C73413   3.245   5.897   6.764 -0.6314  0.7225  0.2442
  557MOL0     C73414   3.194   5.970   6.886  0.4538  0.2959 -0.2453
  557MOL0     C73415   3.156   6.113   6.836  0.0238  1.5388  0.2297
  557MOL0     O73416   3.083   6.162   6.944  0.4553 -0.3389 -0.5173
  557MOL0     C73417   3.084   6.298   6.966 -0.2922  0.0666 -0.1265
  557MOL0     C73418   3.167   6.393   6.895 -0.6317 -0.3651 -0.2134
  557MOL0     C73419   3.183   6.527   6.939  0.2218 -1.3233 -0.2815
  557MOL0     C73420   3.105   6.568   7.053 -0.6017  0.5295  0.1572
  557MOL0     C73421   3.095   6.713   7.080  0.1661  0.5262 -0.1210
  557MOL0     O73422   3.039   6.738   7.195 -0.7510  0.0043 -0.1437
  557MOL0     C73423   3.012   6.866   7.234  0.4465  0.2228  0.1210
  557MOL0     C73424   3.108   6.966   7.262  0.8383  0.2331 -0.2510
  557MOL0     C73425   3.079   7.085   7.333  0.7831  0.3503 -0.9112
  557MOL0     C73426   2.942   7.110   7.352  0.2599 -1.2154 -0.3129
  557MOL0     O73427   2.915   7.229   7.415  0.9655  0.0489  0.4117
  557MOL0     C73428   2.795   7.296   7.355 -0.3649 -0.3092 -0.7051
  557MOL0     C73429   2.799   7.448   7.389  0.0417 -0.4285  0.4469
  557MOL0     C73430   2.796   7.497   7.531  0.5384 -0.2052 -0.1663
  557MOL0     C73431   2.679   7.454   7.610 -0.1933  0.0357  0.6232
  557MOL0     C73432   2.688   7.516   7.746 -0.4659  0.6989  0.7192
  557MOL0     C73433   2.590   7.441   7.841  0.2695 -0.4402 -1.5469
  557MOL0     C73434   2.443   7.496   7.830  0.2607  0.6697 -0.1315
  557MOL0     C73435   2.420   7.620   7.924 -0.9254  0.3144 -0.5582
  557MOL0    Cl73436   2.246   7.653   7.930  0.4401 -0.2438 -0.4032
  557MOL0     C73437   2.845   7.006   7.324 -0.8358  1.5072  0.1400
  557MOL0     C73438   2.879   6.885   7.272  0.1421  0.5190  0.5521
  557MOL0     O73439   3.145   6.793   7.000 -0.3960  0.1451 -0.0885
  557MOL0     C73440   3.015   6.479   7.112 -0.1518  1.1438  0.1314
  557MOL0     C73441   3.016   6.349   7.074  0.0232  0.3419 -0.8263
  557MOL0     N73442   3.235   5.563   6.611  0.5197 -0.1105 -0.0240
  557MOL0     N73443   3.304   5.509   6.511 -0.5041 -0.7969  0.4745
  557MOL0     C73444   3.282   6.425   6.473 -0.0256  0.5691  0.1806
  557MOL0     C73445   3.254   6.560   6.485 -1.2184 -0.0062  0.4931
  557MOL0     C73446   3.186   6.979   6.612 -0.0962 -0.6992 -0.2417
  557MOL0     C73447   3.211   6.993   6.749  0.0153  0.1994  0.1942
  557MOL0     C73448   3.178   7.106   6.817 -0.3876  1.4025 -0.1764
  557MOL0     C73449   3.112   7.209   6.756  0.3887  0.0280  0.6039
  557MOL0     O73450   3.076   7.329   6.814 -0.1709  0.2111  0.6264
  557MOL0     C73451   3.061   7.342   6.953 -0.4721 -0.3729 -0.1752
  557MOL0     C73452   3.184   7.380   7.024  0.3723 -0.7259 -0.8748
  557MOL0     C73453   3.170   7.406   7.179  0.6732  0.5712  1.2541
  557MOL0     C73454   3.195   7.545   7.228 -0.1217  0.1851  0.6425
  557MOL0     C73455   3.104   7.639   7.153  0.7301  0.3761  0.0146
  557MOL0     C73456   3.017   7.696   7.099 -0.5182  0.5059  0.7797
  557MOL0     C73457   3.092   7.201   6.621  0.2018  0.8302  1.0572
  557MOL0     C73458   3.133   7.087   6.546 -1.1459 -0.2030  0.1658
  557MOL0     H73459   3.490   6.640   6.710 -0.4768  1.3052 -0.9817
  557MOL0     H73460   3.556   6.396   6.661 -0.6646 -0.6269  0.1738
  557MOL0     H73461   3.477   6.125   6.343  0.5430 -1.6279  0.1173
  557MOL0     H73462   3.356   6.242   6.293 -0.1105  0.3986  0.4655
  557MOL0     H73463   3.183   6.135   6.437  1.7379  0.1149  3.1772
  557MOL0     H73464   3.286   6.007   6.467  4.0169  1.9470  0.4474
  557MOL0     H73465   3.168   6.099   6.212  1.5482 -0.9381 -3.3499
  557MOL0     H73466   3.152   5.941   6.288 -2.0605  2.1465  0.9030
  557MOL0     H73467   3.271   5.914   6.064  1.1310  2.4836 -1.3837
  557MOL0     H73468   3.389   6.024   6.121 -0.7741 -0.3756 -0.8526
  557MOL0     H73469   3.456   5.880   6.306 -1.8230  1.6193 -0.6056
  557MOL0     H73470   3.496   5.835   6.139 -0.4599  0.3971 -1.4420
  557MOL0     H73471   3.295   5.669   6.149 -0.6934  0.2569  0.4378
  557MOL0     H73472   3.286   5.726   6.322  2.2101  4.2631  0.3769
  557MOL0     H73473   3.396   5.493   6.251  3.4792 -1.1064  1.2484
  557MOL0     H73474   3.525   5.587   6.184  0.1594  0.0162 -0.0481
  557MOL0     H73475   3.586   5.666   6.414  0.1264 -1.0777  0.8897
  557MOL0     H73476   3.591   5.491   6.404 -0.3293 -0.0378  1.6212
  557MOL0     H73477   3.503   5.753   6.633  0.6154 -1.8505  1.4551
  557MOL0     H73478   3.352   5.744   6.866  1.6594  1.3846 -3.2695
  557MOL0     H73479   3.180   5.706   6.839  1.1208 -2.2197 -1.3486
  557MOL0     H73480   3.165   5.905   6.690 -3.0568  2.4665  2.8637
  557MOL0     H73481   3.340   5.939   6.728  0.6026 -0.1815  2.2869
  557MOL0     H73482   3.105   5.916   6.919  0.6438 -0.1714 -0.4831
  557MOL0     H73483   3.250   5.981   6.979  0.4847 -2.1978  0.0937
  557MOL0     H73484   3.096   6.110   6.745 -0.0749 -0.1414  0.3290
  557MOL0     H73485   3.248   6.165   6.807 -2.4217  4.5038 -3.0978
  557MOL0     H73486   3.217   6.360   6.805 -0.6411 -0.3374 -0.2284
  557MOL0     H73487   3.253   6.603   6.905  1.6340 -0.0883  4.6171
  557MOL0     H73488   3.213   6.942   7.245  0.3639 -1.8518 -0.5662
  557MOL0     H73489   3.155   7.159   7.358 -0.8470  0.8134  3.5433
  557MOL0     H73490   2.708   7.244   7.397  0.1889 -0.8270 -0.1796
  557MOL0     H73491   2.791   7.295   7.246 -0.7761  1.7730 -0.7461
  557MOL0     H73492   2.706   7.481   7.340  0.8469  1.0287 -0.1616
  557MOL0     H73493   2.882   7.504   7.345 -1.7892  1.4644 -0.8397
  557MOL0     H73494   2.797   7.606   7.518 -0.8034 -0.1966 -0.4147
  557MOL0     H73495   2.890   7.475   7.581  0.3098  0.1817  0.4417
  557MOL0     H73496   2.588   7.487   7.560 -0.0223 -0.6852 -0.1812
  557MOL0     H73497   2.685   7.346   7.623 -1.0612 -0.2971 -1.3910
  557MOL0     H73498   2.666   7.623   7.745  1.6271  1.1744 -0.6857
  557MOL0     H73499   2.784   7.501   7.795 -1.8345  2.5305  4.2938
  557MOL0     H73500   2.609   7.453   7.948  1.1592  1.0120 -1.8411
  557MOL0     H73501   2.590   7.334   7.822 -2.7962 -1.3815  2.3181
  557MOL0     H73502   2.409   7.508   7.727  1.5878 -1.3225 -0.8652
  557MOL0     H73503   2.378   7.424   7.882 -1.5398  2.3276  0.0285
  557MOL0     H73504   2.470   7.705   7.877 -2.9061  1.9177  0.1108
  557MOL0     H73505   2.456   7.599   8.025 -2.0571 -0.9077 -0.3769
  557MOL0     H73506   2.737   7.015   7.334 -1.1323  1.7506 -2.5202
  557MOL0     H73507   2.806   6.810   7.242  0.9627  0.0418 -0.2951
  557MOL0     H73508   2.961   6.510   7.201  0.8918 -1.4726  1.7804
  557MOL0     H73509   2.951   6.285   7.133  0.2142  0.4111 -0.5348
  557MOL0     H73510   3.212   6.368   6.412  0.7302  1.3354 -1.4730
  557MOL0     H73511   3.171   6.597   6.427  0.4713  0.8776 -1.5012
  557MOL0     H73512   3.277   6.920   6.796  0.0136  1.1870  1.7961
  557MOL0     H73513   3.218   7.115   6.917  0.3649  1.4029 -0.4704
  557MOL0     H73514   3.039   7.243   6.995 -0.4117  0.0861  0.9597
  557MOL0     H73515   2.980   7.412   6.975 -0.5680 -0.8791  1.2201
  557MOL0     H73516   3.274   7.321   7.000  1.2011  0.2767 -0.3036
  557MOL0     H73517   3.206   7.475   6.974 -1.2516  0.5785  0.8070
  557MOL0     H73518   3.238   7.339   7.231  1.6144  1.4802  1.2154
  557MOL0     H73519   3.069   7.372   7.205  0.8914 -0.4678  0.8177
  557MOL0     H73520   3.175   7.541   7.336  1.4541  0.4021  0.9575
  557MOL0     H73521   3.300   7.572   7.220  0.1932 -0.8345  1.1735
  557MOL0     H73522   2.947   7.761   7.050  0.7113  1.1731 -0.1522
  557MOL0     H73523   3.043   7.282   6.568  0.8583  0.2474 -0.5247
  557MOL0     H73524   3.120   7.085   6.438  1.0935  2.7803 -0.2697
  558MOL0     O73525   9.977   9.757  10.914  0.0019  1.0361  0.1290
  558MOL0     C73526   9.996   9.802  10.805  0.1394 -0.1044  0.1445
  558MOL0     O73527   9.952   9.922  10.763  0.1435  0.1173 -0.5268
  558MOL0     C73528   9.897  10.007  10.851  0.3282 -1.0421  0.5197
  558MOL0     C73529   9.762   9.986  10.899 -0.4799  0.0965  0.5500
  558MOL0     C73530   9.699  10.076  10.971  0.2517  0.0831  0.1194
  558MOL0     C73531   9.759  10.193  11.005 -0.7815 -0.2491 -0.1351
  558MOL0     O73532   9.690  10.286  11.081 -0.5742  0.4434 -0.8526
  558MOL0     C73533   9.620  10.227  11.195 -0.3922 -0.4617  0.0316
  558MOL0     C73534   9.587  10.344  11.292  0.1955  0.5528 -1.0514
  558MOL0     C73535   9.550  10.297  11.434  0.1993  1.4215 -1.0917
  558MOL0     C73536   9.482  10.398  11.524  0.7128 -0.7054 -0.6362
  558MOL0     C73537   9.330  10.417  11.500 -0.2966  0.0798  0.0344
  558MOL0     C73538   9.288  10.538  11.587 -0.9796 -0.9449 -0.0420
  558MOL0     C73539   9.160  10.597  11.541 -0.4093  0.2270 -0.2620
  558MOL0     C73540   9.114  10.716  11.621  0.3505 -0.1508  0.1646
  558MOL0     N73541   8.988  10.780  11.563  0.1559 -1.2882  0.3413
  558MOL0     C73542   8.985  10.914  11.517 -0.5849 -0.0406 -0.7998
  558MOL0     C73543   8.855  10.945  11.517  0.0125 -0.1176 -0.5680
  558MOL0     C73544   8.797  11.073  11.489  0.2726  0.8940 -0.4452
  558MOL0     C73545   8.671  11.065  11.392 -0.1182 -0.3709  0.5872
  558MOL0     C73546   8.596  11.202  11.387  0.4079 -0.2060  0.0956
  558MOL0     C73547   8.446  11.179  11.349  0.0289 -0.1236 -0.0191
  558MOL0     O73548   8.379  11.095  11.440  0.1750  0.6086  0.2277
  558MOL0     C73549   8.264  11.034  11.414  0.0259  0.0737  0.5694
  558MOL0     C73550   8.218  10.949  11.512  0.2177  0.1449  0.7104
  558MOL0     C73551   8.099  10.876  11.498 -0.7859  0.1480  0.1465
  558MOL0     C73552   8.022  10.892  11.379  0.4648 -1.5520 -0.3323
  558MOL0     C73553   7.893  10.831  11.368  0.2106 -0.2322  0.4104
  558MOL0     O73554   7.819  10.857  11.253 -0.1570 -0.0720 -0.4907
  558MOL0     C73555   7.693  10.795  11.246 -0.2622 -0.7132  0.0379
  558MOL0     C73556   7.663  10.666  11.289  0.4645 -0.2553 -0.2265
  558MOL0     C73557   7.548  10.596  11.245  0.1500  0.2721 -0.1005
  558MOL0     C73558   7.454  10.670  11.176 -0.2131  0.2503  0.3645
  558MOL0     O73559   7.330  10.602  11.154 -0.9394 -0.0304  0.4206
  558MOL0     C73560   7.218  10.654  11.221 -0.4791  0.1152 -0.0810
  558MOL0     C73561   7.125  10.708  11.117 -0.5220 -0.2044 -0.3937
  558MOL0     C73562   6.981  10.711  11.155 -0.6114 -0.6891 -0.7801
  558MOL0     C73563   6.887  10.717  11.030 -1.8837  1.0756  0.6989
  558MOL0     C73564   6.744  10.693  11.063 -0.1759  0.3815  0.0178
  558MOL0     C73565   6.643  10.809  11.051 -0.8030  0.5262  1.0756
  558MOL0     C73566   6.679  10.915  11.161  0.2902  0.1909 -0.0573
  558MOL0     C73567   6.562  11.022  11.177 -0.5992  0.2451 -0.3223
  558MOL0    Cl73568   6.532  11.086  11.009  0.3653 -0.2052 -0.1260
  558MOL0     C73569   7.485  10.799  11.117  0.3388 -0.0025 -0.0196
  558MOL0     C73570   7.599  10.863  11.159 -0.4554 -0.1116  0.5758
  558MOL0     O73571   7.854  10.780  11.471  0.4631  0.2983  0.0440
  558MOL0     C73572   8.071  10.978  11.277 -0.4765 -0.5597 -0.8472
  558MOL0     C73573   8.188  11.051  11.296 -0.0436  0.5323  0.5820
  558MOL0     N73574   8.783  10.832  11.537 -0.4931 -0.3613  0.0345
  558MOL0     N73575   8.861  10.730  11.568 -0.0125 -0.7731 -0.2494
  558MOL0     C73576   9.890  10.223  10.976  0.4113  1.4737  0.8381
  558MOL0     C73577   9.957  10.122  10.897 -0.1961 -0.4795 -0.4070
  558MOL0     C73578  10.069   9.720  10.698  0.0081 -0.2700 -0.9160
  558MOL0     C73579  10.071   9.772  10.561  0.3196  0.7425 -0.5256
  558MOL0     C73580  10.135   9.693  10.466  0.6380  0.1124 -0.8071
  558MOL0     C73581  10.220   9.591  10.507  0.6561  0.4623  0.5133
  558MOL0     O73582  10.296   9.510  10.423  0.4775 -0.0037  0.5646
  558MOL0     C73583  10.366   9.567  10.306 -1.0945 -0.0863 -0.0397
  558MOL0     C73584  10.488   9.474  10.272 -0.0085 -0.0024 -0.7645
  558MOL0     C73585  10.445   9.352  10.189 -0.9561  0.6548  0.5697
  558MOL0     C73586  10.435   9.402  10.046  0.0130  0.3385  0.7281
  558MOL0     C73587  10.412   9.284   9.955 -0.0387  0.0165 -0.3357
  558MOL0     C73588  10.413   9.196   9.866  0.4454  0.3733 -0.0310
  558MOL0     C73589  10.228   9.547  10.642 -0.3533  0.0630 -0.3207
  558MOL0     C73590  10.146   9.609  10.735  0.0373 -0.5642  0.1367
  558MOL0     H73591   9.710   9.896  10.867  0.6264  0.0879 -1.3689
  558MOL0     H73592   9.593  10.064  10.992  0.5725 -2.7599  0.5040
  558MOL0     H73593   9.687  10.155  11.242  3.2135  1.2322 -2.0926
  558MOL0     H73594   9.525  10.182  11.164 -1.1562  1.5022 -0.6576
  558MOL0     H73595   9.505  10.399  11.247  1.2826  3.4064  0.2175
  558MOL0     H73596   9.678  10.403  11.306 -0.3073  0.9359  0.8462
  558MOL0     H73597   9.640  10.270  11.490  0.4246 -0.1843 -2.1643
  558MOL0     H73598   9.499  10.201  11.432  0.6976  1.1169  0.3166
  558MOL0     H73599   9.486  10.354  11.624 -3.5013 -1.8253 -0.7522
  558MOL0     H73600   9.528  10.497  11.527 -0.8661  0.0532  0.1546
  558MOL0     H73601   9.277  10.325  11.525 -0.2651  0.3360  1.0962
  558MOL0     H73602   9.314  10.426  11.392 -2.4860  0.6006  0.3471
  558MOL0     H73603   9.366  10.615  11.587 -2.7822  1.2297 -4.6414
  558MOL0     H73604   9.290  10.524  11.695 -0.5435 -1.6545 -0.1342
  558MOL0     H73605   9.164  10.624  11.435  0.6797 -3.4780 -1.3176
  558MOL0     H73606   9.087  10.515  11.543  1.8796 -2.0806 -2.3430
  558MOL0     H73607   9.195  10.789  11.621  0.2072  0.0846  2.9108
  558MOL0     H73608   9.097  10.682  11.723 -1.9019 -2.6082 -0.9010
  558MOL0     H73609   9.067  10.978  11.484 -0.6878  0.8474  0.6096
  558MOL0     H73610   8.873  11.132  11.437  2.0021 -1.2281 -0.4886
  558MOL0     H73611   8.783  11.122  11.585  1.2639  1.3799 -0.5382
  558MOL0     H73612   8.604  10.990  11.435 -1.8482  1.7165  1.7238
  558MOL0     H73613   8.697  11.028  11.293 -1.9806 -3.2517  1.0513
  558MOL0     H73614   8.606  11.239  11.489  2.5685 -2.3350  0.7549
  558MOL0     H73615   8.650  11.263  11.314  0.1712  0.8676  0.8034
  558MOL0     H73616   8.446  11.130  11.251  0.0393 -0.9159  0.3782
  558MOL0     H73617   8.396  11.276  11.337  1.3462  0.3027 -2.7769
  558MOL0     H73618   8.284  10.950  11.598  1.4640  0.9272 -0.2215
  558MOL0     H73619   8.063  10.818  11.582 -2.0385 -1.3471 -1.3558
  558MOL0     H73620   7.723  10.614  11.363 -2.4277  0.3399  2.7920
  558MOL0     H73621   7.509  10.501  11.280 -1.2571  0.3630 -1.3321
  558MOL0     H73622   7.236  10.736  11.291  0.0539  1.0674 -1.2858
  558MOL0     H73623   7.173  10.568  11.269  2.5214 -1.6859 -0.2544
  558MOL0     H73624   7.136  10.639  11.032 -0.0546 -0.2575 -0.2933
  558MOL0     H73625   7.159  10.802  11.073  1.6013 -1.2484 -1.1662
  558MOL0     H73626   6.970  10.803  11.213  3.5034 -0.3437 -0.2501
  558MOL0     H73627   6.961  10.621  11.215  2.2525 -2.8214 -2.7597
  558MOL0     H73628   6.894  10.816  10.985  1.3044  0.8741  0.5459
  558MOL0     H73629   6.930  10.635  10.972  3.0688  1.2233  3.5597
  558MOL0     H73630   6.737  10.641  11.159  1.8446  0.0053 -0.0038
  558MOL0     H73631   6.710  10.625  10.983 -0.2969 -0.7732  1.0185
  558MOL0     H73632   6.536  10.792  11.064 -1.5537  1.3627 -2.7738
  558MOL0     H73633   6.661  10.850  10.951  1.3021  0.0325  1.1947
  558MOL0     H73634   6.687  10.857  11.254 -1.9497  0.2516  0.2318
  558MOL0     H73635   6.772  10.967  11.141  0.7687  0.4964  2.5491
  558MOL0     H73636   6.597  11.107  11.237 -0.0096 -0.1807 -0.0608
  558MOL0     H73637   6.477  10.973  11.225  0.4669 -2.2109 -0.8071
  558MOL0     H73638   7.422  10.841  11.039 -0.2347 -1.1106 -0.1862
  558MOL0     H73639   7.628  10.964  11.134  0.6466 -0.0649  1.8840
  558MOL0     H73640   8.021  10.980  11.181 -0.3963 -2.1062 -0.9454
  558MOL0     H73641   8.232  11.096  11.208 -1.9449 -1.0728 -1.3080
  558MOL0     H73642   9.924  10.321  11.008  2.5557  0.4088  2.0534
  558MOL0     H73643  10.060  10.143  10.870 -0.0628  0.0243  0.4728
  558MOL0     H73644  10.024   9.867  10.538  0.5265  0.8775 -0.3941
  558MOL0     H73645  10.142   9.740  10.368  1.2542  1.7322 -0.0406
  558MOL0     H73646  10.401   9.668  10.331  1.7807 -1.8058  3.8800
  558MOL0     H73647  10.299   9.575  10.220 -0.3220  0.0648 -0.6487
  558MOL0     H73648  10.548   9.546  10.215  0.5835  1.6617  1.8091
  558MOL0     H73649  10.544   9.444  10.360 -1.8514 -1.0062  0.1327
  558MOL0     H73650  10.351   9.305  10.219 -0.8433  2.1602  3.6872
  558MOL0     H73651  10.529   9.282  10.188  1.1061  2.9705  1.4385
  558MOL0     H73652  10.346   9.464  10.033 -0.9665 -0.2944  3.6673
  558MOL0     H73653  10.527   9.449  10.008  0.9509 -0.9312  1.3652
  558MOL0     H73654  10.427   9.136   9.779  1.1466  2.3492 -1.3433
  558MOL0     H73655  10.302   9.474  10.675 -0.0271  0.0743 -0.9962
  558MOL0     H73656  10.142   9.568  10.836 -2.7744 -3.3748 -0.9461
  559MOL0     O73657   7.326   7.425   1.792 -0.4829 -0.3251  0.6101
  559MOL0     C73658   7.413   7.518   1.774 -0.1584 -0.4920  1.1807
  559MOL0     O73659   7.431   7.590   1.653  1.0033 -0.5331 -0.4205
  559MOL0     C73660   7.333   7.566   1.555  0.4743 -0.0715 -0.0184
  559MOL0     C73661   7.253   7.672   1.517 -0.3349  0.7078  1.1225
  559MOL0     C73662   7.154   7.635   1.418 -1.3893  0.2924 -0.1042
  559MOL0     C73663   7.125   7.505   1.382  0.5278  0.5412  0.1957
  559MOL0     O73664   7.034   7.489   1.280  0.5637  0.1514 -0.4164
  559MOL0     C73665   6.904   7.552   1.311 -0.0853  0.2166 -0.0800
  559MOL0     C73666   6.799   7.496   1.214 -0.0704  0.4094  0.6408
  559MOL0     C73667   6.789   7.588   1.093  0.9474 -0.4459  0.4314
  559MOL0     C73668   6.860   7.559   0.963  0.8559  0.3560 -0.1507
  559MOL0     C73669   7.003   7.596   0.967 -0.1013 -0.1426  0.4142
  559MOL0     C73670   7.032   7.753   0.942 -0.1602 -0.4551 -0.2858
  559MOL0     C73671   7.169   7.785   1.008 -0.6837  0.1341  0.7885
  559MOL0     C73672   7.279   7.725   0.916  0.2036 -0.5351  0.2602
  559MOL0     N73673   7.405   7.789   0.971  0.1286  0.4302  0.6028
  559MOL0     C73674   7.515   7.712   0.995 -0.5987  0.0908 -1.3015
  559MOL0     C73675   7.613   7.802   1.042 -0.3084 -0.2858 -0.5288
  559MOL0     C73676   7.764   7.785   1.074 -0.3064 -0.4071  0.5493
  559MOL0     C73677   7.853   7.859   0.973 -0.5127  0.1031 -0.8319
  559MOL0     C73678   7.979   7.928   1.032 -0.1694 -0.2393  0.1533
  559MOL0     C73679   8.097   7.841   1.082 -0.0558 -0.2076  0.1968
  559MOL0     O73680   8.207   7.928   1.110  0.1100  0.7531  0.0983
  559MOL0     C73681   8.284   7.874   1.205  0.5872 -0.0569 -0.7274
  559MOL0     C73682   8.268   7.908   1.339  0.6933 -0.2965 -0.4243
  559MOL0     C73683   8.341   7.828   1.426  0.0591  0.0807 -0.3582
  559MOL0     C73684   8.429   7.728   1.394 -0.5555  0.4743  0.7051
  559MOL0     C73685   8.517   7.652   1.485 -0.6766  0.2836 -0.0028
  559MOL0     O73686   8.650   7.655   1.464  0.7521 -0.9695 -0.3417
  559MOL0     C73687   8.728   7.595   1.560 -0.5422 -0.3044  0.4241
  559MOL0     C73688   8.822   7.503   1.519 -0.0823  0.4939 -0.2308
  559MOL0     C73689   8.921   7.447   1.606  1.0502  0.3000 -0.2650
  559MOL0     C73690   8.904   7.466   1.740 -0.1018  0.3605  0.2068
  559MOL0     O73691   8.995   7.398   1.823  0.0060  0.3763 -0.1873
  559MOL0     C73692   8.960   7.403   1.965 -0.0984  0.6024  0.0571
  559MOL0     C73693   9.062   7.338   2.057 -0.9705  0.6676 -0.5176
  559MOL0     C73694   9.207   7.396   2.035 -0.0502 -0.1738  0.5863
  559MOL0     C73695   9.310   7.329   2.129 -0.0555 -0.3244 -1.2598
  559MOL0     C73696   9.449   7.316   2.064  0.1162 -0.5525 -0.5394
  559MOL0     C73697   9.558   7.287   2.167  0.2805 -0.3082 -0.8627
  559MOL0     C73698   9.702   7.258   2.120  0.1897 -0.1916  0.0462
  559MOL0     C73699   9.808   7.316   2.208  0.4943 -0.1629 -0.7754
  559MOL0    Cl73700   9.973   7.335   2.133 -0.3156  0.2063  0.0530
  559MOL0     C73701   8.804   7.559   1.784  0.9359  0.1776  0.3943
  559MOL0     C73702   8.729   7.639   1.691 -0.2122 -0.3446  0.1773
  559MOL0     O73703   8.458   7.588   1.576  0.1180  0.0565 -0.2079
  559MOL0     C73704   8.448   7.693   1.269 -0.4792  0.5453  0.2725
  559MOL0     C73705   8.379   7.770   1.167  0.0007 -1.4255 -1.4768
  559MOL0     N73706   7.555   7.931   1.029  0.0060  0.2616  0.6519
  559MOL0     N73707   7.434   7.921   0.983  0.5426 -0.9632 -0.5001
  559MOL0     C73708   7.216   7.408   1.415  0.0538 -0.3838 -0.5618
  559MOL0     C73709   7.318   7.444   1.496 -0.2008  1.2055  0.2312
  559MOL0     C73710   7.518   7.556   1.880  0.7733  0.5262  0.7567
  559MOL0     C73711   7.559   7.465   1.965 -0.3120 -0.4848 -0.3256
  559MOL0     C73712   7.662   7.502   2.057 -0.0317 -0.3046 -0.2860
  559MOL0     C73713   7.705   7.632   2.071 -0.1039  0.2070  0.1503
  559MOL0     O73714   7.787   7.676   2.179  0.2641 -0.8849 -0.1460
  559MOL0     C73715   7.873   7.591   2.256  0.9410 -0.0892  0.5521
  559MOL0     C73716   7.978   7.678   2.314  0.6300 -0.0830 -0.0139
  559MOL0     C73717   8.083   7.603   2.399  0.1589 -0.1494 -0.0480
  559MOL0     C73718   8.029   7.526   2.513 -0.1536 -0.3731  0.6191
  559MOL0     C73719   8.131   7.469   2.607 -0.3114 -0.0038  0.8312
  559MOL0     C73720   8.205   7.415   2.681  0.3107  0.5339 -0.4982
  559MOL0     C73721   7.661   7.731   1.974  0.1879  1.0896  0.9837
  559MOL0     C73722   7.563   7.692   1.883 -1.0924 -0.5655 -0.1329
  559MOL0     H73723   7.252   7.767   1.569  2.0315 -0.7198  4.1485
  559MOL0     H73724   7.099   7.717   1.372 -1.1586  0.4055 -0.1830
  559MOL0     H73725   6.903   7.661   1.308 -1.0060  0.2163  0.0817
  559MOL0     H73726   6.877   7.525   1.413  0.4940  0.4514  0.1386
  559MOL0     H73727   6.698   7.491   1.256  0.3655  0.9040  1.7863
  559MOL0     H73728   6.830   7.395   1.186  0.0516  0.7104 -0.3622
  559MOL0     H73729   6.820   7.689   1.124  3.2672 -1.8875  3.2215
  559MOL0     H73730   6.684   7.588   1.063 -0.2970 -0.1201  4.2571
  559MOL0     H73731   6.852   7.452   0.940  1.5474  0.2594  0.0177
  559MOL0     H73732   6.805   7.609   0.883  1.0044 -0.8606 -1.0448
  559MOL0     H73733   7.047   7.556   0.875  2.2476  1.1201  0.8976
  559MOL0     H73734   7.063   7.548   1.045 -0.6118  1.4517  1.8512
  559MOL0     H73735   6.950   7.807   0.992  0.9577  1.6810 -0.6422
  559MOL0     H73736   7.013   7.796   0.844 -4.1104 -0.8404  0.1440
  559MOL0     H73737   7.178   7.894   1.009  1.0774  0.0861 -1.4893
  559MOL0     H73738   7.180   7.752   1.112 -3.7395  0.5418  1.3516
  559MOL0     H73739   7.265   7.755   0.811  1.6014 -4.5480 -1.2799
  559MOL0     H73740   7.277   7.616   0.912  1.9806 -0.5913 -2.9759
  559MOL0     H73741   7.527   7.609   0.964  2.3971  1.0508 -3.8090
  559MOL0     H73742   7.798   7.682   1.068 -3.3468 -1.5718  1.5278
  559MOL0     H73743   7.782   7.814   1.178 -2.2427 -0.9649  1.0842
  559MOL0     H73744   7.793   7.943   0.935  0.4311  0.0487 -2.5039
  559MOL0     H73745   7.873   7.796   0.886  0.4405  0.9494 -1.2441
  559MOL0     H73746   8.014   7.998   0.955  0.9231  1.0932  1.7897
  559MOL0     H73747   7.941   7.988   1.115 -1.3836  1.3918 -1.4871
  559MOL0     H73748   8.125   7.782   0.995 -0.0511  0.5555 -0.3315
  559MOL0     H73749   8.067   7.770   1.160 -2.0507 -1.7659 -1.8544
  559MOL0     H73750   8.215   7.996   1.376  0.7883  0.9046 -2.9232
  559MOL0     H73751   8.347   7.842   1.534 -3.2057 -3.2788  0.5097
  559MOL0     H73752   8.813   7.464   1.418 -2.1798 -0.7158  0.3595
  559MOL0     H73753   8.995   7.377   1.568  1.3119  0.4367 -0.0060
  559MOL0     H73754   8.868   7.349   1.988 -0.8277  1.3820 -0.9542
  559MOL0     H73755   8.953   7.502   2.011 -1.3669  0.8135 -0.5678
  559MOL0     H73756   9.070   7.231   2.039  3.6230  0.4946  1.0577
  559MOL0     H73757   9.033   7.354   2.161 -1.6017  3.4806 -1.0415
  559MOL0     H73758   9.215   7.502   2.061  1.2549  0.2853 -1.4387
  559MOL0     H73759   9.247   7.386   1.934  2.2968  2.9781  1.0480
  559MOL0     H73760   9.314   7.394   2.217 -1.3118 -1.5354 -0.2488
  559MOL0     H73761   9.282   7.227   2.157  3.4366 -0.9689  0.3971
  559MOL0     H73762   9.471   7.413   2.020  2.2377 -0.5355  0.4342
  559MOL0     H73763   9.442   7.243   1.982 -2.4243 -0.9653 -0.0450
  559MOL0     H73764   9.525   7.207   2.234  3.2138 -2.0014 -1.2646
  559MOL0     H73765   9.565   7.373   2.233  2.8906 -2.0210  1.3556
  559MOL0     H73766   9.717   7.150   2.115  2.1715  0.1150 -3.2938
  559MOL0     H73767   9.717   7.307   2.024  0.4790  2.5035  1.3753
  559MOL0     H73768   9.821   7.269   2.306 -2.7431 -0.8284 -0.5378
  559MOL0     H73769   9.778   7.420   2.223 -3.3071 -1.0814 -0.9847
  559MOL0     H73770   8.801   7.586   1.890  2.8467  1.2709  0.2142
  559MOL0     H73771   8.666   7.724   1.714  1.5088  1.0832 -0.1884
  559MOL0     H73772   8.518   7.616   1.237  0.0399  0.8399  0.6790
  559MOL0     H73773   8.416   7.762   1.065  0.7069  0.6306 -1.4365
  559MOL0     H73774   7.191   7.308   1.381 -2.4519 -0.5170  1.3174
  559MOL0     H73775   7.373   7.358   1.533  0.2372  1.5139  0.3122
  559MOL0     H73776   7.510   7.369   1.956 -1.6875  0.2890 -1.8602
  559MOL0     H73777   7.694   7.431   2.133 -2.2343 -1.5772 -0.4541
  559MOL0     H73778   7.921   7.506   2.207 -2.2229 -1.0495 -1.1230
  559MOL0     H73779   7.805   7.555   2.333 -1.2004  0.9148 -0.7818
  559MOL0     H73780   8.026   7.740   2.238 -2.7352  1.7551 -0.8309
  559MOL0     H73781   7.932   7.752   2.381 -0.2148  2.2534 -2.9270
  559MOL0     H73782   8.153   7.674   2.443 -0.0818  1.4670 -2.0883
  559MOL0     H73783   8.149   7.544   2.335  0.0837 -1.0129  0.6576
  559MOL0     H73784   7.961   7.583   2.577 -0.9045 -0.7584  0.1868
  559MOL0     H73785   7.971   7.443   2.471 -1.9541  0.3990  1.4789
  559MOL0     H73786   8.271   7.365   2.749 -1.0321 -0.0899  0.3742
  559MOL0     H73787   7.699   7.831   1.993 -1.0378  1.6902  0.3869
  559MOL0     H73788   7.532   7.762   1.806 -2.8420 -2.1708 -0.9773
  560MOL0     O73789   3.442   6.743  10.547  0.0316 -0.9706 -0.3363
  560MOL0     C73790   3.443   6.683  10.441 -0.4874  0.0868  0.3900
  560MOL0     O73791   3.544   6.603  10.399 -0.3939  0.9666 -0.1110
  560MOL0     C73792   3.649   6.578  10.483 -0.4630 -0.2853  0.8696
  560MOL0     C73793   3.619   6.499  10.587 -0.1088  0.0603  0.2660
  560MOL0     C73794   3.705   6.468  10.694 -0.0745  0.1441 -0.4237
  560MOL0     C73795   3.833   6.524  10.684  0.8254 -0.5696  0.9060
  560MOL0     O73796   3.929   6.502  10.774 -0.3992 -0.1647 -0.0033
  560MOL0     C73797   3.878   6.535  10.906  0.3204  0.1857  0.2470
  560MOL0     C73798   3.996   6.552  11.001 -0.3822  0.2472 -0.8386
  560MOL0     C73799   3.941   6.534  11.148  0.4348 -0.0470  0.1065
  560MOL0     C73800   4.013   6.598  11.259 -0.8321  0.0006 -0.1773
  560MOL0     C73801   4.149   6.526  11.291  0.5196  0.3951  0.0401
  560MOL0     C73802   4.238   6.614  11.392  0.2086 -0.2925 -0.0686
  560MOL0     C73803   4.388   6.567  11.365 -0.7380 -0.4994 -0.2882
  560MOL0     C73804   4.485   6.649  11.459  0.0260 -0.8811  0.9696
  560MOL0     N73805   4.608   6.574  11.490 -0.0102  0.5493  0.1560
  560MOL0     C73806   4.731   6.578  11.424  0.0050  0.4242 -0.0316
  560MOL0     C73807   4.796   6.465  11.466 -1.3120 -0.1116 -0.3009
  560MOL0     C73808   4.938   6.422  11.430 -0.5464  0.6499 -0.4720
  560MOL0     C73809   5.031   6.435  11.555  0.0699 -0.0486  0.2937
  560MOL0     C73810   5.182   6.465  11.528 -0.2498  0.8237 -0.5575
  560MOL0     C73811   5.198   6.610  11.485  0.1105 -0.1109  0.0391
  560MOL0     O73812   5.196   6.641  11.349  0.5163  0.0511 -0.3059
  560MOL0     C73813   5.185   6.770  11.315 -0.0256 -0.8298 -0.7643
  560MOL0     C73814   5.277   6.834  11.233 -0.0050 -0.1265  0.5278
  560MOL0     C73815   5.258   6.968  11.191 -0.0310  0.4227 -0.5975
  560MOL0     C73816   5.172   7.056  11.255 -0.1218  0.5796 -0.7144
  560MOL0     C73817   5.165   7.203  11.240  0.8056  0.3497  0.7037
  560MOL0     O73818   5.048   7.264  11.269 -0.1217 -0.4180 -0.0107
  560MOL0     C73819   5.014   7.382  11.222  0.3480 -0.5409  0.1775
  560MOL0     C73820   5.013   7.504  11.296 -0.1041  0.4600 -0.6275
  560MOL0     C73821   4.980   7.628  11.229 -0.4040  0.2932  0.4611
  560MOL0     C73822   4.954   7.639  11.096  0.5991 -0.0564  0.7508
  560MOL0     O73823   4.942   7.758  11.023  0.2678 -0.6148 -0.2057
  560MOL0     C73824   4.907   7.885  11.076 -0.4818  0.2920  0.2457
  560MOL0     C73825   4.756   7.887  11.082 -0.6976 -0.0598  0.5709
  560MOL0     C73826   4.701   7.997  11.165  0.0787  0.1747  0.6380
  560MOL0     C73827   4.717   8.137  11.107  0.7709  0.9923  0.7317
  560MOL0     C73828   4.765   8.246  11.201 -0.1005  0.5375  0.2548
  560MOL0     C73829   4.648   8.279  11.291 -0.3882  0.4010 -0.1593
  560MOL0     C73830   4.685   8.404  11.384  0.7501  0.7289 -0.5287
  560MOL0     C73831   4.556   8.452  11.431  0.7239 -0.0688 -1.5167
  560MOL0    Cl73832   4.611   8.573  11.557 -0.2796 -0.2156 -0.5765
  560MOL0     C73833   4.950   7.515  11.026  0.3426  0.2739 -0.5328
  560MOL0     C73834   4.974   7.392  11.087  0.1958  0.2815 -0.0792
  560MOL0     O73835   5.263   7.258  11.194  0.0873  0.0966  0.3041
  560MOL0     C73836   5.083   6.991  11.350  0.2625  0.5354  1.5243
  560MOL0     C73837   5.088   6.851  11.377 -0.0137  0.9442 -0.0028
  560MOL0     N73838   4.713   6.394  11.555 -0.2433 -0.2573  0.9585
  560MOL0     N73839   4.605   6.460  11.573 -0.8914 -1.0137 -0.0091
  560MOL0     C73840   3.870   6.599  10.568 -0.2870 -0.1228 -0.1899
  560MOL0     C73841   3.774   6.618  10.472 -0.1827  0.3253 -0.3283
  560MOL0     C73842   3.338   6.704  10.347 -0.2691 -0.2932  1.0681
  560MOL0     C73843   3.248   6.812  10.353 -0.4025 -0.0596  0.3229
  560MOL0     C73844   3.159   6.837  10.253  0.0983  0.3228  0.1185
  560MOL0     C73845   3.132   6.742  10.150 -0.2458 -0.3435 -0.5325
  560MOL0     O73846   3.037   6.768  10.062  0.6965 -0.4329  0.1004
  560MOL0     C73847   3.092   6.819   9.935  0.5210  0.0802 -0.0110
  560MOL0     C73848   2.990   6.905   9.862  0.4233  0.6058  0.1220
  560MOL0     C73849   2.884   6.812   9.780  0.5461  0.5113  0.3248
  560MOL0     C73850   2.772   6.901   9.710 -0.1744  0.5901 -0.4391
  560MOL0     C73851   2.678   6.955   9.813 -0.4959  0.0784  0.1681
  560MOL0     C73852   2.613   7.018   9.893  0.5004  0.0566  0.0913
  560MOL0     C73853   3.224   6.640  10.133 -0.4113  0.5951 -0.6356
  560MOL0     C73854   3.326   6.628  10.225  0.3034  0.5721  0.3413
  560MOL0     H73855   3.521   6.451  10.588  0.6433 -1.6264  2.5499
  560MOL0     H73856   3.680   6.402  10.776 -1.1066  2.2897  1.0850
  560MOL0     H73857   3.816   6.448  10.930 -0.0860 -0.2803 -2.1549
  560MOL0     H73858   3.819   6.626  10.895  1.3839  0.6097 -3.1499
  560MOL0     H73859   4.033   6.655  10.994 -0.3311  0.2910 -0.0312
  560MOL0     H73860   4.075   6.478  10.988  1.2562  2.0716 -1.6874
  560MOL0     H73861   3.936   6.428  11.175  0.0578 -0.1718 -0.4270
  560MOL0     H73862   3.839   6.574  11.144  1.5621  3.1180  0.4092
  560MOL0     H73863   4.018   6.703  11.229 -0.8897  0.2536  0.6837
  560MOL0     H73864   3.961   6.591  11.355  0.4567 -1.1157  0.4649
  560MOL0     H73865   4.208   6.507  11.201 -0.9407  1.2046 -1.1216
  560MOL0     H73866   4.142   6.427  11.337  2.2727  1.7962  3.7187
  560MOL0     H73867   4.209   6.604  11.496 -0.6400  1.3176 -0.1161
  560MOL0     H73868   4.227   6.720  11.364 -1.8862 -0.5392 -0.2999
  560MOL0     H73869   4.396   6.461  11.390 -2.3746 -0.2152  1.7240
  560MOL0     H73870   4.421   6.588  11.263 -2.6061 -0.7840 -0.9904
  560MOL0     H73871   4.423   6.651  11.549  0.3787  0.2528  1.1979
  560MOL0     H73872   4.489   6.746  11.409  3.1275 -2.6502 -2.7535
  560MOL0     H73873   4.763   6.656  11.355  1.4435 -0.3186 -0.2389
  560MOL0     H73874   4.981   6.479  11.347 -1.8515  0.7740 -1.0819
  560MOL0     H73875   4.931   6.319  11.394 -3.4510  0.3850  0.6262
  560MOL0     H73876   5.032   6.331  11.589  2.1535 -0.9281 -2.1315
  560MOL0     H73877   4.982   6.513  11.613 -2.1466  0.8030 -2.4852
  560MOL0     H73878   5.230   6.438  11.623  1.0608 -1.3713 -1.7569
  560MOL0     H73879   5.217   6.409  11.441  0.8400 -0.5560  0.7059
  560MOL0     H73880   5.296   6.642  11.524 -0.8002  1.1494  1.4227
  560MOL0     H73881   5.138   6.682  11.542  1.7558  2.9799 -1.8551
  560MOL0     H73882   5.363   6.783  11.191 -0.4922  1.4138 -2.6497
  560MOL0     H73883   5.335   6.997  11.119  0.2072 -1.8640 -1.3472
  560MOL0     H73884   5.039   7.506  11.401 -1.4246  0.1162 -0.2774
  560MOL0     H73885   4.992   7.720  11.286  1.9696  0.6229 -0.4470
  560MOL0     H73886   4.947   7.963  11.010  0.1037  1.1437  1.5404
  560MOL0     H73887   4.949   7.897  11.177  0.7996  2.9173 -0.4961
  560MOL0     H73888   4.728   7.788  11.120  1.0275 -0.6662  0.3734
  560MOL0     H73889   4.710   7.894  10.982 -0.1889  2.0107  0.4458
  560MOL0     H73890   4.741   8.009  11.267 -0.1083  2.2045  0.5197
  560MOL0     H73891   4.597   7.965  11.177 -0.0666  0.7252  0.9034
  560MOL0     H73892   4.775   8.141  11.014  0.8338 -3.2979  0.3756
  560MOL0     H73893   4.619   8.178  11.080 -1.0941 -2.8146  1.0412
  560MOL0     H73894   4.785   8.334  11.139  2.2626  0.2298  0.4746
  560MOL0     H73895   4.861   8.219  11.246  0.7677 -0.3467 -2.0263
  560MOL0     H73896   4.627   8.192  11.354  2.8212 -0.1671  0.2657
  560MOL0     H73897   4.561   8.308  11.231  0.1954  0.0986 -1.1771
  560MOL0     H73898   4.756   8.359  11.454 -0.8451 -3.0573 -1.1573
  560MOL0     H73899   4.744   8.484  11.336  1.7685  1.8028  2.3023
  560MOL0     H73900   4.481   8.386  11.477  0.0000  0.9411 -1.2054
  560MOL0     H73901   4.516   8.514  11.350  1.6883  1.9720 -0.4814
  560MOL0     H73902   4.918   7.511  10.922 -2.7116  2.1247  0.1942
  560MOL0     H73903   4.968   7.300  11.030  2.0876 -0.0592  0.2081
  560MOL0     H73904   5.016   7.053  11.408 -0.1874  1.4821  0.0433
  560MOL0     H73905   5.011   6.806  11.439  0.5475 -0.1630 -0.0931
  560MOL0     H73906   3.970   6.639  10.554 -0.6460  2.7545  3.7388
  560MOL0     H73907   3.790   6.675  10.381 -0.5299 -1.7172 -1.7397
  560MOL0     H73908   3.248   6.894  10.424 -0.6592  0.0919  0.1490
  560MOL0     H73909   3.095   6.923  10.272  1.4764  1.9921 -2.2520
  560MOL0     H73910   3.129   6.730   9.884  3.8695  0.2406  1.8864
  560MOL0     H73911   3.177   6.885   9.952 -0.6969  1.2594  1.8378
  560MOL0     H73912   2.945   6.964   9.943  2.1621  1.4324  0.5321
  560MOL0     H73913   3.038   6.973   9.792 -0.4588  0.4289 -0.6807
  560MOL0     H73914   2.834   6.732   9.835 -0.0352  0.6849  0.0527
  560MOL0     H73915   2.938   6.758   9.702 -2.0721  1.0611 -2.0103
  560MOL0     H73916   2.825   6.978   9.654  0.5754 -0.8425 -1.7825
  560MOL0     H73917   2.721   6.839   9.635  0.3484 -0.5569  0.1260
  560MOL0     H73918   2.543   7.066   9.958 -2.7438 -4.7361  0.6925
  560MOL0     H73919   3.208   6.561  10.060  1.5722  1.2307 -1.8371
  560MOL0     H73920   3.394   6.545  10.210 -1.0463 -1.1313  2.9094
  561MOL0     O73921   7.932  10.461   4.949  0.1439  0.0248 -0.5630
  561MOL0     C73922   7.836  10.467   4.873 -0.6096 -0.9757  0.4161
  561MOL0     O73923   7.730  10.551   4.891 -0.1877 -0.0534 -0.3160
  561MOL0     C73924   7.737  10.662   4.975 -0.3819  0.1114  0.1091
  561MOL0     C73925   7.619  10.733   4.980 -0.7377  1.1431  0.2326
  561MOL0     C73926   7.598  10.832   5.072  0.0814  1.0487  0.0612
  561MOL0     C73927   7.699  10.875   5.160 -0.0797 -0.3820  0.4242
  561MOL0     O73928   7.680  10.962   5.264  0.0253 -0.5608 -0.4856
  561MOL0     C73929   7.564  10.931   5.343  0.5107  0.8455  0.1355
  561MOL0     C73930   7.594  10.984   5.488 -0.1839  0.6366  0.7167
  561MOL0     C73931   7.459  10.966   5.559 -0.9819 -0.0433  0.4155
  561MOL0     C73932   7.472  11.022   5.697 -0.4487 -0.6434 -0.6314
  561MOL0     C73933   7.347  11.007   5.790  0.1755  0.2018  0.3448
  561MOL0     C73934   7.337  11.116   5.900  0.1222  0.4013  0.0841
  561MOL0     C73935   7.461  11.110   5.984 -0.6989 -1.3437 -0.2533
  561MOL0     C73936   7.460  11.218   6.102 -0.6579  0.3843 -0.4617
  561MOL0     N73937   7.449  11.356   6.049  0.1843 -0.3222  0.6212
  561MOL0     C73938   7.361  11.450   6.079  0.9474  0.4214  0.1046
  561MOL0     C73939   7.409  11.560   6.015 -0.4758 -0.1833  0.2971
  561MOL0     C73940   7.357  11.709   6.014  0.6009  0.6956 -0.0540
  561MOL0     C73941   7.205  11.727   6.020 -0.3059  0.0676  0.5316
  561MOL0     C73942   7.120  11.671   5.911 -0.2642  0.5676 -0.6396
  561MOL0     C73943   6.975  11.680   5.951 -0.4019  0.0410  1.2114
  561MOL0     O73944   6.895  11.609   5.848 -0.3051 -0.1125  0.0946
  561MOL0     C73945   6.772  11.568   5.884 -0.4038 -0.1116  0.1015
  561MOL0     C73946   6.753  11.443   5.947 -0.2404  0.3831  0.5649
  561MOL0     C73947   6.625  11.410   5.995 -0.5718 -0.3398  0.2263
  561MOL0     C73948   6.516  11.502   5.977 -0.5969 -0.0970  0.2786
  561MOL0     C73949   6.380  11.453   6.029  0.2896  0.1811  0.1909
  561MOL0     O73950   6.276  11.477   5.938 -0.1767 -0.0460 -0.9787
  561MOL0     C73951   6.145  11.458   5.978  0.0048 -0.4994 -0.0521
  561MOL0     C73952   6.102  11.472   6.108  0.2500  0.1423 -0.5649
  561MOL0     C73953   5.972  11.442   6.146  0.1304 -0.8895 -0.4505
  561MOL0     C73954   5.874  11.391   6.059 -0.3292 -0.8058  0.3791
  561MOL0     O73955   5.736  11.380   6.090 -0.4938  0.8936  0.1246
  561MOL0     C73956   5.639  11.421   5.989 -0.0875 -0.4054  0.0116
  561MOL0     C73957   5.501  11.442   6.067  0.9774  0.1485 -0.1591
  561MOL0     C73958   5.386  11.463   5.978  0.3668  0.0477 -0.1166
  561MOL0     C73959   5.336  11.331   5.914 -0.2604 -0.5352 -0.1202
  561MOL0     C73960   5.189  11.345   5.872 -0.0145 -0.6334 -0.7324
  561MOL0     C73961   5.134  11.211   5.812 -0.4955 -0.0709  0.9272
  561MOL0     C73962   4.979  11.235   5.796  0.2816 -0.0546  0.3116
  561MOL0     C73963   4.896  11.112   5.836 -0.4679 -0.2331  0.6005
  561MOL0    Cl73964   4.712  11.129   5.860 -0.0449  0.2889  0.3867
  561MOL0     C73965   5.916  11.384   5.923 -0.1094  0.0886  0.1298
  561MOL0     C73966   6.051  11.419   5.883  0.4674 -0.1755  0.1432
  561MOL0     O73967   6.372  11.401   6.134 -0.3904  0.7048 -0.7780
  561MOL0     C73968   6.528  11.611   5.896 -0.1730  0.5132  0.1265
  561MOL0     C73969   6.658  11.646   5.856  0.1810 -0.3447 -0.7054
  561MOL0     N73970   7.509  11.525   5.929  0.7392 -0.3202 -0.0425
  561MOL0     N73971   7.527  11.395   5.939  0.4107  0.3475 -0.2571
  561MOL0     C73972   7.819  10.808   5.154 -0.3553 -0.6146  0.5701
  561MOL0     C73973   7.842  10.701   5.067 -1.0558  0.4520  0.8263
  561MOL0     C73974   7.834  10.385   4.756  0.0326  0.5950 -0.0509
  561MOL0     C73975   7.919  10.277   4.729 -0.5071  0.1206  0.6983
  561MOL0     C73976   7.905  10.207   4.611  0.1048 -0.0500  0.2844
  561MOL0     C73977   7.800  10.228   4.521 -1.0431  0.4889 -0.4975
  561MOL0     O73978   7.786  10.158   4.412 -0.0737  0.5586 -0.2816
  561MOL0     C73979   7.839  10.023   4.394  0.3430 -0.5286 -0.9190
  561MOL0     C73980   7.981  10.023   4.322  0.0016 -0.1869  0.4186
  561MOL0     C73981   8.022   9.877   4.310 -0.1539 -0.1845 -0.2968
  561MOL0     C73982   8.151   9.852   4.244  0.1888 -0.1779  0.1570
  561MOL0     C73983   8.185   9.716   4.279 -0.6212 -1.0309  0.6229
  561MOL0     C73984   8.200   9.602   4.321  0.3490  1.2394 -1.2383
  561MOL0     C73985   7.717  10.336   4.550  0.8162 -0.3748  0.4010
  561MOL0     C73986   7.728  10.415   4.663 -0.4681 -0.1105 -0.1179
  561MOL0     H73987   7.540  10.711   4.910  0.9646 -1.9697 -0.9139
  561MOL0     H73988   7.501  10.880   5.077  0.9312  2.7100  2.0762
  561MOL0     H73989   7.559  10.822   5.353  1.1258  0.7967 -0.0286
  561MOL0     H73990   7.473  10.982   5.311 -0.7732 -2.4515 -2.0104
  561MOL0     H73991   7.623  11.089   5.473 -0.9126  1.0632  2.1332
  561MOL0     H73992   7.678  10.931   5.533 -1.4455  0.4333  3.0032
  561MOL0     H73993   7.449  10.862   5.592  2.0422  0.4190  3.3631
  561MOL0     H73994   7.377  11.013   5.505  1.1682  0.3482 -2.7926
  561MOL0     H73995   7.562  10.984   5.745  1.3672  3.2521 -0.5697
  561MOL0     H73996   7.504  11.127   5.693  0.1884 -0.7231  1.4735
  561MOL0     H73997   7.356  10.905   5.829 -2.3396 -0.6628 -1.0942
  561MOL0     H73998   7.262  11.022   5.722 -0.4288 -4.9945 -0.5115
  561MOL0     H73999   7.245  11.109   5.958 -2.2945  1.5035 -3.3294
  561MOL0     H74000   7.323  11.207   5.840 -1.3940 -0.1692 -0.4807
  561MOL0     H74001   7.484  11.009   6.020  2.2858 -0.5767  0.2540
  561MOL0     H74002   7.546  11.140   5.923 -0.6440 -0.9630  0.0012
  561MOL0     H74003   7.550  11.203   6.162  0.1501 -2.7170 -2.2237
  561MOL0     H74004   7.372  11.205   6.167  0.6099 -1.4788  0.9998
  561MOL0     H74005   7.272  11.452   6.142 -0.9639  0.1461 -2.4555
  561MOL0     H74006   7.396  11.758   5.924 -0.0663 -0.4733 -1.0213
  561MOL0     H74007   7.397  11.742   6.110 -1.6146 -0.7503  1.4665
  561MOL0     H74008   7.175  11.832   6.022 -1.6976 -0.2266 -1.4931
  561MOL0     H74009   7.177  11.670   6.109 -2.0532 -0.7634 -0.4736
  561MOL0     H74010   7.135  11.729   5.820  0.3981  0.6257 -0.5018
  561MOL0     H74011   7.156  11.571   5.885 -0.5155  0.0459  0.9061
  561MOL0     H74012   6.948  11.786   5.963 -2.2695 -0.4995  2.2127
  561MOL0     H74013   6.956  11.634   6.048 -1.7171 -2.0080  0.0613
  561MOL0     H74014   6.833  11.369   5.946 -0.9778 -0.4523  1.0051
  561MOL0     H74015   6.617  11.317   6.050  0.9760  0.5687  2.1177
  561MOL0     H74016   6.161  11.507   6.192  0.4433 -0.6682 -0.3548
  561MOL0     H74017   5.933  11.462   6.246  2.7248  0.5257  0.3875
  561MOL0     H74018   5.632  11.341   5.915 -0.3340 -1.9478  1.6186
  561MOL0     H74019   5.657  11.519   5.945  2.0145 -0.5178  0.5187
  561MOL0     H74020   5.514  11.526   6.135  4.6133 -1.4355  1.3527
  561MOL0     H74021   5.478  11.354   6.127  0.0183 -1.3190 -2.5455
  561MOL0     H74022   5.417  11.541   5.907 -1.0527  0.9315  0.2059
  561MOL0     H74023   5.306  11.505   6.039  0.4663 -1.0844  0.8249
  561MOL0     H74024   5.401  11.313   5.828  1.1108  2.3861  0.1776
  561MOL0     H74025   5.351  11.243   5.978  1.3215  1.6887  2.8338
  561MOL0     H74026   5.178  11.424   5.797  1.5173  0.6059  0.2736
  561MOL0     H74027   5.126  11.364   5.960  0.1845 -0.3673 -0.6450
  561MOL0     H74028   5.152  11.122   5.875 -2.0343 -1.6376 -0.7489
  561MOL0     H74029   5.173  11.183   5.714 -0.1170  0.0155  1.0503
  561MOL0     H74030   4.939  11.323   5.848 -2.8796 -0.5453 -1.0164
  561MOL0     H74031   4.961  11.240   5.688  0.5417 -4.0369 -0.0747
  561MOL0     H74032   4.934  11.078   5.933  1.2350 -1.0339 -0.3106
  561MOL0     H74033   4.915  11.030   5.767 -0.8520 -0.5545  0.8708
  561MOL0     H74034   5.841  11.352   5.852 -1.2149  1.1705  0.7819
  561MOL0     H74035   6.093  11.406   5.784 -0.3335  0.6520 -0.3287
  561MOL0     H74036   6.442  11.674   5.876 -0.0307 -0.4941 -4.8853
  561MOL0     H74037   6.677  11.746   5.818  3.8820 -0.3396  0.7331
  561MOL0     H74038   7.904  10.835   5.217  0.3926 -0.4325 -0.4821
  561MOL0     H74039   7.942  10.660   5.075 -1.0225 -0.3491 -2.3323
  561MOL0     H74040   7.999  10.254   4.798 -0.6278 -0.2500  0.7175
  561MOL0     H74041   7.990  10.140   4.604 -0.2728 -0.5704  0.7405
  561MOL0     H74042   7.770   9.967   4.330 -0.6897 -1.7209  1.1504
  561MOL0     H74043   7.846   9.980   4.494  1.0598  1.1833 -0.1891
  561MOL0     H74044   7.974  10.061   4.220  0.1446 -2.0019 -0.3042
  561MOL0     H74045   8.053  10.086   4.375  1.1740 -0.4639 -0.7906
  561MOL0     H74046   7.951   9.817   4.254 -0.6081 -1.7415  1.8354
  561MOL0     H74047   8.019   9.835   4.411  1.5691 -0.0131 -0.1461
  561MOL0     H74048   8.158   9.881   4.139 -2.7469  0.1837 -0.0457
  561MOL0     H74049   8.225   9.916   4.293 -0.8555  1.7274 -0.6170
  561MOL0     H74050   8.198   9.502   4.360  1.3017  1.6422 -0.1157
  561MOL0     H74051   7.634  10.354   4.482  1.9822 -1.0144 -1.2493
  561MOL0     H74052   7.653  10.493   4.663 -0.4826 -0.1170  1.0110
  562MOL0     O74053   2.934   5.204   0.140 -0.8463  0.0557 -0.4045
  562MOL0     C74054   2.900   5.274   0.233 -1.0564  0.3583 -0.3698
  562MOL0     O74055   2.821   5.380   0.221 -0.3308  0.3948 -0.5667
  562MOL0     C74056   2.769   5.425   0.098  0.3460  1.1351 -0.8792
  562MOL0     C74057   2.633   5.456   0.089 -0.4691  0.2508 -0.1470
  562MOL0     C74058   2.583   5.507  -0.029  0.8758 -0.3740  0.0714
  562MOL0     C74059   2.657   5.516  -0.145 -0.5915 -0.7100  1.0642
  562MOL0     O74060   2.606   5.548  -0.270 -0.9177 -0.9707  0.0532
  562MOL0     C74061   2.678   5.514  -0.386 -0.3661  0.0137  0.5639
  562MOL0     C74062   2.619   5.511  -0.522 -0.1608  0.5433  0.2273
  562MOL0     C74063   2.544   5.371  -0.532  0.8878  0.4119 -0.5251
  562MOL0     C74064   2.453   5.365  -0.647 -0.8017  0.6326 -0.0994
  562MOL0     C74065   2.429   5.222  -0.703 -0.2902 -0.3010  0.2890
  562MOL0     C74066   2.344   5.146  -0.598 -1.2284 -0.8233 -0.1975
  562MOL0     C74067   2.320   5.003  -0.628  0.6261  0.0551 -0.0626
  562MOL0     C74068   2.233   4.930  -0.523  0.8503  0.3366  0.6502
  562MOL0     N74069   2.288   4.928  -0.382 -0.5526  0.1542  0.3605
  562MOL0     C74070   2.417   4.904  -0.332  0.1848 -0.2496 -0.1311
  562MOL0     C74071   2.414   4.961  -0.213  0.8197 -0.1671 -0.3257
  562MOL0     C74072   2.532   4.996  -0.134  0.2359  0.4162  0.1095
  562MOL0     C74073   2.622   5.102  -0.204 -0.2983 -0.4044 -0.1711
  562MOL0     C74074   2.769   5.085  -0.155  0.1678  0.5339 -0.1310
  562MOL0     C74075   2.847   4.973  -0.221 -0.6236 -0.5417 -0.4342
  562MOL0     O74076   2.846   4.859  -0.132 -0.2346  0.0942  0.5233
  562MOL0     C74077   2.922   4.854  -0.025 -0.4524 -0.2418 -0.2491
  562MOL0     C74078   2.901   4.749   0.064  0.8862  0.1795  0.9672
  562MOL0     C74079   2.989   4.706   0.164  0.5381 -0.7393  0.1695
  562MOL0     C74080   3.101   4.789   0.180 -0.2634  0.1574  0.8375
  562MOL0     C74081   3.181   4.766   0.292  0.2720  0.0135  0.0240
  562MOL0     O74082   3.141   4.679   0.378 -0.9800  1.0565  0.3596
  562MOL0     C74083   3.221   4.674   0.493 -2.0671 -0.6562  0.4072
  562MOL0     C74084   3.308   4.569   0.505 -0.0742 -0.2107 -0.2704
  562MOL0     C74085   3.395   4.560   0.617 -0.1613  0.4371 -0.3294
  562MOL0     C74086   3.403   4.660   0.711 -0.6435  0.1031 -0.1172
  562MOL0     O74087   3.484   4.637   0.821 -0.1820  0.5381 -0.5398
  562MOL0     C74088   3.408   4.608   0.942 -0.0893 -0.2528 -0.1095
  562MOL0     C74089   3.516   4.565   1.048 -0.3850 -0.6622 -0.9014
  562MOL0     C74090   3.454   4.543   1.190 -0.1923 -1.0857  1.1666
  562MOL0     C74091   3.554   4.480   1.291  0.1350 -0.6049  0.8257
  562MOL0     C74092   3.646   4.578   1.352  0.1972  0.3197  0.2234
  562MOL0     C74093   3.762   4.515   1.417 -0.3621 -0.3793  0.2110
  562MOL0     C74094   3.836   4.608   1.509  0.1608 -0.2835 -0.5973
  562MOL0     C74095   3.989   4.569   1.508  0.9078  0.0513  0.1269
  562MOL0    Cl74096   3.989   4.423   1.611  0.2714  0.0170  0.0789
  562MOL0     C74097   3.321   4.767   0.698  0.0920  0.1080 -0.0017
  562MOL0     C74098   3.235   4.784   0.588 -0.3019  0.8459  0.3503
  562MOL0     O74099   3.284   4.826   0.300 -0.3392 -0.1268  0.3434
  562MOL0     C74100   3.117   4.912   0.103 -0.1091 -0.3437  0.4835
  562MOL0     C74101   3.030   4.938  -0.000  0.5031  0.4525  0.4452
  562MOL0     N74102   2.280   5.004  -0.179 -0.1316  0.8322  0.1522
  562MOL0     N74103   2.206   4.974  -0.281 -0.7391  0.0097  0.0706
  562MOL0     C74104   2.800   5.501  -0.131 -0.4716 -0.6357  0.1009
  562MOL0     C74105   2.845   5.445  -0.013  0.4525 -0.4319 -0.7094
  562MOL0     C74106   2.967   5.252   0.363  0.4519 -0.4671 -0.6711
  562MOL0     C74107   3.086   5.181   0.379  0.2612  1.0653  0.9684
  562MOL0     C74108   3.147   5.173   0.503  0.1464  0.6771  0.4391
  562MOL0     C74109   3.085   5.216   0.619 -0.1526 -0.3101 -0.4241
  562MOL0     O74110   3.162   5.200   0.735 -0.5131 -0.4406 -0.5624
  562MOL0     C74111   3.100   5.212   0.859 -0.3700 -0.3272 -0.7206
  562MOL0     C74112   3.218   5.168   0.951 -0.5248 -0.2172 -0.0743
  562MOL0     C74113   3.143   5.167   1.089  0.4164  1.0312 -0.1479
  562MOL0     C74114   3.240   5.144   1.201 -1.0252  1.3287 -0.6328
  562MOL0     C74115   3.330   5.020   1.187 -0.0902 -0.4322  0.6447
  562MOL0     C74116   3.423   4.946   1.156  0.2020 -0.1558 -0.2027
  562MOL0     C74117   2.959   5.282   0.606  0.1350  0.9382  0.9749
  562MOL0     C74118   2.903   5.306   0.481  0.8211  0.0483 -0.8613
  562MOL0     H74119   2.578   5.452   0.183  2.7792  0.7232  1.9504
  562MOL0     H74120   2.481   5.542  -0.039  1.0054 -0.6399 -3.2548
  562MOL0     H74121   2.707   5.409  -0.377 -0.0089  0.2777  3.4297
  562MOL0     H74122   2.776   5.563  -0.383  0.2218 -1.1768  1.7862
  562MOL0     H74123   2.692   5.532  -0.601 -2.3296 -1.8414 -2.6766
  562MOL0     H74124   2.546   5.593  -0.524  0.4667  1.2224 -3.7928
  562MOL0     H74125   2.480   5.355  -0.445  1.6802  0.6616  0.1209
  562MOL0     H74126   2.615   5.288  -0.537 -0.2314 -0.5520 -0.8194
  562MOL0     H74127   2.358   5.419  -0.634 -1.8981 -1.6829  2.4061
  562MOL0     H74128   2.506   5.415  -0.729  2.7845 -3.9130 -0.9493
  562MOL0     H74129   2.521   5.168  -0.725 -0.0807  0.4086 -0.6435
  562MOL0     H74130   2.377   5.224  -0.799 -3.7510  0.5572  2.0249
  562MOL0     H74131   2.253   5.202  -0.576  0.0259  0.7125  1.4318
  562MOL0     H74132   2.392   5.150  -0.499  0.3979 -0.9798 -0.9461
  562MOL0     H74133   2.264   5.007  -0.722 -2.5792 -0.6114  1.6728
  562MOL0     H74134   2.408   4.943  -0.653  2.0168  1.4358  1.3513
  562MOL0     H74135   2.224   4.828  -0.560 -1.1708  1.4729 -2.3487
  562MOL0     H74136   2.130   4.966  -0.524  0.6576 -0.2078  0.8056
  562MOL0     H74137   2.504   4.871  -0.387  0.7810  2.0669 -0.6579
  562MOL0     H74138   2.596   4.913  -0.105  0.4896  1.3547  2.4690
  562MOL0     H74139   2.496   5.023  -0.034 -0.4229  1.2805 -0.3493
  562MOL0     H74140   2.583   5.202  -0.181 -3.3671 -1.5171 -0.1769
  562MOL0     H74141   2.618   5.080  -0.311 -0.9261 -3.2314  0.3483
  562MOL0     H74142   2.815   5.181  -0.180 -0.4425  0.9357  0.2389
  562MOL0     H74143   2.774   5.086  -0.046  1.1940 -1.1015 -0.1293
  562MOL0     H74144   2.948   5.003  -0.251 -0.8077  0.1276 -0.4001
  562MOL0     H74145   2.802   4.941  -0.316  3.1403 -3.5026 -1.4602
  562MOL0     H74146   2.805   4.698   0.057  1.0419  0.0935 -2.2114
  562MOL0     H74147   2.973   4.623   0.232  1.6947 -0.2286  1.1007
  562MOL0     H74148   3.310   4.494   0.427  2.1588  2.1553 -2.6727
  562MOL0     H74149   3.448   4.470   0.648  1.8142  1.2947 -1.0226
  562MOL0     H74150   3.330   4.533   0.925 -1.2550  0.9625 -0.2978
  562MOL0     H74151   3.360   4.702   0.971  0.0959  0.3822 -1.7529
  562MOL0     H74152   3.605   4.628   1.056 -3.2913  3.7911 -0.3915
  562MOL0     H74153   3.547   4.461   1.035 -1.0715 -1.0157  0.1103
  562MOL0     H74154   3.364   4.486   1.163 -0.2783  0.2973 -1.8479
  562MOL0     H74155   3.410   4.635   1.231 -0.6622  0.5365 -2.5388
  562MOL0     H74156   3.494   4.452   1.378  1.7819 -2.0126  1.5703
  562MOL0     H74157   3.605   4.391   1.252 -0.7043 -0.9541  0.5042
  562MOL0     H74158   3.593   4.635   1.429 -1.5713 -0.8601 -0.0618
  562MOL0     H74159   3.684   4.652   1.281  0.6767 -0.4129 -0.2934
  562MOL0     H74160   3.821   4.477   1.333 -0.2665  0.9337 -0.3336
  562MOL0     H74161   3.729   4.430   1.477 -1.7781  0.7020  1.0316
  562MOL0     H74162   3.828   4.713   1.479 -0.6747  0.2952  1.4797
  562MOL0     H74163   3.786   4.604   1.606  0.8307  1.3621 -0.1520
  562MOL0     H74164   4.048   4.648   1.555  0.3572  1.1581 -0.9643
  562MOL0     H74165   4.033   4.548   1.410 -2.5898  2.5929 -2.2616
  562MOL0     H74166   3.317   4.839   0.780 -0.4143  2.1043 -1.7028
  562MOL0     H74167   3.186   4.879   0.571  0.2872  1.5220  2.1800
  562MOL0     H74168   3.184   4.990   0.139 -0.3677 -2.0851  5.5096
  562MOL0     H74169   3.051   5.030  -0.054  1.0812  0.9891  1.5512
  562MOL0     H74170   2.867   5.521  -0.215  0.3318  0.1658  0.9163
  562MOL0     H74171   2.952   5.430  -0.005  0.0907 -2.2851  3.5416
  562MOL0     H74172   3.127   5.127   0.294 -0.1379  0.6431  1.0336
  562MOL0     H74173   3.242   5.120   0.507  0.2970  0.8188 -0.8000
  562MOL0     H74174   3.015   5.145   0.873 -1.4682  1.1174 -0.2731
  562MOL0     H74175   3.070   5.316   0.875  3.2954  0.7737 -0.0642
  562MOL0     H74176   3.252   5.067   0.924  0.5487  0.1170 -0.0094
  562MOL0     H74177   3.294   5.246   0.961 -4.8689  4.3661  1.8754
  562MOL0     H74178   3.069   5.086   1.088  1.9151 -0.4457  1.3363
  562MOL0     H74179   3.100   5.263   1.119  2.0400  1.9525 -0.6501
  562MOL0     H74180   3.303   5.233   1.212  0.1626  1.2105 -4.9358
  562MOL0     H74181   3.177   5.135   1.291 -1.1762 -1.9531 -0.9292
  562MOL0     H74182   3.495   4.879   1.112 -0.8722 -1.2004 -0.4290
  562MOL0     H74183   2.903   5.315   0.693  0.4198  0.7016  1.2500
  562MOL0     H74184   2.806   5.353   0.471  1.3455  1.0554 -1.4825
  563MOL0     O74185   2.542   7.124  10.694 -0.3806  0.2124 -0.3668
  563MOL0     C74186   2.530   7.010  10.740  0.2359 -0.3083  0.0379
  563MOL0     O74187   2.416   6.951  10.776  0.2831  0.0297 -0.3788
  563MOL0     C74188   2.299   6.984  10.724  0.2595 -0.0361  0.6885
  563MOL0     C74189   2.273   7.051  10.604 -0.4041  0.1463  0.2368
  563MOL0     C74190   2.153   7.103  10.565  0.4282  0.6592 -0.2654
  563MOL0     C74191   2.044   7.080  10.642  0.4215 -0.4234 -0.2621
  563MOL0     O74192   1.916   7.128  10.616  0.1596 -0.0035  0.9122
  563MOL0     C74193   1.811   7.038  10.591 -0.8413  0.7115  0.4152
  563MOL0     C74194   1.676   7.091  10.545 -0.0320  0.4550  0.8624
  563MOL0     C74195   1.570   7.081  10.646  0.8525 -0.9148 -0.3128
  563MOL0     C74196   1.433   7.146  10.591 -0.2269  0.0676 -0.2629
  563MOL0     C74197   1.341   7.149  10.713  0.4133  0.4092 -0.4502
  563MOL0     C74198   1.195   7.133  10.668  0.1589 -0.4253 -0.0672
  563MOL0     C74199   1.145   7.244  10.571  0.6509  0.0249  0.4564
  563MOL0     C74200   0.990   7.244  10.563 -0.7687 -0.1169  0.3754
  563MOL0     N74201   0.929   7.351  10.637 -0.1778 -0.4498 -0.1935
  563MOL0     C74202   0.827   7.344  10.731  0.5868 -0.2090 -0.6863
  563MOL0     C74203   0.795   7.472  10.760 -0.7970  0.2184 -0.7641
  563MOL0     C74204   0.701   7.514  10.872  0.5231  0.2486  1.3521
  563MOL0     C74205   0.566   7.569  10.831 -0.1399 -0.3434  0.1184
  563MOL0     C74206   0.475   7.588  10.951 -0.9299  0.9266  0.4750
  563MOL0     C74207   0.511   7.692  11.063 -0.8544 -0.6056 -0.5998
  563MOL0     O74208   0.584   7.629  11.166 -1.6769  0.2556 -0.0998
  563MOL0     C74209   0.523   7.541  11.242 -0.9127 -0.3221  0.9392
  563MOL0     C74210   0.606   7.440  11.297  0.4014  0.0158  0.0593
  563MOL0     C74211   0.548   7.335  11.375 -0.2987  0.0947 -0.1689
  563MOL0     C74212   0.408   7.324  11.386 -0.3761 -0.0174  0.5191
  563MOL0     C74213   0.361   7.204  11.457  0.4761 -0.5072  0.4370
  563MOL0     O74214   0.447   7.132  11.539  0.4499 -0.0982 -0.1954
  563MOL0     C74215   0.401   7.022  11.610 -0.7310 -0.0901  0.3577
  563MOL0     C74216   0.304   6.933  11.564 -0.0218 -0.0985  0.3547
  563MOL0     C74217   0.254   6.834  11.644  1.1270  0.3362  0.7685
  563MOL0     C74218   0.308   6.815  11.771 -1.5251 -0.4834 -1.2575
  563MOL0     O74219   0.251   6.719  11.854  0.5369  0.0551  0.0436
  563MOL0     C74220   0.299   6.689  11.984 -0.3773 -0.9417 -0.0238
  563MOL0     C74221   0.250   6.549  12.034 -0.4331  0.0355  1.0249
  563MOL0     C74222   0.098   6.556  12.055 -0.5028  0.4539 -0.4040
  563MOL0     C74223   0.026   6.451  12.140  0.2049 -0.0003  0.0584
  563MOL0     C74224   0.074   6.451  12.286 -0.6671  0.3181  0.5282
  563MOL0     C74225  -0.013   6.361  12.385  0.0540 -0.4229 -0.2723
  563MOL0     C74226  -0.151   6.421  12.395  1.3498  0.1856  0.1138
  563MOL0     C74227  -0.237   6.341  12.508  0.1629  0.1335 -0.2578
  563MOL0    Cl74228  -0.166   6.313  12.666  0.2034  0.0960 -0.1512
  563MOL0     C74229   0.420   6.900  11.808 -0.1905 -0.6287  0.3246
  563MOL0     C74230   0.459   7.005  11.732 -0.0073 -0.7178  0.6972
  563MOL0     O74231   0.235   7.197  11.456 -0.1267  0.7011  0.2930
  563MOL0     C74232   0.327   7.423  11.326  0.2540 -0.6083 -0.2712
  563MOL0     C74233   0.386   7.540  11.258  0.6806 -0.7966 -0.4474
  563MOL0     N74234   0.872   7.556  10.675  1.3299  0.3670 -0.3196
  563MOL0     N74235   0.946   7.484  10.594  0.0048  0.0776 -0.6500
  563MOL0     C74236   2.058   6.993  10.748  0.5793  0.5591  0.4846
  563MOL0     C74237   2.181   6.957  10.786  0.3063  0.7115  0.0905
  563MOL0     C74238   2.659   6.946  10.781 -0.2304  0.0386 -0.1461
  563MOL0     C74239   2.658   6.819  10.838 -0.3565  0.8683  0.2972
  563MOL0     C74240   2.786   6.760  10.862  0.0101  0.0001 -0.6610
  563MOL0     C74241   2.904   6.818  10.836 -1.2977 -0.1203  0.9681
  563MOL0     O74242   3.015   6.758  10.895  0.0813 -0.0850  0.1416
  563MOL0     C74243   3.142   6.821  10.885  0.1991  0.8121 -0.8467
  563MOL0     C74244   3.241   6.753  10.980  0.4032  1.0834 -1.2840
  563MOL0     C74245   3.203   6.792  11.135 -1.2316  0.0631  0.8235
  563MOL0     C74246   3.291   6.710  11.235  0.7487 -0.2522 -0.3083
  563MOL0     C74247   3.436   6.739  11.218  0.2941  0.0747 -0.3418
  563MOL0     C74248   3.547   6.785  11.198  0.5282  0.4378  0.0040
  563MOL0     C74249   2.907   6.944  10.764 -0.1578  1.3635 -1.0985
  563MOL0     C74250   2.779   6.998  10.732  0.2796  0.3727 -0.1107
  563MOL0     H74251   2.351   7.055  10.529 -0.3373  1.0433  0.3388
  563MOL0     H74252   2.156   7.164  10.475 -3.5549 -0.7109 -1.5646
  563MOL0     H74253   1.794   6.983  10.684 -1.9645  2.5260  1.3519
  563MOL0     H74254   1.849   6.967  10.517 -2.1675 -0.9630  1.2887
  563MOL0     H74255   1.653   7.027  10.458  0.8628  1.6869 -0.3315
  563MOL0     H74256   1.682   7.191  10.502 -1.4575 -0.2066 -1.0775
  563MOL0     H74257   1.586   7.138  10.738  1.9125 -2.4050  0.4769
  563MOL0     H74258   1.561   6.976  10.677 -0.9854 -0.3278  1.4031
  563MOL0     H74259   1.440   7.239  10.533 -2.0732 -0.9414 -2.2785
  563MOL0     H74260   1.376   7.085  10.520 -2.7656  1.0879  0.7804
  563MOL0     H74261   1.347   7.240  10.773 -1.8141  0.4435 -0.2017
  563MOL0     H74262   1.360   7.062  10.776 -2.6938  0.6923  1.0565
  563MOL0     H74263   1.126   7.134  10.753  0.6566 -1.0495  0.3557
  563MOL0     H74264   1.172   7.043  10.611 -1.1935  0.1480 -0.4924
  563MOL0     H74265   1.175   7.343  10.605 -4.2120  1.3288  1.6539
  563MOL0     H74266   1.186   7.235  10.470  1.9846  4.7705  0.3683
  563MOL0     H74267   0.946   7.152  10.602 -1.5544 -0.3901 -1.0841
  563MOL0     H74268   0.955   7.254  10.460  1.2257 -0.4117 -0.3715
  563MOL0     H74269   0.796   7.253  10.781 -0.0621  1.7697  2.8508
  563MOL0     H74270   0.739   7.595  10.934  0.9190 -0.8416  2.5727
  563MOL0     H74271   0.677   7.424  10.929 -0.4117 -1.7522 -1.9343
  563MOL0     H74272   0.507   7.511  10.759  0.5579 -0.1565 -0.6101
  563MOL0     H74273   0.584   7.670  10.794  2.2852 -0.7523  0.0204
  563MOL0     H74274   0.373   7.606  10.918 -0.2062 -0.7320 -3.1670
  563MOL0     H74275   0.476   7.492  11.003  1.7313  1.8911  2.4129
  563MOL0     H74276   0.420   7.742  11.098  0.3844  1.4610 -0.1941
  563MOL0     H74277   0.566   7.778  11.025 -1.3246 -0.6109 -1.3031
  563MOL0     H74278   0.710   7.466  11.286  0.6462 -1.5904 -2.1273
  563MOL0     H74279   0.603   7.257  11.428 -1.9286  1.3414  3.6946
  563MOL0     H74280   0.252   6.950  11.470 -1.4122  1.8265  1.4146
  563MOL0     H74281   0.173   6.772  11.608  1.2352 -1.3093  3.1342
  563MOL0     H74282   0.276   6.772  12.051  0.0783  0.6380 -1.7283
  563MOL0     H74283   0.408   6.682  11.990 -0.3876 -2.2756 -1.0866
  563MOL0     H74284   0.301   6.532  12.129 -0.5649 -1.7024  0.8084
  563MOL0     H74285   0.282   6.471  11.965  0.0483  2.3321 -1.5440
  563MOL0     H74286   0.047   6.555  11.959 -0.3064 -1.6218 -0.5289
  563MOL0     H74287   0.082   6.655  12.099  2.3697  1.1909 -0.7865
  563MOL0     H74288  -0.082   6.471  12.141  0.2185  0.3045 -1.6067
  563MOL0     H74289   0.033   6.351  12.097  0.3315  0.0037  0.0679
  563MOL0     H74290   0.085   6.557  12.309  2.6151  0.8830 -2.7412
  563MOL0     H74291   0.176   6.412  12.294 -0.4482  0.3305 -1.6895
  563MOL0     H74292   0.040   6.364  12.480 -0.5272  2.2686  0.0508
  563MOL0     H74293  -0.022   6.253  12.375 -1.1770 -0.8926  3.9335
  563MOL0     H74294  -0.148   6.527  12.420  0.2366 -0.2253  2.2572
  563MOL0     H74295  -0.203   6.404  12.300  1.6716  2.2704 -0.4687
  563MOL0     H74296  -0.260   6.245  12.462 -0.9352  0.9333 -1.4357
  563MOL0     H74297  -0.337   6.380  12.532 -0.7235 -3.0529  1.8629
  563MOL0     H74298   0.464   6.874  11.903 -1.1814 -0.2368  0.9104
  563MOL0     H74299   0.548   7.058  11.765  0.9131 -1.4746 -0.4649
  563MOL0     H74300   0.220   7.412  11.316  0.2315 -3.3383  1.7497
  563MOL0     H74301   0.317   7.611  11.213 -0.1099 -0.6679  0.9199
  563MOL0     H74302   1.968   6.954  10.795 -0.2236 -0.7251 -1.9389
  563MOL0     H74303   2.183   6.908  10.883  0.8591  3.8747  1.8182
  563MOL0     H74304   2.568   6.770  10.873  1.4633 -3.3637 -0.2870
  563MOL0     H74305   2.796   6.668  10.919  0.4238 -0.1008 -0.8894
  563MOL0     H74306   3.129   6.927  10.909 -2.8340  0.5062 -0.8326
  563MOL0     H74307   3.188   6.821  10.786  1.2575  3.7329 -0.4623
  563MOL0     H74308   3.230   6.645  10.963 -1.1117  1.0076 -0.1002
  563MOL0     H74309   3.344   6.773  10.952  0.0588  2.4831 -1.6029
  563MOL0     H74310   3.097   6.782  11.162 -1.6865  5.2372  1.9091
  563MOL0     H74311   3.218   6.899  11.152 -2.4394  0.0924  1.8752
  563MOL0     H74312   3.257   6.740  11.334 -1.3914 -1.9484 -0.4514
  563MOL0     H74313   3.260   6.606  11.221  1.9735 -0.3557 -2.7786
  563MOL0     H74314   3.641   6.832  11.176  1.8454 -1.9668  0.1405
  563MOL0     H74315   2.994   7.007  10.752  1.7052 -0.2475  2.3618
  563MOL0     H74316   2.779   7.094  10.682  2.9700 -0.1659 -1.3115
  564MOL0     O74317  10.294   4.481   8.349  0.5909 -0.5871  0.9660
  564MOL0     C74318  10.265   4.369   8.389 -0.0761 -1.0335  0.3287
  564MOL0     O74319  10.336   4.250   8.383  0.1173  0.0845  0.3662
  564MOL0     C74320  10.473   4.242   8.394 -0.1675 -0.5138  0.0552
  564MOL0     C74321  10.561   4.340   8.348  0.3101  0.7409  0.2398
  564MOL0     C74322  10.698   4.306   8.355  0.4077  0.2444 -0.8899
  564MOL0     C74323  10.747   4.182   8.409 -0.2872 -0.0097 -0.4997
  564MOL0     O74324  10.876   4.139   8.422  0.7720 -0.2698  0.3549
  564MOL0     C74325  10.974   4.213   8.343  0.3286 -0.4802 -0.1804
  564MOL0     C74326  11.120   4.158   8.356  0.3115 -0.0378 -0.8217
  564MOL0     C74327  11.135   4.008   8.307 -0.1828  0.3186 -0.1770
  564MOL0     C74328  11.285   3.964   8.312  0.6923  0.3081 -0.3683
  564MOL0     C74329  11.292   3.815   8.276  0.7660 -0.2635 -0.5105
  564MOL0     C74330  11.435   3.766   8.252  0.0896 -0.8971  1.1781
  564MOL0     C74331  11.510   3.747   8.388  0.1400 -0.0046  0.2552
  564MOL0     C74332  11.643   3.702   8.377  0.3102  0.4083 -0.5679
  564MOL0     N74333  11.702   3.708   8.504  0.7193  0.5600 -0.6083
  564MOL0     C74334  11.776   3.613   8.564 -0.0279  0.1611  1.0460
  564MOL0     C74335  11.825   3.680   8.671  0.2683 -0.1271  0.1143
  564MOL0     C74336  11.916   3.620   8.787 -0.7582 -0.0240  0.0234
  564MOL0     C74337  11.883   3.481   8.837  0.6227  0.4317  0.9734
  564MOL0     C74338  11.948   3.441   8.970 -0.6617 -0.0844  0.2339
  564MOL0     C74339  11.915   3.294   9.014 -0.0220  0.5417 -0.1769
  564MOL0     O74340  11.987   3.194   8.931 -0.5241 -0.4171  0.2922
  564MOL0     C74341  12.118   3.149   8.953  0.7349 -0.0045  0.7892
  564MOL0     C74342  12.210   3.218   9.030  0.7481  0.2578 -0.1899
  564MOL0     C74343  12.337   3.178   9.036  0.0848 -0.5626 -0.6386
  564MOL0     C74344  12.381   3.061   8.978 -0.1528  0.2385 -0.2901
  564MOL0     C74345  12.524   3.033   8.977 -0.3533  0.5894 -1.0010
  564MOL0     O74346  12.610   3.136   8.945  0.2116  0.2794 -0.3847
  564MOL0     C74347  12.750   3.115   8.923 -0.8704 -0.2354 -0.0530
  564MOL0     C74348  12.803   3.029   8.823 -0.4229 -0.2118 -0.0208
  564MOL0     C74349  12.941   3.027   8.800  0.9607 -0.1797  0.2168
  564MOL0     C74350  13.021   3.113   8.880  0.0280  0.0629 -0.4016
  564MOL0     O74351  13.149   3.157   8.829  0.2234  0.2135  0.7750
  564MOL0     C74352  13.198   3.117   8.696 -0.4063  0.8137  0.0283
  564MOL0     C74353  13.237   2.965   8.696  0.1893  0.6742  0.2765
  564MOL0     C74354  13.365   2.932   8.757 -0.7373 -0.3153  0.3014
  564MOL0     C74355  13.432   2.803   8.705  0.3790  0.4209 -0.0826
  564MOL0     C74356  13.575   2.792   8.777  0.7629  0.8240  0.3817
  564MOL0     C74357  13.637   2.653   8.731 -0.3283  0.0658 -0.1899
  564MOL0     C74358  13.697   2.588   8.855  0.0461  0.3568  0.6385
  564MOL0     C74359  13.749   2.452   8.828  0.5188  0.7768 -0.4883
  564MOL0    Cl74360  13.700   2.345   8.967  0.2185  0.2091  0.1442
  564MOL0     C74361  12.966   3.195   8.978  0.1030 -0.3807  0.5311
  564MOL0     C74362  12.828   3.194   8.997 -0.1248 -0.8330 -0.8490
  564MOL0     O74363  12.560   2.914   8.980  0.4006 -0.1878 -0.1286
  564MOL0     C74364  12.295   2.973   8.912  0.0496  0.0741  0.1525
  564MOL0     C74365  12.161   3.022   8.895  0.6229  0.0342  1.2112
  564MOL0     N74366  11.788   3.813   8.672  0.1169 -0.3390 -0.7176
  564MOL0     N74367  11.705   3.821   8.576  0.5858  0.3626  0.1512
  564MOL0     C74368  10.656   4.097   8.464  0.8737 -0.0045  0.4757
  564MOL0     C74369  10.516   4.126   8.457  0.3416 -0.4609  0.8354
  564MOL0     C74370  10.123   4.372   8.436 -0.3458  0.5920  0.5784
  564MOL0     C74371  10.057   4.248   8.434 -0.7640 -0.5244 -0.5935
  564MOL0     C74372   9.924   4.238   8.470  0.9141  0.5538  0.6005
  564MOL0     C74373   9.847   4.350   8.497 -0.5644 -0.9408  0.6228
  564MOL0     O74374   9.715   4.330   8.529 -0.0714  0.1691  0.1363
  564MOL0     C74375   9.606   4.416   8.509  0.5614 -0.0113 -0.1874
  564MOL0     C74376   9.516   4.384   8.625  0.0174  0.7831  0.8425
  564MOL0     C74377   9.564   4.426   8.761  0.5819  0.8555 -0.0276
  564MOL0     C74378   9.453   4.423   8.869  0.7494  0.5778 -0.5271
  564MOL0     C74379   9.411   4.284   8.895 -0.1184  0.5816  0.4944
  564MOL0     C74380   9.360   4.172   8.892  0.1825  0.3679  0.5690
  564MOL0     C74381   9.905   4.470   8.485  0.3043 -0.0445 -0.3170
  564MOL0     C74382  10.048   4.487   8.459  0.7316  0.6536  0.1956
  564MOL0     H74383  10.524   4.438   8.320  2.8729  1.7693  0.1730
  564MOL0     H74384  10.771   4.383   8.335  3.0571 -0.7371  3.5287
  564MOL0     H74385  10.976   4.314   8.384 -0.4157 -0.6576  0.3088
  564MOL0     H74386  10.945   4.220   8.238 -0.1649  0.8513  0.0287
  564MOL0     H74387  11.153   4.170   8.459  0.1900 -2.4308 -0.4548
  564MOL0     H74388  11.179   4.223   8.290  1.1002 -1.6884 -1.8256
  564MOL0     H74389  11.077   3.999   8.214 -0.3193 -0.2097 -0.0472
  564MOL0     H74390  11.078   3.942   8.374  1.4992 -0.9737  0.0503
  564MOL0     H74391  11.338   4.020   8.234  1.9563 -2.0919 -1.3137
  564MOL0     H74392  11.333   3.983   8.409  0.6872  0.5397 -0.4095
  564MOL0     H74393  11.237   3.798   8.183  1.7201 -1.9515 -0.7966
  564MOL0     H74394  11.252   3.747   8.352 -1.0906  1.2450 -0.0649
  564MOL0     H74395  11.487   3.841   8.193  0.3176 -2.5104 -0.7953
  564MOL0     H74396  11.441   3.678   8.187  1.6968 -0.8066  1.1645
  564MOL0     H74397  11.519   3.851   8.421 -0.5672  1.1799 -2.9287
  564MOL0     H74398  11.463   3.691   8.470  3.2992  0.4712  2.5872
  564MOL0     H74399  11.701   3.768   8.311  2.1642  1.6637  2.1454
  564MOL0     H74400  11.634   3.598   8.344  0.0711 -0.3096  1.6318
  564MOL0     H74401  11.783   3.507   8.542  0.9665  0.2127  1.0730
  564MOL0     H74402  11.901   3.693   8.868 -0.6937  1.6704 -1.4286
  564MOL0     H74403  12.020   3.609   8.757 -1.0062 -0.6572 -0.6369
  564MOL0     H74404  11.910   3.413   8.756  0.3831 -0.1232  1.3506
  564MOL0     H74405  11.774   3.480   8.844  0.5002 -3.7225  1.0746
  564MOL0     H74406  12.055   3.445   8.945 -0.2774 -2.3814  1.2606
  564MOL0     H74407  11.942   3.517   9.049 -2.7935  0.3249 -0.2568
  564MOL0     H74408  11.808   3.271   9.012 -0.5159  2.6666 -1.6586
  564MOL0     H74409  11.951   3.281   9.116  0.3602  0.3991 -0.3264
  564MOL0     H74410  12.188   3.312   9.080  1.0361 -0.2140  0.8459
  564MOL0     H74411  12.413   3.240   9.082 -0.8087  0.7758 -0.9152
  564MOL0     H74412  12.737   2.953   8.782 -0.0483 -0.5062 -0.0859
  564MOL0     H74413  12.986   2.966   8.722 -0.7652 -0.7414 -0.4062
  564MOL0     H74414  13.292   3.169   8.676 -0.0538  1.1160  2.2622
  564MOL0     H74415  13.119   3.144   8.625 -0.1558  1.5093  0.0097
  564MOL0     H74416  13.248   2.938   8.591 -0.9323  0.6872  0.1355
  564MOL0     H74417  13.165   2.898   8.745 -0.6222  2.0147  0.9808
  564MOL0     H74418  13.358   2.931   8.866  1.4214 -2.1128  0.4906
  564MOL0     H74419  13.437   3.013   8.744 -0.3530 -0.8713 -1.2068
  564MOL0     H74420  13.371   2.719   8.740  0.5582  1.1647  2.1469
  564MOL0     H74421  13.451   2.804   8.597  0.5000 -3.9133 -0.2981
  564MOL0     H74422  13.562   2.801   8.885  3.0155  1.5556  0.6521
  564MOL0     H74423  13.642   2.874   8.747  1.0912 -0.6808 -3.6610
  564MOL0     H74424  13.696   2.668   8.640  4.2062 -0.6416  2.3092
  564MOL0     H74425  13.553   2.590   8.700 -0.5631  0.1646  0.2407
  564MOL0     H74426  13.777   2.646   8.902  0.5825  0.5397 -0.4644
  564MOL0     H74427  13.613   2.593   8.924  0.3005  0.8449  0.9191
  564MOL0     H74428  13.858   2.463   8.822  0.8885  0.2084  3.2427
  564MOL0     H74429  13.695   2.410   8.742 -3.1478  1.0407  1.5122
  564MOL0     H74430  13.025   3.270   9.029 -1.3227 -1.1776  3.5234
  564MOL0     H74431  12.776   3.248   9.074  0.0116 -1.9464  0.0514
  564MOL0     H74432  12.330   2.882   8.865  3.2842  1.1806  0.1401
  564MOL0     H74433  12.096   2.954   8.842  1.7342  0.6163 -1.0387
  564MOL0     H74434  10.693   4.005   8.509  1.4164 -0.5381 -1.0113
  564MOL0     H74435  10.444   4.067   8.512 -3.3329  1.8575 -1.1001
  564MOL0     H74436  10.105   4.154   8.406  0.3153  0.0124 -0.6113
  564MOL0     H74437   9.874   4.143   8.454  0.2547  0.8389  0.9473
  564MOL0     H74438   9.556   4.385   8.417  2.1978 -1.2487 -0.7086
  564MOL0     H74439   9.630   4.523   8.511  2.0275 -0.3248  1.1215
  564MOL0     H74440   9.426   4.440   8.598 -1.3677 -0.0814  3.3257
  564MOL0     H74441   9.499   4.276   8.620 -0.8576  0.9638 -1.3524
  564MOL0     H74442   9.601   4.528   8.743  0.1278  0.2987 -6.5107
  564MOL0     H74443   9.643   4.359   8.797 -2.1656 -0.8924  3.4432
  564MOL0     H74444   9.487   4.468   8.962 -0.1183  1.6910 -0.7273
  564MOL0     H74445   9.363   4.481   8.846 -1.0253 -0.7415  2.5467
  564MOL0     H74446   9.311   4.077   8.896 -2.4154  1.4442 -2.1652
  564MOL0     H74447   9.841   4.555   8.505  3.1156  2.0079  0.5757
  564MOL0     H74448  10.095   4.581   8.484  0.3591  0.6305  1.0031
  565MOL0     O74449   9.605   4.164  10.161 -0.3567 -0.6212  0.0013
  565MOL0     C74450   9.596   4.185  10.282  0.6878  1.1354 -0.6744
  565MOL0     O74451   9.557   4.093  10.375  0.5858  0.6605 -0.4995
  565MOL0     C74452   9.501   3.979  10.322  0.1584 -0.0638  0.3881
  565MOL0     C74453   9.588   3.897  10.261 -0.4924 -0.4284 -0.1445
  565MOL0     C74454   9.555   3.777  10.197 -0.1097  0.4650  0.1085
  565MOL0     C74455   9.425   3.735  10.217 -0.1107  0.7103  0.6635
  565MOL0     O74456   9.389   3.603  10.185  0.1859 -0.3598  0.0310
  565MOL0     C74457   9.351   3.605  10.043 -0.5129 -0.1111 -0.3404
  565MOL0     C74458   9.379   3.478   9.979 -0.2606  0.3363 -0.2117
  565MOL0     C74459   9.340   3.481   9.827 -0.3527 -0.0091 -0.4952
  565MOL0     C74460   9.306   3.346   9.767  0.1207  0.9521  0.6741
  565MOL0     C74461   9.287   3.353   9.606  1.3209  0.2744 -0.8680
  565MOL0     C74462   9.134   3.368   9.559 -0.5360 -0.6542 -0.2704
  565MOL0     C74463   9.126   3.431   9.416  0.2729 -0.8199 -0.1383
  565MOL0     C74464   8.977   3.424   9.359 -0.0163  0.0685  0.1246
  565MOL0     N74465   8.900   3.547   9.402 -0.6025  0.6210 -0.2843
  565MOL0     C74466   8.801   3.607   9.322 -0.5827  0.0528 -0.4252
  565MOL0     C74467   8.747   3.699   9.400  0.2872  0.0957 -0.5496
  565MOL0     C74468   8.630   3.780   9.342 -0.3548  0.4096 -0.0547
  565MOL0     C74469   8.700   3.878   9.254 -0.1317  0.9438  0.1207
  565MOL0     C74470   8.592   3.958   9.175 -0.0337 -0.2682 -0.1470
  565MOL0     C74471   8.663   4.052   9.074 -0.1838 -0.3130  0.4466
  565MOL0     O74472   8.605   4.182   9.077 -0.2230 -0.0466  0.0628
  565MOL0     C74473   8.605   4.255   8.954  0.1693 -0.3278 -0.5780
  565MOL0     C74474   8.629   4.218   8.820  0.4748  0.9016 -0.4894
  565MOL0     C74475   8.605   4.299   8.708  0.1168  0.0345 -0.2919
  565MOL0     C74476   8.542   4.424   8.723  0.2389  0.7727  0.1599
  565MOL0     C74477   8.491   4.504   8.607 -0.2205 -0.2055  0.5215
  565MOL0     O74478   8.431   4.624   8.635 -0.0243 -0.3645 -0.2222
  565MOL0     C74479   8.405   4.704   8.522 -0.2361 -0.5895 -0.7148
  565MOL0     C74480   8.504   4.727   8.422 -0.1057  0.0866  0.0262
  565MOL0     C74481   8.475   4.800   8.304 -0.7134 -0.2124 -0.8836
  565MOL0     C74482   8.353   4.865   8.288  0.1992 -0.9988 -0.9983
  565MOL0     O74483   8.336   4.941   8.173 -0.4246  0.4131 -0.9522
  565MOL0     C74484   8.217   5.017   8.158 -0.3139 -0.8580 -0.1270
  565MOL0     C74485   8.222   5.151   8.238 -0.2554 -0.0381 -0.1933
  565MOL0     C74486   8.100   5.244   8.207  0.5544  0.5291  0.4025
  565MOL0     C74487   7.975   5.166   8.244  0.8698  0.3386  0.3079
  565MOL0     C74488   7.861   5.278   8.243  0.2542 -1.2043  0.2959
  565MOL0     C74489   7.728   5.200   8.261  0.2053  0.6706 -0.9746
  565MOL0     C74490   7.609   5.297   8.303  0.3781  0.3743 -1.0529
  565MOL0     C74491   7.482   5.211   8.330  0.1333 -0.2856 -0.3834
  565MOL0    Cl74492   7.352   5.308   8.411 -0.1447  0.5978 -0.2593
  565MOL0     C74493   8.255   4.845   8.385  0.3708  0.8552  0.4850
  565MOL0     C74494   8.283   4.775   8.501 -0.3709 -0.2949  0.2519
  565MOL0     O74495   8.503   4.450   8.495  0.5716  0.1320 -0.6034
  565MOL0     C74496   8.523   4.474   8.850  0.0428  0.1657  0.7007
  565MOL0     C74497   8.566   4.392   8.958  1.3851 -1.3353 -0.3000
  565MOL0     N74498   8.819   3.704   9.523  0.7341  0.4126  0.5454
  565MOL0     N74499   8.911   3.614   9.524 -0.2418  0.5115  0.8918
  565MOL0     C74500   9.329   3.814  10.278 -0.1329 -0.9286 -0.5030
  565MOL0     C74501   9.366   3.943  10.327  0.4307  0.0681  0.6101
  565MOL0     C74502   9.678   4.301  10.331 -0.1541 -0.3143  0.3071
  565MOL0     C74503   9.745   4.388  10.241 -0.2838 -0.3103 -1.0199
  565MOL0     C74504   9.829   4.495  10.280 -0.4486  0.1866  0.3509
  565MOL0     C74505   9.840   4.514  10.418 -0.1587  0.2736 -0.7266
  565MOL0     O74506   9.912   4.619  10.474 -0.7998  0.0391  0.0682
  565MOL0     C74507   9.986   4.713  10.400  1.9001 -0.6845  0.1940
  565MOL0     C74508  10.037   4.812  10.507  0.2012  0.4576 -0.8372
  565MOL0     C74509  10.117   4.922  10.438 -1.1062  0.0193 -0.6120
  565MOL0     C74510  10.232   4.878  10.358 -0.1301 -0.1440  0.6179
  565MOL0     C74511  10.308   4.777  10.430  0.4636  0.1942 -0.3768
  565MOL0     C74512  10.350   4.694  10.511 -0.3389  0.1927  0.1674
  565MOL0     C74513   9.783   4.427  10.512  0.4273 -0.5078  0.3474
  565MOL0     C74514   9.688   4.330  10.463 -0.3066  0.3628 -0.0491
  565MOL0     H74515   9.691   3.928  10.246 -0.0505 -1.1743  1.2004
  565MOL0     H74516   9.629   3.714  10.149  1.2415  2.6986 -0.9241
  565MOL0     H74517   9.409   3.680   9.987  0.7255 -2.5429 -2.5087
  565MOL0     H74518   9.246   3.635  10.039 -0.4738  0.3363  1.1615
  565MOL0     H74519   9.320   3.409  10.039  0.0172 -1.5685 -2.0089
  565MOL0     H74520   9.484   3.446   9.988 -0.2203  0.4369 -0.3122
  565MOL0     H74521   9.420   3.534   9.775  1.3580 -2.3508 -0.3839
  565MOL0     H74522   9.248   3.541   9.824  0.8157  1.9713  0.6951
  565MOL0     H74523   9.385   3.274   9.791 -1.7629 -1.2199  0.7422
  565MOL0     H74524   9.209   3.314   9.807  1.4814 -3.1604  1.1745
  565MOL0     H74525   9.326   3.258   9.569  2.6156 -1.7480  4.6359
  565MOL0     H74526   9.348   3.435   9.568  1.6693  0.2419 -0.3999
  565MOL0     H74527   9.066   3.427   9.621  1.9759  2.0180  0.1819
  565MOL0     H74528   9.095   3.266   9.562  0.3858 -0.9961  0.7360
  565MOL0     H74529   9.156   3.536   9.418  1.1050 -1.0559  0.4829
  565MOL0     H74530   9.198   3.374   9.356  1.4328 -1.2421  1.5878
  565MOL0     H74531   8.926   3.339   9.405 -0.4861  1.0424  1.4518
  565MOL0     H74532   8.981   3.424   9.249 -0.4363 -1.2890  0.0898
  565MOL0     H74533   8.782   3.579   9.218  0.3439 -0.4419 -0.4707
  565MOL0     H74534   8.572   3.832   9.420  0.0940  1.5086 -0.4303
  565MOL0     H74535   8.559   3.727   9.278  0.0131 -0.4854  0.2723
  565MOL0     H74536   8.771   3.831   9.186 -0.6458  2.7538 -1.7797
  565MOL0     H74537   8.752   3.942   9.325  1.1953 -0.8195  0.8086
  565MOL0     H74538   8.515   3.900   9.123 -1.4377  1.1514  0.2357
  565MOL0     H74539   8.525   4.021   9.235  0.1483  0.4766 -0.7059
  565MOL0     H74540   8.649   3.997   8.981 -0.1627 -0.4575  0.5278
  565MOL0     H74541   8.769   4.073   9.093  0.5378 -0.1195 -3.1200
  565MOL0     H74542   8.675   4.123   8.795 -1.5904 -0.1674 -0.5148
  565MOL0     H74543   8.618   4.272   8.604 -0.1514 -1.9250  0.1326
  565MOL0     H74544   8.610   4.705   8.431  0.3097 -1.0002 -4.7375
  565MOL0     H74545   8.550   4.830   8.232 -2.4090  0.6526 -2.3775
  565MOL0     H74546   8.134   4.946   8.165 -0.4095 -0.6752  0.7006
  565MOL0     H74547   8.209   5.053   8.055 -1.3998 -2.0239 -0.4608
  565MOL0     H74548   8.310   5.209   8.208  2.8908 -2.9298  2.4877
  565MOL0     H74549   8.218   5.130   8.345  1.5175  0.2164 -0.0469
  565MOL0     H74550   8.094   5.278   8.104  2.7370  0.2793  0.1562
  565MOL0     H74551   8.109   5.322   8.283  1.3435 -1.5376  2.5669
  565MOL0     H74552   7.956   5.087   8.171 -0.0352  0.0284  0.8555
  565MOL0     H74553   7.984   5.121   8.343  2.2548 -0.4819 -0.1664
  565MOL0     H74554   7.862   5.328   8.146  1.5531  0.5101  1.1290
  565MOL0     H74555   7.875   5.348   8.326 -2.4983  3.2797 -2.6019
  565MOL0     H74556   7.742   5.136   8.348 -1.3605  1.3960 -0.1328
  565MOL0     H74557   7.702   5.139   8.174 -1.7653  0.4595 -0.2789
  565MOL0     H74558   7.624   5.353   8.396 -1.4619  0.6785 -0.8994
  565MOL0     H74559   7.592   5.371   8.224 -0.5069  1.2321 -0.0778
  565MOL0     H74560   7.516   5.137   8.403  0.4932  0.7690  0.5416
  565MOL0     H74561   7.454   5.176   8.230  2.0473  0.1986 -1.1383
  565MOL0     H74562   8.156   4.890   8.376  0.7637  1.7010  0.2611
  565MOL0     H74563   8.195   4.780   8.564 -0.8899  1.4829 -0.5568
  565MOL0     H74564   8.474   4.570   8.861  1.9561  1.7484 -2.8492
  565MOL0     H74565   8.564   4.434   9.058  0.7475 -0.1312 -0.7995
  565MOL0     H74566   9.232   3.765  10.287  0.0343 -0.9039  2.1698
  565MOL0     H74567   9.294   4.009  10.373  1.4103  0.6904  1.2751
  565MOL0     H74568   9.736   4.358  10.137 -2.0884 -0.9657 -0.7019
  565MOL0     H74569   9.905   4.544  10.219 -0.2155  0.6593  1.0063
  565MOL0     H74570   9.932   4.765  10.320  3.5765 -0.8667 -1.1135
  565MOL0     H74571  10.076   4.662  10.366  2.3648 -2.3758  3.5215
  565MOL0     H74572   9.956   4.864  10.558  1.5850  2.2736 -0.3929
  565MOL0     H74573  10.096   4.760  10.582  0.3933 -0.9060 -1.8756
  565MOL0     H74574  10.154   4.982  10.521  1.8817 -3.1845  0.5804
  565MOL0     H74575  10.050   4.988  10.382 -0.5480  2.3679  1.3161
  565MOL0     H74576  10.193   4.836  10.264  1.7540  0.0401 -0.2826
  565MOL0     H74577  10.300   4.962  10.342 -2.0311  1.1539 -1.2557
  565MOL0     H74578  10.393   4.613  10.566  2.3668  1.6662  0.3842
  565MOL0     H74579   9.796   4.457  10.615  0.0582 -0.0084  0.2535
  565MOL0     H74580   9.631   4.274  10.537  2.7257 -3.2701 -0.1033
  566MOL0     O74581   5.744   7.295   6.446  0.1146 -0.6414 -0.1249
  566MOL0     C74582   5.835   7.379   6.462 -0.7615  0.8056  0.3406
  566MOL0     O74583   5.966   7.350   6.442 -0.7694  0.1024  0.4366
  566MOL0     C74584   6.005   7.218   6.450 -0.2692  0.0824 -0.9835
  566MOL0     C74585   5.982   7.161   6.579 -0.2424  0.7834 -0.2650
  566MOL0     C74586   6.042   7.034   6.608 -0.2692  1.1733  0.3579
  566MOL0     C74587   6.096   6.955   6.501  0.8602  0.1777  0.2609
  566MOL0     O74588   6.123   6.823   6.531  0.3533  0.2371 -0.3453
  566MOL0     C74589   6.073   6.726   6.442 -0.0882  0.2454  0.4537
  566MOL0     C74590   6.094   6.579   6.485 -0.3487 -0.3971 -0.0943
  566MOL0     C74591   6.231   6.551   6.548 -0.4916 -1.0922  0.0554
  566MOL0     C74592   6.337   6.576   6.440 -0.0837  0.0395  0.1546
  566MOL0     C74593   6.471   6.651   6.493 -0.0490 -0.4401 -0.2833
  566MOL0     C74594   6.546   6.573   6.600 -0.5534  0.7366 -0.0291
  566MOL0     C74595   6.682   6.640   6.623 -0.2633  1.0032 -0.2053
  566MOL0     C74596   6.782   6.575   6.722  0.5289 -0.1234 -0.2808
  566MOL0     N74597   6.836   6.452   6.654  0.7999  0.0978  0.0628
  566MOL0     C74598   6.931   6.451   6.555 -0.1886 -0.5575  0.1582
  566MOL0     C74599   6.928   6.319   6.519 -0.4734 -0.3039  0.3704
  566MOL0     C74600   7.016   6.259   6.406 -0.3639 -1.1689 -0.3203
  566MOL0     C74601   6.947   6.144   6.346 -0.0757  0.3470 -0.5485
  566MOL0     C74602   6.845   6.177   6.239 -0.0539 -0.6584 -0.7178
  566MOL0     C74603   6.697   6.216   6.295  0.5924  0.0852 -0.1131
  566MOL0     O74604   6.600   6.189   6.194 -0.0599  0.2856  0.6227
  566MOL0     C74605   6.533   6.295   6.132  0.4722 -0.1134 -0.5554
  566MOL0     C74606   6.580   6.427   6.135  0.9919  0.7906  0.3242
  566MOL0     C74607   6.509   6.524   6.069 -0.7297 -0.5146  0.2379
  566MOL0     C74608   6.396   6.491   5.989  0.1027  0.3853 -0.7749
  566MOL0     C74609   6.333   6.593   5.896 -0.5036 -0.6268  0.0819
  566MOL0     O74610   6.337   6.724   5.918  0.3586 -0.5204 -0.7124
  566MOL0     C74611   6.282   6.823   5.844  0.2663 -0.1024  0.2454
  566MOL0     C74612   6.220   6.804   5.715  0.0470 -0.4804  0.3814
  566MOL0     C74613   6.175   6.912   5.635 -0.7049  0.7315  0.7262
  566MOL0     C74614   6.179   7.038   5.691 -0.5411  0.6489 -0.1657
  566MOL0     O74615   6.138   7.137   5.611 -0.4320  0.5356 -0.7279
  566MOL0     C74616   6.257   7.197   5.545  1.1361  0.6800 -0.8676
  566MOL0     C74617   6.282   7.334   5.618  0.3396  0.0588 -0.5307
  566MOL0     C74618   6.274   7.445   5.514 -0.4539 -0.8894  0.0013
  566MOL0     C74619   6.256   7.580   5.584  0.0360  0.0176 -0.2378
  566MOL0     C74620   6.282   7.702   5.500 -0.8304 -0.3111 -0.1627
  566MOL0     C74621   6.264   7.827   5.592 -0.8037  0.8439 -0.2714
  566MOL0     C74622   6.308   7.956   5.518  0.3940  0.4089 -0.6347
  566MOL0     C74623   6.298   8.082   5.603 -0.2824 -0.9144 -0.4887
  566MOL0    Cl74624   6.392   8.062   5.751 -0.0205 -0.6848 -0.0567
  566MOL0     C74625   6.232   7.059   5.815  0.3956  0.3614  1.0513
  566MOL0     C74626   6.301   6.959   5.886  0.7432  1.0271  0.7405
  566MOL0     O74627   6.281   6.545   5.804 -0.3125  0.2025  1.1572
  566MOL0     C74628   6.345   6.364   5.994  0.3118 -0.2559  0.2756
  566MOL0     C74629   6.413   6.268   6.063  0.3455 -0.1404 -0.7523
  566MOL0     N74630   6.829   6.258   6.583 -0.2276  0.0882  1.4586
  566MOL0     N74631   6.768   6.342   6.662  0.8462  0.0904  0.6149
  566MOL0     C74632   6.106   7.017   6.371  0.1682 -0.4719  0.8615
  566MOL0     C74633   6.065   7.146   6.352  0.4699  0.1278  0.1885
  566MOL0     C74634   5.803   7.507   6.525  0.5552 -0.0670  0.1491
  566MOL0     C74635   5.896   7.610   6.511  0.3154 -1.2091 -0.3665
  566MOL0     C74636   5.862   7.732   6.569  0.2293 -0.0531  1.3815
  566MOL0     C74637   5.743   7.758   6.653 -0.3267 -0.0242  0.5314
  566MOL0     O74638   5.704   7.876   6.712 -0.5238 -0.1384  0.3690
  566MOL0     C74639   5.790   7.992   6.689  0.5467 -0.4554  0.3740
  566MOL0     C74640   5.920   7.983   6.760  0.7778 -0.5361  0.5900
  566MOL0     C74641   6.007   8.107   6.738  0.6356 -0.2981  0.6669
  566MOL0     C74642   6.157   8.091   6.736 -0.0033 -1.0429  0.0454
  566MOL0     C74643   6.213   8.224   6.684 -0.8431 -0.3201 -0.6008
  566MOL0     C74644   6.267   8.326   6.646  0.6781  0.5585 -0.0529
  566MOL0     C74645   5.655   7.648   6.656 -0.1324 -0.2693  0.0337
  566MOL0     C74646   5.680   7.528   6.594 -0.5727  0.6380 -0.0870
  566MOL0     H74647   5.934   7.205   6.666  1.2879 -1.3385  1.7616
  566MOL0     H74648   6.041   6.989   6.706 -1.5408  0.2395 -0.0695
  566MOL0     H74649   6.118   6.738   6.343 -0.3308 -2.2760 -0.0204
  566MOL0     H74650   5.967   6.742   6.420 -0.9350 -2.3783  2.2347
  566MOL0     H74651   6.061   6.504   6.413 -3.3067 -1.6283  2.3147
  566MOL0     H74652   6.018   6.571   6.563 -1.0019  0.0750 -0.6556
  566MOL0     H74653   6.226   6.445   6.576 -1.9313 -0.1719  3.8046
  566MOL0     H74654   6.247   6.601   6.644 -3.4593 -0.8066  0.4802
  566MOL0     H74655   6.354   6.475   6.402 -2.0208 -0.9998  1.8821
  566MOL0     H74656   6.301   6.638   6.357  0.4000  2.0555  1.3905
  566MOL0     H74657   6.447   6.753   6.524  1.3987 -0.0463 -0.3482
  566MOL0     H74658   6.534   6.665   6.404  2.5173  0.3102  1.5344
  566MOL0     H74659   6.566   6.473   6.562  0.4719  1.1581 -0.6547
  566MOL0     H74660   6.493   6.568   6.695 -0.4141  4.8941  0.4796
  566MOL0     H74661   6.725   6.661   6.525 -1.0310 -3.7878 -1.8210
  566MOL0     H74662   6.649   6.734   6.670  0.8475  2.0568 -1.4469
  566MOL0     H74663   6.714   6.545   6.802 -0.0861  0.1552 -0.6881
  566MOL0     H74664   6.865   6.638   6.755  0.5376  2.1678 -4.0735
  566MOL0     H74665   6.998   6.520   6.504  0.9400 -3.8087 -3.2754
  566MOL0     H74666   7.106   6.209   6.445 -0.1019 -1.8038 -1.6878
  566MOL0     H74667   7.049   6.340   6.340  0.8556 -0.0915  1.5029
  566MOL0     H74668   6.896   6.088   6.425 -0.8279  2.9113  0.9171
  566MOL0     H74669   7.026   6.087   6.297 -0.5724 -0.0622 -0.8813
  566MOL0     H74670   6.872   6.262   6.177  1.3769  0.5830  1.4851
  566MOL0     H74671   6.849   6.088   6.175  2.7526 -1.2358  0.1374
  566MOL0     H74672   6.698   6.319   6.332  4.2292  0.0924  0.1131
  566MOL0     H74673   6.668   6.153   6.379 -1.3474 -1.1062 -1.6118
  566MOL0     H74674   6.678   6.450   6.174  0.9216  0.9424  0.4127
  566MOL0     H74675   6.540   6.628   6.069  0.2901 -0.7529 -2.2152
  566MOL0     H74676   6.211   6.709   5.663  1.2300 -0.9046  0.9141
  566MOL0     H74677   6.134   6.906   5.535  0.7096 -3.6211  0.2130
  566MOL0     H74678   6.252   7.207   5.436 -0.1559 -0.6196 -0.9583
  566MOL0     H74679   6.346   7.139   5.571  2.3625  2.0945 -1.7644
  566MOL0     H74680   6.377   7.332   5.673  0.0534 -0.0877 -0.0314
  566MOL0     H74681   6.197   7.352   5.685  0.1655 -2.5437  0.0772
  566MOL0     H74682   6.189   7.429   5.446 -0.1224 -0.4706 -0.5124
  566MOL0     H74683   6.368   7.450   5.460 -0.1606 -0.6191  0.5302
  566MOL0     H74684   6.152   7.588   5.617 -1.1669 -1.4477 -3.3795
  566MOL0     H74685   6.321   7.576   5.672  3.3502 -0.2063 -2.5175
  566MOL0     H74686   6.221   7.707   5.410  0.9335 -3.2262 -1.6837
  566MOL0     H74687   6.387   7.706   5.470 -0.7569  1.2225  0.2150
  566MOL0     H74688   6.329   7.809   5.677  0.3665  1.9227 -0.9081
  566MOL0     H74689   6.159   7.840   5.620 -0.3108 -0.4244  2.5034
  566MOL0     H74690   6.409   7.946   5.477  1.0342  0.5846  0.8018
  566MOL0     H74691   6.236   7.981   5.440 -5.1794  0.3299  3.7602
  566MOL0     H74692   6.193   8.104   5.626 -0.5713  0.0282 -2.5162
  566MOL0     H74693   6.334   8.169   5.547 -0.3980  0.9012  2.0979
  566MOL0     H74694   6.231   7.159   5.858 -2.4592  0.1128  1.7197
  566MOL0     H74695   6.357   6.974   5.977  2.9589 -1.1694 -0.1544
  566MOL0     H74696   6.243   6.340   5.968 -1.1436  4.2027  0.9511
  566MOL0     H74697   6.380   6.165   6.053 -2.1440  0.5713 -0.3624
  566MOL0     H74698   6.165   6.978   6.288  0.8958  1.8632  0.2053
  566MOL0     H74699   6.087   7.189   6.255  0.2455  0.3443  0.2341
  566MOL0     H74700   5.993   7.613   6.461 -0.3269  1.1233 -1.6265
  566MOL0     H74701   5.931   7.812   6.546  1.4856 -1.6044 -0.6499
  566MOL0     H74702   5.746   8.077   6.742 -0.0380 -1.2026  1.0943
  566MOL0     H74703   5.803   8.002   6.581 -1.1364 -1.7501  0.0141
  566MOL0     H74704   5.906   7.983   6.868 -0.7689 -1.6130  0.4285
  566MOL0     H74705   5.980   7.895   6.735  2.9742  1.8728 -3.8858
  566MOL0     H74706   5.978   8.177   6.816  1.0510  2.3333 -1.4043
  566MOL0     H74707   5.984   8.152   6.641  0.9087  0.3573  0.9023
  566MOL0     H74708   6.204   8.065   6.831 -1.3420 -2.0286  0.4741
  566MOL0     H74709   6.183   8.022   6.655  0.1873 -1.1785  0.2208
  566MOL0     H74710   6.309   8.421   6.620 -1.3844  2.5051  3.0683
  566MOL0     H74711   5.558   7.650   6.703 -0.4831 -0.5351 -0.6594
  566MOL0     H74712   5.608   7.447   6.608  1.3568 -0.9902  0.9095
  567MOL0     O74713   3.247   4.964   8.896 -0.2661  0.3877 -0.3422
  567MOL0     C74714   3.168   4.879   8.931 -0.3423 -0.0557 -0.2965
  567MOL0     O74715   3.192   4.777   9.036  1.1380 -0.3342  0.5664
  567MOL0     C74716   3.302   4.767   9.114 -0.6033  0.1149  0.0288
  567MOL0     C74717   3.354   4.639   9.138 -0.8629  0.4158 -0.6937
  567MOL0     C74718   3.466   4.623   9.219  0.1444 -0.0054 -0.8367
  567MOL0     C74719   3.530   4.731   9.279  0.5969 -0.1972 -0.5066
  567MOL0     O74720   3.640   4.708   9.354 -0.2477 -0.5216 -0.2927
  567MOL0     C74721   3.648   4.763   9.492  0.8692  0.7645  0.3089
  567MOL0     C74722   3.739   4.688   9.586  0.4201 -0.0351  1.3430
  567MOL0     C74723   3.894   4.715   9.562 -0.4540  0.2521 -0.0223
  567MOL0     C74724   3.937   4.757   9.421 -0.4686  1.5929 -0.4502
  567MOL0     C74725   4.095   4.766   9.414  0.5262 -0.4271 -0.3931
  567MOL0     C74726   4.180   4.647   9.454  0.3333  0.0016 -0.0496
  567MOL0     C74727   4.312   4.637   9.380 -0.3342  0.1234  0.9073
  567MOL0     C74728   4.384   4.509   9.416 -0.1743 -0.5009  0.6569
  567MOL0     N74729   4.486   4.510   9.517 -0.3980 -1.2499 -0.3191
  567MOL0     C74730   4.453   4.476   9.639  0.7054 -0.0753 -0.3106
  567MOL0     C74731   4.564   4.471   9.709 -0.2236 -1.5279  0.6609
  567MOL0     C74732   4.596   4.426   9.852  0.6214 -0.4371 -0.0564
  567MOL0     C74733   4.652   4.537   9.923  0.6185  0.0231 -0.0126
  567MOL0     C74734   4.723   4.506  10.051  0.0768 -0.2007  0.1052
  567MOL0     C74735   4.641   4.452  10.159  0.2164 -0.0160 -0.2332
  567MOL0     O74736   4.526   4.534  10.182 -0.1721 -0.2918  0.2764
  567MOL0     C74737   4.453   4.510  10.291 -0.5786 -0.3833  0.2899
  567MOL0     C74738   4.348   4.597  10.326 -0.1099 -0.7228  0.9821
  567MOL0     C74739   4.274   4.585  10.443 -0.0669  0.0051 -0.2922
  567MOL0     C74740   4.309   4.486  10.528  0.7239  0.4988 -0.0790
  567MOL0     C74741   4.244   4.482  10.666 -0.0939  0.8794 -0.0316
  567MOL0     O74742   4.266   4.361  10.736 -0.0082 -0.6948 -0.1876
  567MOL0     C74743   4.190   4.332  10.849 -0.6788  0.7026  0.2906
  567MOL0     C74744   4.252   4.309  10.970 -0.8068  0.5099 -0.0738
  567MOL0     C74745   4.163   4.294  11.080 -0.1648  0.0775 -0.1196
  567MOL0     C74746   4.029   4.318  11.071  0.7022 -0.1507 -0.5049
  567MOL0     O74747   3.952   4.314  11.187 -0.1143 -0.6454 -0.1233
  567MOL0     C74748   3.850   4.212  11.178  0.8013  0.2189  0.4226
  567MOL0     C74749   3.813   4.178  11.324  0.0023 -0.0735  0.0995
  567MOL0     C74750   3.926   4.103  11.397 -0.7805  0.0748 -0.6084
  567MOL0     C74751   3.872   4.005  11.499 -0.9173 -0.1644  0.7158
  567MOL0     C74752   3.976   3.964  11.613 -0.2809 -1.1026  0.7081
  567MOL0     C74753   4.096   3.891  11.538  0.6806 -1.2683  0.0832
  567MOL0     C74754   4.194   3.798  11.623 -0.4053  0.3344  0.0188
  567MOL0     C74755   4.247   3.858  11.745 -1.1168  0.2321 -0.4477
  567MOL0    Cl74756   4.369   3.756  11.831  0.1737  0.1462  0.3701
  567MOL0     C74757   3.971   4.331  10.946  0.2817 -0.5771 -1.3460
  567MOL0     C74758   4.053   4.333  10.833  0.3348  0.6074 -0.2170
  567MOL0     O74759   4.177   4.579  10.703 -0.3671  0.5859 -0.2749
  567MOL0     C74760   4.417   4.404  10.504 -0.5266  0.5777  0.2230
  567MOL0     C74761   4.481   4.401  10.378  0.7753  0.2996 -0.4548
  567MOL0     N74762   4.670   4.512   9.618 -0.3508 -0.0561  0.1308
  567MOL0     N74763   4.622   4.526   9.504 -0.2756  0.2186 -0.5030
  567MOL0     C74764   3.475   4.859   9.249 -1.1797  0.0032  1.0042
  567MOL0     C74765   3.374   4.880   9.157 -0.8119 -0.2930  1.1608
  567MOL0     C74766   3.044   4.869   8.865  0.7044 -0.6072  0.2395
  567MOL0     C74767   3.022   4.954   8.750 -0.6327  0.2622 -0.4327
  567MOL0     C74768   2.897   4.962   8.684 -0.1760 -0.7171 -0.0381
  567MOL0     C74769   2.793   4.875   8.723  0.1478  0.2829  0.3459
  567MOL0     O74770   2.672   4.873   8.660 -0.8555  0.5386  0.5315
  567MOL0     C74771   2.675   4.922   8.524  0.0461 -0.4178 -0.2564
  567MOL0     C74772   2.538   4.884   8.470  0.0332  0.3816 -0.3369
  567MOL0     C74773   2.519   4.938   8.322 -0.1679 -0.2915 -0.1576
  567MOL0     C74774   2.388   4.897   8.251  0.7707 -0.0300 -0.5506
  567MOL0     C74775   2.328   4.763   8.284 -0.3755  0.3379  0.2660
  567MOL0     C74776   2.278   4.658   8.314  0.3970 -0.4261  0.7654
  567MOL0     C74777   2.815   4.795   8.845  0.5359 -1.1468  0.1291
  567MOL0     C74778   2.934   4.793   8.917 -0.3755 -0.2049  0.0389
  567MOL0     H74779   3.301   4.553   9.100  2.5386 -1.3910 -1.6525
  567MOL0     H74780   3.485   4.524   9.261  0.7129  0.1632 -0.6928
  567MOL0     H74781   3.550   4.776   9.539  2.1542  0.2019  3.4170
  567MOL0     H74782   3.682   4.867   9.480 -1.0172  1.2248 -1.8426
  567MOL0     H74783   3.718   4.584   9.556  4.0876 -0.3158 -0.8894
  567MOL0     H74784   3.707   4.704   9.689  1.6592 -0.1312  1.7554
  567MOL0     H74785   3.944   4.621   9.585  0.6565  0.4770 -1.3939
  567MOL0     H74786   3.942   4.784   9.633 -0.0599 -0.6019  0.5528
  567MOL0     H74787   3.910   4.673   9.355 -1.1516 -2.4954  4.4344
  567MOL0     H74788   3.888   4.852   9.397  2.1381  3.5514  1.3947
  567MOL0     H74789   4.122   4.849   9.480  0.2007 -1.6055  1.3041
  567MOL0     H74790   4.124   4.796   9.313 -0.3759 -0.7680 -0.7602
  567MOL0     H74791   4.129   4.550   9.456  2.8677 -1.4483 -0.6468
  567MOL0     H74792   4.201   4.659   9.560 -3.4997 -3.3409  1.3093
  567MOL0     H74793   4.290   4.622   9.274  2.1892 -2.9065  0.6807
  567MOL0     H74794   4.380   4.722   9.394  0.2816  0.3166 -2.4578
  567MOL0     H74795   4.436   4.477   9.326 -1.4287 -0.5551 -0.0793
  567MOL0     H74796   4.325   4.421   9.446  0.2765 -1.8942 -2.2140
  567MOL0     H74797   4.358   4.431   9.664 -0.4033  0.8719 -2.5115
  567MOL0     H74798   4.658   4.336   9.845 -2.5461 -2.9099  1.2392
  567MOL0     H74799   4.500   4.402   9.898 -2.7227  3.8945 -3.8467
  567MOL0     H74800   4.576   4.615   9.935 -0.0750 -0.5170 -0.8234
  567MOL0     H74801   4.731   4.584   9.864  0.4728  0.2879 -0.0008
  567MOL0     H74802   4.800   4.429  10.039  0.7013  0.3632  0.3857
  567MOL0     H74803   4.765   4.602  10.085  0.6259  0.0525 -1.2215
  567MOL0     H74804   4.705   4.448  10.247 -0.7583 -0.1647  0.4809
  567MOL0     H74805   4.605   4.352  10.135 -1.1046 -0.7996  4.1124
  567MOL0     H74806   4.326   4.686  10.268 -0.8627 -2.3784 -1.4256
  567MOL0     H74807   4.191   4.652  10.465  0.7770  0.6759  0.9618
  567MOL0     H74808   4.360   4.317  10.973 -0.8696  1.0417  1.2355
  567MOL0     H74809   4.204   4.287  11.180 -0.0756 -0.2646 -0.1763
  567MOL0     H74810   3.884   4.113  11.146  0.5150 -0.5762  2.4238
  567MOL0     H74811   3.759   4.244  11.128  1.2551  1.1200  0.1399
  567MOL0     H74812   3.718   4.124  11.336  0.6775 -1.0742  1.1312
  567MOL0     H74813   3.805   4.268  11.386  3.3443  0.1312  0.3976
  567MOL0     H74814   3.988   4.171  11.456  2.0138  0.0598 -3.3066
  567MOL0     H74815   3.999   4.059  11.329  3.3040  0.5444  3.0665
  567MOL0     H74816   3.797   4.066  11.551 -1.2944  0.7209 -0.7993
  567MOL0     H74817   3.816   3.926  11.449  0.7583 -1.7356  1.2303
  567MOL0     H74818   3.919   3.891  11.672  2.1436 -3.2642  0.5413
  567MOL0     H74819   4.018   4.046  11.672  1.4692  1.0888 -3.1967
  567MOL0     H74820   4.154   3.973  11.494  1.7001 -1.2987  1.3158
  567MOL0     H74821   4.064   3.832  11.452  0.5629 -0.3527 -0.5140
  567MOL0     H74822   4.138   3.712  11.662 -0.2059  0.1181 -0.1721
  567MOL0     H74823   4.267   3.761  11.552  1.9525 -0.9139  2.8748
  567MOL0     H74824   4.167   3.889  11.813 -0.4924  0.2241  0.3023
  567MOL0     H74825   4.302   3.950  11.726  3.2277 -2.6837 -4.2434
  567MOL0     H74826   3.866   4.353  10.934  0.2684 -0.2692 -0.6785
  567MOL0     H74827   4.007   4.347  10.736 -1.5220 -0.3877  0.4648
  567MOL0     H74828   4.448   4.336  10.583 -2.0967 -0.8927 -0.3634
  567MOL0     H74829   4.564   4.332  10.367  1.7531  1.1970  0.9887
  567MOL0     H74830   3.521   4.950   9.286  1.4245  0.5411 -2.9769
  567MOL0     H74831   3.335   4.975   9.123  0.5319 -0.2546 -0.4107
  567MOL0     H74832   3.098   5.016   8.704  1.5685 -1.3541  0.8014
  567MOL0     H74833   2.899   5.032   8.601 -0.5795  0.6600  1.0769
  567MOL0     H74834   2.755   4.872   8.469  0.3920 -2.3929  1.9254
  567MOL0     H74835   2.674   5.031   8.513 -0.0540 -0.4121 -0.2014
  567MOL0     H74836   2.531   4.775   8.469  0.8641  0.2894  0.9415
  567MOL0     H74837   2.464   4.925   8.540  2.2331 -0.0774  2.4597
  567MOL0     H74838   2.609   4.906   8.268  0.9220  2.1186  0.0960
  567MOL0     H74839   2.529   5.046   8.335 -1.8086 -0.3362  2.1530
  567MOL0     H74840   2.311   4.967   8.283 -1.1709 -0.7580 -3.2545
  567MOL0     H74841   2.403   4.912   8.144  4.5055  1.5770  0.0371
  567MOL0     H74842   2.230   4.562   8.311  2.6482 -1.5830 -1.4656
  567MOL0     H74843   2.734   4.735   8.884 -0.3445 -0.3756 -0.4480
  567MOL0     H74844   2.932   4.742   9.012  2.0469 -2.8216 -1.1698
  568MOL0     O74845   2.813   2.975   0.307  1.1746 -0.1551  0.5550
  568MOL0     C74846   2.857   2.863   0.325  0.3231 -0.0349  0.2912
  568MOL0     O74847   2.793   2.769   0.391 -0.0537  0.6133  0.6755
  568MOL0     C74848   2.699   2.784   0.490 -0.2129 -0.6920 -0.0153
  568MOL0     C74849   2.605   2.684   0.505 -0.3357  0.3506  0.2014
  568MOL0     C74850   2.515   2.686   0.615  0.1725  1.2841  0.1403
  568MOL0     C74851   2.504   2.801   0.691  0.0801 -0.9119  0.2227
  568MOL0     O74852   2.399   2.804   0.772  0.2816 -0.2087 -0.6832
  568MOL0     C74853   2.341   2.927   0.833  1.0245  0.3963  0.3923
  568MOL0     C74854   2.223   2.961   0.737 -0.9998 -0.0844  0.4718
  568MOL0     C74855   2.155   3.088   0.782 -0.1738 -0.7641 -0.1443
  568MOL0     C74856   2.043   3.134   0.674  0.1450 -0.2393 -0.0280
  568MOL0     C74857   1.949   3.237   0.737 -0.6710  0.2219  0.4438
  568MOL0     C74858   1.874   3.329   0.646 -0.8928  0.0186 -0.5006
  568MOL0     C74859   1.799   3.430   0.737 -0.9207 -0.9127  0.5089
  568MOL0     C74860   1.672   3.372   0.806  0.7948 -0.9815  0.4398
  568MOL0     N74861   1.561   3.330   0.711 -0.2541 -0.4881  0.1987
  568MOL0     C74862   1.499   3.205   0.722 -1.2627  1.1744 -0.3307
  568MOL0     C74863   1.398   3.206   0.634  0.4744 -0.5439 -0.5864
  568MOL0     C74864   1.300   3.106   0.594 -0.0917 -0.2684 -0.2913
  568MOL0     C74865   1.158   3.133   0.654  1.5457 -0.6585  0.0902
  568MOL0     C74866   1.055   3.029   0.619 -0.5013 -0.4116 -0.2212
  568MOL0     C74867   0.915   3.077   0.594 -0.1955 -0.5758 -0.0859
  568MOL0     O74868   0.811   2.977   0.611  0.0211  0.3858 -0.2905
  568MOL0     C74869   0.684   3.029   0.637 -0.3629 -0.2839 -0.4237
  568MOL0     C74870   0.643   3.159   0.600  0.8477  0.2753  0.3071
  568MOL0     C74871   0.515   3.200   0.658  0.6609  0.6754  0.6831
  568MOL0     C74872   0.439   3.118   0.735  0.7738  0.2956 -0.3587
  568MOL0     C74873   0.302   3.165   0.782 -0.6526 -0.4361  0.9585
  568MOL0     O74874   0.238   3.095   0.874 -0.2546  0.8019  0.1180
  568MOL0     C74875   0.114   3.133   0.919 -0.9521  0.5377 -0.7553
  568MOL0     C74876   0.093   3.169   1.050  0.1485  0.1208 -0.9740
  568MOL0     C74877  -0.035   3.189   1.094  0.4586 -0.3843 -0.4665
  568MOL0     C74878  -0.148   3.189   1.007 -0.0956 -0.2241  0.6905
  568MOL0     O74879  -0.275   3.202   1.057  0.1113 -0.4889  0.9846
  568MOL0     C74880  -0.292   3.329   1.117  0.3456 -0.5654  0.5743
  568MOL0     C74881  -0.436   3.369   1.113 -0.0939  0.2550  0.0944
  568MOL0     C74882  -0.471   3.400   0.966  0.5633  0.0511 -0.2042
  568MOL0     C74883  -0.604   3.486   0.961 -0.0304  0.1553  0.4731
  568MOL0     C74884  -0.741   3.410   0.955 -0.6902  0.5959 -0.1521
  568MOL0     C74885  -0.862   3.497   1.005  0.1255  0.5451  0.1546
  568MOL0     C74886  -0.886   3.631   0.936 -0.4333  0.4896  0.2286
  568MOL0     C74887  -0.808   3.754   0.988  0.4497  0.5386 -0.0819
  568MOL0    Cl74888  -0.902   3.896   0.918 -0.0648  0.1365 -0.0145
  568MOL0     C74889  -0.119   3.146   0.867  0.1930  0.9088  0.8155
  568MOL0     C74890   0.011   3.135   0.827  0.5821  1.3585 -0.5737
  568MOL0     O74891   0.259   3.269   0.726  0.7607  0.4865  0.0996
  568MOL0     C74892   0.476   2.997   0.759  0.9541 -0.2816  0.9109
  568MOL0     C74893   0.597   2.945   0.708 -0.1718  0.3301 -0.0651
  568MOL0     N74894   1.392   3.333   0.581 -0.2312  0.2270  0.3231
  568MOL0     N74895   1.500   3.397   0.624 -0.3599 -0.3653  0.3319
  568MOL0     C74896   2.599   2.902   0.668  0.9211 -0.0657  0.8127
  568MOL0     C74897   2.705   2.893   0.573  0.5014  0.9060 -0.1440
  568MOL0     C74898   2.967   2.828   0.233 -0.5581  0.0217  0.6896
  568MOL0     C74899   3.034   2.925   0.154 -1.3072 -0.4458 -0.0199
  568MOL0     C74900   3.126   2.891   0.062  0.3478  1.1287 -0.0166
  568MOL0     C74901   3.147   2.752   0.036 -0.2874 -0.1416 -0.7952
  568MOL0     O74902   3.252   2.725  -0.055  0.4954 -0.3778 -0.7404
  568MOL0     C74903   3.267   2.594  -0.112  0.7782  0.9282 -0.1222
  568MOL0     C74904   3.349   2.490  -0.020  0.1385 -0.4206 -0.6362
  568MOL0     C74905   3.482   2.543   0.006 -0.6413  0.2503 -0.3219
  568MOL0     C74906   3.592   2.452   0.066 -0.2724  0.2894 -0.9383
  568MOL0     C74907   3.718   2.532   0.063 -0.1828  0.4584 -0.0131
  568MOL0     C74908   3.825   2.588   0.086  0.0950 -0.9616 -0.0877
  568MOL0     C74909   3.068   2.656   0.106  0.1582 -0.0068  0.8656
  568MOL0     C74910   2.978   2.695   0.202 -0.5925 -1.1470 -0.1655
  568MOL0     H74911   2.615   2.591   0.451  2.6173 -1.5665  3.5869
  568MOL0     H74912   2.446   2.605   0.632  2.1564 -0.5993 -0.2047
  568MOL0     H74913   2.398   3.020   0.841 -2.3398  2.8930 -1.6944
  568MOL0     H74914   2.312   2.902   0.935  2.1528  0.0326  0.6310
  568MOL0     H74915   2.152   2.877   0.738 -0.7757 -0.3092 -0.7327
  568MOL0     H74916   2.251   2.973   0.632 -4.5936 -0.7693 -0.7147
  568MOL0     H74917   2.238   3.159   0.783  0.1719 -1.1627  0.1725
  568MOL0     H74918   2.122   3.087   0.887  1.6749 -1.6199  0.4762
  568MOL0     H74919   2.094   3.185   0.592 -0.5233  0.3418 -0.0867
  568MOL0     H74920   1.991   3.045   0.637  0.1879 -1.5862  2.8796
  568MOL0     H74921   2.017   3.288   0.807  2.4781 -2.1307 -0.6548
  568MOL0     H74922   1.871   3.190   0.798  1.1581 -2.0538  1.1739
  568MOL0     H74923   1.802   3.275   0.583 -2.4469 -0.0648  1.2793
  568MOL0     H74924   1.942   3.388   0.583 -2.1593  0.0801 -1.8789
  568MOL0     H74925   1.873   3.473   0.805  1.1833  2.1611 -3.3178
  568MOL0     H74926   1.758   3.509   0.674 -3.1364 -2.0213  0.4766
  568MOL0     H74927   1.629   3.451   0.867 -1.9619 -1.8906 -0.2060
  568MOL0     H74928   1.704   3.300   0.882 -1.7929 -3.6314 -0.7824
  568MOL0     H74929   1.526   3.128   0.794 -1.7457 -0.1786 -1.5392
  568MOL0     H74930   1.330   3.002   0.612 -0.5951 -0.9464 -2.9797
  568MOL0     H74931   1.294   3.123   0.486  1.3627  3.8131  0.0964
  568MOL0     H74932   1.122   3.228   0.614 -3.8270 -1.0966  3.0457
  568MOL0     H74933   1.161   3.146   0.763 -0.7081  2.4626 -0.0924
  568MOL0     H74934   1.079   2.956   0.542 -0.1899 -1.2872  0.6794
  568MOL0     H74935   1.040   2.968   0.709 -1.0311  1.5427  1.0972
  568MOL0     H74936   0.909   3.127   0.497  1.3379 -0.8229 -0.3327
  568MOL0     H74937   0.893   3.152   0.670  1.7537 -1.0182  0.9752
  568MOL0     H74938   0.700   3.232   0.544  1.6545 -0.5066  0.0814
  568MOL0     H74939   0.489   3.302   0.631 -1.5145 -0.6857 -3.0837
  568MOL0     H74940   0.169   3.167   1.128 -1.9715  1.6201  1.2815
  568MOL0     H74941  -0.042   3.193   1.202  2.0837 -1.1225 -0.3118
  568MOL0     H74942  -0.226   3.406   1.077 -1.6992  0.1065 -1.7799
  568MOL0     H74943  -0.266   3.326   1.223  4.1648 -2.5679 -0.2650
  568MOL0     H74944  -0.451   3.454   1.180  2.1302  0.2559  0.6641
  568MOL0     H74945  -0.507   3.296   1.154  0.9138 -0.6918  0.2217
  568MOL0     H74946  -0.478   3.303   0.917  0.5132 -0.0976  0.0926
  568MOL0     H74947  -0.392   3.467   0.931 -3.5849  6.6234  1.3202
  568MOL0     H74948  -0.603   3.555   1.046 -1.5965  0.0870  0.5753
  568MOL0     H74949  -0.603   3.552   0.874 -1.4715 -0.3460  0.0578
  568MOL0     H74950  -0.736   3.314   1.007 -1.6675  0.0382 -1.0572
  568MOL0     H74951  -0.759   3.385   0.850 -1.4445  5.3374 -1.3962
  568MOL0     H74952  -0.840   3.495   1.112  0.4326 -1.2994  0.0786
  568MOL0     H74953  -0.956   3.447   0.979  0.7220  1.0279 -3.4141
  568MOL0     H74954  -0.872   3.623   0.828 -1.6186  0.0394  0.0993
  568MOL0     H74955  -0.990   3.657   0.953 -0.5545  0.6285 -0.7137
  568MOL0     H74956  -0.703   3.761   0.957  0.2929  2.2632 -0.3336
  568MOL0     H74957  -0.820   3.761   1.096  1.2726  2.6751 -0.0878
  568MOL0     H74958  -0.190   3.104   0.796  2.6483 -1.8071 -0.2342
  568MOL0     H74959   0.032   3.098   0.727  0.8912  2.0117 -0.7539
  568MOL0     H74960   0.404   2.932   0.808 -1.4850  1.3712 -0.2485
  568MOL0     H74961   0.630   2.847   0.740  0.5934  0.3139 -0.8645
  568MOL0     H74962   2.597   2.985   0.738  0.7676 -0.6015  1.4568
  568MOL0     H74963   2.776   2.971   0.548  0.0303  1.6549  0.8116
  568MOL0     H74964   3.021   3.032   0.147 -1.2326 -0.2319  2.5031
  568MOL0     H74965   3.166   2.960  -0.011  2.7536 -0.7425 -0.5934
  568MOL0     H74966   3.317   2.599  -0.209 -1.3347 -0.8523 -1.4136
  568MOL0     H74967   3.166   2.562  -0.139 -0.5030  3.9133  0.6980
  568MOL0     H74968   3.292   2.486   0.073 -0.2644  2.5022 -0.6657
  568MOL0     H74969   3.350   2.387  -0.056 -0.1685 -0.9042  0.6744
  568MOL0     H74970   3.475   2.629   0.073 -2.3943 -1.1652  1.4264
  568MOL0     H74971   3.524   2.578  -0.089 -0.2365 -0.7999 -0.5436
  568MOL0     H74972   3.578   2.423   0.170  0.2119  1.1433 -0.6318
  568MOL0     H74973   3.595   2.362   0.003 -0.2341 -0.4884  0.1587
  568MOL0     H74974   3.914   2.647   0.085  0.8554 -1.8192  3.1427
  568MOL0     H74975   3.090   2.550   0.093  1.9689  0.0755  2.7682
  568MOL0     H74976   2.926   2.621   0.261  1.1944 -1.6516  0.8354
  569MOL0     O74977   8.725  10.232  10.580 -0.7857 -0.1246 -0.0291
  569MOL0     C74978   8.618  10.173  10.553 -0.0539  1.0797 -1.0331
  569MOL0     O74979   8.603  10.099  10.431  0.0458 -0.2380  0.4433
  569MOL0     C74980   8.702  10.075  10.341 -1.1181 -0.3900  0.6449
  569MOL0     C74981   8.825  10.020  10.378  0.2910 -0.4524  0.1736
  569MOL0     C74982   8.930  10.003  10.293  0.6350 -0.1424 -0.1262
  569MOL0     C74983   8.914  10.021  10.155 -0.5891 -0.5206 -0.0623
  569MOL0     O74984   9.015   9.993  10.076  0.0725  0.2749  0.5734
  569MOL0     C74985   9.017  10.037   9.941  0.0694 -0.3539  0.1006
  569MOL0     C74986   9.140   9.981   9.858 -0.0497  0.1894 -0.9539
  569MOL0     C74987   9.172  10.052   9.728 -0.0474  0.3530  0.1345
  569MOL0     C74988   9.314  10.013   9.691 -1.4740  0.8667  0.3853
  569MOL0     C74989   9.344   9.861   9.668  0.0460  0.2282 -0.4492
  569MOL0     C74990   9.251   9.786   9.572  0.4419  0.5296  0.1089
  569MOL0     C74991   9.264   9.632   9.577  0.4658 -0.7785  0.0104
  569MOL0     C74992   9.401   9.586   9.510 -0.3427  0.2322 -1.1737
  569MOL0     N74993   9.417   9.438   9.499 -0.4009  0.3787  0.0989
  569MOL0     C74994   9.535   9.359   9.486  0.1932  0.6320  0.5855
  569MOL0     C74995   9.483   9.237   9.453  0.7362  0.9029 -0.0853
  569MOL0     C74996   9.561   9.110   9.419 -0.3550  0.7184  0.0900
  569MOL0     C74997   9.580   9.088   9.269  0.4603 -0.3033  0.3989
  569MOL0     C74998   9.617   8.942   9.228 -1.0189  0.0481  0.2412
  569MOL0     C74999   9.622   8.923   9.072  0.2136  0.4681 -1.0095
  569MOL0     O75000   9.732   8.991   9.007  0.0114  1.1279 -0.3957
  569MOL0     C75001   9.850   8.919   9.010 -0.2750 -0.1509  0.3026
  569MOL0     C75002   9.969   8.993   9.042  0.8705  0.4230 -0.3287
  569MOL0     C75003  10.096   8.946   9.030 -0.2072  0.2018  0.4665
  569MOL0     C75004  10.109   8.806   8.992 -0.6706  0.1040 -0.0788
  569MOL0     C75005  10.245   8.742   8.988  0.3790  0.3949  0.5069
  569MOL0     O75006  10.346   8.800   9.056 -0.7181  0.5701  0.2639
  569MOL0     C75007  10.478   8.756   9.050 -0.5097 -0.3818  0.7486
  569MOL0     C75008  10.583   8.847   8.997  1.0183  0.7083 -0.1497
  569MOL0     C75009  10.716   8.801   8.988  0.5400 -0.9244  0.5577
  569MOL0     C75010  10.751   8.676   9.012 -0.0880 -0.3197  0.0860
  569MOL0     O75011  10.866   8.633   8.964 -0.9769  0.2913 -0.7571
  569MOL0     C75012  10.925   8.509   9.013 -0.6408 -0.3199 -0.6171
  569MOL0     C75013  11.069   8.501   8.965 -0.6661 -0.2797 -0.2693
  569MOL0     C75014  11.134   8.380   9.029  0.4534  0.2766 -0.1109
  569MOL0     C75015  11.279   8.368   8.978 -1.1484 -0.9877  1.0491
  569MOL0     C75016  11.349   8.229   9.007 -0.2556  0.6809  0.1630
  569MOL0     C75017  11.498   8.225   8.973 -0.5576  0.0677  0.1135
  569MOL0     C75018  11.517   8.248   8.822  0.4202  1.0682 -0.6462
  569MOL0     C75019  11.664   8.227   8.782 -1.2620 -0.2364  0.9459
  569MOL0    Cl75020  11.778   8.346   8.855 -0.1895 -0.1426  0.3138
  569MOL0     C75021  10.653   8.598   9.073 -0.3481  0.7603  0.6240
  569MOL0     C75022  10.523   8.634   9.099 -0.7717 -0.1346 -0.0296
  569MOL0     O75023  10.266   8.646   8.916  0.4269 -0.1025  0.7124
  569MOL0     C75024  10.002   8.730   8.951 -0.0263  0.3301 -0.2574
  569MOL0     C75025   9.869   8.788   8.958 -0.2982 -0.1405  1.0163
  569MOL0     N75026   9.348   9.245   9.423  0.2908 -0.5645  0.6974
  569MOL0     N75027   9.312   9.361   9.450 -0.7029 -0.3532 -0.5542
  569MOL0     C75028   8.787  10.071  10.109 -1.0868 -0.7834  0.1864
  569MOL0     C75029   8.687  10.096  10.203 -0.6502 -0.7998  0.3198
  569MOL0     C75030   8.509  10.164  10.652  0.9041 -1.2389 -0.6281
  569MOL0     C75031   8.419  10.050  10.649 -0.1260  0.3597  0.0921
  569MOL0     C75032   8.317  10.045  10.741  0.7472 -0.6532  0.5528
  569MOL0     C75033   8.295  10.150  10.831 -0.2330  0.0023  0.3243
  569MOL0     O75034   8.187  10.143  10.918  0.8954 -0.5630  0.0604
  569MOL0     C75035   8.184  10.027  11.005 -0.2015 -0.2539  0.2220
  569MOL0     C75036   8.315  10.048  11.096 -0.1121 -0.5196 -1.1795
  569MOL0     C75037   8.315   9.936  11.195  0.0926  0.5620 -0.6778
  569MOL0     C75038   8.436   9.956  11.285  0.7645 -0.5731  0.5178
  569MOL0     C75039   8.458   9.834  11.362  0.7213  0.4487 -0.4836
  569MOL0     C75040   8.503   9.735  11.430  0.3981 -0.9877 -0.1179
  569MOL0     C75041   8.378  10.257  10.844 -0.2284  0.4676  0.7073
  569MOL0     C75042   8.481  10.269  10.750 -0.7504  0.3767 -0.0493
  569MOL0     H75043   8.830   9.991  10.482  0.2133 -0.2963  0.2202
  569MOL0     H75044   9.028   9.979  10.331  1.0155  2.8138  1.0190
  569MOL0     H75045   9.009  10.145   9.928  2.6392  0.1987  2.2908
  569MOL0     H75046   8.931   9.995   9.888  1.3416 -1.3303 -1.2611
  569MOL0     H75047   9.124   9.874   9.841  1.7695 -0.2395 -0.1531
  569MOL0     H75048   9.226   9.992   9.925 -0.8230 -2.2466  0.5621
  569MOL0     H75049   9.184  10.160   9.736 -0.3374  0.5286 -1.3839
  569MOL0     H75050   9.111  10.023   9.641  3.8346  0.3271 -2.8299
  569MOL0     H75051   9.334  10.059   9.594 -0.5130 -2.3981 -1.1058
  569MOL0     H75052   9.399  10.049   9.748 -0.7447  2.4627 -1.6148
  569MOL0     H75053   9.333   9.814   9.767  0.6045 -1.5742 -1.2077
  569MOL0     H75054   9.443   9.842   9.626 -0.6899 -1.0268 -1.6926
  569MOL0     H75055   9.258   9.827   9.470  1.7326  1.3542  0.4984
  569MOL0     H75056   9.150   9.813   9.603 -0.4874 -1.5144 -0.9506
  569MOL0     H75057   9.261   9.603   9.683 -2.5047  3.1669  1.3011
  569MOL0     H75058   9.184   9.594   9.513  1.4589 -2.1492 -0.4449
  569MOL0     H75059   9.483   9.623   9.573 -1.2656  1.8512 -0.8632
  569MOL0     H75060   9.412   9.618   9.406  0.1295 -1.3066 -1.6248
  569MOL0     H75061   9.632   9.405   9.502  0.1414  1.4832 -1.3334
  569MOL0     H75062   9.508   9.025   9.463  0.0532  0.5598  0.2819
  569MOL0     H75063   9.661   9.105   9.464  0.8867 -1.7909 -2.6303
  569MOL0     H75064   9.647   9.156   9.216  0.3001 -0.3134  0.1836
  569MOL0     H75065   9.486   9.116   9.219 -0.1271 -0.0358  1.6217
  569MOL0     H75066   9.715   8.915   9.270 -1.2726 -0.6417  0.3999
  569MOL0     H75067   9.544   8.873   9.272  0.3766  1.3156  5.1244
  569MOL0     H75068   9.529   8.969   9.036 -1.6048 -0.2184  2.3673
  569MOL0     H75069   9.621   8.816   9.053 -1.9809  0.2111  0.2114
  569MOL0     H75070   9.955   9.091   9.087 -1.8200  0.2180 -0.5636
  569MOL0     H75071  10.184   9.005   9.053  0.6094 -0.8101 -0.0221
  569MOL0     H75072  10.541   8.945   8.975 -0.0703  0.3993  0.5139
  569MOL0     H75073  10.782   8.871   8.938  1.6921 -1.8343  0.7523
  569MOL0     H75074  10.876   8.424   8.964  1.2517 -1.2602 -0.9586
  569MOL0     H75075  10.931   8.519   9.121  0.0343 -1.3162 -0.5588
  569MOL0     H75076  11.125   8.584   9.010  2.3275 -1.9491 -0.6865
  569MOL0     H75077  11.068   8.515   8.856  0.2093 -0.5184 -0.3156
  569MOL0     H75078  11.082   8.290   8.996  0.8105  0.4110 -1.0570
  569MOL0     H75079  11.127   8.391   9.138 -0.7828 -1.3637  0.0110
  569MOL0     H75080  11.280   8.394   8.871  3.3143  0.6750  1.2603
  569MOL0     H75081  11.337   8.450   9.023  1.9129 -1.8517 -0.9734
  569MOL0     H75082  11.300   8.145   8.956  0.8462 -0.1162  0.3904
  569MOL0     H75083  11.335   8.225   9.115  0.2054  0.6560  0.2240
  569MOL0     H75084  11.538   8.127   8.999  1.7405 -0.7426 -5.1249
  569MOL0     H75085  11.545   8.303   9.034  0.5249 -1.1589  0.9011
  569MOL0     H75086  11.451   8.185   8.761  2.1129 -0.1542 -1.3171
  569MOL0     H75087  11.485   8.350   8.803  0.9287  1.6907  1.6052
  569MOL0     H75088  11.666   8.225   8.672  2.0585  1.7000  0.8392
  569MOL0     H75089  11.705   8.129   8.810  3.4423  1.4922  0.9176
  569MOL0     H75090  10.690   8.511   9.127  1.9146  1.9511  1.1237
  569MOL0     H75091  10.468   8.562   9.157 -0.0036 -1.9824 -1.4932
  569MOL0     H75092  10.009   8.628   8.914 -1.3577  1.2649 -3.3451
  569MOL0     H75093   9.786   8.729   8.921 -1.4800  1.0030  1.7775
  569MOL0     H75094   8.775  10.089  10.002 -0.3752 -2.4426 -0.2083
  569MOL0     H75095   8.588  10.111  10.162  0.9249  0.8412 -3.3454
  569MOL0     H75096   8.419   9.972  10.574 -2.8543  2.9654 -2.9719
  569MOL0     H75097   8.245   9.963  10.745  0.0062  0.0249  2.8900
  569MOL0     H75098   8.195   9.929  10.957  2.5968 -1.5903  3.2264
  569MOL0     H75099   8.090  10.039  11.060 -0.3187 -0.9291  0.1772
  569MOL0     H75100   8.403  10.049  11.031  1.8798 -1.0233  1.3683
  569MOL0     H75101   8.299  10.142  11.150 -2.4907 -1.6552  0.2268
  569MOL0     H75102   8.316   9.837  11.147  0.6028  0.1216  0.2157
  569MOL0     H75103   8.225   9.932  11.258  0.0326 -5.3068 -0.5980
  569MOL0     H75104   8.521   9.982  11.221 -0.8437  1.6061 -0.8830
  569MOL0     H75105   8.431  10.044  11.350 -1.7549  0.9153 -1.4786
  569MOL0     H75106   8.565   9.668  11.487  2.3856 -1.5614 -2.7370
  569MOL0     H75107   8.359  10.334  10.919 -2.3658  0.9777 -0.2934
  569MOL0     H75108   8.543  10.358  10.751 -2.2922  1.4859  0.6963
  570MOL0     O75109   3.728   6.104   2.601  0.6082 -0.3197 -0.1359
  570MOL0     C75110   3.625   6.137   2.660  0.4511  0.3101  0.6471
  570MOL0     O75111   3.590   6.099   2.782  0.3545 -0.1518 -0.3274
  570MOL0     C75112   3.654   6.008   2.868  0.1580  0.3345 -0.6132
  570MOL0     C75113   3.720   5.894   2.814  0.7700  0.2865 -0.1591
  570MOL0     C75114   3.787   5.813   2.904 -0.0329 -1.2448 -0.3654
  570MOL0     C75115   3.776   5.827   3.039  0.0417 -1.2651 -0.5368
  570MOL0     O75116   3.843   5.728   3.104  0.3239  0.0767  0.3324
  570MOL0     C75117   3.836   5.716   3.251  1.0561 -0.2729 -0.2994
  570MOL0     C75118   3.905   5.595   3.305  0.0434  0.3577 -0.3102
  570MOL0     C75119   3.888   5.538   3.443  0.4267  0.8796 -1.0252
  570MOL0     C75120   3.993   5.437   3.467 -0.5613  0.8286  0.1665
  570MOL0     C75121   4.133   5.476   3.505 -0.8409 -0.4495  0.0140
  570MOL0     C75122   4.157   5.541   3.643  0.0955 -0.5089  0.3859
  570MOL0     C75123   4.091   5.476   3.774 -0.1719  0.1990  0.5669
  570MOL0     C75124   4.070   5.595   3.878 -0.2910 -0.0435 -1.1077
  570MOL0     N75125   3.971   5.705   3.833  0.1266  0.3215 -0.5893
  570MOL0     C75126   3.993   5.840   3.804  0.1522  1.4259 -0.0068
  570MOL0     C75127   3.869   5.881   3.774 -0.5468 -1.3310 -0.0434
  570MOL0     C75128   3.834   6.026   3.740  0.8837  0.4751  0.1857
  570MOL0     C75129   3.916   6.086   3.619 -0.3646  0.5815 -0.1997
  570MOL0     C75130   3.868   6.010   3.486 -0.9216 -0.6167  1.0844
  570MOL0     C75131   3.987   6.019   3.387  0.4207  0.1366 -0.1146
  570MOL0     O75132   4.098   5.941   3.442 -0.0476  0.8266 -0.0382
  570MOL0     C75133   4.205   5.900   3.359 -0.4584 -0.5996 -0.8928
  570MOL0     C75134   4.294   5.820   3.429 -0.8439 -0.1949 -0.4546
  570MOL0     C75135   4.403   5.764   3.364 -0.5807 -0.1654 -0.0311
  570MOL0     C75136   4.420   5.783   3.226  0.2668  0.6835 -0.2848
  570MOL0     C75137   4.546   5.751   3.148  0.6439 -0.4024 -1.1989
  570MOL0     O75138   4.649   5.704   3.215  0.0697 -0.8682  0.3796
  570MOL0     C75139   4.777   5.664   3.164  0.6220 -0.3136  0.6975
  570MOL0     C75140   4.824   5.700   3.037 -0.4045  0.2568 -0.3401
  570MOL0     C75141   4.947   5.659   2.988  0.2155 -0.7587  0.8098
  570MOL0     C75142   5.026   5.580   3.068  0.2102  0.1884  0.4841
  570MOL0     O75143   5.152   5.546   3.015 -0.0005  0.0427 -0.4187
  570MOL0     C75144   5.260   5.592   3.100 -0.1944 -0.3390 -0.1298
  570MOL0     C75145   5.375   5.627   3.009  0.2230  0.6136 -0.2266
  570MOL0     C75146   5.342   5.733   2.904  0.3611  0.6303 -0.8271
  570MOL0     C75147   5.298   5.861   2.974 -0.1777 -1.1039  0.7228
  570MOL0     C75148   5.317   5.985   2.880  0.0090  0.5956  0.1555
  570MOL0     C75149   5.272   6.120   2.961  0.2035  0.1480 -0.1998
  570MOL0     C75150   5.120   6.135   2.954  0.9952 -0.2566 -0.2492
  570MOL0     C75151   5.068   6.282   2.978  0.1928 -1.4248  0.8304
  570MOL0    Cl75152   5.111   6.349   3.134 -0.1843 -0.1243 -0.0997
  570MOL0     C75153   4.979   5.535   3.194 -0.4566  0.2118  0.1405
  570MOL0     C75154   4.848   5.570   3.235 -0.8535 -0.5350 -0.2376
  570MOL0     O75155   4.542   5.759   3.024 -0.1212 -0.5252  0.3006
  570MOL0     C75156   4.319   5.861   3.154  0.1355  0.1342  0.0247
  570MOL0     C75157   4.214   5.917   3.224  0.0695 -1.2086  0.0324
  570MOL0     N75158   3.774   5.782   3.787 -0.2361 -0.3456  0.1790
  570MOL0     N75159   3.831   5.678   3.839  0.7174  0.6619 -0.2161
  570MOL0     C75160   3.720   5.933   3.092 -0.1498 -0.1029  0.1377
  570MOL0     C75161   3.656   6.031   3.005 -0.6489  1.0760 -0.1013
  570MOL0     C75162   3.540   6.235   2.599  0.7780 -1.2591 -0.3339
  570MOL0     C75163   3.545   6.275   2.459 -0.3075 -0.7568 -0.3457
  570MOL0     C75164   3.465   6.387   2.412 -0.8243  0.7694 -0.2908
  570MOL0     C75165   3.381   6.458   2.491  0.3825 -0.4629 -1.0218
  570MOL0     O75166   3.307   6.576   2.464 -0.7350  0.0046 -0.0894
  570MOL0     C75167   3.364   6.665   2.363  0.1606  0.3694  0.2875
  570MOL0     C75168   3.516   6.713   2.386  0.3245 -0.0054 -1.4311
  570MOL0     C75169   3.517   6.801   2.521  0.2429 -0.0149  0.3058
  570MOL0     C75170   3.640   6.906   2.531 -1.1351  0.1218 -0.4111
  570MOL0     C75171   3.771   6.851   2.496 -0.3956 -0.6271 -0.6291
  570MOL0     C75172   3.871   6.801   2.452 -1.2981  0.5557 -0.3864
  570MOL0     C75173   3.358   6.404   2.618  1.2893 -0.3105  0.6605
  570MOL0     C75174   3.432   6.296   2.673 -0.5139 -0.2335 -0.4384
  570MOL0     H75175   3.738   5.871   2.710  0.4766 -3.1757  0.4239
  570MOL0     H75176   3.859   5.750   2.854  2.4306  0.9782  0.1820
  570MOL0     H75177   3.731   5.710   3.279  1.1593  1.2466  0.5276
  570MOL0     H75178   3.876   5.800   3.309 -1.5258  0.7557  0.1251
  570MOL0     H75179   4.012   5.614   3.293 -0.1125  1.8036  0.3953
  570MOL0     H75180   3.882   5.512   3.237  0.0904 -0.6824  0.8989
  570MOL0     H75181   3.792   5.491   3.465  0.5139  1.1461 -0.0187
  570MOL0     H75182   3.899   5.617   3.517  0.2963 -0.2680  0.2481
  570MOL0     H75183   3.946   5.370   3.540  1.6502  0.0720  0.9784
  570MOL0     H75184   3.994   5.378   3.375 -0.4587 -1.5739  1.6269
  570MOL0     H75185   4.168   5.549   3.431 -0.2250  0.1788  0.8918
  570MOL0     H75186   4.200   5.390   3.518 -0.6615  0.0858  3.7795
  570MOL0     H75187   4.117   5.641   3.626 -1.8585 -1.4693 -1.1658
  570MOL0     H75188   4.264   5.550   3.666 -0.0333 -2.3796  1.9559
  570MOL0     H75189   3.991   5.442   3.745 -0.2121 -1.7531  2.6744
  570MOL0     H75190   4.137   5.392   3.827 -2.8205 -1.5259  0.3018
  570MOL0     H75191   4.167   5.639   3.905 -0.0102 -2.2584  2.0762
  570MOL0     H75192   4.025   5.554   3.969 -1.6366  1.3076 -1.1145
  570MOL0     H75193   4.089   5.891   3.805 -0.6566  3.0247  0.7546
  570MOL0     H75194   3.846   6.086   3.831 -0.1716  1.3896 -0.2540
  570MOL0     H75195   3.732   6.036   3.701  0.3582  1.2076  1.6653
  570MOL0     H75196   4.022   6.069   3.640 -1.2184 -1.8032  2.7527
  570MOL0     H75197   3.899   6.193   3.600 -0.4809  0.2262 -2.3390
  570MOL0     H75198   3.835   5.907   3.496 -2.4195 -0.6741 -2.9284
  570MOL0     H75199   3.797   6.075   3.434  2.8212  1.6598 -1.7781
  570MOL0     H75200   4.020   6.123   3.377 -0.2718  0.3758 -0.0373
  570MOL0     H75201   3.956   6.002   3.283 -1.6704  1.6584  0.1866
  570MOL0     H75202   4.282   5.786   3.532 -1.0241 -1.8544 -0.9889
  570MOL0     H75203   4.472   5.712   3.431  0.1634  0.6195 -0.1655
  570MOL0     H75204   4.759   5.765   2.980  1.4851  0.4940 -2.3775
  570MOL0     H75205   4.985   5.686   2.890 -2.8555 -2.1707 -0.9201
  570MOL0     H75206   5.302   5.513   3.164  0.5963 -1.5011 -1.9956
  570MOL0     H75207   5.223   5.678   3.156 -2.2870 -1.0548 -0.3299
  570MOL0     H75208   5.398   5.539   2.948 -1.3206  1.4728 -2.1609
  570MOL0     H75209   5.463   5.664   3.062  0.8981  1.1373 -1.6401
  570MOL0     H75210   5.266   5.698   2.833  0.9312 -0.0021 -1.1450
  570MOL0     H75211   5.431   5.754   2.844  0.2634 -1.1763 -1.6951
  570MOL0     H75212   5.190   5.853   2.989 -0.4679 -3.2366 -1.7987
  570MOL0     H75213   5.353   5.882   3.066 -1.6141 -0.0469  1.3854
  570MOL0     H75214   5.257   5.980   2.789  1.7352  2.4090 -1.1775
  570MOL0     H75215   5.422   5.999   2.854  0.3527  1.3436  1.8249
  570MOL0     H75216   5.316   6.211   2.918  1.0990 -0.4079 -0.4711
  570MOL0     H75217   5.308   6.117   3.064  0.6943 -0.7204 -0.3881
  570MOL0     H75218   5.079   6.104   2.858 -4.0598  2.9773  0.4590
  570MOL0     H75219   5.074   6.083   3.039 -1.2783 -2.0793 -2.4371
  570MOL0     H75220   4.959   6.282   2.969 -0.0571  0.0120  3.0185
  570MOL0     H75221   5.105   6.349   2.900 -1.9466  1.8862  2.4321
  570MOL0     H75222   5.055   5.475   3.243  0.4147  0.2313 -1.1322
  570MOL0     H75223   4.806   5.544   3.331 -2.1070  4.5311  0.8806
  570MOL0     H75224   4.339   5.886   3.050  2.4884  0.8227  0.5823
  570MOL0     H75225   4.151   5.989   3.171  0.3290 -1.5054 -0.6977
  570MOL0     H75226   3.711   5.951   3.198 -1.6150  0.2936 -0.0272
  570MOL0     H75227   3.607   6.123   3.036 -0.9651  1.2506 -1.0707
  570MOL0     H75228   3.630   6.230   2.408 -0.3685 -2.5338  1.0253
  570MOL0     H75229   3.483   6.422   2.311 -0.3420 -1.0244 -0.8674
  570MOL0     H75230   3.299   6.751   2.377 -1.1831 -0.8191  1.7134
  570MOL0     H75231   3.355   6.627   2.261  0.3574 -0.1920  0.4759
  570MOL0     H75232   3.588   6.630   2.390 -2.7986 -2.9140  0.6259
  570MOL0     H75233   3.544   6.768   2.296  2.5419  0.0016 -0.8035
  570MOL0     H75234   3.523   6.732   2.606  3.2991  1.4875  1.4627
  570MOL0     H75235   3.422   6.855   2.526 -0.3633 -0.6046 -2.7584
  570MOL0     H75236   3.630   6.988   2.460 -0.4937 -0.2713 -0.9637
  570MOL0     H75237   3.650   6.956   2.628  2.6058 -0.7990 -0.1869
  570MOL0     H75238   3.947   6.740   2.409 -1.7934 -2.3541  2.4816
  570MOL0     H75239   3.283   6.445   2.685 -1.3770 -2.9767 -0.4147
  570MOL0     H75240   3.412   6.263   2.774 -2.8923  1.6029 -0.2406
  571MOL0     O75241   6.101   6.532   6.898  0.0003  0.4006  0.5111
  571MOL0     C75242   6.048   6.632   6.877  0.5994  0.9829 -0.7036
  571MOL0     O75243   6.110   6.755   6.886  0.3867  0.1436 -0.1478
  571MOL0     C75244   6.248   6.766   6.889  0.1221 -0.9326 -1.1699
  571MOL0     C75245   6.299   6.874   6.820  0.8452  0.9493 -0.3038
  571MOL0     C75246   6.435   6.901   6.828 -0.0889  0.3571  1.3319
  571MOL0     C75247   6.516   6.833   6.914 -0.3532  0.9830 -0.2702
  571MOL0     O75248   6.643   6.866   6.935  0.1179  0.0076 -0.5901
  571MOL0     C75249   6.720   6.952   6.852  0.0603 -0.0677 -1.2248
  571MOL0     C75250   6.832   7.028   6.931 -0.9539 -0.3866  0.5255
  571MOL0     C75251   6.879   7.157   6.855 -0.0943 -0.7336 -0.0227
  571MOL0     C75252   6.784   7.276   6.846  0.2819  1.2359  0.0460
  571MOL0     C75253   6.769   7.351   6.977  0.3762  0.8408 -0.9191
  571MOL0     C75254   6.628   7.422   6.994 -0.1467  0.3164 -0.1369
  571MOL0     C75255   6.624   7.530   7.096 -0.1558  0.6085  0.4339
  571MOL0     C75256   6.672   7.476   7.232  0.3019 -0.3801  0.2368
  571MOL0     N75257   6.672   7.586   7.335  0.2064 -0.2433  0.2666
  571MOL0     C75258   6.650   7.587   7.469 -0.2105 -0.0327 -0.2652
  571MOL0     C75259   6.671   7.708   7.512 -0.0433 -0.6145 -0.1118
  571MOL0     C75260   6.672   7.762   7.651  0.7575 -0.1517 -0.3720
  571MOL0     C75261   6.527   7.791   7.694 -0.6401 -0.3170 -0.6253
  571MOL0     C75262   6.457   7.904   7.614 -0.2884  0.8330 -0.1169
  571MOL0     C75263   6.302   7.892   7.626  0.1829 -0.3061  0.4316
  571MOL0     O75264   6.263   7.835   7.762 -0.6185 -0.0121  0.1908
  571MOL0     C75265   6.129   7.829   7.788  0.2256  0.4338  0.3729
  571MOL0     C75266   6.052   7.939   7.780  0.0014  0.0907 -0.9263
  571MOL0     C75267   5.914   7.926   7.806  0.5810  0.3152  0.5790
  571MOL0     C75268   5.848   7.806   7.826  0.3343  0.3103 -0.7585
  571MOL0     C75269   5.701   7.802   7.845 -0.8450  0.1880 -0.0249
  571MOL0     O75270   5.644   7.684   7.824  0.5676  0.7773 -0.3990
  571MOL0     C75271   5.518   7.640   7.870  0.1044 -0.3198 -0.0097
  571MOL0     C75272   5.484   7.504   7.866  0.2309  0.0111 -0.1030
  571MOL0     C75273   5.354   7.456   7.911 -0.7478  0.9161 -0.3425
  571MOL0     C75274   5.264   7.539   7.981  0.0212 -0.0954  0.5132
  571MOL0     O75275   5.148   7.482   8.030 -0.7959 -0.0305  0.2689
  571MOL0     C75276   5.037   7.573   8.068 -0.9573 -0.3362  0.3223
  571MOL0     C75277   4.967   7.627   7.942 -0.3526  0.4268  0.5175
  571MOL0     C75278   4.878   7.523   7.874  0.3826 -0.3796 -0.1142
  571MOL0     C75279   4.811   7.583   7.748  0.5785 -0.3864  0.2500
  571MOL0     C75280   4.726   7.483   7.678  0.1869  1.0697  0.8510
  571MOL0     C75281   4.802   7.396   7.578  0.5391 -0.6249  0.4148
  571MOL0     C75282   4.728   7.269   7.529  1.4281  0.5002  0.4426
  571MOL0     C75283   4.828   7.166   7.486  0.4644 -0.2041  0.0035
  571MOL0    Cl75284   4.914   7.100   7.641  0.0670 -0.0542 -0.6267
  571MOL0     C75285   5.302   7.675   7.988  0.5134  1.1343  0.7405
  571MOL0     C75286   5.415   7.724   7.917  0.2487 -0.0173 -0.1136
  571MOL0     O75287   5.655   7.904   7.895  0.7184  0.1812 -0.5578
  571MOL0     C75288   5.923   7.691   7.834 -0.4978 -0.3023  0.5243
  571MOL0     C75289   6.066   7.701   7.816  0.9138 -0.0424  0.5948
  571MOL0     N75290   6.703   7.792   7.402  0.4225  0.2990 -0.9426
  571MOL0     N75291   6.701   7.711   7.295  1.1488  0.1928 -0.1384
  571MOL0     C75292   6.466   6.718   6.976 -0.0419 -0.0874 -0.1314
  571MOL0     C75293   6.336   6.683   6.967  0.4667 -0.7682 -0.7671
  571MOL0     C75294   5.905   6.618   6.846 -0.9926  0.7861 -0.7102
  571MOL0     C75295   5.839   6.732   6.799  0.6474  0.9278 -0.2279
  571MOL0     C75296   5.708   6.725   6.753  0.1610  0.4064 -0.8048
  571MOL0     C75297   5.637   6.600   6.766 -0.9755 -0.4222  0.3205
  571MOL0     O75298   5.503   6.581   6.738 -1.0268  0.0923 -0.1994
  571MOL0     C75299   5.456   6.659   6.638  0.0208  0.7618  0.0449
  571MOL0     C75300   5.317   6.606   6.619  0.2954 -0.4175 -0.9719
  571MOL0     C75301   5.230   6.636   6.747  0.7518  0.4634 -0.6365
  571MOL0     C75302   5.107   6.736   6.730 -1.1858  0.6883  0.6849
  571MOL0     C75303   5.147   6.874   6.706  0.0662  0.0844 -1.1246
  571MOL0     C75304   5.173   6.985   6.672  0.0030 -0.1603  0.1644
  571MOL0     C75305   5.704   6.491   6.808 -1.0470 -0.4097  0.4577
  571MOL0     C75306   5.842   6.490   6.833  0.2553  0.4797 -0.7628
  571MOL0     H75307   6.242   6.939   6.754 -1.7858  0.2943  1.2114
  571MOL0     H75308   6.472   6.981   6.765  0.6783 -2.2107 -1.7122
  571MOL0     H75309   6.659   7.024   6.796 -0.8856  1.7012  1.8228
  571MOL0     H75310   6.765   6.882   6.782  1.8573 -1.3408  1.0778
  571MOL0     H75311   6.928   6.976   6.932 -0.3571  0.6538 -0.0440
  571MOL0     H75312   6.803   7.052   7.033  1.1736  0.1572  1.0562
  571MOL0     H75313   6.896   7.133   6.749 -1.9188  0.8790 -0.7412
  571MOL0     H75314   6.970   7.196   6.901 -1.7525  3.4293  0.1823
  571MOL0     H75315   6.823   7.344   6.769 -0.5289 -1.3907 -2.8905
  571MOL0     H75316   6.688   7.230   6.821  1.2489 -0.0051 -1.6016
  571MOL0     H75317   6.860   7.407   7.001  0.4199  0.1556  0.6259
  571MOL0     H75318   6.767   7.272   7.052 -3.1218  2.2932  0.7969
  571MOL0     H75319   6.545   7.355   7.017 -0.4388  0.3308 -1.1230
  571MOL0     H75320   6.610   7.481   6.904 -3.0651 -0.9662 -0.5128
  571MOL0     H75321   6.682   7.614   7.057 -2.1983  1.7929 -0.1647
  571MOL0     H75322   6.517   7.553   7.098  0.1337  2.0375  1.3499
  571MOL0     H75323   6.777   7.447   7.218  0.3978  1.4243 -4.2817
  571MOL0     H75324   6.605   7.401   7.275 -2.6477  1.2488 -1.2320
  571MOL0     H75325   6.618   7.497   7.522  0.2535  0.5361  1.0335
  571MOL0     H75326   6.736   7.851   7.655  0.5386  0.0085  3.2491
  571MOL0     H75327   6.708   7.680   7.714 -1.2869 -1.1457 -0.4224
  571MOL0     H75328   6.536   7.827   7.797 -4.0586 -1.5438  0.2210
  571MOL0     H75329   6.463   7.702   7.687 -1.7453  0.1609  2.2602
  571MOL0     H75330   6.502   7.996   7.653  1.4096 -0.4530  1.1336
  571MOL0     H75331   6.484   7.911   7.508  0.1920  0.2295 -0.0427
  571MOL0     H75332   6.268   7.830   7.542 -2.4722  1.6096 -0.0218
  571MOL0     H75333   6.256   7.990   7.614  2.7226  1.0985  1.3888
  571MOL0     H75334   6.088   8.041   7.771  0.1413  0.6152  3.3688
  571MOL0     H75335   5.852   8.016   7.806  3.1590  2.2042  0.9190
  571MOL0     H75336   5.565   7.442   7.829  2.1769  0.9190  2.3960
  571MOL0     H75337   5.337   7.350   7.898  0.6609 -0.0406  4.0367
  571MOL0     H75338   5.064   7.663   8.125 -4.3726  0.9682  0.1069
  571MOL0     H75339   4.963   7.521   8.130  1.2813 -0.3047  3.2809
  571MOL0     H75340   5.044   7.673   7.880 -0.9705  3.5447  1.8694
  571MOL0     H75341   4.899   7.710   7.963  0.7096  2.1790 -2.3494
  571MOL0     H75342   4.799   7.477   7.933 -0.8845  0.7724 -0.8485
  571MOL0     H75343   4.952   7.450   7.842  0.3714 -1.1217  1.4827
  571MOL0     H75344   4.755   7.672   7.775  7.0379  4.4538  0.1280
  571MOL0     H75345   4.894   7.614   7.683 -0.2171 -1.9845 -1.6070
  571MOL0     H75346   4.642   7.531   7.628 -1.8717 -0.6325  2.4814
  571MOL0     H75347   4.676   7.423   7.755 -0.2821  3.2975  2.3511
  571MOL0     H75348   4.896   7.367   7.627 -0.1512 -4.8107 -0.3576
  571MOL0     H75349   4.840   7.442   7.486  3.3039  1.2673  2.3487
  571MOL0     H75350   4.674   7.225   7.614 -2.0584 -2.3716 -2.8637
  571MOL0     H75351   4.653   7.285   7.450 -0.2176 -1.1776  1.5791
  571MOL0     H75352   4.892   7.214   7.412 -2.2493  0.7749 -1.8681
  571MOL0     H75353   4.770   7.086   7.438 -2.9930  2.4392 -0.6414
  571MOL0     H75354   5.238   7.745   8.040 -1.8183 -1.0690  1.0198
  571MOL0     H75355   5.429   7.832   7.915  2.8273 -0.2973 -0.6290
  571MOL0     H75356   5.891   7.600   7.883 -2.8872  0.4929  0.5847
  571MOL0     H75357   6.120   7.608   7.832  0.6308 -0.0899  1.3226
  571MOL0     H75358   6.526   6.663   7.048 -0.4701  1.1739  1.2350
  571MOL0     H75359   6.300   6.603   7.031  1.6026  0.1653  1.1483
  571MOL0     H75360   5.885   6.829   6.783  1.7143  0.0335 -3.3802
  571MOL0     H75361   5.662   6.817   6.717 -2.6106  0.2078  1.7761
  571MOL0     H75362   5.511   6.636   6.546 -2.0416  2.6315 -1.7951
  571MOL0     H75363   5.466   6.765   6.666  1.0076  0.5797  0.4107
  571MOL0     H75364   5.265   6.639   6.529 -0.9337 -1.1307 -0.5353
  571MOL0     H75365   5.327   6.498   6.614  1.3400 -0.4057  0.3175
  571MOL0     H75366   5.294   6.674   6.827 -1.0188 -0.6912  1.4239
  571MOL0     H75367   5.182   6.542   6.774 -1.5847  1.0087 -2.5387
  571MOL0     H75368   5.052   6.692   6.646  1.3791  0.9565 -1.2608
  571MOL0     H75369   5.052   6.724   6.824 -3.7495 -5.1181 -1.0841
  571MOL0     H75370   5.184   7.083   6.629  1.1927 -0.0497  0.6931
  571MOL0     H75371   5.644   6.402   6.792 -3.0576  1.1310 -1.0143
  571MOL0     H75372   5.899   6.404   6.867  1.2904  1.9329  1.3711
  572MOL0     O75373   3.662  11.059   8.922 -0.3752 -0.0769 -0.6545
  572MOL0     C75374   3.660  11.046   8.798 -1.3613 -0.5241 -0.2161
  572MOL0     O75375   3.590  10.952   8.726  0.6747 -0.0392  0.3061
  572MOL0     C75376   3.498  10.877   8.795 -0.7764 -0.3673  0.2709
  572MOL0     C75377   3.364  10.922   8.811 -0.4440  0.3881 -0.1883
  572MOL0     C75378   3.273  10.840   8.883  0.8874  1.0433 -0.6099
  572MOL0     C75379   3.318  10.720   8.940 -0.0997  0.2911 -0.2976
  572MOL0     O75380   3.231  10.646   9.017  0.3565  0.1176  0.6631
  572MOL0     C75381   3.254  10.510   9.040 -0.5123 -0.3503 -0.7656
  572MOL0     C75382   3.268  10.425   8.912 -0.3064 -0.6079 -0.4058
  572MOL0     C75383   3.128  10.402   8.845  0.3369 -0.2453  0.1902
  572MOL0     C75384   3.144  10.352   8.698  0.0255  0.0540  0.4390
  572MOL0     C75385   3.088  10.210   8.685  0.7820 -0.3168 -0.0713
  572MOL0     C75386   2.930  10.210   8.706 -0.1677 -0.7027  0.5008
  572MOL0     C75387   2.870  10.081   8.647  0.4483 -0.1502 -0.3602
  572MOL0     C75388   2.717  10.069   8.664 -0.3781  0.4676  0.8324
  572MOL0     N75389   2.650  10.182   8.597  0.0286 -1.3823 -0.0119
  572MOL0     C75390   2.620  10.304   8.651 -0.9292 -0.5794  0.3165
  572MOL0     C75391   2.579  10.379   8.545 -0.7285  0.5313 -0.3031
  572MOL0     C75392   2.520  10.524   8.552 -0.1620 -0.3515 -0.3884
  572MOL0     C75393   2.373  10.544   8.495  0.1857 -0.4023 -0.4790
  572MOL0     C75394   2.346  10.695   8.526 -0.3331  0.8918  1.0370
  572MOL0     C75395   2.214  10.724   8.462 -0.3498  0.2772  0.3919
  572MOL0     O75396   2.168  10.854   8.479 -0.9594  0.2403  0.1771
  572MOL0     C75397   2.029  10.873   8.478  0.7166  0.1955  0.6557
  572MOL0     C75398   1.936  10.777   8.434  0.2906  0.5878  0.4060
  572MOL0     C75399   1.801  10.808   8.418  0.1280 -0.4321 -1.6404
  572MOL0     C75400   1.760  10.942   8.455 -0.3191  0.7861  0.5624
  572MOL0     C75401   1.619  10.977   8.465 -0.3303 -0.5584  0.3332
  572MOL0     O75402   1.537  10.887   8.410 -0.8243  0.1605 -0.7163
  572MOL0     C75403   1.403  10.894   8.429 -0.5660  0.4677 -0.5010
  572MOL0     C75404   1.332  10.825   8.332 -0.8693  0.1166 -0.3952
  572MOL0     C75405   1.191  10.816   8.337  0.4421  0.6676  0.6760
  572MOL0     C75406   1.122  10.879   8.446  0.9149  0.0283  0.1492
  572MOL0     O75407   0.988  10.875   8.454  0.4402 -0.2092  0.1410
  572MOL0     C75408   0.930  10.850   8.588  0.6301 -0.2602  0.0739
  572MOL0     C75409   0.789  10.771   8.587  0.1054 -0.2087  0.2627
  572MOL0     C75410   0.705  10.808   8.459 -0.0839 -0.2016 -0.1595
  572MOL0     C75411   0.574  10.740   8.453 -0.0588 -0.3767 -0.0916
  572MOL0     C75412   0.458  10.838   8.433 -0.1920  0.8364 -0.3341
  572MOL0     C75413   0.335  10.765   8.395  0.6888 -0.1202 -0.7430
  572MOL0     C75414   0.207  10.845   8.409  0.1568 -0.1504 -0.0048
  572MOL0     C75415   0.087  10.766   8.355  0.4217  0.1554  0.3352
  572MOL0    Cl75416  -0.068  10.816   8.426 -0.2731 -0.4590  0.0285
  572MOL0     C75417   1.187  10.949   8.537  0.5209  0.4045 -1.1548
  572MOL0     C75418   1.326  10.961   8.522 -0.1012  1.7448  0.2196
  572MOL0     O75419   1.588  11.083   8.515  0.0791 -0.2260 -0.1947
  572MOL0     C75420   1.855  11.037   8.494  0.4712 -0.2878  1.1199
  572MOL0     C75421   1.987  11.007   8.502  0.0462 -0.1891 -0.6003
  572MOL0     N75422   2.576  10.304   8.429  0.2069  0.2682 -0.4035
  572MOL0     N75423   2.606  10.183   8.464 -0.6759  0.0295  0.1059
  572MOL0     C75424   3.455  10.675   8.924  0.3102  0.0587  0.1435
  572MOL0     C75425   3.544  10.756   8.852  0.1154 -0.6792  0.3668
  572MOL0     C75426   3.768  11.120   8.716  0.1743  0.4999  0.6852
  572MOL0     C75427   3.856  11.210   8.780  0.1505  1.0229 -0.0415
  572MOL0     C75428   3.936  11.294   8.695 -0.1412  0.5114 -0.2760
  572MOL0     C75429   3.941  11.275   8.553  0.1112 -0.2141  0.7342
  572MOL0     O75430   4.028  11.350   8.488 -1.1915 -0.4502 -0.0685
  572MOL0     C75431   3.996  11.414   8.357 -0.1565  0.3512 -0.0282
  572MOL0     C75432   4.090  11.527   8.328 -0.6553 -0.2127 -0.7881
  572MOL0     C75433   4.227  11.481   8.255 -0.0317 -0.1811  0.5525
  572MOL0     C75434   4.268  11.572   8.138 -0.1297 -0.4650 -0.9763
  572MOL0     C75435   4.413  11.543   8.107  0.7914 -0.5308  0.7246
  572MOL0     C75436   4.529  11.508   8.100  0.0913  0.1085 -0.0598
  572MOL0     C75437   3.851  11.180   8.500  0.2784 -0.2209  0.0696
  572MOL0     C75438   3.759  11.114   8.580 -0.9384  0.0580  1.1462
  572MOL0     H75439   3.333  11.012   8.760 -1.8311  0.7023  1.1394
  572MOL0     H75440   3.168  10.867   8.890  0.6806 -0.2409  2.8405
  572MOL0     H75441   3.171  10.473   9.100  0.1375  1.7942  1.6102
  572MOL0     H75442   3.329  10.506   9.119 -3.0655  0.0710  1.8190
  572MOL0     H75443   3.301  10.323   8.935 -2.1884 -1.9163 -2.9405
  572MOL0     H75444   3.337  10.457   8.833 -0.3887 -1.5463 -0.8778
  572MOL0     H75445   3.071  10.494   8.862  2.3099  0.6170  2.8141
  572MOL0     H75446   3.073  10.323   8.896 -2.3194 -0.4395 -2.6755
  572MOL0     H75447   3.086  10.405   8.622 -0.9569  1.4204  2.0709
  572MOL0     H75448   3.252  10.350   8.682  0.6681  0.4794  3.8631
  572MOL0     H75449   3.130  10.144   8.762 -0.1547  0.3088  1.0198
  572MOL0     H75450   3.112  10.182   8.582  0.6877  3.1751 -1.1879
  572MOL0     H75451   2.894  10.301   8.658 -1.1834  1.0638  4.2325
  572MOL0     H75452   2.909  10.232   8.811  0.0440  1.2281  0.1810
  572MOL0     H75453   2.894  10.075   8.540 -1.4891 -0.7295 -0.8018
  572MOL0     H75454   2.920   9.990   8.682  3.0843  1.0469 -0.7574
  572MOL0     H75455   2.688  10.046   8.767  0.9678 -5.1250  0.2654
  572MOL0     H75456   2.679   9.981   8.611 -3.7359  1.3135  1.6100
  572MOL0     H75457   2.626  10.340   8.754 -0.1649 -0.6547  0.3035
  572MOL0     H75458   2.590  10.595   8.506  1.1735 -0.1455  1.7865
  572MOL0     H75459   2.516  10.547   8.659  0.5076  0.7115 -0.5737
  572MOL0     H75460   2.298  10.489   8.553  1.8476 -0.3186  1.8942
  572MOL0     H75461   2.376  10.512   8.390  1.3357 -1.2634 -0.2128
  572MOL0     H75462   2.345  10.712   8.634  1.1693  1.8006  0.9331
  572MOL0     H75463   2.425  10.750   8.474 -0.4261  0.2561  0.2095
  572MOL0     H75464   2.149  10.654   8.516 -2.7484  3.7286  2.4251
  572MOL0     H75465   2.220  10.699   8.356  1.7227 -0.7687  0.7164
  572MOL0     H75466   1.970  10.679   8.404  1.4004  1.9040 -3.0872
  572MOL0     H75467   1.720  10.742   8.390 -3.2779  1.6816  2.0219
  572MOL0     H75468   1.391  10.781   8.252 -0.5704  2.0347 -1.2998
  572MOL0     H75469   1.158  10.766   8.248  4.7205 -1.6102  0.0951
  572MOL0     H75470   0.921  10.940   8.648  0.6859 -1.2767  1.6549
  572MOL0     H75471   0.994  10.778   8.641 -0.8150 -0.4852  1.5880
  572MOL0     H75472   0.726  10.793   8.673 -0.1009  0.2171  0.0016
  572MOL0     H75473   0.814  10.665   8.576  1.4640  0.2378 -1.4776
  572MOL0     H75474   0.774  10.782   8.378  2.1359  0.6657  1.3744
  572MOL0     H75475   0.692  10.917   8.462  2.9332  0.2185  1.4654
  572MOL0     H75476   0.578  10.668   8.371 -1.6309  1.2886 -1.7167
  572MOL0     H75477   0.553  10.680   8.543 -3.6149  0.2655 -0.3526
  572MOL0     H75478   0.483  10.927   8.375 -0.4927 -0.0427 -1.8732
  572MOL0     H75479   0.447  10.868   8.537  1.5681 -0.7152  0.3541
  572MOL0     H75480   0.340  10.674   8.455 -0.0277  1.3704  1.7141
  572MOL0     H75481   0.343  10.726   8.293  3.0277  1.4235 -1.2198
  572MOL0     H75482   0.202  10.886   8.511  1.6874  1.0688 -0.3861
  572MOL0     H75483   0.220  10.934   8.347  1.3107 -0.2729  0.0408
  572MOL0     H75484   0.089  10.660   8.384  0.2200 -0.3001 -1.2425
  572MOL0     H75485   0.092  10.764   8.246 -0.7991 -3.9228  0.1635
  572MOL0     H75486   1.148  10.994   8.627  0.5377 -1.0678 -0.3810
  572MOL0     H75487   1.375  11.006   8.608 -0.6855 -0.9769  2.0889
  572MOL0     H75488   1.830  11.139   8.524 -1.4335  0.2571 -1.8597
  572MOL0     H75489   2.065  11.079   8.525 -0.4248 -0.6363  3.0001
  572MOL0     H75490   3.494  10.592   8.982 -0.3860 -1.8512 -1.9789
  572MOL0     H75491   3.647  10.720   8.846  0.4032  0.0967 -5.9899
  572MOL0     H75492   3.855  11.232   8.886 -0.2579  1.0665 -0.0534
  572MOL0     H75493   3.989  11.373   8.749 -3.4979  0.6395  3.2545
  572MOL0     H75494   3.897  11.457   8.374  0.6032  2.1861 -0.0350
  572MOL0     H75495   3.998  11.337   8.279  0.7771  1.2482 -0.9248
  572MOL0     H75496   4.037  11.589   8.256  1.1562 -0.6327 -2.5701
  572MOL0     H75497   4.120  11.585   8.416  1.0916 -0.4443 -1.2031
  572MOL0     H75498   4.222  11.378   8.217 -2.3193 -1.6517  4.2896
  572MOL0     H75499   4.301  11.477   8.336 -1.4113 -2.5303  1.8395
  572MOL0     H75500   4.215  11.558   8.044  1.6668  2.6582 -2.6068
  572MOL0     H75501   4.260  11.674   8.177  3.0911 -1.2067  2.2770
  572MOL0     H75502   4.633  11.484   8.095  0.4043  1.4962 -0.8523
  572MOL0     H75503   3.858  11.170   8.392 -2.8251  3.0278 -0.6103
  572MOL0     H75504   3.684  11.056   8.527 -1.2067  1.5248 -0.1447
  573MOL0     O75505   6.424   2.897   0.174 -1.3162  0.5699 -0.1737
  573MOL0     C75506   6.356   2.999   0.170  0.5234  0.0879 -0.0123
  573MOL0     O75507   6.225   2.997   0.197 -0.2563  0.0539  0.0872
  573MOL0     C75508   6.157   2.881   0.235  0.0782  0.9527  0.0933
  573MOL0     C75509   6.053   2.832   0.145  0.8787 -0.1831 -0.4593
  573MOL0     C75510   6.002   2.701   0.159 -0.0584 -0.5430 -0.1182
  573MOL0     C75511   6.037   2.620   0.265  0.1751 -0.3271  0.0398
  573MOL0     O75512   5.980   2.497   0.297  0.3394  0.8287 -0.3082
  573MOL0     C75513   5.935   2.430   0.172 -0.0310  0.2433  0.3284
  573MOL0     C75514   5.918   2.275   0.191  0.9775  0.2266  0.1645
  573MOL0     C75515   5.883   2.195   0.064 -0.2508 -0.6560 -0.4901
  573MOL0     C75516   5.734   2.223   0.021  0.1702 -0.4617  0.6571
  573MOL0     C75517   5.677   2.104  -0.051  0.0708  0.3560  0.3735
  573MOL0     C75518   5.534   2.118  -0.109  0.1174  0.2323 -0.9674
  573MOL0     C75519   5.432   2.019  -0.048 -0.4305 -0.9806  0.6192
  573MOL0     C75520   5.444   1.887  -0.122 -0.4792  0.8167 -0.8961
  573MOL0     N75521   5.367   1.792  -0.047  0.2018 -0.2138 -0.1220
  573MOL0     C75522   5.307   1.680  -0.097 -0.6093 -0.3857  0.3913
  573MOL0     C75523   5.255   1.622   0.004  0.1433  0.0646 -0.4707
  573MOL0     C75524   5.163   1.501   0.010  0.3814  0.7993 -0.4328
  573MOL0     C75525   5.037   1.549   0.092 -0.2628  0.8851  0.1508
  573MOL0     C75526   4.928   1.440   0.125 -0.1210  0.6781 -0.7999
  573MOL0     C75527   4.968   1.313   0.210 -0.1957  0.4872  0.2980
  573MOL0     O75528   5.058   1.231   0.128  0.1241  0.5768 -0.1312
  573MOL0     C75529   5.003   1.129   0.049 -0.2932 -0.0896  0.3916
  573MOL0     C75530   5.091   1.076  -0.054 -0.4441 -0.4655  0.0443
  573MOL0     C75531   5.040   0.991  -0.151 -0.7308  0.1420 -0.1284
  573MOL0     C75532   4.908   0.944  -0.138 -0.6350 -0.5588  0.7670
  573MOL0     C75533   4.860   0.822  -0.212 -1.3347 -0.8306 -0.0505
  573MOL0     O75534   4.727   0.786  -0.195 -0.7746  0.3582  0.3923
  573MOL0     C75535   4.673   0.696  -0.283 -0.5647  0.0759  1.3319
  573MOL0     C75536   4.558   0.634  -0.237  0.2540  1.4491  0.1477
  573MOL0     C75537   4.485   0.540  -0.316  0.2456  0.2171  0.1149
  573MOL0     C75538   4.529   0.514  -0.448 -0.3640 -1.3229  0.3834
  573MOL0     O75539   4.457   0.441  -0.539 -0.2124 -0.3465 -0.3084
  573MOL0     C75540   4.353   0.352  -0.494  0.0857 -0.4707  0.2174
  573MOL0     C75541   4.389   0.243  -0.391 -0.6114 -0.7968 -1.2030
  573MOL0     C75542   4.262   0.176  -0.347  1.1264 -0.2832 -0.7758
  573MOL0     C75543   4.274   0.139  -0.200  0.3541 -0.1485 -0.6219
  573MOL0     C75544   4.154   0.051  -0.155 -0.6826  0.4288  0.0692
  573MOL0     C75545   4.181  -0.095  -0.212  0.4113  0.2003  0.3823
  573MOL0     C75546   4.086  -0.198  -0.140 -0.6717  0.0949  0.1653
  573MOL0     C75547   4.112  -0.338  -0.168 -0.3752 -0.3187  0.0296
  573MOL0    Cl75548   3.991  -0.442  -0.074  0.3111  0.1103 -0.3727
  573MOL0     C75549   4.643   0.575  -0.495 -0.3439  1.2869  0.6081
  573MOL0     C75550   4.718   0.663  -0.413  1.0675 -0.3931  0.3146
  573MOL0     O75551   4.943   0.763  -0.270 -0.7731  0.0618  0.2647
  573MOL0     C75552   4.817   1.020  -0.060 -0.8044 -0.4809 -0.0721
  573MOL0     C75553   4.862   1.111   0.033 -0.5903  0.9547 -0.4730
  573MOL0     N75554   5.292   1.693   0.119  0.0798 -0.1384  0.2646
  573MOL0     N75555   5.353   1.794   0.086 -0.6967  0.2784  0.2215
  573MOL0     C75556   6.141   2.670   0.357  0.8973 -0.1780 -0.7176
  573MOL0     C75557   6.199   2.796   0.348  0.5282 -0.7765  0.9530
  573MOL0     C75558   6.419   3.132   0.130  1.2650 -0.7816  0.1615
  573MOL0     C75559   6.541   3.146   0.066  0.8430 -0.0194 -0.0213
  573MOL0     C75560   6.593   3.270   0.038 -0.0911  0.0747 -0.2228
  573MOL0     C75561   6.523   3.393   0.073  0.3413  0.4394  0.5643
  573MOL0     O75562   6.604   3.505   0.058  0.4138 -0.4875 -0.2245
  573MOL0     C75563   6.550   3.639   0.104  0.2725  1.3403 -0.4257
  573MOL0     C75564   6.514   3.729  -0.016 -0.8512  0.6562 -0.3580
  573MOL0     C75565   6.629   3.765  -0.112  1.0113  0.1398 -0.1212
  573MOL0     C75566   6.737   3.847  -0.031  0.4169 -0.5336  0.5358
  573MOL0     C75567   6.709   3.975   0.026 -0.2489 -0.1178 -0.1706
  573MOL0     C75568   6.662   4.083   0.059 -0.3312  0.7769  0.3721
  573MOL0     C75569   6.395   3.381   0.121  0.3557  0.0514 -0.6847
  573MOL0     C75570   6.344   3.250   0.148  1.6341 -0.2194 -0.4297
  573MOL0     H75571   6.016   2.881   0.055  1.6940  3.3974  1.0146
  573MOL0     H75572   5.921   2.681   0.091 -1.9758  3.6591  0.6301
  573MOL0     H75573   6.005   2.451   0.091  0.0546 -0.3858  0.2354
  573MOL0     H75574   5.840   2.472   0.137  0.6510  2.1270  0.5967
  573MOL0     H75575   5.841   2.261   0.268 -1.5332  0.3810 -2.1925
  573MOL0     H75576   6.010   2.227   0.228  1.0171  2.6542  3.8319
  573MOL0     H75577   5.880   2.089   0.095  3.1443 -1.2733 -1.8387
  573MOL0     H75578   5.964   2.207  -0.008 -0.1214  1.9451 -0.0010
  573MOL0     H75579   5.666   2.263   0.096 -0.9964  0.2571 -0.7348
  573MOL0     H75580   5.732   2.311  -0.044 -1.0004 -0.3522  0.8238
  573MOL0     H75581   5.681   2.017   0.015  4.4125  0.2163  0.2190
  573MOL0     H75582   5.743   2.078  -0.133  0.4642 -0.9922  1.0883
  573MOL0     H75583   5.528   2.101  -0.217 -0.9938 -0.3675 -0.8285
  573MOL0     H75584   5.509   2.219  -0.077  2.1955 -0.1569  2.4289
  573MOL0     H75585   5.442   2.014   0.061  2.2425  2.0590  0.6460
  573MOL0     H75586   5.333   2.062  -0.064 -0.2457 -1.0465 -0.8198
  573MOL0     H75587   5.545   1.847  -0.136 -0.4524  0.9937 -1.2245
  573MOL0     H75588   5.400   1.900  -0.221 -1.9722  0.1162 -0.3602
  573MOL0     H75589   5.284   1.649  -0.199  0.4175 -3.2247  0.9289
  573MOL0     H75590   5.219   1.419   0.057  2.4141  0.0278 -3.8832
  573MOL0     H75591   5.135   1.457  -0.086  0.9365 -0.3865 -0.0729
  573MOL0     H75592   4.993   1.628   0.029 -1.9923 -1.1842 -1.3993
  573MOL0     H75593   5.078   1.586   0.186  3.2512  1.0651 -1.2822
  573MOL0     H75594   4.855   1.500   0.181  1.5537  2.0522  0.0380
  573MOL0     H75595   4.881   1.415   0.030  0.8580  0.9436 -1.3683
  573MOL0     H75596   4.882   1.254   0.243  0.0612  0.7419  1.4774
  573MOL0     H75597   5.022   1.347   0.299 -2.0100  1.0290  1.2539
  573MOL0     H75598   5.199   1.088  -0.056 -0.2120 -2.2622  0.4714
  573MOL0     H75599   5.103   0.930  -0.216 -2.2358 -2.0615  0.3501
  573MOL0     H75600   4.515   0.659  -0.140 -0.4785 -4.9275  1.8887
  573MOL0     H75601   4.397   0.491  -0.275  0.7434  0.4409  1.5230
  573MOL0     H75602   4.314   0.296  -0.579 -1.9239 -3.1599  2.7009
  573MOL0     H75603   4.276   0.417  -0.450 -0.9932 -0.5333 -1.4927
  573MOL0     H75604   4.429   0.289  -0.300 -0.9065  1.6930 -2.2836
  573MOL0     H75605   4.457   0.170  -0.438  1.6630  1.9410 -2.4443
  573MOL0     H75606   4.260   0.084  -0.407 -1.3077 -2.2577  2.0822
  573MOL0     H75607   4.176   0.238  -0.373 -0.0729 -1.8376 -0.6601
  573MOL0     H75608   4.368   0.086  -0.182 -1.0202 -2.8771 -0.9733
  573MOL0     H75609   4.261   0.226  -0.135 -3.2149 -1.0352  0.0788
  573MOL0     H75610   4.066   0.090  -0.206  0.0448  2.8791  0.5528
  573MOL0     H75611   4.145   0.065  -0.047  0.7500  1.1251  0.1202
  573MOL0     H75612   4.288  -0.114  -0.196  0.6818  0.7157 -0.7525
  573MOL0     H75613   4.162  -0.109  -0.319 -1.9005 -0.2162  0.8122
  573MOL0     H75614   4.072  -0.164  -0.037  1.4741  3.8950 -0.6211
  573MOL0     H75615   3.991  -0.160  -0.178  0.2532  0.9707 -1.3538
  573MOL0     H75616   4.214  -0.362  -0.137 -0.2960  0.4716  0.4045
  573MOL0     H75617   4.099  -0.368  -0.272  0.6757 -1.8808  0.3067
  573MOL0     H75618   4.680   0.561  -0.596  0.5860 -2.2233  1.3103
  573MOL0     H75619   4.805   0.703  -0.466  1.5065 -2.3309 -0.5480
  573MOL0     H75620   4.714   0.988  -0.058 -0.9225 -0.1402  2.1719
  573MOL0     H75621   4.787   1.173   0.080 -0.8762  0.2606  0.0163
  573MOL0     H75622   6.179   2.615   0.442 -0.1907 -0.2996 -0.2990
  573MOL0     H75623   6.273   2.840   0.414  2.1182  0.3660 -1.4435
  573MOL0     H75624   6.580   3.047   0.041 -1.3342 -0.5112 -1.7211
  573MOL0     H75625   6.693   3.281  -0.003  0.4239 -2.4460  0.1994
  573MOL0     H75626   6.617   3.680   0.180 -0.0261  1.1989 -0.0829
  573MOL0     H75627   6.452   3.633   0.153  0.6410  3.9750  0.7891
  573MOL0     H75628   6.441   3.663  -0.063  0.6228 -0.4318 -1.2251
  573MOL0     H75629   6.462   3.820   0.016 -0.8581  0.2876  0.6971
  573MOL0     H75630   6.580   3.827  -0.188 -4.1234 -1.9547  1.0421
  573MOL0     H75631   6.663   3.669  -0.153 -3.3671 -2.3214  1.3079
  573MOL0     H75632   6.784   3.782   0.043 -0.1172 -1.4551  0.0876
  573MOL0     H75633   6.811   3.870  -0.109 -0.0564 -1.7641 -0.3031
  573MOL0     H75634   6.599   4.159   0.101 -3.9180 -1.3004 -0.8177
  573MOL0     H75635   6.330   3.464   0.150  1.0664  1.2127 -2.2816
  573MOL0     H75636   6.248   3.234   0.197  1.3132 -2.9870 -1.7972
  574MOL0     O75637   7.811   8.187   2.868  0.0753  0.1859 -0.2693
  574MOL0     C75638   7.866   8.292   2.897 -0.4762  0.8879  0.5772
  574MOL0     O75639   7.934   8.312   3.015  0.2752 -0.8063 -0.0691
  574MOL0     C75640   7.948   8.200   3.101  0.3640  0.4512 -0.4106
  574MOL0     C75641   7.978   8.077   3.055 -0.3831 -0.2854  0.1398
  574MOL0     C75642   7.991   7.958   3.141 -0.3405 -0.5414 -0.1998
  574MOL0     C75643   7.953   7.970   3.273  0.0968 -0.5267 -0.4880
  574MOL0     O75644   7.957   7.860   3.354  0.3411  0.3086  0.0723
  574MOL0     C75645   8.034   7.870   3.470  0.3724 -0.7464 -1.4731
  574MOL0     C75646   8.045   7.739   3.546 -0.0605  0.1579  0.4292
  574MOL0     C75647   7.951   7.629   3.498  0.2532  0.2627  1.1492
  574MOL0     C75648   8.002   7.549   3.375 -0.0213  0.5648  1.4708
  574MOL0     C75649   7.900   7.437   3.332 -0.1591  0.0236 -0.2965
  574MOL0     C75650   7.891   7.414   3.181 -0.0441 -0.8690 -0.1270
  574MOL0     C75651   8.020   7.389   3.111 -0.2893  0.2980 -0.4737
  574MOL0     C75652   8.085   7.251   3.158  0.3107  1.1147  0.9322
  574MOL0     N75653   8.006   7.132   3.126 -0.1692 -0.6269  0.5211
  574MOL0     C75654   7.980   7.107   2.996  0.4599 -0.4756  0.4947
  574MOL0     C75655   7.911   6.996   2.991  0.1570  0.4907  0.9087
  574MOL0     C75656   7.851   6.946   2.861 -0.3896 -0.1608 -0.6066
  574MOL0     C75657   7.742   6.847   2.886  0.3233  0.2542 -0.4614
  574MOL0     C75658   7.670   6.811   2.750  0.3121  0.1319  0.2171
  574MOL0     C75659   7.608   6.671   2.772  0.4783  0.0379  0.1237
  574MOL0     O75660   7.501   6.623   2.683  0.0644  0.1654  0.1666
  574MOL0     C75661   7.496   6.482   2.667  0.7781 -0.5881  0.4360
  574MOL0     C75662   7.568   6.389   2.748 -0.2847  0.3937  0.6730
  574MOL0     C75663   7.555   6.244   2.728 -0.1284 -0.0217  0.3607
  574MOL0     C75664   7.468   6.203   2.627 -1.0478 -0.1314  0.0253
  574MOL0     C75665   7.475   6.070   2.571  0.3105  0.5960  0.3468
  574MOL0     O75666   7.583   5.988   2.612 -0.6168  0.5399 -0.3197
  574MOL0     C75667   7.579   5.858   2.569  0.3287 -1.2036  0.3779
  574MOL0     C75668   7.535   5.748   2.647 -0.0476  0.4371  0.0012
  574MOL0     C75669   7.527   5.618   2.595 -0.8340 -0.7818  0.0992
  574MOL0     C75670   7.564   5.602   2.460  0.0212  0.7948  0.1764
  574MOL0     O75671   7.551   5.482   2.390  0.1632  0.2391  0.1736
  574MOL0     C75672   7.641   5.375   2.439  0.0080 -0.0095 -0.5607
  574MOL0     C75673   7.701   5.288   2.318 -0.8891 -0.7937  0.1183
  574MOL0     C75674   7.802   5.369   2.237  0.2851  0.8045 -0.5871
  574MOL0     C75675   7.941   5.369   2.304 -0.8227 -0.5526 -0.0396
  574MOL0     C75676   8.047   5.434   2.208  0.3971  0.1803 -0.1154
  574MOL0     C75677   8.032   5.591   2.187 -0.4246  0.2066  0.3662
  574MOL0     C75678   8.039   5.659   2.324  0.2011 -0.3839  0.2432
  574MOL0     C75679   8.115   5.794   2.308  0.5748  0.3534 -0.5323
  574MOL0    Cl75680   8.010   5.896   2.222 -0.4607  0.3014 -0.2319
  574MOL0     C75681   7.616   5.701   2.395 -0.9596 -0.4355  0.9043
  574MOL0     C75682   7.630   5.835   2.442 -1.0355 -0.2229  0.3447
  574MOL0     O75683   7.376   6.041   2.498  0.1304 -0.3929  0.2961
  574MOL0     C75684   7.386   6.295   2.561 -0.2294 -0.0708 -0.0136
  574MOL0     C75685   7.400   6.435   2.584  0.7879 -0.8934  0.3856
  574MOL0     N75686   7.895   6.948   3.126 -0.4311  0.3606 -1.2085
  574MOL0     N75687   7.961   7.030   3.209  0.4706  0.3711  0.0601
  574MOL0     C75688   7.909   8.095   3.322  0.7820 -0.6051  0.0942
  574MOL0     C75689   7.920   8.209   3.242  0.5016  0.3946  0.1899
  574MOL0     C75690   7.860   8.406   2.811  0.4547  0.5657  0.1503
  574MOL0     C75691   7.932   8.524   2.827 -0.6938 -0.1167  0.2599
  574MOL0     C75692   7.914   8.639   2.740 -0.0332  1.2695  0.4566
  574MOL0     C75693   7.835   8.616   2.625  0.4665  0.3991 -0.1758
  574MOL0     O75694   7.833   8.703   2.527 -0.4444 -0.1524  0.1195
  574MOL0     C75695   7.750   8.815   2.556  0.9460  0.3107  0.2390
  574MOL0     C75696   7.640   8.828   2.456  0.0919  0.5607  0.0599
  574MOL0     C75697   7.534   8.713   2.448  0.4913 -0.9401 -0.9064
  574MOL0     C75698   7.436   8.725   2.573  0.0068 -1.5454 -0.0811
  574MOL0     C75699   7.317   8.659   2.543  0.4107 -0.1033  0.4949
  574MOL0     C75700   7.213   8.616   2.502  0.2769  0.3035 -0.8830
  574MOL0     C75701   7.778   8.493   2.607 -0.2560 -0.0946 -0.0674
  574MOL0     C75702   7.776   8.390   2.704  0.1993 -0.4108  0.5968
  574MOL0     H75703   8.000   8.074   2.949  0.0378  2.9958  0.0177
  574MOL0     H75704   8.012   7.859   3.101  0.5538  0.0748 -1.3178
  574MOL0     H75705   7.992   7.952   3.528  1.3596 -0.8070 -0.6283
  574MOL0     H75706   8.137   7.903   3.454  0.2043 -0.4097 -1.8552
  574MOL0     H75707   8.029   7.749   3.654  1.5545 -3.7715  1.2453
  574MOL0     H75708   8.150   7.706   3.540  0.1137  0.8879 -0.7775
  574MOL0     H75709   7.846   7.652   3.477  0.5286 -0.8809 -2.1617
  574MOL0     H75710   7.937   7.557   3.579  4.2148 -3.1075 -0.8083
  574MOL0     H75711   8.015   7.617   3.290  1.1353  0.0475  1.2128
  574MOL0     H75712   8.101   7.505   3.391 -1.0162 -1.6016  2.1492
  574MOL0     H75713   7.799   7.452   3.371 -0.3888 -2.5104  0.2608
  574MOL0     H75714   7.932   7.348   3.387  0.7460  1.1966  1.1745
  574MOL0     H75715   7.835   7.503   3.150  1.2597  1.0063  2.4830
  574MOL0     H75716   7.829   7.333   3.142 -0.0135 -0.9213 -0.0666
  574MOL0     H75717   7.993   7.384   3.005  1.5516  0.4275 -0.9887
  574MOL0     H75718   8.089   7.472   3.130 -1.2582  0.6356  1.9725
  574MOL0     H75719   8.106   7.242   3.264 -1.3620 -3.6226  1.0903
  574MOL0     H75720   8.177   7.256   3.099 -1.5988  0.6479 -2.3239
  574MOL0     H75721   8.013   7.171   2.915  1.4597  0.8867  1.9216
  574MOL0     H75722   7.929   6.903   2.797 -0.3184  1.8590 -1.9667
  574MOL0     H75723   7.811   7.029   2.802  0.5449 -0.1846 -1.2876
  574MOL0     H75724   7.671   6.899   2.951  1.4531  0.2567  0.8097
  574MOL0     H75725   7.774   6.755   2.936 -2.0047 -0.3317  0.0639
  574MOL0     H75726   7.597   6.889   2.731 -0.9486 -0.2998  2.8243
  574MOL0     H75727   7.741   6.786   2.671  0.0135 -2.2294  0.6285
  574MOL0     H75728   7.568   6.660   2.873 -1.5300  1.2987 -0.4668
  574MOL0     H75729   7.700   6.614   2.761  1.1514  1.2299 -0.5550
  574MOL0     H75730   7.620   6.424   2.837 -3.7388 -1.1421  3.5390
  574MOL0     H75731   7.618   6.168   2.773  1.1662  0.0855 -1.1990
  574MOL0     H75732   7.492   5.757   2.746 -3.9101  2.3219 -1.6596
  574MOL0     H75733   7.493   5.531   2.650 -1.6028 -0.6314 -0.1261
  574MOL0     H75734   7.592   5.307   2.509  4.6117  0.2243  3.4803
  574MOL0     H75735   7.715   5.429   2.499 -2.2578  0.3667  2.1126
  574MOL0     H75736   7.619   5.260   2.250  0.5458  1.8727 -2.9455
  574MOL0     H75737   7.741   5.197   2.365  0.9902 -1.5456 -2.6788
  574MOL0     H75738   7.772   5.472   2.221  2.5556  1.7077  0.4526
  574MOL0     H75739   7.801   5.324   2.137 -5.0003  1.1253 -0.9515
  574MOL0     H75740   7.959   5.414   2.402  2.8996  2.1435 -1.7129
  574MOL0     H75741   7.975   5.265   2.309 -0.1668 -0.3452 -0.1285
  574MOL0     H75742   8.051   5.393   2.107  1.1662  5.4260 -2.5689
  574MOL0     H75743   8.139   5.403   2.258 -1.5696 -4.1857  1.3153
  574MOL0     H75744   7.934   5.614   2.143  0.3758 -0.2159 -1.7322
  574MOL0     H75745   8.118   5.623   2.127 -1.0752 -1.2887 -1.4603
  574MOL0     H75746   7.938   5.688   2.354 -0.6978 -2.8272 -0.1347
  574MOL0     H75747   8.087   5.594   2.397 -0.6787 -1.0832  0.2177
  574MOL0     H75748   8.210   5.772   2.257  0.4233 -0.7958 -0.3590
  574MOL0     H75749   8.140   5.834   2.406 -0.4790  4.1804 -1.6801
  574MOL0     H75750   7.647   5.695   2.291 -2.0429  0.2920  0.5183
  574MOL0     H75751   7.681   5.910   2.382 -0.5207 -0.6493  0.2435
  574MOL0     H75752   7.319   6.261   2.484  1.1711  0.1484 -1.3742
  574MOL0     H75753   7.334   6.508   2.539  2.9861 -0.1688 -1.8814
  574MOL0     H75754   7.881   8.101   3.427  0.3962 -0.4000 -0.0156
  574MOL0     H75755   7.901   8.307   3.285  0.3895  0.0305  0.9724
  574MOL0     H75756   8.001   8.525   2.911  1.5138 -2.9441 -1.3426
  574MOL0     H75757   7.968   8.732   2.748  0.7086  0.8816  0.1140
  574MOL0     H75758   7.805   8.909   2.557 -1.6819  1.9412  0.5652
  574MOL0     H75759   7.689   8.793   2.645  0.1960 -0.0969 -0.3602
  574MOL0     H75760   7.596   8.922   2.492 -1.8153 -0.1269 -0.3241
  574MOL0     H75761   7.683   8.830   2.355 -0.9929  0.7364 -0.4157
  574MOL0     H75762   7.596   8.623   2.449  1.5835 -0.2763  1.9226
  574MOL0     H75763   7.469   8.710   2.360 -1.2482 -2.3283  0.3349
  574MOL0     H75764   7.483   8.688   2.665 -2.5434 -2.5942  0.8980
  574MOL0     H75765   7.406   8.830   2.586  0.5616 -1.1177 -1.9790
  574MOL0     H75766   7.111   8.598   2.476  0.1217  0.6765 -0.5425
  574MOL0     H75767   7.727   8.480   2.513  0.3180  0.3895 -0.4506
  574MOL0     H75768   7.710   8.305   2.687 -1.7718  1.2098 -0.1964
  575MOL0     O75769   0.231   2.250   1.364 -0.1307 -0.4384 -0.3306
  575MOL0     C75770   0.176   2.305   1.460 -0.5237 -0.6534 -0.1141
  575MOL0     O75771   0.231   2.323   1.586  0.5298 -0.4384 -0.0741
  575MOL0     C75772   0.344   2.248   1.605  0.1263 -0.1255 -0.5032
  575MOL0     C75773   0.463   2.306   1.569  0.1864  0.4882  0.0149
  575MOL0     C75774   0.582   2.228   1.575 -0.6833 -0.1321 -0.7341
  575MOL0     C75775   0.583   2.095   1.620 -0.1029  0.8552  0.5698
  575MOL0     O75776   0.697   2.024   1.640  0.0815 -0.3047  0.0597
  575MOL0     C75777   0.688   1.898   1.701 -0.9245 -0.0006 -0.8171
  575MOL0     C75778   0.836   1.843   1.754  0.0863  0.9771  1.3674
  575MOL0     C75779   0.923   1.806   1.631 -0.4200  1.1916 -0.1889
  575MOL0     C75780   1.062   1.764   1.675 -0.1717  0.1150  0.8951
  575MOL0     C75781   1.168   1.766   1.563 -0.4311 -1.5107  0.0325
  575MOL0     C75782   1.166   1.651   1.462  0.2569  0.3679 -0.1277
  575MOL0     C75783   1.244   1.675   1.333  0.3672  0.1407  0.1756
  575MOL0     C75784   1.398   1.651   1.359 -0.0511  0.6886  0.1730
  575MOL0     N75785   1.475   1.647   1.237  0.1311  0.3542 -0.4505
  575MOL0     C75786   1.448   1.725   1.125 -0.2757  0.2203 -0.0146
  575MOL0     C75787   1.534   1.677   1.027 -0.0056 -0.8830 -0.2836
  575MOL0     C75788   1.567   1.736   0.893  0.7399 -1.1829  0.1632
  575MOL0     C75789   1.444   1.825   0.845 -0.1179  0.5504 -0.6558
  575MOL0     C75790   1.345   1.743   0.768  0.6577 -0.7429  0.7536
  575MOL0     C75791   1.240   1.846   0.712  0.1080  0.4494 -0.1514
  575MOL0     O75792   1.181   1.919   0.819 -0.1571  0.1283 -0.4977
  575MOL0     C75793   1.066   1.988   0.799  0.4687 -0.6639  0.5651
  575MOL0     C75794   1.014   2.031   0.675  0.4162 -0.0581 -0.0550
  575MOL0     C75795   0.901   2.117   0.672  0.3077  0.0607 -0.0013
  575MOL0     C75796   0.848   2.168   0.788 -0.6752  0.0237  0.5798
  575MOL0     C75797   0.728   2.267   0.774 -0.3758  1.1274  0.4587
  575MOL0     O75798   0.710   2.329   0.653  0.0378 -0.5401  0.0250
  575MOL0     C75799   0.591   2.408   0.654  0.0179  0.8509  0.0897
  575MOL0     C75800   0.565   2.519   0.740 -0.1517 -0.1356  0.5114
  575MOL0     C75801   0.435   2.573   0.751  0.2742  0.1274 -0.5708
  575MOL0     C75802   0.337   2.524   0.669 -0.5693 -0.0159  0.0153
  575MOL0     O75803   0.215   2.585   0.676 -0.2075 -0.2253 -0.3136
  575MOL0     C75804   0.102   2.509   0.707 -0.8752  0.2231  0.1524
  575MOL0     C75805  -0.005   2.616   0.717  0.3256  0.1087  0.4775
  575MOL0     C75806  -0.002   2.722   0.829 -0.4110 -0.7050  1.3071
  575MOL0     C75807  -0.013   2.662   0.967  0.0440 -0.0691  0.0551
  575MOL0     C75808  -0.029   2.781   1.061  1.3993 -0.3881  0.0704
  575MOL0     C75809  -0.104   2.750   1.190  0.3094 -0.2114  0.1756
  575MOL0     C75810  -0.099   2.850   1.306  0.0713 -0.7476 -0.5895
  575MOL0     C75811   0.051   2.878   1.340  0.1167 -0.4078  0.0208
  575MOL0    Cl75812   0.149   2.722   1.356 -0.0132  0.5685  0.0272
  575MOL0     C75813   0.363   2.420   0.578 -0.0284 -0.0041  0.0413
  575MOL0     C75814   0.486   2.357   0.575  1.1184  0.0815 -0.0755
  575MOL0     O75815   0.663   2.273   0.876 -0.5601  0.5814 -1.3481
  575MOL0     C75816   0.900   2.129   0.908  0.5963  0.2713  0.2708
  575MOL0     C75817   1.007   2.037   0.914 -1.1264 -0.7170  0.2649
  575MOL0     N75818   1.609   1.568   1.088 -0.6580 -0.8759 -0.0990
  575MOL0     N75819   1.561   1.541   1.206 -0.3132 -0.2159 -1.1678
  575MOL0     C75820   0.454   2.039   1.654 -0.4227 -0.3149  1.3324
  575MOL0     C75821   0.338   2.118   1.641  1.2356  0.1410 -0.7555
  575MOL0     C75822   0.054   2.370   1.419  0.2442  0.4143  0.0267
  575MOL0     C75823   0.011   2.373   1.285 -0.2923  0.1564 -1.1523
  575MOL0     C75824  -0.119   2.419   1.255  0.0963 -0.7713 -0.0159
  575MOL0     C75825  -0.207   2.463   1.353  0.1474 -0.0451 -0.8829
  575MOL0     O75826  -0.322   2.530   1.315  0.3046 -0.5972 -0.1091
  575MOL0     C75827  -0.407   2.606   1.407 -0.3454  1.0900  0.1959
  575MOL0     C75828  -0.471   2.728   1.337  1.0828 -0.5735  1.1988
  575MOL0     C75829  -0.583   2.676   1.241 -0.3589  0.7641  0.1619
  575MOL0     C75830  -0.542   2.668   1.092 -0.7640  0.3515  0.5707
  575MOL0     C75831  -0.621   2.577   1.005  0.4068  0.1406  0.0663
  575MOL0     C75832  -0.689   2.508   0.927 -0.5152  0.6956 -0.2264
  575MOL0     C75833  -0.160   2.459   1.494  0.5806  1.2157 -0.5962
  575MOL0     C75834  -0.033   2.413   1.516 -0.1277  1.1211  0.5286
  575MOL0     H75835   0.472   2.407   1.531  2.6281  0.0663 -0.7194
  575MOL0     H75836   0.674   2.282   1.550 -0.1211 -0.2865  0.8544
  575MOL0     H75837   0.633   1.832   1.632 -1.3189  2.2732 -2.8023
  575MOL0     H75838   0.637   1.903   1.798  0.5526 -1.8548  0.1209
  575MOL0     H75839   0.822   1.753   1.814 -0.0278  1.6603  2.3877
  575MOL0     H75840   0.887   1.920   1.813  0.9117  4.2396 -3.1025
  575MOL0     H75841   0.920   1.894   1.566 -0.7286  2.3992  1.3979
  575MOL0     H75842   0.874   1.726   1.574  1.4011  0.5372 -0.9040
  575MOL0     H75843   1.095   1.840   1.746  0.3253  0.5990  0.1679
  575MOL0     H75844   1.052   1.663   1.715  1.2422 -0.0016  1.0030
  575MOL0     H75845   1.270   1.786   1.597 -0.0433  2.6867 -2.8103
  575MOL0     H75846   1.141   1.857   1.509  1.4512  0.6108  2.4556
  575MOL0     H75847   1.062   1.631   1.435 -0.3983  1.7471  1.1987
  575MOL0     H75848   1.194   1.555   1.507  0.4250 -0.3804 -1.7734
  575MOL0     H75849   1.226   1.597   1.259 -1.9556 -0.7306  1.5867
  575MOL0     H75850   1.217   1.777   1.302  3.3830  1.6999  2.1568
  575MOL0     H75851   1.414   1.560   1.417  1.2871  1.3533  0.9068
  575MOL0     H75852   1.430   1.735   1.422 -0.9259  0.4363  0.9756
  575MOL0     H75853   1.370   1.801   1.125 -0.3864  0.2188  2.8531
  575MOL0     H75854   1.595   1.659   0.821  2.1678  2.4420 -3.5178
  575MOL0     H75855   1.653   1.803   0.894 -1.6685  2.1859  0.0300
  575MOL0     H75856   1.492   1.902   0.782 -0.0210  1.3462  0.3640
  575MOL0     H75857   1.397   1.864   0.935 -0.2088 -2.5491  0.7526
  575MOL0     H75858   1.395   1.699   0.682 -1.6540  3.3571 -3.1028
  575MOL0     H75859   1.290   1.669   0.826 -2.3974 -0.0209 -1.0062
  575MOL0     H75860   1.173   1.775   0.661  0.1509 -0.2970  0.7922
  575MOL0     H75861   1.282   1.911   0.636 -0.3999 -1.4776 -2.1917
  575MOL0     H75862   1.055   1.990   0.583 -1.8279  1.2526 -1.7263
  575MOL0     H75863   0.857   2.137   0.575 -0.8616  2.9011  0.9985
  575MOL0     H75864   0.657   2.543   0.792  0.5679  1.0177 -1.2087
  575MOL0     H75865   0.405   2.659   0.810  0.7223 -0.7606  0.9760
  575MOL0     H75866   0.102   2.454   0.802  1.2637  2.3792  1.4902
  575MOL0     H75867   0.073   2.449   0.620  0.5969 -0.1070 -0.1332
  575MOL0     H75868  -0.103   2.568   0.731 -0.5771  2.0028  0.9620
  575MOL0     H75869  -0.002   2.653   0.615  1.8541 -0.0633  0.4324
  575MOL0     H75870  -0.077   2.798   0.809 -3.5851 -2.7680  4.2130
  575MOL0     H75871   0.095   2.771   0.818  1.3468 -4.2159 -0.6071
  575MOL0     H75872  -0.101   2.597   0.967 -3.4649  4.1693 -1.0645
  575MOL0     H75873   0.077   2.607   0.995  0.5779  0.4681 -0.5740
  575MOL0     H75874  -0.075   2.873   1.026  0.9558  0.6530  3.0494
  575MOL0     H75875   0.077   2.809   1.067  1.6473 -1.0281 -1.0322
  575MOL0     H75876  -0.077   2.651   1.227 -2.1701 -0.5537  1.2942
  575MOL0     H75877  -0.208   2.737   1.160  0.5349  0.2961 -0.8670
  575MOL0     H75878  -0.153   2.942   1.281  1.4103 -0.3112 -1.9502
  575MOL0     H75879  -0.146   2.808   1.396  2.9320 -0.1036  1.3253
  575MOL0     H75880   0.057   2.932   1.435  0.2704 -0.9794  0.3484
  575MOL0     H75881   0.088   2.930   1.251  0.2981 -1.1671 -0.3589
  575MOL0     H75882   0.279   2.384   0.521  2.6592 -3.0163 -2.4475
  575MOL0     H75883   0.503   2.263   0.523  0.6502 -0.6921  1.1334
  575MOL0     H75884   0.858   2.157   1.004 -1.7859 -0.9637 -0.3366
  575MOL0     H75885   1.040   2.009   1.014 -1.1326  0.0362  0.4851
  575MOL0     H75886   0.453   1.933   1.674  1.6710 -0.5646  0.3920
  575MOL0     H75887   0.247   2.071   1.676  0.9532  0.5624 -0.9170
  575MOL0     H75888   0.076   2.337   1.206  4.0814 -0.3807  2.3280
  575MOL0     H75889  -0.153   2.430   1.152 -0.8021  3.3789  0.5280
  575MOL0     H75890  -0.329   2.649   1.472  0.1505  1.3541 -0.5625
  575MOL0     H75891  -0.485   2.548   1.457  3.6898 -2.4422  3.2442
  575MOL0     H75892  -0.511   2.791   1.417 -0.0939 -1.3592  1.2587
  575MOL0     H75893  -0.403   2.792   1.281  0.7110 -1.5431 -0.4135
  575MOL0     H75894  -0.663   2.750   1.231 -0.0533  0.9661 -0.9788
  575MOL0     H75895  -0.629   2.583   1.273 -1.2688  0.8399 -0.8672
  575MOL0     H75896  -0.539   2.770   1.053 -1.7513 -0.0257 -0.5314
  575MOL0     H75897  -0.441   2.629   1.073 -0.5509  1.0341  0.2517
  575MOL0     H75898  -0.744   2.445   0.860 -2.3083  2.9924 -1.0484
  575MOL0     H75899  -0.226   2.500   1.570  0.8154  1.3723 -0.4741
  575MOL0     H75900  -0.002   2.397   1.619 -2.0529 -5.6382  0.5966
  576MOL0     O75901   9.733   7.532   0.021 -0.3106 -0.2361 -0.6183
  576MOL0     C75902   9.619   7.550  -0.018  0.8783  0.5294  0.2387
  576MOL0     O75903   9.540   7.658   0.007  0.2453  0.3696 -0.4901
  576MOL0     C75904   9.583   7.749   0.101 -0.7957 -0.0168 -0.3565
  576MOL0     C75905   9.608   7.879   0.054  0.0069  0.7206  0.0983
  576MOL0     C75906   9.653   7.980   0.134  0.0352 -0.6788  0.3461
  576MOL0     C75907   9.685   7.955   0.272 -0.3695 -0.1924 -0.2111
  576MOL0     O75908   9.742   8.056   0.354  0.8794  0.3511  0.8532
  576MOL0     C75909   9.818   8.026   0.477 -0.8447 -0.4077 -0.2186
  576MOL0     C75910   9.947   7.948   0.456 -0.8522 -0.6758  0.4764
  576MOL0     C75911  10.033   8.006   0.346 -0.0770  1.0719 -1.1780
  576MOL0     C75912  10.174   7.941   0.333 -0.0797 -0.5242 -0.0915
  576MOL0     C75913  10.286   8.051   0.331  0.8548 -0.5047  0.0275
  576MOL0     C75914  10.275   8.136   0.197 -0.6354  0.1724 -0.5803
  576MOL0     C75915  10.373   8.265   0.206  0.8258  0.1737 -0.1830
  576MOL0     C75916  10.338   8.368   0.106 -0.1272 -0.2876 -0.3087
  576MOL0     N75917  10.208   8.443   0.116 -0.1792  0.7114 -0.8369
  576MOL0     C75918  10.081   8.419   0.053 -1.2430  0.7040  0.9551
  576MOL0     C75919  10.001   8.512   0.103 -0.1592 -0.1357 -0.3361
  576MOL0     C75920   9.852   8.522   0.085  1.1997 -0.2784  0.8530
  576MOL0     C75921   9.766   8.436   0.183 -0.5072 -0.4092  0.6439
  576MOL0     C75922   9.629   8.395   0.127 -0.6052 -0.1066  0.0792
  576MOL0     C75923   9.547   8.518   0.116  0.8123 -1.3820  0.3589
  576MOL0     O75924   9.401   8.494   0.119  0.3305  0.2690 -0.2790
  576MOL0     C75925   9.325   8.604   0.075 -0.5170  0.5840 -0.3316
  576MOL0     C75926   9.206   8.596   0.010 -0.2223 -0.9248  0.6489
  576MOL0     C75927   9.143   8.710  -0.042  0.2391  0.6516  0.4352
  576MOL0     C75928   9.191   8.840  -0.037  0.6290 -0.2460 -0.0823
  576MOL0     C75929   9.112   8.960  -0.083 -0.2347 -0.8846  0.5180
  576MOL0     O75930   9.150   9.087  -0.030 -0.0686 -0.2365  0.2280
  576MOL0     C75931   9.088   9.193  -0.088  0.4613 -0.1454 -0.2593
  576MOL0     C75932   9.031   9.298  -0.011  0.2344 -0.2856  0.0983
  576MOL0     C75933   8.966   9.412  -0.059  0.7774  1.0765  0.5181
  576MOL0     C75934   8.955   9.424  -0.194  1.0318  0.2919  0.4583
  576MOL0     O75935   8.883   9.538  -0.238  0.1029  0.0194  0.5661
  576MOL0     C75936   8.746   9.523  -0.249  0.5577  0.3572  0.6664
  576MOL0     C75937   8.685   9.662  -0.277 -0.0428  0.4245 -0.1658
  576MOL0     C75938   8.707   9.710  -0.429 -0.7664  0.3189 -0.9889
  576MOL0     C75939   8.656   9.840  -0.465  0.7022 -0.0776 -0.5514
  576MOL0     C75940   8.748   9.957  -0.402 -0.0493  0.0093 -0.7681
  576MOL0     C75941   8.872   9.999  -0.483  0.2460 -0.1872 -0.1709
  576MOL0     C75942   8.930  10.151  -0.459  0.5139  0.3043 -0.1078
  576MOL0     C75943   9.079  10.169  -0.502  0.0604  0.5258  0.2069
  576MOL0    Cl75944   9.192  10.028  -0.447 -0.1170  0.3364 -0.1872
  576MOL0     C75945   9.010   9.330  -0.279 -0.3175  0.2357  0.7473
  576MOL0     C75946   9.077   9.216  -0.228  0.5156 -0.0895 -0.6072
  576MOL0     O75947   9.023   8.942  -0.163  0.5377 -0.5207  0.0856
  576MOL0     C75948   9.312   8.852   0.032 -1.1684  0.7218  1.2431
  576MOL0     C75949   9.375   8.737   0.084  0.4830 -0.3014 -0.1973
  576MOL0     N75950  10.064   8.594   0.194  0.0651 -0.3702  0.0259
  576MOL0     N75951  10.187   8.548   0.206 -0.2010 -0.6967  0.4272
  576MOL0     C75952   9.650   7.829   0.322 -0.0747  0.0431 -0.5575
  576MOL0     C75953   9.602   7.726   0.239  0.7919  0.2825  0.4106
  576MOL0     C75954   9.570   7.440  -0.100  0.0369 -0.4495  0.5940
  576MOL0     C75955   9.629   7.313  -0.083 -0.0337  0.5184  0.2578
  576MOL0     C75956   9.563   7.204  -0.138 -0.4309 -0.1097  0.0743
  576MOL0     C75957   9.452   7.219  -0.220 -0.2107 -0.8322 -0.3245
  576MOL0     O75958   9.395   7.105  -0.254 -0.5188 -0.2789  0.4092
  576MOL0     C75959   9.282   7.105  -0.347 -0.7763 -0.6149 -0.9346
  576MOL0     C75960   9.234   6.967  -0.383 -0.0081 -0.8073  0.4611
  576MOL0     C75961   9.180   6.896  -0.254 -0.1709  0.2327 -0.3450
  576MOL0     C75962   9.115   6.756  -0.294 -0.5332 -0.2531 -0.1441
  576MOL0     C75963   9.010   6.722  -0.194 -1.1376 -0.1666 -0.5243
  576MOL0     C75964   8.919   6.697  -0.117  0.8230  1.0106  0.0093
  576MOL0     C75965   9.398   7.347  -0.239 -0.1617  0.4883 -0.2517
  576MOL0     C75966   9.458   7.458  -0.181  0.3802 -0.2619 -0.1720
  576MOL0     H75967   9.589   7.902  -0.051  0.5402  2.1554  0.2865
  576MOL0     H75968   9.682   8.073   0.087 -2.3604 -1.0869 -2.2703
  576MOL0     H75969   9.759   7.961   0.543  2.3280 -3.5678 -0.2048
  576MOL0     H75970   9.840   8.119   0.531 -1.1966 -0.9642  0.9109
  576MOL0     H75971   9.913   7.847   0.433 -0.6994 -0.6080 -0.0643
  576MOL0     H75972  10.002   7.954   0.550  1.2122 -0.9094 -0.6617
  576MOL0     H75973  10.043   8.112   0.371 -0.9880  0.7053  0.9236
  576MOL0     H75974   9.972   8.011   0.255  1.0222  0.4494 -1.9754
  576MOL0     H75975  10.188   7.864   0.410 -1.4128 -0.1876  0.5234
  576MOL0     H75976  10.170   7.879   0.243 -2.6381 -1.0485  0.3184
  576MOL0     H75977  10.382   8.000   0.321  1.8695  1.6687 -2.2969
  576MOL0     H75978  10.284   8.112   0.422 -2.2635  1.2341 -1.0299
  576MOL0     H75979  10.177   8.180   0.177  0.6683  4.2497  1.0924
  576MOL0     H75980  10.301   8.072   0.112  2.2240 -0.5858  0.7350
  576MOL0     H75981  10.351   8.305   0.306 -3.5326  0.2601 -0.9718
  576MOL0     H75982  10.476   8.231   0.190  0.5904 -1.3264  1.2975
  576MOL0     H75983  10.332   8.329   0.003  2.6556  1.7162 -1.3465
  576MOL0     H75984  10.415   8.444   0.118  0.6263 -1.3454  1.9884
  576MOL0     H75985  10.053   8.349  -0.025  2.1586 -0.7660  0.8940
  576MOL0     H75986   9.832   8.501  -0.021  1.8118 -1.3424  0.9290
  576MOL0     H75987   9.825   8.627   0.098 -0.4976 -0.0127 -3.3356
  576MOL0     H75988   9.762   8.481   0.283 -0.4843  1.2921 -0.0857
  576MOL0     H75989   9.816   8.340   0.199 -2.3869 -1.3674  1.0043
  576MOL0     H75990   9.643   8.358   0.025  0.1421  0.0624  0.1190
  576MOL0     H75991   9.575   8.328   0.194 -0.0041 -0.0417  0.6355
  576MOL0     H75992   9.581   8.575   0.028  0.4760 -1.5484  0.1180
  576MOL0     H75993   9.555   8.578   0.207 -3.0166  0.1015 -0.1174
  576MOL0     H75994   9.163   8.498  -0.008 -1.4959 -0.1859 -0.5233
  576MOL0     H75995   9.057   8.684  -0.104  0.6852 -1.0512  0.4880
  576MOL0     H75996   9.039   9.295   0.097  1.5247 -0.7451  0.0064
  576MOL0     H75997   8.926   9.491   0.003  2.3211  3.2940 -1.1404
  576MOL0     H75998   8.695   9.482  -0.161  0.7373 -2.3397 -0.3938
  576MOL0     H75999   8.718   9.469  -0.339 -1.3689  1.0784  0.7692
  576MOL0     H76000   8.732   9.730  -0.206 -0.6767 -0.4790  1.1666
  576MOL0     H76001   8.580   9.660  -0.248  0.9604  1.2505  4.2612
  576MOL0     H76002   8.665   9.625  -0.483 -0.9470 -0.7054  0.6819
  576MOL0     H76003   8.814   9.711  -0.452 -0.2161  1.1416  1.2734
  576MOL0     H76004   8.647   9.853  -0.574 -0.3785 -0.3989 -0.5172
  576MOL0     H76005   8.554   9.839  -0.424  1.1038 -0.1851  0.4694
  576MOL0     H76006   8.791   9.927  -0.305  0.4970  3.7717  0.3080
  576MOL0     H76007   8.692  10.050  -0.386  0.6381  0.0859  1.6587
  576MOL0     H76008   8.841   9.983  -0.587 -0.7348  3.6791 -0.6043
  576MOL0     H76009   8.949   9.928  -0.450  1.2495  0.5155 -0.9651
  576MOL0     H76010   8.863  10.224  -0.507 -1.9433 -1.5616  0.2592
  576MOL0     H76011   8.930  10.180  -0.353 -0.5339  2.2040 -0.5655
  576MOL0     H76012   9.132  10.260  -0.474  0.7748  0.3261 -0.4435
  576MOL0     H76013   9.080  10.176  -0.611  2.5653 -0.2449  0.1153
  576MOL0     H76014   9.006   9.348  -0.386  0.0798 -4.8525 -0.3679
  576MOL0     H76015   9.113   9.144  -0.300 -0.5080  1.0998 -2.3725
  576MOL0     H76016   9.371   8.943   0.036 -1.5933  1.1500 -0.7947
  576MOL0     H76017   9.464   8.758   0.142  1.6771 -2.6040 -1.0689
  576MOL0     H76018   9.665   7.820   0.428 -0.9806  0.5275 -0.3723
  576MOL0     H76019   9.579   7.625   0.272 -4.5564  1.8229  2.4919
  576MOL0     H76020   9.710   7.284  -0.017 -1.8535  0.1735  2.4571
  576MOL0     H76021   9.594   7.101  -0.123 -2.9471 -0.5842  2.9861
  576MOL0     H76022   9.314   7.154  -0.440 -2.0527  0.7098 -0.7092
  576MOL0     H76023   9.192   7.158  -0.315  0.4544  2.5179 -2.2358
  576MOL0     H76024   9.148   6.974  -0.451  1.2861  1.7459 -1.0560
  576MOL0     H76025   9.315   6.908  -0.427  0.0467 -0.1458 -0.3462
  576MOL0     H76026   9.101   6.956  -0.208  1.0399  1.6087 -0.0130
  576MOL0     H76027   9.259   6.872  -0.183 -0.3557 -1.7154 -0.7401
  576MOL0     H76028   9.066   6.763  -0.391 -0.2773  0.4350 -0.2289
  576MOL0     H76029   9.195   6.682  -0.293 -0.0365  0.2732 -0.1033
  576MOL0     H76030   8.837   6.686  -0.049 -0.1185  4.2472 -0.4469
  576MOL0     H76031   9.307   7.360  -0.296 -0.8500 -1.3736  0.3395
  576MOL0     H76032   9.406   7.549  -0.209 -2.0547 -1.0607  1.3866
  577MOL0     O76033   8.383   0.486   4.837  0.1251 -0.3834 -0.9091
  577MOL0     C76034   8.274   0.444   4.809  0.4734  0.8332 -0.4161
  577MOL0     O76035   8.149   0.491   4.838  0.3931 -0.5316 -0.1778
  577MOL0     C76036   8.153   0.587   4.935  1.0173  0.1914 -0.4971
  577MOL0     C76037   8.190   0.718   4.900  0.7593  0.4404 -0.8238
  577MOL0     C76038   8.179   0.826   4.996  0.7566 -0.6006  0.6711
  577MOL0     C76039   8.107   0.803   5.110 -0.7368  0.6669 -0.4214
  577MOL0     O76040   8.082   0.913   5.195 -0.3211  0.4655 -0.0420
  577MOL0     C76041   8.109   0.891   5.331 -0.0244 -0.2735 -0.0521
  577MOL0     C76042   8.108   1.030   5.383  0.0928 -0.3806 -0.2259
  577MOL0     C76043   7.982   1.087   5.432  0.8529 -0.6996  0.4813
  577MOL0     C76044   7.954   1.048   5.575  0.2398  0.1813 -0.2008
  577MOL0     C76045   7.805   1.075   5.605 -0.9822  0.7463 -0.0866
  577MOL0     C76046   7.769   1.101   5.743  0.5271  0.5039 -0.0108
  577MOL0     C76047   7.764   0.975   5.833 -0.3533  0.4002  1.3885
  577MOL0     C76048   7.755   1.014   5.979 -0.4818  0.0571  0.3017
  577MOL0     N76049   7.777   0.897   6.067 -0.6437 -0.1527  0.4541
  577MOL0     C76050   7.892   0.809   6.063 -0.3002 -0.3489 -0.1254
  577MOL0     C76051   7.901   0.744   6.186  0.0791  0.2049  0.7059
  577MOL0     C76052   8.014   0.659   6.233  0.3571  0.1038 -0.2029
  577MOL0     C76053   7.980   0.559   6.346 -0.7065  0.7233  0.0145
  577MOL0     C76054   8.042   0.413   6.335 -0.4893  0.6010  0.1477
  577MOL0     C76055   8.199   0.416   6.315  1.2327 -0.3952  0.1732
  577MOL0     O76056   8.231   0.294   6.249  0.5134  0.8074 -1.7913
  577MOL0     C76057   8.369   0.260   6.248 -0.3293  0.7295 -0.0402
  577MOL0     C76058   8.406   0.161   6.338  0.1652  0.3188  0.0996
  577MOL0     C76059   8.534   0.119   6.348 -1.0536 -0.3525  0.4082
  577MOL0     C76060   8.638   0.172   6.274 -0.0661  0.7196 -0.7809
  577MOL0     C76061   8.776   0.122   6.281  0.5400 -0.2968 -0.1777
  577MOL0     O76062   8.806   0.032   6.382 -0.6687 -0.2726 -0.2365
  577MOL0     C76063   8.929  -0.035   6.389  0.0333  0.7239 -0.3450
  577MOL0     C76064   9.038   0.024   6.455 -0.8407 -0.4607 -0.2934
  577MOL0     C76065   9.156  -0.043   6.477 -0.5378 -0.4319  0.1168
  577MOL0     C76066   9.174  -0.175   6.423  0.5175  0.7368 -0.8419
  577MOL0     O76067   9.304  -0.217   6.438  0.6101  0.2286 -0.0285
  577MOL0     C76068   9.331  -0.360   6.431 -0.0051 -0.2879 -0.2706
  577MOL0     C76069   9.474  -0.379   6.469 -0.0996 -0.0837  0.4817
  577MOL0     C76070   9.497  -0.529   6.424 -0.1153  0.3290 -0.9090
  577MOL0     C76071   9.639  -0.567   6.464 -0.1842  0.6026 -0.6201
  577MOL0     C76072   9.688  -0.708   6.408  0.1484 -0.3734 -0.2976
  577MOL0     C76073   9.807  -0.752   6.498 -0.3472  0.4847  0.3770
  577MOL0     C76074   9.873  -0.864   6.417  0.1350 -1.1485  0.6556
  577MOL0     C76075   9.993  -0.933   6.488  0.3229 -0.3278  0.5584
  577MOL0    Cl76076  10.142  -0.831   6.527 -0.4702 -0.3946  0.4982
  577MOL0     C76077   9.072  -0.240   6.349  0.7086 -0.4660 -0.9949
  577MOL0     C76078   8.947  -0.169   6.343  0.4678 -0.1965  0.0408
  577MOL0     O76079   8.856   0.159   6.198  0.1269 -0.2941  0.1715
  577MOL0     C76080   8.605   0.278   6.185 -0.3961 -0.2504  0.0515
  577MOL0     C76081   8.473   0.328   6.184  0.5406 -0.0574  0.0205
  577MOL0     N76082   7.786   0.785   6.245  0.0628  0.3136 -0.4326
  577MOL0     N76083   7.707   0.864   6.183  0.6096  0.6648  0.5667
  577MOL0     C76084   8.082   0.676   5.144 -0.4420 -0.7510  0.0410
  577MOL0     C76085   8.109   0.567   5.058  0.4151  1.1416 -0.1890
  577MOL0     C76086   8.272   0.331   4.716  0.6754  0.6620  0.2586
  577MOL0     C76087   8.387   0.265   4.672 -1.0427  0.6982 -0.0737
  577MOL0     C76088   8.385   0.162   4.576  0.7789  0.0478 -0.1442
  577MOL0     C76089   8.258   0.131   4.529 -0.7393  0.5851 -0.4210
  577MOL0     O76090   8.231   0.034   4.432 -0.2580  0.8287 -0.0545
  577MOL0     C76091   8.340  -0.056   4.387  0.3768 -1.5400  0.4238
  577MOL0     C76092   8.306  -0.083   4.239 -0.2499 -0.0004 -0.2655
  577MOL0     C76093   8.374  -0.213   4.183 -0.8997 -1.0233  0.6921
  577MOL0     C76094   8.300  -0.272   4.059  1.3992 -0.7913  0.5238
  577MOL0     C76095   8.290  -0.173   3.948 -0.4545  0.4554  0.0727
  577MOL0     C76096   8.290  -0.094   3.854  0.4069 -0.0894  0.1417
  577MOL0     C76097   8.145   0.201   4.571  0.4809 -1.1161 -0.2581
  577MOL0     C76098   8.152   0.301   4.652 -0.3259  0.5224 -0.2008
  577MOL0     H76099   8.239   0.741   4.805  2.4853 -1.3073 -0.4164
  577MOL0     H76100   8.216   0.923   4.964 -0.1889 -1.1295 -2.3769
  577MOL0     H76101   8.207   0.845   5.343 -0.6536 -2.6069 -2.7170
  577MOL0     H76102   8.037   0.820   5.373 -1.2733 -0.6762 -2.6629
  577MOL0     H76103   8.148   1.095   5.305 -0.7630  3.0328  1.9769
  577MOL0     H76104   8.182   1.057   5.458  1.0764  0.3283 -1.4140
  577MOL0     H76105   7.892   1.066   5.374  2.1397 -0.6438 -1.6566
  577MOL0     H76106   8.001   1.195   5.425  3.1172 -0.8507  2.6296
  577MOL0     H76107   7.968   0.942   5.598 -3.5360 -0.1035  1.5743
  577MOL0     H76108   8.013   1.115   5.639 -1.0610  1.1379  0.0355
  577MOL0     H76109   7.750   0.991   5.564 -1.3344  1.4758 -1.1676
  577MOL0     H76110   7.774   1.165   5.550 -0.6872  2.0809  1.8350
  577MOL0     H76111   7.669   1.146   5.744  0.3051  0.0273  1.0189
  577MOL0     H76112   7.843   1.173   5.780 -0.4760  1.0683  0.9828
  577MOL0     H76113   7.679   0.922   5.791  2.0705 -1.0816 -2.1387
  577MOL0     H76114   7.850   0.908   5.821 -0.5711  0.3084  0.3217
  577MOL0     H76115   7.660   1.060   6.008 -0.2514 -1.9501  5.2469
  577MOL0     H76116   7.834   1.085   6.006 -1.5328  1.7120 -0.8267
  577MOL0     H76117   7.968   0.821   5.986 -1.0248 -1.6184 -1.0816
  577MOL0     H76118   8.083   0.734   6.274  1.2392 -1.3989  1.2415
  577MOL0     H76119   8.063   0.610   6.148 -1.6284 -0.0686 -1.2930
  577MOL0     H76120   7.871   0.554   6.358 -0.4407 -0.2135  2.5831
  577MOL0     H76121   8.023   0.598   6.438  1.5664 -1.8804  0.1967
  577MOL0     H76122   8.029   0.359   6.429 -1.3982  0.7301  0.0991
  577MOL0     H76123   8.004   0.358   6.248 -1.4493 -0.5193  1.2351
  577MOL0     H76124   8.250   0.426   6.411  0.2563  2.2443  0.5101
  577MOL0     H76125   8.218   0.504   6.252  2.3211 -2.1734 -2.1835
  577MOL0     H76126   8.333   0.106   6.397  0.0115 -0.5601 -0.8834
  577MOL0     H76127   8.557   0.035   6.412 -0.9720 -2.2781 -1.9762
  577MOL0     H76128   9.033   0.128   6.486  2.0489  0.1933 -1.7113
  577MOL0     H76129   9.244   0.006   6.516 -0.4900  1.5050 -2.2184
  577MOL0     H76130   9.305  -0.397   6.331  1.1816 -3.6914  0.5335
  577MOL0     H76131   9.270  -0.417   6.502 -0.4835 -1.1780 -1.3623
  577MOL0     H76132   9.511  -0.348   6.567 -1.5009  1.3016  0.6047
  577MOL0     H76133   9.535  -0.316   6.404  2.7983 -1.1730  1.9951
  577MOL0     H76134   9.476  -0.541   6.317 -4.6964  2.2755 -0.4414
  577MOL0     H76135   9.419  -0.578   6.483  0.4749 -1.0021 -1.2002
  577MOL0     H76136   9.712  -0.495   6.427  2.6934  0.0336  3.3043
  577MOL0     H76137   9.643  -0.563   6.573 -0.5704  0.0463 -0.5801
  577MOL0     H76138   9.722  -0.693   6.305 -0.2246  0.1934 -0.3427
  577MOL0     H76139   9.610  -0.786   6.412 -1.4138  1.1755  1.8324
  577MOL0     H76140   9.756  -0.793   6.586 -2.4558  2.9921  0.4249
  577MOL0     H76141   9.878  -0.670   6.515  0.5864  0.7768 -3.8993
  577MOL0     H76142   9.801  -0.946   6.406 -2.1771  0.5313  2.6100
  577MOL0     H76143   9.895  -0.824   6.318  0.7662  1.5527  1.8145
  577MOL0     H76144  10.020  -1.011   6.417 -2.8904 -1.8321  0.7942
  577MOL0     H76145   9.956  -0.974   6.582  1.5747 -4.4312 -0.5239
  577MOL0     H76146   9.085  -0.342   6.314  1.1404 -0.9359  0.4627
  577MOL0     H76147   8.860  -0.218   6.299  0.5265  0.4300 -0.7959
  577MOL0     H76148   8.684   0.314   6.120  0.6438 -3.0113 -0.3484
  577MOL0     H76149   8.460   0.408   6.111  0.6665 -1.4632 -1.6152
  577MOL0     H76150   8.031   0.647   5.235 -2.4201  1.1510 -0.3812
  577MOL0     H76151   8.074   0.469   5.089 -0.1676  1.4012  0.0044
  577MOL0     H76152   8.486   0.281   4.715  0.5509 -1.9443 -2.4191
  577MOL0     H76153   8.482   0.114   4.565 -0.2516 -1.9291 -1.2411
  577MOL0     H76154   8.356  -0.145   4.449  1.3420 -0.5188  1.6775
  577MOL0     H76155   8.432   0.001   4.378 -0.0403 -1.1257 -1.8792
  577MOL0     H76156   8.197  -0.083   4.235 -0.2930  2.0401 -0.2191
  577MOL0     H76157   8.347  -0.005   4.174 -1.0865  0.0315 -0.7640
  577MOL0     H76158   8.362  -0.290   4.260 -1.3356 -1.2062  0.4440
  577MOL0     H76159   8.480  -0.190   4.169 -0.4624  0.8283  5.2980
  577MOL0     H76160   8.358  -0.357   4.023  1.5897 -1.6149  2.6351
  577MOL0     H76161   8.198  -0.308   4.077  1.0457  0.7638  1.8944
  577MOL0     H76162   8.285  -0.023   3.775  2.4618 -0.0906 -0.0386
  577MOL0     H76163   8.048   0.177   4.529 -0.2622  1.3251 -0.0842
  577MOL0     H76164   8.064   0.361   4.673  0.0171  2.2661 -3.1276
  578MOL0     O76165   4.136   2.243   2.968  0.0623 -0.3024 -0.3585
  578MOL0     C76166   4.037   2.178   3.005  0.1624 -0.3043  0.0434
  578MOL0     O76167   3.916   2.233   3.045 -0.0664 -0.2448  0.3294
  578MOL0     C76168   3.910   2.370   3.056 -0.1927  0.4418  0.4256
  578MOL0     C76169   3.892   2.433   3.175 -0.8395  0.7084  0.1239
  578MOL0     C76170   3.923   2.563   3.191 -0.4981  0.8633 -0.2440
  578MOL0     C76171   3.954   2.644   3.076  0.5695  0.4868  0.7880
  578MOL0     O76172   3.980   2.780   3.083 -0.0502  0.2632 -0.0682
  578MOL0     C76173   4.126   2.793   3.065 -0.8694 -0.4076  0.1331
  578MOL0     C76174   4.158   2.941   3.052 -0.0095  0.5309 -0.3125
  578MOL0     C76175   4.159   3.006   3.189  1.4405  1.2536 -0.5571
  578MOL0     C76176   4.209   3.153   3.173 -0.3503  0.7130 -0.3981
  578MOL0     C76177   4.218   3.224   3.307 -0.3635 -0.6077 -0.5288
  578MOL0     C76178   4.298   3.351   3.295 -0.2943 -0.3334  0.2162
  578MOL0     C76179   4.257   3.485   3.352  0.1460  0.0071  0.4170
  578MOL0     C76180   4.259   3.491   3.509  0.3568  0.2076  0.5856
  578MOL0     N76181   4.184   3.394   3.586 -0.4616  0.5027  0.0523
  578MOL0     C76182   4.046   3.392   3.599  0.3901  0.1599 -0.6714
  578MOL0     C76183   4.020   3.271   3.652  0.2713 -0.0199 -0.8982
  578MOL0     C76184   3.894   3.209   3.700  1.2388 -0.2208  1.2127
  578MOL0     C76185   3.876   3.067   3.632  0.1745 -0.1366  0.9257
  578MOL0     C76186   3.882   3.073   3.482  0.3808 -0.0634  0.1627
  578MOL0     C76187   3.832   2.935   3.416 -0.6424 -0.2943 -0.5432
  578MOL0     O76188   3.735   2.869   3.499 -1.0280  0.4604  0.3319
  578MOL0     C76189   3.695   2.749   3.456  0.1135 -0.7942 -0.2900
  578MOL0     C76190   3.766   2.639   3.499  0.1962  0.2101  0.1801
  578MOL0     C76191   3.719   2.514   3.456 -0.0303 -0.0796 -0.1402
  578MOL0     C76192   3.601   2.493   3.380  0.1491  0.8797  0.3593
  578MOL0     C76193   3.561   2.361   3.331 -0.5740  0.2676 -0.9297
  578MOL0     O76194   3.642   2.266   3.386  0.1212 -0.6379 -0.2936
  578MOL0     C76195   3.648   2.136   3.339 -0.2613 -0.2905 -0.2266
  578MOL0     C76196   3.705   2.046   3.421  0.6478 -0.2478 -0.6593
  578MOL0     C76197   3.720   1.911   3.378 -1.5058 -0.3014 -0.2115
  578MOL0     C76198   3.677   1.861   3.253  0.0330 -1.4992  0.7515
  578MOL0     O76199   3.682   1.729   3.220 -0.9120  0.2579 -0.3033
  578MOL0     C76200   3.603   1.669   3.120 -1.2273  0.3354 -0.2899
  578MOL0     C76201   3.633   1.518   3.115  0.1157 -0.0190 -0.6111
  578MOL0     C76202   3.517   1.443   3.038 -0.0762 -0.9722 -0.5836
  578MOL0     C76203   3.521   1.474   2.886  0.2897  0.7024  0.2962
  578MOL0     C76204   3.449   1.358   2.818 -0.6739  0.5623 -0.8880
  578MOL0     C76205   3.460   1.395   2.666  0.0299  0.6884 -0.3863
  578MOL0     C76206   3.372   1.291   2.586  0.4669  0.7306 -0.3367
  578MOL0     C76207   3.462   1.170   2.546 -0.2928  0.3679 -0.0962
  578MOL0    Cl76208   3.560   1.222   2.404  0.1578  0.1047 -0.2227
  578MOL0     C76209   3.629   1.963   3.166 -0.3803  0.1919 -0.0458
  578MOL0     C76210   3.606   2.097   3.208 -0.6571 -0.2398  0.4718
  578MOL0     O76211   3.457   2.340   3.279  0.4374  0.2239  0.9748
  578MOL0     C76212   3.519   2.600   3.358 -0.2912  0.1035 -0.1695
  578MOL0     C76213   3.572   2.729   3.388  0.2542  0.8655  0.7259
  578MOL0     N76214   4.138   3.194   3.655  0.0126  0.3673 -0.4579
  578MOL0     N76215   4.237   3.273   3.632 -0.3136 -0.4592  0.5864
  578MOL0     C76216   3.951   2.585   2.956  0.1735 -1.0602  1.0025
  578MOL0     C76217   3.923   2.445   2.943  0.6676 -1.2172 -0.1221
  578MOL0     C76218   4.040   2.037   2.977  0.3943 -0.0180 -0.4028
  578MOL0     C76219   3.936   1.947   3.019 -0.2264 -1.1567  1.0014
  578MOL0     C76220   3.937   1.811   2.979 -0.8930 -0.1836 -0.1688
  578MOL0     C76221   4.046   1.759   2.912 -0.0515 -0.0964 -0.1709
  578MOL0     O76222   4.051   1.632   2.877 -0.0541  0.2712 -0.6992
  578MOL0     C76223   3.945   1.581   2.798  0.3790  1.0773  0.3706
  578MOL0     C76224   3.968   1.570   2.649  0.5435  0.4759  0.2391
  578MOL0     C76225   3.838   1.588   2.570 -0.4292  0.6156  0.2718
  578MOL0     C76226   3.809   1.736   2.567 -0.5049 -0.4768 -0.0504
  578MOL0     C76227   3.668   1.756   2.613  0.3142  0.0706 -0.4488
  578MOL0     C76228   3.553   1.776   2.650  0.1736  0.3889  0.1164
  578MOL0     C76229   4.154   1.843   2.884  0.6453 -0.5808 -0.1862
  578MOL0     C76230   4.154   1.985   2.914 -0.4079  0.7295 -0.5794
  578MOL0     H76231   3.875   2.368   3.261  3.3062 -1.4271 -0.3852
  578MOL0     H76232   3.929   2.591   3.296 -2.9312 -2.7568  1.0338
  578MOL0     H76233   4.164   2.749   2.972 -2.5327  0.0344 -0.8170
  578MOL0     H76234   4.175   2.748   3.151 -0.1837 -0.2369 -0.1593
  578MOL0     H76235   4.084   2.987   2.985  0.1971  0.7798 -0.3717
  578MOL0     H76236   4.255   2.959   3.004  3.2818 -1.8233  4.6524
  578MOL0     H76237   4.223   2.942   3.250  0.3099  0.9023  0.3179
  578MOL0     H76238   4.060   3.003   3.237  2.4301  0.1364  1.5664
  578MOL0     H76239   4.307   3.154   3.126  1.0341 -0.0066  2.2442
  578MOL0     H76240   4.142   3.212   3.111 -3.2598  0.8415  2.5628
  578MOL0     H76241   4.250   3.152   3.383 -0.6018  1.8712  2.0914
  578MOL0     H76242   4.120   3.256   3.346 -0.7418  0.5612 -2.3214
  578MOL0     H76243   4.318   3.372   3.190 -3.1241  3.6096  0.2215
  578MOL0     H76244   4.396   3.326   3.338 -0.0314  0.2250 -0.0498
  578MOL0     H76245   4.309   3.570   3.307 -2.5655 -0.5840 -4.6275
  578MOL0     H76246   4.152   3.493   3.324  0.4507  1.8538 -0.3510
  578MOL0     H76247   4.238   3.592   3.547  0.4487  0.2261  0.5889
  578MOL0     H76248   4.364   3.472   3.536  0.7912  1.1998 -0.3165
  578MOL0     H76249   3.969   3.462   3.569 -1.9864 -1.9481  0.1200
  578MOL0     H76250   3.810   3.279   3.689  0.9100 -0.7301  0.3344
  578MOL0     H76251   3.904   3.182   3.806  1.8434  0.4125  1.3208
  578MOL0     H76252   3.781   3.023   3.664  0.7085 -1.7082  0.4539
  578MOL0     H76253   3.951   3.001   3.677  0.8392 -2.0500 -2.6284
  578MOL0     H76254   3.812   3.148   3.447 -1.3236 -1.7993 -0.3320
  578MOL0     H76255   3.982   3.094   3.442 -0.4728  4.0219 -0.2446
  578MOL0     H76256   3.925   2.882   3.394  2.5763  4.0710  1.1903
  578MOL0     H76257   3.788   2.959   3.319 -2.1519  1.9555  0.5929
  578MOL0     H76258   3.856   2.649   3.558  1.2139  0.3492 -1.3553
  578MOL0     H76259   3.773   2.422   3.477  0.2775 -0.4686 -2.3462
  578MOL0     H76260   3.729   2.089   3.518  0.3758 -0.8096 -0.3409
  578MOL0     H76261   3.774   1.843   3.444  1.3150  0.5497 -1.4665
  578MOL0     H76262   3.634   1.704   3.021  3.8026 -2.2154  0.0404
  578MOL0     H76263   3.496   1.681   3.140 -0.9607 -1.0384  2.5143
  578MOL0     H76264   3.657   1.472   3.211  1.4471  1.7326 -0.0502
  578MOL0     H76265   3.727   1.509   3.059  0.7541  0.5255  0.3434
  578MOL0     H76266   3.422   1.464   3.088 -0.5187  1.0839 -2.1826
  578MOL0     H76267   3.536   1.337   3.059 -0.7059 -0.2699  4.8958
  578MOL0     H76268   3.469   1.570   2.875  0.9375  0.9580 -0.7146
  578MOL0     H76269   3.624   1.491   2.853  0.6010  2.4107  1.9839
  578MOL0     H76270   3.346   1.353   2.856 -0.3814 -0.9859 -0.2376
  578MOL0     H76271   3.492   1.259   2.833 -0.7620  0.4661 -1.2642
  578MOL0     H76272   3.563   1.395   2.629  0.5253  1.3464  0.9165
  578MOL0     H76273   3.419   1.496   2.677  3.4118  2.1942 -0.1706
  578MOL0     H76274   3.296   1.259   2.658  0.4982  1.8335  0.2098
  578MOL0     H76275   3.336   1.346   2.499 -0.6719  4.8131  2.4348
  578MOL0     H76276   3.408   1.080   2.514  2.0237  0.1785 -4.1360
  578MOL0     H76277   3.524   1.156   2.634 -0.0379  1.1285 -0.1502
  578MOL0     H76278   3.600   1.934   3.065 -1.2048 -0.7532  0.4469
  578MOL0     H76279   3.582   2.175   3.137  1.2640  0.5544  0.6392
  578MOL0     H76280   3.426   2.582   3.304 -1.4430  3.1954  0.5992
  578MOL0     H76281   3.512   2.819   3.374  0.3007  0.9071  0.7898
  578MOL0     H76282   3.983   2.642   2.869  3.6723 -3.8337  0.2501
  578MOL0     H76283   3.919   2.404   2.842 -2.5691  0.0542 -0.6247
  578MOL0     H76284   3.853   1.974   3.083 -1.3094 -1.9152 -0.0516
  578MOL0     H76285   3.861   1.745   3.022  0.0606 -1.1238  0.1104
  578MOL0     H76286   3.847   1.629   2.805 -0.8498 -1.1034 -0.6928
  578MOL0     H76287   3.918   1.488   2.848  0.3693  0.6915 -0.3391
  578MOL0     H76288   4.043   1.642   2.616  1.7532  0.2027  2.2361
  578MOL0     H76289   4.017   1.474   2.632  0.7873  0.7327 -0.5809
  578MOL0     H76290   3.769   1.519   2.622  0.0690 -0.2399 -0.1821
  578MOL0     H76291   3.836   1.553   2.467 -1.0675 -1.3314  0.8931
  578MOL0     H76292   3.872   1.792   2.637 -3.7286  1.2093  1.7652
  578MOL0     H76293   3.808   1.784   2.469  2.9142  3.5781  1.5649
  578MOL0     H76294   3.458   1.796   2.695  1.4890  2.1077  2.3461
  578MOL0     H76295   4.229   1.789   2.828 -0.7538 -1.7175 -1.0293
  578MOL0     H76296   4.238   2.046   2.881  1.9373 -2.5541 -1.2823
  579MOL0     O76297   4.513   5.859   1.725 -0.5704 -0.0824 -0.7516
  579MOL0     C76298   4.435   5.921   1.650  0.0133 -0.2969 -0.3674
  579MOL0     O76299   4.431   6.052   1.631 -0.5525 -0.6554 -0.7447
  579MOL0     C76300   4.531   6.121   1.694  0.1524 -0.1517  0.8698
  579MOL0     C76301   4.510   6.153   1.831  0.1172 -0.5067 -0.4263
  579MOL0     C76302   4.607   6.233   1.902 -0.1200  0.0517  0.5218
  579MOL0     C76303   4.726   6.270   1.838 -0.1234 -0.1691 -0.0870
  579MOL0     O76304   4.835   6.333   1.896 -0.0923 -0.2437  0.2906
  579MOL0     C76305   4.875   6.278   2.021 -1.0206 -0.0099 -0.4301
  579MOL0     C76306   5.022   6.297   2.063  0.6456 -0.4390 -0.5155
  579MOL0     C76307   5.117   6.256   1.953  0.0474  0.4839  0.0159
  579MOL0     C76308   5.259   6.256   2.004 -0.5813  0.1284  0.3138
  579MOL0     C76309   5.305   6.129   2.079  0.5098  0.3365  0.2425
  579MOL0     C76310   5.453   6.130   2.106  0.6347 -0.0991  0.5695
  579MOL0     C76311   5.477   5.994   2.185 -0.0159 -0.2175  0.3622
  579MOL0     C76312   5.621   5.990   2.236 -0.3297  0.8070  0.8129
  579MOL0     N76313   5.645   5.862   2.308  0.0161  0.0268 -0.0271
  579MOL0     C76314   5.621   5.848   2.435 -0.0801  0.0470 -1.2117
  579MOL0     C76315   5.630   5.712   2.468 -0.2520 -0.2120 -0.7621
  579MOL0     C76316   5.600   5.646   2.597  0.0327 -0.4835  0.7748
  579MOL0     C76317   5.731   5.617   2.666 -0.5775 -1.2250 -0.2599
  579MOL0     C76318   5.826   5.735   2.682 -0.3911 -0.8910 -1.2490
  579MOL0     C76319   5.946   5.689   2.747 -0.5107 -0.5878 -0.1226
  579MOL0     O76320   6.032   5.801   2.773  0.0778  0.5486 -0.0594
  579MOL0     C76321   6.154   5.772   2.832 -0.0189 -0.5962 -0.1831
  579MOL0     C76322   6.228   5.663   2.789 -0.3207  1.3682 -0.0259
  579MOL0     C76323   6.334   5.621   2.873 -0.3850  1.6498  0.3872
  579MOL0     C76324   6.373   5.690   2.986 -0.3241  0.2077  0.1751
  579MOL0     C76325   6.486   5.637   3.059 -0.3446  0.6932  0.5454
  579MOL0     O76326   6.584   5.580   2.982 -0.1666 -0.1791 -0.3125
  579MOL0     C76327   6.705   5.530   3.043 -0.0975  0.6604  0.2086
  579MOL0     C76328   6.704   5.456   3.165  0.7828 -0.3279  0.3747
  579MOL0     C76329   6.826   5.396   3.212 -0.7954  0.4489 -0.1007
  579MOL0     C76330   6.947   5.414   3.132 -0.2600 -0.1613  0.4356
  579MOL0     O76331   7.076   5.383   3.167 -0.1791  0.0963  0.1308
  579MOL0     C76332   7.087   5.291   3.283  0.1812 -0.6452 -0.5556
  579MOL0     C76333   7.237   5.268   3.296  0.1253 -0.5087 -0.0708
  579MOL0     C76334   7.315   5.388   3.360 -0.4772 -0.7283 -1.1121
  579MOL0     C76335   7.462   5.352   3.390 -0.9479 -0.5762  0.1684
  579MOL0     C76336   7.547   5.453   3.474 -0.1925  0.7693  0.1350
  579MOL0     C76337   7.516   5.463   3.624 -0.0111  0.0870  0.7997
  579MOL0     C76338   7.604   5.556   3.709  0.4255 -0.2130 -0.0805
  579MOL0     C76339   7.753   5.538   3.685  0.2450 -0.1904  0.4212
  579MOL0    Cl76340   7.827   5.623   3.825 -0.4098 -0.0211  0.2995
  579MOL0     C76341   6.939   5.487   3.011 -0.0676 -0.0950 -0.7104
  579MOL0     C76342   6.824   5.551   2.974 -0.5267 -0.3917 -1.0513
  579MOL0     O76343   6.492   5.664   3.178 -0.7334  0.2895  0.1210
  579MOL0     C76344   6.297   5.803   3.015 -0.4191 -0.1675  0.5060
  579MOL0     C76345   6.195   5.848   2.937  0.5522  0.2347  0.2161
  579MOL0     N76346   5.664   5.652   2.343 -0.3825  0.1478  0.1705
  579MOL0     N76347   5.669   5.740   2.253  0.5717 -0.3731  0.9078
  579MOL0     C76348   4.748   6.241   1.703  0.5252  0.2570  0.4852
  579MOL0     C76349   4.647   6.171   1.627 -0.1221 -0.4633 -0.3637
  579MOL0     C76350   4.319   5.846   1.596 -0.4232  0.2048 -1.2460
  579MOL0     C76351   4.214   5.913   1.537 -0.8715 -0.1513 -0.1693
  579MOL0     C76352   4.098   5.838   1.506  0.6087  0.0323 -0.7863
  579MOL0     C76353   4.090   5.704   1.528  0.7871  0.2608 -0.3864
  579MOL0     O76354   3.971   5.644   1.491  0.5600  0.6030  0.2395
  579MOL0     C76355   3.948   5.515   1.552 -0.1635  0.2080 -0.2079
  579MOL0     C76356   3.809   5.470   1.519  0.7203 -0.5707 -0.1581
  579MOL0     C76357   3.787   5.466   1.367  0.5275  0.0134 -0.5541
  579MOL0     C76358   3.656   5.388   1.348  1.2727 -0.3230  0.4742
  579MOL0     C76359   3.602   5.398   1.213  1.2021 -0.1761  0.0227
  579MOL0     C76360   3.542   5.391   1.109  0.4176 -0.1297  0.2382
  579MOL0     C76361   4.200   5.642   1.581 -0.6596 -0.3678 -0.0461
  579MOL0     C76362   4.316   5.708   1.612 -0.3864 -0.1753 -0.0889
  579MOL0     H76363   4.424   6.110   1.882 -2.0128  0.1297 -3.2376
  579MOL0     H76364   4.598   6.239   2.010  4.3524 -1.0533  1.1528
  579MOL0     H76365   4.874   6.169   2.027 -1.0792  0.0537  1.4815
  579MOL0     H76366   4.807   6.308   2.102  0.7453  2.1281  0.3666
  579MOL0     H76367   5.045   6.246   2.157  1.7048 -0.4466 -0.7644
  579MOL0     H76368   5.025   6.404   2.085 -3.9924 -0.2777  0.4482
  579MOL0     H76369   5.109   6.321   1.866 -0.6863 -1.2416 -1.2663
  579MOL0     H76370   5.087   6.154   1.929 -0.2119  0.6487 -0.3631
  579MOL0     H76371   5.332   6.267   1.923  0.4403 -3.6039  0.5242
  579MOL0     H76372   5.275   6.346   2.064  1.8531 -0.6735  0.9826
  579MOL0     H76373   5.286   6.042   2.015  0.9675 -0.9298  1.7732
  579MOL0     H76374   5.241   6.114   2.166  3.1664 -0.2890  2.2314
  579MOL0     H76375   5.480   6.215   2.170  3.3650  0.5683 -1.2673
  579MOL0     H76376   5.503   6.134   2.009  0.7011  2.7495  0.6145
  579MOL0     H76377   5.395   5.985   2.257  0.1063  0.9127  0.6618
  579MOL0     H76378   5.460   5.914   2.113 -0.6232  0.5486 -0.3591
  579MOL0     H76379   5.668   6.072   2.291  0.2750  0.3225  1.0181
  579MOL0     H76380   5.686   5.972   2.149  1.1401  2.4315  1.5122
  579MOL0     H76381   5.597   5.923   2.510 -1.9051  0.5245 -2.1944
  579MOL0     H76382   5.537   5.557   2.585  2.6462 -2.2875 -0.7212
  579MOL0     H76383   5.548   5.723   2.654 -3.4318 -2.3203  0.3400
  579MOL0     H76384   5.778   5.533   2.614  0.4078 -2.0622  1.8549
  579MOL0     H76385   5.711   5.592   2.771 -1.2989  1.4843  0.3066
  579MOL0     H76386   5.857   5.779   2.587  2.4620 -1.1816 -0.5452
  579MOL0     H76387   5.780   5.810   2.746  0.6613 -2.1313  1.1046
  579MOL0     H76388   5.997   5.621   2.678  0.7021 -0.8929  1.0296
  579MOL0     H76389   5.918   5.636   2.838  0.3512 -1.7689 -0.5250
  579MOL0     H76390   6.198   5.602   2.704  1.0918 -0.9843  1.0906
  579MOL0     H76391   6.387   5.530   2.848 -2.1931  0.3828  0.9528
  579MOL0     H76392   6.611   5.447   3.219  0.0175  2.0322 -0.4593
  579MOL0     H76393   6.824   5.347   3.308  1.2435  0.5440  0.0160
  579MOL0     H76394   7.027   5.203   3.261 -0.2943 -0.2017 -1.0843
  579MOL0     H76395   7.041   5.336   3.372 -0.5352 -0.6530 -0.9176
  579MOL0     H76396   7.280   5.247   3.198 -1.1659 -2.0465 -0.3561
  579MOL0     H76397   7.267   5.187   3.364  1.7261  1.4144  1.6300
  579MOL0     H76398   7.273   5.411   3.459  2.6212  0.7025  0.0101
  579MOL0     H76399   7.331   5.488   3.318  1.2818  2.1108  5.0327
  579MOL0     H76400   7.462   5.249   3.425 -0.2394 -1.4224 -2.1320
  579MOL0     H76401   7.505   5.352   3.289 -0.1179 -0.8032  0.5119
  579MOL0     H76402   7.540   5.553   3.429  1.5132  1.1821  0.7130
  579MOL0     H76403   7.653   5.427   3.467 -0.4216  0.0234 -0.6525
  579MOL0     H76404   7.507   5.360   3.661  0.8934 -0.3133 -0.0549
  579MOL0     H76405   7.418   5.509   3.636 -0.0970  0.3265 -0.6885
  579MOL0     H76406   7.588   5.661   3.684  3.2258 -0.0596 -1.6333
  579MOL0     H76407   7.582   5.541   3.815 -0.0713  0.8939 -0.0197
  579MOL0     H76408   7.785   5.580   3.590 -3.2545  0.3321 -0.6424
  579MOL0     H76409   7.786   5.434   3.693  1.2446 -0.1414 -2.2215
  579MOL0     H76410   7.037   5.508   2.970  1.1869  1.0090  2.5552
  579MOL0     H76411   6.827   5.607   2.881 -1.4817  1.1052 -0.2188
  579MOL0     H76412   6.335   5.869   3.092 -2.0218  1.8119 -0.3056
  579MOL0     H76413   6.144   5.938   2.968  1.4746  1.2854 -1.2206
  579MOL0     H76414   4.844   6.269   1.661  0.5453 -1.2506 -0.5571
  579MOL0     H76415   4.659   6.148   1.522 -0.6402  0.6501 -0.6817
  579MOL0     H76416   4.206   6.021   1.528  3.1698  0.2468 -0.7536
  579MOL0     H76417   4.009   5.881   1.460  0.7201  1.4489  0.2786
  579MOL0     H76418   3.954   5.509   1.661 -0.0560 -1.7963 -0.2723
  579MOL0     H76419   4.023   5.449   1.507  2.0398  3.1045 -1.0350
  579MOL0     H76420   3.795   5.370   1.561  4.1029 -1.6168 -1.1976
  579MOL0     H76421   3.735   5.539   1.561  0.1180  0.1864 -2.3269
  579MOL0     H76422   3.865   5.402   1.323  0.1279 -0.5235 -0.4952
  579MOL0     H76423   3.784   5.569   1.330  0.5059  0.6065  1.0301
  579MOL0     H76424   3.654   5.281   1.371  0.9194 -0.4109  0.0617
  579MOL0     H76425   3.578   5.428   1.413 -1.2969 -3.6535 -0.2301
  579MOL0     H76426   3.484   5.393   1.019  2.5093  2.6503 -1.2082
  579MOL0     H76427   4.203   5.534   1.588  1.4174 -0.3710 -0.5513
  579MOL0     H76428   4.406   5.664   1.655 -0.4824 -0.0817  0.2061
  580MOL0     O76429   0.667   2.731   9.097  0.7018  0.6378  0.1721
  580MOL0     C76430   0.617   2.829   9.163 -0.3279  0.4775  0.1381
  580MOL0     O76431   0.676   2.896   9.270  0.8334  0.0329  0.2968
  580MOL0     C76432   0.806   2.881   9.287  0.0602 -0.5067 -0.2126
  580MOL0     C76433   0.867   2.755   9.286 -1.1869 -0.1225 -0.5026
  580MOL0     C76434   1.007   2.747   9.301  0.0773  0.0589  0.9626
  580MOL0     C76435   1.083   2.870   9.309 -0.8171  0.3669 -0.9759
  580MOL0     O76436   1.219   2.883   9.311  0.1925 -0.0201  0.6731
  580MOL0     C76437   1.305   2.775   9.352 -0.7317  0.5684 -0.3470
  580MOL0     C76438   1.441   2.800   9.289 -0.4454  0.9230 -0.8920
  580MOL0     C76439   1.508   2.920   9.351 -0.8546  1.3081  0.0982
  580MOL0     C76440   1.624   2.951   9.255 -1.1110 -0.7861  0.4644
  580MOL0     C76441   1.703   3.072   9.273 -0.2071 -0.6255 -0.2656
  580MOL0     C76442   1.784   3.073   9.406  0.2578 -0.0440 -0.3996
  580MOL0     C76443   1.856   3.205   9.411 -0.0950 -0.1300  0.0681
  580MOL0     C76444   1.919   3.230   9.551 -0.0195  0.8850 -0.1988
  580MOL0     N76445   2.022   3.334   9.556 -0.1060  0.5338  0.1736
  580MOL0     C76446   2.142   3.331   9.490  0.7002 -0.2651 -0.1893
  580MOL0     C76447   2.211   3.436   9.535  0.2348 -0.1373  0.1316
  580MOL0     C76448   2.344   3.472   9.473 -0.3756 -0.6418  1.0900
  580MOL0     C76449   2.472   3.483   9.550 -0.5657  0.0877 -0.1911
  580MOL0     C76450   2.527   3.344   9.584 -1.2641  0.7523 -0.3026
  580MOL0     C76451   2.450   3.283   9.699  0.2652  0.3729 -0.3601
  580MOL0     O76452   2.436   3.377   9.809 -0.2667 -0.0562  0.5554
  580MOL0     C76453   2.363   3.345   9.920 -0.6683 -0.1363 -0.4652
  580MOL0     C76454   2.352   3.442  10.025  1.1656  0.1300 -0.3254
  580MOL0     C76455   2.278   3.416  10.136  1.0618  0.3353  0.8318
  580MOL0     C76456   2.198   3.303  10.152  0.7814  0.3158  0.1720
  580MOL0     C76457   2.091   3.282  10.261 -0.0187  0.7779  0.0450
  580MOL0     O76458   2.073   3.389  10.344 -0.3946 -0.2578 -0.5315
  580MOL0     C76459   1.979   3.375  10.452 -0.2394  0.7643  0.0627
  580MOL0     C76460   2.021   3.306  10.567 -0.6687 -0.1384 -0.1653
  580MOL0     C76461   1.942   3.264  10.667 -0.0827 -0.9721 -0.8468
  580MOL0     C76462   1.804   3.299  10.660  0.0270 -0.2398  1.1222
  580MOL0     O76463   1.710   3.266  10.747  0.7695 -0.0985 -0.0502
  580MOL0     C76464   1.746   3.191  10.852  0.9688  0.5883  0.2708
  580MOL0     C76465   1.627   3.127  10.921  0.1600 -0.1087  1.0703
  580MOL0     C76466   1.669   3.066  11.050  0.1407  0.2267 -0.0573
  580MOL0     C76467   1.558   2.980  11.114  0.3309  0.5717 -0.0241
  580MOL0     C76468   1.434   3.053  11.152 -0.6502  0.3826 -1.1022
  580MOL0     C76469   1.372   2.983  11.283 -0.0500 -0.0497  0.2639
  580MOL0     C76470   1.251   3.075  11.322 -0.3571  0.0089  0.1892
  580MOL0     C76471   1.168   3.032  11.442  0.1107  0.5903 -0.7527
  580MOL0    Cl76472   1.269   3.071  11.579  0.4971  0.3613 -0.6384
  580MOL0     C76473   1.755   3.365  10.539 -0.6437 -0.1255 -0.3753
  580MOL0     C76474   1.841   3.404  10.439 -0.9178 -0.0849 -0.5084
  580MOL0     O76475   2.017   3.178  10.265  0.6980 -0.4400  0.5616
  580MOL0     C76476   2.194   3.215  10.038 -0.7242  1.5081  0.5296
  580MOL0     C76477   2.290   3.227   9.934 -0.0268 -0.7551 -0.0035
  580MOL0     N76478   2.131   3.512   9.623  0.7010 -0.5831  1.1608
  580MOL0     N76479   2.017   3.448   9.638  0.2908 -0.2253 -0.3353
  580MOL0     C76480   1.015   2.991   9.315  0.1911  0.0052  1.7241
  580MOL0     C76481   0.880   2.994   9.306  0.5985 -0.1460 -0.0154
  580MOL0     C76482   0.489   2.885   9.122  0.1107  0.7460 -0.8088
  580MOL0     C76483   0.418   2.820   9.021  0.5027 -0.1967 -0.5645
  580MOL0     C76484   0.293   2.870   8.992 -0.1474  0.2624 -0.0141
  580MOL0     C76485   0.235   2.972   9.060 -0.6207 -0.3881 -0.2507
  580MOL0     O76486   0.116   3.032   9.032  0.4812  0.0281  0.0548
  580MOL0     C76487   0.058   3.016   8.900  0.6244  0.8825  0.0867
  580MOL0     C76488  -0.030   3.135   8.870  0.8228 -0.3874 -0.7108
  580MOL0     C76489  -0.136   3.160   8.987 -0.2202  0.2671  0.2568
  580MOL0     C76490  -0.251   3.236   8.930  0.6913  0.3501  0.1067
  580MOL0     C76491  -0.215   3.369   8.884 -0.9994 -0.7936  0.3498
  580MOL0     C76492  -0.179   3.482   8.860 -0.3031 -0.8632  0.2768
  580MOL0     C76493   0.308   3.030   9.169 -1.1425 -0.5719 -0.6274
  580MOL0     C76494   0.437   2.989   9.194 -0.6010 -0.0703 -0.3173
  580MOL0     H76495   0.807   2.664   9.285 -0.2557 -0.7526 -0.4695
  580MOL0     H76496   1.058   2.652   9.293  0.1664  0.1328  0.6575
  580MOL0     H76497   1.256   2.684   9.318 -1.1412  0.4652  0.4828
  580MOL0     H76498   1.306   2.784   9.461 -0.5220  0.1084 -0.3101
  580MOL0     H76499   1.416   2.808   9.183 -1.7368 -2.0352 -0.9287
  580MOL0     H76500   1.502   2.710   9.305 -1.3532  0.6067  1.2060
  580MOL0     H76501   1.534   2.879   9.449 -1.9089  0.8187  0.1888
  580MOL0     H76502   1.445   3.010   9.353 -3.8625 -0.6187 -1.0275
  580MOL0     H76503   1.697   2.874   9.230  1.1096  1.3278  0.1343
  580MOL0     H76504   1.582   2.962   9.154  4.3044  1.1250 -1.9381
  580MOL0     H76505   1.640   3.162   9.276 -0.5164 -0.8611  0.8054
  580MOL0     H76506   1.768   3.089   9.187 -1.9762  3.3023 -1.0760
  580MOL0     H76507   1.851   2.986   9.407 -1.9775 -1.8857 -1.0343
  580MOL0     H76508   1.713   3.079   9.489 -0.1985  1.0674 -0.8512
  580MOL0     H76509   1.939   3.208   9.341  0.4528  3.6425  0.6542
  580MOL0     H76510   1.791   3.285   9.375  0.6293  0.9645  1.1006
  580MOL0     H76511   1.973   3.140   9.583  2.1725  1.0245 -3.0940
  580MOL0     H76512   1.838   3.256   9.620 -1.2120 -1.4238 -0.6491
  580MOL0     H76513   2.178   3.268   9.410 -0.6509  1.5319 -2.3417
  580MOL0     H76514   2.331   3.575   9.436 -0.3770 -0.9969  0.0888
  580MOL0     H76515   2.361   3.405   9.389  0.1254 -0.8789  1.3774
  580MOL0     H76516   2.472   3.552   9.635  0.1551 -0.4782  0.2862
  580MOL0     H76517   2.537   3.534   9.477 -1.3980  2.1072  0.4193
  580MOL0     H76518   2.520   3.283   9.493 -0.2001 -1.5255  1.0350
  580MOL0     H76519   2.630   3.341   9.621 -1.5697  2.0989  0.7267
  580MOL0     H76520   2.494   3.185   9.722  1.5695  1.1311  0.5015
  580MOL0     H76521   2.347   3.258   9.671  0.1395  0.5398 -0.0570
  580MOL0     H76522   2.384   3.546  10.027 -1.9147  1.1935  0.4394
  580MOL0     H76523   2.282   3.495  10.211  5.8742  2.0188 -0.8395
  580MOL0     H76524   2.129   3.301  10.577  0.1726  1.4964 -5.2821
  580MOL0     H76525   1.992   3.228  10.756  2.4755 -0.1631 -1.8649
  580MOL0     H76526   1.794   3.252  10.929  1.1084 -0.8997  1.3950
  580MOL0     H76527   1.815   3.110  10.829  0.0746 -0.3765  0.9013
  580MOL0     H76528   1.594   3.056  10.845  0.1055 -0.5654  1.5196
  580MOL0     H76529   1.554   3.202  10.952  1.4923  0.6398  2.5162
  580MOL0     H76530   1.686   3.155  11.112  0.0632  1.2998 -1.5419
  580MOL0     H76531   1.757   3.010  11.019 -1.3166 -1.0869 -2.1153
  580MOL0     H76532   1.536   2.907  11.035  2.0214  0.3526 -0.3386
  580MOL0     H76533   1.594   2.923  11.200 -2.1397  1.0580  1.4180
  580MOL0     H76534   1.359   3.037  11.074 -2.0254  1.7412 -0.1192
  580MOL0     H76535   1.449   3.156  11.185  0.2112 -0.0668 -0.0268
  580MOL0     H76536   1.437   2.974  11.371 -3.6674  1.6166  3.4072
  580MOL0     H76537   1.341   2.879  11.271  2.1355 -1.1296  2.8545
  580MOL0     H76538   1.280   3.180  11.328  1.7254 -0.5569  1.1140
  580MOL0     H76539   1.193   3.054  11.232  1.2483 -3.1316 -0.3001
  580MOL0     H76540   1.141   2.927  11.450  3.2327 -0.2724  0.1942
  580MOL0     H76541   1.080   3.096  11.439  0.9118  1.8601  0.7596
  580MOL0     H76542   1.648   3.376  10.531 -0.3046  2.8086 -2.7764
  580MOL0     H76543   1.819   3.455  10.345  1.9782  1.9780 -0.1825
  580MOL0     H76544   2.130   3.127  10.033  0.1030  0.8914  0.5316
  580MOL0     H76545   2.297   3.143   9.866 -2.1917 -0.6114 -0.4760
  580MOL0     H76546   1.069   3.086   9.312  1.3232 -0.6484 -0.1972
  580MOL0     H76547   0.843   3.096   9.299  1.6680  0.4403  2.1276
  580MOL0     H76548   0.462   2.739   8.964  1.6340  0.7009 -1.0204
  580MOL0     H76549   0.233   2.814   8.921 -0.1494 -0.2169  0.3554
  580MOL0     H76550   0.003   2.922   8.909  0.4230  0.9162 -0.6579
  580MOL0     H76551   0.125   2.995   8.816 -0.3103 -1.2867 -0.1662
  580MOL0     H76552   0.033   3.222   8.847 -2.0031  1.8448 -0.4536
  580MOL0     H76553  -0.084   3.115   8.777  0.5062  2.0586 -1.1203
  580MOL0     H76554  -0.085   3.205   9.073 -0.7107  0.6994  0.3289
  580MOL0     H76555  -0.174   3.064   9.023  4.3650 -2.6328 -1.7446
  580MOL0     H76556  -0.301   3.174   8.854 -0.6021  0.6239  0.7158
  580MOL0     H76557  -0.324   3.246   9.011 -2.7541  0.7491 -2.8024
  580MOL0     H76558  -0.146   3.574   8.817 -1.1463 -0.6372  0.0955
  580MOL0     H76559   0.265   3.104   9.235 -0.3081 -1.6505  1.2068
  580MOL0     H76560   0.490   3.048   9.268  1.8747  0.1591 -2.1402
  581MOL0     O76561  10.562   5.079  10.245 -0.0329 -0.1147  0.7730
  581MOL0     C76562  10.566   5.072  10.368  0.5928  0.4464 -0.2034
  581MOL0     O76563  10.534   5.178  10.451 -0.9602  0.5447  0.0135
  581MOL0     C76564  10.519   5.295  10.386 -0.8512  0.1626  0.2998
  581MOL0     C76565  10.396   5.327  10.323 -0.7141  0.3509 -0.4390
  581MOL0     C76566  10.376   5.453  10.270  0.3331  0.4408 -0.2953
  581MOL0     C76567  10.476   5.545  10.259 -0.6705  0.1444  0.2127
  581MOL0     O76568  10.446   5.666  10.197  0.0474 -0.8084 -0.1343
  581MOL0     C76569  10.534   5.774  10.226  0.8049 -0.6740 -0.1132
  581MOL0     C76570  10.487   5.916  10.169  0.8054  1.0286 -0.7195
  581MOL0     C76571  10.374   5.979  10.257  0.5251  0.4917  0.7424
  581MOL0     C76572  10.329   6.116  10.216 -0.0524 -0.2223 -0.4654
  581MOL0     C76573  10.236   6.123  10.092 -0.4822 -0.3560 -1.0926
  581MOL0     C76574  10.202   6.273  10.061 -0.2085 -0.3571 -0.0297
  581MOL0     C76575  10.117   6.298   9.931 -0.1531  0.2347  0.0732
  581MOL0     C76576  10.190   6.291   9.799 -0.4602 -0.9009 -0.7561
  581MOL0     N76577  10.089   6.347   9.702  0.2591  0.1904  0.4448
  581MOL0     C76578   9.994   6.269   9.643  0.2974 -0.0868 -0.2708
  581MOL0     C76579   9.923   6.348   9.549 -0.4104  0.2006  0.0787
  581MOL0     C76580   9.820   6.293   9.452  0.7230  0.0705 -0.3134
  581MOL0     C76581   9.765   6.417   9.380  0.6537  0.1967 -0.6787
  581MOL0     C76582   9.665   6.373   9.277 -0.7903  0.1122  0.0310
  581MOL0     C76583   9.587   6.493   9.236 -0.6896  0.5173  0.4471
  581MOL0     O76584   9.528   6.468   9.110 -0.0605 -0.9573  0.2403
  581MOL0     C76585   9.392   6.462   9.101 -0.7984 -0.4000  0.6544
  581MOL0     C76586   9.317   6.402   9.206 -0.4345  0.7587  0.6741
  581MOL0     C76587   9.175   6.395   9.199 -0.0598 -0.1519 -0.4166
  581MOL0     C76588   9.106   6.439   9.085 -0.1854 -0.0517  0.3059
  581MOL0     C76589   8.956   6.445   9.069 -0.7924 -0.1327 -0.6701
  581MOL0     O76590   8.896   6.370   9.165 -0.1193 -0.3308 -0.4194
  581MOL0     C76591   8.761   6.369   9.177 -0.2588  0.2217  0.3370
  581MOL0     C76592   8.671   6.472   9.128 -0.1878 -0.2508  0.2919
  581MOL0     C76593   8.533   6.464   9.164 -0.5730  0.9457 -0.2801
  581MOL0     C76594   8.484   6.357   9.245  0.0432 -1.0462 -0.0224
  581MOL0     O76595   8.349   6.348   9.267  0.7322 -0.4125  0.2940
  581MOL0     C76596   8.297   6.273   9.370 -0.2090  0.7251 -0.5256
  581MOL0     C76597   8.143   6.261   9.363 -1.0804  0.3109 -0.0262
  581MOL0     C76598   8.063   6.378   9.418 -0.2768 -0.4412  0.2654
  581MOL0     C76599   7.918   6.337   9.455  0.1057 -0.8325 -0.1047
  581MOL0     C76600   7.828   6.325   9.329  1.1483  0.1762  0.4174
  581MOL0     C76601   7.712   6.244   9.381 -0.0127 -0.4077 -0.1500
  581MOL0     C76602   7.641   6.188   9.256  0.3361  0.2572 -0.8549
  581MOL0     C76603   7.494   6.154   9.285 -0.0477 -0.3966  0.1876
  581MOL0    Cl76604   7.476   6.000   9.363 -0.2145 -0.0039  0.3164
  581MOL0     C76605   8.577   6.256   9.292 -0.2577  0.1961  0.2494
  581MOL0     C76606   8.719   6.273   9.269  0.2514  1.1518  0.1470
  581MOL0     O76607   8.913   6.491   8.967  0.2812 -0.1966  0.0872
  581MOL0     C76608   9.182   6.493   8.985 -0.2316 -0.8419 -0.2890
  581MOL0     C76609   9.315   6.515   8.992 -0.6929  0.1836 -0.6262
  581MOL0     N76610   9.981   6.474   9.557  0.0669 -0.1870  0.4935
  581MOL0     N76611  10.080   6.470   9.644  0.4817 -0.5648  0.1097
  581MOL0     C76612  10.606   5.503  10.298 -0.7970 -0.7606 -0.5633
  581MOL0     C76613  10.620   5.383  10.369  0.0061 -0.2848 -0.7892
  581MOL0     C76614  10.607   4.940  10.432  1.2898 -0.5432  0.6974
  581MOL0     C76615  10.595   4.938  10.572  0.8208  0.2187 -0.5773
  581MOL0     C76616  10.639   4.829  10.646 -0.4846  0.0870 -0.7174
  581MOL0     C76617  10.700   4.722  10.573 -0.5686 -0.2574  0.2891
  581MOL0     O76618  10.755   4.615  10.646 -0.8240  0.1817  0.1031
  581MOL0     C76619  10.859   4.533  10.580 -0.1090 -0.5084  0.2477
  581MOL0     C76620  10.924   4.448  10.696 -0.3077  0.5306 -0.2254
  581MOL0     C76621  11.027   4.520  10.786  0.1956 -0.6935  0.1202
  581MOL0     C76622  11.089   4.423  10.882 -1.0739 -0.8010 -0.2498
  581MOL0     C76623  11.138   4.495  11.005 -0.0645  0.9804  0.6947
  581MOL0     C76624  11.170   4.545  11.114  0.1159  0.0542 -0.4055
  581MOL0     C76625  10.715   4.732  10.432  0.3131  0.3551  0.2146
  581MOL0     C76626  10.675   4.834  10.359  0.1488 -0.4445  0.4615
  581MOL0     H76627  10.311   5.260  10.326  0.1836 -0.8922 -1.2494
  581MOL0     H76628  10.286   5.479  10.216  0.5749  0.2277 -0.8037
  581MOL0     H76629  10.634   5.760  10.184  0.8819  0.4655 -0.3459
  581MOL0     H76630  10.550   5.781  10.334 -0.4362  0.8297  0.0022
  581MOL0     H76631  10.449   5.908  10.067 -0.5296 -0.9885 -0.1209
  581MOL0     H76632  10.579   5.975  10.160  1.4864  0.4210  1.5303
  581MOL0     H76633  10.401   5.989  10.363  2.4049 -0.6723  0.4368
  581MOL0     H76634  10.284   5.918  10.248 -1.3223  3.2682 -0.8520
  581MOL0     H76635  10.291   6.174  10.301  2.5838  0.7620  0.1270
  581MOL0     H76636  10.422   6.160  10.181 -0.9585 -0.2652 -3.1373
  581MOL0     H76637  10.149   6.060  10.109  0.8721 -1.5459  2.4043
  581MOL0     H76638  10.298   6.076  10.016  1.6233 -0.3598  0.5301
  581MOL0     H76639  10.299   6.324  10.054  0.3684 -1.2935  0.8782
  581MOL0     H76640  10.144   6.321  10.140  0.1241  0.6158 -0.3683
  581MOL0     H76641  10.034   6.231   9.956 -0.6716  1.4708  1.8690
  581MOL0     H76642  10.092   6.404   9.940  0.2250  0.1988  2.2057
  581MOL0     H76643  10.225   6.190   9.774  2.1392 -0.3278  0.2573
  581MOL0     H76644  10.273   6.362   9.793 -0.8514 -0.3574  0.1287
  581MOL0     H76645   9.987   6.162   9.655  3.0514 -0.0462  3.8081
  581MOL0     H76646   9.748   6.247   9.520  0.9407 -0.1091 -0.2019
  581MOL0     H76647   9.862   6.215   9.388 -4.9906 -2.7525 -1.2385
  581MOL0     H76648   9.846   6.475   9.334  1.8081 -1.5210 -0.9015
  581MOL0     H76649   9.714   6.480   9.454  1.2494 -2.8215  2.5771
  581MOL0     H76650   9.722   6.323   9.198 -0.9870  1.1582 -0.7814
  581MOL0     H76651   9.601   6.293   9.315  0.0642 -1.1114 -1.0100
  581MOL0     H76652   9.651   6.581   9.232 -1.5212  1.2319  2.1948
  581MOL0     H76653   9.512   6.524   9.310  1.6438 -0.1773  3.2479
  581MOL0     H76654   9.368   6.375   9.298  2.5180 -1.3127 -1.3994
  581MOL0     H76655   9.117   6.355   9.282 -0.1138  1.5318  0.4068
  581MOL0     H76656   8.701   6.554   9.062 -1.0571 -1.7406 -2.0886
  581MOL0     H76657   8.478   6.548   9.122  1.6795  1.5290 -2.2862
  581MOL0     H76658   8.325   6.318   9.466 -0.3833 -0.4549  0.0957
  581MOL0     H76659   8.328   6.168   9.367  0.8108  1.0193 -0.8444
  581MOL0     H76660   8.125   6.176   9.430 -1.3427  0.4070  0.0247
  581MOL0     H76661   8.112   6.237   9.261 -1.5599 -2.7945  0.7228
  581MOL0     H76662   8.056   6.458   9.344 -0.8251 -0.6546  0.0819
  581MOL0     H76663   8.108   6.429   9.504 -3.9170 -1.0623  2.7317
  581MOL0     H76664   7.923   6.250   9.520 -0.1292 -0.2899  0.6495
  581MOL0     H76665   7.888   6.425   9.512  0.2567  0.7378 -2.3048
  581MOL0     H76666   7.883   6.287   9.242 -0.2587 -1.4224  0.1829
  581MOL0     H76667   7.788   6.425   9.313 -0.1166 -0.4764 -0.6641
  581MOL0     H76668   7.656   6.319   9.438  2.0560  1.9138 -0.9951
  581MOL0     H76669   7.741   6.166   9.452 -0.0850 -1.8905 -1.6668
  581MOL0     H76670   7.637   6.267   9.180  0.5390  1.6779  0.5446
  581MOL0     H76671   7.695   6.102   9.216 -3.5787 -1.8193 -2.1916
  581MOL0     H76672   7.442   6.150   9.189  1.3319  1.5423 -0.7189
  581MOL0     H76673   7.443   6.233   9.341 -1.0028 -0.0152 -1.1452
  581MOL0     H76674   8.540   6.180   9.359 -0.2064 -1.0843 -1.1146
  581MOL0     H76675   8.792   6.208   9.318 -0.8130  1.0715  1.7130
  581MOL0     H76676   9.129   6.525   8.896 -0.2221  1.7803  0.5550
  581MOL0     H76677   9.348   6.573   8.907  1.4161 -0.0774 -0.0661
  581MOL0     H76678  10.689   5.569  10.278  0.1219 -1.9549 -0.7831
  581MOL0     H76679  10.714   5.347  10.412 -1.5394 -0.2961  2.9564
  581MOL0     H76680  10.546   5.007  10.641  0.2019 -2.6383  2.0496
  581MOL0     H76681  10.641   4.831  10.754 -0.1142  3.3874 -0.6910
  581MOL0     H76682  10.935   4.594  10.530  1.1939 -3.2884 -1.4058
  581MOL0     H76683  10.818   4.473  10.499 -0.8609  2.6052 -1.8381
  581MOL0     H76684  10.839   4.414  10.754  0.1968  0.1346  0.2875
  581MOL0     H76685  10.976   4.367  10.643 -2.6438  0.2188 -2.2135
  581MOL0     H76686  10.970   4.599  10.837  0.8905 -0.3019  0.2987
  581MOL0     H76687  11.108   4.570  10.733 -0.1992  0.6441  0.7253
  581MOL0     H76688  11.021   4.347  10.923 -1.5171 -0.1335  0.2647
  581MOL0     H76689  11.163   4.371  10.820  0.4400  2.8626 -1.7907
  581MOL0     H76690  11.196   4.594  11.206  2.9310 -0.1413 -0.9988
  581MOL0     H76691  10.760   4.655  10.371 -1.0998 -0.2254 -0.1334
  581MOL0     H76692  10.704   4.844  10.255  1.8040 -3.5177  0.5056
  582MOL0     O76693   9.052   6.188   5.061 -0.9156 -0.6006  0.0731
  582MOL0     C76694   9.063   6.161   5.179  0.6534 -0.9853  0.8210
  582MOL0     O76695   8.964   6.166   5.271 -0.8131  0.5049  0.3027
  582MOL0     C76696   8.840   6.191   5.232  0.4004 -0.3763  0.8783
  582MOL0     C76697   8.786   6.325   5.232  1.0216  0.2746  0.3699
  582MOL0     C76698   8.650   6.353   5.201  0.4190 -0.8736  0.2085
  582MOL0     C76699   8.567   6.251   5.149 -0.0677  0.0591  0.0504
  582MOL0     O76700   8.439   6.265   5.103 -0.5865 -0.1548  0.5440
  582MOL0     C76701   8.366   6.368   5.164 -1.0391 -0.2881  0.6790
  582MOL0     C76702   8.219   6.337   5.132 -0.4045  0.0839  0.5556
  582MOL0     C76703   8.198   6.333   4.978  0.3642 -0.8759 -0.1496
  582MOL0     C76704   8.053   6.321   4.920 -0.2863 -0.5858 -1.0621
  582MOL0     C76705   8.003   6.180   4.916  0.3612  0.8721  0.0246
  582MOL0     C76706   7.851   6.177   4.884 -0.3536  0.0513  0.1997
  582MOL0     C76707   7.809   6.034   4.869  0.5400  0.6711  0.0118
  582MOL0     C76708   7.656   6.025   4.840 -0.7677 -0.6184 -0.4053
  582MOL0     N76709   7.607   5.890   4.857 -0.1360  0.7372  0.0946
  582MOL0     C76710   7.663   5.772   4.904  0.1056  0.2455  0.0723
  582MOL0     C76711   7.562   5.687   4.896  1.0140  0.2288  0.4639
  582MOL0     C76712   7.553   5.558   4.971 -0.2879  0.8757 -0.0283
  582MOL0     C76713   7.688   5.477   4.968 -0.5101 -0.2699 -0.1380
  582MOL0     C76714   7.734   5.418   4.828  0.3657  0.6858  0.1959
  582MOL0     C76715   7.832   5.512   4.761 -0.2369 -0.2651  1.2839
  582MOL0     O76716   7.838   5.462   4.634 -0.7815 -0.1590  0.4766
  582MOL0     C76717   7.744   5.505   4.536  1.0499  0.1038 -0.4847
  582MOL0     C76718   7.657   5.618   4.538 -0.3458  0.5895  0.2558
  582MOL0     C76719   7.556   5.635   4.443 -0.2608 -0.3435 -0.3849
  582MOL0     C76720   7.550   5.550   4.331  0.5319 -0.1571  0.1888
  582MOL0     C76721   7.455   5.576   4.222  0.5244  0.1268 -0.6046
  582MOL0     O76722   7.356   5.664   4.250 -0.1766  0.6181 -0.6634
  582MOL0     C76723   7.249   5.680   4.164 -0.4148 -0.2792  0.0417
  582MOL0     C76724   7.215   5.589   4.059 -0.2843  0.4501 -0.6837
  582MOL0     C76725   7.113   5.625   3.964  0.8096 -0.0105 -0.1115
  582MOL0     C76726   7.054   5.757   3.967  0.1377 -0.6935 -0.5099
  582MOL0     O76727   6.964   5.781   3.874  0.0835 -0.3887 -0.5217
  582MOL0     C76728   6.858   5.873   3.907 -0.7644 -0.7606  1.0085
  582MOL0     C76729   6.800   5.915   3.775  0.5724  0.7154 -0.6232
  582MOL0     C76730   6.670   5.987   3.796 -0.1831 -0.8807 -0.3028
  582MOL0     C76731   6.618   6.018   3.654  0.4432  0.2172 -1.3412
  582MOL0     C76732   6.472   6.046   3.658  0.2192 -0.6196  0.2949
  582MOL0     C76733   6.406   6.105   3.537 -0.7587  0.2738 -0.5814
  582MOL0     C76734   6.409   6.010   3.413 -0.4910  0.5100  0.2615
  582MOL0     C76735   6.275   5.939   3.380  1.2876  0.3840  0.7852
  582MOL0    Cl76736   6.166   6.067   3.332  0.1244 -0.1977  0.6373
  582MOL0     C76737   7.083   5.833   4.082 -0.1162 -0.2413  1.1103
  582MOL0     C76738   7.179   5.802   4.170 -0.0506 -0.5599  0.1490
  582MOL0     O76739   7.468   5.514   4.118  0.0480  0.0012  0.6472
  582MOL0     C76740   7.646   5.450   4.322  0.0833  0.2309 -0.3415
  582MOL0     C76741   7.732   5.419   4.427 -0.3747  0.5827 -0.2744
  582MOL0     N76742   7.445   5.741   4.842  0.2487 -0.0308 -0.3057
  582MOL0     N76743   7.471   5.860   4.823 -0.1395 -0.3163 -0.0526
  582MOL0     C76744   8.624   6.116   5.157 -0.1313  0.0242 -0.0116
  582MOL0     C76745   8.753   6.081   5.198  0.3424  0.1402  0.3715
  582MOL0     C76746   9.202   6.129   5.226 -0.2643 -0.3797  0.3265
  582MOL0     C76747   9.301   6.116   5.127  1.2090  0.2071  0.6497
  582MOL0     C76748   9.430   6.092   5.167  0.1348  0.6629  0.6387
  582MOL0     C76749   9.461   6.082   5.295 -0.5762  0.8373 -0.5829
  582MOL0     O76750   9.588   6.051   5.318 -0.6585  0.5088 -0.0118
  582MOL0     C76751   9.617   5.914   5.325  0.2851 -0.3586  0.3940
  582MOL0     C76752   9.714   5.883   5.210  0.1262 -0.1952  0.6244
  582MOL0     C76753   9.850   5.954   5.232 -0.2233 -0.6865  0.6840
  582MOL0     C76754   9.936   5.921   5.112  0.0775 -0.0156 -0.5467
  582MOL0     C76755  10.061   5.996   5.126  0.1197 -0.4340 -0.7550
  582MOL0     C76756  10.161   6.059   5.134 -0.3477  0.5787 -0.3819
  582MOL0     C76757   9.368   6.097   5.395  0.6064  0.3672 -0.3749
  582MOL0     C76758   9.237   6.121   5.362 -0.2027  0.6817 -0.3970
  582MOL0     H76759   8.858   6.398   5.269  0.2145  1.7628 -0.8721
  582MOL0     H76760   8.620   6.457   5.205  0.0541 -1.0216  2.6312
  582MOL0     H76761   8.407   6.453   5.109 -1.7501 -0.2132  0.2580
  582MOL0     H76762   8.389   6.372   5.271  0.0177  1.9884  0.4263
  582MOL0     H76763   8.153   6.418   5.163 -1.7055  0.9963 -3.8654
  582MOL0     H76764   8.184   6.239   5.166 -2.1460  0.0329 -1.2298
  582MOL0     H76765   8.256   6.254   4.929  1.2968  0.2387 -0.9020
  582MOL0     H76766   8.243   6.426   4.943 -0.9240 -0.3037 -0.3450
  582MOL0     H76767   7.989   6.385   4.982  2.4613  1.3322 -0.0256
  582MOL0     H76768   8.044   6.352   4.816 -0.8838 -0.2157 -0.9060
  582MOL0     H76769   8.014   6.127   5.011 -2.2622 -3.2354 -1.6805
  582MOL0     H76770   8.055   6.125   4.837 -1.2117 -2.4048  1.0955
  582MOL0     H76771   7.824   6.233   4.794  0.9624  0.4852  0.0629
  582MOL0     H76772   7.797   6.226   4.966  0.5383  0.1297  0.7569
  582MOL0     H76773   7.861   5.979   4.790 -1.5618 -1.8813  0.2465
  582MOL0     H76774   7.827   5.981   4.963 -0.8441 -0.8995 -0.5532
  582MOL0     H76775   7.654   6.063   4.737  0.1885  1.7309  0.3956
  582MOL0     H76776   7.593   6.091   4.900 -0.4675 -1.2745  0.6452
  582MOL0     H76777   7.754   5.750   4.959 -1.1748  1.8544  3.0874
  582MOL0     H76778   7.478   5.495   4.924  1.0294  0.8396 -2.2168
  582MOL0     H76779   7.543   5.567   5.080  3.5622  1.8652  0.4035
  582MOL0     H76780   7.682   5.399   5.044  1.2226 -1.4355 -1.1344
  582MOL0     H76781   7.770   5.536   5.010 -1.6558 -0.3517  2.4406
  582MOL0     H76782   7.784   5.324   4.850  2.0093  0.8671 -2.3498
  582MOL0     H76783   7.645   5.403   4.766  0.6287  0.6192 -0.1648
  582MOL0     H76784   7.928   5.521   4.814  0.8600  0.1136 -0.6632
  582MOL0     H76785   7.802   5.617   4.760 -2.7281 -0.8970  2.7694
  582MOL0     H76786   7.662   5.693   4.617 -0.2221 -0.9201  1.7434
  582MOL0     H76787   7.497   5.726   4.439  0.0643 -0.1833 -2.1251
  582MOL0     H76788   7.257   5.490   4.046 -1.8781 -0.3876  0.2048
  582MOL0     H76789   7.084   5.554   3.887  1.0409  0.9084 -1.0772
  582MOL0     H76790   6.876   5.961   3.970  0.0710  0.1744 -0.4743
  582MOL0     H76791   6.781   5.813   3.956  0.1123 -2.5003  0.3313
  582MOL0     H76792   6.762   5.823   3.729  1.0980  1.0246 -1.7218
  582MOL0     H76793   6.878   5.967   3.718  2.7746  0.3623  1.8887
  582MOL0     H76794   6.693   6.081   3.846 -0.9215 -0.4504 -0.7520
  582MOL0     H76795   6.603   5.936   3.866  1.3278 -1.5158  0.7303
  582MOL0     H76796   6.684   6.101   3.627  0.2501  1.3578  1.3600
  582MOL0     H76797   6.634   5.933   3.588  0.9462 -2.0781  1.5192
  582MOL0     H76798   6.467   6.121   3.738  2.8355  0.9285 -0.8640
  582MOL0     H76799   6.430   5.950   3.688  0.7677 -1.1179 -0.4844
  582MOL0     H76800   6.453   6.202   3.518 -2.2798  0.7493 -2.1899
  582MOL0     H76801   6.302   6.128   3.564 -0.4456  2.6380 -1.2080
  582MOL0     H76802   6.443   6.073   3.331  0.6061  0.2943  0.5325
  582MOL0     H76803   6.490   5.938   3.429 -2.5230 -1.6609  1.4348
  582MOL0     H76804   6.236   5.876   3.460  3.0689  1.8801  2.9478
  582MOL0     H76805   6.295   5.877   3.292 -0.4172  0.2970  0.4266
  582MOL0     H76806   7.040   5.931   4.103  0.3924 -0.3624  2.8663
  582MOL0     H76807   7.212   5.873   4.245 -3.6224  1.4706  0.0346
  582MOL0     H76808   7.650   5.395   4.229  2.8179 -0.8383  0.3325
  582MOL0     H76809   7.793   5.330   4.419 -3.6800 -1.7198 -2.6743
  582MOL0     H76810   8.559   6.035   5.126 -0.3054  0.6018 -1.1937
  582MOL0     H76811   8.786   5.978   5.186 -2.9718 -0.8880 -1.1485
  582MOL0     H76812   9.275   6.109   5.021 -0.0311 -2.2380  1.0559
  582MOL0     H76813   9.513   6.071   5.100  0.6345 -1.8233  1.9228
  582MOL0     H76814   9.527   5.853   5.314  0.4202 -1.1291  2.9454
  582MOL0     H76815   9.661   5.898   5.424  1.1775 -0.9564 -0.0824
  582MOL0     H76816   9.706   5.774   5.195  2.0143 -0.4589  1.2994
  582MOL0     H76817   9.673   5.935   5.123 -0.8772 -0.0729  1.1620
  582MOL0     H76818   9.896   5.928   5.328  1.3112 -0.2622  0.0869
  582MOL0     H76819   9.829   6.061   5.233  0.7230 -0.4687 -0.4924
  582MOL0     H76820   9.961   5.815   5.118 -3.0653 -0.8121  0.5563
  582MOL0     H76821   9.889   5.939   5.015 -0.2324  0.2040 -0.3577
  582MOL0     H76822  10.250   6.118   5.130 -0.4787  0.8033 -0.0270
  582MOL0     H76823   9.391   6.074   5.499 -2.7332  1.2512  0.6858
  582MOL0     H76824   9.167   6.141   5.442  2.3494  0.8544  1.9741
  583MOL0     O76825   9.106  11.076   3.791 -0.3841 -0.2919 -0.8830
  583MOL0     C76826   9.173  11.031   3.699  0.0931 -0.4244  0.0119
  583MOL0     O76827   9.257  10.926   3.697 -0.4380  0.1160 -0.2150
  583MOL0     C76828   9.303  10.851   3.804  0.7921  0.1941  0.4874
  583MOL0     C76829   9.296  10.881   3.945  0.7447 -0.7526  0.0582
  583MOL0     C76830   9.333  10.784   4.042  0.3580 -0.4103 -0.2127
  583MOL0     C76831   9.408  10.668   4.007  1.4929  0.6638 -1.2228
  583MOL0     O76832   9.469  10.579   4.100 -0.0401  0.2186 -0.3079
  583MOL0     C76833   9.420  10.578   4.240  0.0964  0.9577 -0.0387
  583MOL0     C76834   9.509  10.479   4.319  1.2678 -0.3986  0.5315
  583MOL0     C76835   9.475  10.470   4.469  0.7342 -0.3699 -0.0772
  583MOL0     C76836   9.596  10.399   4.551 -0.3495 -0.9169  0.1812
  583MOL0     C76837   9.565  10.414   4.696 -0.0397 -0.2775 -0.0734
  583MOL0     C76838   9.679  10.360   4.798  0.5256  0.1437  0.1407
  583MOL0     C76839   9.816  10.418   4.784 -0.5890  0.7832 -0.2691
  583MOL0     C76840   9.909  10.355   4.890  0.6377 -1.3366  0.5354
  583MOL0     N76841  10.055  10.398   4.869 -0.1474  0.5322 -0.7577
  583MOL0     C76842  10.128  10.378   4.753  0.0017  0.2710  0.2811
  583MOL0     C76843  10.259  10.400   4.780 -0.1737 -0.7859  0.1676
  583MOL0     C76844  10.368  10.402   4.682  0.0251 -0.4817  0.0956
  583MOL0     C76845  10.372  10.530   4.606 -0.2577  0.2732 -0.0696
  583MOL0     C76846  10.502  10.537   4.529 -0.1894  0.2820 -0.6402
  583MOL0     C76847  10.475  10.624   4.402 -0.2653  0.3981 -0.3870
  583MOL0     O76848  10.379  10.571   4.304  0.1148 -0.4496  0.3833
  583MOL0     C76849  10.328  10.667   4.220  0.2336 -0.0953 -0.2154
  583MOL0     C76850  10.198  10.639   4.157  0.5238  0.6976  0.1534
  583MOL0     C76851  10.134  10.727   4.074  0.0046 -0.0066 -0.1764
  583MOL0     C76852  10.198  10.847   4.047  0.9828 -0.3445  0.3074
  583MOL0     C76853  10.128  10.938   3.965  0.7549 -0.1246  0.6906
  583MOL0     O76854  10.169  11.070   3.969 -0.3313 -0.0717  0.5170
  583MOL0     C76855  10.123  11.140   3.859  0.2256 -0.4424  0.7404
  583MOL0     C76856  10.213  11.136   3.756 -0.9963 -0.0490  0.1788
  583MOL0     C76857  10.187  11.198   3.637 -0.1647  0.2219  0.2275
  583MOL0     C76858  10.061  11.244   3.605 -0.0229  0.1147 -0.6478
  583MOL0     O76859  10.062  11.311   3.486 -0.4920 -0.4888  0.1159
  583MOL0     C76860   9.937  11.290   3.417  0.3164  0.6457  0.2402
  583MOL0     C76861   9.914  11.407   3.329  0.6235  0.9854  0.2167
  583MOL0     C76862   9.911  11.539   3.409  0.6160 -0.6580  1.4740
  583MOL0     C76863   9.827  11.651   3.335  0.3033  0.2973  0.1344
  583MOL0     C76864   9.870  11.790   3.372 -0.0483 -0.3538 -0.2488
  583MOL0     C76865   9.763  11.884   3.309  1.2536  0.5103  0.0639
  583MOL0     C76866   9.792  12.034   3.300 -1.2213  1.1832 -1.5804
  583MOL0     C76867   9.669  12.117   3.275 -0.5013  0.4814  0.2660
  583MOL0    Cl76868   9.595  12.052   3.129  0.1787  0.0046 -0.0049
  583MOL0     C76869   9.965  11.243   3.706  0.9228  0.0017 -0.5826
  583MOL0     C76870   9.992  11.194   3.836 -0.1384 -0.5406  0.5464
  583MOL0     O76871  10.044  10.894   3.884 -0.2428  0.1323  0.0041
  583MOL0     C76872  10.320  10.882   4.110 -0.8326 -0.3186  0.2222
  583MOL0     C76873  10.386  10.795   4.192  0.2540  0.1292 -0.6257
  583MOL0     N76874  10.268  10.433   4.918 -0.0616  1.0413 -0.6738
  583MOL0     N76875  10.146  10.423   4.961 -0.2815 -0.5561 -0.3394
  583MOL0     C76876   9.426  10.643   3.875  0.3358 -0.4168  0.3611
  583MOL0     C76877   9.356  10.724   3.777 -0.6640 -0.5470  0.1699
  583MOL0     C76878   9.175  11.103   3.563  0.5281  0.0422  0.8662
  583MOL0     C76879   9.092  11.211   3.531  0.6077 -0.1722  0.0286
  583MOL0     C76880   9.103  11.273   3.407 -0.4146  0.1663  0.1251
  583MOL0     C76881   9.184  11.225   3.302  0.3613  0.2973  0.1236
  583MOL0     O76882   9.178  11.286   3.179  0.2339  0.2634 -0.5915
  583MOL0     C76883   9.271  11.255   3.072  0.2616 -0.3162 -0.6164
  583MOL0     C76884   9.216  11.336   2.949  0.2635  0.4556  0.0706
  583MOL0     C76885   9.061  11.318   2.911 -0.5203 -0.8993 -0.2108
  583MOL0     C76886   9.026  11.430   2.813 -0.2291  0.4638  0.1250
  583MOL0     C76887   9.013  11.565   2.863 -0.5021  0.3325 -0.0074
  583MOL0     C76888   9.017  11.661   2.938 -0.7880 -0.2333 -0.0906
  583MOL0     C76889   9.267  11.111   3.331  0.0564 -1.0034  0.2858
  583MOL0     C76890   9.268  11.061   3.460 -0.2306 -0.3238  0.3053
  583MOL0     H76891   9.250  10.976   3.971  1.6031 -0.4431  0.4979
  583MOL0     H76892   9.331  10.808   4.147 -2.0469 -2.6889  0.3684
  583MOL0     H76893   9.322  10.530   4.233 -0.2685  1.8327 -1.3882
  583MOL0     H76894   9.403  10.672   4.293 -1.4146  0.1824  0.9058
  583MOL0     H76895   9.603  10.532   4.303 -0.8196  2.4129 -4.4911
  583MOL0     H76896   9.523  10.384   4.267  2.6569  1.8817 -3.6902
  583MOL0     H76897   9.382  10.414   4.477  0.0637  0.1764 -2.9054
  583MOL0     H76898   9.459  10.572   4.506 -1.4870 -0.9687  0.7863
  583MOL0     H76899   9.603  10.294   4.522 -0.1053 -0.5968 -0.9787
  583MOL0     H76900   9.688  10.452   4.526 -0.6331  0.4399  1.8809
  583MOL0     H76901   9.475  10.358   4.723  0.0705  0.3573  1.8034
  583MOL0     H76902   9.551  10.521   4.716 -1.2795 -0.7924  2.2273
  583MOL0     H76903   9.680  10.251   4.788  1.5824 -0.2961  3.7097
  583MOL0     H76904   9.644  10.395   4.896  0.3611  1.0634 -0.2431
  583MOL0     H76905   9.867  10.401   4.690  3.7980  0.1687  1.9691
  583MOL0     H76906   9.809  10.527   4.793  0.1256  0.8362 -0.2991
  583MOL0     H76907   9.906  10.247   4.872  2.9394 -0.8902 -3.8828
  583MOL0     H76908   9.883  10.384   4.992  2.1524 -1.9475  1.1268
  583MOL0     H76909  10.089  10.334   4.662  0.7056 -3.4514  1.5963
  583MOL0     H76910  10.360  10.318   4.612 -0.3658 -0.6017  0.2796
  583MOL0     H76911  10.463  10.412   4.735 -0.4204  3.4100  0.4126
  583MOL0     H76912  10.390  10.612   4.677 -0.8675  0.5092 -0.1812
  583MOL0     H76913  10.273  10.538   4.560 -0.2389  3.8283  0.1616
  583MOL0     H76914  10.580  10.574   4.595 -2.0805 -2.2810  3.4677
  583MOL0     H76915  10.532  10.436   4.498  1.2737  0.4800  0.0670
  583MOL0     H76916  10.571  10.639   4.351 -1.6637  1.7682 -2.7921
  583MOL0     H76917  10.440  10.723   4.432 -3.7177 -0.9656  0.5730
  583MOL0     H76918  10.167  10.537   4.173  1.2964  0.3133 -0.6831
  583MOL0     H76919  10.052  10.682   4.018  0.7451 -0.9411 -0.5259
  583MOL0     H76920  10.311  11.092   3.773 -2.1400 -2.4880  0.9884
  583MOL0     H76921  10.263  11.195   3.560  0.5849  3.8741  0.6692
  583MOL0     H76922   9.844  11.264   3.470 -1.0559  1.1035 -1.8267
  583MOL0     H76923   9.948  11.206   3.349 -0.6616  2.2101 -1.9872
  583MOL0     H76924   9.817  11.385   3.283  1.0113 -1.1901  0.3358
  583MOL0     H76925   9.999  11.421   3.261  3.9045 -0.1059  3.7432
  583MOL0     H76926  10.017  11.563   3.424  0.6525 -0.9694  1.7407
  583MOL0     H76927   9.871  11.530   3.511 -0.2000  1.7309  1.4415
  583MOL0     H76928   9.835  11.643   3.226 -1.7873 -3.8275  0.0784
  583MOL0     H76929   9.720  11.632   3.349 -0.3471  3.1192 -0.4045
  583MOL0     H76930   9.970  11.816   3.336 -0.3562  0.0661 -0.8210
  583MOL0     H76931   9.880  11.798   3.481 -1.4734  0.1012 -0.1390
  583MOL0     H76932   9.667  11.861   3.357  0.5611 -0.5229 -1.7294
  583MOL0     H76933   9.750  11.845   3.208  5.2037 -3.6028  0.8063
  583MOL0     H76934   9.834  12.067   3.395 -3.2306  0.2042 -0.3004
  583MOL0     H76935   9.869  12.055   3.225  1.0042  1.9090  0.7620
  583MOL0     H76936   9.694  12.222   3.255  1.5927 -0.3474 -1.9938
  583MOL0     H76937   9.595  12.101   3.353  0.8911 -1.3140  1.2937
  583MOL0     H76938   9.873  11.302   3.704 -1.7455 -3.4332  3.3352
  583MOL0     H76939   9.926  11.190   3.922 -1.2216  2.1566 -0.0744
  583MOL0     H76940  10.379  10.973   4.115  0.5798 -1.2580  4.1179
  583MOL0     H76941  10.479  10.821   4.242 -1.3219  1.1859  1.9460
  583MOL0     H76942   9.496  10.563   3.852  1.2967  1.0894 -2.3776
  583MOL0     H76943   9.356  10.692   3.673 -1.4055  1.6211 -0.5521
  583MOL0     H76944   9.019  11.254   3.599  0.0429 -0.8962 -0.1072
  583MOL0     H76945   9.036  11.351   3.372 -1.0423 -1.5802 -2.9479
  583MOL0     H76946   9.271  11.146   3.065  0.7778 -0.3005 -0.8824
  583MOL0     H76947   9.373  11.289   3.090  1.3236 -3.8287  0.7435
  583MOL0     H76948   9.223  11.443   2.972 -2.7361  0.2502  2.5503
  583MOL0     H76949   9.274  11.319   2.858  1.9978  0.8134  1.0510
  583MOL0     H76950   8.998  11.327   3.000  0.0519 -0.5813  0.1663
  583MOL0     H76951   9.038  11.224   2.859  0.9205 -1.7166  0.5726
  583MOL0     H76952   9.086  11.426   2.722  3.0153  0.4599  2.1206
  583MOL0     H76953   8.924  11.418   2.775 -0.7045 -1.1281  1.7531
  583MOL0     H76954   9.020  11.730   3.020  1.0548 -0.2149 -0.1139
  583MOL0     H76955   9.342  11.068   3.264 -0.8782 -2.0951 -0.0836
  583MOL0     H76956   9.334  10.975   3.475 -2.0960 -1.5447  2.2102
  584MOL0     O76957   0.545   9.130   3.746 -0.7332  0.6532 -0.3893
  584MOL0     C76958   0.540   9.052   3.661 -1.0202  0.3471  0.5989
  584MOL0     O76959   0.478   9.072   3.539  0.0773 -0.3660 -0.0032
  584MOL0     C76960   0.441   9.194   3.487  0.6124  0.9592  0.1739
  584MOL0     C76961   0.539   9.288   3.464 -0.7783 -0.3539  0.9167
  584MOL0     C76962   0.506   9.406   3.392 -0.9594 -0.1375  0.3495
  584MOL0     C76963   0.376   9.445   3.364  0.0548 -0.7259  0.3274
  584MOL0     O76964   0.357   9.565   3.300 -0.5266  0.5350 -0.1231
  584MOL0     C76965   0.250   9.645   3.349 -0.1136  0.1009 -0.2038
  584MOL0     C76966   0.288   9.787   3.350 -0.6296 -0.1642  0.0511
  584MOL0     C76967   0.180   9.887   3.410 -0.0373 -0.3181  0.3698
  584MOL0     C76968   0.230  10.028   3.399  0.5602  0.5329  0.3003
  584MOL0     C76969   0.302  10.080   3.527  0.4877 -0.5072 -0.6677
  584MOL0     C76970   0.198  10.085   3.648  0.0231  0.5151  0.0695
  584MOL0     C76971   0.267  10.160   3.765  1.1266 -0.3413 -0.7206
  584MOL0     C76972   0.181  10.137   3.889  0.1757  1.0243 -0.7336
  584MOL0     N76973   0.236  10.199   4.004 -0.0071  0.2913 -0.5051
  584MOL0     C76974   0.269  10.331   4.019 -0.0342 -0.3693  0.0432
  584MOL0     C76975   0.317  10.339   4.146  0.6296  0.0654 -0.3852
  584MOL0     C76976   0.384  10.456   4.213 -0.8371  1.0791  0.1570
  584MOL0     C76977   0.303  10.516   4.331 -0.5902 -0.3270  0.2845
  584MOL0     C76978   0.383  10.601   4.431  1.5855  0.7149  0.4009
  584MOL0     C76979   0.432  10.724   4.369  0.2288 -0.8033 -0.6042
  584MOL0     O76980   0.507  10.789   4.472  0.7527 -0.9452 -0.5512
  584MOL0     C76981   0.439  10.853   4.582  1.3501  0.3111  1.3808
  584MOL0     C76982   0.495  10.863   4.703  0.4560 -1.5367  0.2217
  584MOL0     C76983   0.444  10.921   4.820 -0.2237  0.0613 -0.5315
  584MOL0     C76984   0.311  10.980   4.804  0.2724  0.2092 -0.5030
  584MOL0     C76985   0.252  11.037   4.925 -0.0987 -0.2550 -0.1723
  584MOL0     O76986   0.127  11.100   4.905 -0.1185  0.2786  0.5495
  584MOL0     C76987   0.062  11.132   5.016 -0.0354  0.1021 -0.0562
  584MOL0     C76988   0.050  11.262   5.060  0.2013 -0.2775 -0.1416
  584MOL0     C76989  -0.013  11.296   5.182 -0.0391  0.6596 -0.5037
  584MOL0     C76990  -0.056  11.196   5.271 -0.7809  0.5290 -0.0647
  584MOL0     O76991  -0.092  11.238   5.395 -1.5426  0.3539 -0.2996
  584MOL0     C76992  -0.237  11.235   5.404  0.3501  0.4065  1.5172
  584MOL0     C76993  -0.283  11.270   5.546  0.1173  0.6753 -0.1028
  584MOL0     C76994  -0.242  11.154   5.643 -0.9030 -0.0547 -0.3521
  584MOL0     C76995  -0.276  11.186   5.796  0.5112  0.1498 -0.4110
  584MOL0     C76996  -0.427  11.164   5.816 -0.1402  0.6704 -0.1206
  584MOL0     C76997  -0.466  11.151   5.966 -0.6416 -0.3514 -0.0563
  584MOL0     C76998  -0.611  11.205   5.986 -0.3736 -0.4265  0.5681
  584MOL0     C76999  -0.658  11.177   6.124  0.0276  0.9191 -0.7982
  584MOL0    Cl77000  -0.837  11.207   6.126  0.6555  0.1192  0.1166
  584MOL0     C77001  -0.040  11.060   5.231  0.1153 -0.3080  0.8922
  584MOL0     C77002   0.013  11.029   5.100  0.0878  0.0949 -0.5628
  584MOL0     O77003   0.315  11.034   5.030  0.3027 -0.0700  0.1074
  584MOL0     C77004   0.240  10.956   4.685  0.5302  0.1092  0.4167
  584MOL0     C77005   0.302  10.898   4.575 -0.5081 -0.5778 -0.6287
  584MOL0     N77006   0.298  10.222   4.209 -0.1049  0.6229 -0.1436
  584MOL0     N77007   0.250  10.140   4.125 -0.1496 -0.0152 -0.3689
  584MOL0     C77008   0.282   9.358   3.396  1.1281 -1.1617  0.3755
  584MOL0     C77009   0.311   9.237   3.465 -0.2018 -0.6132 -0.1119
  584MOL0     C77010   0.607   8.923   3.682 -0.2120 -0.0383 -0.6181
  584MOL0     C77011   0.614   8.838   3.577 -0.1836  0.2720  0.5462
  584MOL0     C77012   0.678   8.713   3.581 -0.4720 -0.6926  0.2455
  584MOL0     C77013   0.749   8.674   3.697  0.1538 -1.1630 -0.1836
  584MOL0     O77014   0.835   8.578   3.718  0.6957 -0.0428 -0.2930
  584MOL0     C77015   0.900   8.532   3.600  1.1361 -0.0071  0.5152
  584MOL0     C77016   1.014   8.439   3.632  0.2296  0.1376 -0.3011
  584MOL0     C77017   1.048   8.393   3.483 -0.2602 -0.4736 -0.5269
  584MOL0     C77018   1.194   8.347   3.488 -0.1914 -0.1293  0.3818
  584MOL0     C77019   1.203   8.237   3.571  0.1489 -0.5599 -0.0102
  584MOL0     C77020   1.196   8.143   3.645  0.1116 -0.4359  0.9943
  584MOL0     C77021   0.733   8.757   3.812  0.2376  0.1138  0.3841
  584MOL0     C77022   0.657   8.879   3.806  0.1585  0.1199 -0.7807
  584MOL0     H77023   0.640   9.269   3.501  0.5619 -0.5453 -2.4573
  584MOL0     H77024   0.585   9.475   3.365  0.1028 -1.9293 -1.3863
  584MOL0     H77025   0.223   9.612   3.450 -0.3622 -1.5726 -0.7905
  584MOL0     H77026   0.154   9.628   3.299 -0.4298 -1.9715  0.9994
  584MOL0     H77027   0.312   9.811   3.246  0.0156 -2.0196 -0.2606
  584MOL0     H77028   0.383   9.805   3.400 -0.1521 -0.3557 -0.7658
  584MOL0     H77029   0.158   9.853   3.512 -2.1721 -3.5942 -1.0175
  584MOL0     H77030   0.085   9.875   3.359  1.1606 -1.8262 -1.6624
  584MOL0     H77031   0.305  10.038   3.320 -0.5520 -0.3972 -0.9131
  584MOL0     H77032   0.153  10.100   3.368 -1.3798 -1.4042  0.3867
  584MOL0     H77033   0.349  10.174   3.499  1.5088 -1.2293 -1.4980
  584MOL0     H77034   0.385  10.012   3.548  0.7101 -0.3036 -0.8806
  584MOL0     H77035   0.189   9.982   3.684 -1.5367  0.7521  0.4379
  584MOL0     H77036   0.098  10.120   3.622  0.2283 -0.1808 -1.7749
  584MOL0     H77037   0.367  10.115   3.764  0.1642 -2.6474 -2.8373
  584MOL0     H77038   0.270  10.264   3.729 -1.8058 -0.1100 -0.5421
  584MOL0     H77039   0.187  10.029   3.903  5.3441  0.8938 -1.8585
  584MOL0     H77040   0.076  10.168   3.883 -0.7026 -1.7543 -1.7040
  584MOL0     H77041   0.263  10.412   3.947 -0.0318 -0.7559 -0.3928
  584MOL0     H77042   0.401  10.537   4.142 -1.1604  2.0828  1.1931
  584MOL0     H77043   0.480  10.418   4.250 -0.4829  3.7319  2.2440
  584MOL0     H77044   0.245  10.444   4.389  0.0377  0.0104  1.3505
  584MOL0     H77045   0.231  10.585   4.288 -0.4631 -0.6577 -0.4817
  584MOL0     H77046   0.315  10.632   4.511  0.3736  0.4938 -0.5114
  584MOL0     H77047   0.458  10.535   4.476  0.3006 -0.9735  0.1864
  584MOL0     H77048   0.347  10.779   4.327 -0.6951 -1.8505 -0.1771
  584MOL0     H77049   0.505  10.698   4.292  1.5859 -1.1981  0.7719
  584MOL0     H77050   0.595  10.823   4.714  1.4345  0.9237  1.0783
  584MOL0     H77051   0.500  10.932   4.912 -1.2256  1.1414 -0.0205
  584MOL0     H77052   0.094  11.345   5.007  0.2465 -0.4627 -0.3998
  584MOL0     H77053  -0.023  11.400   5.210 -1.1617  0.4014  0.1361
  584MOL0     H77054  -0.273  11.134   5.381  1.2081 -0.3314  3.2455
  584MOL0     H77055  -0.258  11.317   5.335  0.9543 -0.2726  0.4831
  584MOL0     H77056  -0.391  11.286   5.558 -0.8822 -2.7865 -2.8715
  584MOL0     H77057  -0.237  11.365   5.575 -1.5866  1.1520  1.2707
  584MOL0     H77058  -0.133  11.142   5.643 -0.7188  1.4483 -0.0094
  584MOL0     H77059  -0.289  11.064   5.602 -2.1006  0.5860 -0.4264
  584MOL0     H77060  -0.224  11.114   5.860 -0.9432 -1.2563 -0.7419
  584MOL0     H77061  -0.250  11.287   5.830 -0.3162 -0.3761  1.9887
  584MOL0     H77062  -0.465  11.078   5.759  3.1686 -0.4310 -0.8619
  584MOL0     H77063  -0.461  11.264   5.789  4.1468  3.1379  2.5197
  584MOL0     H77064  -0.384  11.197   6.021 -0.7743  1.0862 -1.0232
  584MOL0     H77065  -0.461  11.045   5.994 -0.8484 -0.1867  0.6127
  584MOL0     H77066  -0.624  11.310   5.961  4.8404  0.6827  1.2539
  584MOL0     H77067  -0.675  11.155   5.913 -2.3341  1.8036  0.6782
  584MOL0     H77068  -0.613  11.243   6.199  2.0053  0.0084 -1.1265
  584MOL0     H77069  -0.635  11.076   6.158 -0.9359  0.5264 -1.2435
  584MOL0     H77070  -0.075  10.990   5.307 -0.2145  0.4205  1.4189
  584MOL0     H77071   0.019  10.927   5.064 -0.4809  0.5192 -1.9100
  584MOL0     H77072   0.144  11.001   4.661  0.6292 -0.7544 -1.8211
  584MOL0     H77073   0.257  10.867   4.481 -0.3243 -2.2668 -0.1841
  584MOL0     H77074   0.179   9.388   3.379  1.0577 -0.9151  1.1850
  584MOL0     H77075   0.228   9.183   3.510  1.1805 -0.0625  3.4586
  584MOL0     H77076   0.564   8.864   3.484  1.9201 -0.8502 -0.9851
  584MOL0     H77077   0.698   8.654   3.493  1.3752 -1.3761  1.0649
  584MOL0     H77078   0.939   8.617   3.544 -1.0506  2.4435  2.4345
  584MOL0     H77079   0.827   8.478   3.540  0.6897  0.4779  0.6049
  584MOL0     H77080   1.090   8.497   3.685  0.2393 -0.1622  0.0178
  584MOL0     H77081   0.972   8.362   3.696 -1.0309  1.0625  0.0186
  584MOL0     H77082   1.033   8.471   3.408  0.1733  0.2043  0.0877
  584MOL0     H77083   0.979   8.311   3.460 -3.2682  1.5941  0.5518
  584MOL0     H77084   1.236   8.313   3.394  0.9562  2.4480 -0.1376
  584MOL0     H77085   1.260   8.432   3.510  1.3089 -0.7828 -1.3374
  584MOL0     H77086   1.190   8.067   3.720 -1.4275 -2.2206 -0.8307
  584MOL0     H77087   0.775   8.729   3.908 -2.9951 -1.7636  1.4187
  584MOL0     H77088   0.661   8.948   3.889  1.6278 -2.3830  1.3830
  585MOL0     O77089   6.952   0.983   5.417  0.3625 -0.1490 -0.4573
  585MOL0     C77090   6.874   1.069   5.372  0.0738  1.2678 -0.2172
  585MOL0     O77091   6.895   1.136   5.263 -0.4227  0.5669 -0.2932
  585MOL0     C77092   7.011   1.130   5.188 -0.7751  0.0970  0.2572
  585MOL0     C77093   7.076   1.247   5.141  0.2083 -0.4501  0.0544
  585MOL0     C77094   7.178   1.242   5.053 -0.5249 -0.1289  0.4002
  585MOL0     C77095   7.225   1.121   5.000  0.6504 -0.1815 -0.0920
  585MOL0     O77096   7.346   1.126   4.927 -0.3398 -0.7573  0.5830
  585MOL0     C77097   7.359   1.033   4.819  0.0898  0.3026 -0.5574
  585MOL0     C77098   7.465   1.063   4.713 -0.9384  0.3912  0.3724
  585MOL0     C77099   7.429   0.998   4.575  0.3957 -0.2000  0.1658
  585MOL0     C77100   7.544   1.008   4.475  0.2497 -0.5580  0.1626
  585MOL0     C77101   7.494   0.936   4.354  0.4015 -0.3321 -0.5702
  585MOL0     C77102   7.597   0.937   4.254  0.5957  0.5067 -0.5416
  585MOL0     C77103   7.546   0.855   4.132  0.0876  0.3653 -1.3612
  585MOL0     C77104   7.632   0.868   4.010  0.1152 -0.3391 -0.4630
  585MOL0     N77105   7.576   0.791   3.896  0.0710 -0.3678  0.6746
  585MOL0     C77106   7.445   0.809   3.845 -0.0116 -0.2375 -0.8821
  585MOL0     C77107   7.425   0.707   3.758 -0.1235  0.9143 -0.1331
  585MOL0     C77108   7.298   0.658   3.696  0.8760 -0.9659  0.1882
  585MOL0     C77109   7.317   0.612   3.555 -0.0569  0.3665  0.5066
  585MOL0     C77110   7.184   0.584   3.475  0.2089  0.9842 -0.2629
  585MOL0     C77111   7.135   0.443   3.478  0.5160 -0.4704 -0.1764
  585MOL0     O77112   7.099   0.406   3.612  0.1569  0.1359 -0.3813
  585MOL0     C77113   7.011   0.294   3.631 -0.3790 -0.0574  0.7320
  585MOL0     C77114   6.985   0.204   3.527  0.2075  1.3219  0.2689
  585MOL0     C77115   6.900   0.093   3.557 -0.3740 -0.2893 -0.1603
  585MOL0     C77116   6.835   0.083   3.677 -0.0949 -0.5075 -0.7572
  585MOL0     C77117   6.750  -0.028   3.704  0.8797  0.8533 -0.2257
  585MOL0     O77118   6.768  -0.144   3.642 -0.2031 -0.0019 -0.5392
  585MOL0     C77119   6.690  -0.253   3.682  0.5804  0.2084 -0.0121
  585MOL0     C77120   6.744  -0.375   3.712  0.7784 -0.3328 -0.8942
  585MOL0     C77121   6.656  -0.490   3.729 -0.7320  0.0584  0.0517
  585MOL0     C77122   6.527  -0.476   3.705  0.6421 -0.0571  0.0170
  585MOL0     O77123   6.450  -0.590   3.713  0.6330 -0.9876  0.0344
  585MOL0     C77124   6.343  -0.598   3.804 -0.7706  0.7950  0.1082
  585MOL0     C77125   6.296  -0.740   3.820  0.6067 -0.9042 -0.1220
  585MOL0     C77126   6.210  -0.784   3.700  0.1426  0.4215  0.1692
  585MOL0     C77127   6.237  -0.938   3.666 -0.4929 -0.8943 -0.1980
  585MOL0     C77128   6.159  -1.009   3.548  0.7408 -0.7763 -0.4770
  585MOL0     C77129   6.015  -1.030   3.602 -0.0994  0.8046  0.4467
  585MOL0     C77130   5.924  -1.117   3.509  0.5266  0.7317 -0.4390
  585MOL0     C77131   5.796  -1.155   3.581 -0.3623 -0.3718  0.1625
  585MOL0    Cl77132   5.691  -1.028   3.642  0.2667 -0.5308 -0.7596
  585MOL0     C77133   6.470  -0.354   3.679  0.4883  0.4150  0.0390
  585MOL0     C77134   6.551  -0.244   3.680  0.2629 -0.4371 -0.1271
  585MOL0     O77135   6.656   0.006   3.775 -0.0259  1.2251 -0.3189
  585MOL0     C77136   6.868   0.170   3.780 -0.5511  0.5691  0.2782
  585MOL0     C77137   6.953   0.271   3.754  0.1473  0.1799  0.3753
  585MOL0     N77138   7.541   0.638   3.750  0.4841 -0.1683 -0.1874
  585MOL0     N77139   7.624   0.678   3.840 -1.1832  0.6400 -0.1926
  585MOL0     C77140   7.159   0.999   5.022  0.7147  0.3331  0.0958
  585MOL0     C77141   7.055   1.002   5.118  0.3919 -0.4097 -1.1750
  585MOL0     C77142   6.765   1.099   5.451  0.6837  0.1675  0.3743
  585MOL0     C77143   6.712   1.006   5.548  0.7671 -0.4487  0.2855
  585MOL0     C77144   6.611   1.042   5.630  0.0603 -1.3278  0.5241
  585MOL0     C77145   6.546   1.169   5.621  0.4543  0.3877 -0.4240
  585MOL0     O77146   6.432   1.189   5.696 -0.3555 -1.0855  0.2317
  585MOL0     C77147   6.350   1.306   5.677 -0.7775  0.5813  0.7739
  585MOL0     C77148   6.238   1.315   5.775  0.1321 -0.3439 -0.0982
  585MOL0     C77149   6.276   1.313   5.924 -0.4013  0.3435  0.0534
  585MOL0     C77150   6.160   1.326   6.024  0.0815 -0.2316 -0.7540
  585MOL0     C77151   6.079   1.451   6.001 -1.2741  0.3094 -0.3517
  585MOL0     C77152   6.011   1.548   5.984  0.2828 -0.2288 -0.5997
  585MOL0     C77153   6.601   1.262   5.525  1.9394  0.8407  0.1313
  585MOL0     C77154   6.704   1.226   5.446 -0.1004  1.0201  0.4384
  585MOL0     H77155   7.039   1.339   5.185  2.5928  0.4471  0.3236
  585MOL0     H77156   7.232   1.333   5.028 -0.2898  0.2635  2.1996
  585MOL0     H77157   7.265   1.040   4.763 -0.6884 -1.8131  0.3663
  585MOL0     H77158   7.385   0.935   4.860 -1.0252  0.3574  0.3673
  585MOL0     H77159   7.561   1.031   4.755 -0.1190 -0.8991 -2.2847
  585MOL0     H77160   7.473   1.170   4.694 -1.0319  0.6506  1.7139
  585MOL0     H77161   7.341   1.042   4.527 -1.4774 -4.2891 -0.5656
  585MOL0     H77162   7.407   0.893   4.595 -1.0981  0.4111  2.0063
  585MOL0     H77163   7.561   1.115   4.456 -2.8154  0.3838  2.0512
  585MOL0     H77164   7.632   0.952   4.506 -2.0454 -3.1107  2.6594
  585MOL0     H77165   7.406   0.994   4.325  1.5003  1.6942  0.0249
  585MOL0     H77166   7.470   0.831   4.377 -3.6284  0.5822  0.1883
  585MOL0     H77167   7.688   0.886   4.288 -0.0928 -1.2215 -1.1448
  585MOL0     H77168   7.621   1.039   4.223 -1.7631  0.7620 -1.7738
  585MOL0     H77169   7.537   0.752   4.168  0.6344  1.5513  2.7245
  585MOL0     H77170   7.445   0.884   4.101 -0.3889 -1.0871 -1.2640
  585MOL0     H77171   7.734   0.828   4.024  1.1182  1.0548 -3.1132
  585MOL0     H77172   7.634   0.976   3.995 -0.3846  0.0566  1.9029
  585MOL0     H77173   7.372   0.881   3.882 -0.3568 -1.8272  1.8108
  585MOL0     H77174   7.222   0.737   3.700  1.6322 -0.1753 -0.6439
  585MOL0     H77175   7.264   0.568   3.748 -1.9948  1.1675  2.3379
  585MOL0     H77176   7.385   0.526   3.546 -0.5781  0.0021 -0.0380
  585MOL0     H77177   7.369   0.690   3.499  0.7990 -1.2641 -1.1125
  585MOL0     H77178   7.106   0.660   3.489 -2.1932 -1.5477  1.3235
  585MOL0     H77179   7.209   0.605   3.371 -1.2860 -4.0468 -1.9277
  585MOL0     H77180   7.216   0.380   3.438  0.0452 -0.5045 -1.1152
  585MOL0     H77181   7.046   0.429   3.416 -0.0602 -2.9257  1.0709
  585MOL0     H77182   7.006   0.208   3.420 -1.4789  0.2941 -0.1491
  585MOL0     H77183   6.882   0.017   3.482  1.0750 -1.7054  0.8477
  585MOL0     H77184   6.851  -0.387   3.720  1.1008  1.4723 -1.9245
  585MOL0     H77185   6.697  -0.588   3.753  0.2132 -0.4726 -3.2735
  585MOL0     H77186   6.264  -0.524   3.789  1.1944  3.6759  2.6153
  585MOL0     H77187   6.386  -0.574   3.902  0.9765 -1.8028  0.0754
  585MOL0     H77188   6.240  -0.758   3.912 -1.5890 -0.2112 -1.2473
  585MOL0     H77189   6.375  -0.816   3.826 -0.7866 -2.4112  0.0053
  585MOL0     H77190   6.243  -0.729   3.611  2.9130  0.0535  0.8563
  585MOL0     H77191   6.106  -0.757   3.715 -0.4055 -1.0950 -0.6515
  585MOL0     H77192   6.344  -0.934   3.641 -1.1740  0.0198 -3.3688
  585MOL0     H77193   6.227  -1.010   3.747 -0.1157 -2.9532 -1.9003
  585MOL0     H77194   6.211  -1.100   3.516 -0.6248 -1.8013  0.0950
  585MOL0     H77195   6.158  -0.937   3.466  2.6978 -1.2134 -0.9495
  585MOL0     H77196   5.986  -0.925   3.609  3.0810  2.0611 -2.3273
  585MOL0     H77197   6.022  -1.074   3.702 -1.5992  1.4222  0.8494
  585MOL0     H77198   5.913  -1.072   3.410  4.0533 -0.0349 -1.3091
  585MOL0     H77199   5.982  -1.209   3.500 -1.4592 -0.4128 -2.1624
  585MOL0     H77200   5.816  -1.218   3.668 -1.1570  0.3179  0.8644
  585MOL0     H77201   5.734  -1.213   3.513 -1.8671 -1.9265  2.7076
  585MOL0     H77202   6.362  -0.359   3.667  0.3004 -4.2357  1.6674
  585MOL0     H77203   6.500  -0.149   3.668 -1.5291 -1.2160  0.9678
  585MOL0     H77204   6.821   0.138   3.873  0.9338 -1.7914  0.2953
  585MOL0     H77205   6.978   0.346   3.828  1.8003 -0.5305  0.5893
  585MOL0     H77206   7.181   0.911   4.963  3.4641  2.3684 -2.2359
  585MOL0     H77207   6.996   0.913   5.135  0.3531 -0.4392 -1.4634
  585MOL0     H77208   6.756   0.907   5.557  0.3760 -0.7495 -0.8859
  585MOL0     H77209   6.584   0.991   5.722 -0.2398 -1.3783  0.4083
  585MOL0     H77210   6.309   1.296   5.576 -0.3742 -3.2995  0.8373
  585MOL0     H77211   6.409   1.397   5.692  0.3518 -0.1518  0.9435
  585MOL0     H77212   6.182   1.408   5.765 -0.4426 -0.7110 -0.3585
  585MOL0     H77213   6.165   1.235   5.763 -0.0692 -0.0223 -1.0945
  585MOL0     H77214   6.356   1.386   5.935 -0.0087  0.3823 -2.5737
  585MOL0     H77215   6.325   1.215   5.936 -1.4851 -0.0613  1.4013
  585MOL0     H77216   6.098   1.237   6.007  2.7029 -1.7767 -2.9516
  585MOL0     H77217   6.195   1.320   6.128  0.8596  0.5706 -0.9642
  585MOL0     H77218   5.964   1.644   5.985  0.5280 -0.1062 -0.9217
  585MOL0     H77219   6.559   1.362   5.522 -2.0530 -0.6690  0.2171
  585MOL0     H77220   6.750   1.294   5.374  1.3889 -1.1451 -0.7796
  586MOL0     O77221  10.925   7.739   4.166 -0.0118 -0.3726  0.4765
  586MOL0     C77222  11.017   7.766   4.244 -0.6375 -0.6192  0.8995
  586MOL0     O77223  11.121   7.848   4.201  0.9885 -0.2442 -1.0166
  586MOL0     C77224  11.124   7.895   4.072  0.0640  0.1108  0.2463
  586MOL0     C77225  11.009   7.948   4.001 -0.4933  0.0882 -0.3127
  586MOL0     C77226  11.028   8.006   3.871  0.0446 -0.1058  1.4948
  586MOL0     C77227  11.146   8.014   3.811 -0.1412 -0.1648  0.8927
  586MOL0     O77228  11.170   8.076   3.684 -0.2931  0.1405  0.8308
  586MOL0     C77229  11.051   8.067   3.605  0.5720  0.0674 -0.6430
  586MOL0     C77230  11.099   8.095   3.461 -0.1155 -0.6716  0.2860
  586MOL0     C77231  10.982   8.165   3.386 -0.6300  0.5093  0.0347
  586MOL0     C77232  10.996   8.185   3.240 -1.0307 -0.0577 -0.1150
  586MOL0     C77233  10.986   8.048   3.153 -0.1547  0.0109  0.1751
  586MOL0     C77234  10.842   8.018   3.105  0.1650 -0.2404 -0.3486
  586MOL0     C77235  10.759   7.927   3.201  0.5776  0.3984 -0.2108
  586MOL0     C77236  10.650   7.866   3.124 -0.6472 -0.3583  0.3256
  586MOL0     N77237  10.593   7.755   3.199  0.4842 -0.1334 -0.2160
  586MOL0     C77238  10.521   7.763   3.318  0.1923 -0.2407 -0.1967
  586MOL0     C77239  10.494   7.642   3.357 -0.1718 -0.1093 -0.0368
  586MOL0     C77240  10.421   7.592   3.479  0.3366  0.6301 -0.4060
  586MOL0     C77241  10.320   7.493   3.446 -0.8145 -0.3180 -0.2905
  586MOL0     C77242  10.285   7.388   3.548 -0.4088  0.0715  0.8743
  586MOL0     C77243  10.238   7.244   3.499 -0.5866 -0.8063  0.0070
  586MOL0     O77244  10.350   7.173   3.437  0.1916  0.0526 -0.4409
  586MOL0     C77245  10.468   7.184   3.500 -0.1302 -0.5744  0.1074
  586MOL0     C77246  10.581   7.246   3.437 -0.1470  1.1621 -0.2989
  586MOL0     C77247  10.697   7.267   3.516  0.4321 -0.0936 -0.3300
  586MOL0     C77248  10.711   7.231   3.652 -1.1314  0.5916 -0.4902
  586MOL0     C77249  10.842   7.222   3.715 -0.4658 -0.7257  0.2047
  586MOL0     O77250  10.920   7.340   3.738  0.0361 -0.6735  0.4558
  586MOL0     C77251  10.850   7.455   3.707 -0.0206 -0.8428 -0.3525
  586MOL0     C77252  10.754   7.509   3.797 -1.1413  0.2686 -0.6534
  586MOL0     C77253  10.698   7.637   3.775 -0.1538  0.9101  0.0301
  586MOL0     C77254  10.728   7.705   3.660 -0.5918 -0.1881 -0.4476
  586MOL0     O77255  10.692   7.832   3.632  0.2859  0.1488 -0.2685
  586MOL0     C77256  10.580   7.890   3.698 -0.4627  0.8859 -0.9310
  586MOL0     C77257  10.548   8.030   3.643  0.0948  0.4538  0.2632
  586MOL0     C77258  10.644   8.148   3.698 -0.1379 -0.2063 -0.3488
  586MOL0     C77259  10.582   8.281   3.661  0.0676 -0.4178 -0.3194
  586MOL0     C77260  10.570   8.301   3.515 -0.1037 -0.1977  0.2285
  586MOL0     C77261  10.579   8.451   3.468  0.2465  0.3502 -0.3882
  586MOL0     C77262  10.510   8.472   3.333  0.0317  0.0362 -0.4582
  586MOL0     C77263  10.590   8.394   3.231 -0.0986 -0.0148 -0.0496
  586MOL0    Cl77264  10.517   8.231   3.207 -0.0210  0.2529  0.1646
  586MOL0     C77265  10.812   7.656   3.561  0.1830 -0.2880 -0.0638
  586MOL0     C77266  10.872   7.534   3.592 -1.9475 -1.0804  0.1820
  586MOL0     O77267  10.872   7.110   3.753  0.3283  0.0907 -0.4664
  586MOL0     C77268  10.596   7.181   3.712 -0.0384 -0.6367 -0.5333
  586MOL0     C77269  10.477   7.156   3.636 -0.9038 -0.4237  0.0500
  586MOL0     N77270  10.555   7.552   3.268 -0.7353 -0.2985 -0.8858
  586MOL0     N77271  10.619   7.623   3.175 -0.0135  0.9946 -0.2549
  586MOL0     C77272  11.260   7.976   3.877  0.1228  0.5388 -0.8550
  586MOL0     C77273  11.248   7.915   4.004  0.9718  0.5269  0.9609
  586MOL0     C77274  11.024   7.704   4.371  0.3921  0.5315 -0.3940
  586MOL0     C77275  10.913   7.614   4.405  0.1949  0.1892 -0.0522
  586MOL0     C77276  10.906   7.545   4.521 -0.5381  0.0183  0.2945
  586MOL0     C77277  11.022   7.556   4.607  0.8313 -0.0802 -1.2716
  586MOL0     O77278  11.017   7.495   4.730 -0.0591 -0.3955  0.8181
  586MOL0     C77279  10.933   7.542   4.833 -1.2837 -0.2026  0.0576
  586MOL0     C77280  10.983   7.671   4.897  0.8693  0.4272 -0.3407
  586MOL0     C77281  10.921   7.674   5.040  0.5124 -1.0583  0.2406
  586MOL0     C77282  10.939   7.818   5.100 -0.7495  0.5083  0.7139
  586MOL0     C77283  11.056   7.837   5.183 -0.6802  0.2949 -0.9846
  586MOL0     C77284  11.152   7.873   5.248 -0.1900  0.0252 -0.8607
  586MOL0     C77285  11.129   7.636   4.571  0.6871  0.2294 -0.4735
  586MOL0     C77286  11.134   7.709   4.451 -0.3343  1.0339 -0.7228
  586MOL0     H77287  10.917   7.964   4.056 -1.9262  2.1017 -3.0371
  586MOL0     H77288  10.933   8.046   3.835  0.2077  1.1301  2.3476
  586MOL0     H77289  10.974   8.137   3.639 -0.2289 -2.0872  2.4603
  586MOL0     H77290  11.000   7.971   3.596 -0.4580  0.3754  1.4455
  586MOL0     H77291  11.131   8.006   3.407  0.8504  1.0476 -2.1389
  586MOL0     H77292  11.188   8.159   3.456 -0.1583 -0.5677  0.7743
  586MOL0     H77293  10.981   8.270   3.419 -3.6617  1.4338 -2.5464
  586MOL0     H77294  10.883   8.120   3.395  1.0150 -4.5425 -2.9670
  586MOL0     H77295  10.922   8.257   3.205 -1.0334 -1.0053 -2.2232
  586MOL0     H77296  11.092   8.234   3.226 -0.9194 -0.1993  0.1484
  586MOL0     H77297  11.028   7.963   3.208  1.0851  0.6754  0.2847
  586MOL0     H77298  11.049   8.065   3.065 -2.7889 -1.5244 -2.2108
  586MOL0     H77299  10.851   7.966   3.009 -1.8796 -1.4240  0.0178
  586MOL0     H77300  10.784   8.107   3.079 -1.6662 -1.6156 -1.2755
  586MOL0     H77301  10.822   7.841   3.225 -0.0973  0.2779  1.2757
  586MOL0     H77302  10.731   7.973   3.297  1.1733 -0.8273  0.5829
  586MOL0     H77303  10.693   7.834   3.029  2.3636  5.3838 -0.6753
  586MOL0     H77304  10.571   7.938   3.100  0.0463  0.6474  1.0249
  586MOL0     H77305  10.491   7.853   3.371  2.9835 -1.4716  4.0682
  586MOL0     H77306  10.365   7.668   3.534 -1.2732  0.2193 -1.3857
  586MOL0     H77307  10.492   7.559   3.554 -0.4368  1.3161  0.6552
  586MOL0     H77308  10.334   7.444   3.349 -2.3360 -2.7980  0.6381
  586MOL0     H77309  10.237   7.565   3.450 -0.4752  0.0137  2.7712
  586MOL0     H77310  10.369   7.377   3.616  1.0759  1.9969 -0.5246
  586MOL0     H77311  10.196   7.422   3.602 -1.1251 -0.0928 -0.1513
  586MOL0     H77312  10.152   7.250   3.432 -2.0932  3.5276  1.9118
  586MOL0     H77313  10.217   7.180   3.585  0.7813 -1.3819 -0.0577
  586MOL0     H77314  10.583   7.281   3.334  3.3717 -1.9462 -1.5274
  586MOL0     H77315  10.793   7.308   3.484  0.2659  1.4255  0.9798
  586MOL0     H77316  10.724   7.461   3.889  0.4116 -1.6578 -1.0930
  586MOL0     H77317  10.633   7.672   3.854  1.4615  2.7450  0.6230
  586MOL0     H77318  10.607   7.892   3.804 -0.7884 -0.6240 -0.7995
  586MOL0     H77319  10.494   7.822   3.690  1.0353 -1.4832  1.4068
  586MOL0     H77320  10.445   8.047   3.674 -2.0158 -2.6006 -4.0226
  586MOL0     H77321  10.540   8.041   3.534  1.3512  0.8313  0.1863
  586MOL0     H77322  10.742   8.134   3.653  0.1179 -2.5954  0.7667
  586MOL0     H77323  10.665   8.147   3.806  0.8791  1.7554 -0.4798
  586MOL0     H77324  10.478   8.281   3.698  0.0253 -2.6219 -0.2923
  586MOL0     H77325  10.640   8.364   3.704  0.7255  0.2724 -2.4378
  586MOL0     H77326  10.475   8.254   3.490 -0.3030 -0.2158  0.9987
  586MOL0     H77327  10.653   8.243   3.473  0.8206  0.1145  1.5490
  586MOL0     H77328  10.683   8.481   3.479 -0.1240  0.6313  4.6637
  586MOL0     H77329  10.540   8.514   3.549  0.0297 -0.8897  0.5075
  586MOL0     H77330  10.403   8.448   3.325  0.4238 -1.4892 -1.6229
  586MOL0     H77331  10.525   8.578   3.309 -0.5488 -0.2253 -2.1483
  586MOL0     H77332  10.696   8.389   3.257  0.2807  3.3718 -0.4835
  586MOL0     H77333  10.601   8.455   3.141 -0.3624  3.4487  2.0927
  586MOL0     H77334  10.827   7.721   3.475  1.7144 -1.6256 -0.8520
  586MOL0     H77335  10.948   7.512   3.517 -0.6316 -2.1870  1.7974
  586MOL0     H77336  10.590   7.143   3.813 -5.1879  0.8172 -0.0327
  586MOL0     H77337  10.388   7.110   3.678  0.8115 -1.9140  2.2666
  586MOL0     H77338  11.352   7.995   3.823  0.2798  1.7775 -0.1871
  586MOL0     H77339  11.329   7.872   4.062 -1.3947 -0.5639  3.6582
  586MOL0     H77340  10.836   7.597   4.330  0.9586  2.2101 -1.3848
  586MOL0     H77341  10.826   7.477   4.548 -2.2501  2.0829  0.6859
  586MOL0     H77342  10.938   7.460   4.905  0.3203  0.1217  0.3625
  586MOL0     H77343  10.829   7.545   4.800 -1.4848  1.3593  0.7676
  586MOL0     H77344  11.092   7.664   4.907  1.1197  2.5772 -0.9741
  586MOL0     H77345  10.970   7.756   4.828  0.6209  1.1054  0.5278
  586MOL0     H77346  10.958   7.603   5.115 -2.3012 -0.8464  1.9493
  586MOL0     H77347  10.815   7.649   5.039  0.4013 -0.6058  0.4870
  586MOL0     H77348  10.941   7.893   5.021  0.0414  0.7627  0.9613
  586MOL0     H77349  10.857   7.847   5.167 -1.1363 -0.8915  0.8800
  586MOL0     H77350  11.234   7.907   5.308 -0.9786 -0.3579  0.4714
  586MOL0     H77351  11.221   7.639   4.628  0.5052 -0.9421 -0.0817
  586MOL0     H77352  11.225   7.758   4.418 -0.3554  1.8073  0.3070
  587MOL0     O77353  10.755   6.014  10.339 -0.1939  0.0538  0.3822
  587MOL0     C77354  10.752   6.007  10.460 -0.0746  0.5529 -0.6894
  587MOL0     O77355  10.792   5.899  10.534 -0.4729 -0.0154  0.4377
  587MOL0     C77356  10.869   5.803  10.470 -0.4635  0.3848  0.4116
  587MOL0     C77357  10.967   5.831  10.374 -0.0692 -0.5564 -0.0555
  587MOL0     C77358  11.061   5.732  10.330 -0.0864 -0.0896 -0.3792
  587MOL0     C77359  11.062   5.602  10.375 -0.6428 -0.5787  0.7168
  587MOL0     O77360  11.162   5.515  10.333  0.4238  0.1178  0.2164
  587MOL0     C77361  11.158   5.377  10.372  0.0522  0.8179  1.0859
  587MOL0     C77362  11.283   5.285  10.346  0.2717 -0.8547 -0.5827
  587MOL0     C77363  11.401   5.316  10.444 -0.0449  0.4143  0.5709
  587MOL0     C77364  11.498   5.195  10.434 -1.0048  1.1116  0.8304
  587MOL0     C77365  11.636   5.219  10.505  0.6227 -0.3988 -0.1134
  587MOL0     C77366  11.693   5.091  10.576  0.5115 -0.2186  0.0881
  587MOL0     C77367  11.840   5.127  10.617 -0.4925 -0.7127  0.0848
  587MOL0     C77368  11.880   5.020  10.721 -0.3717  0.1662 -0.8504
  587MOL0     N77369  12.011   5.044  10.787  0.0792  0.5153  1.4253
  587MOL0     C77370  12.129   5.037  10.726  0.0042  0.1923  0.5758
  587MOL0     C77371  12.222   5.039  10.819  0.4178  0.7836 -0.2784
  587MOL0     C77372  12.368   5.066  10.794  0.1980 -0.9317  0.5308
  587MOL0     C77373  12.466   4.964  10.849 -0.2330  0.7905 -0.3335
  587MOL0     C77374  12.450   4.834  10.769  0.6837  0.4733  0.1293
  587MOL0     C77375  12.430   4.846  10.621 -0.6562  0.7004  0.4409
  587MOL0     O77376  12.468   4.719  10.562 -0.4442  0.4564  0.3046
  587MOL0     C77377  12.585   4.709  10.488  0.4277  0.1881 -0.8503
  587MOL0     C77378  12.705   4.767  10.525  1.1135 -0.1894  0.8650
  587MOL0     C77379  12.823   4.761  10.453  0.6117  0.7007  0.3988
  587MOL0     C77380  12.819   4.696  10.329 -0.6519 -0.4410  0.1564
  587MOL0     C77381  12.949   4.683  10.255  1.3516  0.3792  0.1538
  587MOL0     O77382  12.950   4.603  10.141  0.2018  0.0998  0.0276
  587MOL0     C77383  13.072   4.593  10.071  0.6749 -0.3356  0.7581
  587MOL0     C77384  13.089   4.680   9.953  0.2589  0.7693 -0.4504
  587MOL0     C77385  13.192   4.653   9.870 -1.0713  0.4437 -0.0184
  587MOL0     C77386  13.292   4.553   9.905 -0.7115 -0.5624  0.4909
  587MOL0     O77387  13.400   4.525   9.820  0.0985  0.3311 -0.1011
  587MOL0     C77388  13.364   4.510   9.685 -0.1075 -0.0408  1.0536
  587MOL0     C77389  13.502   4.470   9.616 -0.0903  0.3959  0.3330
  587MOL0     C77390  13.588   4.606   9.578 -0.4681  0.2618  0.2899
  587MOL0     C77391  13.680   4.590   9.455 -0.0337 -0.4276  0.0574
  587MOL0     C77392  13.737   4.727   9.405 -0.1087  0.4557  0.1941
  587MOL0     C77393  13.890   4.743   9.424 -0.2211  0.0080  0.0819
  587MOL0     C77394  13.937   4.889   9.449 -0.3583  0.1583  0.3414
  587MOL0     C77395  13.899   4.997   9.349  0.9291 -0.3809  0.5172
  587MOL0    Cl77396  13.962   5.151   9.408  0.1130 -0.1629 -0.1762
  587MOL0     C77397  13.285   4.482  10.028  0.0144 -0.5112 -0.1186
  587MOL0     C77398  13.176   4.509  10.112 -0.5253  0.2255 -0.8630
  587MOL0     O77399  13.040   4.755  10.295  0.2411  0.2765  0.7205
  587MOL0     C77400  12.700   4.646  10.276  0.3772  0.8297  0.3204
  587MOL0     C77401  12.588   4.654  10.360  0.0342  0.0609  0.2714
  587MOL0     N77402  12.165   5.044  10.944  0.1931 -0.3951  0.3197
  587MOL0     N77403  12.036   5.022  10.924 -0.0694 -0.2638  0.3194
  587MOL0     C77404  10.954   5.565  10.466 -0.2237 -0.0840  0.0708
  587MOL0     C77405  10.861   5.661  10.518 -0.3012 -0.7814  0.7934
  587MOL0     C77406  10.690   6.118  10.528 -0.5030  0.4177  0.6386
  587MOL0     C77407  10.712   6.125  10.666 -0.0671  0.1219 -0.0306
  587MOL0     C77408  10.641   6.224  10.733  0.0377 -0.1319  0.3670
  587MOL0     C77409  10.580   6.332  10.672  0.0084  0.0054  0.2105
  587MOL0     O77410  10.521   6.431  10.749 -0.8025  0.4969  0.1237
  587MOL0     C77411  10.473   6.549  10.680 -0.5354  0.2863  1.0250
  587MOL0     C77412  10.430   6.661  10.776 -0.6432  1.0140 -0.1814
  587MOL0     C77413  10.478   6.802  10.737  0.9064  0.3218  0.1995
  587MOL0     C77414  10.447   6.906  10.835 -0.1973  0.4070  0.1360
  587MOL0     C77415  10.518   7.029  10.800 -0.9833  0.5893  0.0790
  587MOL0     C77416  10.580   7.121  10.769  0.2145  0.2477  0.4369
  587MOL0     C77417  10.573   6.322  10.529 -0.4368  1.0557  0.1898
  587MOL0     C77418  10.627   6.223  10.457  0.0897  0.9554  0.5248
  587MOL0     H77419  10.984   5.926  10.325 -1.4079 -0.3557 -0.1542
  587MOL0     H77420  11.147   5.753  10.268  2.5204 -0.2538  2.9135
  587MOL0     H77421  11.071   5.340  10.317  2.6471  1.3933 -4.0108
  587MOL0     H77422  11.146   5.378  10.481 -0.5370 -0.1410  1.0496
  587MOL0     H77423  11.322   5.294  10.245  0.1069 -0.2619 -0.5936
  587MOL0     H77424  11.249   5.182  10.365  0.1674 -0.6277  0.5680
  587MOL0     H77425  11.374   5.325  10.550 -0.1718 -3.0948  0.9552
  587MOL0     H77426  11.455   5.407  10.414  3.2119 -1.1677  1.2636
  587MOL0     H77427  11.452   5.113  10.490  0.1723  0.4115  0.8106
  587MOL0     H77428  11.502   5.153  10.333  1.1042 -0.8041  1.6061
  587MOL0     H77429  11.629   5.299  10.579 -1.8335 -0.5799 -0.0658
  587MOL0     H77430  11.702   5.256  10.426  1.8007  4.2236  2.6299
  587MOL0     H77431  11.689   5.003  10.510  0.6957  1.1871 -1.8973
  587MOL0     H77432  11.620   5.071  10.655  0.4967 -1.6668 -0.2652
  587MOL0     H77433  11.907   5.116  10.532  0.5386  1.9827  0.4498
  587MOL0     H77434  11.835   5.231  10.651 -3.3422 -0.3562 -1.1117
  587MOL0     H77435  11.877   4.921  10.675 -0.7058 -1.0799  1.6763
  587MOL0     H77436  11.801   5.010  10.797 -1.1166  0.5356 -1.5576
  587MOL0     H77437  12.147   5.031  10.619 -0.1274  0.6843  0.5274
  587MOL0     H77438  12.392   5.162  10.840  1.5845 -0.3541 -1.2672
  587MOL0     H77439  12.389   5.078  10.687  0.9756  0.4724  0.8188
  587MOL0     H77440  12.442   4.948  10.955 -0.6669  0.1869 -0.5152
  587MOL0     H77441  12.569   4.998  10.836  0.1678  0.1231  0.9025
  587MOL0     H77442  12.544   4.779  10.779  0.2172 -0.2697  0.5398
  587MOL0     H77443  12.366   4.778  10.810  1.3347  0.4677  1.5244
  587MOL0     H77444  12.491   4.932  10.594  2.8813 -2.5617 -3.3260
  587MOL0     H77445  12.325   4.857  10.594  0.0189  0.8871 -2.4067
  587MOL0     H77446  12.725   4.817  10.620 -3.0130 -1.0165  2.3435
  587MOL0     H77447  12.916   4.788  10.502  0.9216 -0.8327  0.7121
  587MOL0     H77448  13.018   4.751   9.912  2.3599  1.5563 -2.9677
  587MOL0     H77449  13.191   4.720   9.785  1.2549  2.9146  1.7079
  587MOL0     H77450  13.323   4.598   9.635  3.4803 -0.0826 -2.5713
  587MOL0     H77451  13.290   4.431   9.671  1.6347 -1.2380 -2.9774
  587MOL0     H77452  13.473   4.426   9.519 -0.3683  2.6111 -0.6466
  587MOL0     H77453  13.560   4.402   9.679 -0.9317  1.7115  2.6579
  587MOL0     H77454  13.640   4.648   9.664  0.2725 -1.5469  0.7710
  587MOL0     H77455  13.508   4.671   9.541 -0.6567 -0.2838 -0.2880
  587MOL0     H77456  13.759   4.521   9.486 -0.8089 -0.1930  2.8065
  587MOL0     H77457  13.636   4.532   9.373  1.4571 -0.6328 -0.6363
  587MOL0     H77458  13.689   4.802   9.469 -2.6291 -0.6656 -0.2400
  587MOL0     H77459  13.715   4.735   9.298  3.4501 -0.5783 -0.7405
  587MOL0     H77460  13.932   4.708   9.329 -1.0035  3.4363 -1.6937
  587MOL0     H77461  13.919   4.678   9.507  1.9074  0.1115 -0.5106
  587MOL0     H77462  13.897   4.919   9.547  1.1730  1.1238  0.6946
  587MOL0     H77463  14.045   4.884   9.466 -0.6165 -0.6830  1.9650
  587MOL0     H77464  13.792   4.992   9.327  0.5791 -3.2608  2.2969
  587MOL0     H77465  13.937   4.966   9.252  1.1443  2.7034 -0.4655
  587MOL0     H77466  13.340   4.392  10.055 -3.6807 -2.7902  0.5952
  587MOL0     H77467  13.176   4.449  10.202  3.8654 -0.3436 -1.0150
  587MOL0     H77468  12.683   4.616  10.173 -0.3037 -0.6921  0.8494
  587MOL0     H77469  12.495   4.655  10.303  0.8577  1.1428 -1.1323
  587MOL0     H77470  10.956   5.462  10.500  0.2327 -0.3122 -0.6178
  587MOL0     H77471  10.776   5.641  10.583  0.5139 -2.3189  1.4416
  587MOL0     H77472  10.772   6.050  10.718 -0.3248  0.0451  0.1597
  587MOL0     H77473  10.648   6.235  10.841 -2.4753 -0.8172  0.6546
  587MOL0     H77474  10.393   6.529  10.609  0.1861  3.3176 -0.8607
  587MOL0     H77475  10.559   6.574  10.617 -2.6433 -0.1579 -2.2294
  587MOL0     H77476  10.322   6.657  10.791 -0.4802  1.9710  1.4731
  587MOL0     H77477  10.484   6.635  10.868 -0.0921 -3.8750 -1.6231
  587MOL0     H77478  10.435   6.827  10.640 -1.6665 -3.7599  0.0568
  587MOL0     H77479  10.585   6.790  10.721  0.7113 -1.8559  0.2035
  587MOL0     H77480  10.339   6.924  10.846 -0.7856 -1.7376 -1.5249
  587MOL0     H77481  10.467   6.873  10.937 -2.1535 -0.0054  0.4174
  587MOL0     H77482  10.645   7.207  10.764  6.0706 -3.5459  1.1942
  587MOL0     H77483  10.522   6.401  10.474 -0.7341  1.6220  1.2336
  587MOL0     H77484  10.618   6.217  10.349 -0.1540 -1.1070  0.6170
  588MOL0     O77485   4.130   3.174   4.693 -0.4272  0.3140 -0.5802
  588MOL0     C77486   4.050   3.117   4.628 -0.5805  1.0185  0.2503
  588MOL0     O77487   4.048   2.974   4.630 -0.0876 -0.2080 -0.1586
  588MOL0     C77488   4.157   2.908   4.672 -0.3153 -0.6232 -0.8016
  588MOL0     C77489   4.280   2.935   4.624 -1.1181 -0.5281 -1.2199
  588MOL0     C77490   4.390   2.848   4.665 -0.2540 -0.7122 -0.9452
  588MOL0     C77491   4.372   2.744   4.756 -0.1176 -0.4016  0.0192
  588MOL0     O77492   4.482   2.671   4.801 -0.5600  0.0903  0.2186
  588MOL0     C77493   4.463   2.529   4.835  0.4481 -0.1331  0.0955
  588MOL0     C77494   4.592   2.439   4.830  0.8788 -1.2981  0.2671
  588MOL0     C77495   4.701   2.502   4.922 -0.5086  0.0511  0.2403
  588MOL0     C77496   4.821   2.409   4.946  0.8461 -0.0568 -0.1785
  588MOL0     C77497   4.920   2.488   5.030 -0.0199  0.0453 -1.3824
  588MOL0     C77498   5.013   2.589   4.953 -0.0158  0.4166  0.8940
  588MOL0     C77499   5.123   2.647   5.045 -0.1681 -0.4191  0.1215
  588MOL0     C77500   5.219   2.725   4.949 -0.7167  0.5869  0.1423
  588MOL0     N77501   5.343   2.768   5.028  0.8328 -0.5107  0.3238
  588MOL0     C77502   5.471   2.735   5.002  0.5111  0.3046  0.1222
  588MOL0     C77503   5.538   2.797   5.094  0.6326 -0.5319 -1.1226
  588MOL0     C77504   5.683   2.788   5.115 -0.1982 -0.0726  0.8604
  588MOL0     C77505   5.767   2.758   4.994  0.0314 -0.4448  0.0749
  588MOL0     C77506   5.919   2.786   5.027  0.5187  0.8955  0.5405
  588MOL0     C77507   6.011   2.722   4.923  0.6724 -0.8942 -0.2528
  588MOL0     O77508   5.999   2.579   4.924 -0.3438  0.0156 -0.8066
  588MOL0     C77509   6.085   2.505   5.002 -0.4856  0.9615  2.2903
  588MOL0     C77510   6.070   2.367   5.008  0.1525  0.7329  0.1543
  588MOL0     C77511   6.138   2.289   5.093  0.4228  0.1077 -0.0938
  588MOL0     C77512   6.236   2.346   5.172 -0.0001  0.9006 -0.7606
  588MOL0     C77513   6.344   2.266   5.233 -0.4825 -0.2999 -0.0821
  588MOL0     O77514   6.436   2.338   5.313  0.6873 -0.0105  0.0224
  588MOL0     C77515   6.518   2.258   5.386 -0.0671  0.4164 -0.5289
  588MOL0     C77516   6.606   2.166   5.330 -0.1962  0.7053  1.0373
  588MOL0     C77517   6.696   2.098   5.402 -0.1746 -0.2354 -0.4805
  588MOL0     C77518   6.708   2.119   5.542 -0.0532  0.1913 -0.6780
  588MOL0     O77519   6.805   2.046   5.609  0.5238 -0.0168 -1.0025
  588MOL0     C77520   6.813   2.042   5.752  0.0613 -0.1359  0.6520
  588MOL0     C77521   6.924   1.939   5.789  0.1896 -0.1011  0.0750
  588MOL0     C77522   6.889   1.800   5.752 -0.1671  1.1299 -0.3095
  588MOL0     C77523   7.018   1.713   5.786  0.9568 -0.4477 -0.6993
  588MOL0     C77524   6.993   1.561   5.796  0.7596  0.3017 -0.2082
  588MOL0     C77525   7.120   1.491   5.789 -1.2827  1.4577  0.0267
  588MOL0     C77526   7.112   1.336   5.758 -0.9313  0.5528 -0.0028
  588MOL0     C77527   7.035   1.279   5.641  0.1705 -0.4781 -0.0044
  588MOL0    Cl77528   7.111   1.330   5.495 -0.1507 -0.0816 -0.9245
  588MOL0     C77529   6.619   2.211   5.603 -0.4886  1.2601 -0.4580
  588MOL0     C77530   6.521   2.275   5.526 -0.4977  0.1007  0.3352
  588MOL0     O77531   6.336   2.141   5.218  0.5570  0.0869  0.2174
  588MOL0     C77532   6.259   2.484   5.167 -0.4976  0.8929  0.0781
  588MOL0     C77533   6.184   2.557   5.085  0.2872  0.0007  0.2263
  588MOL0     N77534   5.453   2.878   5.161 -0.3169 -0.2686 -0.3027
  588MOL0     N77535   5.334   2.864   5.112 -0.2819 -0.8896  0.3799
  588MOL0     C77536   4.245   2.726   4.810  0.1176 -0.1599  0.1571
  588MOL0     C77537   4.138   2.810   4.768  0.9822  0.2027  0.2999
  588MOL0     C77538   3.966   3.194   4.536  0.5339  0.5816  0.3036
  588MOL0     C77539   3.894   3.121   4.444 -0.3952  0.0014  0.1715
  588MOL0     C77540   3.836   3.189   4.341 -0.5352 -1.1253  0.2393
  588MOL0     C77541   3.825   3.331   4.340  0.2583 -0.6014 -0.1765
  588MOL0     O77542   3.764   3.400   4.238  0.7319 -0.5583  0.4690
  588MOL0     C77543   3.692   3.339   4.125 -0.5622 -0.1160  1.0451
  588MOL0     C77544   3.620   3.442   4.032  0.5887 -0.5604 -0.3246
  588MOL0     C77545   3.553   3.378   3.920 -0.0095  0.3679  0.4354
  588MOL0     C77546   3.488   3.468   3.818  0.4185 -0.3782  0.1718
  588MOL0     C77547   3.593   3.524   3.729  0.6780  1.4331  0.5729
  588MOL0     C77548   3.677   3.573   3.662  0.2458 -0.2463 -0.5777
  588MOL0     C77549   3.881   3.406   4.439 -1.0902 -0.0284 -1.4790
  588MOL0     C77550   3.966   3.340   4.526 -0.1058  0.5302 -0.1331
  588MOL0     H77551   4.298   3.020   4.558  1.6065  0.4667  0.6207
  588MOL0     H77552   4.487   2.871   4.622  0.2124  0.8963  0.8593
  588MOL0     H77553   4.397   2.484   4.760 -1.4002 -1.5295  2.4409
  588MOL0     H77554   4.414   2.527   4.933  1.3440 -0.5627  0.5518
  588MOL0     H77555   4.630   2.432   4.727  2.5482  3.2648  0.3389
  588MOL0     H77556   4.569   2.338   4.865 -2.3948 -0.6811  0.1782
  588MOL0     H77557   4.658   2.518   5.021  2.6461 -1.3359  1.9557
  588MOL0     H77558   4.735   2.601   4.890  0.1393 -0.3745 -0.4227
  588MOL0     H77559   4.783   2.324   5.004  1.3015  0.6186  1.1535
  588MOL0     H77560   4.876   2.379   4.856  1.1625  0.9066 -0.3148
  588MOL0     H77561   4.979   2.407   5.075 -0.0051  0.1873 -1.1415
  588MOL0     H77562   4.869   2.535   5.115  1.6457 -1.2186  0.4192
  588MOL0     H77563   4.946   2.668   4.918  0.8581  0.3795 -0.9708
  588MOL0     H77564   5.057   2.530   4.872 -1.0534 -1.1672  1.4335
  588MOL0     H77565   5.080   2.717   5.118  0.8242 -0.4641  0.7731
  588MOL0     H77566   5.169   2.564   5.098  0.4812  0.0786  0.3507
  588MOL0     H77567   5.165   2.811   4.909  0.8141  0.1017 -3.2973
  588MOL0     H77568   5.230   2.662   4.860  0.9786  0.5140  0.3717
  588MOL0     H77569   5.516   2.676   4.922  0.1038 -1.6691  1.2887
  588MOL0     H77570   5.713   2.711   5.187  2.0101 -1.9894 -1.9081
  588MOL0     H77571   5.713   2.888   5.148  1.3144 -0.6563  1.3521
  588MOL0     H77572   5.739   2.823   4.911 -2.1223 -0.0344  1.0695
  588MOL0     H77573   5.750   2.653   4.971 -0.6319 -0.4551  0.5901
  588MOL0     H77574   5.930   2.894   5.037 -2.3969  1.0264  5.0705
  588MOL0     H77575   5.927   2.743   5.127 -1.6561 -1.7265 -0.2841
  588MOL0     H77576   6.106   2.776   4.933 -0.1232  0.3446  0.8496
  588MOL0     H77577   5.986   2.747   4.819  2.2565 -1.4203 -0.7962
  588MOL0     H77578   5.990   2.329   4.945 -0.5547  0.9965  0.8799
  588MOL0     H77579   6.115   2.183   5.091  1.6830 -0.1733 -0.1167
  588MOL0     H77580   6.603   2.156   5.222 -1.1190 -1.6615  1.2200
  588MOL0     H77581   6.754   2.030   5.341  2.1125  1.8889 -0.8622
  588MOL0     H77582   6.716   2.015   5.796  0.1521 -1.8795 -0.1294
  588MOL0     H77583   6.849   2.137   5.791  5.0471 -2.3991  2.4288
  588MOL0     H77584   6.944   1.953   5.896  4.5432 -1.9886 -0.3077
  588MOL0     H77585   7.012   1.955   5.728  1.7805 -3.1745  1.3290
  588MOL0     H77586   6.861   1.785   5.648 -1.7584  0.2446  0.2141
  588MOL0     H77587   6.800   1.763   5.804 -0.2918 -3.4504 -3.2641
  588MOL0     H77588   7.100   1.735   5.717  2.3850 -2.6278  0.1925
  588MOL0     H77589   7.047   1.747   5.886 -0.3726 -0.1740 -0.3807
  588MOL0     H77590   6.916   1.531   5.724  0.2125  0.0486  0.4733
  588MOL0     H77591   6.943   1.544   5.891  0.4276  1.3102 -0.1825
  588MOL0     H77592   7.169   1.499   5.886 -0.6785 -3.6716  0.3840
  588MOL0     H77593   7.181   1.521   5.703  1.3941 -2.8560  0.1498
  588MOL0     H77594   7.214   1.304   5.734  0.1366  1.4915  2.8213
  588MOL0     H77595   7.085   1.278   5.847 -0.7390 -1.1354 -0.9938
  588MOL0     H77596   6.936   1.324   5.649  1.2557  2.2738 -0.9325
  588MOL0     H77597   7.034   1.170   5.638  2.0164 -0.5044 -0.9275
  588MOL0     H77598   6.625   2.234   5.709  0.2440 -1.7411  0.2240
  588MOL0     H77599   6.465   2.350   5.582 -0.0982  2.3452 -2.0833
  588MOL0     H77600   6.345   2.523   5.220  0.8000 -1.7701  0.0684
  588MOL0     H77601   6.204   2.664   5.093 -1.4581  0.7136 -3.1314
  588MOL0     H77602   4.241   2.652   4.889  2.0246  0.5845  1.0232
  588MOL0     H77603   4.039   2.801   4.813  0.5749  2.0766 -0.1466
  588MOL0     H77604   3.896   3.013   4.440 -3.0129 -0.1945  1.4964
  588MOL0     H77605   3.793   3.135   4.257 -1.6830 -2.1713  1.4399
  588MOL0     H77606   3.607   3.277   4.156 -1.2774  0.3125  0.0083
  588MOL0     H77607   3.764   3.282   4.067 -2.0371 -0.6177 -0.3770
  588MOL0     H77608   3.559   3.506   4.096  0.0764 -0.1740 -1.1849
  588MOL0     H77609   3.703   3.506   4.000  2.1842 -2.0781  0.5364
  588MOL0     H77610   3.473   3.309   3.946 -2.2909  1.6514 -2.4990
  588MOL0     H77611   3.620   3.311   3.865  1.6929  1.8613  0.5708
  588MOL0     H77612   3.430   3.405   3.750 -1.8591  1.0390  0.6735
  588MOL0     H77613   3.423   3.547   3.857  1.0598  1.8750 -2.9174
  588MOL0     H77614   3.767   3.620   3.627  1.1770  1.5602  3.6235
  588MOL0     H77615   3.868   3.513   4.442 -1.1048 -0.0427  0.7157
  588MOL0     H77616   4.043   3.388   4.587  1.0246 -0.3621 -0.8061
  589MOL0     O77617   7.502   3.826   1.811 -0.2178  0.0348 -0.8046
  589MOL0     C77618   7.540   3.758   1.907  0.9982 -1.1614  0.0974
  589MOL0     O77619   7.647   3.795   1.990  0.6434 -0.3000  0.1086
  589MOL0     C77620   7.696   3.918   1.968 -0.3489  0.4063 -0.1004
  589MOL0     C77621   7.623   4.038   1.983  0.4466  0.1940  0.4833
  589MOL0     C77622   7.679   4.166   1.967 -0.2005 -0.2818 -0.9591
  589MOL0     C77623   7.815   4.182   1.942  0.2023  0.7889  0.1671
  589MOL0     O77624   7.875   4.296   1.920  0.3656 -0.4383  0.3085
  589MOL0     C77625   7.825   4.416   1.981 -0.0183 -0.4129  1.3891
  589MOL0     C77626   7.945   4.518   1.974 -0.0421  0.8797 -0.0774
  589MOL0     C77627   7.996   4.537   2.124  0.0179  0.3265  0.1904
  589MOL0     C77628   8.106   4.646   2.123  0.9466  0.5971  0.0403
  589MOL0     C77629   8.186   4.658   2.254  0.1196  0.7496  0.1724
  589MOL0     C77630   8.325   4.711   2.226  0.0253  0.1613 -0.3224
  589MOL0     C77631   8.399   4.736   2.363  0.5412 -0.0781 -0.5083
  589MOL0     C77632   8.433   4.607   2.448 -0.1819 -1.0404  0.3377
  589MOL0     N77633   8.521   4.642   2.564 -0.9637 -0.5412  0.0598
  589MOL0     C77634   8.476   4.679   2.686  0.3230  0.3058 -0.0708
  589MOL0     C77635   8.592   4.698   2.753  0.2030 -0.6454  0.5218
  589MOL0     C77636   8.609   4.752   2.899  0.2434  0.8409 -0.7072
  589MOL0     C77637   8.550   4.896   2.905  0.3065 -0.9092  0.4897
  589MOL0     C77638   8.659   4.995   2.844 -0.3430 -0.9620 -0.7910
  589MOL0     C77639   8.648   5.015   2.691 -0.9846  0.0551 -0.4974
  589MOL0     O77640   8.520   5.072   2.660  0.3180 -0.5901  0.1474
  589MOL0     C77641   8.483   5.081   2.531 -0.4060 -0.1455 -0.2517
  589MOL0     C77642   8.559   5.039   2.421  0.1766 -0.1754 -0.0745
  589MOL0     C77643   8.510   5.035   2.293 -0.3296  0.3145  0.2270
  589MOL0     C77644   8.387   5.105   2.265 -0.9017  0.6934 -0.0577
  589MOL0     C77645   8.335   5.113   2.127  0.3645  0.4146  0.2752
  589MOL0     O77646   8.398   5.045   2.027 -0.3853  0.2455  0.2898
  589MOL0     C77647   8.332   5.041   1.905 -0.9897  0.1909 -0.5328
  589MOL0     C77648   8.215   4.976   1.887  0.1683  0.0347  0.5925
  589MOL0     C77649   8.152   4.966   1.764  0.4604 -0.1465 -0.3066
  589MOL0     C77650   8.211   5.012   1.644  0.3575  0.5966 -0.5161
  589MOL0     O77651   8.151   5.006   1.524 -0.1914 -0.3516  0.8725
  589MOL0     C77652   8.014   5.036   1.503  0.7316 -0.6616 -0.9984
  589MOL0     C77653   7.966   4.964   1.368 -0.1908 -0.6717  0.0758
  589MOL0     C77654   8.023   5.020   1.236 -0.2990  0.4730  0.0514
  589MOL0     C77655   8.164   4.982   1.227  0.5680 -0.3236  0.4530
  589MOL0     C77656   8.212   4.998   1.076  0.5447 -0.5326 -0.1618
  589MOL0     C77657   8.352   5.044   1.061 -0.6372  0.3942  0.0631
  589MOL0     C77658   8.385   5.061   0.914 -0.0048  0.1642  0.1749
  589MOL0     C77659   8.354   4.945   0.818 -0.2018  0.6262  0.2092
  589MOL0    Cl77660   8.423   4.998   0.662  0.5039 -0.0402  0.1258
  589MOL0     C77661   8.343   5.067   1.657  0.1543  1.2876 -0.0849
  589MOL0     C77662   8.404   5.089   1.784 -0.3524 -0.4613  0.8733
  589MOL0     O77663   8.243   5.189   2.110 -0.4506 -0.6190  0.5458
  589MOL0     C77664   8.310   5.146   2.379  0.5493  0.3630  0.3361
  589MOL0     C77665   8.356   5.122   2.516  0.5090  0.5510  0.0268
  589MOL0     N77666   8.706   4.675   2.670  1.1388 -0.6977  0.3083
  589MOL0     N77667   8.662   4.634   2.556 -0.4212 -0.5157 -0.5581
  589MOL0     C77668   7.887   4.069   1.924  0.5297  1.7278  0.1959
  589MOL0     C77669   7.829   3.938   1.935  1.1026 -0.2827 -0.9750
  589MOL0     C77670   7.489   3.621   1.917  0.6698 -0.4986  1.2906
  589MOL0     C77671   7.556   3.525   1.994  0.1702  0.3323 -0.2265
  589MOL0     C77672   7.489   3.399   2.025 -1.5164 -0.5432  1.2560
  589MOL0     C77673   7.366   3.370   1.969  0.2701  0.0516  1.3701
  589MOL0     O77674   7.304   3.245   1.978  0.0123 -0.5671 -0.4017
  589MOL0     C77675   7.360   3.116   1.980  0.9545 -0.5983  0.9516
  589MOL0     C77676   7.431   3.078   1.854  0.0001  0.5509  0.2653
  589MOL0     C77677   7.355   3.077   1.727  0.5082  0.4608  0.6956
  589MOL0     C77678   7.393   2.960   1.636  0.2404 -0.2581 -0.5488
  589MOL0     C77679   7.514   2.988   1.569 -0.4181 -0.0482  0.7914
  589MOL0     C77680   7.612   2.989   1.502  0.1288  0.0168  0.1333
  589MOL0     C77681   7.306   3.456   1.881  0.3770 -0.3517  0.8841
  589MOL0     C77682   7.367   3.581   1.851 -0.1088  1.2770 -0.4351
  589MOL0     H77683   7.518   4.025   2.010  0.4780  1.7809  1.5086
  589MOL0     H77684   7.618   4.255   1.982 -0.4966 -0.5966 -0.2493
  589MOL0     H77685   7.807   4.395   2.087  2.9592  1.4006  2.3868
  589MOL0     H77686   7.742   4.466   1.932 -2.9622 -2.1654  4.2153
  589MOL0     H77687   7.903   4.614   1.941 -0.1995  0.7528 -0.2433
  589MOL0     H77688   8.038   4.496   1.921  0.6987 -3.0315  2.4411
  589MOL0     H77689   8.041   4.447   2.166  3.3845  0.0823 -3.3444
  589MOL0     H77690   7.918   4.564   2.195  1.0074 -0.0630  1.4607
  589MOL0     H77691   8.169   4.635   2.034  0.2365 -2.0469 -0.2044
  589MOL0     H77692   8.044   4.736   2.116  0.5872  0.2607 -1.3946
  589MOL0     H77693   8.187   4.557   2.295 -1.2012  0.7299  0.1969
  589MOL0     H77694   8.130   4.734   2.310  0.5749  0.3828  1.1395
  589MOL0     H77695   8.328   4.809   2.178  0.5815 -0.9175 -2.6406
  589MOL0     H77696   8.376   4.632   2.170  1.9899  0.6239  0.7003
  589MOL0     H77697   8.492   4.790   2.342 -0.1352  0.4927 -2.2451
  589MOL0     H77698   8.339   4.807   2.419 -1.3383 -2.3101  0.4700
  589MOL0     H77699   8.489   4.540   2.381  1.3102 -1.6486  2.1195
  589MOL0     H77700   8.341   4.560   2.483  0.4872 -1.2102  1.9418
  589MOL0     H77701   8.375   4.701   2.721  0.0586  0.8320 -1.1151
  589MOL0     H77702   8.714   4.755   2.931  0.1502  0.3020 -0.3313
  589MOL0     H77703   8.559   4.675   2.959  3.5118 -2.6659 -1.9963
  589MOL0     H77704   8.518   4.923   3.006 -0.0340  1.7153 -0.2310
  589MOL0     H77705   8.454   4.914   2.853  1.4828  1.8369 -0.9721
  589MOL0     H77706   8.629   5.090   2.888  1.3032  0.2720 -2.2128
  589MOL0     H77707   8.757   4.959   2.877 -0.6728 -0.4333  0.8473
  589MOL0     H77708   8.652   4.918   2.640 -0.8458 -0.7198  0.9359
  589MOL0     H77709   8.724   5.084   2.653  0.8926 -1.4853  0.3024
  589MOL0     H77710   8.658   5.004   2.446 -0.5045 -2.4026 -0.1910
  589MOL0     H77711   8.569   5.009   2.205  0.9798  2.6019  0.3623
  589MOL0     H77712   8.155   4.934   1.967  0.6959  0.5415  1.2677
  589MOL0     H77713   8.059   4.910   1.758 -1.3629  2.7859 -2.0671
  589MOL0     H77714   8.017   5.142   1.478  1.2720 -0.4847 -0.2236
  589MOL0     H77715   7.938   5.020   1.581  0.1580 -0.9037 -1.5933
  589MOL0     H77716   7.858   4.977   1.370 -0.0202  0.9274  0.0490
  589MOL0     H77717   7.980   4.856   1.379 -2.9270 -0.9790  1.5412
  589MOL0     H77718   8.002   5.125   1.218  1.1963  0.5625 -1.4598
  589MOL0     H77719   7.970   4.966   1.156  2.1340  0.6653 -1.8206
  589MOL0     H77720   8.224   5.052   1.286  0.7280  1.1140 -1.3083
  589MOL0     H77721   8.194   4.883   1.261  1.3496  0.2927  1.6444
  589MOL0     H77722   8.150   5.069   1.021  3.4411  0.3917 -2.4818
  589MOL0     H77723   8.203   4.904   1.019  0.3942 -1.7685  1.8218
  589MOL0     H77724   8.417   4.968   1.103 -1.2031 -0.4839 -0.6235
  589MOL0     H77725   8.373   5.142   1.106 -0.1319  0.8195 -1.0603
  589MOL0     H77726   8.332   5.150   0.879  3.1132  2.2133  0.2169
  589MOL0     H77727   8.487   5.100   0.907 -1.0412  2.9431 -1.2376
  589MOL0     H77728   8.246   4.931   0.806 -0.1394  0.4287 -0.1265
  589MOL0     H77729   8.404   4.851   0.841  0.5260  0.8404 -0.4656
  589MOL0     H77730   8.407   5.099   1.576 -0.1771 -1.6000 -1.6157
  589MOL0     H77731   8.488   5.158   1.782 -2.7082  2.6452  1.7515
  589MOL0     H77732   8.214   5.195   2.366 -1.0759 -2.9058 -1.1734
  589MOL0     H77733   8.309   5.139   2.612  0.9365 -0.5412  0.4530
  589MOL0     H77734   7.992   4.073   1.896  0.2222 -3.9684 -3.5076
  589MOL0     H77735   7.889   3.848   1.923 -0.4881 -1.4245 -0.8014
  589MOL0     H77736   7.646   3.553   2.047 -0.1865  2.4658 -0.6539
  589MOL0     H77737   7.544   3.340   2.098 -1.9582 -3.5242 -0.6443
  589MOL0     H77738   7.273   3.051   1.994  3.5513 -3.8525  3.9479
  589MOL0     H77739   7.425   3.098   2.066 -1.4699 -0.9486  2.8026
  589MOL0     H77740   7.516   3.144   1.834  0.2426  0.2091  0.1442
  589MOL0     H77741   7.474   2.978   1.867  0.9506  0.3699 -3.2296
  589MOL0     H77742   7.363   3.175   1.680 -1.1436  1.2999  2.0560
  589MOL0     H77743   7.248   3.057   1.742  0.2929 -1.7869 -2.7793
  589MOL0     H77744   7.412   2.869   1.694 -1.4878  0.3170  1.0078
  589MOL0     H77745   7.317   2.942   1.559 -2.8016 -0.5216  2.3123
  589MOL0     H77746   7.699   2.989   1.440  0.8021  1.0051  1.0349
  589MOL0     H77747   7.210   3.442   1.834  0.9100 -0.3831 -0.2345
  589MOL0     H77748   7.317   3.649   1.782 -0.8651  0.2422 -0.9304
  590MOL0     O77749   8.567   6.156   5.893  0.8862 -0.1418  0.3860
  590MOL0     C77750   8.648   6.234   5.839 -0.0828  0.5431 -0.1888
  590MOL0     O77751   8.774   6.239   5.878  0.3746  0.0919  0.0876
  590MOL0     C77752   8.841   6.126   5.923 -0.5775  0.2834 -1.8124
  590MOL0     C77753   8.800   6.060   6.038  0.4023 -0.2027 -0.1687
  590MOL0     C77754   8.859   5.938   6.072 -0.5163  0.3509 -0.8101
  590MOL0     C77755   8.972   5.889   6.013 -0.4616  0.4012  0.0933
  590MOL0     O77756   9.032   5.773   6.052 -0.2506 -0.1743 -0.3475
  590MOL0     C77757   9.170   5.793   6.102  1.0429  0.1565 -0.5484
  590MOL0     C77758   9.280   5.684   6.053 -0.9246 -0.3506 -0.6085
  590MOL0     C77759   9.397   5.753   5.981  0.9384  0.3779  0.0100
  590MOL0     C77760   9.534   5.672   5.966  0.3008  0.3529 -0.8200
  590MOL0     C77761   9.637   5.754   5.898  1.0121  0.1855  0.1081
  590MOL0     C77762   9.773   5.682   5.898  0.5383  0.2361  0.6762
  590MOL0     C77763   9.766   5.557   5.809  0.3614 -0.3848 -0.2533
  590MOL0     C77764   9.906   5.519   5.759 -0.1873 -0.1066  0.9104
  590MOL0     N77765   9.961   5.625   5.669 -0.0481  0.0165  0.5204
  590MOL0     C77766  10.097   5.660   5.672 -0.3668 -0.4918 -0.1472
  590MOL0     C77767  10.114   5.759   5.575 -0.3181  0.1892  0.1780
  590MOL0     C77768  10.240   5.837   5.545  0.2193  0.2446  0.1879
  590MOL0     C77769  10.270   5.821   5.399  0.2164  0.5970  0.0583
  590MOL0     C77770  10.296   5.679   5.338 -0.2310  0.3010 -0.2504
  590MOL0     C77771  10.405   5.617   5.416  0.0005 -0.5354  0.5662
  590MOL0     O77772  10.525   5.716   5.434  0.4281  0.2704 -0.6018
  590MOL0     C77773  10.622   5.694   5.532 -0.2692  0.0051  0.1648
  590MOL0     C77774  10.631   5.578   5.615  0.3079  0.0670  1.5150
  590MOL0     C77775  10.730   5.566   5.708  0.0249  0.5885  0.5247
  590MOL0     C77776  10.826   5.661   5.734 -1.3071  0.1768  0.6690
  590MOL0     C77777  10.937   5.639   5.845  0.5771 -0.3655  0.2604
  590MOL0     O77778  10.986   5.753   5.910  0.1093  0.0895 -1.0192
  590MOL0     C77779  11.075   5.752   6.018  0.6083 -0.0657 -0.5081
  590MOL0     C77780  11.154   5.869   6.039  0.7396  0.7507 -0.0996
  590MOL0     C77781  11.256   5.863   6.144  0.6787  0.0751 -0.3119
  590MOL0     C77782  11.262   5.756   6.221 -0.4239  0.0735  0.0329
  590MOL0     O77783  11.357   5.747   6.320 -0.1844 -0.5712  0.6715
  590MOL0     C77784  11.485   5.690   6.275  0.2163  0.3616  0.6978
  590MOL0     C77785  11.567   5.586   6.374 -0.2074  0.3073  0.0561
  590MOL0     C77786  11.687   5.531   6.302  0.0569  0.3785 -0.0306
  590MOL0     C77787  11.786   5.462   6.384 -0.7990  0.6297  0.8327
  590MOL0     C77788  11.802   5.306   6.342  0.5369  1.2714 -0.1770
  590MOL0     C77789  11.670   5.233   6.356  0.2341 -0.2431  0.5893
  590MOL0     C77790  11.701   5.075   6.338 -0.4556 -0.8271  0.0171
  590MOL0     C77791  11.573   4.990   6.347 -0.6078  0.1980  0.6242
  590MOL0    Cl77792  11.603   4.818   6.318 -0.0347  0.5104 -0.0784
  590MOL0     C77793  11.183   5.645   6.204  0.4242 -0.3450  0.1939
  590MOL0     C77794  11.085   5.639   6.107 -0.1380  0.3642 -0.7291
  590MOL0     O77795  10.968   5.527   5.865  0.5815 -0.9134 -0.5653
  590MOL0     C77796  10.818   5.780   5.653  0.1415 -0.4363 -0.4175
  590MOL0     C77797  10.724   5.791   5.551 -0.8013  0.8474 -0.5657
  590MOL0     N77798   9.992   5.775   5.511  0.4748 -0.8457  0.1885
  590MOL0     N77799   9.906   5.698   5.567 -0.8375 -0.5198  1.1397
  590MOL0     C77800   9.016   5.959   5.898  0.1672  0.1475  1.1411
  590MOL0     C77801   8.946   6.070   5.851 -0.4989  0.4973 -0.0003
  590MOL0     C77802   8.600   6.321   5.736  0.1120 -0.3030  0.2286
  590MOL0     C77803   8.680   6.425   5.681 -1.4988 -0.2713  0.6309
  590MOL0     C77804   8.622   6.514   5.582 -0.8172 -0.4049 -0.1724
  590MOL0     C77805   8.485   6.499   5.546 -0.1658  0.0567 -0.4061
  590MOL0     O77806   8.437   6.576   5.441 -0.5088  0.3226 -0.0610
  590MOL0     C77807   8.372   6.702   5.470  0.4492 -0.6263  0.4688
  590MOL0     C77808   8.346   6.787   5.348  0.3040  0.2259  0.0282
  590MOL0     C77809   8.231   6.724   5.267 -0.1191  0.3622  0.8247
  590MOL0     C77810   8.185   6.771   5.131 -0.2040 -0.3578  0.6474
  590MOL0     C77811   8.154   6.915   5.130 -0.6189  0.8858 -0.0174
  590MOL0     C77812   8.131   7.036   5.124 -0.3159  0.5641  0.3306
  590MOL0     C77813   8.416   6.406   5.608 -0.2406 -0.8815  0.6862
  590MOL0     C77814   8.468   6.320   5.700 -0.4698  0.2091  0.3201
  590MOL0     H77815   8.727   6.108   6.104 -0.2511 -1.5892  0.1535
  590MOL0     H77816   8.811   5.888   6.155 -0.7457 -0.4546 -1.4142
  590MOL0     H77817   9.162   5.786   6.211  2.0459 -0.1990 -0.4872
  590MOL0     H77818   9.207   5.893   6.076 -3.1125  2.2931  0.7743
  590MOL0     H77819   9.237   5.597   6.003  1.6827 -1.5859 -0.8470
  590MOL0     H77820   9.316   5.643   6.148  0.3434 -0.6703 -1.2123
  590MOL0     H77821   9.425   5.843   6.037  0.2803  0.8107 -0.3402
  590MOL0     H77822   9.368   5.785   5.880  1.0763  1.2248  0.2285
  590MOL0     H77823   9.559   5.654   6.071 -2.5285  0.5378 -0.0137
  590MOL0     H77824   9.517   5.576   5.917  1.1970 -0.3755  0.2294
  590MOL0     H77825   9.658   5.854   5.938  0.9373 -1.2808  4.2981
  590MOL0     H77826   9.605   5.772   5.795 -1.8857  1.5571  1.1154
  590MOL0     H77827   9.825   5.658   5.991  3.8762 -0.6783 -1.2587
  590MOL0     H77828   9.840   5.755   5.851  2.9711 -2.2833 -0.0378
  590MOL0     H77829   9.735   5.474   5.874  2.0947 -1.8525 -1.2191
  590MOL0     H77830   9.686   5.587   5.741 -0.6154  0.9820  1.4049
  590MOL0     H77831   9.904   5.437   5.687  0.8128 -1.1093  1.9857
  590MOL0     H77832   9.977   5.506   5.841  0.4146 -2.5133  0.1047
  590MOL0     H77833  10.166   5.616   5.742  1.2051  0.8988 -0.7716
  590MOL0     H77834  10.320   5.804   5.611 -0.6500  1.6689  2.0703
  590MOL0     H77835  10.231   5.943   5.573  2.4286 -0.0921  2.5391
  590MOL0     H77836  10.363   5.878   5.383  2.1323 -1.8248  1.8019
  590MOL0     H77837  10.186   5.863   5.344  1.0584  0.1888 -1.6021
  590MOL0     H77838  10.204   5.619   5.338 -1.8623  2.6204  1.3940
  590MOL0     H77839  10.329   5.697   5.236 -3.1616  0.1411 -1.3139
  590MOL0     H77840  10.449   5.538   5.354  2.1975  1.5265 -0.6739
  590MOL0     H77841  10.375   5.582   5.515 -0.4463 -0.9077  0.3041
  590MOL0     H77842  10.566   5.491   5.611  1.6727 -0.9555 -0.3217
  590MOL0     H77843  10.737   5.485   5.780  2.7066  3.0203  3.2505
  590MOL0     H77844  11.147   5.962   5.985  0.3967  2.3768  2.5811
  590MOL0     H77845  11.328   5.941   6.164  1.5392 -0.6445 -0.5569
  590MOL0     H77846  11.548   5.774   6.242 -0.0091  0.3792  0.2996
  590MOL0     H77847  11.475   5.624   6.189 -2.2923 -0.5750  1.6443
  590MOL0     H77848  11.501   5.508   6.413 -2.1501  0.6853 -2.2500
  590MOL0     H77849  11.609   5.648   6.454 -0.1136  0.2532  0.0487
  590MOL0     H77850  11.748   5.600   6.244 -2.4087 -1.8149 -6.0071
  590MOL0     H77851  11.647   5.463   6.226 -0.6166  0.1063  0.5493
  590MOL0     H77852  11.888   5.501   6.372 -0.8368  0.1174 -1.5485
  590MOL0     H77853  11.756   5.469   6.489  0.3459 -2.1514  1.4158
  590MOL0     H77854  11.884   5.266   6.403 -0.4784  0.9816  1.0097
  590MOL0     H77855  11.835   5.288   6.239  1.2480 -2.4069  0.5487
  590MOL0     H77856  11.599   5.262   6.279  0.8954 -2.0655 -0.7853
  590MOL0     H77857  11.626   5.268   6.450  0.0371 -2.1649  1.2460
  590MOL0     H77858  11.743   5.050   6.240 -2.2693 -2.7991 -0.3382
  590MOL0     H77859  11.770   5.038   6.414 -3.0221 -1.0957  2.3962
  590MOL0     H77860  11.483   5.019   6.292 -1.4922 -0.0051  1.9161
  590MOL0     H77861  11.534   4.998   6.448  0.4341  2.7626  0.9194
  590MOL0     H77862  11.190   5.554   6.262  0.3725 -1.0068 -0.8218
  590MOL0     H77863  11.014   5.559   6.091 -3.2330  3.0986 -1.8380
  590MOL0     H77864  10.897   5.854   5.661  0.2356 -0.5710 -0.0979
  590MOL0     H77865  10.708   5.879   5.489 -2.0912  0.0462 -1.4223
  590MOL0     H77866   9.112   5.934   5.854 -0.9946  0.9114 -2.1132
  590MOL0     H77867   8.981   6.129   5.767 -1.4961  0.1499 -0.6758
  590MOL0     H77868   8.784   6.444   5.704 -1.1336  0.2967 -1.2770
  590MOL0     H77869   8.685   6.573   5.516 -2.9933  1.6506 -0.5244
  590MOL0     H77870   8.439   6.761   5.532  2.9370  0.3841 -2.8893
  590MOL0     H77871   8.272   6.688   5.514 -0.5007  3.0858 -0.2273
  590MOL0     H77872   8.309   6.878   5.397 -2.2183 -0.4094 -0.5450
  590MOL0     H77873   8.441   6.804   5.296 -0.0075  4.1385  0.3886
  590MOL0     H77874   8.138   6.723   5.324 -1.6220 -1.2129 -1.4923
  590MOL0     H77875   8.260   6.618   5.266 -1.1175  0.0674 -1.0067
  590MOL0     H77876   8.264   6.754   5.058  0.1284 -1.7618  1.3193
  590MOL0     H77877   8.094   6.716   5.107  0.0219 -0.8846  0.9967
  590MOL0     H77878   8.133   7.143   5.135  4.2422  0.8847 -1.2701
  590MOL0     H77879   8.313   6.385   5.578 -1.3418  2.3576  1.7751
  590MOL0     H77880   8.403   6.243   5.739 -1.2560  0.3630 -0.6455
  591MOL0     O77881   1.523   0.817   4.135 -0.5308  0.8877  0.2369
  591MOL0     C77882   1.617   0.743   4.105 -0.6198 -0.7081  1.0634
  591MOL0     O77883   1.751   0.767   4.115  0.0480  0.1411  0.1606
  591MOL0     C77884   1.790   0.901   4.141  0.7569 -0.1584  0.8384
  591MOL0     C77885   1.774   0.993   4.034  0.9621 -0.1495 -0.0581
  591MOL0     C77886   1.817   1.127   4.057 -0.1964  0.0860 -0.0270
  591MOL0     C77887   1.883   1.161   4.180  0.0084  0.1672 -0.0186
  591MOL0     O77888   1.926   1.293   4.197  0.3124  0.3347  0.4591
  591MOL0     C77889   1.975   1.370   4.085 -0.4255  0.8432  0.7360
  591MOL0     C77890   2.045   1.486   4.151 -0.2903 -0.6882  0.2283
  591MOL0     C77891   2.092   1.575   4.041 -0.4050  0.6021 -0.2017
  591MOL0     C77892   2.177   1.511   3.927 -0.2503  1.1529  1.0470
  591MOL0     C77893   2.258   1.617   3.843  0.6486  0.0577 -0.0898
  591MOL0     C77894   2.173   1.722   3.771 -0.3768 -0.4136 -0.8620
  591MOL0     C77895   2.251   1.792   3.664 -0.0419  0.4475 -0.2748
  591MOL0     C77896   2.155   1.879   3.590  1.2207  0.2278  0.3724
  591MOL0     N77897   2.216   1.964   3.480 -0.4800 -0.0505  0.1582
  591MOL0     C77898   2.279   2.085   3.507 -0.3261  0.0047  1.1612
  591MOL0     C77899   2.336   2.121   3.384  0.3442  0.2407  0.0131
  591MOL0     C77900   2.422   2.245   3.340  0.4510 -0.3499  0.5651
  591MOL0     C77901   2.564   2.197   3.312 -0.7718 -0.6484 -0.3870
  591MOL0     C77902   2.669   2.310   3.277 -0.4181  0.6146  0.2261
  591MOL0     C77903   2.804   2.244   3.236  0.5106 -0.0827  0.3971
  591MOL0     O77904   2.886   2.241   3.354 -0.7200  0.0813  0.8228
  591MOL0     C77905   2.975   2.139   3.358  0.9812  0.1042  0.4799
  591MOL0     C77906   2.938   2.018   3.414  0.6203  0.0435  0.3473
  591MOL0     C77907   3.030   1.912   3.405  0.2009 -0.1856  0.8473
  591MOL0     C77908   3.158   1.935   3.362 -0.0650 -0.8177  0.1812
  591MOL0     C77909   3.244   1.821   3.370  0.3344 -0.5653 -0.6307
  591MOL0     O77910   3.191   1.696   3.370 -0.0585 -0.1031 -0.2498
  591MOL0     C77911   3.261   1.581   3.398 -0.2439  0.8591  0.0620
  591MOL0     C77912   3.392   1.568   3.453  0.1021  0.1083  0.5145
  591MOL0     C77913   3.454   1.450   3.434 -0.5029 -0.2728 -0.6334
  591MOL0     C77914   3.379   1.332   3.426 -0.6193 -0.7410 -0.1256
  591MOL0     O77915   3.451   1.210   3.434  0.6122  0.4318 -0.1208
  591MOL0     C77916   3.367   1.092   3.435 -1.0126 -1.1644 -0.5618
  591MOL0     C77917   3.443   0.954   3.474 -0.5615  0.6789  0.5389
  591MOL0     C77918   3.548   0.921   3.365  0.1832 -0.1883 -0.6131
  591MOL0     C77919   3.606   0.778   3.375 -0.3252  0.1511  0.6047
  591MOL0     C77920   3.674   0.744   3.250 -0.4892 -0.4345  0.7953
  591MOL0     C77921   3.743   0.608   3.258  0.8675  0.2888 -0.1752
  591MOL0     C77922   3.855   0.569   3.369 -0.1234 -0.6460 -0.3305
  591MOL0     C77923   3.958   0.682   3.392 -0.1313  0.3252  0.6240
  591MOL0    Cl77924   4.095   0.646   3.276  0.2226  0.5108  0.0666
  591MOL0     C77925   3.237   1.345   3.390 -0.5377  1.1468 -0.4051
  591MOL0     C77926   3.184   1.470   3.387 -0.2039  0.3291  0.4372
  591MOL0     O77927   3.364   1.849   3.375  0.9844  0.1734  0.3644
  591MOL0     C77928   3.200   2.062   3.328  0.0791 -0.0052  0.2021
  591MOL0     C77929   3.107   2.162   3.315  0.5135  0.0367 -0.8526
  591MOL0     N77930   2.304   2.027   3.288 -0.2082 -0.0201 -0.2565
  591MOL0     N77931   2.247   1.929   3.355  0.1831  0.0588  0.2832
  591MOL0     C77932   1.888   1.071   4.281 -0.2125  1.1123 -0.0820
  591MOL0     C77933   1.840   0.937   4.263  0.6810  0.1818 -1.0895
  591MOL0     C77934   1.585   0.600   4.063 -0.2819  0.0983 -0.6374
  591MOL0     C77935   1.682   0.523   4.020 -0.3726  0.6095  0.7236
  591MOL0     C77936   1.649   0.394   3.976 -0.5215 -0.4378 -1.0182
  591MOL0     C77937   1.523   0.335   3.990 -0.0323 -0.4048 -0.4154
  591MOL0     O77938   1.476   0.212   3.940  0.4748  0.1470 -0.1597
  591MOL0     C77939   1.571   0.158   3.840 -0.0159 -0.3967 -0.9761
  591MOL0     C77940   1.489   0.066   3.750  0.8359 -0.4315  0.4914
  591MOL0     C77941   1.416  -0.057   3.814  0.2890  0.2137  0.6048
  591MOL0     C77942   1.325  -0.126   3.719 -0.0043  0.3201 -0.8760
  591MOL0     C77943   1.405  -0.205   3.623  0.6939 -0.8591 -0.1089
  591MOL0     C77944   1.455  -0.278   3.542 -0.3411  0.0837  0.3414
  591MOL0     C77945   1.421   0.420   4.027  0.1522  0.4670 -0.1080
  591MOL0     C77946   1.462   0.545   4.077  0.6766 -0.3194  0.6928
  591MOL0     H77947   1.736   0.964   3.936 -1.8556 -1.6595  1.3556
  591MOL0     H77948   1.827   1.197   3.974  2.1570 -0.2973 -0.1331
  591MOL0     H77949   1.894   1.391   4.014  1.0210 -0.7516 -1.5361
  591MOL0     H77950   2.054   1.310   4.040 -0.6369 -1.1795  2.8767
  591MOL0     H77951   2.141   1.461   4.196  0.6683 -0.9981 -1.8970
  591MOL0     H77952   1.985   1.540   4.225  1.0542  3.0330 -1.1742
  591MOL0     H77953   2.162   1.645   4.088  1.8478 -0.0926 -2.3267
  591MOL0     H77954   2.005   1.623   3.994 -0.4681  1.2520  0.5632
  591MOL0     H77955   2.243   1.446   3.985  1.2112  1.5296 -0.1564
  591MOL0     H77956   2.112   1.454   3.860 -1.7079  2.8683  0.9125
  591MOL0     H77957   2.319   1.568   3.767 -1.3674 -0.5519 -1.3879
  591MOL0     H77958   2.343   1.659   3.898  1.8338 -1.4346 -0.6908
  591MOL0     H77959   2.148   1.789   3.854 -0.6245 -1.6070  0.0448
  591MOL0     H77960   2.088   1.668   3.729 -0.8586 -0.1890 -0.1915
  591MOL0     H77961   2.329   1.859   3.702  0.9753  1.1734 -3.3615
  591MOL0     H77962   2.305   1.723   3.598  2.1129  1.0226  0.7744
  591MOL0     H77963   2.106   1.945   3.662  0.7634  0.4548 -0.1344
  591MOL0     H77964   2.077   1.810   3.556 -1.1157  1.5010  2.7575
  591MOL0     H77965   2.299   2.137   3.601  1.6303 -0.3190  0.9702
  591MOL0     H77966   2.408   2.330   3.408  3.1614  1.1830 -0.6184
  591MOL0     H77967   2.386   2.282   3.244  0.0133  0.1048  0.8981
  591MOL0     H77968   2.564   2.119   3.235  3.6249  0.0773 -1.4038
  591MOL0     H77969   2.614   2.147   3.396  0.2032 -1.1202 -1.2177
  591MOL0     H77970   2.648   2.359   3.182  0.8769  0.8348  0.0305
  591MOL0     H77971   2.681   2.380   3.360 -0.4455  0.8593  0.0215
  591MOL0     H77972   2.847   2.312   3.162  0.9979  1.0367  1.6597
  591MOL0     H77973   2.785   2.151   3.182 -0.7599  0.3382  0.0724
  591MOL0     H77974   2.840   2.004   3.459  1.3628  2.3356  3.0325
  591MOL0     H77975   2.991   1.812   3.420 -1.4488  0.1879 -0.6528
  591MOL0     H77976   3.454   1.653   3.480 -1.0442  1.1260  0.1040
  591MOL0     H77977   3.559   1.445   3.463 -0.3489  4.5071  0.4977
  591MOL0     H77978   3.330   1.076   3.334  1.8842  0.8943 -2.0855
  591MOL0     H77979   3.285   1.102   3.506 -2.0047  0.4118 -1.8680
  591MOL0     H77980   3.381   0.866   3.492  2.3846 -1.7447 -0.3788
  591MOL0     H77981   3.497   0.978   3.566  4.3166  5.2779 -2.9510
  591MOL0     H77982   3.617   1.002   3.342 -2.0436  1.0160 -3.8401
  591MOL0     H77983   3.502   0.912   3.266 -1.4172  1.4197 -0.0653
  591MOL0     H77984   3.675   0.769   3.459  3.8484 -0.7345 -2.5518
  591MOL0     H77985   3.522   0.710   3.392  0.7428 -0.9168  1.8175
  591MOL0     H77986   3.740   0.827   3.222 -0.9398 -0.1629  0.5122
  591MOL0     H77987   3.599   0.739   3.170  1.6533  0.9596 -1.4522
  591MOL0     H77988   3.789   0.582   3.163 -0.4720  1.5021 -1.2083
  591MOL0     H77989   3.663   0.535   3.274  1.3415 -0.1633  0.1488
  591MOL0     H77990   3.805   0.541   3.463 -1.1348  1.3744 -0.2074
  591MOL0     H77991   3.917   0.483   3.343  1.6680 -0.1965  2.0279
  591MOL0     H77992   3.995   0.684   3.495  3.6198 -0.2334 -0.5833
  591MOL0     H77993   3.912   0.777   3.364 -1.4661 -0.7156 -0.9147
  591MOL0     H77994   3.175   1.255   3.381  0.2184 -0.5735  6.2219
  591MOL0     H77995   3.077   1.490   3.380 -0.4849  1.4255  4.9398
  591MOL0     H77996   3.304   2.076   3.302  0.1590 -2.1935 -0.8842
  591MOL0     H77997   3.133   2.255   3.265 -0.0993  0.4121 -0.4842
  591MOL0     H77998   1.918   1.109   4.378  0.0306  0.2295  0.1999
  591MOL0     H77999   1.842   0.862   4.342 -2.2055  1.1934  0.0880
  591MOL0     H78000   1.788   0.546   4.010  0.4373 -1.9337  2.4723
  591MOL0     H78001   1.732   0.338   3.933  1.8135  1.4888  0.6792
  591MOL0     H78002   1.653   0.097   3.881 -2.2743 -1.7854  1.8584
  591MOL0     H78003   1.612   0.238   3.778  0.0716 -0.1646 -0.6267
  591MOL0     H78004   1.413   0.124   3.697  1.6658  0.9090  0.7147
  591MOL0     H78005   1.553   0.025   3.672 -1.7094 -1.7049 -1.0424
  591MOL0     H78006   1.372  -0.033   3.910  2.7891 -2.2930  2.5607
  591MOL0     H78007   1.488  -0.137   3.836  1.1433 -0.0539 -2.5498
  591MOL0     H78008   1.266  -0.204   3.768  0.1109 -0.0180 -1.2644
  591MOL0     H78009   1.258  -0.063   3.660 -1.3376 -0.1938  0.0583
  591MOL0     H78010   1.508  -0.335   3.468  2.0401  0.8893  1.3280
  591MOL0     H78011   1.314   0.401   4.023 -0.0816  1.7858 -0.5216
  591MOL0     H78012   1.386   0.619   4.101  2.4768  1.0339  2.4911
  592MOL0     O78013   0.302   1.139   8.105  0.0824 -0.1660 -0.2362
  592MOL0     C78014   0.399   1.082   8.062 -0.2089  1.0135 -0.1821
  592MOL0     O78015   0.463   1.100   7.944 -0.3560  0.3163 -0.4847
  592MOL0     C78016   0.417   1.203   7.869 -0.3821  0.4295 -0.2797
  592MOL0     C78017   0.382   1.329   7.922 -0.2972 -0.1931 -0.2004
  592MOL0     C78018   0.340   1.432   7.835  0.4234 -0.0388  0.4943
  592MOL0     C78019   0.321   1.407   7.699 -0.4443 -0.4495 -0.1847
  592MOL0     O78020   0.244   1.494   7.629  0.1983  0.1993 -0.4603
  592MOL0     C78021   0.248   1.515   7.488  0.8171  0.9152  0.0150
  592MOL0     C78022   0.388   1.548   7.446  0.2699  0.2148 -0.0058
  592MOL0     C78023   0.418   1.696   7.476  0.4701 -0.3423  0.3436
  592MOL0     C78024   0.320   1.781   7.384  0.5159 -0.6292  0.1202
  592MOL0     C78025   0.382   1.925   7.353 -0.4318  0.4138  1.3602
  592MOL0     C78026   0.376   2.023   7.460  0.3494  0.0837 -0.9007
  592MOL0     C78027   0.241   2.054   7.530 -0.2231 -1.5146  0.2433
  592MOL0     C78028   0.260   2.186   7.615  0.0474  1.7163 -0.3697
  592MOL0     N78029   0.140   2.213   7.705 -0.8557 -0.9409  0.7810
  592MOL0     C78030   0.030   2.136   7.726  1.0303  0.0343 -0.2010
  592MOL0     C78031  -0.024   2.185   7.834 -0.6667  0.0345 -1.5078
  592MOL0     C78032  -0.154   2.146   7.895 -0.4460  0.0563 -0.4672
  592MOL0     C78033  -0.146   2.054   8.017  0.1312  0.1133 -0.6863
  592MOL0     C78034  -0.083   1.912   8.010  0.6523  0.2155  0.7251
  592MOL0     C78035  -0.099   1.833   8.138 -0.2163  0.3245 -0.5394
  592MOL0     O78036  -0.233   1.837   8.195  0.6059  0.2379  0.0185
  592MOL0     C78037  -0.255   1.784   8.314 -0.0807 -0.4903 -0.6858
  592MOL0     C78038  -0.356   1.692   8.337  0.0239 -0.5369 -0.2609
  592MOL0     C78039  -0.379   1.628   8.465  1.4037 -0.7713  0.4876
  592MOL0     C78040  -0.285   1.648   8.576 -0.8303 -0.7333 -0.4598
  592MOL0     C78041  -0.296   1.577   8.702  0.6037  0.0055 -0.2905
  592MOL0     O78042  -0.224   1.612   8.812  0.2216 -0.0071 -0.2494
  592MOL0     C78043  -0.241   1.554   8.932  0.5032 -0.4901 -0.1365
  592MOL0     C78044  -0.134   1.553   9.017  0.5600 -0.0484  0.6093
  592MOL0     C78045  -0.136   1.476   9.128  0.5966 -0.0692 -0.5108
  592MOL0     C78046  -0.251   1.412   9.173  0.1759 -1.0372  0.0945
  592MOL0     O78047  -0.245   1.343   9.287  0.0262 -0.1064 -0.4980
  592MOL0     C78048  -0.333   1.235   9.308 -1.6080 -0.5531 -0.7480
  592MOL0     C78049  -0.423   1.254   9.439 -1.1079  0.8483  0.1429
  592MOL0     C78050  -0.521   1.146   9.433  0.9639  0.4546 -0.3182
  592MOL0     C78051  -0.634   1.170   9.538 -0.1650 -0.3113 -0.8527
  592MOL0     C78052  -0.730   1.055   9.523 -0.1635 -0.5724  0.0388
  592MOL0     C78053  -0.853   1.080   9.434 -0.4942  0.6503 -0.6987
  592MOL0     C78054  -0.961   1.136   9.520 -0.2967  0.3023 -0.0393
  592MOL0     C78055  -1.097   1.121   9.453 -0.1622 -0.3910 -0.0266
  592MOL0    Cl78056  -1.089   1.173   9.289 -0.1290  0.7208  0.0012
  592MOL0     C78057  -0.372   1.427   9.099 -0.8710 -0.7589 -0.4676
  592MOL0     C78058  -0.362   1.503   8.975  0.3914 -0.1953 -0.6937
  592MOL0     O78059  -0.382   1.489   8.698 -0.9798 -0.9722 -0.3570
  592MOL0     C78060  -0.196   1.754   8.549 -1.0231 -0.7813 -0.7234
  592MOL0     C78061  -0.185   1.823   8.430 -0.4094 -0.0971  0.1395
  592MOL0     N78062   0.057   2.282   7.888  0.4632 -0.0466 -0.6106
  592MOL0     N78063   0.161   2.297   7.808  0.1774 -0.3787 -0.0779
  592MOL0     C78064   0.372   1.287   7.648  1.1286  0.2602 -0.3212
  592MOL0     C78065   0.423   1.181   7.730  0.6640  0.0915  0.2886
  592MOL0     C78066   0.451   0.989   8.158 -0.4389  0.0175 -0.4617
  592MOL0     C78067   0.407   0.984   8.296 -0.6012  0.7613 -0.5814
  592MOL0     C78068   0.468   0.879   8.377  0.2139 -0.5094  0.3428
  592MOL0     C78069   0.572   0.802   8.328 -0.2656 -0.0992  0.5453
  592MOL0     O78070   0.634   0.712   8.415 -0.2433 -0.3540 -1.0452
  592MOL0     C78071   0.647   0.576   8.383 -0.4758 -0.0033 -0.4047
  592MOL0     C78072   0.710   0.498   8.496 -0.2944 -0.2795  0.2952
  592MOL0     C78073   0.606   0.446   8.600 -0.7915 -0.7499 -0.5767
  592MOL0     C78074   0.606   0.299   8.630  0.4335  0.7312  0.3558
  592MOL0     C78075   0.721   0.255   8.706  0.5222  1.1275 -0.0804
  592MOL0     C78076   0.817   0.216   8.769 -1.1226 -0.6412 -0.1538
  592MOL0     C78077   0.617   0.816   8.196 -0.6126  0.4002  0.4946
  592MOL0     C78078   0.556   0.907   8.108  0.3013 -0.5030 -0.7374
  592MOL0     H78079   0.382   1.350   8.029  3.2160  0.1485 -0.1296
  592MOL0     H78080   0.309   1.523   7.887  1.1865 -0.8349  2.4149
  592MOL0     H78081   0.178   1.592   7.453  0.6004  2.0775  2.7924
  592MOL0     H78082   0.226   1.414   7.451  0.5319  0.0378  2.3869
  592MOL0     H78083   0.399   1.542   7.338 -2.7831  1.2389 -0.4767
  592MOL0     H78084   0.464   1.479   7.485  0.1398  0.7133  1.2020
  592MOL0     H78085   0.523   1.711   7.449  1.1359 -3.3112  0.9893
  592MOL0     H78086   0.409   1.727   7.580 -0.2524  0.3324  0.0924
  592MOL0     H78087   0.305   1.734   7.286  5.2460  0.4138 -1.3675
  592MOL0     H78088   0.226   1.799   7.437 -0.5057 -0.1107 -1.7815
  592MOL0     H78089   0.336   1.966   7.263 -0.0829 -0.5906  0.7084
  592MOL0     H78090   0.485   1.900   7.323 -2.0658 -1.8327 -3.2690
  592MOL0     H78091   0.410   2.115   7.411 -0.5838  0.9176 -0.0140
  592MOL0     H78092   0.454   1.996   7.532  1.5697 -2.2007 -2.9071
  592MOL0     H78093   0.166   2.078   7.454  0.3827 -1.9981 -0.5143
  592MOL0     H78094   0.213   1.971   7.597 -0.5374 -0.9223  0.8635
  592MOL0     H78095   0.274   2.273   7.551 -1.5384  2.6062  0.4355
  592MOL0     H78096   0.346   2.168   7.680 -0.5809 -0.1100  0.0377
  592MOL0     H78097  -0.016   2.057   7.667  0.4396 -0.8732  1.3979
  592MOL0     H78098  -0.209   2.095   7.815  1.6989  0.3803 -2.2422
  592MOL0     H78099  -0.214   2.234   7.922 -2.3732 -1.1042 -0.7464
  592MOL0     H78100  -0.251   2.042   8.046  0.0842  2.8662  0.5877
  592MOL0     H78101  -0.096   2.109   8.097 -1.8975 -2.6776  2.7446
  592MOL0     H78102  -0.127   1.855   7.927  1.4477 -0.5126  0.7825
  592MOL0     H78103   0.022   1.912   7.979  0.4327 -1.0852 -0.1177
  592MOL0     H78104  -0.032   1.869   8.217 -1.5659  1.8766 -0.0324
  592MOL0     H78105  -0.070   1.728   8.130 -0.2654  0.1295  1.3583
  592MOL0     H78106  -0.426   1.666   8.258  0.1124  2.3262 -1.3988
  592MOL0     H78107  -0.460   1.556   8.461  0.1138  0.6071  0.9162
  592MOL0     H78108  -0.053   1.610   8.975 -0.4907  0.6260 -0.5789
  592MOL0     H78109  -0.048   1.449   9.186  0.9818  2.5667  0.2391
  592MOL0     H78110  -0.271   1.147   9.324  1.2689  1.4587  0.0165
  592MOL0     H78111  -0.382   1.210   9.213 -1.2523 -0.3481 -0.9871
  592MOL0     H78112  -0.476   1.350   9.437  1.5300  2.3965  0.1275
  592MOL0     H78113  -0.358   1.244   9.526  0.7811  0.9460 -1.2045
  592MOL0     H78114  -0.476   1.053   9.471 -0.5945 -0.1231  0.1930
  592MOL0     H78115  -0.554   1.142   9.329  2.1496  3.0437 -0.8829
  592MOL0     H78116  -0.595   1.175   9.640  1.4063 -2.4458 -1.2819
  592MOL0     H78117  -0.675   1.270   9.518  1.7858  0.7746  0.3362
  592MOL0     H78118  -0.762   1.030   9.624 -0.0575  0.8381  0.4539
  592MOL0     H78119  -0.676   0.972   9.476  2.9217  1.8572 -1.1173
  592MOL0     H78120  -0.895   0.979   9.428 -0.8873  0.6963  0.8473
  592MOL0     H78121  -0.824   1.108   9.333  0.0031 -3.4557 -1.8602
  592MOL0     H78122  -0.974   1.077   9.611 -2.8429 -1.9018 -1.6987
  592MOL0     H78123  -0.947   1.240   9.551 -0.2652 -0.4440  2.8031
  592MOL0     H78124  -1.167   1.180   9.513  1.2883  0.4146  0.9180
  592MOL0     H78125  -1.125   1.016   9.452 -1.4887 -0.0562  0.1843
  592MOL0     H78126  -0.466   1.386   9.134 -2.1285  0.6646 -2.0526
  592MOL0     H78127  -0.458   1.522   8.928 -0.7394 -0.5962  1.3542
  592MOL0     H78128  -0.125   1.776   8.628  0.0391 -1.2660 -1.5191
  592MOL0     H78129  -0.110   1.899   8.414  1.5334 -1.5704  1.7094
  592MOL0     H78130   0.371   1.272   7.541 -0.1789 -0.9555 -0.1817
  592MOL0     H78131   0.472   1.095   7.684  2.4209  2.0533 -1.7373
  592MOL0     H78132   0.334   1.050   8.342  0.4754  1.9019 -0.4494
  592MOL0     H78133   0.450   0.847   8.479  0.3299 -1.1163  0.1758
  592MOL0     H78134   0.719   0.575   8.301 -0.4601  0.7073 -0.4080
  592MOL0     H78135   0.557   0.539   8.334 -1.0347  2.1603 -1.1286
  592MOL0     H78136   0.741   0.404   8.449  0.8573  0.3799 -0.3111
  592MOL0     H78137   0.793   0.557   8.535  1.7997 -1.1967 -2.4277
  592MOL0     H78138   0.504   0.480   8.582 -0.8327  0.1403  1.1322
  592MOL0     H78139   0.633   0.502   8.690 -2.9013  4.5989 -2.9037
  592MOL0     H78140   0.516   0.279   8.689  1.5256 -0.2775  1.7418
  592MOL0     H78141   0.597   0.251   8.532 -0.5824  3.5005 -1.0173
  592MOL0     H78142   0.882   0.153   8.826 -1.4046 -2.0483 -1.3243
  592MOL0     H78143   0.705   0.765   8.158  1.0687  2.2596  1.6892
  592MOL0     H78144   0.592   0.925   8.007  0.2380  0.1504 -0.6472
  593MOL0     O78145  11.208   6.080  10.886  0.6234  0.6307  0.5524
  593MOL0     C78146  11.177   6.079  10.765  1.3347  0.6718  0.2126
  593MOL0     O78147  11.208   5.981  10.681 -0.0593 -0.0079  0.2288
  593MOL0     C78148  11.305   5.884  10.712  0.4420 -0.8291 -0.3272
  593MOL0     C78149  11.315   5.783  10.624  0.3916 -0.7519 -0.5447
  593MOL0     C78150  11.416   5.690  10.632 -0.1779  0.1058 -0.5607
  593MOL0     C78151  11.525   5.711  10.726 -0.7030  0.2824  1.1842
  593MOL0     O78152  11.628   5.619  10.705 -0.6019 -0.2833  0.4508
  593MOL0     C78153  11.751   5.609  10.781 -0.3354  1.0908  0.1319
  593MOL0     C78154  11.719   5.559  10.915 -0.0417 -0.2304  0.5485
  593MOL0     C78155  11.692   5.406  10.918 -0.0054  0.9498 -0.4470
  593MOL0     C78156  11.675   5.365  11.063 -0.8241 -0.5013  0.2835
  593MOL0     C78157  11.642   5.222  11.082 -0.5696  0.2369  0.6413
  593MOL0     C78158  11.675   5.164  11.227 -0.0338 -0.7922 -0.0941
  593MOL0     C78159  11.580   5.054  11.261 -1.5163  0.2763 -0.4011
  593MOL0     C78160  11.615   4.925  11.200  0.6804  0.0696 -0.0388
  593MOL0     N78161  11.739   4.878  11.262 -0.5728 -0.0040  0.4933
  593MOL0     C78162  11.850   4.867  11.188 -0.0026 -0.0102 -0.7522
  593MOL0     C78163  11.940   4.813  11.277 -0.2780  0.6742 -0.3283
  593MOL0     C78164  12.075   4.782  11.244 -0.3725 -0.5147  0.3826
  593MOL0     C78165  12.168   4.904  11.266  0.2794  0.2164  1.0682
  593MOL0     C78166  12.305   4.918  11.194 -0.0331 -0.9628  0.9113
  593MOL0     C78167  12.420   4.929  11.300  0.2899 -0.1785 -0.7798
  593MOL0     O78168  12.543   4.966  11.246 -0.1397  0.1370 -0.4462
  593MOL0     C78169  12.564   5.102  11.221  0.6879  0.4818  0.2949
  593MOL0     C78170  12.500   5.206  11.297  0.0719  0.3342  0.4106
  593MOL0     C78171  12.518   5.342  11.246 -0.7642 -0.8155  0.4599
  593MOL0     C78172  12.599   5.377  11.135 -0.1128  0.0481 -0.0334
  593MOL0     C78173  12.624   5.519  11.083  0.3904 -0.2457 -0.3454
  593MOL0     O78174  12.545   5.622  11.138 -0.3044  0.0553 -0.3664
  593MOL0     C78175  12.576   5.755  11.118  0.0088 -0.3988 -0.9178
  593MOL0     C78176  12.468   5.838  11.144 -0.1003 -0.1222  0.2865
  593MOL0     C78177  12.481   5.982  11.145  0.0625  0.6449 -0.1480
  593MOL0     C78178  12.606   6.042  11.114 -0.3947  0.1965  0.0015
  593MOL0     O78179  12.612   6.174  11.136  0.4551 -0.0870 -0.6603
  593MOL0     C78180  12.726   6.247  11.107  0.1865  0.5165  0.8746
  593MOL0     C78181  12.709   6.395  11.130 -0.2308  0.1259 -1.1511
  593MOL0     C78182  12.668   6.421  11.282  0.1689  0.4858 -0.4140
  593MOL0     C78183  12.651   6.565  11.307 -0.8029 -0.4619  0.9517
  593MOL0     C78184  12.612   6.605  11.444  0.4857  0.2079 -0.4422
  593MOL0     C78185  12.649   6.759  11.463  0.0603  0.1384 -0.2530
  593MOL0     C78186  12.581   6.848  11.358 -0.0590 -0.2104 -0.1238
  593MOL0     C78187  12.598   6.993  11.390 -0.0637 -0.1344 -0.2155
  593MOL0    Cl78188  12.752   7.070  11.341  0.2654 -0.0723  0.1567
  593MOL0     C78189  12.716   5.955  11.085 -0.3027  0.5554 -0.5753
  593MOL0     C78190  12.697   5.815  11.080  0.5068 -0.5060 -0.4710
  593MOL0     O78191  12.701   5.532  10.988  0.7508 -0.2169  0.3183
  593MOL0     C78192  12.656   5.264  11.067 -0.8941 -0.8075 -0.1525
  593MOL0     C78193  12.643   5.131  11.111 -0.1250 -0.7772  0.1947
  593MOL0     N78194  11.880   4.798  11.400 -0.3575  0.4998 -0.6512
  593MOL0     N78195  11.760   4.831  11.388 -0.0329  0.8014 -0.1816
  593MOL0     C78196  11.523   5.823  10.813 -0.2425  0.8657 -0.1005
  593MOL0     C78197  11.414   5.904  10.805 -0.3613  0.1857 -0.7856
  593MOL0     C78198  11.080   6.182  10.712 -0.4860  0.3543 -0.2384
  593MOL0     C78199  11.029   6.291  10.790 -0.1490  0.4594 -0.3382
  593MOL0     C78200  10.939   6.380  10.727 -0.1428  0.0595 -1.3401
  593MOL0     C78201  10.914   6.374  10.596 -0.1016 -0.9059  0.3111
  593MOL0     O78202  10.829   6.470  10.546 -0.1565  0.3515  0.6164
  593MOL0     C78203  10.887   6.600  10.545 -0.6431  0.1760  0.2550
  593MOL0     C78204  10.823   6.657  10.424  0.7242 -0.5675 -0.3628
  593MOL0     C78205  10.797   6.807  10.443  1.0113  0.9823  0.6443
  593MOL0     C78206  10.712   6.867  10.335  0.2055  0.6829  0.0211
  593MOL0     C78207  10.780   6.897  10.209  0.1643  0.4611 -0.1087
  593MOL0     C78208  10.828   6.928  10.097 -0.4968  0.2545 -0.1784
  593MOL0     C78209  10.963   6.271  10.519  1.2164 -0.1572 -1.2179
  593MOL0     C78210  11.046   6.174  10.575 -0.2727  0.4108  0.3907
  593MOL0     H78211  11.237   5.778  10.549  2.5834 -0.2718 -2.9967
  593MOL0     H78212  11.439   5.609  10.563 -0.0804  2.9091 -4.1375
  593MOL0     H78213  11.794   5.709  10.787 -0.8442  1.2583  1.0932
  593MOL0     H78214  11.820   5.536  10.738  0.3004  0.1972  2.5299
  593MOL0     H78215  11.643   5.620  10.964 -0.7801  0.6055 -1.5206
  593MOL0     H78216  11.810   5.574  10.973  0.1060 -1.6633  0.7167
  593MOL0     H78217  11.776   5.350  10.876  1.3609  1.6097  1.3095
  593MOL0     H78218  11.600   5.378  10.865 -1.2496 -2.1555  2.9754
  593MOL0     H78219  11.775   5.377  11.107 -0.0801  0.0939 -1.4518
  593MOL0     H78220  11.599   5.428  11.108  0.5544  0.4963  1.3037
  593MOL0     H78221  11.693   5.167  11.002  1.5788  1.9878  0.6915
  593MOL0     H78222  11.537   5.202  11.059  0.3394 -1.6432 -2.4664
  593MOL0     H78223  11.642   5.245  11.293  1.2606 -1.5707  1.5863
  593MOL0     H78224  11.783   5.151  11.240  0.2484  0.4629 -0.9985
  593MOL0     H78225  11.586   5.041  11.370  3.1807  1.8141 -0.2334
  593MOL0     H78226  11.479   5.087  11.235 -0.7736  0.7031 -2.9997
  593MOL0     H78227  11.625   4.935  11.091  1.4615  0.2720  0.0437
  593MOL0     H78228  11.534   4.854  11.217  0.5559  0.6406  2.0102
  593MOL0     H78229  11.867   4.873  11.081  1.4580 -1.4307 -0.6368
  593MOL0     H78230  12.070   4.743  11.142 -0.2643 -3.1912  1.3228
  593MOL0     H78231  12.096   4.699  11.312  0.7174  0.5257  1.3478
  593MOL0     H78232  12.184   4.913  11.374 -0.1670 -2.3071  1.4250
  593MOL0     H78233  12.104   4.988  11.236 -2.1077 -2.4566 -2.1805
  593MOL0     H78234  12.331   4.850  11.112  0.7093  2.0258 -1.5150
  593MOL0     H78235  12.316   5.014  11.143 -1.0203 -0.1251  2.2204
  593MOL0     H78236  12.432   4.833  11.352 -3.6490 -0.4281  0.0412
  593MOL0     H78237  12.389   4.997  11.380 -2.7970  1.9076 -3.4745
  593MOL0     H78238  12.437   5.178  11.381 -0.3625 -1.2076 -0.3864
  593MOL0     H78239  12.473   5.417  11.310 -0.2275 -1.0986  1.1772
  593MOL0     H78240  12.380   5.785  11.177  1.3484 -1.8364  1.5810
  593MOL0     H78241  12.389   6.037  11.165 -0.8971 -0.9492  0.0458
  593MOL0     H78242  12.750   6.224  11.003 -2.1609 -1.9043  0.7772
  593MOL0     H78243  12.806   6.224  11.179 -0.0257 -4.0042 -0.0253
  593MOL0     H78244  12.642   6.455  11.067  0.2184  2.7320  0.6761
  593MOL0     H78245  12.804   6.445  11.106 -1.1588  0.9449 -3.4969
  593MOL0     H78246  12.747   6.385  11.348 -0.7634 -0.4483  0.2133
  593MOL0     H78247  12.584   6.363  11.320  0.5378 -1.2589 -2.0629
  593MOL0     H78248  12.748   6.604  11.275 -1.2849  0.1793  0.2317
  593MOL0     H78249  12.577   6.593  11.231 -1.1815 -1.4119  0.9522
  593MOL0     H78250  12.660   6.542  11.520 -1.1288  0.8599  1.1800
  593MOL0     H78251  12.506   6.577  11.446  0.5539 -0.1163  1.8923
  593MOL0     H78252  12.758   6.771  11.459 -0.0425  0.8544 -1.1784
  593MOL0     H78253  12.623   6.788  11.565  0.0853 -2.0728  0.4345
  593MOL0     H78254  12.627   6.827  11.261  1.7782  1.4988  0.3020
  593MOL0     H78255  12.478   6.813  11.362  0.0445 -0.4392  0.7801
  593MOL0     H78256  12.586   7.012  11.497  0.8193 -1.4799  0.1375
  593MOL0     H78257  12.521   7.041  11.328  0.0192  0.5475  0.2021
  593MOL0     H78258  12.806   5.997  11.042 -0.7913 -0.7803 -3.1021
  593MOL0     H78259  12.775   5.748  11.046 -0.2257 -1.0987 -1.0249
  593MOL0     H78260  12.710   5.277  10.974 -1.0571  0.0431 -0.1411
  593MOL0     H78261  12.688   5.052  11.051  0.5456 -0.4317  0.2355
  593MOL0     H78262  11.614   5.832  10.871  0.2476 -0.2913 -0.6560
  593MOL0     H78263  11.412   5.980  10.882 -0.8899 -1.0019  0.3964
  593MOL0     H78264  11.043   6.296  10.898 -0.4940 -2.8716 -0.0345
  593MOL0     H78265  10.889   6.458  10.784  1.8296  0.3481  0.1167
  593MOL0     H78266  10.995   6.598  10.528 -0.3722  1.6588  1.5846
  593MOL0     H78267  10.871   6.662  10.634  1.0035  3.2288 -1.4365
  593MOL0     H78268  10.890   6.634  10.341  2.9211 -1.2352  1.4887
  593MOL0     H78269  10.735   6.601  10.390  0.3160 -0.6557  0.7862
  593MOL0     H78270  10.895   6.856  10.438  3.2622 -3.0762 -0.1195
  593MOL0     H78271  10.755   6.820  10.543 -0.2639  1.2080  0.0894
  593MOL0     H78272  10.628   6.804  10.305  1.6775 -0.2651 -2.3267
  593MOL0     H78273  10.673   6.962  10.372 -3.2401 -0.1495 -1.1072
  593MOL0     H78274  10.869   6.958  10.002  1.8691 -0.7360  0.4647
  593MOL0     H78275  10.927   6.268  10.417  0.6858  1.0423 -1.0908
  593MOL0     H78276  11.070   6.093  10.506 -3.0916 -0.4706  0.3181
  594MOL0     O78277  10.746  10.974   1.417 -0.2538 -0.3304  0.0450
  594MOL0     C78278  10.808  10.974   1.309 -0.0866 -0.4784 -0.4613
  594MOL0     O78279  10.940  10.943   1.289 -0.3215  0.0501  0.5405
  594MOL0     C78280  11.016  10.889   1.385  0.8198 -0.0577  0.0833
  594MOL0     C78281  10.977  10.828   1.504  0.0572  0.7304  1.8001
  594MOL0     C78282  11.065  10.777   1.592 -0.0942 -0.3879 -0.4089
  594MOL0     C78283  11.202  10.806   1.581  0.0039  1.3350 -0.4384
  594MOL0     O78284  11.283  10.764   1.683 -0.4963 -0.4012  0.1846
  594MOL0     C78285  11.332  10.626   1.672  0.2865  0.2195  0.1886
  594MOL0     C78286  11.436  10.594   1.569 -0.6075 -1.4223  1.0884
  594MOL0     C78287  11.477  10.448   1.598  0.7767 -0.4235 -0.3418
  594MOL0     C78288  11.560  10.389   1.494  1.0221  0.7556  0.2990
  594MOL0     C78289  11.601  10.242   1.509  0.0141  0.4202  0.0835
  594MOL0     C78290  11.745  10.215   1.451  0.3842 -0.4452  0.1959
  594MOL0     C78291  11.770  10.061   1.454  0.4323  0.4978 -0.1038
  594MOL0     C78292  11.892  10.036   1.363  0.2927  0.3740 -0.5747
  594MOL0     N78293  11.932   9.887   1.364  0.0874 -0.4325  0.4484
  594MOL0     C78294  11.978   9.819   1.471  1.1756  0.1681  0.0630
  594MOL0     C78295  12.010   9.699   1.423 -0.3655 -0.6490  0.1542
  594MOL0     C78296  12.075   9.593   1.510  0.5250 -0.4570 -0.2194
  594MOL0     C78297  12.228   9.601   1.512  0.7722  0.4908 -0.0194
  594MOL0     C78298  12.281   9.554   1.375  0.0857  0.0225  0.4073
  594MOL0     C78299  12.434   9.533   1.383  0.3468 -0.6564 -0.7389
  594MOL0     O78300  12.496   9.662   1.394  0.0533 -0.5543  0.3308
  594MOL0     C78301  12.578   9.681   1.506  0.3498  0.0291 -0.0012
  594MOL0     C78302  12.691   9.616   1.522 -0.4550  0.5547  0.1749
  594MOL0     C78303  12.785   9.653   1.623 -0.3051  0.2061  1.0474
  594MOL0     C78304  12.764   9.746   1.716 -0.0586  0.1710 -0.8769
  594MOL0     C78305  12.879   9.774   1.806  0.2331 -0.5403 -0.2753
  594MOL0     O78306  12.982   9.680   1.821  0.1745 -0.4820  0.3316
  594MOL0     C78307  13.082   9.718   1.904  0.2641 -0.7278  0.3536
  594MOL0     C78308  13.060   9.703   2.047 -0.0106  0.4943 -0.3669
  594MOL0     C78309  13.166   9.742   2.137  0.5705 -0.4882  0.1955
  594MOL0     C78310  13.296   9.776   2.090 -0.3187  1.0182 -0.3625
  594MOL0     O78311  13.405   9.794   2.174 -0.4812  0.1762  0.8640
  594MOL0     C78312  13.386   9.832   2.310 -0.1551  0.2876 -0.2984
  594MOL0     C78313  13.503   9.911   2.380 -0.0846  0.9469  0.5307
  594MOL0     C78314  13.455   9.970   2.507  0.2694  1.0657 -0.0806
  594MOL0     C78315  13.561  10.051   2.577 -0.5904  0.0048  0.3007
  594MOL0     C78316  13.506  10.106   2.710  0.2167  0.2648 -0.7090
  594MOL0     C78317  13.572  10.237   2.755 -0.1598 -0.1905 -0.1680
  594MOL0     C78318  13.486  10.316   2.858 -0.3584  0.8967 -0.1476
  594MOL0     C78319  13.467  10.242   2.995  0.1241 -0.1052 -0.4205
  594MOL0    Cl78320  13.360  10.099   2.979  0.5152  0.3868 -0.0252
  594MOL0     C78321  13.314   9.792   1.951  0.2575  0.6053  0.6312
  594MOL0     C78322  13.210   9.762   1.856 -0.0087  0.1106  0.4681
  594MOL0     O78323  12.859   9.874   1.887  0.5779 -0.7801  0.4880
  594MOL0     C78324  12.643   9.820   1.709 -0.5349 -0.3909 -0.1279
  594MOL0     C78325  12.547   9.783   1.604  0.4281  0.3443  0.0796
  594MOL0     N78326  11.984   9.688   1.290 -0.2624  0.0307  1.0976
  594MOL0     N78327  11.942   9.808   1.255  1.0186  0.0347  0.1294
  594MOL0     C78328  11.244  10.870   1.465 -0.5854 -0.0142  0.7629
  594MOL0     C78329  11.150  10.902   1.364  0.0366  0.8096 -0.1453
  594MOL0     C78330  10.738  10.983   1.188 -0.0346  0.2341 -0.4680
  594MOL0     C78331  10.650  11.086   1.183  0.6834  0.7384  0.0297
  594MOL0     C78332  10.602  11.145   1.076  0.4214 -0.5089 -0.0140
  594MOL0     C78333  10.647  11.105   0.950  0.0764 -0.1630  0.1035
  594MOL0     O78334  10.593  11.153   0.834  0.2516  0.1103  0.7045
  594MOL0     C78335  10.686  11.210   0.743 -0.3424 -0.1112 -0.2835
  594MOL0     C78336  10.639  11.355   0.724  0.0654  0.4358 -0.0503
  594MOL0     C78337  10.499  11.388   0.684  0.6119  0.1096 -0.2340
  594MOL0     C78338  10.485  11.373   0.540 -0.1199 -0.9946  0.1893
  594MOL0     C78339  10.549  11.482   0.454 -0.3218  0.1975 -0.0537
  594MOL0     C78340  10.604  11.575   0.399  0.1406  0.2099  0.9120
  594MOL0     C78341  10.735  10.997   0.946 -0.9856 -0.0574 -0.0125
  594MOL0     C78342  10.776  10.931   1.062  0.6264  0.7006 -0.1748
  594MOL0     H78343  10.872  10.809   1.521 -0.1466 -3.2458 -2.0466
  594MOL0     H78344  11.026  10.739   1.686 -2.6075 -2.9947 -2.3232
  594MOL0     H78345  11.243  10.566   1.651  2.4426 -2.4932 -2.1112
  594MOL0     H78346  11.371  10.598   1.771 -0.5983  0.2503  0.5541
  594MOL0     H78347  11.529  10.650   1.579  0.1276 -2.3002 -0.3183
  594MOL0     H78348  11.401  10.603   1.466  0.5902 -2.3683  0.5608
  594MOL0     H78349  11.389  10.389   1.621  2.3662 -3.8959 -2.3568
  594MOL0     H78350  11.540  10.458   1.686 -0.2421  0.7739  0.2914
  594MOL0     H78351  11.504  10.386   1.401 -0.5440  0.9049  1.1969
  594MOL0     H78352  11.651  10.449   1.484  1.9689 -0.2329  2.2622
  594MOL0     H78353  11.525  10.175   1.468  0.8965 -0.8617  0.4539
  594MOL0     H78354  11.603  10.224   1.617 -0.7843  2.5445  0.5039
  594MOL0     H78355  11.827  10.267   1.500  1.4897  1.0207 -2.9710
  594MOL0     H78356  11.733  10.238   1.345 -1.3144  0.5191  0.5527
  594MOL0     H78357  11.789  10.028   1.556  3.3579 -0.5161 -0.8714
  594MOL0     H78358  11.687  10.000   1.416 -0.9633  0.5617  2.5923
  594MOL0     H78359  11.981  10.098   1.382  0.9219 -0.8690  0.7188
  594MOL0     H78360  11.852  10.064   1.266 -2.0176  0.9829  0.4922
  594MOL0     H78361  11.984   9.850   1.574 -1.4012 -5.0798  2.1633
  594MOL0     H78362  12.046   9.496   1.469 -2.2810  0.6483 -1.0879
  594MOL0     H78363  12.040   9.601   1.613 -0.2418 -0.3743 -0.4814
  594MOL0     H78364  12.261   9.529   1.588 -0.3337 -3.1948 -2.7203
  594MOL0     H78365  12.267   9.696   1.549  0.4397  0.2132  1.0911
  594MOL0     H78366  12.227   9.466   1.339  0.1166 -0.4535  1.4845
  594MOL0     H78367  12.272   9.640   1.308 -0.6324  1.3003  2.0814
  594MOL0     H78368  12.474   9.483   1.294  3.3289 -1.2599  0.8236
  594MOL0     H78369  12.457   9.473   1.471 -1.1378  2.3740  1.9500
  594MOL0     H78370  12.717   9.539   1.451 -1.7440 -0.6151  0.9305
  594MOL0     H78371  12.878   9.597   1.616 -0.3208  0.2201  0.6941
  594MOL0     H78372  12.970   9.670   2.098  0.5719 -0.9882 -0.2427
  594MOL0     H78373  13.166   9.744   2.246  0.2563  0.0197  0.1891
  594MOL0     H78374  13.350   9.745   2.366 -3.6653  0.4666 -1.9866
  594MOL0     H78375  13.299   9.898   2.310 -0.7009 -0.4002 -1.2065
  594MOL0     H78376  13.547   9.998   2.330 -0.5156 -0.1796 -1.9679
  594MOL0     H78377  13.581   9.842   2.414 -0.0157  0.1553 -1.1209
  594MOL0     H78378  13.422   9.885   2.566  0.0635  0.1216 -1.5003
  594MOL0     H78379  13.368  10.028   2.473 -1.0774 -1.7337 -1.8530
  594MOL0     H78380  13.654   9.996   2.584  1.9912  4.1032  2.0985
  594MOL0     H78381  13.576  10.141   2.516  2.9727 -1.2302 -0.9060
  594MOL0     H78382  13.514  10.035   2.793 -0.3368  1.3898  0.3364
  594MOL0     H78383  13.402  10.137   2.695 -0.0368 -0.1369  0.1379
  594MOL0     H78384  13.579  10.306   2.670 -0.4065  2.3536  1.7516
  594MOL0     H78385  13.678  10.214   2.772 -0.8297 -3.6587 -0.0786
  594MOL0     H78386  13.536  10.411   2.881  1.4947  0.0235 -0.3344
  594MOL0     H78387  13.393  10.345   2.808 -0.5068 -0.0911 -0.4534
  594MOL0     H78388  13.422  10.316   3.062  0.4593 -2.1193  2.1748
  594MOL0     H78389  13.562  10.209   3.038 -1.4430 -2.4339  1.5606
  594MOL0     H78390  13.415   9.812   1.917  0.8938 -0.6114  1.6978
  594MOL0     H78391  13.242   9.776   1.754  1.3569 -0.9869  0.7247
  594MOL0     H78392  12.639   9.898   1.784  0.4593 -2.1714  1.8961
  594MOL0     H78393  12.456   9.840   1.586 -2.4298 -4.2382 -1.7499
  594MOL0     H78394  11.348  10.891   1.442 -1.6058  3.7695 -1.2953
  594MOL0     H78395  11.183  10.939   1.267  2.7562 -1.3097 -0.1354
  594MOL0     H78396  10.614  11.126   1.277 -2.6234 -1.0432 -0.3051
  594MOL0     H78397  10.528  11.224   1.078  2.3547  1.6120 -3.0167
  594MOL0     H78398  10.685  11.162   0.644  2.6623 -1.7062  0.3558
  594MOL0     H78399  10.791  11.205   0.774 -0.4796  0.7620  0.3327
  594MOL0     H78400  10.649  11.377   0.830 -1.2216 -0.7206  0.3381
  594MOL0     H78401  10.708  11.405   0.655  1.7343 -0.4312  0.9465
  594MOL0     H78402  10.495  11.495   0.708  2.0308  0.1194  0.0280
  594MOL0     H78403  10.416  11.344   0.739  0.8650  1.2599  1.1249
  594MOL0     H78404  10.526  11.276   0.510  2.3412  0.7717 -2.6811
  594MOL0     H78405  10.377  11.382   0.526 -0.0245  0.3755  0.2676
  594MOL0     H78406  10.644  11.665   0.358 -0.4254  1.3879  2.8104
  594MOL0     H78407  10.766  10.966   0.846 -0.1359 -1.1334  0.5677
  594MOL0     H78408  10.849  10.851   1.048  1.3318  1.3940 -0.5484
  595MOL0     O78409  10.858   6.790   8.681  0.4850  0.4654 -0.4055
  595MOL0     C78410  10.795   6.892   8.702  0.3678 -0.3734 -0.0530
  595MOL0     O78411  10.839   7.018   8.675  0.5446 -0.0395  0.2200
  595MOL0     C78412  10.971   7.044   8.632  0.4646 -0.7911  0.7383
  595MOL0     C78413  11.042   7.149   8.695 -0.0846 -0.8839  0.2468
  595MOL0     C78414  11.185   7.176   8.664  0.2940 -0.0117  0.0911
  595MOL0     C78415  11.242   7.101   8.556 -0.4042  1.0433  0.2216
  595MOL0     O78416  11.378   7.109   8.523  1.1517 -0.6039 -0.7016
  595MOL0     C78417  11.467   7.179   8.610 -0.1050  0.5789  1.1082
  595MOL0     C78418  11.612   7.142   8.543 -0.3253  0.2157 -0.3518
  595MOL0     C78419  11.633   7.206   8.407 -0.6968 -0.0565  0.4755
  595MOL0     C78420  11.759   7.137   8.335  0.3061 -0.1321  0.9354
  595MOL0     C78421  11.770   7.165   8.178 -0.5653  0.3204  0.2586
  595MOL0     C78422  11.827   7.304   8.159  0.5682  0.4682  0.2350
  595MOL0     C78423  11.982   7.294   8.176 -0.0167 -0.2339  0.5296
  595MOL0     C78424  12.055   7.307   8.037 -0.0025 -0.3826  0.7186
  595MOL0     N78425  12.181   7.377   8.057 -1.2057 -0.2057  0.3894
  595MOL0     C78426  12.304   7.320   8.078 -0.5036 -0.1794 -1.0880
  595MOL0     C78427  12.391   7.419   8.092 -0.3976 -0.5050 -0.9764
  595MOL0     C78428  12.544   7.420   8.110  0.9107 -0.2072 -0.4358
  595MOL0     C78429  12.583   7.314   8.206 -0.6113 -0.0949 -0.2739
  595MOL0     C78430  12.731   7.281   8.198  0.4450  0.8663  0.2165
  595MOL0     C78431  12.838   7.379   8.248  0.4246 -0.8105  0.5075
  595MOL0     O78432  12.970   7.337   8.261  0.2990 -0.1965 -0.2181
  595MOL0     C78433  13.050   7.417   8.346  0.9562  0.3391  1.7924
  595MOL0     C78434  13.144   7.346   8.412  0.2734  1.0451  0.1357
  595MOL0     C78435  13.231   7.402   8.500 -0.2848  0.5200  1.1686
  595MOL0     C78436  13.222   7.535   8.528  0.3983  0.7626  0.3006
  595MOL0     C78437  13.318   7.601   8.614 -0.2309  0.0309 -0.0041
  595MOL0     O78438  13.398   7.524   8.699  0.0410  0.2860  0.1216
  595MOL0     C78439  13.496   7.581   8.776  0.0761 -0.4546 -0.2082
  595MOL0     C78440  13.463   7.673   8.885 -0.0583  0.4054  0.3942
  595MOL0     C78441  13.561   7.717   8.973  0.3425  0.9568  0.2844
  595MOL0     C78442  13.692   7.683   8.954  0.1285  0.5181 -0.0461
  595MOL0     O78443  13.768   7.726   9.058 -0.6594 -0.0590 -0.1536
  595MOL0     C78444  13.904   7.758   9.028 -0.9173  0.6091  0.1527
  595MOL0     C78445  13.934   7.893   9.084  1.4181  0.1388  0.2340
  595MOL0     C78446  14.064   7.955   9.066 -0.3438 -0.1600  0.0054
  595MOL0     C78447  14.074   8.092   9.135 -0.2406 -0.7507 -0.0289
  595MOL0     C78448  14.207   8.160   9.157  0.2611 -0.3590 -0.1741
  595MOL0     C78449  14.180   8.293   9.243  0.4308 -0.7889  0.4243
  595MOL0     C78450  14.321   8.349   9.258 -0.1127 -0.3445  0.4063
  595MOL0     C78451  14.314   8.482   9.319  0.5146 -0.0294 -0.1570
  595MOL0    Cl78452  14.492   8.505   9.355 -0.0373 -0.2628  0.1104
  595MOL0     C78453  13.723   7.595   8.838 -0.1983 -0.3293  0.1174
  595MOL0     C78454  13.630   7.541   8.749 -0.2438 -0.0286 -0.0226
  595MOL0     O78455  13.328   7.723   8.597 -0.2139  0.0290 -0.6798
  595MOL0     C78456  13.127   7.617   8.464  0.0742  0.2389  0.9819
  595MOL0     C78457  13.034   7.553   8.374  0.4474  0.3775 -0.1997
  595MOL0     N78458  12.318   7.533   8.098 -0.0233  0.3870  0.4405
  595MOL0     N78459  12.196   7.506   8.067  0.1528  0.0350  0.3432
  595MOL0     C78460  11.172   7.000   8.490  1.0320  0.2433  0.5451
  595MOL0     C78461  11.038   6.972   8.532 -0.2040  0.4161 -0.5999
  595MOL0     C78462  10.664   6.868   8.756  0.4523 -0.6847  0.0536
  595MOL0     C78463  10.604   6.738   8.757 -1.0799  0.8703  0.4524
  595MOL0     C78464  10.483   6.709   8.824 -0.3306 -0.4558 -0.1667
  595MOL0     C78465  10.406   6.816   8.874  0.1813 -0.3521 -0.5124
  595MOL0     O78466  10.288   6.796   8.932 -0.7582 -0.1894 -0.8251
  595MOL0     C78467  10.181   6.758   8.840  0.5355  0.2401 -0.9261
  595MOL0     C78468  10.057   6.852   8.853 -0.2891 -0.3887 -0.0062
  595MOL0     C78469   9.946   6.840   8.747  0.5666 -0.5320 -0.0084
  595MOL0     C78470   9.903   6.709   8.688 -0.3240  0.8522 -0.3625
  595MOL0     C78471   9.816   6.637   8.786  0.1792 -0.6308 -0.0814
  595MOL0     C78472   9.731   6.589   8.862 -0.5871  0.2806  0.2241
  595MOL0     C78473  10.463   6.948   8.870 -0.4775 -0.1150  0.1788
  595MOL0     C78474  10.585   6.978   8.810  0.2957  0.0658 -0.0531
  595MOL0     H78475  10.987   7.180   8.783  1.3012  0.6542  0.6291
  595MOL0     H78476  11.249   7.231   8.733  1.9820 -2.9005  0.9822
  595MOL0     H78477  11.453   7.144   8.712 -2.5541 -2.9887 -0.2403
  595MOL0     H78478  11.464   7.288   8.599  0.3567  0.7894  2.7967
  595MOL0     H78479  11.613   7.033   8.550 -0.6142  0.2876  1.4086
  595MOL0     H78480  11.694   7.176   8.607 -0.3310 -0.5957  0.0910
  595MOL0     H78481  11.671   7.305   8.435  1.3138 -1.3338  2.5672
  595MOL0     H78482  11.547   7.209   8.339 -0.3571 -0.1580  0.0427
  595MOL0     H78483  11.849   7.167   8.390  3.2598 -2.1461 -2.4006
  595MOL0     H78484  11.753   7.029   8.352  0.1976  0.0570  2.1743
  595MOL0     H78485  11.668   7.167   8.139 -1.3386  2.2958  2.1706
  595MOL0     H78486  11.849   7.099   8.141  0.2074  2.5360 -2.4578
  595MOL0     H78487  11.796   7.372   8.239  1.7491  0.5638  0.6232
  595MOL0     H78488  11.795   7.358   8.069  1.3788  1.4600  0.5167
  595MOL0     H78489  12.028   7.379   8.227  2.3583  0.3708 -2.2952
  595MOL0     H78490  12.007   7.201   8.227 -5.9028  0.0023  4.8222
  595MOL0     H78491  12.002   7.368   7.963 -0.6088 -0.7241  0.8672
  595MOL0     H78492  12.073   7.210   7.991  0.0834  0.3226 -0.8020
  595MOL0     H78493  12.322   7.214   8.065  0.1532 -0.1126 -0.7671
  595MOL0     H78494  12.585   7.515   8.146  1.0507  0.0848 -1.3361
  595MOL0     H78495  12.584   7.404   8.009  0.3581  0.0137 -0.6984
  595MOL0     H78496  12.523   7.226   8.182  2.4524 -3.2028  2.3163
  595MOL0     H78497  12.569   7.337   8.312  5.5277  0.2650  0.8356
  595MOL0     H78498  12.739   7.189   8.256 -0.7077  2.6085  3.3594
  595MOL0     H78499  12.765   7.259   8.096  4.0672 -0.3826  1.5372
  595MOL0     H78500  12.803   7.427   8.340  1.8025  0.7645  0.2436
  595MOL0     H78501  12.835   7.465   8.180  0.7692  0.6145  2.2272
  595MOL0     H78502  13.170   7.245   8.381 -0.2524  0.7074  0.7911
  595MOL0     H78503  13.290   7.328   8.553 -1.2970 -2.2667 -1.3079
  595MOL0     H78504  13.359   7.699   8.905 -0.5505  1.5657 -2.9919
  595MOL0     H78505  13.521   7.778   9.054  0.2128 -0.8787  1.6551
  595MOL0     H78506  13.919   7.764   8.920 -3.5294 -3.6306 -0.6761
  595MOL0     H78507  13.962   7.680   9.079 -4.8627 -0.7874  2.9886
  595MOL0     H78508  13.922   7.877   9.192 -1.4370  1.1991  0.1571
  595MOL0     H78509  13.857   7.959   9.045  0.8450 -1.7913 -2.0663
  595MOL0     H78510  14.089   7.960   8.960  0.3246 -1.2546  0.1002
  595MOL0     H78511  14.132   7.890   9.122  2.1462  1.4877 -0.9271
  595MOL0     H78512  14.014   8.160   9.074 -0.0537 -0.0519  0.5569
  595MOL0     H78513  14.030   8.089   9.235  0.0075  2.7283  0.2933
  595MOL0     H78514  14.241   8.195   9.059 -1.9623  1.3813 -0.4066
  595MOL0     H78515  14.266   8.082   9.204 -0.1332  0.0836  1.0809
  595MOL0     H78516  14.121   8.275   9.333  0.6775  1.2511  1.0557
  595MOL0     H78517  14.120   8.361   9.180  1.9861  1.2829  1.0601
  595MOL0     H78518  14.388   8.285   9.315  2.4345  1.7993  0.0396
  595MOL0     H78519  14.370   8.362   9.162 -0.8161 -0.0019  0.0852
  595MOL0     H78520  14.249   8.494   9.406 -3.7277 -1.7779 -2.7193
  595MOL0     H78521  14.284   8.551   9.239  0.5855 -0.6617 -0.7345
  595MOL0     H78522  13.826   7.563   8.831  0.9862  2.7593  1.4415
  595MOL0     H78523  13.662   7.482   8.664  4.6780  0.3042  1.2686
  595MOL0     H78524  13.113   7.723   8.485 -0.9759  1.1121 -3.2313
  595MOL0     H78525  12.963   7.612   8.317 -1.5494 -0.5741  1.1973
  595MOL0     H78526  11.211   6.951   8.402  2.5746  2.3291 -0.0214
  595MOL0     H78527  10.981   6.890   8.490  1.2075 -1.6122  1.1991
  595MOL0     H78528  10.650   6.650   8.713 -2.1029  0.5198  0.0568
  595MOL0     H78529  10.442   6.610   8.842  2.7740 -1.2805  3.6393
  595MOL0     H78530  10.140   6.658   8.852  0.1161  0.3837 -1.1340
  595MOL0     H78531  10.225   6.755   8.740  1.1807 -1.6106 -0.6196
  595MOL0     H78532  10.010   6.824   8.948  0.0444  1.9766  0.9323
  595MOL0     H78533  10.086   6.956   8.871  0.5490 -0.8305  1.3965
  595MOL0     H78534   9.974   6.910   8.668 -3.1207 -0.4787 -1.4427
  595MOL0     H78535   9.850   6.874   8.786  0.7243  0.4414 -0.4551
  595MOL0     H78536   9.848   6.729   8.596  2.0682  3.9162 -1.2919
  595MOL0     H78537   9.995   6.651   8.673 -0.0415  0.6635  1.7134
  595MOL0     H78538   9.669   6.538   8.932 -3.3498 -0.0344 -2.2619
  595MOL0     H78539  10.398   7.019   8.920 -1.2273  1.1947 -2.4639
  595MOL0     H78540  10.615   7.081   8.826 -0.8152  0.3075  0.5670
  596MOL0     O78541   0.653   8.231   8.684  0.1685  0.2903 -0.5978
  596MOL0     C78542   0.749   8.216   8.760 -1.0066  0.5247  0.7151
  596MOL0     O78543   0.871   8.282   8.741 -0.3334  0.0261 -0.4873
  596MOL0     C78544   0.904   8.334   8.618 -0.2443 -0.2029  1.0176
  596MOL0     C78545   1.005   8.270   8.548 -0.4367 -0.5515  0.8434
  596MOL0     C78546   1.050   8.315   8.421 -0.6660  1.0901  1.5178
  596MOL0     C78547   1.000   8.436   8.353  1.2231 -0.2822  0.6675
  596MOL0     O78548   1.055   8.473   8.231  0.4221  0.3218 -0.3090
  596MOL0     C78549   1.029   8.598   8.182 -0.2532  0.1397  0.3417
  596MOL0     C78550   1.145   8.631   8.086 -0.1229  0.0956  1.0363
  596MOL0     C78551   1.126   8.767   8.014 -1.0234  0.4120  1.0999
  596MOL0     C78552   1.250   8.765   7.917  0.0652 -0.1719  0.8711
  596MOL0     C78553   1.255   8.901   7.845 -0.3595  0.4738 -0.2262
  596MOL0     C78554   1.374   8.896   7.737  0.0555 -1.0522  0.1151
  596MOL0     C78555   1.383   9.042   7.678 -0.3252  0.9718 -0.7876
  596MOL0     C78556   1.474   9.044   7.562  0.4798 -0.2855  0.1913
  596MOL0     N78557   1.556   9.159   7.536 -0.1074  0.5261 -0.6676
  596MOL0     C78558   1.529   9.265   7.459  0.4354  0.0080  1.5302
  596MOL0     C78559   1.642   9.342   7.473 -0.0253 -0.6493  0.6942
  596MOL0     C78560   1.681   9.481   7.419  0.2172 -0.4325  0.4394
  596MOL0     C78561   1.574   9.575   7.478 -0.4569 -0.2871 -0.0227
  596MOL0     C78562   1.557   9.717   7.420 -0.8451 -0.1034 -0.1649
  596MOL0     C78563   1.478   9.811   7.513 -0.0425 -0.4209 -0.5080
  596MOL0     O78564   1.335   9.786   7.501 -0.2919 -0.6400  0.2973
  596MOL0     C78565   1.272   9.836   7.386  0.0403 -0.1478  0.0547
  596MOL0     C78566   1.130   9.813   7.372 -0.1606  0.1632  0.2206
  596MOL0     C78567   1.054   9.878   7.272 -0.0856  0.6689 -0.5669
  596MOL0     C78568   1.116   9.961   7.178  0.1753  0.1115 -0.6781
  596MOL0     C78569   1.043  10.037   7.074 -0.2417 -0.2174 -0.6186
  596MOL0     O78570   0.909  10.036   7.082  0.6543 -0.2690  0.5615
  596MOL0     C78571   0.840  10.093   6.981 -0.3491 -0.1529 -0.9702
  596MOL0     C78572   0.762  10.211   7.007  0.3112  0.5862  0.8468
  596MOL0     C78573   0.686  10.263   6.903  0.7834  0.3772  0.6399
  596MOL0     C78574   0.697  10.211   6.770  1.2481  0.0007 -0.0191
  596MOL0     O78575   0.630  10.251   6.665  0.2470 -0.0511  0.4389
  596MOL0     C78576   0.554  10.371   6.668 -0.1759  0.1269  0.5861
  596MOL0     C78577   0.509  10.382   6.526 -0.8432 -0.5687 -0.2236
  596MOL0     C78578   0.439  10.516   6.498 -0.0452  0.8080  0.0373
  596MOL0     C78579   0.398  10.519   6.350 -0.0016 -0.8713 -0.0728
  596MOL0     C78580   0.291  10.627   6.321 -0.7973 -0.1000  0.1961
  596MOL0     C78581   0.338  10.767   6.355 -0.5357 -0.5728 -0.8511
  596MOL0     C78582   0.255  10.870   6.288 -0.2478  0.3563 -0.2047
  596MOL0     C78583   0.257  11.007   6.385 -0.6220  0.1256  0.4432
  596MOL0    Cl78584   0.409  11.093   6.334 -0.0778 -0.4845 -0.5650
  596MOL0     C78585   0.766  10.096   6.752  0.3888  0.7339  0.0049
  596MOL0     C78586   0.837  10.032   6.851 -0.1241 -0.3105 -0.4250
  596MOL0     O78587   1.113  10.098   6.983  0.0879  0.3178  0.4900
  596MOL0     C78588   1.257   9.964   7.184 -0.3411  0.3855  1.0835
  596MOL0     C78589   1.331   9.911   7.289  0.1314  0.1376  0.3509
  596MOL0     N78590   1.731   9.274   7.557 -0.0496  0.4463 -0.0532
  596MOL0     N78591   1.678   9.167   7.598  0.5107  0.3660 -0.6427
  596MOL0     C78592   0.901   8.507   8.426  0.0875  0.3753  0.3264
  596MOL0     C78593   0.869   8.458   8.555  1.4628  0.3331 -0.5798
  596MOL0     C78594   0.721   8.127   8.883  0.1271 -1.0992  0.0228
  596MOL0     C78595   0.595   8.059   8.891  0.2961 -0.0797 -0.5192
  596MOL0     C78596   0.566   7.969   8.997  0.7508  0.0636 -0.6604
  596MOL0     C78597   0.664   7.955   9.099 -0.0424  0.1689 -0.1671
  596MOL0     O78598   0.630   7.878   9.209 -0.3298  0.4021 -0.2740
  596MOL0     C78599   0.706   7.750   9.208 -0.1541 -0.4224  0.9827
  596MOL0     C78600   0.618   7.649   9.275 -0.2032 -0.0341 -0.6028
  596MOL0     C78601   0.514   7.586   9.182 -0.2423 -0.2509  0.3123
  596MOL0     C78602   0.437   7.477   9.252  0.9387 -0.2053  0.0876
  596MOL0     C78603   0.336   7.531   9.338 -0.2210  0.1621  0.4166
  596MOL0     C78604   0.260   7.593   9.414 -0.2958 -0.9591 -0.3076
  596MOL0     C78605   0.781   8.018   9.089  0.2008  1.0341 -0.4576
  596MOL0     C78606   0.821   8.106   8.986 -0.1060 -0.2894 -0.2288
  596MOL0     H78607   1.045   8.177   8.586  2.8757 -0.2669 -1.5176
  596MOL0     H78608   1.121   8.253   8.367  0.8725  4.1943 -0.2579
  596MOL0     H78609   1.039   8.668   8.266  2.5350  0.4689 -0.1767
  596MOL0     H78610   0.932   8.595   8.132  1.1073  4.6862 -3.3338
  596MOL0     H78611   1.160   8.551   8.013 -2.4677 -0.0149  0.5956
  596MOL0     H78612   1.236   8.647   8.144  0.3157 -0.4814  0.5060
  596MOL0     H78613   1.132   8.855   8.078  3.3974  3.3189 -2.6011
  596MOL0     H78614   1.034   8.764   7.955 -0.5170 -2.4441  0.2843
  596MOL0     H78615   1.345   8.753   7.970  1.4595  1.5318 -1.0939
  596MOL0     H78616   1.230   8.684   7.846 -1.9773  1.2675 -0.3242
  596MOL0     H78617   1.278   8.983   7.915  1.5686  0.0346 -0.2659
  596MOL0     H78618   1.160   8.904   7.791 -0.0542  1.7734 -0.7347
  596MOL0     H78619   1.352   8.828   7.655  1.4085 -1.2799 -0.0813
  596MOL0     H78620   1.462   8.862   7.792  0.1298 -2.5591 -0.8772
  596MOL0     H78621   1.282   9.077   7.654 -0.6273  0.5260 -0.1770
  596MOL0     H78622   1.431   9.096   7.760  2.4101 -1.7809 -0.3936
  596MOL0     H78623   1.401   9.035   7.481 -3.1851  0.9842  3.0995
  596MOL0     H78624   1.545   8.961   7.570  2.3713  1.4371  2.7334
  596MOL0     H78625   1.440   9.294   7.404  1.1240 -0.6386  0.0273
  596MOL0     H78626   1.669   9.470   7.311  0.0763 -2.6414  0.6508
  596MOL0     H78627   1.779   9.516   7.456 -0.2908 -0.9716  2.4237
  596MOL0     H78628   1.605   9.592   7.582  1.1057  0.1460 -0.5315
  596MOL0     H78629   1.480   9.519   7.477  0.1762 -1.3677 -1.4584
  596MOL0     H78630   1.652   9.770   7.408  0.6997 -2.6425  0.2165
  596MOL0     H78631   1.522   9.711   7.317 -0.3992 -1.6869 -0.2476
  596MOL0     H78632   1.517   9.912   7.495 -0.0890 -0.1374  0.8266
  596MOL0     H78633   1.501   9.794   7.619 -1.1961 -0.8382 -0.3152
  596MOL0     H78634   1.084   9.749   7.447 -0.7357 -1.2859 -1.3072
  596MOL0     H78635   0.947   9.856   7.270 -0.0914  0.3871  1.2324
  596MOL0     H78636   0.754  10.249   7.109  0.8181  1.3984  0.5891
  596MOL0     H78637   0.610  10.336   6.931 -2.1423 -2.9205  1.9728
  596MOL0     H78638   0.624  10.454   6.685  2.6483 -0.8750 -4.2884
  596MOL0     H78639   0.463  10.357   6.726  0.9745 -3.2962  1.8245
  596MOL0     H78640   0.434  10.304   6.510 -1.4135 -0.5003  1.8139
  596MOL0     H78641   0.596  10.385   6.460 -1.2419  2.7991 -0.7331
  596MOL0     H78642   0.514  10.595   6.507  2.0459 -1.1009  0.2294
  596MOL0     H78643   0.355  10.524   6.568 -2.3988  1.3786 -2.6659
  596MOL0     H78644   0.488  10.531   6.288 -1.0154  0.1406 -1.3996
  596MOL0     H78645   0.357  10.422   6.320  1.1260 -1.1646 -0.7560
  596MOL0     H78646   0.199  10.613   6.379 -0.9618  3.4308  1.0520
  596MOL0     H78647   0.269  10.632   6.214  0.4850  2.6695 -0.0400
  596MOL0     H78648   0.442  10.778   6.324 -0.5918  0.8429 -0.5824
  596MOL0     H78649   0.345  10.784   6.463  2.4196 -2.4397 -0.6402
  596MOL0     H78650   0.281  10.898   6.186 -0.8420  1.4129 -0.0774
  596MOL0     H78651   0.151  10.835   6.284 -0.5355  0.8295  1.9024
  596MOL0     H78652   0.250  10.981   6.491  2.0744 -5.4634 -0.3234
  596MOL0     H78653   0.170  11.069   6.362 -2.1267 -1.7514  0.8186
  596MOL0     H78654   0.774  10.048   6.655  1.3086 -0.0216  0.4324
  596MOL0     H78655   0.894   9.942   6.833  0.4021  0.0373 -0.5389
  596MOL0     H78656   1.323  10.015   7.114 -2.3508 -0.1381 -1.3588
  596MOL0     H78657   1.436   9.935   7.299 -0.3642  3.5361 -1.1151
  596MOL0     H78658   0.853   8.594   8.382  2.4058  0.1665 -2.9776
  596MOL0     H78659   0.816   8.524   8.624  0.9413 -1.9854  1.3836
  596MOL0     H78660   0.510   8.081   8.827  0.0691  2.4305  0.5304
  596MOL0     H78661   0.468   7.923   8.989 -0.1257  1.3300  1.7897
  596MOL0     H78662   0.801   7.756   9.263  0.9527 -4.2238 -0.2201
  596MOL0     H78663   0.719   7.704   9.110  0.5452  2.4093 -0.3658
  596MOL0     H78664   0.688   7.575   9.315 -0.8549  1.0217  2.8025
  596MOL0     H78665   0.573   7.693   9.364  1.5229  2.5378 -0.9102
  596MOL0     H78666   0.558   7.558   9.085 -1.0279 -4.2199  0.9184
  596MOL0     H78667   0.444   7.665   9.154  0.9850  1.2680  1.3496
  596MOL0     H78668   0.396   7.405   9.182  2.1296 -2.4029  1.5391
  596MOL0     H78669   0.499   7.420   9.322  2.3288 -0.2969 -1.1643
  596MOL0     H78670   0.185   7.642   9.472  0.6487  1.2105 -0.8263
  596MOL0     H78671   0.850   7.996   9.169 -1.4918  5.1345  2.4965
  596MOL0     H78672   0.913   8.163   8.984 -1.6731  2.3898 -0.2853
  597MOL0     O78673   1.964   9.810  10.276 -0.1669  0.0257  0.0131
  597MOL0     C78674   1.945   9.790  10.158  0.0233  1.4167  0.3855
  597MOL0     O78675   2.005   9.853  10.046 -0.0021  0.3144 -0.3594
  597MOL0     C78676   2.080   9.962  10.066  0.3787 -0.5082  0.4552
  597MOL0     C78677   2.183   9.980   9.970 -0.1550  0.2293  0.6665
  597MOL0     C78678   2.267  10.087   9.978  0.3504  0.0262  0.8429
  597MOL0     C78679   2.244  10.188  10.069 -0.0560  0.3303  0.2914
  597MOL0     O78680   2.313  10.305  10.061  0.1446 -0.3837 -0.3789
  597MOL0     C78681   2.393  10.340  10.175 -0.4211  0.2332 -0.2234
  597MOL0     C78682   2.507  10.444  10.145 -0.2575  0.3157  0.1631
  597MOL0     C78683   2.585  10.465  10.274 -0.8256  0.3473 -0.9625
  597MOL0     C78684   2.695  10.556  10.248  1.0851 -0.8156  0.3686
  597MOL0     C78685   2.763  10.608  10.379  0.0833  0.3180  0.3850
  597MOL0     C78686   2.865  10.729  10.370 -0.3749 -0.5269  1.0453
  597MOL0     C78687   2.938  10.763  10.498 -0.1072 -0.2971  0.8109
  597MOL0     C78688   2.990  10.905  10.495 -0.1560  0.2154 -0.1930
  597MOL0     N78689   2.886  11.005  10.515 -0.4382  0.3715  0.1378
  597MOL0     C78690   2.843  11.058  10.640 -0.2130  0.8354  1.3379
  597MOL0     C78691   2.773  11.164  10.597  0.5772  0.0454  0.1855
  597MOL0     C78692   2.706  11.267  10.687  0.9928  0.6212  0.8202
  597MOL0     C78693   2.801  11.388  10.688 -1.0169 -0.9694 -0.3955
  597MOL0     C78694   2.750  11.479  10.802  0.2815 -0.0585  0.8290
  597MOL0     C78695   2.841  11.595  10.843  1.4193 -1.2563 -0.2045
  597MOL0     O78696   2.956  11.536  10.910  0.2258 -1.1680 -0.3776
  597MOL0     C78697   2.969  11.556  11.046 -0.6153 -0.6622 -0.7759
  597MOL0     C78698   2.952  11.453  11.140 -0.1135 -0.3153 -0.8916
  597MOL0     C78699   2.977  11.465  11.281 -0.7123 -0.6986 -0.1807
  597MOL0     C78700   3.015  11.593  11.327 -0.1366  0.1562  0.8229
  597MOL0     C78701   3.025  11.615  11.466 -0.0285 -0.9193  1.0241
  597MOL0     O78702   2.942  11.554  11.545  0.7306  0.1450 -1.0822
  597MOL0     C78703   2.930  11.576  11.681 -0.3181 -0.2750 -0.2010
  597MOL0     C78704   3.028  11.574  11.775 -0.6543  0.0562  0.3849
  597MOL0     C78705   3.003  11.593  11.910 -0.9487 -0.7650 -0.1612
  597MOL0     C78706   2.876  11.637  11.950 -0.2734 -0.5061  0.2251
  597MOL0     O78707   2.838  11.659  12.078 -0.6281 -0.7516  0.5382
  597MOL0     C78708   2.879  11.561  12.176  0.5834 -0.4015 -0.8736
  597MOL0     C78709   2.836  11.614  12.317 -1.1911 -0.1936 -0.6432
  597MOL0     C78710   2.855  11.493  12.410  0.0633  1.0004 -0.3232
  597MOL0     C78711   3.007  11.450  12.436 -0.4334 -0.3998 -0.0072
  597MOL0     C78712   3.093  11.568  12.491 -0.4724  0.3190  0.2169
  597MOL0     C78713   3.233  11.527  12.537  0.8838 -0.2075 -0.3248
  597MOL0     C78714   3.227  11.417  12.631  0.9872 -0.9896 -1.1268
  597MOL0     C78715   3.365  11.416  12.710 -0.1239 -0.2934 -0.3697
  597MOL0    Cl78716   3.357  11.261  12.803  0.1228 -0.1725  0.9668
  597MOL0     C78717   2.775  11.627  11.857 -0.3532  0.8048 -0.0178
  597MOL0     C78718   2.799  11.598  11.721 -0.1063 -0.0486 -0.3447
  597MOL0     O78719   3.113  11.702  11.502  0.5132  0.4972 -0.0466
  597MOL0     C78720   3.041  11.706  11.235  0.6671  0.3273  1.1473
  597MOL0     C78721   3.010  11.688  11.090 -0.8515 -0.0294 -0.4920
  597MOL0     N78722   2.756  11.173  10.468 -0.0108 -0.7244 -0.7850
  597MOL0     N78723   2.829  11.080  10.421 -0.2542  0.4504  0.6470
  597MOL0     C78724   2.131  10.174  10.162 -0.0468  0.3878  0.7692
  597MOL0     C78725   2.059  10.059  10.166 -0.6406  0.7408 -0.2608
  597MOL0     C78726   1.862   9.670  10.138  0.1589 -0.1402 -0.1021
  597MOL0     C78727   1.812   9.598  10.256 -0.6469 -0.5115  1.6945
  597MOL0     C78728   1.753   9.460  10.231  0.3502  0.0756  0.1297
  597MOL0     C78729   1.722   9.420  10.101 -0.0503 -1.0650 -0.1374
  597MOL0     O78730   1.650   9.307  10.089  0.2792 -0.3246 -0.1285
  597MOL0     C78731   1.583   9.266   9.967 -0.9320  0.0951  0.6852
  597MOL0     C78732   1.676   9.195   9.868 -0.0737  0.3172 -0.0514
  597MOL0     C78733   1.597   9.129   9.759 -0.5281  0.3378 -0.1501
  597MOL0     C78734   1.552   9.236   9.653 -0.1486  0.1936 -0.0673
  597MOL0     C78735   1.431   9.302   9.680  0.5858 -0.4910  0.1684
  597MOL0     C78736   1.334   9.377   9.676 -0.6264 -0.0288 -0.2585
  597MOL0     C78737   1.774   9.502   9.997  0.4405  0.0229 -0.1915
  597MOL0     C78738   1.839   9.618  10.009 -0.1524 -0.4510 -0.7239
  597MOL0     H78739   2.201   9.910   9.890 -0.1289 -0.5573  1.3437
  597MOL0     H78740   2.349  10.091   9.907  0.5150 -2.0449  0.8740
  597MOL0     H78741   2.438  10.248  10.212  3.0018  1.0371 -1.9661
  597MOL0     H78742   2.327  10.385  10.250 -0.3725 -0.4235  0.2138
  597MOL0     H78743   2.469  10.544  10.122  0.1007  0.5360  0.5099
  597MOL0     H78744   2.580  10.403  10.074 -2.1241 -4.0478  0.4068
  597MOL0     H78745   2.624  10.366  10.299 -0.0266  1.1770  1.3490
  597MOL0     H78746   2.516  10.490  10.355 -0.4145  0.1027 -0.5279
  597MOL0     H78747   2.770  10.507  10.186  3.2119 -2.2175  3.7543
  597MOL0     H78748   2.650  10.640  10.194 -1.9220 -1.4414  1.6824
  597MOL0     H78749   2.814  10.524  10.427  2.1257 -0.7000 -3.1432
  597MOL0     H78750   2.680  10.633  10.446 -2.5852 -2.6622 -1.5195
  597MOL0     H78751   2.817  10.813  10.319  1.4437 -1.6267 -2.9504
  597MOL0     H78752   2.941  10.713  10.293 -0.3091 -1.5092  1.3084
  597MOL0     H78753   2.863  10.748  10.576 -1.1904 -3.6439 -0.7023
  597MOL0     H78754   3.018  10.690  10.512 -0.6113 -0.7840  1.2048
  597MOL0     H78755   3.032  10.918  10.395  4.2462  0.6870  1.5037
  597MOL0     H78756   3.076  10.920  10.561 -0.9144  0.8551  0.6749
  597MOL0     H78757   2.866  11.025  10.741  0.6274  3.3449  2.0339
  597MOL0     H78758   2.687  11.239  10.791  2.1696  1.4437  1.2800
  597MOL0     H78759   2.605  11.288  10.650 -0.8804 -4.7508  2.0318
  597MOL0     H78760   2.788  11.435  10.590  0.1476  1.2157  0.4228
  597MOL0     H78761   2.910  11.375  10.688 -0.6564  1.3720  1.2817
  597MOL0     H78762   2.648  11.515  10.784  0.4055  1.2897  2.6072
  597MOL0     H78763   2.738  11.418  10.891  2.2047 -2.4155 -0.4159
  597MOL0     H78764   2.781  11.656  10.911 -0.8384 -1.2819 -2.0585
  597MOL0     H78765   2.867  11.652  10.753 -2.9320  0.3173 -0.6819
  597MOL0     H78766   2.936  11.351  11.106  0.3528 -0.0448 -1.9732
  597MOL0     H78767   2.962  11.386  11.354 -0.0778  1.5231  2.5543
  597MOL0     H78768   3.127  11.558  11.732  0.2706  2.2016  1.5632
  597MOL0     H78769   3.091  11.600  11.972 -0.1945  1.2828 -1.3828
  597MOL0     H78770   2.984  11.532  12.173  1.0011  0.9272  0.1848
  597MOL0     H78771   2.817  11.472  12.158 -1.5198  0.6490  0.7662
  597MOL0     H78772   2.733  11.650  12.310 -1.0344  0.2902 -0.4692
  597MOL0     H78773   2.911  11.687  12.347 -3.1798  2.1671 -1.1123
  597MOL0     H78774   2.800  11.408  12.369  2.9111 -1.1874  0.0443
  597MOL0     H78775   2.804  11.502  12.506 -0.9384  2.4746 -0.9661
  597MOL0     H78776   2.998  11.369  12.509  3.5807  1.4613  2.9248
  597MOL0     H78777   3.036  11.409  12.339 -2.1002 -3.1519  0.5410
  597MOL0     H78778   3.034  11.599  12.578 -1.4574  2.0866 -1.0172
  597MOL0     H78779   3.101  11.640  12.409  0.5581 -1.3430 -1.2143
  597MOL0     H78780   3.264  11.614  12.596 -2.2999  2.4688 -2.2719
  597MOL0     H78781   3.301  11.514  12.453  0.4168  1.7815 -1.0629
  597MOL0     H78782   3.150  11.440  12.704 -1.1632 -0.1803 -3.4791
  597MOL0     H78783   3.220  11.326  12.571  3.1900 -0.0152 -3.0737
  597MOL0     H78784   3.379  11.506  12.771 -0.2706 -1.0033  0.7316
  597MOL0     H78785   3.458  11.405  12.652  1.5077  1.6524  1.6919
  597MOL0     H78786   2.673  11.641  11.891 -0.4452 -0.0649  0.0985
  597MOL0     H78787   2.717  11.587  11.651  0.7376  2.5110 -1.8712
  597MOL0     H78788   3.076  11.805  11.262 -0.2960  1.1842 -0.5766
  597MOL0     H78789   3.023  11.759  11.009  0.2469  0.3390 -0.0020
  597MOL0     H78790   2.106  10.251  10.235  1.8000  1.5906  0.1957
  597MOL0     H78791   1.990  10.038  10.248  1.5080 -1.1124  1.1800
  597MOL0     H78792   1.826   9.642  10.354 -0.5219  0.3759  1.2869
  597MOL0     H78793   1.715   9.402  10.314 -2.5543  2.2499  0.5041
  597MOL0     H78794   1.532   9.349   9.918 -1.5804 -1.4631 -1.4897
  597MOL0     H78795   1.502   9.195   9.990 -1.3392 -0.4472 -2.0683
  597MOL0     H78796   1.757   9.260   9.836  1.5161 -1.2996  0.5171
  597MOL0     H78797   1.721   9.118   9.931  2.0429 -0.6265 -2.5774
  597MOL0     H78798   1.524   9.054   9.789 -1.7210  0.6871 -2.0179
  597MOL0     H78799   1.669   9.074   9.697 -0.8557 -1.5970  1.1201
  597MOL0     H78800   1.637   9.303   9.638  0.6374  0.2405  3.5599
  597MOL0     H78801   1.535   9.171   9.566 -0.7313  0.1826  0.0508
  597MOL0     H78802   1.252   9.445   9.691  1.7383  3.5127 -1.9715
  597MOL0     H78803   1.759   9.474   9.893  0.3273  2.7368 -0.9781
  597MOL0     H78804   1.863   9.671   9.917 -0.6927  0.0653 -0.5691
  598MOL0     O78805   6.400   3.807   9.472  0.2469 -0.2056 -0.5938
  598MOL0     C78806   6.344   3.697   9.505 -0.0639 -0.0223 -0.4726
  598MOL0     O78807   6.309   3.592   9.423 -0.2981  0.2692  0.3776
  598MOL0     C78808   6.351   3.589   9.296 -0.3240  0.2661 -0.0944
  598MOL0     C78809   6.278   3.667   9.205  0.9272  0.3615  0.2909
  598MOL0     C78810   6.303   3.638   9.062  0.4801 -0.9303 -0.6950
  598MOL0     C78811   6.415   3.564   9.022  0.0111 -0.4212  0.6139
  598MOL0     O78812   6.453   3.575   8.889 -0.1882 -0.1082  0.0035
  598MOL0     C78813   6.554   3.485   8.840 -0.4819 -0.8007  0.5390
  598MOL0     C78814   6.503   3.339   8.825  0.2544  1.3977 -0.0924
  598MOL0     C78815   6.405   3.329   8.704  0.8601  0.2959 -0.5403
  598MOL0     C78816   6.347   3.183   8.685 -0.1383 -0.5129 -1.2102
  598MOL0     C78817   6.451   3.071   8.659  1.4588  1.1220 -0.5861
  598MOL0     C78818   6.391   2.939   8.601 -0.1687 -0.1555  0.2518
  598MOL0     C78819   6.499   2.842   8.551 -0.1903 -0.3527  0.2344
  598MOL0     C78820   6.551   2.879   8.413  0.0797 -0.9695 -0.1856
  598MOL0     N78821   6.656   2.792   8.358 -0.0920  0.0918 -0.1834
  598MOL0     C78822   6.619   2.672   8.311  0.2537  0.4443  1.1061
  598MOL0     C78823   6.740   2.600   8.305  0.1855 -0.1263  0.7138
  598MOL0     C78824   6.751   2.458   8.244 -0.3520 -0.0755 -0.0874
  598MOL0     C78825   6.900   2.414   8.224 -0.1214  0.5866 -0.9700
  598MOL0     C78826   6.878   2.304   8.114  0.0661 -0.2321 -0.2033
  598MOL0     C78827   7.003   2.233   8.057  0.4164  0.4001 -0.3765
  598MOL0     O78828   7.069   2.143   8.148 -0.1844 -0.0368  0.0048
  598MOL0     C78829   7.175   2.071   8.090 -0.0137  0.4398 -0.1137
  598MOL0     C78830   7.264   2.018   8.180  1.0379  0.9914 -0.1192
  598MOL0     C78831   7.372   1.939   8.144 -0.5140 -0.5389  0.7177
  598MOL0     C78832   7.400   1.923   8.004 -0.9044 -0.2341 -1.1014
  598MOL0     C78833   7.520   1.856   7.964 -0.8561  0.1936 -0.4166
  598MOL0     O78834   7.629   1.836   8.059  0.1497  0.3699  0.3673
  598MOL0     C78835   7.743   1.780   8.017  0.2402  1.0080 -1.0489
  598MOL0     C78836   7.872   1.840   8.015  0.1513 -0.7662 -1.0348
  598MOL0     C78837   7.984   1.767   7.989 -0.4063  0.3685 -0.7357
  598MOL0     C78838   7.981   1.639   7.947  0.8731 -0.1526 -1.1591
  598MOL0     O78839   8.073   1.561   7.891  0.6128 -0.1073  0.4144
  598MOL0     C78840   8.200   1.619   7.869  0.2792  1.0245  0.3249
  598MOL0     C78841   8.297   1.607   7.988  0.4621 -0.0737 -0.4469
  598MOL0     C78842   8.437   1.660   7.953  0.3642 -0.1437 -0.2136
  598MOL0     C78843   8.541   1.633   8.059  0.4240 -0.0101  0.4226
  598MOL0     C78844   8.600   1.489   8.045 -0.5788 -0.7903  0.1738
  598MOL0     C78845   8.692   1.461   8.174  0.5066 -0.9508 -0.2389
  598MOL0     C78846   8.777   1.337   8.159  0.0012  0.0807  0.1548
  598MOL0     C78847   8.924   1.348   8.229  0.3886  0.3974 -0.4759
  598MOL0    Cl78848   8.919   1.368   8.402 -0.4291 -0.1609  0.0307
  598MOL0     C78849   7.855   1.578   7.957  0.1102  0.0113 -0.3243
  598MOL0     C78850   7.736   1.641   7.994 -0.4881 -0.2298  0.0396
  598MOL0     O78851   7.527   1.818   7.849 -1.1600  0.2112 -0.1799
  598MOL0     C78852   7.312   1.976   7.907  0.2909  0.4935  0.2441
  598MOL0     C78853   7.197   2.044   7.957 -0.0961 -0.7163  0.7414
  598MOL0     N78854   6.839   2.681   8.359  0.1713  0.2761 -0.2315
  598MOL0     N78855   6.786   2.796   8.373 -0.8989 -0.3675 -0.2791
  598MOL0     C78856   6.503   3.507   9.119 -0.6087 -0.9173 -0.3239
  598MOL0     C78857   6.462   3.515   9.255 -0.4604 -0.4575 -1.2348
  598MOL0     C78858   6.304   3.694   9.642  0.4260  0.5243  0.1182
  598MOL0     C78859   6.227   3.579   9.687 -0.6817  0.6641  0.2692
  598MOL0     C78860   6.175   3.581   9.809  0.1233  0.0949 -0.6043
  598MOL0     C78861   6.195   3.686   9.901  0.0496  0.1023 -0.4905
  598MOL0     O78862   6.128   3.682  10.019 -0.9334 -0.4891  0.2908
  598MOL0     C78863   5.995   3.732  10.017  0.2004 -0.4913  0.1248
  598MOL0     C78864   5.990   3.882  10.013 -0.7793 -0.4813  0.2276
  598MOL0     C78865   5.854   3.944  10.044  0.3371 -0.8637  0.4877
  598MOL0     C78866   5.825   4.049   9.937  0.4693 -0.8001 -0.2589
  598MOL0     C78867   5.689   4.102   9.949  0.4477 -0.7122  0.3379
  598MOL0     C78868   5.580   4.150   9.974  0.5822  0.3452  0.4194
  598MOL0     C78869   6.268   3.796   9.860  0.7060 -0.5179  0.4915
  598MOL0     C78870   6.311   3.802   9.726  0.1876 -0.7776  0.2390
  598MOL0     H78871   6.187   3.721   9.230  0.4519 -0.2457 -0.0799
  598MOL0     H78872   6.239   3.681   8.986  1.3827 -0.6836 -1.3343
  598MOL0     H78873   6.650   3.493   8.891  2.0395  0.7223 -3.8825
  598MOL0     H78874   6.593   3.529   8.748  1.0566  0.5676  1.7877
  598MOL0     H78875   6.462   3.294   8.916  2.1993  1.0700  0.6524
  598MOL0     H78876   6.592   3.284   8.793 -0.5778  0.7573 -1.4217
  598MOL0     H78877   6.448   3.367   8.611  1.7027 -0.0923 -0.3230
  598MOL0     H78878   6.317   3.391   8.723 -0.4928 -0.8480 -2.6951
  598MOL0     H78879   6.293   3.157   8.776  0.4404 -2.5893 -1.4104
  598MOL0     H78880   6.270   3.179   8.608 -4.5108  0.1807  2.6580
  598MOL0     H78881   6.506   3.047   8.750 -0.5097  1.6117  0.8107
  598MOL0     H78882   6.522   3.103   8.582 -1.2116  0.9843 -3.2690
  598MOL0     H78883   6.320   2.960   8.520 -0.7442  0.3178  0.8735
  598MOL0     H78884   6.320   2.890   8.668  0.1484  0.2449  0.8804
  598MOL0     H78885   6.574   2.842   8.629 -0.2979 -1.2784  0.3450
  598MOL0     H78886   6.450   2.744   8.544  1.4317 -1.1529 -0.2727
  598MOL0     H78887   6.586   2.982   8.409 -0.6220 -0.7473 -1.0840
  598MOL0     H78888   6.469   2.869   8.341 -0.1205 -2.4945  0.2254
  598MOL0     H78889   6.520   2.639   8.281 -0.5933  3.8748 -0.4111
  598MOL0     H78890   6.696   2.474   8.150  3.0628  5.4772 -1.6353
  598MOL0     H78891   6.692   2.382   8.296 -0.0808 -0.7259 -0.7022
  598MOL0     H78892   6.940   2.371   8.317  2.0397  1.6574 -1.3187
  598MOL0     H78893   6.971   2.493   8.197 -0.7376  1.0134 -1.3502
  598MOL0     H78894   6.807   2.230   8.151  1.7051 -0.7163  2.1814
  598MOL0     H78895   6.833   2.352   8.027 -2.4351 -1.3485  0.3774
  598MOL0     H78896   7.079   2.302   8.019  1.3525  0.8964  2.2033
  598MOL0     H78897   6.964   2.167   7.980 -1.1873 -0.2385  0.9226
  598MOL0     H78898   7.251   2.014   8.288  0.5515 -2.1233 -0.1919
  598MOL0     H78899   7.437   1.891   8.216  1.8754 -0.3536 -1.2046
  598MOL0     H78900   7.883   1.946   8.036  1.3702 -0.7102 -1.8590
  598MOL0     H78901   8.075   1.820   8.015 -0.5777 -1.3672  4.4510
  598MOL0     H78902   8.192   1.719   7.826  0.9230  1.1315  0.4461
  598MOL0     H78903   8.238   1.560   7.785 -1.5804  2.6522 -1.7877
  598MOL0     H78904   8.302   1.502   8.019 -0.7310 -0.1264 -0.4045
  598MOL0     H78905   8.261   1.664   8.075  1.5632 -2.3399  1.6312
  598MOL0     H78906   8.429   1.768   7.942 -0.6888 -0.2852 -0.9386
  598MOL0     H78907   8.464   1.614   7.857 -0.4331 -1.0655 -0.0137
  598MOL0     H78908   8.618   1.709   8.041  1.4745 -0.7538  1.6244
  598MOL0     H78909   8.493   1.661   8.153 -0.4099  2.2482 -0.6022
  598MOL0     H78910   8.660   1.477   7.954 -0.2698  0.9087  0.1275
  598MOL0     H78911   8.519   1.416   8.053 -0.0936 -1.3723 -0.1775
  598MOL0     H78912   8.622   1.460   8.258  1.7461 -3.1148  0.8393
  598MOL0     H78913   8.752   1.552   8.184  0.8204 -1.2609  0.7886
  598MOL0     H78914   8.710   1.253   8.181 -1.1695  1.0643  0.4467
  598MOL0     H78915   8.801   1.336   8.053  1.4750  1.2426  0.4471
  598MOL0     H78916   8.989   1.426   8.188  2.1865 -2.0456 -2.6507
  598MOL0     H78917   8.980   1.256   8.206  0.9250  0.0788  1.8618
  598MOL0     H78918   7.858   1.470   7.954  0.1609 -0.0475  1.1485
  598MOL0     H78919   7.640   1.592   8.003 -0.0914 -1.2391 -0.9771
  598MOL0     H78920   7.340   1.961   7.804 -0.1010  1.0225  0.0575
  598MOL0     H78921   7.124   2.074   7.882  1.1391 -0.2783 -0.3224
  598MOL0     H78922   6.598   3.460   9.096  0.8066  1.2303  0.7917
  598MOL0     H78923   6.518   3.469   9.335 -2.9876  1.5882  1.9757
  598MOL0     H78924   6.213   3.491   9.626  0.1702 -0.1790  1.2605
  598MOL0     H78925   6.114   3.498   9.842 -1.3145  1.5497  0.6086
  598MOL0     H78926   5.930   3.693  10.095 -1.4234  1.5067 -0.1343
  598MOL0     H78927   5.954   3.693   9.923 -2.1778  3.2113 -0.5725
  598MOL0     H78928   6.048   3.934  10.090 -2.7162  0.8388  0.8776
  598MOL0     H78929   6.029   3.913   9.916 -1.0490 -3.4100 -0.9110
  598MOL0     H78930   5.848   3.986  10.145 -2.6083 -0.8136  0.3710
  598MOL0     H78931   5.776   3.868  10.049  1.6216 -2.1890  1.3516
  598MOL0     H78932   5.899   4.129   9.951 -0.4697 -0.0302  0.4865
  598MOL0     H78933   5.832   3.998   9.841 -2.4844 -0.6239 -0.6625
  598MOL0     H78934   5.480   4.181   9.997  0.2362 -1.4141  1.5506
  598MOL0     H78935   6.290   3.875   9.932 -3.0755 -1.2018  2.6657
  598MOL0     H78936   6.354   3.893   9.686 -1.7174 -0.2499 -0.7638
  599MOL0     O78937   0.467   0.242   5.370  0.1339 -0.2315 -0.2473
  599MOL0     C78938   0.382   0.186   5.299 -0.2257 -0.4050 -0.3413
  599MOL0     O78939   0.251   0.156   5.334 -0.0070 -0.1291  0.2402
  599MOL0     C78940   0.195   0.207   5.445  0.0589 -0.5386 -0.9507
  599MOL0     C78941   0.105   0.134   5.514  0.3721 -0.4853 -0.0725
  599MOL0     C78942   0.036   0.183   5.634  0.1992  0.2706 -0.3731
  599MOL0     C78943   0.070   0.311   5.678  0.4906 -0.3954 -0.0972
  599MOL0     O78944   0.021   0.359   5.798 -0.5333 -0.6441  0.1407
  599MOL0     C78945  -0.003   0.279   5.913  0.1297  0.1521  0.1994
  599MOL0     C78946   0.013   0.363   6.039 -0.7935 -0.4193 -0.6390
  599MOL0     C78947  -0.036   0.284   6.170 -0.2475 -1.3326  0.2647
  599MOL0     C78948  -0.030   0.375   6.301 -0.4202  0.5686  0.5212
  599MOL0     C78949  -0.121   0.500   6.294 -0.4990  0.5968  0.7276
  599MOL0     C78950  -0.102   0.596   6.406  0.5530 -0.3992  0.5713
  599MOL0     C78951  -0.170   0.542   6.537 -0.1970  0.2394  0.6889
  599MOL0     C78952  -0.152   0.655   6.643 -0.1453 -0.1070 -0.3011
  599MOL0     N78953  -0.215   0.610   6.766  0.3295  0.4718  0.2244
  599MOL0     C78954  -0.350   0.580   6.778 -0.5000  0.7665 -0.5178
  599MOL0     C78955  -0.356   0.553   6.903  0.0880 -0.0538 -0.2071
  599MOL0     C78956  -0.489   0.527   6.974 -0.6322 -0.3193 -0.7815
  599MOL0     C78957  -0.492   0.369   6.990  0.0955 -0.4953  0.0937
  599MOL0     C78958  -0.572   0.328   7.116 -0.4027 -0.1464  0.3979
  599MOL0     C78959  -0.483   0.349   7.241  0.5668 -1.0746 -0.4114
  599MOL0     O78960  -0.577   0.360   7.344  0.0547 -0.1291  0.3300
  599MOL0     C78961  -0.541   0.415   7.465 -0.0106  0.7056  0.7299
  599MOL0     C78962  -0.410   0.410   7.509 -0.1765 -0.5942  0.3107
  599MOL0     C78963  -0.369   0.464   7.631  0.1247  1.0112  0.6105
  599MOL0     C78964  -0.462   0.530   7.714 -0.2613  0.0671  0.2692
  599MOL0     C78965  -0.424   0.576   7.860  0.2227  0.8186  0.1828
  599MOL0     O78966  -0.286   0.596   7.879 -0.2795 -0.1335 -0.2655
  599MOL0     C78967  -0.228   0.609   8.001  1.5149  0.1431 -0.2999
  599MOL0     C78968  -0.102   0.667   7.991  0.0986 -0.6278  0.3252
  599MOL0     C78969  -0.023   0.687   8.104 -0.8631  0.0554  0.2536
  599MOL0     C78970  -0.067   0.641   8.222  0.2944 -0.4997 -0.5364
  599MOL0     O78971   0.011   0.653   8.337  1.4524 -0.3287 -0.1631
  599MOL0     C78972   0.136   0.722   8.342  0.1825 -1.2072  0.3912
  599MOL0     C78973   0.176   0.741   8.489 -0.5024  0.1373 -0.0712
  599MOL0     C78974   0.270   0.631   8.541  0.2838  0.0984 -0.1391
  599MOL0     C78975   0.273   0.638   8.696  0.0262  0.5632  0.1463
  599MOL0     C78976   0.304   0.784   8.758 -0.2458 -0.2788  1.2377
  599MOL0     C78977   0.274   0.822   8.900 -0.3910 -0.0017 -0.3126
  599MOL0     C78978   0.280   0.705   9.002  1.1623 -0.6790 -0.1856
  599MOL0     C78979   0.317   0.759   9.138 -0.5374  0.0519  0.1988
  599MOL0    Cl78980   0.245   0.639   9.268  0.1128 -0.1759 -0.1922
  599MOL0     C78981  -0.188   0.571   8.239  0.5135  0.3335  0.6835
  599MOL0     C78982  -0.265   0.545   8.121  1.0149  0.4193  0.1825
  599MOL0     O78983  -0.518   0.589   7.937 -0.1284  0.2327 -0.3737
  599MOL0     C78984  -0.594   0.535   7.666  0.0640  0.1532 -1.2682
  599MOL0     C78985  -0.630   0.477   7.554  0.5538 -0.4047  0.8284
  599MOL0     N78986  -0.236   0.559   6.970 -0.1930 -0.7227 -0.7731
  599MOL0     N78987  -0.149   0.606   6.886  0.3717 -0.3016  0.5111
  599MOL0     C78988   0.159   0.385   5.606 -0.1491 -0.4252 -0.2679
  599MOL0     C78989   0.210   0.338   5.492 -0.6349 -0.3545  0.5187
  599MOL0     C78990   0.420   0.149   5.157  1.1923 -0.6185 -0.0039
  599MOL0     C78991   0.330   0.073   5.082 -0.0661  0.2623 -0.1657
  599MOL0     C78992   0.365   0.026   4.952  0.6761 -0.5948  0.1321
  599MOL0     C78993   0.487   0.070   4.904  0.1128  0.4183 -0.1106
  599MOL0     O78994   0.531   0.029   4.781  0.0734  0.1083 -0.0873
  599MOL0     C78995   0.611  -0.091   4.786  0.0638  0.0052 -0.6287
  599MOL0     C78996   0.632  -0.145   4.646 -0.0200  0.3010  1.1504
  599MOL0     C78997   0.523  -0.117   4.541 -0.2233 -0.2399 -0.4655
  599MOL0     C78998   0.561  -0.196   4.416  0.3421 -1.1861  1.0140
  599MOL0     C78999   0.469  -0.171   4.307 -0.4023  0.5333 -0.5113
  599MOL0     C79000   0.401  -0.157   4.211 -0.3041  0.1632  0.2360
  599MOL0     C79001   0.576   0.137   4.984 -0.1194  0.2071  0.1605
  599MOL0     C79002   0.541   0.187   5.107  0.7436  0.3116 -0.4961
  599MOL0     H79003   0.071   0.035   5.486 -0.5779 -0.1613 -0.0991
  599MOL0     H79004  -0.033   0.127   5.696 -0.7354 -0.9705 -2.4162
  599MOL0     H79005   0.079   0.206   5.920  2.0357  1.2027 -5.4377
  599MOL0     H79006  -0.106   0.243   5.912 -0.1586  0.9144 -1.7555
  599MOL0     H79007  -0.048   0.449   6.012  2.4487  0.8381 -5.0394
  599MOL0     H79008   0.117   0.395   6.049 -1.6189  2.4796 -0.4032
  599MOL0     H79009   0.035   0.203   6.186  1.4625 -0.3390 -1.8268
  599MOL0     H79010  -0.137   0.249   6.146 -0.6181 -0.1553  0.0256
  599MOL0     H79011  -0.058   0.314   6.388 -1.2711 -1.4297 -1.0725
  599MOL0     H79012   0.073   0.408   6.316  1.0020 -1.2536 -3.7740
  599MOL0     H79013  -0.225   0.467   6.285  0.3765 -1.7794 -2.8477
  599MOL0     H79014  -0.097   0.555   6.202  0.2527  0.1235  0.6357
  599MOL0     H79015  -0.147   0.692   6.379  1.4605  0.5212  2.2374
  599MOL0     H79016   0.004   0.621   6.407  0.2154  1.1528 -0.2766
  599MOL0     H79017  -0.277   0.531   6.523 -0.1950  0.2705  0.6506
  599MOL0     H79018  -0.120   0.451   6.573  0.8703  0.4731 -0.1297
  599MOL0     H79019  -0.202   0.743   6.602  1.0327  0.6626 -0.1529
  599MOL0     H79020  -0.045   0.663   6.665  0.1173 -4.1955  0.6975
  599MOL0     H79021  -0.427   0.581   6.702 -0.7282 -2.3903 -0.4660
  599MOL0     H79022  -0.571   0.551   6.905  0.2123 -1.0241 -2.0846
  599MOL0     H79023  -0.484   0.586   7.065  2.8529 -0.1887 -0.9131
  599MOL0     H79024  -0.390   0.330   6.988  0.7815  1.2412 -0.4797
  599MOL0     H79025  -0.549   0.332   6.904 -0.9845 -1.0972  1.0371
  599MOL0     H79026  -0.671   0.375   7.117 -0.0991  0.5046  0.7507
  599MOL0     H79027  -0.595   0.221   7.120  2.0461 -0.6795  1.8633
  599MOL0     H79028  -0.437   0.448   7.240 -3.1536  0.8945  1.1032
  599MOL0     H79029  -0.406   0.271   7.241 -0.3533 -2.0082 -0.2787
  599MOL0     H79030  -0.329   0.374   7.447 -0.9383  1.7971 -2.2994
  599MOL0     H79031  -0.268   0.467   7.669  0.5359  2.1701 -0.5217
  599MOL0     H79032  -0.065   0.704   7.896  1.0200 -1.3838  0.3634
  599MOL0     H79033   0.072   0.732   8.078 -2.0457  0.8627 -3.2463
  599MOL0     H79034   0.132   0.811   8.279 -1.6709 -2.1735 -0.9670
  599MOL0     H79035   0.211   0.658   8.296  2.2718  1.6042 -0.3744
  599MOL0     H79036   0.088   0.742   8.554 -1.0973 -0.7657 -0.8466
  599MOL0     H79037   0.226   0.838   8.502  0.5213 -0.5935  1.8750
  599MOL0     H79038   0.372   0.652   8.508  0.4555 -0.9657 -0.3229
  599MOL0     H79039   0.241   0.529   8.514  0.7261  0.1608 -0.8662
  599MOL0     H79040   0.178   0.595   8.728 -0.7914  1.7491 -0.6163
  599MOL0     H79041   0.353   0.569   8.722 -0.5667 -1.4357 -2.8931
  599MOL0     H79042   0.236   0.850   8.704 -0.0657 -1.7971 -1.0071
  599MOL0     H79043   0.406   0.816   8.731  0.9087 -4.1384  0.3641
  599MOL0     H79044   0.177   0.864   8.930 -0.1539  0.9581 -0.8349
  599MOL0     H79045   0.346   0.901   8.923 -0.5736  0.1332 -0.2008
  599MOL0     H79046   0.180   0.662   9.013  1.9513 -2.7597 -0.6246
  599MOL0     H79047   0.339   0.617   8.976 -1.0079 -2.6739  1.3102
  599MOL0     H79048   0.285   0.860   9.165  0.5240 -0.4541  3.8359
  599MOL0     H79049   0.426   0.760   9.142 -0.5224 -0.7526  0.0850
  599MOL0     H79050  -0.224   0.537   8.335  2.1277  2.3066  2.0687
  599MOL0     H79051  -0.350   0.479   8.114  0.0600  1.7311 -1.5104
  599MOL0     H79052  -0.674   0.573   7.728 -3.3146 -1.4568 -4.2761
  599MOL0     H79053  -0.738   0.480   7.542  0.2244 -0.4502  3.3790
  599MOL0     H79054   0.201   0.476   5.649 -4.3012  1.5880 -0.0442
  599MOL0     H79055   0.270   0.414   5.444 -1.8271  0.9725  1.0386
  599MOL0     H79056   0.228   0.053   5.112  0.1557 -0.0187  0.4209
  599MOL0     H79057   0.293  -0.030   4.893  2.6506 -1.4315 -1.6347
  599MOL0     H79058   0.552  -0.167   4.838  1.4427 -1.7505 -1.4904
  599MOL0     H79059   0.704  -0.054   4.829 -2.3353  1.0403  4.3141
  599MOL0     H79060   0.724  -0.103   4.604  0.1696 -1.9064 -0.8352
  599MOL0     H79061   0.648  -0.253   4.645  4.9442  0.7928  1.1573
  599MOL0     H79062   0.512  -0.011   4.515 -3.1263 -0.5380 -0.7743
  599MOL0     H79063   0.429  -0.158   4.577  0.1440 -0.1633  0.6273
  599MOL0     H79064   0.660  -0.175   4.375 -0.7955  0.3813 -1.0830
  599MOL0     H79065   0.554  -0.299   4.452  2.6881 -0.9060  2.4714
  599MOL0     H79066   0.345  -0.137   4.122 -1.3903 -5.4409 -0.7387
  599MOL0     H79067   0.675   0.162   4.948 -0.3998  2.3866  0.7975
  599MOL0     H79068   0.607   0.258   5.156  1.8329 -0.7259 -0.4223
  600MOL0     O79069   4.913   0.287   6.589  0.9926 -0.0269 -0.1882
  600MOL0     C79070   4.976   0.208   6.660 -0.6500 -0.6187  0.6195
  600MOL0     O79071   4.944   0.087   6.698  0.5062  0.4944 -0.4558
  600MOL0     C79072   4.818   0.046   6.704  0.6855  0.2729  0.1950
  600MOL0     C79073   4.795  -0.087   6.697 -0.8028 -0.8815 -0.1408
  600MOL0     C79074   4.664  -0.138   6.699  0.8346  0.2967 -0.7795
  600MOL0     C79075   4.556  -0.060   6.724 -0.1668 -0.7510  0.1734
  600MOL0     O79076   4.431  -0.105   6.749 -0.4454 -0.1441 -0.1382
  600MOL0     C79077   4.406  -0.245   6.791  0.1623  0.6062  0.0458
  600MOL0     C79078   4.269  -0.274   6.819 -1.4507  0.4806 -0.0196
  600MOL0     C79079   4.258  -0.404   6.900  0.7982  0.7450 -0.1045
  600MOL0     C79080   4.120  -0.455   6.922  0.1319  0.8992 -0.7320
  600MOL0     C79081   4.019  -0.360   6.986  0.7363  0.1290  0.9402
  600MOL0     C79082   3.894  -0.420   7.045 -0.4561 -0.5657 -0.3278
  600MOL0     C79083   3.801  -0.323   7.108 -0.8194 -0.0217  0.7626
  600MOL0     C79084   3.724  -0.246   6.998 -0.2035  0.0398 -0.4433
  600MOL0     N79085   3.709  -0.106   7.023  0.0955  0.6189  0.6258
  600MOL0     C79086   3.808  -0.003   7.006  0.5904 -0.1704  0.5361
  600MOL0     C79087   3.736   0.110   7.022  0.0182 -0.7990  0.1110
  600MOL0     C79088   3.797   0.243   6.981  0.0673  0.5216 -0.2445
  600MOL0     C79089   3.879   0.309   7.092  0.4015 -0.9460  0.0614
  600MOL0     C79090   3.811   0.392   7.198 -0.3156 -0.1102 -0.3245
  600MOL0     C79091   3.910   0.446   7.305 -0.2114  0.6439 -0.5009
  600MOL0     O79092   4.046   0.434   7.268  0.6764 -0.2091  0.6889
  600MOL0     C79093   4.114   0.539   7.217  0.2704 -0.9908 -1.0906
  600MOL0     C79094   4.060   0.648   7.142  0.3831  0.1750 -0.0310
  600MOL0     C79095   4.144   0.738   7.073  0.2923  0.3756  0.0298
  600MOL0     C79096   4.283   0.733   7.082 -0.4592 -0.3033 -0.3847
  600MOL0     C79097   4.355   0.841   7.015 -0.5143  0.9261  0.9507
  600MOL0     O79098   4.492   0.830   7.034 -0.8188 -0.9930 -0.2970
  600MOL0     C79099   4.586   0.905   6.963 -0.5885 -0.2631  0.5343
  600MOL0     C79100   4.562   0.941   6.829 -0.8109  0.1575 -0.5943
  600MOL0     C79101   4.653   1.036   6.782  0.3943 -0.2258  0.0161
  600MOL0     C79102   4.758   1.089   6.856  0.2574  0.3350  0.2106
  600MOL0     O79103   4.846   1.181   6.796  0.0507  0.7267  0.6190
  600MOL0     C79104   4.822   1.318   6.822  0.6573 -0.8363 -0.0420
  600MOL0     C79105   4.877   1.403   6.705 -1.0529  0.1781 -1.3051
  600MOL0     C79106   4.807   1.407   6.567  0.2575  0.1483 -0.0047
  600MOL0     C79107   4.875   1.513   6.474  0.0289 -0.5455 -0.1242
  600MOL0     C79108   4.848   1.474   6.332  0.2560  0.8048  0.0739
  600MOL0     C79109   4.890   1.575   6.237  0.6642 -0.2594  0.2417
  600MOL0     C79110   4.821   1.709   6.252  0.7386  0.1750  0.2108
  600MOL0     C79111   4.855   1.789   6.126 -0.3694 -0.1023  0.6201
  600MOL0    Cl79112   5.025   1.804   6.084  0.4280  0.3918 -0.0790
  600MOL0     C79113   4.769   1.055   6.983  0.4670  0.0953  0.0458
  600MOL0     C79114   4.693   0.953   7.040  0.1305  0.1518 -0.7257
  600MOL0     O79115   4.301   0.916   6.930 -0.2354 -0.2792 -0.4255
  600MOL0     C79116   4.336   0.646   7.178 -0.8247  0.1882  0.5033
  600MOL0     C79117   4.257   0.538   7.234  0.7586  0.8106 -0.0435
  600MOL0     N79118   3.600   0.084   7.044  0.1455  0.4322 -0.1397
  600MOL0     N79119   3.596  -0.045   7.053 -0.5717 -0.9318 -0.7259
  600MOL0     C79120   4.574   0.075   6.741 -0.2230  0.4460 -0.5105
  600MOL0     C79121   4.700   0.131   6.725  0.3674  0.6915  0.1421
  600MOL0     C79122   5.122   0.249   6.688  0.3216 -0.0023 -1.0897
  600MOL0     C79123   5.216   0.155   6.711  0.2580  1.4783 -1.0035
  600MOL0     C79124   5.349   0.191   6.743  0.0379 -0.2813 -0.8276
  600MOL0     C79125   5.379   0.331   6.752 -0.2981 -0.8032  0.6458
  600MOL0     O79126   5.506   0.385   6.771 -0.0312 -0.3341 -0.4526
  600MOL0     C79127   5.618   0.310   6.799 -0.4348  1.1636 -0.0016
  600MOL0     C79128   5.733   0.400   6.817  0.0911 -0.1963 -0.2742
  600MOL0     C79129   5.862   0.324   6.857 -0.1551  0.5612 -0.1157
  600MOL0     C79130   5.962   0.421   6.917  0.4778  0.1977  0.0261
  600MOL0     C79131   6.099   0.366   6.911  0.2184  0.6086  0.1144
  600MOL0     C79132   6.203   0.313   6.892  0.4936  0.4075 -0.8394
  600MOL0     C79133   5.274   0.426   6.733  0.3535 -0.5684 -0.0677
  600MOL0     C79134   5.150   0.384   6.692  0.1802 -0.4945 -0.2417
  600MOL0     H79135   4.876  -0.158   6.707  3.1058  3.2478  0.6324
  600MOL0     H79136   4.652  -0.246   6.698 -1.0839  0.4440  0.2104
  600MOL0     H79137   4.464  -0.254   6.883  3.2118  1.8909 -1.5939
  600MOL0     H79138   4.443  -0.319   6.719  0.5112  2.2169 -1.4994
  600MOL0     H79139   4.210  -0.283   6.727 -1.3362  1.0264 -0.1515
  600MOL0     H79140   4.231  -0.191   6.878  1.2265  0.6456  1.6440
  600MOL0     H79141   4.300  -0.386   7.000 -1.5410  1.6492  0.7775
  600MOL0     H79142   4.307  -0.481   6.839 -1.5545 -0.5589 -0.4476
  600MOL0     H79143   4.082  -0.494   6.827 -0.1460  1.8049 -1.0010
  600MOL0     H79144   4.130  -0.543   6.985 -0.7437  1.3183  0.0172
  600MOL0     H79145   3.992  -0.292   6.905  2.6711  0.3901  0.4607
  600MOL0     H79146   4.074  -0.299   7.059 -0.9106  0.9980  1.5136
  600MOL0     H79147   3.920  -0.494   7.121 -0.8602  1.6684  2.1311
  600MOL0     H79148   3.849  -0.483   6.968  0.0315  0.6538 -1.6516
  600MOL0     H79149   3.739  -0.382   7.175 -0.9800 -0.5732  0.1415
  600MOL0     H79150   3.862  -0.252   7.164 -0.4178 -1.1501  1.7918
  600MOL0     H79151   3.621  -0.282   7.001 -0.2199  0.0323 -0.9865
  600MOL0     H79152   3.757  -0.255   6.894 -0.0310  0.6062 -0.4418
  600MOL0     H79153   3.914  -0.018   6.986  0.3511  0.4533 -1.5076
  600MOL0     H79154   3.714   0.308   6.950 -2.1177 -1.3910  1.2142
  600MOL0     H79155   3.854   0.216   6.892  0.6472 -1.0281  0.5491
  600MOL0     H79156   3.936   0.381   7.032 -0.9866 -1.3232 -1.8005
  600MOL0     H79157   3.933   0.236   7.153 -1.1100 -2.5948 -0.4985
  600MOL0     H79158   3.768   0.483   7.155  1.4566  1.6399  1.4004
  600MOL0     H79159   3.730   0.333   7.241 -0.9236  0.2885 -0.9063
  600MOL0     H79160   3.894   0.379   7.390  0.9218 -0.4768 -1.1373
  600MOL0     H79161   3.878   0.547   7.335 -3.7964  1.0808 -4.5841
  600MOL0     H79162   3.954   0.634   7.120  0.8730 -4.4803 -0.3111
  600MOL0     H79163   4.086   0.805   7.011 -1.0044  1.0042  1.8221
  600MOL0     H79164   4.480   0.901   6.770  0.0549  2.1875 -3.3564
  600MOL0     H79165   4.645   1.066   6.678 -0.5227  1.3390  0.4978
  600MOL0     H79166   4.879   1.348   6.911 -1.1422  4.0829 -0.2451
  600MOL0     H79167   4.718   1.344   6.841  1.7548  1.8560  3.3131
  600MOL0     H79168   4.975   1.360   6.685 -1.8073 -3.1089  1.1115
  600MOL0     H79169   4.874   1.505   6.745 -2.6266  0.5968 -2.3829
  600MOL0     H79170   4.698   1.411   6.566  0.3118  2.2632 -0.2757
  600MOL0     H79171   4.828   1.310   6.521  2.3772  0.0480  1.0306
  600MOL0     H79172   4.831   1.609   6.502 -1.4019 -1.4833  0.9563
  600MOL0     H79173   4.981   1.525   6.497 -0.6183 -1.8607  4.4179
  600MOL0     H79174   4.741   1.454   6.319  0.2069 -0.0655  1.6079
  600MOL0     H79175   4.906   1.389   6.295 -0.8252  2.0092 -5.1703
  600MOL0     H79176   4.868   1.542   6.135 -0.7425  0.4025  0.3131
  600MOL0     H79177   4.997   1.587   6.256  0.2770  0.7696  1.9054
  600MOL0     H79178   4.712   1.698   6.256  0.9340 -1.7837  2.0975
  600MOL0     H79179   4.849   1.762   6.344 -2.4645  1.6612  0.4561
  600MOL0     H79180   4.811   1.885   6.152 -1.0809 -0.5414  1.0721
  600MOL0     H79181   4.810   1.749   6.034  0.5862  1.5306 -0.6072
  600MOL0     H79182   4.844   1.105   7.044 -1.0830  2.9096 -0.1811
  600MOL0     H79183   4.713   0.921   7.142 -3.0040  0.2677  0.0287
  600MOL0     H79184   4.443   0.640   7.196 -0.2069 -0.7931 -2.8286
  600MOL0     H79185   4.300   0.457   7.293 -2.2193 -0.3952  0.6850
  600MOL0     H79186   4.490   0.140   6.760  1.4965  2.2582  1.4969
  600MOL0     H79187   4.705   0.239   6.731 -0.9581  0.8468 -1.0276
  600MOL0     H79188   5.195   0.048   6.707 -2.3846  1.8752  0.4724
  600MOL0     H79189   5.420   0.109   6.745 -1.2639 -1.4465 -0.4505
  600MOL0     H79190   5.642   0.227   6.733  0.9621  0.5670  1.1787
  600MOL0     H79191   5.606   0.266   6.899  0.5158  1.8826  0.4489
  600MOL0     H79192   5.754   0.462   6.730  2.8462  1.6734  1.5651
  600MOL0     H79193   5.710   0.472   6.896 -1.7394 -1.1183  0.1075
  600MOL0     H79194   5.905   0.282   6.766 -2.1672 -1.9091 -0.0359
  600MOL0     H79195   5.843   0.239   6.923  2.5265  0.7854  1.1046
  600MOL0     H79196   5.961   0.522   6.876 -0.3198  1.3277  2.5853
  600MOL0     H79197   5.938   0.447   7.021  2.5461  0.0704  0.5728
  600MOL0     H79198   6.280   0.243   6.868 -0.8921 -1.2666 -0.6294
  600MOL0     H79199   5.305   0.530   6.734  1.5948 -0.8850 -1.8810
  600MOL0     H79200   5.070   0.451   6.663 -1.9792 -3.8917 -3.0266
  601MOL0     O79201  11.173   9.699   5.156  0.7068 -0.1839  0.6300
  601MOL0     C79202  11.230   9.804   5.160 -0.9237  0.5241 -0.2600
  601MOL0     O79203  11.176   9.925   5.180  0.5558  0.0560  0.0522
  601MOL0     C79204  11.042   9.935   5.154  0.9746 -0.1987 -0.3992
  601MOL0     C79205  10.991   9.985   5.034  0.0749 -1.0856 -0.5549
  601MOL0     C79206  10.854   9.982   5.009 -0.1081  0.0595 -0.4640
  601MOL0     C79207  10.768   9.931   5.108  0.6059  0.1555 -0.0794
  601MOL0     O79208  10.635   9.910   5.063 -0.5618 -0.0497  0.4848
  601MOL0     C79209  10.556   9.829   5.138 -0.8885 -0.0031  0.1724
  601MOL0     C79210  10.429   9.796   5.061  0.6724  0.5344  0.4464
  601MOL0     C79211  10.352   9.927   5.033  0.4795 -0.2998 -0.0153
  601MOL0     C79212  10.207   9.901   4.994 -0.5367 -0.1626 -0.2950
  601MOL0     C79213  10.140  10.015   4.903  0.0701  0.7966 -0.8681
  601MOL0     C79214  10.030   9.958   4.820 -0.2003 -0.9961 -0.3622
  601MOL0     C79215  10.074   9.873   4.699  0.6119 -0.3265  0.0835
  601MOL0     C79216   9.943   9.840   4.613 -0.0246  0.3861  0.2910
  601MOL0     N79217   9.998   9.765   4.504 -1.1985 -0.7042 -0.1122
  601MOL0     C79218  10.016   9.627   4.513  0.0563  0.0133 -1.3286
  601MOL0     C79219  10.039   9.590   4.390  0.1124 -0.4599  0.5605
  601MOL0     C79220  10.040   9.444   4.357  0.4780  0.3547  0.8331
  601MOL0     C79221   9.905   9.406   4.295  0.0507 -0.6460  0.8634
  601MOL0     C79222   9.899   9.259   4.243 -0.2413 -0.6308 -0.1752
  601MOL0     C79223   9.940   9.156   4.351 -0.6341  0.1993 -0.6855
  601MOL0     O79224   9.868   9.182   4.473  0.3810 -0.2840  1.0448
  601MOL0     C79225   9.883   9.101   4.581  0.2827 -0.4665  0.4025
  601MOL0     C79226  10.006   9.050   4.622 -0.9752 -0.5253  0.7276
  601MOL0     C79227  10.021   8.980   4.741  1.5389  0.3479 -1.1648
  601MOL0     C79228   9.907   8.950   4.814 -0.4465 -0.6928 -0.2188
  601MOL0     C79229   9.926   8.888   4.944  0.2422  0.1206  0.0948
  601MOL0     O79230   9.840   8.777   4.959 -0.2064  0.9106  0.5277
  601MOL0     C79231   9.865   8.703   5.069  0.3994  0.0626 -1.1970
  601MOL0     C79232   9.777   8.693   5.175 -0.5478  0.2804 -0.8286
  601MOL0     C79233   9.788   8.586   5.263  0.2790 -0.1357  0.1253
  601MOL0     C79234   9.906   8.519   5.268  0.6846 -0.5611 -0.9534
  601MOL0     O79235   9.937   8.446   5.386  0.4324  0.2320  0.3454
  601MOL0     C79236   9.836   8.374   5.449  0.6583 -0.6318 -0.0842
  601MOL0     C79237   9.906   8.272   5.537 -0.4961 -0.2588 -0.6599
  601MOL0     C79238   9.798   8.223   5.638 -0.5524  0.4870  0.1741
  601MOL0     C79239   9.859   8.134   5.747  0.4335 -0.0703  0.7981
  601MOL0     C79240   9.758   8.049   5.836 -0.7357  1.4620 -0.5224
  601MOL0     C79241   9.821   7.935   5.932  0.1723 -0.4226  0.4477
  601MOL0     C79242   9.935   7.976   6.031  0.7945 -0.4479  0.6029
  601MOL0     C79243   9.880   8.048   6.159 -0.1937 -0.0427 -0.3949
  601MOL0    Cl79244   9.786   7.938   6.274  0.9025  0.2800 -0.0196
  601MOL0     C79245  10.003   8.538   5.173 -0.3092 -0.0672 -0.0841
  601MOL0     C79246   9.976   8.613   5.065 -0.2432 -0.4342 -0.5635
  601MOL0     O79247   9.995   8.950   5.034  0.3060  0.8514  0.7160
  601MOL0     C79248   9.783   9.003   4.775 -0.9982  0.4823 -0.7187
  601MOL0     C79249   9.775   9.071   4.667  0.3227 -0.3816 -0.3883
  601MOL0     N79250  10.054   9.705   4.311  0.1483  0.9049 -0.7087
  601MOL0     N79251  10.036   9.807   4.378  0.8220  0.1598  0.2341
  601MOL0     C79252  10.824   9.890   5.228 -0.1319  0.3763 -0.6419
  601MOL0     C79253  10.953   9.890   5.256 -0.8366  0.4851  0.2947
  601MOL0     C79254  11.376   9.791   5.142 -0.1282 -0.2336 -0.3830
  601MOL0     C79255  11.432   9.669   5.122  0.4751 -0.0768 -0.3012
  601MOL0     C79256  11.563   9.651   5.110  0.0751 -0.7287  0.3272
  601MOL0     C79257  11.656   9.761   5.116 -0.0913  0.4191 -0.6121
  601MOL0     O79258  11.776   9.755   5.050  0.0439  0.4573 -0.4134
  601MOL0     C79259  11.835   9.624   5.026  0.5593  0.1555 -0.3941
  601MOL0     C79260  11.985   9.624   5.023 -0.3868  0.6143 -0.9961
  601MOL0     C79261  12.042   9.706   4.909  1.0688  0.8905  0.2519
  601MOL0     C79262  12.186   9.667   4.886 -0.0598  0.0771 -0.4094
  601MOL0     C79263  12.196   9.541   4.819 -0.6210  0.0044 -0.3253
  601MOL0     C79264  12.181   9.423   4.790  0.2413 -0.1851  0.7433
  601MOL0     C79265  11.605   9.885   5.141  0.5028 -1.0472 -0.4383
  601MOL0     C79266  11.469   9.906   5.161  0.1344 -1.0085  0.1153
  601MOL0     H79267  11.054  10.015   4.950  1.1703 -1.6165  0.0533
  601MOL0     H79268  10.810  10.021   4.918 -1.4962  0.0600  0.1809
  601MOL0     H79269  10.538   9.889   5.228  3.5654  3.7550 -1.0173
  601MOL0     H79270  10.608   9.733   5.147  4.0674  2.3128 -0.3776
  601MOL0     H79271  10.382   9.716   5.118 -1.5211 -0.6425 -2.7231
  601MOL0     H79272  10.454   9.740   4.970 -0.1420  1.0016 -0.0775
  601MOL0     H79273  10.402   9.980   4.951 -3.6235  4.6180  0.1481
  601MOL0     H79274  10.342   9.992   5.120 -2.4004  1.6279 -1.5994
  601MOL0     H79275  10.229   9.813   4.933  1.0796 -0.4598  0.6619
  601MOL0     H79276  10.142   9.877   5.078  0.0189 -0.7833 -0.0365
  601MOL0     H79277  10.216  10.068   4.846  2.4452  1.0113  2.2420
  601MOL0     H79278  10.092  10.077   4.979 -1.0201 -0.6221 -0.3492
  601MOL0     H79279   9.973  10.045   4.785 -0.7109 -0.6037  1.3152
  601MOL0     H79280   9.958   9.900   4.879 -0.4719  0.5145  0.8867
  601MOL0     H79281  10.140   9.931   4.633 -0.2240 -0.0501 -0.5302
  601MOL0     H79282  10.123   9.782   4.734  3.0169  0.6536 -0.5480
  601MOL0     H79283   9.879   9.921   4.577 -1.0114 -0.0351  1.0506
  601MOL0     H79284   9.870   9.781   4.669 -2.5266  1.7389 -1.3681
  601MOL0     H79285  10.014   9.565   4.603  4.0287  1.5974  0.0742
  601MOL0     H79286  10.068   9.377   4.439 -0.3134 -2.3079 -0.9738
  601MOL0     H79287  10.119   9.443   4.281 -1.8955  0.9220 -1.8144
  601MOL0     H79288   9.873   9.475   4.217 -0.6819  1.0374  2.5638
  601MOL0     H79289   9.833   9.418   4.377 -0.7595 -0.9811  0.2202
  601MOL0     H79290   9.803   9.226   4.202 -0.3661 -0.4577 -0.0231
  601MOL0     H79291   9.975   9.241   4.167  0.1441  2.4748 -0.6441
  601MOL0     H79292  10.047   9.155   4.370 -0.5672 -1.0473 -1.0426
  601MOL0     H79293   9.916   9.052   4.324  0.3047 -0.2095 -0.0248
  601MOL0     H79294  10.096   9.076   4.568 -1.0912  0.9481  1.1893
  601MOL0     H79295  10.115   8.948   4.785  1.5127 -0.0711 -1.4108
  601MOL0     H79296   9.682   8.745   5.185 -0.5437  0.1103  0.2444
  601MOL0     H79297   9.701   8.570   5.326  0.1369  1.8404  0.4886
  601MOL0     H79298   9.753   8.339   5.388 -2.6789 -0.3133  3.8736
  601MOL0     H79299   9.782   8.446   5.510  1.9770 -0.3071  0.7533
  601MOL0     H79300   9.986   8.327   5.589 -0.8956 -2.5113  2.6265
  601MOL0     H79301   9.945   8.184   5.486  1.3392  0.3735 -0.4420
  601MOL0     H79302   9.715   8.169   5.591 -0.0816 -1.1562  1.1396
  601MOL0     H79303   9.756   8.310   5.689  0.3968  0.4640  1.0152
  601MOL0     H79304   9.919   8.057   5.699  0.6366  0.5838 -0.0162
  601MOL0     H79305   9.934   8.193   5.801 -0.7618  0.8721  1.4872
  601MOL0     H79306   9.685   8.010   5.765  3.3919 -4.5524 -2.2453
  601MOL0     H79307   9.701   8.117   5.900  0.3397  1.8513  0.0587
  601MOL0     H79308   9.853   7.859   5.861 -1.4070  0.3873 -1.2112
  601MOL0     H79309   9.741   7.897   5.997 -1.6421  2.8301  0.3356
  601MOL0     H79310   9.987   7.881   6.051 -1.7987 -1.5104  3.0545
  601MOL0     H79311  10.005   8.052   5.996  0.7709 -0.2287  1.0249
  601MOL0     H79312   9.831   8.140   6.125  1.1149  0.6729 -0.4026
  601MOL0     H79313   9.962   8.086   6.220 -2.2499  1.5511  1.5603
  601MOL0     H79314  10.095   8.485   5.194  1.0901  2.5707  0.8589
  601MOL0     H79315  10.047   8.612   4.983 -1.3089  1.8297 -1.6025
  601MOL0     H79316   9.700   8.973   4.838  1.4464 -2.4634  1.4274
  601MOL0     H79317   9.675   9.106   4.643 -0.4972 -2.2162  0.1228
  601MOL0     H79318  10.770   9.841   5.309  0.1567  1.1203  0.0144
  601MOL0     H79319  11.001   9.848   5.344  0.3327  3.0855  0.9677
  601MOL0     H79320  11.377   9.576   5.122 -1.6591  0.9166 -4.9010
  601MOL0     H79321  11.600   9.553   5.083 -2.3005 -1.4655 -0.5160
  601MOL0     H79322  11.798   9.581   4.932 -2.4886  2.7925 -0.5715
  601MOL0     H79323  11.806   9.555   5.105 -1.3705 -1.9081 -2.7191
  601MOL0     H79324  12.014   9.662   5.122 -1.5930  1.0345 -0.7881
  601MOL0     H79325  12.013   9.519   5.015  0.4334  0.5311  1.8086
  601MOL0     H79326  12.019   9.813   4.917  1.1501  1.0435 -1.3246
  601MOL0     H79327  11.998   9.672   4.815 -2.1770  1.2051  1.5223
  601MOL0     H79328  12.242   9.741   4.829  3.0502 -1.3454  0.6228
  601MOL0     H79329  12.229   9.668   4.986  0.3884  0.9500 -0.6002
  601MOL0     H79330  12.161   9.327   4.747  1.7050 -1.6682  3.1153
  601MOL0     H79331  11.672   9.970   5.140 -1.2003  0.3979 -2.7618
  601MOL0     H79332  11.433  10.003   5.193  1.9380 -0.6344  1.1095
  602MOL0     O79333   5.139   8.693   9.352 -0.2774 -0.9696 -0.1186
  602MOL0     C79334   5.181   8.697   9.234  0.0885 -0.2093 -0.2606
  602MOL0     O79335   5.306   8.722   9.196  0.0664  0.4046  0.1801
  602MOL0     C79336   5.398   8.747   9.292 -0.1650  0.0050  0.4139
  602MOL0     C79337   5.446   8.637   9.364  0.7458  1.2201 -0.2816
  602MOL0     C79338   5.532   8.655   9.471  0.2434 -0.0042  0.0104
  602MOL0     C79339   5.584   8.781   9.499  0.4176 -0.2986 -0.0722
  602MOL0     O79340   5.688   8.788   9.583  0.9262 -0.5736 -0.6450
  602MOL0     C79341   5.680   8.891   9.674  0.0495 -0.3590 -0.0576
  602MOL0     C79342   5.788   8.874   9.785  0.0915  1.2126 -0.5802
  602MOL0     C79343   5.825   9.008   9.853  0.0452 -0.2802 -0.1960
  602MOL0     C79344   5.929   8.979   9.968  1.2154  0.4141 -0.1736
  602MOL0     C79345   6.009   9.118   9.987  0.2181 -0.1051  0.6895
  602MOL0     C79346   6.066   9.097  10.129 -0.1212 -0.1854  0.5198
  602MOL0     C79347   6.161   9.208  10.168 -0.5481  0.0263  0.6502
  602MOL0     C79348   6.307   9.190  10.113  0.7541 -0.1858 -0.1852
  602MOL0     N79349   6.372   9.075  10.179 -0.2611 -0.1045  0.0340
  602MOL0     C79350   6.388   9.062  10.314  0.0255 -0.3823  0.4973
  602MOL0     C79351   6.430   8.940  10.342  0.2535  0.0087  0.0567
  602MOL0     C79352   6.465   8.880  10.479  0.6003  0.9728  0.6740
  602MOL0     C79353   6.604   8.833  10.495  0.0868  0.8861 -0.5620
  602MOL0     C79354   6.687   8.917  10.596  0.3847  0.4965  0.1793
  602MOL0     C79355   6.755   9.028  10.504 -0.1713 -0.1240  0.0290
  602MOL0     O79356   6.851   9.105  10.566 -0.4543 -0.2858  0.3291
  602MOL0     C79357   6.983   9.081  10.528  0.8483  0.7292  0.7449
  602MOL0     C79358   7.078   9.177  10.580 -0.0968  1.0473 -0.2955
  602MOL0     C79359   7.211   9.159  10.575 -0.4697  0.4923  1.4930
  602MOL0     C79360   7.261   9.053  10.504 -0.6054  0.2067  1.0120
  602MOL0     C79361   7.400   9.008  10.505  0.3170 -0.0133 -0.1760
  602MOL0     O79362   7.472   9.039  10.614  0.4609 -0.4971  0.4323
  602MOL0     C79363   7.572   8.953  10.657  0.8486 -0.4963 -0.6160
  602MOL0     C79364   7.538   8.878  10.772  0.0083 -0.0464 -0.4764
  602MOL0     C79365   7.650   8.828  10.851 -0.1678  1.2388  0.3507
  602MOL0     C79366   7.777   8.815  10.797 -0.4338  0.3405  0.7175
  602MOL0     O79367   7.863   8.727  10.858  0.0752  0.1221 -0.4566
  602MOL0     C79368   7.933   8.633  10.777 -0.4540 -0.1439 -0.2671
  602MOL0     C79369   7.940   8.494  10.841 -0.0797  0.3462  0.2159
  602MOL0     C79370   8.030   8.404  10.762 -0.3908 -0.9028  0.1970
  602MOL0     C79371   7.957   8.311  10.676 -0.1078 -0.1406 -0.1956
  602MOL0     C79372   8.025   8.277  10.535  0.3281  1.2871 -0.1404
  602MOL0     C79373   8.069   8.126  10.532  0.1589  0.3442 -0.0662
  602MOL0     C79374   8.112   8.060  10.399  0.7094 -0.4972  0.1945
  602MOL0     C79375   8.013   7.945  10.357  0.4308 -0.3373 -0.1538
  602MOL0    Cl79376   8.092   7.871  10.207  0.1531  0.1550 -0.6587
  602MOL0     C79377   7.806   8.884  10.676  0.2336 -0.0781 -0.1470
  602MOL0     C79378   7.706   8.968  10.621  0.1685 -0.1350  0.3069
  602MOL0     O79379   7.446   8.939  10.416 -0.6255  0.7031  1.2090
  602MOL0     C79380   7.167   8.965  10.437 -0.6634 -1.0499  0.0839
  602MOL0     C79381   7.033   8.983  10.454 -1.4590  0.1084 -0.3014
  602MOL0     N79382   6.432   8.872  10.218 -0.7687 -0.1987 -1.0036
  602MOL0     N79383   6.386   8.959  10.126 -0.0808 -0.0150 -0.4409
  602MOL0     C79384   5.544   8.893   9.417 -0.4478  0.1607 -0.2360
  602MOL0     C79385   5.444   8.872   9.323 -0.3970 -0.1476  0.4334
  602MOL0     C79386   5.070   8.706   9.128 -0.9711  0.4759  0.3870
  602MOL0     C79387   4.940   8.662   9.152  0.7447 -0.3150  0.3773
  602MOL0     C79388   4.841   8.676   9.050 -0.4983 -0.1452  0.3985
  602MOL0     C79389   4.876   8.738   8.931  0.4537  0.1062 -0.2801
  602MOL0     O79390   4.778   8.753   8.837  0.2942  0.8409 -0.1909
  602MOL0     C79391   4.814   8.767   8.697 -0.8425  0.1725  0.9623
  602MOL0     C79392   4.830   8.912   8.644 -0.3311 -0.2639 -0.4390
  602MOL0     C79393   4.884   8.917   8.497  0.2620 -0.2873  0.0144
  602MOL0     C79394   4.880   9.060   8.442  0.0819 -0.1599  0.5646
  602MOL0     C79395   4.945   9.048   8.313 -0.6433  0.0447 -0.1861
  602MOL0     C79396   5.001   9.050   8.199  0.5302 -0.4662 -0.0547
  602MOL0     C79397   4.996   8.783   8.912  0.1555 -0.2739  1.0340
  602MOL0     C79398   5.097   8.761   9.001  0.0275  0.4546 -0.6471
  602MOL0     H79399   5.421   8.533   9.345  4.4103  0.2137 -0.3602
  602MOL0     H79400   5.559   8.568   9.530  0.9293  1.3573  1.7805
  602MOL0     H79401   5.581   8.906   9.718 -0.5182  5.9518 -2.5071
  602MOL0     H79402   5.717   8.983   9.628 -1.9961  1.8631  2.4266
  602MOL0     H79403   5.876   8.823   9.745  0.7107  1.2086  0.7465
  602MOL0     H79404   5.741   8.813   9.863 -4.4260  4.4271 -0.3942
  602MOL0     H79405   5.734   9.044   9.902 -0.4910 -0.7278 -0.8262
  602MOL0     H79406   5.851   9.084   9.779  0.4091  0.7903  1.0141
  602MOL0     H79407   5.875   8.954  10.059 -1.2414  1.2272 -1.3120
  602MOL0     H79408   6.002   8.902   9.942  2.3783  1.4674 -0.1018
  602MOL0     H79409   5.940   9.203   9.980  0.5426  0.4656  3.1104
  602MOL0     H79410   6.084   9.123   9.908 -1.6940  0.3643 -1.1837
  602MOL0     H79411   6.110   8.998  10.144  1.3931  0.3859  0.0024
  602MOL0     H79412   5.982   9.104  10.199  0.0497 -2.4914  1.0075
  602MOL0     H79413   6.126   9.307  10.136 -0.5563 -0.1777  0.0103
  602MOL0     H79414   6.170   9.203  10.277  2.2509  0.9918  0.5343
  602MOL0     H79415   6.369   9.280  10.124  2.1603 -1.3092  1.6287
  602MOL0     H79416   6.304   9.176  10.005  0.4544 -0.8601 -0.0945
  602MOL0     H79417   6.385   9.145  10.385 -2.3610  2.4377 -2.5501
  602MOL0     H79418   6.410   8.786  10.489  1.5445  0.2643 -0.5172
  602MOL0     H79419   6.434   8.949  10.558  1.1921  0.3913  1.4322
  602MOL0     H79420   6.652   8.823  10.397  0.7857 -1.8886 -0.0191
  602MOL0     H79421   6.613   8.739  10.549  1.3076  2.2606  1.8395
  602MOL0     H79422   6.625   8.947  10.681  3.1805  0.1408  2.5064
  602MOL0     H79423   6.760   8.849  10.641 -1.4863 -1.6241  0.1927
  602MOL0     H79424   6.670   9.086  10.465 -2.1232 -1.7005  1.6987
  602MOL0     H79425   6.786   8.989  10.407 -1.7210  2.4848 -1.6662
  602MOL0     H79426   7.033   9.260  10.634 -1.3185  2.1088 -2.7344
  602MOL0     H79427   7.278   9.229  10.625 -1.1531 -0.8745  4.6127
  602MOL0     H79428   7.440   8.850  10.809 -0.3007  0.2177 -1.0794
  602MOL0     H79429   7.623   8.767  10.937 -0.3897 -2.0368 -1.8803
  602MOL0     H79430   8.031   8.680  10.763 -0.9002  0.5275 -1.2809
  602MOL0     H79431   7.890   8.624  10.677  0.4194 -2.0271 -0.5124
  602MOL0     H79432   7.841   8.452  10.861  0.1934  0.2174  1.3235
  602MOL0     H79433   7.997   8.493  10.934 -0.6571  1.0024  0.5856
  602MOL0     H79434   8.111   8.352  10.813  1.3944  1.9925  0.4689
  602MOL0     H79435   8.084   8.465  10.690  3.4489 -3.2685  0.7803
  602MOL0     H79436   7.930   8.224  10.736 -0.0760 -0.1680 -0.2212
  602MOL0     H79437   7.863   8.364  10.656 -4.4228 -5.0068  4.2604
  602MOL0     H79438   8.111   8.340  10.509 -0.8625  2.5488 -1.2146
  602MOL0     H79439   7.949   8.298  10.459 -0.4006  3.2129  1.0303
  602MOL0     H79440   7.986   8.077  10.585  2.2288 -0.4117  2.7113
  602MOL0     H79441   8.155   8.126  10.600 -2.2304  2.1827  3.3012
  602MOL0     H79442   8.109   8.138  10.322  2.0472  0.5345  1.1273
  602MOL0     H79443   8.214   8.025  10.421  1.1907  2.3615  3.2259
  602MOL0     H79444   7.909   7.973  10.338 -0.6172 -3.2653  0.7691
  602MOL0     H79445   8.009   7.869  10.435 -3.5244  0.0459  0.2157
  602MOL0     H79446   7.908   8.875  10.642  1.3053  0.5992  2.6300
  602MOL0     H79447   7.726   9.044  10.546  0.6656  3.2723  3.5434
  602MOL0     H79448   7.197   8.876  10.384  1.0310 -1.2256  1.2488
  602MOL0     H79449   6.971   8.907  10.408  1.1095 -0.5518 -2.9814
  602MOL0     H79450   5.591   8.990   9.431 -2.2851  1.0777 -0.2307
  602MOL0     H79451   5.394   8.951   9.268 -1.7214 -1.3051 -0.0976
  602MOL0     H79452   4.891   8.620   9.239 -0.3202  0.8317  0.3641
  602MOL0     H79453   4.740   8.643   9.072  0.4327 -2.7739  1.1452
  602MOL0     H79454   4.738   8.730   8.629 -0.7128 -0.7371  1.2995
  602MOL0     H79455   4.896   8.696   8.681 -2.2818 -1.1287 -1.1447
  602MOL0     H79456   4.738   8.971   8.644  1.1290  2.1475 -0.9346
  602MOL0     H79457   4.884   8.968   8.720 -0.5902 -1.4585  0.6555
  602MOL0     H79458   4.812   8.857   8.440  0.2871  0.6163 -0.9995
  602MOL0     H79459   4.984   8.871   8.497 -0.0327 -0.9948  1.6303
  602MOL0     H79460   4.783   9.105   8.417 -0.5577 -1.1380  1.1862
  602MOL0     H79461   4.940   9.132   8.499  0.4005 -1.4077  1.8744
  602MOL0     H79462   5.050   9.023   8.108  0.1990 -1.4034  0.0315
  602MOL0     H79463   5.026   8.825   8.816  2.7330  0.1706  1.9448
  602MOL0     H79464   5.196   8.781   8.961 -0.5667  3.0443 -1.0209
  603MOL0     O79465   8.757   9.608   3.867  0.9183 -0.3077 -0.1742
  603MOL0     C79466   8.741   9.486   3.894 -0.4472  0.3913 -0.0606
  603MOL0     O79467   8.737   9.387   3.799 -0.2127 -0.0244  0.6481
  603MOL0     C79468   8.789   9.388   3.665  0.4421  0.5819 -0.5727
  603MOL0     C79469   8.883   9.474   3.608  0.1628  0.0119 -0.1642
  603MOL0     C79470   8.938   9.446   3.490 -0.4607  1.2230 -0.7061
  603MOL0     C79471   8.901   9.333   3.423 -0.4106 -0.0231  0.0656
  603MOL0     O79472   8.952   9.287   3.301  0.0547 -0.3580  0.4585
  603MOL0     C79473   9.095   9.306   3.276  0.3039  0.3482  0.2136
  603MOL0     C79474   9.185   9.264   3.396  0.6129  0.5528 -0.6852
  603MOL0     C79475   9.185   9.118   3.433  0.1662  0.2693  0.6049
  603MOL0     C79476   9.215   9.077   3.581 -0.5580  0.3870  0.2633
  603MOL0     C79477   9.219   8.928   3.597  0.2439 -0.2168  0.7251
  603MOL0     C79478   9.079   8.847   3.623 -0.3116 -0.1785  0.2727
  603MOL0     C79479   9.000   8.817   3.489 -0.2295  0.4455  0.6934
  603MOL0     C79480   8.883   8.724   3.505  0.7145  0.5139  0.7282
  603MOL0     N79481   8.773   8.781   3.579  0.9588 -0.9078 -0.0094
  603MOL0     C79482   8.756   8.787   3.713  0.6602  0.2612  0.0011
  603MOL0     C79483   8.642   8.858   3.730  0.2892 -0.1034  0.0297
  603MOL0     C79484   8.557   8.887   3.854 -0.4459  0.3990  0.8878
  603MOL0     C79485   8.477   9.016   3.839 -0.3755 -0.4290 -0.2836
  603MOL0     C79486   8.381   9.038   3.955 -0.4061  0.0233  1.0127
  603MOL0     C79487   8.284   8.920   3.979  0.8680  0.5597  0.0540
  603MOL0     O79488   8.194   8.921   3.870  0.5334  0.1443  0.5836
  603MOL0     C79489   8.076   8.848   3.882  0.1212  0.4055 -0.8675
  603MOL0     C79490   7.991   8.841   3.764 -0.2549  0.1300  0.1470
  603MOL0     C79491   7.870   8.770   3.770  0.0608  0.8163  0.1345
  603MOL0     C79492   7.829   8.686   3.878 -0.3280  0.6856 -0.8195
  603MOL0     C79493   7.706   8.606   3.876 -0.6336  0.0890  0.6456
  603MOL0     O79494   7.613   8.651   3.784  0.1980  0.3201 -0.6746
  603MOL0     C79495   7.490   8.595   3.782  0.0082  0.4804  0.2365
  603MOL0     C79496   7.383   8.686   3.793 -0.1362 -0.1211  0.0557
  603MOL0     C79497   7.252   8.633   3.783 -0.5477  0.4733  0.5471
  603MOL0     C79498   7.225   8.500   3.767  0.0148 -0.1162  0.2960
  603MOL0     O79499   7.090   8.462   3.761  0.3211 -0.3653  0.0457
  603MOL0     C79500   7.057   8.341   3.698  0.2267  0.8830 -0.4095
  603MOL0     C79501   6.905   8.350   3.689  0.2566  0.7051  0.4280
  603MOL0     C79502   6.880   8.459   3.584  0.2194  0.2856  0.2396
  603MOL0     C79503   6.727   8.472   3.571 -0.8965 -0.3391  0.6534
  603MOL0     C79504   6.679   8.583   3.482  1.0248 -0.0588  0.5210
  603MOL0     C79505   6.533   8.542   3.443  0.5369 -0.3902 -1.0603
  603MOL0     C79506   6.481   8.619   3.328  0.7776 -0.1258  0.1048
  603MOL0     C79507   6.333   8.583   3.303 -0.5249 -0.3896  0.7723
  603MOL0    Cl79508   6.229   8.643   3.428 -0.3151  0.1449  0.6193
  603MOL0     C79509   7.329   8.413   3.773  0.2028 -0.1378 -0.7742
  603MOL0     C79510   7.465   8.456   3.782  0.2125  0.0401  0.0833
  603MOL0     O79511   7.707   8.502   3.945 -0.7255 -0.0219  0.5693
  603MOL0     C79512   7.917   8.678   3.982  0.1622  0.0197  0.0651
  603MOL0     C79513   8.030   8.765   3.996 -0.2408  0.0314 -0.2077
  603MOL0     N79514   8.587   8.883   3.604  0.4660  0.1492  0.0747
  603MOL0     N79515   8.668   8.846   3.512  0.2225 -0.1206  0.3682
  603MOL0     C79516   8.793   9.251   3.467 -0.5481  0.1578  0.3313
  603MOL0     C79517   8.735   9.284   3.591 -0.4305 -0.0239 -0.2309
  603MOL0     C79518   8.707   9.425   4.022  0.6750 -0.3116 -0.5975
  603MOL0     C79519   8.678   9.514   4.129 -0.0305 -0.0188  0.6987
  603MOL0     C79520   8.630   9.464   4.258 -0.7017 -0.4963  0.3579
  603MOL0     C79521   8.602   9.330   4.272  0.1581 -0.1719 -0.8633
  603MOL0     O79522   8.549   9.272   4.381  0.3654 -0.0726 -0.4037
  603MOL0     C79523   8.549   9.339   4.507  0.1299 -0.0126 -0.4858
  603MOL0     C79524   8.446   9.286   4.611 -0.3602 -0.0616  0.8215
  603MOL0     C79525   8.311   9.343   4.572  1.1183  0.7909  0.3821
  603MOL0     C79526   8.194   9.286   4.665 -0.5575 -0.6320  0.9496
  603MOL0     C79527   8.076   9.345   4.601 -0.0566 -0.1489  0.1349
  603MOL0     C79528   7.971   9.380   4.553  0.2946  0.4624 -0.3725
  603MOL0     C79529   8.623   9.241   4.161 -0.0424 -0.2642 -0.3503
  603MOL0     C79530   8.682   9.285   4.050 -0.1129  0.2678  0.0938
  603MOL0     H79531   8.901   9.564   3.666  0.1488 -0.1617  0.1075
  603MOL0     H79532   9.019   9.511   3.458  1.1841 -1.0118 -1.3005
  603MOL0     H79533   9.112   9.410   3.247  3.4577  0.2617  1.4152
  603MOL0     H79534   9.121   9.251   3.185  1.8325  2.0945 -0.4453
  603MOL0     H79535   9.153   9.312   3.489 -1.8512 -1.1424 -0.5743
  603MOL0     H79536   9.290   9.294   3.388  1.2948 -0.9933  1.5234
  603MOL0     H79537   9.265   9.085   3.366  1.8203  1.5645  1.8477
  603MOL0     H79538   9.088   9.077   3.403  0.0688  0.4757  0.6293
  603MOL0     H79539   9.316   9.110   3.606 -0.4196 -0.0317  0.2607
  603MOL0     H79540   9.137   9.114   3.648  0.7462  0.0250  2.0322
  603MOL0     H79541   9.279   8.912   3.687  1.3555  4.5554  1.1238
  603MOL0     H79542   9.276   8.894   3.510  1.6600  3.2616  0.1188
  603MOL0     H79543   9.014   8.892   3.698  2.1964  2.4730  1.0251
  603MOL0     H79544   9.093   8.747   3.667  0.0992  0.5914  1.9872
  603MOL0     H79545   8.957   8.905   3.442 -1.9935  0.1934  1.7480
  603MOL0     H79546   9.075   8.784   3.416 -0.7354 -0.0613  0.3989
  603MOL0     H79547   8.904   8.619   3.523 -2.3611 -0.2879  0.3073
  603MOL0     H79548   8.846   8.723   3.401 -0.5615  0.8444  1.1546
  603MOL0     H79549   8.821   8.745   3.789  0.2959 -1.1185 -0.4274
  603MOL0     H79550   8.623   8.891   3.940  1.8133 -1.7729 -0.5981
  603MOL0     H79551   8.499   8.795   3.871 -1.5773  0.9084 -0.0657
  603MOL0     H79552   8.425   9.018   3.743  1.4353 -3.4100 -1.4586
  603MOL0     H79553   8.554   9.094   3.836  0.9815 -1.7724 -1.5750
  603MOL0     H79554   8.434   9.046   4.050  0.8519  3.1099  0.1827
  603MOL0     H79555   8.326   9.133   3.958  0.0457  0.3377  0.0929
  603MOL0     H79556   8.224   8.936   4.069 -1.4563 -0.2932 -1.2375
  603MOL0     H79557   8.323   8.819   3.998  1.4499  0.6399 -0.6493
  603MOL0     H79558   8.007   8.913   3.684 -2.6787  0.4798 -0.1093
  603MOL0     H79559   7.809   8.771   3.681 -0.4798 -0.8800  0.4544
  603MOL0     H79560   7.405   8.790   3.816 -0.1152  0.0937 -0.9151
  603MOL0     H79561   7.169   8.703   3.784 -1.2888 -0.3838  1.1731
  603MOL0     H79562   7.088   8.257   3.760 -3.6835 -0.8261 -0.4308
  603MOL0     H79563   7.095   8.326   3.597 -0.8496  1.3676 -0.9051
  603MOL0     H79564   6.860   8.379   3.784  0.1256  3.0195 -0.2901
  603MOL0     H79565   6.860   8.255   3.658  1.9155  0.4125 -1.2814
  603MOL0     H79566   6.930   8.438   3.489 -1.5014 -0.0557 -0.6388
  603MOL0     H79567   6.919   8.555   3.617  2.3136  0.5781 -2.6942
  603MOL0     H79568   6.699   8.373   3.534 -0.1204 -1.5065  2.9922
  603MOL0     H79569   6.681   8.497   3.667 -2.6749  0.3281 -0.3227
  603MOL0     H79570   6.729   8.600   3.387 -2.8867  2.0440 -1.3794
  603MOL0     H79571   6.677   8.675   3.541  1.1007  0.2715  0.0154
  603MOL0     H79572   6.487   8.559   3.541 -0.8537 -1.0290 -1.5753
  603MOL0     H79573   6.522   8.435   3.422 -1.9000 -1.1813  3.0943
  603MOL0     H79574   6.478   8.727   3.344  1.5896  0.3453 -2.5241
  603MOL0     H79575   6.549   8.600   3.244 -0.3603  3.0623 -1.6958
  603MOL0     H79576   6.323   8.476   3.284 -0.8081 -0.0313 -1.3494
  603MOL0     H79577   6.302   8.621   3.205  0.9271 -0.6522  0.1771
  603MOL0     H79578   7.322   8.305   3.771  1.1236 -0.2905  1.3197
  603MOL0     H79579   7.540   8.377   3.780 -0.0925 -0.2545  0.1305
  603MOL0     H79580   7.891   8.617   4.068  1.0943  0.0037  0.3509
  603MOL0     H79581   8.088   8.742   4.084 -0.7071 -1.8796 -0.3550
  603MOL0     H79582   8.758   9.159   3.421  0.7423 -0.6193  0.8356
  603MOL0     H79583   8.653   9.226   3.631 -1.0294  1.9980  1.6046
  603MOL0     H79584   8.704   9.619   4.115  2.6592 -0.4022  2.0960
  603MOL0     H79585   8.630   9.529   4.346 -1.4916  0.7149 -0.5033
  603MOL0     H79586   8.532   9.446   4.490  1.0555 -0.0984 -2.1933
  603MOL0     H79587   8.647   9.334   4.554 -1.5842 -0.9784  3.3840
  603MOL0     H79588   8.436   9.177   4.619 -1.3475  0.0499  1.1404
  603MOL0     H79589   8.469   9.336   4.705  0.3299 -0.3895  0.8390
  603MOL0     H79590   8.280   9.294   4.480 -3.8911  3.7005  0.1845
  603MOL0     H79591   8.316   9.453   4.568  2.8625  0.7455  0.4938
  603MOL0     H79592   8.196   9.176   4.666 -2.5383 -1.0931 -5.0176
  603MOL0     H79593   8.208   9.343   4.758  1.2993  0.9463 -0.2415
  603MOL0     H79594   7.885   9.415   4.499 -0.9182 -0.9402  0.5845
  603MOL0     H79595   8.588   9.139   4.175 -0.6443 -0.5877 -3.5892
  603MOL0     H79596   8.701   9.217   3.967 -3.4997  3.5470 -3.8544
  604MOL0     O79597  10.988   4.136  11.300  0.8589  0.7401 -0.3180
  604MOL0     C79598  10.948   4.081  11.206  0.2213  0.5683  0.0632
  604MOL0     O79599  10.819   4.035  11.190  0.3571  0.1924  0.1410
  604MOL0     C79600  10.729   4.062  11.289  0.1048 -0.0015 -0.3207
  604MOL0     C79601  10.625   4.156  11.267  1.4205 -0.1044 -0.5086
  604MOL0     C79602  10.522   4.168  11.367 -0.1194 -0.4134  0.5530
  604MOL0     C79603  10.540   4.106  11.490  0.1419 -0.5033  0.2290
  604MOL0     O79604  10.441   4.126  11.573 -0.1875 -0.1151  0.0263
  604MOL0     C79605  10.483   4.162  11.709 -0.0033 -0.4593  0.2346
  604MOL0     C79606  10.393   4.276  11.760 -0.1233  0.6701 -0.4185
  604MOL0     C79607  10.246   4.240  11.775  1.0710 -0.1730 -0.3185
  604MOL0     C79608  10.161   4.344  11.851 -0.2482 -0.2188 -0.2760
  604MOL0     C79609  10.013   4.327  11.851 -0.0202 -0.0011 -0.1917
  604MOL0     C79610   9.960   4.184  11.880 -0.1075  0.6477 -0.7830
  604MOL0     C79611   9.804   4.182  11.865 -0.5314 -0.2331 -0.2887
  604MOL0     C79612   9.767   4.177  11.721 -0.3973 -0.4712  1.0952
  604MOL0     N79613   9.851   4.075  11.645 -0.1482  0.1262  0.2682
  604MOL0     C79614   9.953   4.096  11.559  0.2539  0.5095  0.7537
  604MOL0     C79615   9.969   3.978  11.488 -0.0834 -0.0905 -0.0422
  604MOL0     C79616  10.061   3.951  11.367  0.6958 -0.3144 -0.0705
  604MOL0     C79617   9.988   3.964  11.233  0.0868 -0.5316 -0.2539
  604MOL0     C79618   9.942   4.109  11.201 -0.6472 -0.2303 -0.4008
  604MOL0     C79619   9.886   4.109  11.062  0.6666 -0.2744  0.2444
  604MOL0     O79620   9.999   4.114  10.971  0.2633  0.4427 -0.0195
  604MOL0     C79621   9.985   4.074  10.845  0.4836 -0.4457 -0.0173
  604MOL0     C79622  10.107   4.067  10.776  0.8017 -0.4938 -0.1847
  604MOL0     C79623  10.103   4.012  10.644 -1.1083  0.2576 -0.8451
  604MOL0     C79624   9.994   3.982  10.576  0.2249  0.0807  0.7230
  604MOL0     C79625  10.004   3.942  10.431 -1.2691 -0.0432  0.2878
  604MOL0     O79626  10.121   3.868  10.400  0.0105 -0.3291  0.2567
  604MOL0     C79627  10.132   3.817  10.269  0.2355 -0.3919 -0.0327
  604MOL0     C79628  10.242   3.843  10.194 -0.7414  0.0766 -0.5100
  604MOL0     C79629  10.251   3.794  10.058  0.6734  0.0269 -0.2660
  604MOL0     C79630  10.145   3.709  10.005  0.1810 -0.5276 -0.2291
  604MOL0     O79631  10.151   3.631   9.890 -0.5401  0.3571 -0.0566
  604MOL0     C79632  10.274   3.598   9.824 -0.2217  0.1679  0.4679
  604MOL0     C79633  10.234   3.541   9.687  0.0039 -0.2514 -0.5057
  604MOL0     C79634  10.195   3.654   9.585  0.1201  0.6885  0.0923
  604MOL0     C79635  10.185   3.597   9.438  0.8449 -1.1901 -0.3505
  604MOL0     C79636  10.156   3.693   9.327 -1.3441 -0.6527  0.1860
  604MOL0     C79637  10.247   3.820   9.323  0.3749  0.0783 -0.1466
  604MOL0     C79638  10.187   3.916   9.222  0.6706  0.3686  0.6844
  604MOL0     C79639  10.160   4.051   9.287  0.8330 -0.2278 -0.2369
  604MOL0    Cl79640  10.311   4.153   9.320  0.3425  0.0803  0.9921
  604MOL0     C79641  10.039   3.689  10.086  0.5956 -0.2668 -0.5710
  604MOL0     C79642  10.037   3.731  10.218  0.1867  0.3990  0.2164
  604MOL0     O79643   9.905   3.960  10.357  0.2071 -0.2814  0.0062
  604MOL0     C79644   9.869   4.006  10.629  0.0207 -0.3861 -0.1907
  604MOL0     C79645   9.867   4.061  10.762 -0.2049 -0.1071 -0.4914
  604MOL0     N79646   9.879   3.886  11.530 -0.6705  0.0869 -0.0944
  604MOL0     N79647   9.812   3.943  11.634  0.1289 -0.0624  0.1760
  604MOL0     C79648  10.651   4.028  11.519 -0.8560 -1.2441 -0.2845
  604MOL0     C79649  10.746   4.003  11.410  0.4167 -0.2640 -0.0207
  604MOL0     C79650  11.045   4.086  11.087 -0.6946 -0.9519  0.6242
  604MOL0     C79651  11.187   4.105  11.112  1.0025  0.9641 -0.6674
  604MOL0     C79652  11.276   4.115  11.004 -0.2531  0.5355 -0.4880
  604MOL0     C79653  11.231   4.096  10.871  0.3482 -0.3079  0.0897
  604MOL0     O79654  11.306   4.106  10.756 -0.4533 -0.4126  0.4260
  604MOL0     C79655  11.450   4.088  10.795 -0.3849  0.4969  0.0838
  604MOL0     C79656  11.519   4.009  10.682  0.0950  0.5797 -0.8413
  604MOL0     C79657  11.513   4.088  10.551  0.1065  0.1034  0.3949
  604MOL0     C79658  11.503   3.997  10.433 -0.0780 -0.0798  0.0079
  604MOL0     C79659  11.629   3.918  10.424 -0.3167  0.1766  0.1295
  604MOL0     C79660  11.725   3.843  10.401  0.7317  0.0707  0.3734
  604MOL0     C79661  11.096   4.064  10.849 -0.2969  0.3026 -0.0011
  604MOL0     C79662  11.005   4.063  10.951 -0.0496  0.6731 -0.0434
  604MOL0     H79663  10.638   4.201  11.169 -0.8042 -1.1846 -1.3376
  604MOL0     H79664  10.445   4.241  11.348  0.7593 -0.1588 -2.4849
  604MOL0     H79665  10.583   4.205  11.713  0.2699 -0.7644 -2.0608
  604MOL0     H79666  10.475   4.069  11.766  2.2451 -0.6197  0.3629
  604MOL0     H79667  10.405   4.365  11.697 -0.3699  1.4705  0.6476
  604MOL0     H79668  10.446   4.298  11.853  0.9064 -3.2684  0.1068
  604MOL0     H79669  10.233   4.141  11.821 -0.1480 -0.6009 -1.5297
  604MOL0     H79670  10.204   4.231  11.675  2.5011 -0.1182 -0.9415
  604MOL0     H79671  10.194   4.353  11.955  0.4822  0.6347 -0.5719
  604MOL0     H79672  10.182   4.443  11.812  1.6378 -1.3486 -2.3363
  604MOL0     H79673   9.957   4.373  11.769  0.9229  1.7166  0.0779
  604MOL0     H79674   9.982   4.378  11.942  1.7273 -1.7519  1.4784
  604MOL0     H79675   9.999   4.162  11.980  1.5378  1.5154 -1.2069
  604MOL0     H79676  10.009   4.109  11.816  3.4894  0.7281  1.5987
  604MOL0     H79677   9.754   4.100  11.918 -1.7416 -0.7360 -2.1408
  604MOL0     H79678   9.770   4.273  11.915  4.5416  2.1440 -0.4738
  604MOL0     H79679   9.788   4.276  11.680  0.7787 -1.6522 -1.3660
  604MOL0     H79680   9.662   4.153  11.701  0.7320 -2.8508 -3.1953
  604MOL0     H79681   9.988   4.194  11.529 -1.3428  1.4160  1.7495
  604MOL0     H79682  10.099   3.849  11.363 -2.6310 -1.6534 -3.2630
  604MOL0     H79683  10.147   4.017  11.379  1.5568 -1.1517 -1.3941
  604MOL0     H79684   9.896   3.904  11.230 -0.6038  0.2221  2.7271
  604MOL0     H79685  10.056   3.921  11.159 -1.5454 -1.1633 -1.4734
  604MOL0     H79686   9.860   4.135  11.268 -0.2401  1.1284 -0.4028
  604MOL0     H79687  10.025   4.180  11.207 -3.4610  3.2050  2.2239
  604MOL0     H79688   9.823   4.199  11.063  1.6033  0.4384 -1.3457
  604MOL0     H79689   9.828   4.018  11.045  2.1513 -1.9387  3.3180
  604MOL0     H79690  10.198   4.082  10.834  1.9453 -1.5510 -1.6475
  604MOL0     H79691  10.198   4.003  10.591 -0.9917 -0.1848 -0.5711
  604MOL0     H79692  10.324   3.884  10.251  1.5432 -3.7560 -0.7269
  604MOL0     H79693  10.338   3.816   9.997  1.4238 -1.9387  0.0433
  604MOL0     H79694  10.328   3.529   9.888 -2.9905 -2.3568  0.2939
  604MOL0     H79695  10.328   3.691   9.803 -0.6287 -0.1230 -2.3735
  604MOL0     H79696  10.157   3.465   9.699  1.7377 -2.0806 -0.3943
  604MOL0     H79697  10.323   3.491   9.649 -1.3291 -1.0698 -2.6988
  604MOL0     H79698  10.247   3.749   9.602  2.5141 -1.1438  4.4117
  604MOL0     H79699  10.094   3.679   9.619 -0.0352 -0.0302  0.1649
  604MOL0     H79700  10.273   3.543   9.401  2.6307  3.0688 -3.0571
  604MOL0     H79701  10.095   3.535   9.442  0.1428 -0.1816 -0.0879
  604MOL0     H79702  10.054   3.729   9.344 -1.4299 -0.5923 -0.4575
  604MOL0     H79703  10.156   3.652   9.226  0.9517  2.5611 -1.3201
  604MOL0     H79704  10.344   3.789   9.284  1.3937  3.2510 -0.4328
  604MOL0     H79705  10.267   3.858   9.423  2.2076 -2.7484  0.6824
  604MOL0     H79706  10.241   3.943   9.130 -1.6918  3.3375  0.0006
  604MOL0     H79707  10.087   3.889   9.187 -0.1777 -0.6673  3.6376
  604MOL0     H79708  10.097   4.045   9.375 -0.7796  1.1553 -1.2351
  604MOL0     H79709  10.102   4.096   9.206  4.1982  1.1873 -2.1240
  604MOL0     H79710   9.953   3.646  10.036 -0.6987  1.1194  0.3575
  604MOL0     H79711   9.944   3.703  10.267 -0.6652 -0.7944 -1.9135
  604MOL0     H79712   9.781   3.988  10.569 -0.9421  0.4355  0.9097
  604MOL0     H79713   9.767   4.086  10.797 -0.1593 -2.4942  1.6542
  604MOL0     H79714  10.664   3.972  11.612 -1.3983 -0.8504  0.0308
  604MOL0     H79715  10.823   3.927  11.422  0.2135 -1.8618 -5.7935
  604MOL0     H79716  11.221   4.116  11.215  2.9225 -1.3503 -0.9505
  604MOL0     H79717  11.376   4.143  11.037  0.0932 -3.5755  2.8305
  604MOL0     H79718  11.474   4.023  10.880  4.7720  3.0282  0.9358
  604MOL0     H79719  11.504   4.183  10.799  0.7135 -0.1259  0.3248
  604MOL0     H79720  11.626   4.003  10.703  0.0564  0.4989 -0.6704
  604MOL0     H79721  11.467   3.913  10.681  1.8261 -0.4034 -0.7436
  604MOL0     H79722  11.582   4.169  10.526  0.0269 -0.5747 -2.4360
  604MOL0     H79723  11.407   4.116  10.544 -0.3336 -1.5557  0.1212
  604MOL0     H79724  11.420   3.926  10.441  0.5258 -0.9865 -1.3338
  604MOL0     H79725  11.485   4.048  10.337  1.0925 -0.4200 -0.4109
  604MOL0     H79726  11.811   3.780  10.395 -1.4519 -3.0251 -2.1049
  604MOL0     H79727  11.060   4.053  10.747 -1.8866 -1.5601  0.6931
  604MOL0     H79728  10.898   4.060  10.931 -0.1168  0.7732  0.3031
  605MOL0     O79729   8.448   7.867   3.868  0.0823  0.1830 -0.4073
  605MOL0     C79730   8.413   7.976   3.842  0.2338 -0.9938 -0.0667
  605MOL0     O79731   8.374   8.075   3.922 -0.1756  0.0161 -0.1977
  605MOL0     C79732   8.302   8.043   4.034  0.1355  0.2601  0.2157
  605MOL0     C79733   8.187   7.965   4.015  0.1596  0.7738 -0.4032
  605MOL0     C79734   8.102   7.934   4.124  0.9112  0.8920 -0.5084
  605MOL0     C79735   8.135   7.965   4.259 -0.4806  0.8874 -0.2418
  605MOL0     O79736   8.061   7.903   4.355 -0.6460  0.3859 -0.2430
  605MOL0     C79737   8.016   7.994   4.452  0.1021  0.2208 -0.2872
  605MOL0     C79738   7.899   7.932   4.523 -0.1658  0.6308 -0.2949
  605MOL0     C79739   7.853   8.029   4.622  0.1872  0.0935  0.7227
  605MOL0     C79740   7.721   7.982   4.691 -0.4808  0.2976  0.2223
  605MOL0     C79741   7.671   8.090   4.775  0.5733 -0.3665 -0.2764
  605MOL0     C79742   7.540   8.046   4.853  0.5520 -0.1237 -0.0656
  605MOL0     C79743   7.469   8.180   4.905  0.7018  0.3747 -0.3115
  605MOL0     C79744   7.398   8.245   4.790  0.4027 -0.7383  0.5017
  605MOL0     N79745   7.332   8.162   4.693 -0.2960 -0.2578 -0.5058
  605MOL0     C79746   7.211   8.113   4.698 -0.9461  0.7518  0.1207
  605MOL0     C79747   7.204   8.025   4.592  0.2969 -0.8007 -0.5283
  605MOL0     C79748   7.089   7.949   4.539 -0.5890 -0.1005  0.6171
  605MOL0     C79749   6.985   8.045   4.466  0.7334  0.7465  0.3342
  605MOL0     C79750   6.929   8.167   4.544  0.1231 -0.4013  0.0480
  605MOL0     C79751   6.790   8.221   4.500 -0.0484  0.3337 -0.4904
  605MOL0     O79752   6.753   8.351   4.559  0.3592  0.5377 -1.7411
  605MOL0     C79753   6.620   8.390   4.562 -0.8102 -0.5927  0.4266
  605MOL0     C79754   6.603   8.515   4.494 -0.4516  0.0795  0.4157
  605MOL0     C79755   6.470   8.568   4.465 -0.9073 -0.3740 -0.0913
  605MOL0     C79756   6.357   8.493   4.511  0.3347  1.0503 -0.9129
  605MOL0     C79757   6.220   8.535   4.482 -0.1908 -0.2903 -0.2312
  605MOL0     O79758   6.202   8.647   4.418 -0.9307 -0.4268  0.2123
  605MOL0     C79759   6.074   8.691   4.400  0.9883  0.5272  0.6908
  605MOL0     C79760   5.996   8.633   4.302  0.6954  0.3028  0.3944
  605MOL0     C79761   5.862   8.657   4.300 -0.0468 -0.8100 -0.3532
  605MOL0     C79762   5.801   8.757   4.391 -0.0449  0.4827  0.7355
  605MOL0     O79763   5.667   8.788   4.409  0.0206 -0.9108 -0.4002
  605MOL0     C79764   5.571   8.718   4.324 -0.0940  0.0376 -0.3463
  605MOL0     C79765   5.422   8.732   4.365  0.0797  0.9867 -0.6691
  605MOL0     C79766   5.367   8.870   4.343  0.0091 -0.3579  0.2887
  605MOL0     C79767   5.217   8.881   4.373  0.1496 -0.1729  0.7847
  605MOL0     C79768   5.133   8.820   4.254  0.3877 -0.1934 -0.2152
  605MOL0     C79769   5.058   8.683   4.284 -1.1988 -0.6247  0.1397
  605MOL0     C79770   5.055   8.581   4.170 -0.2019  0.1923  0.0777
  605MOL0     C79771   5.190   8.515   4.157  0.7512 -0.1676  0.1902
  605MOL0    Cl79772   5.200   8.452   3.991 -0.2014  0.1244  0.1028
  605MOL0     C79773   5.886   8.829   4.477 -0.0648 -0.0908 -0.1120
  605MOL0     C79774   6.020   8.784   4.483 -0.9631  0.7652  0.5006
  605MOL0     O79775   6.129   8.462   4.528 -0.1895 -0.1457  0.4682
  605MOL0     C79776   6.378   8.373   4.584  0.6167 -0.2721 -0.8269
  605MOL0     C79777   6.508   8.324   4.605 -0.1134 -0.5932 -0.4344
  605MOL0     N79778   7.318   8.034   4.523 -0.1490 -0.2017  0.0157
  605MOL0     N79779   7.393   8.113   4.587 -0.4414 -0.2497 -0.3156
  605MOL0     C79780   8.247   8.042   4.285 -1.2012 -0.0500 -0.2556
  605MOL0     C79781   8.332   8.079   4.173 -0.4154 -0.1826  0.3060
  605MOL0     C79782   8.425   8.019   3.695 -0.2664  0.6016  0.5627
  605MOL0     C79783   8.328   8.100   3.639 -0.7761 -0.4436 -0.1637
  605MOL0     C79784   8.335   8.138   3.501  0.5910  0.0662  0.2950
  605MOL0     C79785   8.428   8.076   3.423 -0.7197 -1.0466  0.1744
  605MOL0     O79786   8.445   8.112   3.291  1.1699 -0.5804  0.9953
  605MOL0     C79787   8.341   8.163   3.201 -0.5216  0.0889 -0.5777
  605MOL0     C79788   8.395   8.190   3.056 -0.0430 -0.0202  0.0610
  605MOL0     C79789   8.449   8.064   2.995 -0.3475  0.9388  0.0881
  605MOL0     C79790   8.498   8.064   2.854 -0.2776 -0.3037 -0.0445
  605MOL0     C79791   8.590   8.174   2.811 -0.7552  0.0982 -0.5358
  605MOL0     C79792   8.665   8.265   2.757  0.5913 -0.7416  0.5764
  605MOL0     C79793   8.518   7.988   3.470  0.4054  0.0096 -0.1686
  605MOL0     C79794   8.520   7.962   3.605 -0.0315 -0.8223 -0.6888
  605MOL0     H79795   8.162   7.933   3.914  0.8992 -3.3705  0.5483
  605MOL0     H79796   8.010   7.878   4.109  0.3455  1.8067 -0.5626
  605MOL0     H79797   7.996   8.096   4.419  1.1529  0.9883  1.3098
  605MOL0     H79798   8.101   8.012   4.519 -0.7627  0.4334  0.7701
  605MOL0     H79799   7.931   7.840   4.571  1.2316  2.4161  2.4652
  605MOL0     H79800   7.817   7.912   4.453  0.5398 -1.1741 -0.6687
  605MOL0     H79801   7.833   8.128   4.582 -1.5386  0.5075  2.4651
  605MOL0     H79802   7.930   8.051   4.697  2.4067  0.6908 -1.5853
  605MOL0     H79803   7.654   7.956   4.609  0.0358  0.8210 -0.3715
  605MOL0     H79804   7.738   7.889   4.746 -1.5876  0.2207  0.4628
  605MOL0     H79805   7.678   8.181   4.715 -0.2754 -1.3360 -1.8966
  605MOL0     H79806   7.746   8.103   4.853 -0.2310 -0.9558  0.6211
  605MOL0     H79807   7.586   7.985   4.931 -1.6528  0.2606  1.6427
  605MOL0     H79808   7.464   7.991   4.795 -1.7890  2.6712  0.0939
  605MOL0     H79809   7.398   8.154   4.984 -0.5402 -2.7173 -2.2356
  605MOL0     H79810   7.546   8.244   4.949  1.4045  0.2772 -1.3786
  605MOL0     H79811   7.471   8.302   4.732 -0.0196 -1.5130 -0.8275
  605MOL0     H79812   7.338   8.325   4.836  1.9276  0.3746  0.6284
  605MOL0     H79813   7.147   8.114   4.786  1.3155  2.7662  1.8739
  605MOL0     H79814   7.046   7.918   4.634 -4.7118 -0.3231 -1.1254
  605MOL0     H79815   7.113   7.859   4.482  1.4630 -1.6166  3.6461
  605MOL0     H79816   6.897   7.982   4.447  0.6334  1.2071 -0.8128
  605MOL0     H79817   7.024   8.067   4.366 -1.6184  0.3812 -0.7348
  605MOL0     H79818   6.925   8.144   4.651  1.0540 -2.6976 -0.3549
  605MOL0     H79819   6.996   8.253   4.537 -1.6252  1.0973  0.8368
  605MOL0     H79820   6.707   8.150   4.510 -3.8116  4.4190  0.1484
  605MOL0     H79821   6.788   8.250   4.395  0.2238  0.4896 -0.4532
  605MOL0     H79822   6.695   8.568   4.473 -0.6836 -0.1853 -1.4106
  605MOL0     H79823   6.464   8.664   4.416  2.5937  1.6389  2.9406
  605MOL0     H79824   6.034   8.554   4.238 -3.7200 -0.7155 -1.2768
  605MOL0     H79825   5.803   8.604   4.226 -1.3765  1.3232 -0.8990
  605MOL0     H79826   5.590   8.610   4.320 -1.5290 -0.3500  1.6809
  605MOL0     H79827   5.567   8.752   4.220 -2.8088  0.6826 -0.1015
  605MOL0     H79828   5.419   8.717   4.473  1.5390 -1.7492 -0.9259
  605MOL0     H79829   5.363   8.658   4.311 -0.1839  2.5713 -2.6480
  605MOL0     H79830   5.388   8.898   4.240 -1.2778 -0.8819 -0.1353
  605MOL0     H79831   5.413   8.939   4.415  0.0318  0.7401 -0.7392
  605MOL0     H79832   5.184   8.841   4.469 -2.9973 -0.4209 -0.2678
  605MOL0     H79833   5.196   8.988   4.369  0.2485 -0.1448 -3.1958
  605MOL0     H79834   5.196   8.792   4.169 -0.0590 -1.2801 -0.2028
  605MOL0     H79835   5.057   8.891   4.220 -0.3154 -0.4804  0.7133
  605MOL0     H79836   4.954   8.708   4.305 -1.5156 -0.0226 -1.9162
  605MOL0     H79837   5.087   8.636   4.379  3.4713 -0.5492 -1.0037
  605MOL0     H79838   4.984   8.500   4.189 -0.1818  0.2554  0.4349
  605MOL0     H79839   5.020   8.628   4.078  1.7400  1.7278  0.0559
  605MOL0     H79840   5.203   8.436   4.231 -0.0955 -0.6381 -0.1393
  605MOL0     H79841   5.262   8.596   4.147 -1.3027  1.5303 -2.2539
  605MOL0     H79842   5.833   8.897   4.542 -0.9379 -3.1572  2.6958
  605MOL0     H79843   6.089   8.837   4.548  1.7540 -0.2877 -1.3395
  605MOL0     H79844   6.287   8.320   4.609  0.5017  0.1046 -0.4372
  605MOL0     H79845   6.505   8.228   4.657 -4.9598 -0.3919  0.1625
  605MOL0     H79846   8.274   8.073   4.385  1.7366  0.5081 -1.1186
  605MOL0     H79847   8.430   8.123   4.189 -1.0536  1.1360  0.7140
  605MOL0     H79848   8.245   8.132   3.701 -1.1991 -0.8680 -0.5075
  605MOL0     H79849   8.265   8.208   3.457 -0.5163 -2.6458 -2.6278
  605MOL0     H79850   8.306   8.259   3.242  0.3939 -0.2047  0.9831
  605MOL0     H79851   8.257   8.093   3.197 -0.1061 -0.4000 -0.7326
  605MOL0     H79852   8.316   8.238   2.997 -0.6982 -2.9808 -1.6696
  605MOL0     H79853   8.476   8.263   3.068 -1.7806  1.8402  1.1135
  605MOL0     H79854   8.367   7.993   3.008  1.1634 -0.6752  1.3011
  605MOL0     H79855   8.538   8.039   3.053 -0.1496  0.8146 -0.2686
  605MOL0     H79856   8.550   7.969   2.834  0.0075 -0.0417 -0.5717
  605MOL0     H79857   8.413   8.063   2.785  1.9455  0.0703 -3.0014
  605MOL0     H79858   8.710   8.351   2.712 -2.2522  0.2595 -0.6212
  605MOL0     H79859   8.589   7.938   3.404  1.3238 -0.1004  0.8675
  605MOL0     H79860   8.590   7.885   3.637  3.8227  2.7350  0.2945
  606MOL0     O79861   5.892   4.322  11.140  1.0418 -0.0552  0.3718
  606MOL0     C79862   6.013   4.320  11.171  0.0331  0.2531 -0.0582
  606MOL0     O79863   6.086   4.213  11.202 -0.3823  0.5016  0.9630
  606MOL0     C79864   6.024   4.085  11.186  0.3383 -0.1436 -0.2483
  606MOL0     C79865   6.043   4.025  11.058  0.4691  0.3295  0.3057
  606MOL0     C79866   5.996   3.901  11.030 -0.8421  0.4768 -0.1006
  606MOL0     C79867   5.925   3.831  11.131  0.3262  0.0447 -0.1069
  606MOL0     O79868   5.864   3.713  11.093 -0.2171  0.5480  0.3592
  606MOL0     C79869   5.730   3.707  11.119 -0.2711 -0.0746  1.5107
  606MOL0     C79870   5.653   3.594  11.044  0.3182 -0.6338  0.1981
  606MOL0     C79871   5.504   3.593  11.071  0.3095  0.3575 -0.0179
  606MOL0     C79872   5.440   3.483  10.979  0.7897  1.0481 -0.4768
  606MOL0     C79873   5.287   3.458  10.993 -0.1925 -0.3372  0.1463
  606MOL0     C79874   5.252   3.412  11.130  0.1467  0.4023  0.0448
  606MOL0     C79875   5.108   3.366  11.143  0.5157  0.9536 -0.4716
  606MOL0     C79876   4.997   3.470  11.108  0.2756 -0.6458  0.3006
  606MOL0     N79877   5.000   3.597  11.184 -0.6682 -0.2801 -0.1545
  606MOL0     C79878   4.912   3.643  11.288  0.0871  0.3919  0.8410
  606MOL0     C79879   4.924   3.778  11.301  0.3551 -0.4587 -0.1197
  606MOL0     C79880   4.830   3.853  11.398  0.0857  0.2539  0.4411
  606MOL0     C79881   4.880   3.853  11.544  0.0050  0.6767 -0.2718
  606MOL0     C79882   4.770   3.819  11.641 -0.4807  1.0586 -0.9965
  606MOL0     C79883   4.826   3.793  11.792  0.5947 -0.3780  0.4158
  606MOL0     O79884   4.940   3.706  11.800 -0.7603 -0.3338  0.2494
  606MOL0     C79885   4.914   3.576  11.829 -0.2142 -0.0740  0.6387
  606MOL0     C79886   4.892   3.532  11.959 -0.0620 -0.2833  0.0277
  606MOL0     C79887   4.872   3.393  11.986 -0.6195  1.0656 -0.5211
  606MOL0     C79888   4.865   3.294  11.890  1.4409 -0.8026 -0.8174
  606MOL0     C79889   4.824   3.156  11.914  0.6202  0.6075 -0.2889
  606MOL0     O79890   4.772   3.087  11.800 -0.4997  0.4748  0.7220
  606MOL0     C79891   4.718   2.968  11.831 -0.0929 -1.0699 -1.3651
  606MOL0     C79892   4.576   2.944  11.818  0.0539  0.3680  0.0929
  606MOL0     C79893   4.515   2.841  11.879  0.1449  0.2780 -0.2813
  606MOL0     C79894   4.597   2.734  11.929  0.8119 -0.0713  0.6540
  606MOL0     O79895   4.534   2.616  11.979 -0.1534 -0.7613 -0.0390
  606MOL0     C79896   4.607   2.540  12.089  0.2835  0.1809 -0.3801
  606MOL0     C79897   4.492   2.480  12.173 -0.2105 -1.0560  0.0215
  606MOL0     C79898   4.387   2.585  12.215  0.4748  1.0764  0.4525
  606MOL0     C79899   4.321   2.554  12.345  0.8879 -0.0386  0.7009
  606MOL0     C79900   4.236   2.669  12.395  0.1956  0.4337  0.7903
  606MOL0     C79901   4.202   2.655  12.531  0.0975 -0.6061 -1.1810
  606MOL0     C79902   4.165   2.794  12.572 -0.3858 -0.3552 -0.8813
  606MOL0     C79903   4.065   2.787  12.694  0.1042  0.3862 -0.1820
  606MOL0    Cl79904   4.082   2.938  12.790 -0.2377 -0.0651 -0.9784
  606MOL0     C79905   4.738   2.745  11.930  0.7803 -0.1592 -0.0325
  606MOL0     C79906   4.799   2.859  11.893  0.1413 -0.3564 -0.6498
  606MOL0     O79907   4.835   3.113  12.028 -0.3619  0.1610 -0.3098
  606MOL0     C79908   4.887   3.334  11.759 -0.6850  0.8920 -0.6934
  606MOL0     C79909   4.913   3.474  11.732 -0.4930  0.5261  0.7982
  606MOL0     N79910   5.015   3.813  11.206  0.5910 -0.0403 -0.8112
  606MOL0     N79911   5.059   3.710  11.139  0.7932  0.5759  0.6640
  606MOL0     C79912   5.899   3.888  11.261  0.4244 -1.0418  0.1270
  606MOL0     C79913   5.959   4.018  11.290  0.5268  0.3257  0.2514
  606MOL0     C79914   6.079   4.451  11.162 -0.4726  0.0568 -0.6094
  606MOL0     C79915   6.222   4.461  11.186  0.1436 -0.4399  0.2975
  606MOL0     C79916   6.287   4.587  11.182  0.0487  0.4535  0.0781
  606MOL0     C79917   6.217   4.690  11.143 -0.2343  0.3020  0.7969
  606MOL0     O79918   6.274   4.814  11.132 -0.0546 -1.0723  0.2838
  606MOL0     C79919   6.414   4.833  11.090  0.5872  0.1615 -0.2280
  606MOL0     C79920   6.493   4.917  11.202 -1.1021  0.7045  0.2889
  606MOL0     C79921   6.638   4.928  11.160  0.7421 -0.4898 -0.2683
  606MOL0     C79922   6.725   4.983  11.264  0.5783  0.0821  0.1901
  606MOL0     C79923   6.734   4.908  11.383 -0.2938  0.7370  0.7115
  606MOL0     C79924   6.734   4.843  11.485  0.7411  0.0150 -0.3340
  606MOL0     C79925   6.083   4.681  11.130 -0.7386 -0.4799 -0.6324
  606MOL0     C79926   6.011   4.567  11.151  0.1617  0.0737  0.3882
  606MOL0     H79927   6.092   4.089  10.986 -0.9798  0.2512 -0.8071
  606MOL0     H79928   6.014   3.873  10.927  1.8703  2.0682 -0.1531
  606MOL0     H79929   5.683   3.801  11.088  1.9412  0.2487 -1.1848
  606MOL0     H79930   5.707   3.693  11.225 -1.9085 -2.0712  0.9506
  606MOL0     H79931   5.681   3.492  11.073 -3.3566 -2.1140 -0.8304
  606MOL0     H79932   5.666   3.596  10.936  1.9194 -3.8693  0.2270
  606MOL0     H79933   5.459   3.691  11.052  2.9894  1.6456 -0.1627
  606MOL0     H79934   5.488   3.555  11.173 -0.4151 -0.4934 -0.4423
  606MOL0     H79935   5.465   3.508  10.875  3.1479 -0.6077 -0.3889
  606MOL0     H79936   5.484   3.386  11.003 -3.7281 -1.4980 -1.4109
  606MOL0     H79937   5.262   3.384  10.916  1.8962 -2.1542  1.0868
  606MOL0     H79938   5.228   3.548  10.976  2.0447  1.1002 -0.4264
  606MOL0     H79939   5.266   3.500  11.192 -3.3178  2.8359 -2.2519
  606MOL0     H79940   5.307   3.323  11.162 -0.8634 -0.7376 -1.2471
  606MOL0     H79941   5.086   3.270  11.096  0.7330  0.9262 -0.5179
  606MOL0     H79942   5.087   3.360  11.250  0.1501  2.7030 -0.4241
  606MOL0     H79943   4.900   3.419  11.112 -0.9784  0.8890 -4.2480
  606MOL0     H79944   5.006   3.494  11.002 -1.6350 -0.8643  0.0422
  606MOL0     H79945   4.843   3.576  11.339 -0.9890  0.4541 -0.4824
  606MOL0     H79946   4.728   3.815  11.388 -0.1134  1.3013 -2.7970
  606MOL0     H79947   4.815   3.956  11.363 -0.5211  0.2842  0.7789
  606MOL0     H79948   4.921   3.953  11.563  0.7441 -0.0366  2.2446
  606MOL0     H79949   4.971   3.793  11.551  1.1898  2.2871 -1.2051
  606MOL0     H79950   4.701   3.903  11.657  0.5104  1.3642  2.5476
  606MOL0     H79951   4.726   3.728  11.598  2.6425 -0.9357 -0.2853
  606MOL0     H79952   4.747   3.746  11.851  1.4798 -1.4486  0.7771
  606MOL0     H79953   4.846   3.894  11.830  0.4520 -0.4109  0.5795
  606MOL0     H79954   4.883   3.610  12.034  3.7247  0.3025  0.0865
  606MOL0     H79955   4.847   3.372  12.090  2.0459 -0.4744 -0.0914
  606MOL0     H79956   4.507   3.012  11.769 -1.4363 -1.8176 -1.0136
  606MOL0     H79957   4.407   2.833  11.886  0.2387 -0.1775  0.8016
  606MOL0     H79958   4.656   2.608  12.159 -0.7701  0.4061  0.1627
  606MOL0     H79959   4.678   2.472  12.042 -1.6599 -1.4256 -1.1565
  606MOL0     H79960   4.539   2.427  12.257 -0.4033  3.5074  3.3946
  606MOL0     H79961   4.432   2.422  12.102 -1.5789  3.4695 -2.9039
  606MOL0     H79962   4.317   2.602  12.133  2.4348  4.0202 -0.7584
  606MOL0     H79963   4.450   2.674  12.223  2.4560 -0.1515 -0.7792
  606MOL0     H79964   4.258   2.465  12.340  1.0456 -0.1870  1.2547
  606MOL0     H79965   4.400   2.521  12.413  0.9834 -0.9442  0.1620
  606MOL0     H79966   4.145   2.661  12.335  0.1654 -2.0216  1.0675
  606MOL0     H79967   4.278   2.769  12.376 -1.0240  0.9704  0.8695
  606MOL0     H79968   4.291   2.611  12.576  0.2469 -0.3414 -1.2208
  606MOL0     H79969   4.120   2.584  12.548  0.1361 -0.1480  1.2101
  606MOL0     H79970   4.263   2.832  12.603  1.0002 -2.7819 -1.9619
  606MOL0     H79971   4.124   2.864  12.499  1.8959  2.5827  0.4667
  606MOL0     H79972   4.083   2.710  12.770 -0.0636  1.4799  1.0022
  606MOL0     H79973   3.965   2.766  12.656 -0.6326  1.0928  1.3111
  606MOL0     H79974   4.794   2.654  11.948  3.2392  1.1561 -0.5159
  606MOL0     H79975   4.906   2.866  11.904  0.2089 -0.8568 -0.9861
  606MOL0     H79976   4.892   3.253  11.686 -0.2785 -1.9926  2.3066
  606MOL0     H79977   4.940   3.495  11.629  1.7661  1.7623  1.5917
  606MOL0     H79978   5.847   3.833  11.339 -1.4768  1.5976  0.8713
  606MOL0     H79979   5.960   4.057  11.391 -0.1682 -1.1875  0.8734
  606MOL0     H79980   6.286   4.377  11.211 -1.4337 -0.6001  4.5653
  606MOL0     H79981   6.391   4.602  11.212 -0.3469  2.4340  0.5728
  606MOL0     H79982   6.412   4.897  11.001  2.2092  1.3439  0.5385
  606MOL0     H79983   6.465   4.739  11.068 -0.8281 -1.2183  2.0607
  606MOL0     H79984   6.453   5.019  11.206 -0.6360  0.9823 -1.2846
  606MOL0     H79985   6.482   4.871  11.301 -1.5634  2.2264  0.9780
  606MOL0     H79986   6.623   4.990  11.071 -0.5642 -2.0669 -1.2122
  606MOL0     H79987   6.685   4.837  11.121  0.0043 -1.1040  0.2644
  606MOL0     H79988   6.819   4.984  11.209 -0.6589  0.2964 -2.0887
  606MOL0     H79989   6.697   5.087  11.288  3.3364  0.7768  0.6734
  606MOL0     H79990   6.741   4.784  11.574 -1.1167 -2.1887 -1.5494
  606MOL0     H79991   6.026   4.773  11.116 -0.2965 -0.3847 -1.8906
  606MOL0     H79992   5.903   4.569  11.139 -0.3308 -1.1087  3.5419
  607MOL0     O79993   0.753   6.302   1.262 -0.5455 -0.0137  0.1683
  607MOL0     C79994   0.752   6.420   1.271  0.9985 -0.0185  0.8314
  607MOL0     O79995   0.851   6.499   1.315 -0.1204  0.5218 -0.2088
  607MOL0     C79996   0.972   6.449   1.347 -0.6216 -0.0231 -0.6095
  607MOL0     C79997   1.068   6.551   1.340 -0.0804  0.5737  1.1070
  607MOL0     C79998   1.206   6.523   1.376  0.0984  0.6266  0.8006
  607MOL0     C79999   1.239   6.391   1.423  0.1847 -0.5145 -0.2057
  607MOL0     O80000   1.370   6.359   1.456 -0.0210  0.1972  0.5074
  607MOL0     C80001   1.400   6.347   1.595 -1.1037  0.7134  0.4394
  607MOL0     C80002   1.539   6.272   1.604  0.5033  0.8386 -0.1891
  607MOL0     C80003   1.585   6.242   1.753 -0.4475 -0.4660  0.6378
  607MOL0     C80004   1.698   6.143   1.760 -0.8395  0.4290 -0.1181
  607MOL0     C80005   1.700   6.077   1.895  0.0571 -0.1104 -1.0744
  607MOL0     C80006   1.801   5.963   1.913 -0.1862 -0.1135 -0.3725
  607MOL0     C80007   1.795   5.924   2.062  0.0606  1.0332 -0.1266
  607MOL0     C80008   1.904   5.837   2.124 -0.8727  0.4753  0.4122
  607MOL0     N80009   1.884   5.829   2.269  0.3064 -0.2717 -0.3296
  607MOL0     C80010   1.773   5.769   2.337 -0.5679 -0.1908  0.6548
  607MOL0     C80011   1.804   5.795   2.464 -0.5881  0.5371 -0.4880
  607MOL0     C80012   1.709   5.739   2.570  0.1059 -0.4577  0.2020
  607MOL0     C80013   1.595   5.842   2.593 -0.0132 -0.4042  0.8878
  607MOL0     C80014   1.512   5.801   2.709 -0.5850  0.3879 -0.6014
  607MOL0     C80015   1.407   5.906   2.727  0.4585  0.0667  1.1138
  607MOL0     O80016   1.361   5.884   2.862 -0.0056  1.1843 -0.9202
  607MOL0     C80017   1.250   5.937   2.926 -0.2601 -0.3882 -0.1827
  607MOL0     C80018   1.227   5.908   3.062  0.1962 -0.5397  0.2598
  607MOL0     C80019   1.103   5.955   3.117 -0.7336  0.8805 -0.2049
  607MOL0     C80020   1.007   6.023   3.038 -0.2384  0.1438  1.0231
  607MOL0     C80021   0.869   6.055   3.094  0.5455  0.0802 -0.4953
  607MOL0     O80022   0.857   6.010   3.222  0.4990 -0.1395 -0.1388
  607MOL0     C80023   0.733   6.029   3.284 -0.8209 -0.2110  1.1038
  607MOL0     C80024   0.673   5.917   3.349  0.5853 -0.5822  0.2132
  607MOL0     C80025   0.553   5.927   3.399 -0.2151  0.5189  0.5673
  607MOL0     C80026   0.490   6.051   3.413 -0.1776 -0.4230  0.2156
  607MOL0     O80027   0.375   6.066   3.485 -0.1085  0.0720 -0.5841
  607MOL0     C80028   0.267   6.141   3.425  0.0020 -0.3613 -1.0540
  607MOL0     C80029   0.224   6.262   3.505 -0.9814 -0.1423  0.3491
  607MOL0     C80030   0.102   6.236   3.607 -0.5646  0.5788 -0.0899
  607MOL0     C80031   0.066   6.354   3.694  0.0463 -0.0717 -0.8764
  607MOL0     C80032  -0.040   6.324   3.800 -0.7414 -0.2589  0.5941
  607MOL0     C80033  -0.010   6.195   3.877 -0.0438  0.2294  0.2936
  607MOL0     C80034  -0.067   6.201   4.023 -0.8006  0.0660  0.6790
  607MOL0     C80035  -0.070   6.062   4.092  0.2140  0.1453  0.6316
  607MOL0    Cl80036  -0.188   5.951   4.001 -0.3421  0.6499 -0.5584
  607MOL0     C80037   0.552   6.163   3.350 -0.0195  0.2296 -0.3855
  607MOL0     C80038   0.675   6.151   3.295  0.3565 -0.5717  0.0103
  607MOL0     O80039   0.783   6.109   3.024 -0.4849 -0.8010 -0.0786
  607MOL0     C80040   1.031   6.051   2.905 -0.0893 -0.3648  0.4273
  607MOL0     C80041   1.150   6.000   2.844 -0.5328  0.5966 -0.4960
  607MOL0     N80042   1.927   5.863   2.468  0.1278  0.6101 -0.1739
  607MOL0     N80043   1.976   5.878   2.357  0.4892 -0.0101  0.0174
  607MOL0     C80044   1.141   6.289   1.427  0.1929 -0.2366  0.8691
  607MOL0     C80045   1.008   6.319   1.401 -0.6162  0.4325 -0.5268
  607MOL0     C80046   0.622   6.490   1.243 -0.7725  0.9679  0.3147
  607MOL0     C80047   0.510   6.419   1.199 -0.0608 -0.1511 -0.2125
  607MOL0     C80048   0.385   6.480   1.173 -0.6931 -0.8025 -0.5360
  607MOL0     C80049   0.372   6.620   1.205 -1.3064 -0.8188 -1.0315
  607MOL0     O80050   0.261   6.698   1.173 -0.2346  0.3173  0.0482
  607MOL0     C80051   0.158   6.685   1.266 -0.7500  0.5675 -1.2590
  607MOL0     C80052   0.032   6.734   1.200  1.2045 -0.3275  0.5596
  607MOL0     C80053  -0.089   6.696   1.282  0.2352  0.3645 -0.7393
  607MOL0     C80054  -0.214   6.758   1.234 -0.0900 -0.4768 -0.4758
  607MOL0     C80055  -0.331   6.682   1.293 -0.1797 -0.9208 -0.1746
  607MOL0     C80056  -0.416   6.616   1.346 -0.7263 -0.2782  0.2496
  607MOL0     C80057   0.490   6.695   1.243  0.3831  0.8650  0.5592
  607MOL0     C80058   0.610   6.628   1.258 -0.1053  0.2966  0.1381
  607MOL0     H80059   1.029   6.648   1.312 -0.4739 -0.5765 -2.8901
  607MOL0     H80060   1.292   6.590   1.379  0.0003  0.8347 -0.4727
  607MOL0     H80061   1.329   6.283   1.648 -1.4418  1.0857  0.4397
  607MOL0     H80062   1.388   6.444   1.644 -2.0280  2.1927 -2.4480
  607MOL0     H80063   1.614   6.335   1.554  0.0882  1.7355  0.2993
  607MOL0     H80064   1.519   6.174   1.559 -1.2329 -0.6348  3.3887
  607MOL0     H80065   1.495   6.217   1.812 -1.5387  2.2758  0.3159
  607MOL0     H80066   1.606   6.340   1.798 -0.0582  0.1154 -0.7686
  607MOL0     H80067   1.684   6.063   1.687  5.9542  0.6876 -2.3764
  607MOL0     H80068   1.798   6.182   1.743 -0.6972 -0.8589 -2.7039
  607MOL0     H80069   1.601   6.044   1.927  0.5032  1.1713  2.0174
  607MOL0     H80070   1.728   6.150   1.972  0.2848 -0.7158 -0.5799
  607MOL0     H80071   1.905   5.989   1.891  0.1922  1.3974  2.6180
  607MOL0     H80072   1.772   5.879   1.850  2.1262 -1.3540  0.1313
  607MOL0     H80073   1.788   6.013   2.124  0.0965 -0.0817  1.5563
  607MOL0     H80074   1.699   5.872   2.074  0.6343 -1.1140 -3.5804
  607MOL0     H80075   2.001   5.883   2.106 -0.2742 -1.1746 -0.8786
  607MOL0     H80076   1.904   5.732   2.095 -0.5463  0.8024 -0.8588
  607MOL0     H80077   1.687   5.717   2.296  0.5191 -0.7982 -0.9423
  607MOL0     H80078   1.766   5.724   2.662  0.0601 -0.9858  0.1476
  607MOL0     H80079   1.676   5.639   2.540 -0.0510 -0.7886  1.4412
  607MOL0     H80080   1.525   5.852   2.509 -1.1255 -4.1627  1.1944
  607MOL0     H80081   1.649   5.935   2.612  2.3713 -1.4436 -0.4255
  607MOL0     H80082   1.470   5.706   2.674  0.0350 -0.2722  0.4369
  607MOL0     H80083   1.573   5.798   2.800  0.4187  0.0820 -1.2649
  607MOL0     H80084   1.325   5.892   2.656 -0.2288 -0.2717  1.9663
  607MOL0     H80085   1.443   6.008   2.714  0.4270  0.0940  1.2480
  607MOL0     H80086   1.310   5.856   3.109  2.6536  4.0799  1.6738
  607MOL0     H80087   1.091   5.937   3.224  3.6589  1.7501  0.6080
  607MOL0     H80088   0.712   5.818   3.327 -1.7731 -1.1124 -2.1845
  607MOL0     H80089   0.494   5.844   3.437 -2.6730  0.6942 -2.5096
  607MOL0     H80090   0.184   6.071   3.411 -0.9865  0.5714 -0.0175
  607MOL0     H80091   0.293   6.180   3.325  1.5054 -0.6614 -0.8090
  607MOL0     H80092   0.176   6.324   3.428 -0.5735 -2.0770 -1.5595
  607MOL0     H80093   0.306   6.321   3.546 -3.2096  2.1408  1.9049
  607MOL0     H80094   0.121   6.151   3.673 -3.0891  0.1924  0.2417
  607MOL0     H80095   0.016   6.196   3.552  0.2773  1.2286 -1.9747
  607MOL0     H80096   0.158   6.405   3.726 -1.9591  3.2375  0.2340
  607MOL0     H80097   0.016   6.431   3.634  0.6478 -0.4339 -1.8595
  607MOL0     H80098  -0.137   6.318   3.750  0.9545 -2.0619 -2.8603
  607MOL0     H80099  -0.054   6.412   3.863 -2.1341  0.6333 -0.9011
  607MOL0     H80100   0.099   6.184   3.883 -0.0471  0.9497  2.4584
  607MOL0     H80101  -0.057   6.105   3.836 -0.5331 -0.5986  2.5267
  607MOL0     H80102  -0.009   6.272   4.081 -1.7819  0.2731  1.4384
  607MOL0     H80103  -0.172   6.234   4.018 -0.2156  1.9450 -0.1852
  607MOL0     H80104  -0.111   6.067   4.193 -1.0474 -3.6205  0.4685
  607MOL0     H80105   0.027   6.014   4.083  0.4928  0.9910 -1.4167
  607MOL0     H80106   0.510   6.263   3.345 -1.3753 -0.3691 -3.5988
  607MOL0     H80107   0.746   6.228   3.265 -1.1307 -0.0015 -2.3198
  607MOL0     H80108   0.968   6.104   2.835  0.8667  0.8539  0.4705
  607MOL0     H80109   1.167   6.019   2.739  2.7573  2.8077  0.2784
  607MOL0     H80110   1.175   6.191   1.460  0.0205 -1.0608 -1.2537
  607MOL0     H80111   0.937   6.238   1.416 -2.3658  2.2490  1.7300
  607MOL0     H80112   0.521   6.312   1.185 -1.1996 -0.2081 -0.7664
  607MOL0     H80113   0.298   6.425   1.140 -0.2087 -1.4276 -0.7818
  607MOL0     H80114   0.180   6.734   1.361 -0.9523  0.1975 -1.0202
  607MOL0     H80115   0.143   6.578   1.281 -0.4570  0.6999  0.1109
  607MOL0     H80116   0.032   6.843   1.198 -1.2602 -0.2785 -0.5440
  607MOL0     H80117   0.014   6.695   1.099 -0.9733 -0.8368  1.0986
  607MOL0     H80118  -0.058   6.718   1.385 -0.6988 -0.8811 -0.1673
  607MOL0     H80119  -0.102   6.587   1.287  1.8798  0.1841  1.1956
  607MOL0     H80120  -0.220   6.866   1.251 -0.3310 -0.5095 -0.3502
  607MOL0     H80121  -0.219   6.750   1.125  0.7719  1.0900 -0.6586
  607MOL0     H80122  -0.498   6.569   1.396 -1.8750  0.3875 -0.9397
  607MOL0     H80123   0.478   6.802   1.252 -0.0104  0.7466  1.6029
  607MOL0     H80124   0.689   6.692   1.295  0.1901 -1.0688  2.0800
  608MOL0     O80125   2.876   3.941   6.414 -0.6199  0.3002  0.0035
  608MOL0     C80126   2.920   3.851   6.337  0.5300 -0.4429 -0.0989
  608MOL0     O80127   3.036   3.783   6.350 -0.4414  0.4208 -0.3975
  608MOL0     C80128   3.113   3.812   6.459 -0.1385  0.4652 -0.5867
  608MOL0     C80129   3.179   3.937   6.468 -0.7337  0.7052  0.4274
  608MOL0     C80130   3.286   3.946   6.566 -0.0279 -0.2529  0.6748
  608MOL0     C80131   3.312   3.846   6.659 -0.5689 -1.4323 -0.9895
  608MOL0     O80132   3.399   3.887   6.761 -0.2446 -0.0505  0.4367
  608MOL0     C80133   3.392   3.818   6.893 -0.1478 -0.0777 -0.4575
  608MOL0     C80134   3.283   3.862   6.989  0.8502  0.6246 -1.1994
  608MOL0     C80135   3.266   4.021   6.989 -0.3516  0.8233 -0.3616
  608MOL0     C80136   3.127   4.078   7.044  0.9660  0.0012  0.1998
  608MOL0     C80137   2.996   4.024   6.987  0.2393  0.7356 -0.3659
  608MOL0     C80138   2.980   4.018   6.836  0.2095 -0.2903 -0.0947
  608MOL0     C80139   2.848   3.949   6.793  0.1744  0.1291 -0.6310
  608MOL0     C80140   2.742   4.056   6.774 -1.2469 -0.2840 -0.3130
  608MOL0     N80141   2.622   3.995   6.714  0.5430 -0.1862 -0.3063
  608MOL0     C80142   2.621   3.911   6.609  0.0436 -1.0870  0.9683
  608MOL0     C80143   2.491   3.914   6.564  1.0222  0.5114  0.1060
  608MOL0     C80144   2.442   3.837   6.436 -0.9866  0.2500  0.2986
  608MOL0     C80145   2.321   3.742   6.442 -0.6196 -0.1494  0.1381
  608MOL0     C80146   2.191   3.821   6.418  0.2806  0.1200 -0.4749
  608MOL0     C80147   2.064   3.741   6.432  0.3010  0.0033 -0.2493
  608MOL0     O80148   1.945   3.821   6.419 -0.2915  0.0973 -0.4532
  608MOL0     C80149   1.835   3.766   6.481 -0.6072 -0.3660 -0.1442
  608MOL0     C80150   1.756   3.861   6.527 -0.4030  0.5695  0.0562
  608MOL0     C80151   1.630   3.827   6.596  0.0567  0.2983  0.0410
  608MOL0     C80152   1.595   3.688   6.604 -0.1572 -0.5320  0.9134
  608MOL0     C80153   1.462   3.665   6.661  0.8045  0.1614  0.2481
  608MOL0     O80154   1.370   3.772   6.674 -1.1236  0.2929  0.9162
  608MOL0     C80155   1.239   3.746   6.705  1.0939 -0.9481  0.7690
  608MOL0     C80156   1.161   3.648   6.646  0.0676 -0.4358 -0.1534
  608MOL0     C80157   1.031   3.631   6.691  0.4000  0.1560 -0.5222
  608MOL0     C80158   0.981   3.702   6.794 -0.4825 -0.0758  0.8674
  608MOL0     O80159   0.854   3.664   6.834 -1.0202 -0.7681  0.0408
  608MOL0     C80160   0.781   3.756   6.912 -0.1415 -0.4561  0.5391
  608MOL0     C80161   0.661   3.689   6.979 -0.5469 -0.1682  0.0253
  608MOL0     C80162   0.580   3.608   6.882  0.3893 -0.5281 -0.9405
  608MOL0     C80163   0.467   3.543   6.957 -0.9741 -0.5590  0.2689
  608MOL0     C80164   0.369   3.474   6.860 -0.4554  0.1637  0.6448
  608MOL0     C80165   0.257   3.407   6.934 -0.3816 -0.5261  0.0928
  608MOL0     C80166   0.163   3.319   6.851 -0.1191  0.6832 -0.0242
  608MOL0     C80167   0.043   3.268   6.928 -0.6205  0.1855  0.5698
  608MOL0    Cl80168  -0.039   3.133   6.838  0.6774  0.5589 -0.2535
  608MOL0     C80169   1.058   3.799   6.860 -0.1058 -0.3352  0.5848
  608MOL0     C80170   1.183   3.820   6.812 -0.0023  0.1950  0.2565
  608MOL0     O80171   1.453   3.558   6.714 -0.0372  0.6109 -0.7620
  608MOL0     C80172   1.681   3.592   6.550  0.2157  0.3089  0.0790
  608MOL0     C80173   1.805   3.628   6.489 -0.3611 -0.0050 -0.1082
  608MOL0     N80174   2.420   3.992   6.655  0.0638  0.5563  0.1221
  608MOL0     N80175   2.501   4.052   6.732 -0.5998  0.4613  0.9082
  608MOL0     C80176   3.235   3.729   6.658  0.0114 -0.5378  0.6765
  608MOL0     C80177   3.134   3.709   6.556 -0.6093 -0.6031  0.4921
  608MOL0     C80178   2.849   3.827   6.217  0.0611 -0.0197 -0.5622
  608MOL0     C80179   2.925   3.766   6.111  1.0017 -0.6027  0.7929
  608MOL0     C80180   2.864   3.749   5.989 -0.5206  0.2440  0.9802
  608MOL0     C80181   2.733   3.781   5.964 -0.2661 -0.1938 -0.2189
  608MOL0     O80182   2.698   3.751   5.841 -0.0790  0.0903  0.4706
  608MOL0     C80183   2.577   3.802   5.794  0.4585 -0.1941  0.5852
  608MOL0     C80184   2.583   3.860   5.653 -0.2873  0.3216  0.2991
  608MOL0     C80185   2.447   3.859   5.579 -0.0788 -0.7929  0.0440
  608MOL0     C80186   2.341   3.937   5.662  0.5136  0.0508 -0.1228
  608MOL0     C80187   2.212   3.921   5.591 -0.2211  0.4510 -0.2336
  608MOL0     C80188   2.122   3.890   5.511 -0.4988 -0.3030 -0.0562
  608MOL0     C80189   2.660   3.832   6.068 -0.0739 -0.1320  0.4347
  608MOL0     C80190   2.715   3.860   6.197 -1.6863  0.4168 -0.0642
  608MOL0     H80191   3.156   4.017   6.398  1.5219  1.2238  0.2186
  608MOL0     H80192   3.345   4.037   6.566  1.7748 -1.3697  0.1910
  608MOL0     H80193   3.490   3.825   6.941 -0.6758 -1.9663  1.0183
  608MOL0     H80194   3.380   3.711   6.878 -0.4025  0.3284 -3.8082
  608MOL0     H80195   3.291   3.830   7.094 -3.8592 -0.5395 -0.9835
  608MOL0     H80196   3.187   3.821   6.957  1.3867 -0.1066 -1.9031
  608MOL0     H80197   3.290   4.054   6.887  2.3441 -0.4933 -0.2432
  608MOL0     H80198   3.346   4.070   7.045 -1.3862  0.1391  1.8214
  608MOL0     H80199   3.133   4.044   7.148 -1.2411 -1.1825 -0.0138
  608MOL0     H80200   3.118   4.187   7.041 -1.3027 -0.1465 -0.5049
  608MOL0     H80201   2.916   4.081   7.033 -0.2961  1.5137 -2.1700
  608MOL0     H80202   2.990   3.923   7.030  4.1431  2.1600  4.5953
  608MOL0     H80203   3.062   3.958   6.796 -0.2789 -1.7199  0.9615
  608MOL0     H80204   2.986   4.121   6.800 -2.7383 -0.7400 -2.2166
  608MOL0     H80205   2.879   3.897   6.702  1.3408  1.3268 -0.9519
  608MOL0     H80206   2.830   3.870   6.866  3.2201  0.4524  0.6133
  608MOL0     H80207   2.790   4.132   6.711  0.5629 -0.9441  0.1934
  608MOL0     H80208   2.712   4.104   6.867  4.5311  1.9729  0.7965
  608MOL0     H80209   2.704   3.860   6.562 -2.0322 -2.6865 -1.1282
  608MOL0     H80210   2.522   3.765   6.414 -0.4048  0.7162  0.8570
  608MOL0     H80211   2.436   3.904   6.350 -1.6043  1.9212  1.5813
  608MOL0     H80212   2.317   3.708   6.546 -0.5266 -1.6794 -0.3247
  608MOL0     H80213   2.332   3.654   6.377  3.9570 -0.2679  0.7474
  608MOL0     H80214   2.183   3.907   6.485 -0.4492 -0.1917 -0.1534
  608MOL0     H80215   2.197   3.867   6.318 -4.0193 -0.4301 -1.1878
  608MOL0     H80216   2.069   3.691   6.529  0.2636 -1.5951 -1.0386
  608MOL0     H80217   2.063   3.666   6.353 -1.5578 -0.7041  0.4111
  608MOL0     H80218   1.789   3.963   6.510  0.8475 -0.0407 -1.4084
  608MOL0     H80219   1.571   3.911   6.631  0.3133  0.5478 -0.1136
  608MOL0     H80220   1.198   3.594   6.560 -0.3661 -1.0107  0.0134
  608MOL0     H80221   0.969   3.554   6.645  0.7176  1.1732 -2.7679
  608MOL0     H80222   0.756   3.848   6.858 -2.4198 -2.2569 -1.7744
  608MOL0     H80223   0.849   3.770   6.996 -0.1657 -2.3711  0.9244
  608MOL0     H80224   0.597   3.769   7.018 -2.0339 -0.1659 -2.1868
  608MOL0     H80225   0.689   3.620   7.059 -0.0570  1.8867  1.7035
  608MOL0     H80226   0.641   3.529   6.836  1.4854  0.2947 -0.9466
  608MOL0     H80227   0.537   3.668   6.802 -1.6890 -1.1808 -0.3716
  608MOL0     H80228   0.525   3.471   7.017  0.8782 -0.6504 -1.5135
  608MOL0     H80229   0.412   3.622   7.008  4.1956  2.7939  1.4521
  608MOL0     H80230   0.430   3.391   6.820 -2.1805 -1.2549  0.8313
  608MOL0     H80231   0.332   3.540   6.781  2.0467  0.6306 -0.2457
  608MOL0     H80232   0.194   3.479   6.986 -1.5795 -0.8048 -0.9330
  608MOL0     H80233   0.297   3.340   7.011 -2.1441 -3.7785 -1.6015
  608MOL0     H80234   0.121   3.370   6.764  3.1359 -0.4144 -2.4343
  608MOL0     H80235   0.213   3.229   6.814 -3.4345 -0.5497 -1.9824
  608MOL0     H80236  -0.024   3.352   6.951 -1.8206 -1.0165  1.6638
  608MOL0     H80237   0.069   3.232   7.028 -0.4135 -0.5608  0.2554
  608MOL0     H80238   1.033   3.853   6.950 -2.7624  1.5229 -1.1143
  608MOL0     H80239   1.249   3.895   6.854 -0.7785  0.3869  1.1551
  608MOL0     H80240   1.664   3.485   6.562 -1.9287  0.7463  1.6303
  608MOL0     H80241   1.879   3.563   6.445  1.3645  2.3816 -0.9530
  608MOL0     H80242   3.251   3.648   6.729  0.7029 -0.2557  0.8528
  608MOL0     H80243   3.084   3.614   6.539 -0.7334 -0.1511 -2.1029
  608MOL0     H80244   3.033   3.766   6.120  0.9774  0.0292  1.1326
  608MOL0     H80245   2.920   3.718   5.901 -1.3872 -0.7101  0.7385
  608MOL0     H80246   2.532   3.879   5.857 -1.5784 -0.7839 -0.0720
  608MOL0     H80247   2.503   3.721   5.792  0.0838  0.1581 -1.2277
  608MOL0     H80248   2.597   3.967   5.666  1.0751  0.1792  0.0824
  608MOL0     H80249   2.653   3.806   5.589 -0.4109  2.5219 -1.8290
  608MOL0     H80250   2.420   3.759   5.543  1.6208 -0.1447 -3.4833
  608MOL0     H80251   2.454   3.921   5.489 -0.2748 -0.6741  0.1111
  608MOL0     H80252   2.333   3.902   5.765 -0.5439 -0.9166 -0.5064
  608MOL0     H80253   2.362   4.044   5.665 -1.2716  0.4666 -1.2465
  608MOL0     H80254   2.043   3.855   5.449 -0.2513  0.8087 -1.0303
  608MOL0     H80255   2.557   3.864   6.074  0.2516  1.2580 -0.7494
  608MOL0     H80256   2.657   3.888   6.285 -2.6855 -1.1513 -0.1876
  609MOL0     O80257   1.574   7.502   2.641  1.7018  0.1716  0.4336
  609MOL0     C80258   1.661   7.539   2.567 -0.0133  0.7517 -0.9008
  609MOL0     O80259   1.653   7.649   2.487 -0.8239  0.2525 -0.4864
  609MOL0     C80260   1.537   7.691   2.430  0.2310  0.6740 -0.2033
  609MOL0     C80261   1.501   7.641   2.303  0.2212 -0.3902 -0.0641
  609MOL0     C80262   1.391   7.692   2.233  0.1771 -0.6709  0.2548
  609MOL0     C80263   1.316   7.794   2.302 -0.4199 -0.2799  0.1986
  609MOL0     O80264   1.212   7.855   2.236 -0.2851 -0.2469 -0.2768
  609MOL0     C80265   1.243   7.975   2.171  1.2937 -1.3366 -0.5752
  609MOL0     C80266   1.117   8.026   2.103  0.5846 -0.1980  0.6110
  609MOL0     C80267   1.145   8.161   2.042  0.4963  0.1818  1.1152
  609MOL0     C80268   1.158   8.277   2.142  0.2857  1.0960  0.7022
  609MOL0     C80269   1.141   8.414   2.074 -0.0587 -0.3126 -0.1818
  609MOL0     C80270   1.133   8.516   2.189 -0.1220 -0.6663  0.6891
  609MOL0     C80271   0.996   8.503   2.262 -0.4372 -0.0146 -0.0761
  609MOL0     C80272   0.955   8.640   2.326  0.1809  0.9993  0.2172
  609MOL0     N80273   1.069   8.692   2.404  0.3194  0.1556  0.2762
  609MOL0     C80274   1.143   8.633   2.503 -1.2545 -0.0565  0.6209
  609MOL0     C80275   1.190   8.737   2.581  0.1906 -0.4882 -0.4687
  609MOL0     C80276   1.284   8.735   2.690 -0.2489  1.0733  0.2986
  609MOL0     C80277   1.397   8.631   2.673 -0.5444 -0.4736 -0.7233
  609MOL0     C80278   1.493   8.684   2.563  0.1255 -1.3261  0.5990
  609MOL0     C80279   1.595   8.590   2.509  0.0228  0.0881 -0.0579
  609MOL0     O80280   1.700   8.599   2.603 -0.2453 -0.6322 -0.5655
  609MOL0     C80281   1.741   8.484   2.665 -0.5747 -0.0983 -0.2925
  609MOL0     C80282   1.755   8.474   2.810 -0.3918  0.1863 -0.0152
  609MOL0     C80283   1.781   8.344   2.868  0.2476  0.1606 -0.1802
  609MOL0     C80284   1.819   8.236   2.793 -0.2775  0.9757 -0.5434
  609MOL0     C80285   1.846   8.103   2.863 -0.8812 -0.1645  0.6145
  609MOL0     O80286   1.852   7.996   2.782 -0.6739 -0.2815 -0.6399
  609MOL0     C80287   1.857   7.870   2.837  0.4677 -0.2508  0.5149
  609MOL0     C80288   1.746   7.785   2.862  0.6966  0.4758  0.3117
  609MOL0     C80289   1.753   7.654   2.900 -0.0060  0.3258 -0.1294
  609MOL0     C80290   1.880   7.601   2.929 -0.3623 -0.6633  0.0625
  609MOL0     O80291   1.882   7.469   2.970 -0.1706 -0.0099  0.0907
  609MOL0     C80292   2.008   7.406   2.968 -0.2314  0.3623  0.1381
  609MOL0     C80293   2.048   7.386   3.115 -0.5891  0.3958  0.2249
  609MOL0     C80294   2.183   7.316   3.122 -0.7742 -0.0059  0.0178
  609MOL0     C80295   2.294   7.401   3.061 -0.2279  0.1340 -0.5926
  609MOL0     C80296   2.435   7.355   3.107  0.1817  0.3956  0.2485
  609MOL0     C80297   2.549   7.462   3.073  0.3516  0.5088  0.6871
  609MOL0     C80298   2.536   7.584   3.162  0.7579 -0.0717  0.0050
  609MOL0     C80299   2.615   7.697   3.096  1.2211 -1.3003  1.0208
  609MOL0    Cl80300   2.791   7.696   3.106  0.0198  0.0667 -0.1771
  609MOL0     C80301   1.993   7.688   2.918  0.5837 -0.0412 -0.5185
  609MOL0     C80302   1.981   7.821   2.877  0.5776 -0.0839 -0.7020
  609MOL0     O80303   1.851   8.093   2.984 -0.3112 -0.7554 -0.5659
  609MOL0     C80304   1.826   8.250   2.656  0.3038 -1.0675 -0.6084
  609MOL0     C80305   1.791   8.375   2.589 -0.4788 -0.3164 -0.1962
  609MOL0     N80306   1.134   8.852   2.538 -0.3396 -0.4112 -0.8341
  609MOL0     N80307   1.069   8.824   2.425 -0.4857  0.6217 -0.9365
  609MOL0     C80308   1.354   7.843   2.430  1.7475  0.0691  0.0944
  609MOL0     C80309   1.455   7.786   2.493 -0.5943  0.7798 -0.5276
  609MOL0     C80310   1.786   7.461   2.574  0.6908 -1.1620  0.6124
  609MOL0     C80311   1.807   7.366   2.669  0.1099  1.2095  0.4705
  609MOL0     C80312   1.925   7.292   2.675 -0.6434 -0.1490 -0.6504
  609MOL0     C80313   2.035   7.321   2.578  0.6072 -0.8147 -0.7732
  609MOL0     O80314   2.166   7.269   2.579  0.1673 -0.4680  0.0896
  609MOL0     C80315   2.168   7.131   2.618  0.7587 -0.5395 -0.0834
  609MOL0     C80316   2.303   7.102   2.671  0.6344  0.5443  0.4608
  609MOL0     C80317   2.287   6.989   2.778 -0.2374 -0.9717 -0.4270
  609MOL0     C80318   2.403   6.983   2.871  0.5255  0.2090  0.1305
  609MOL0     C80319   2.537   6.979   2.801  0.1584 -0.4922 -0.6349
  609MOL0     C80320   2.648   6.987   2.758 -0.3301 -0.5618  0.5847
  609MOL0     C80321   2.009   7.422   2.484  0.3945  0.5838  0.4229
  609MOL0     C80322   1.887   7.483   2.474 -0.7275 -0.5004 -0.0843
  609MOL0     H80323   1.561   7.565   2.255  0.4540  0.2722 -0.8424
  609MOL0     H80324   1.351   7.658   2.137 -1.8380 -0.7007  1.0578
  609MOL0     H80325   1.316   7.959   2.092  2.2762  5.0897 -1.4695
  609MOL0     H80326   1.270   8.058   2.237  0.0988  1.9813 -3.9283
  609MOL0     H80327   1.035   8.035   2.175 -0.2110 -0.8492 -0.2028
  609MOL0     H80328   1.089   7.952   2.028 -2.1190 -0.4324  1.7318
  609MOL0     H80329   1.069   8.194   1.971  3.7594 -0.3123 -2.9856
  609MOL0     H80330   1.233   8.158   1.977 -0.9365 -1.2402 -0.8719
  609MOL0     H80331   1.099   8.249   2.229 -0.6129 -1.1306 -0.5620
  609MOL0     H80332   1.263   8.282   2.174  0.8005  1.9449 -1.0094
  609MOL0     H80333   1.052   8.407   2.011  0.1288 -0.1083 -0.4716
  609MOL0     H80334   1.226   8.437   2.009 -1.4649  0.4090 -1.8404
  609MOL0     H80335   1.129   8.613   2.140 -1.2513 -1.0113  0.0674
  609MOL0     H80336   1.229   8.511   2.241  1.1479 -0.3344 -1.5116
  609MOL0     H80337   0.913   8.475   2.196  2.4973 -1.5688 -3.4256
  609MOL0     H80338   1.003   8.426   2.340 -0.4042  1.7066  1.7078
  609MOL0     H80339   0.866   8.630   2.389  0.4194 -0.9597  0.3009
  609MOL0     H80340   0.938   8.707   2.241  0.1122 -1.0303 -1.4492
  609MOL0     H80341   1.174   8.529   2.504  2.8291  1.0032  0.1086
  609MOL0     H80342   1.233   8.699   2.781  3.7333 -2.7812  1.3562
  609MOL0     H80343   1.318   8.838   2.706  1.5520  0.1427  3.4854
  609MOL0     H80344   1.367   8.529   2.646 -4.3703 -0.1174  1.4391
  609MOL0     H80345   1.447   8.623   2.770 -1.5445 -0.6844 -0.2036
  609MOL0     H80346   1.446   8.734   2.478  3.2741  1.8002  0.5077
  609MOL0     H80347   1.545   8.765   2.614 -0.2443 -1.7189  1.6253
  609MOL0     H80348   1.634   8.612   2.409  2.1820 -3.6873 -0.2672
  609MOL0     H80349   1.558   8.488   2.495  0.0327 -0.3172  2.4291
  609MOL0     H80350   1.736   8.558   2.875 -0.5632  0.4525 -0.4079
  609MOL0     H80351   1.771   8.326   2.975 -0.7461 -0.8243 -0.4161
  609MOL0     H80352   1.648   7.823   2.836 -0.2183  0.5274  3.3653
  609MOL0     H80353   1.670   7.585   2.886  0.1886  0.1502 -0.4230
  609MOL0     H80354   2.082   7.458   2.906  0.8808  0.5788  1.5833
  609MOL0     H80355   1.995   7.305   2.929 -1.2219  0.2427  0.7430
  609MOL0     H80356   1.961   7.332   3.152 -1.5393  0.9913 -1.0618
  609MOL0     H80357   2.040   7.477   3.176 -2.9349  0.6712 -0.4011
  609MOL0     H80358   2.177   7.218   3.074  0.1668  0.6729 -1.5512
  609MOL0     H80359   2.209   7.297   3.226  2.1726  1.3916 -0.3630
  609MOL0     H80360   2.294   7.386   2.953  2.3416 -1.2287 -0.4718
  609MOL0     H80361   2.279   7.505   3.093 -0.2810  0.1134 -0.5521
  609MOL0     H80362   2.452   7.262   3.053  0.5395  1.1029 -0.8893
  609MOL0     H80363   2.430   7.333   3.214 -2.7600 -2.9813 -0.3888
  609MOL0     H80364   2.539   7.496   2.969 -1.1751 -1.3279  0.1700
  609MOL0     H80365   2.648   7.417   3.068  0.9822  1.9919 -2.1839
  609MOL0     H80366   2.435   7.626   3.173  1.4114  1.2501  1.2769
  609MOL0     H80367   2.570   7.562   3.264  1.4731  2.5997  0.4152
  609MOL0     H80368   2.564   7.788   3.127  1.2712 -0.7206 -0.5475
  609MOL0     H80369   2.596   7.700   2.989  0.0532 -1.5376  1.2131
  609MOL0     H80370   2.094   7.656   2.944  0.2720 -1.4684 -0.9351
  609MOL0     H80371   2.073   7.876   2.861  1.1255 -0.9674 -0.6758
  609MOL0     H80372   1.856   8.165   2.596 -0.1530 -1.9235  0.3660
  609MOL0     H80373   1.779   8.356   2.482 -0.2519 -2.9778  0.1953
  609MOL0     H80374   1.290   7.917   2.477 -0.0017 -1.1073 -0.3244
  609MOL0     H80375   1.477   7.825   2.592  1.9477  3.5948 -2.0410
  609MOL0     H80376   1.734   7.359   2.749 -1.3239  2.8255 -0.6310
  609MOL0     H80377   1.954   7.216   2.747  1.8226  0.6453 -0.6962
  609MOL0     H80378   2.149   7.058   2.540  1.9446 -1.6575  0.6541
  609MOL0     H80379   2.093   7.102   2.693  0.4982 -0.3712 -0.2770
  609MOL0     H80380   2.357   7.073   2.580  0.5453  1.4936  0.0864
  609MOL0     H80381   2.346   7.190   2.720  1.1479 -0.4011  1.7591
  609MOL0     H80382   2.262   6.899   2.722  2.8578 -2.0101 -0.3234
  609MOL0     H80383   2.202   7.021   2.838  0.3849  1.9050 -0.9293
  609MOL0     H80384   2.415   7.073   2.932 -0.2728 -1.2085  2.4591
  609MOL0     H80385   2.398   6.895   2.935  1.7967  0.3297  0.4223
  609MOL0     H80386   2.743   7.014   2.717 -1.5123 -0.3454 -2.2874
  609MOL0     H80387   2.080   7.444   2.406 -1.3995  1.4729 -1.0543
  609MOL0     H80388   1.891   7.548   2.387  1.7696  2.0578  1.7566
  610MOL0     O80389   2.354   3.205   3.561 -0.1003 -0.6255  0.4073
  610MOL0     C80390   2.312   3.311   3.609 -0.1449 -1.3847 -0.6470
  610MOL0     O80391   2.384   3.431   3.609 -0.3243  0.5634 -0.5346
  610MOL0     C80392   2.505   3.437   3.543  0.3665  0.7103  0.1111
  610MOL0     C80393   2.605   3.347   3.571 -0.6118  0.0875 -0.3483
  610MOL0     C80394   2.732   3.358   3.520  0.1861  0.2386  0.3829
  610MOL0     C80395   2.758   3.466   3.428  0.8112  0.5286 -0.7217
  610MOL0     O80396   2.866   3.481   3.353  0.4562 -0.2568  0.4734
  610MOL0     C80397   2.989   3.452   3.415 -0.0798  0.0459  0.3657
  610MOL0     C80398   3.093   3.466   3.309 -0.2664 -0.6513  0.4283
  610MOL0     C80399   3.229   3.445   3.364  0.0498 -0.9314 -0.1977
  610MOL0     C80400   3.341   3.447   3.263 -1.1197 -0.6465 -0.3808
  610MOL0     C80401   3.474   3.453   3.340 -0.2271 -0.7434 -0.3606
  610MOL0     C80402   3.574   3.379   3.258  0.9857 -0.3800 -1.3826
  610MOL0     C80403   3.720   3.376   3.314  0.7070  0.3280 -0.0322
  610MOL0     C80404   3.798   3.503   3.288  0.3348 -0.4339  1.0534
  610MOL0     N80405   3.818   3.525   3.148  0.1217 -0.3962  0.4097
  610MOL0     C80406   3.923   3.470   3.077  0.3570 -0.5742  0.2498
  610MOL0     C80407   3.907   3.519   2.953 -0.0471  0.1194  1.2388
  610MOL0     C80408   3.986   3.477   2.835 -0.9361 -0.2046 -0.6344
  610MOL0     C80409   4.140   3.500   2.849  0.0274  0.0714 -0.2249
  610MOL0     C80410   4.209   3.479   2.715 -0.3677  0.1435  0.0254
  610MOL0     C80411   4.216   3.343   2.654 -0.5003  1.0238  0.9323
  610MOL0     O80412   4.291   3.339   2.527 -0.7875  0.4710 -0.0235
  610MOL0     C80413   4.428   3.356   2.543  0.0770 -0.9916 -0.4735
  610MOL0     C80414   4.479   3.450   2.455  0.7584  0.1430 -0.8488
  610MOL0     C80415   4.610   3.496   2.456  0.3871  1.0081 -0.4993
  610MOL0     C80416   4.698   3.453   2.548 -0.5682 -0.4847 -0.2288
  610MOL0     C80417   4.842   3.504   2.558 -0.2309  0.5679 -0.1289
  610MOL0     O80418   4.930   3.450   2.646  0.4246 -0.2282  0.2756
  610MOL0     C80419   5.052   3.506   2.664  0.1243 -0.1836 -1.1332
  610MOL0     C80420   5.075   3.578   2.782  0.2615 -0.3800  0.2201
  610MOL0     C80421   5.203   3.650   2.803  0.3244 -0.0756 -0.1910
  610MOL0     C80422   5.311   3.635   2.714  1.3260 -0.8566  1.3356
  610MOL0     O80423   5.428   3.701   2.730  0.0369  0.6004 -0.1804
  610MOL0     C80424   5.548   3.666   2.661 -0.2997 -0.8431  0.1813
  610MOL0     C80425   5.610   3.795   2.604 -0.9403  0.1368  0.0400
  610MOL0     C80426   5.753   3.765   2.555 -0.0792 -0.4780 -0.5188
  610MOL0     C80427   5.825   3.892   2.512 -0.1831  0.3530 -0.1522
  610MOL0     C80428   5.956   3.846   2.442 -0.3016 -0.7063  1.2098
  610MOL0     C80429   6.025   3.962   2.371 -0.0112 -0.3267 -0.1081
  610MOL0     C80430   5.953   4.036   2.259  0.3944 -0.4641  0.1622
  610MOL0     C80431   6.034   4.150   2.205  0.0386 -0.0116  0.2189
  610MOL0    Cl80432   5.934   4.271   2.111  0.3662 -0.0456  0.4007
  610MOL0     C80433   5.283   3.549   2.597 -0.1908  0.5095 -0.8265
  610MOL0     C80434   5.152   3.494   2.572 -0.2763  0.1597  0.4857
  610MOL0     O80435   4.865   3.595   2.478 -0.5608  0.0782  0.5914
  610MOL0     C80436   4.651   3.346   2.638 -0.5071 -0.8859 -0.3178
  610MOL0     C80437   4.520   3.293   2.635 -0.9380  0.1278  0.4888
  610MOL0     N80438   3.802   3.605   2.950 -0.2153  0.6498 -0.1881
  610MOL0     N80439   3.756   3.615   3.065  0.4280  0.1066  0.1845
  610MOL0     C80440   2.656   3.561   3.400 -0.6907  0.8740  0.4529
  610MOL0     C80441   2.525   3.545   3.453 -0.6919  0.2067  0.2149
  610MOL0     C80442   2.162   3.312   3.641 -0.1205  0.1214 -0.0962
  610MOL0     C80443   2.097   3.428   3.683  0.8447 -0.1112 -0.5258
  610MOL0     C80444   1.963   3.441   3.697  0.1560 -0.6656  0.2537
  610MOL0     C80445   1.878   3.325   3.690  0.4414 -0.2591 -0.1440
  610MOL0     O80446   1.747   3.326   3.719  0.9844  0.1553  0.0393
  610MOL0     C80447   1.677   3.448   3.765 -0.3866 -0.0523  0.3199
  610MOL0     C80448   1.617   3.516   3.644 -0.3093 -0.2624  0.5820
  610MOL0     C80449   1.537   3.642   3.677 -1.7117  0.6590 -0.4630
  610MOL0     C80450   1.417   3.664   3.585 -0.7051 -0.1489 -0.0514
  610MOL0     C80451   1.435   3.684   3.445 -0.2232  0.5135 -0.3198
  610MOL0     C80452   1.466   3.722   3.332  0.7017 -0.1534 -0.8470
  610MOL0     C80453   1.945   3.204   3.658  0.3776 -0.9151 -1.3326
  610MOL0     C80454   2.084   3.191   3.643  0.9420  0.0762 -0.0756
  610MOL0     H80455   2.594   3.267   3.643 -1.6149 -1.7466 -2.4636
  610MOL0     H80456   2.807   3.286   3.549  2.2105  1.9228 -0.4276
  610MOL0     H80457   3.004   3.354   3.463  1.6480 -1.3325 -2.7060
  610MOL0     H80458   3.012   3.535   3.483  0.6113 -0.2826  0.5537
  610MOL0     H80459   3.089   3.566   3.267  0.3556 -1.2210 -1.0630
  610MOL0     H80460   3.079   3.395   3.226  1.2796 -0.4229 -0.0614
  610MOL0     H80461   3.241   3.352   3.420  2.6924 -0.9954 -0.7442
  610MOL0     H80462   3.245   3.527   3.434  0.5121  0.1204 -1.4935
  610MOL0     H80463   3.328   3.354   3.207 -1.2671 -1.0374  0.2930
  610MOL0     H80464   3.322   3.525   3.190 -2.1038 -1.5882 -1.1580
  610MOL0     H80465   3.462   3.406   3.438 -0.9824 -0.9706 -0.5602
  610MOL0     H80466   3.508   3.555   3.361 -2.5948  0.3455 -1.4867
  610MOL0     H80467   3.578   3.424   3.159  0.5856 -0.5601 -1.4819
  610MOL0     H80468   3.537   3.277   3.241  0.0944 -0.1697 -0.7637
  610MOL0     H80469   3.695   3.380   3.421  0.7896  1.0841 -0.0344
  610MOL0     H80470   3.789   3.298   3.281  0.1565  0.2275 -0.9543
  610MOL0     H80471   3.894   3.494   3.341  1.2825 -0.2730 -0.5705
  610MOL0     H80472   3.749   3.588   3.336 -0.8329 -0.5752  0.1542
  610MOL0     H80473   3.983   3.391   3.121 -1.1170 -2.3418 -0.7646
  610MOL0     H80474   3.939   3.529   2.751 -4.4804 -0.8411  0.7879
  610MOL0     H80475   3.967   3.370   2.822 -1.4323  0.0174 -1.9112
  610MOL0     H80476   4.191   3.438   2.923  3.7695  0.7625 -1.9944
  610MOL0     H80477   4.158   3.606   2.871 -1.1889  0.3114 -0.2840
  610MOL0     H80478   4.164   3.540   2.636 -0.5874 -2.0317 -1.6213
  610MOL0     H80479   4.310   3.518   2.729 -0.3842 -0.2597  1.4112
  610MOL0     H80480   4.113   3.311   2.638 -0.4670  1.2075  0.3235
  610MOL0     H80481   4.255   3.278   2.733  3.2875  0.1564 -1.3889
  610MOL0     H80482   4.407   3.497   2.390 -4.0047 -0.9508  3.0621
  610MOL0     H80483   4.647   3.573   2.389  1.6794  0.6125 -0.2728
  610MOL0     H80484   4.999   3.583   2.858  0.3871  0.8948  0.2849
  610MOL0     H80485   5.216   3.699   2.898  2.6477 -1.4329  0.2654
  610MOL0     H80486   5.543   3.585   2.588  2.0495 -0.7357 -0.1861
  610MOL0     H80487   5.624   3.630   2.731  2.3931 -0.4711 -2.3222
  610MOL0     H80488   5.603   3.881   2.671 -3.1619  0.6250 -0.7266
  610MOL0     H80489   5.539   3.826   2.527 -1.0603  1.6514  0.7334
  610MOL0     H80490   5.749   3.690   2.475  1.5670 -2.0955  0.8116
  610MOL0     H80491   5.802   3.725   2.644  1.4826  2.4864  0.0960
  610MOL0     H80492   5.754   3.951   2.453 -1.9136 -0.0544  1.4381
  610MOL0     H80493   5.865   3.951   2.595 -0.9488  0.3631  0.2170
  610MOL0     H80494   5.929   3.775   2.364  0.2013 -2.2156  2.3522
  610MOL0     H80495   6.020   3.790   2.510 -0.2241 -1.6646  0.3680
  610MOL0     H80496   6.109   3.918   2.317 -1.3780 -1.3576 -1.5248
  610MOL0     H80497   6.057   4.027   2.452 -1.5766 -1.2296  1.3042
  610MOL0     H80498   5.938   3.966   2.176  2.8457  0.2248 -0.9575
  610MOL0     H80499   5.854   4.065   2.295  1.1711 -0.4367  2.4678
  610MOL0     H80500   6.116   4.099   2.154  0.4449 -1.8958  2.5858
  610MOL0     H80501   6.086   4.212   2.278  0.8835  1.3652 -1.4785
  610MOL0     H80502   5.366   3.544   2.528  0.3115  1.8337 -0.3426
  610MOL0     H80503   5.133   3.439   2.480  1.5313  0.4927 -0.1243
  610MOL0     H80504   4.718   3.307   2.715 -1.9777 -0.3143  1.3038
  610MOL0     H80505   4.482   3.221   2.706  1.3598 -2.0697 -0.3412
  610MOL0     H80506   2.680   3.636   3.326 -2.8289  0.5998 -0.5927
  610MOL0     H80507   2.459   3.622   3.416 -0.8906  0.0252  0.1925
  610MOL0     H80508   2.157   3.518   3.685 -0.0837  0.6658 -2.8478
  610MOL0     H80509   1.937   3.542   3.729  0.8800 -0.1114 -0.8565
  610MOL0     H80510   1.735   3.519   3.825 -1.2137  1.3966 -0.5315
  610MOL0     H80511   1.586   3.418   3.817 -1.4086 -0.8316 -1.7830
  610MOL0     H80512   1.685   3.528   3.559 -2.8516 -2.8444 -2.0369
  610MOL0     H80513   1.554   3.436   3.605  1.0990 -0.8512 -0.5949
  610MOL0     H80514   1.606   3.727   3.667  0.7480 -0.6941  2.9487
  610MOL0     H80515   1.507   3.640   3.782  2.7425 -1.4376  1.0335
  610MOL0     H80516   1.343   3.585   3.603 -2.5025  1.1140 -1.5761
  610MOL0     H80517   1.370   3.760   3.607  0.9739  0.0338  3.4203
  610MOL0     H80518   1.499   3.772   3.243  0.4860 -0.1068 -0.9005
  610MOL0     H80519   1.879   3.118   3.655  1.6978 -2.4851  3.7607
  610MOL0     H80520   2.115   3.091   3.617  0.7494 -1.1488  3.8158
  611MOL0     O80521   5.328   0.230   8.013  0.3978 -0.2574  0.2204
  611MOL0     C80522   5.375   0.166   7.917  0.4324  0.5828 -0.1417
  611MOL0     O80523   5.322   0.049   7.868  0.5614  0.5232  0.5851
  611MOL0     C80524   5.200   0.005   7.911 -0.7618  0.1253  0.3337
  611MOL0     C80525   5.169  -0.011   8.046  0.0239  0.1068 -0.3279
  611MOL0     C80526   5.047  -0.063   8.097  1.1179 -0.2321  0.2702
  611MOL0     C80527   4.944  -0.104   8.006 -0.1365 -0.9951  0.7913
  611MOL0     O80528   4.828  -0.172   8.019  0.1413  0.1489  0.1398
  611MOL0     C80529   4.780  -0.158   8.156 -0.1859  0.5222  0.9078
  611MOL0     C80530   4.636  -0.230   8.160  0.4245 -0.1649 -0.3525
  611MOL0     C80531   4.557  -0.216   8.290  0.6649  0.1343  0.5223
  611MOL0     C80532   4.415  -0.293   8.282  0.2914  0.4232  1.2093
  611MOL0     C80533   4.333  -0.262   8.405  0.1916  0.2972 -0.0260
  611MOL0     C80534   4.410  -0.297   8.533 -0.3814  0.3849 -0.1196
  611MOL0     C80535   4.326  -0.224   8.645  0.2655  0.3440  0.2703
  611MOL0     C80536   4.374  -0.084   8.680 -0.1028 -0.1676  0.3501
  611MOL0     N80537   4.313  -0.039   8.805 -0.3848  1.4057 -0.0421
  611MOL0     C80538   4.357  -0.062   8.927  0.3025  0.2304  0.1099
  611MOL0     C80539   4.255  -0.006   9.011 -0.0638  0.0481 -0.4596
  611MOL0     C80540   4.254  -0.021   9.158  0.4578 -0.5415  0.1479
  611MOL0     C80541   4.163  -0.144   9.191 -0.6778  0.4145 -0.7460
  611MOL0     C80542   4.124  -0.141   9.342 -0.2093  0.5970  0.0876
  611MOL0     C80543   3.980  -0.102   9.352 -0.3297  0.1527  0.0833
  611MOL0     O80544   3.888  -0.201   9.296 -0.1363 -0.7299 -0.3104
  611MOL0     C80545   3.749  -0.172   9.290  0.1816  0.1582  0.1374
  611MOL0     C80546   3.661  -0.270   9.240 -0.0008  0.0465 -0.0661
  611MOL0     C80547   3.529  -0.236   9.209  0.7092  0.9621 -1.0874
  611MOL0     C80548   3.476  -0.110   9.245 -0.2461  0.0759  0.7113
  611MOL0     C80549   3.341  -0.067   9.197  0.1334  0.1867 -0.2407
  611MOL0     O80550   3.261  -0.163   9.159  0.6236  0.1028  0.2824
  611MOL0     C80551   3.139  -0.130   9.099  0.5803  0.2677 -0.2019
  611MOL0     C80552   3.039  -0.223   9.099  0.7524  0.8655  0.4631
  611MOL0     C80553   2.920  -0.204   9.029  0.2060 -0.0898 -0.5430
  611MOL0     C80554   2.895  -0.086   8.960 -0.4991 -0.0543  0.0244
  611MOL0     O80555   2.769  -0.071   8.901 -0.0041 -0.6282  0.8590
  611MOL0     C80556   2.761   0.043   8.815  0.2614 -0.5611  0.1456
  611MOL0     C80557   2.625   0.044   8.753  0.8594 -0.0198 -0.6590
  611MOL0     C80558   2.626   0.157   8.647  1.1160  0.4644 -0.1720
  611MOL0     C80559   2.512   0.153   8.552 -0.7136 -0.1301  0.6704
  611MOL0     C80560   2.526   0.260   8.430  0.6471  0.6414  0.4835
  611MOL0     C80561   2.472   0.396   8.467  0.0782 -0.2916 -0.1036
  611MOL0     C80562   2.468   0.490   8.345 -0.1925  0.1646  0.2836
  611MOL0     C80563   2.461   0.636   8.389  1.2234  0.5637  0.0279
  611MOL0    Cl80564   2.304   0.668   8.485  0.4051  0.1119 -0.0658
  611MOL0     C80565   3.003   0.004   8.948 -0.4661  1.1168  0.2013
  611MOL0     C80566   3.117  -0.021   9.021 -0.1140 -0.8307 -0.2500
  611MOL0     O80567   3.315   0.049   9.227 -0.8050  0.4981  0.8685
  611MOL0     C80568   3.556  -0.018   9.311  0.3004 -0.7900 -0.3379
  611MOL0     C80569   3.693  -0.050   9.327 -0.5651  1.0370  0.0312
  611MOL0     N80570   4.173   0.062   8.927  0.2120 -0.7506  0.3997
  611MOL0     N80571   4.198   0.041   8.798  0.8084  0.4220 -0.1883
  611MOL0     C80572   4.973  -0.091   7.865 -0.1703  0.1249 -0.6901
  611MOL0     C80573   5.092  -0.039   7.827 -0.0253  0.1676  0.5915
  611MOL0     C80574   5.503   0.202   7.857 -0.2195  0.0991 -0.5212
  611MOL0     C80575   5.556   0.331   7.888  0.0602 -1.1559 -0.9831
  611MOL0     C80576   5.677   0.366   7.832  0.7510  0.1326 -0.5391
  611MOL0     C80577   5.747   0.275   7.744 -0.2928 -0.6449  0.7241
  611MOL0     O80578   5.873   0.314   7.696  0.4814  1.0663 -0.1307
  611MOL0     C80579   5.988   0.231   7.725 -0.1623  0.1619 -0.8458
  611MOL0     C80580   6.051   0.163   7.607  0.1881  0.0429  0.1929
  611MOL0     C80581   6.164   0.058   7.652  2.0309 -0.7903  0.5275
  611MOL0     C80582   6.306   0.113   7.660 -0.0954  0.6725 -0.2035
  611MOL0     C80583   6.327   0.207   7.771  0.5001  0.5306  0.4259
  611MOL0     C80584   6.337   0.286   7.858  0.3501 -0.6731 -0.5098
  611MOL0     C80585   5.692   0.156   7.720  0.3371  1.1440  0.0620
  611MOL0     C80586   5.571   0.112   7.777  0.7520 -0.8887  0.4226
  611MOL0     H80587   5.247   0.018   8.116 -0.0782 -2.2959  0.8427
  611MOL0     H80588   5.014  -0.067   8.201  2.3865 -3.2723  0.6608
  611MOL0     H80589   4.779  -0.053   8.187  2.0667  3.2611 -6.1802
  611MOL0     H80590   4.850  -0.217   8.216 -3.0272 -1.5226  2.4197
  611MOL0     H80591   4.645  -0.335   8.130  0.3957  0.1407 -1.4652
  611MOL0     H80592   4.569  -0.179   8.090 -1.6850  2.3409  3.1541
  611MOL0     H80593   4.542  -0.109   8.307 -3.6118  0.2206 -2.3020
  611MOL0     H80594   4.618  -0.261   8.369  1.2237  0.7032  0.4250
  611MOL0     H80595   4.365  -0.262   8.190  0.2862 -1.4468  0.5260
  611MOL0     H80596   4.433  -0.401   8.287  0.1942  0.4208  1.5153
  611MOL0     H80597   4.245  -0.326   8.395  0.7059 -1.3552  4.1667
  611MOL0     H80598   4.300  -0.158   8.398 -2.0896 -0.3814 -0.0531
  611MOL0     H80599   4.512  -0.260   8.545  0.0910  0.0469 -2.4683
  611MOL0     H80600   4.415  -0.405   8.551 -3.4275 -0.1753 -1.8417
  611MOL0     H80601   4.217  -0.227   8.630  0.0626 -1.7308  1.7164
  611MOL0     H80602   4.335  -0.288   8.733  3.0487 -0.5156 -0.5637
  611MOL0     H80603   4.343  -0.008   8.607  0.0018  1.0372  1.5318
  611MOL0     H80604   4.484  -0.079   8.680  0.0131 -1.3325 -1.8095
  611MOL0     H80605   4.427  -0.134   8.967 -0.8291 -1.6903 -1.1717
  611MOL0     H80606   4.212   0.070   9.202  4.5668 -0.1821  4.0202
  611MOL0     H80607   4.350  -0.044   9.205  0.8519 -0.9793 -0.8481
  611MOL0     H80608   4.212  -0.234   9.153 -1.7496 -0.6476  0.2740
  611MOL0     H80609   4.070  -0.145   9.133 -1.3058 -1.6428  0.2134
  611MOL0     H80610   4.142  -0.242   9.381 -1.5616 -0.4940 -1.9171
  611MOL0     H80611   4.189  -0.075   9.401  0.4242 -0.8782  1.0947
  611MOL0     H80612   3.952  -0.009   9.301 -0.0595  1.2100  1.8127
  611MOL0     H80613   3.972  -0.081   9.459 -1.4706 -0.9121  0.2327
  611MOL0     H80614   3.709  -0.354   9.192 -2.1457 -2.0821  1.3275
  611MOL0     H80615   3.461  -0.302   9.156 -0.1601  3.8147 -3.7770
  611MOL0     H80616   3.041  -0.310   9.164 -1.3047  0.5820  0.2144
  611MOL0     H80617   2.838  -0.274   9.033  0.8778 -0.9175 -0.8851
  611MOL0     H80618   2.846   0.036   8.746  0.6862  2.3826  0.2292
  611MOL0     H80619   2.766   0.140   8.865  1.7260 -0.5785  0.0646
  611MOL0     H80620   2.549   0.072   8.827 -0.7483 -0.9775 -1.8684
  611MOL0     H80621   2.597  -0.039   8.688 -0.5182  0.0723 -0.2201
  611MOL0     H80622   2.721   0.155   8.594  1.1296  0.7783 -0.1623
  611MOL0     H80623   2.629   0.258   8.688  0.9796  1.3153 -2.1567
  611MOL0     H80624   2.510   0.053   8.506 -2.4316  1.7302 -3.8329
  611MOL0     H80625   2.420   0.166   8.609 -1.3400  0.5900 -0.4649
  611MOL0     H80626   2.460   0.236   8.347 -0.6087  1.3411  1.2506
  611MOL0     H80627   2.622   0.268   8.379  1.3380  2.3136  1.9290
  611MOL0     H80628   2.525   0.432   8.556 -0.6701 -2.4508  1.2795
  611MOL0     H80629   2.371   0.378   8.506  0.4012 -2.3204 -0.1073
  611MOL0     H80630   2.552   0.476   8.277  0.3512 -1.4047  1.2277
  611MOL0     H80631   2.370   0.468   8.303  0.5035 -0.0528 -1.2780
  611MOL0     H80632   2.478   0.699   8.301  1.0860 -2.2194 -2.1261
  611MOL0     H80633   2.541   0.650   8.462 -0.0151  1.2447  1.3160
  611MOL0     H80634   2.998   0.103   8.903 -0.9067  2.4292  2.9015
  611MOL0     H80635   3.201   0.044   8.998  1.4065 -2.9532 -1.1014
  611MOL0     H80636   3.528   0.080   9.349 -0.3479 -0.9019 -0.4997
  611MOL0     H80637   3.747   0.031   9.375 -3.0684  1.1427  3.0416
  611MOL0     H80638   4.897  -0.111   7.790 -0.5307  1.4534 -0.7100
  611MOL0     H80639   5.103  -0.023   7.721  0.6998  1.7755  0.8749
  611MOL0     H80640   5.512   0.405   7.954  0.6396 -0.6155 -1.1910
  611MOL0     H80641   5.736   0.451   7.866  0.0269  0.5134 -0.2187
  611MOL0     H80642   5.961   0.147   7.790  1.3057 -0.2719 -0.7470
  611MOL0     H80643   6.061   0.283   7.788 -2.2178  0.1140  1.7609
  611MOL0     H80644   5.980   0.100   7.553  1.5961 -1.0817 -0.4476
  611MOL0     H80645   6.096   0.243   7.547 -1.6483  1.9721  1.2813
  611MOL0     H80646   6.176  -0.016   7.571  2.2039 -3.4548  2.8392
  611MOL0     H80647   6.132  -0.005   7.735  2.4328 -0.2642  1.0905
  611MOL0     H80648   6.374   0.029   7.679 -0.5976 -0.1674 -1.9081
  611MOL0     H80649   6.342   0.165   7.571  2.8516  0.2155  0.6138
  611MOL0     H80650   6.341   0.356   7.939 -5.1256  0.2154 -0.5858
  611MOL0     H80651   5.748   0.089   7.654  0.5652  0.7534  0.6465
  611MOL0     H80652   5.538   0.010   7.762 -0.0162 -0.7138  0.8965
  612MOL0     O80653   7.110   6.903   7.165  0.6694  0.5619 -0.3755
  612MOL0     C80654   7.030   6.817   7.211 -0.1930  0.0942 -0.7382
  612MOL0     O80655   6.932   6.841   7.309 -0.2460 -0.0982  0.7552
  612MOL0     C80656   6.948   6.950   7.383 -0.3730  0.4632 -0.0330
  612MOL0     C80657   6.849   7.044   7.372  0.4712 -0.4758  0.5794
  612MOL0     C80658   6.853   7.167   7.439 -0.4736  0.3027 -0.0548
  612MOL0     C80659   6.959   7.179   7.532  0.5677 -0.4959  0.1543
  612MOL0     O80660   6.968   7.281   7.622  0.2411  0.6267 -0.1989
  612MOL0     C80661   6.898   7.407   7.594 -0.2547 -0.6584 -0.0134
  612MOL0     C80662   6.946   7.526   7.677 -0.1326 -0.1245  0.5137
  612MOL0     C80663   7.099   7.548   7.687 -1.0450 -0.1261 -0.9493
  612MOL0     C80664   7.125   7.626   7.813 -0.1569 -0.4348  0.4393
  612MOL0     C80665   7.277   7.630   7.833  0.2380  0.7710  0.0648
  612MOL0     C80666   7.350   7.498   7.831 -0.4283  0.7262 -0.1908
  612MOL0     C80667   7.495   7.498   7.874 -0.7255  0.9769  0.8300
  612MOL0     C80668   7.532   7.366   7.933  0.3913  0.2708 -0.5749
  612MOL0     N80669   7.678   7.361   7.930  0.3570 -0.0273 -0.9562
  612MOL0     C80670   7.765   7.417   8.025 -0.0488 -0.3071  0.1885
  612MOL0     C80671   7.882   7.383   7.968  0.6506 -0.4232  0.2764
  612MOL0     C80672   8.012   7.418   8.037 -0.6637  0.2085 -0.2237
  612MOL0     C80673   8.064   7.551   7.996 -0.1367  0.6354  0.0755
  612MOL0     C80674   8.212   7.586   8.029  0.1169 -0.1581 -0.2269
  612MOL0     C80675   8.251   7.733   8.019  0.1011  0.0041  1.4655
  612MOL0     O80676   8.260   7.761   7.881  0.2030  0.0918 -0.6969
  612MOL0     C80677   8.284   7.887   7.837 -1.2162  0.9737 -0.6015
  612MOL0     C80678   8.286   7.909   7.703 -0.7888  0.4343 -0.8877
  612MOL0     C80679   8.316   8.033   7.651 -0.0078  0.6521 -0.6130
  612MOL0     C80680   8.363   8.139   7.736 -0.2616  0.1895  1.0498
  612MOL0     C80681   8.395   8.270   7.678  0.6254 -0.0684 -0.3249
  612MOL0     O80682   8.435   8.368   7.765  0.4976 -0.6638  0.1772
  612MOL0     C80683   8.422   8.501   7.723  0.1505 -0.7369  0.0915
  612MOL0     C80684   8.526   8.585   7.761  0.1763 -0.2930  0.5504
  612MOL0     C80685   8.527   8.719   7.739  0.5656  1.0943 -0.3890
  612MOL0     C80686   8.419   8.785   7.665  0.1534  0.0287 -1.0645
  612MOL0     O80687   8.415   8.922   7.666 -0.1940  0.1159 -0.4455
  612MOL0     C80688   8.302   8.996   7.599 -0.3048 -0.3017 -0.8893
  612MOL0     C80689   8.216   9.064   7.712  0.4048 -0.1642  0.2670
  612MOL0     C80690   8.303   9.188   7.762  0.6960 -0.5126  0.1620
  612MOL0     C80691   8.242   9.271   7.867  0.5955 -0.0476  0.3503
  612MOL0     C80692   8.319   9.397   7.906 -0.7656  0.3601 -0.9224
  612MOL0     C80693   8.446   9.371   7.989 -0.8704  0.2233 -0.1740
  612MOL0     C80694   8.528   9.501   8.013 -1.0141  0.0110  1.4055
  612MOL0     C80695   8.652   9.498   8.093  0.7350  0.3727 -0.4923
  612MOL0    Cl80696   8.774   9.389   8.007  0.0192 -0.3266 -0.2152
  612MOL0     C80697   8.314   8.700   7.624  1.0661  1.1869 -0.6001
  612MOL0     C80698   8.326   8.553   7.645 -0.5929 -0.0096 -0.7408
  612MOL0     O80699   8.378   8.284   7.557 -0.5178 -0.5622 -0.3930
  612MOL0     C80700   8.371   8.113   7.868 -0.5135 -0.1565 -0.3504
  612MOL0     C80701   8.325   7.994   7.923 -0.5743  0.5599 -0.6115
  612MOL0     N80702   7.864   7.326   7.845 -0.4039 -0.2849  0.1958
  612MOL0     N80703   7.743   7.322   7.818  0.6203 -0.1426  0.9441
  612MOL0     C80704   7.057   7.084   7.547 -0.2541  0.4562  0.6101
  612MOL0     C80705   7.054   6.971   7.467  0.4861 -0.3725  0.9947
  612MOL0     C80706   7.037   6.685   7.154  0.6659 -0.1475  1.0333
  612MOL0     C80707   7.150   6.646   7.079 -0.0195  0.3612  0.0798
  612MOL0     C80708   7.149   6.527   7.004  0.3536  0.3315 -0.3933
  612MOL0     C80709   7.040   6.431   7.020  0.2553  0.3364  0.3378
  612MOL0     O80710   7.029   6.308   6.958  0.3974  0.0347 -0.1836
  612MOL0     C80711   7.117   6.273   6.854 -0.0681 -0.3264 -0.0130
  612MOL0     C80712   7.102   6.129   6.815  0.5707 -0.4271  0.1478
  612MOL0     C80713   7.192   6.082   6.696  0.5508  0.1208 -0.5226
  612MOL0     C80714   7.142   5.952   6.626  0.0435 -1.1503  0.0592
  612MOL0     C80715   7.145   5.840   6.724 -0.4432  0.7968  0.5146
  612MOL0     C80716   7.143   5.755   6.808  0.4968 -0.4293  0.3842
  612MOL0     C80717   6.935   6.467   7.102 -1.5612 -0.0326  1.1301
  612MOL0     C80718   6.934   6.589   7.167 -0.3021 -0.2230 -0.2166
  612MOL0     H80719   6.772   7.027   7.297  1.2219 -1.1077 -0.0801
  612MOL0     H80720   6.792   7.256   7.426 -0.1367  0.8220  1.6637
  612MOL0     H80721   6.792   7.388   7.610  0.0577 -1.9216  0.7447
  612MOL0     H80722   6.916   7.425   7.488 -2.1110  0.1148 -0.2332
  612MOL0     H80723   6.913   7.509   7.780  0.8551 -0.2215  0.8276
  612MOL0     H80724   6.905   7.623   7.649  0.6128  0.9045  2.7284
  612MOL0     H80725   7.136   7.604   7.601  1.1475  0.0809  0.0594
  612MOL0     H80726   7.160   7.457   7.683 -0.2219  0.3273  0.4383
  612MOL0     H80727   7.086   7.727   7.798 -0.2032 -0.5588 -0.3179
  612MOL0     H80728   7.084   7.574   7.900 -0.6173  2.0189  1.7882
  612MOL0     H80729   7.291   7.674   7.933  1.8916  1.1853 -0.3191
  612MOL0     H80730   7.320   7.691   7.753  0.1801 -0.4880 -0.9555
  612MOL0     H80731   7.359   7.450   7.733 -0.2392  0.0503  0.1549
  612MOL0     H80732   7.292   7.427   7.892 -1.7246 -0.1814 -2.3382
  612MOL0     H80733   7.560   7.508   7.787 -0.5869 -4.8826 -0.0943
  612MOL0     H80734   7.524   7.573   7.949  1.0171  0.4955  0.6635
  612MOL0     H80735   7.481   7.293   7.870 -2.1286  1.3243  0.1198
  612MOL0     H80736   7.491   7.358   8.034  1.5150 -2.5539 -0.2477
  612MOL0     H80737   7.752   7.473   8.117  0.6567  0.1181  0.0353
  612MOL0     H80738   8.087   7.339   8.023 -0.7640 -0.5105  2.7082
  612MOL0     H80739   7.999   7.425   8.145  0.5293  2.9012 -0.1696
  612MOL0     H80740   7.993   7.624   8.036 -0.3679 -0.3243  1.4959
  612MOL0     H80741   8.058   7.557   7.887 -0.7618 -1.5719 -0.0532
  612MOL0     H80742   8.234   7.526   8.118  4.2192 -0.8346 -1.4602
  612MOL0     H80743   8.277   7.544   7.951 -1.3594  0.1790 -1.6780
  612MOL0     H80744   8.351   7.755   8.058  0.1982  1.9087  0.2583
  612MOL0     H80745   8.178   7.801   8.063  0.8175  0.8519  1.3752
  612MOL0     H80746   8.243   7.826   7.647 -1.7830 -0.0798  0.5675
  612MOL0     H80747   8.306   8.047   7.544  1.1015  0.0666 -0.8061
  612MOL0     H80748   8.606   8.539   7.818 -0.1427  1.1113  2.2442
  612MOL0     H80749   8.618   8.774   7.762  1.9526 -1.1401 -0.1964
  612MOL0     H80750   8.232   8.934   7.542 -0.1567 -0.8842 -0.4521
  612MOL0     H80751   8.336   9.065   7.522 -0.6444 -0.1125 -0.8729
  612MOL0     H80752   8.204   8.992   7.793  2.3458 -1.3467 -0.4196
  612MOL0     H80753   8.122   9.091   7.663  0.9966 -4.6791 -4.1546
  612MOL0     H80754   8.341   9.245   7.676 -0.3494 -1.6598 -1.1038
  612MOL0     H80755   8.395   9.150   7.807  0.6590  1.4603  2.0694
  612MOL0     H80756   8.149   9.298   7.815  0.4308  0.6962  1.0302
  612MOL0     H80757   8.227   9.210   7.956  1.0494 -1.8924 -0.7754
  612MOL0     H80758   8.253   9.463   7.965  1.8736 -1.5634  4.9255
  612MOL0     H80759   8.356   9.455   7.821  1.2092 -0.2556 -0.5297
  612MOL0     H80760   8.513   9.296   7.946  1.3666  0.6713  2.2523
  612MOL0     H80761   8.416   9.326   8.084 -0.0528  1.8891  0.9410
  612MOL0     H80762   8.554   9.543   7.916 -0.1366 -2.4398  0.5197
  612MOL0     H80763   8.456   9.578   8.044 -2.4907 -1.7105  2.4522
  612MOL0     H80764   8.635   9.443   8.185  0.8945 -3.3776 -2.5077
  612MOL0     H80765   8.679   9.604   8.094 -1.0787  0.8979  1.7654
  612MOL0     H80766   8.218   8.730   7.581 -0.9636  2.0903  3.9754
  612MOL0     H80767   8.250   8.497   7.591 -1.6180  2.1262 -1.6505
  612MOL0     H80768   8.396   8.197   7.931  0.7851  0.8062 -2.0644
  612MOL0     H80769   8.333   7.986   8.031  0.8983  2.4383 -0.5361
  612MOL0     H80770   7.142   7.103   7.612 -0.0250 -1.8690  1.0759
  612MOL0     H80771   7.132   6.896   7.480  1.2851  0.1491 -0.5494
  612MOL0     H80772   7.238   6.708   7.076 -0.3983  0.9080  0.2408
  612MOL0     H80773   7.228   6.503   6.934  1.9639  1.2218  1.0517
  612MOL0     H80774   7.219   6.298   6.884  0.3758 -1.5687 -0.4107
  612MOL0     H80775   7.103   6.337   6.766  3.5997 -0.0388 -0.5720
  612MOL0     H80776   7.118   6.067   6.904  0.4895  2.0505  2.0049
  612MOL0     H80777   6.995   6.120   6.792 -0.8119  2.0113  4.4012
  612MOL0     H80778   7.287   6.058   6.745  0.3942  3.5414  1.7900
  612MOL0     H80779   7.215   6.166   6.631 -1.7160  1.2840  0.0818
  612MOL0     H80780   7.043   5.976   6.588  1.0629  0.8877 -1.4750
  612MOL0     H80781   7.194   5.935   6.531 -0.8242 -0.0856 -0.6296
  612MOL0     H80782   7.135   5.684   6.887  0.5305 -1.0709 -0.1783
  612MOL0     H80783   6.857   6.392   7.120 -1.9053  0.3173  1.1165
  612MOL0     H80784   6.846   6.623   7.220 -0.8631 -0.7663 -0.7923
  613MOL0     O80785   4.083  10.720   2.199  0.2071  0.9955 -0.3074
  613MOL0     C80786   4.071  10.836   2.176 -0.2415  0.7038 -0.6647
  613MOL0     O80787   4.159  10.909   2.108 -0.2192 -0.0738  0.8008
  613MOL0     C80788   4.266  10.865   2.026  0.2581  0.4067 -0.6147
  613MOL0     C80789   4.289  10.939   1.906 -0.9031 -0.0837 -0.2456
  613MOL0     C80790   4.396  10.901   1.825 -0.2654  0.4322  0.2155
  613MOL0     C80791   4.472  10.790   1.848 -1.3690  1.0163 -0.8144
  613MOL0     O80792   4.562  10.752   1.749  0.6039 -0.5376 -0.2979
  613MOL0     C80793   4.637  10.630   1.766 -0.8019  0.0988  0.1764
  613MOL0     C80794   4.751  10.632   1.870 -0.8015  0.3020 -0.6833
  613MOL0     C80795   4.871  10.698   1.806  0.1455  0.3617  0.3092
  613MOL0     C80796   4.999  10.686   1.889  0.3856  0.1021  0.4452
  613MOL0     C80797   5.092  10.806   1.868 -0.6472  1.4231  0.3560
  613MOL0     C80798   5.119  10.842   1.720 -0.2977 -0.0253 -0.1927
  613MOL0     C80799   5.257  10.921   1.721  0.4544 -0.3022 -0.3145
  613MOL0     C80800   5.380  10.824   1.733 -0.3273 -1.6474 -0.6928
  613MOL0     N80801   5.504  10.888   1.692  0.0213  0.2416  0.4195
  613MOL0     C80802   5.538  11.013   1.701  0.3196  0.2033  0.2250
  613MOL0     C80803   5.669  11.024   1.653  0.0481  0.8295  0.4291
  613MOL0     C80804   5.758  11.138   1.640  0.3799 -0.4336  0.0553
  613MOL0     C80805   5.712  11.219   1.522 -0.0265 -0.1988  0.6714
  613MOL0     C80806   5.810  11.341   1.498  0.3051 -0.1298 -0.0079
  613MOL0     C80807   5.789  11.464   1.578 -0.5201  0.7131  0.0634
  613MOL0     O80808   5.916  11.539   1.594  0.4525  0.6774  0.4337
  613MOL0     C80809   5.926  11.663   1.524  0.2161  1.4032  0.9797
  613MOL0     C80810   5.819  11.752   1.504  0.0153 -0.0488 -0.1284
  613MOL0     C80811   5.845  11.870   1.432  0.1919  0.1199  0.4729
  613MOL0     C80812   5.979  11.889   1.383 -0.4224 -0.3646  0.8126
  613MOL0     C80813   6.011  12.003   1.288 -0.1682 -0.5527  0.1757
  613MOL0     O80814   5.909  12.089   1.274 -0.3296 -0.6541 -0.3064
  613MOL0     C80815   5.925  12.180   1.172  0.6676 -0.2013  0.6045
  613MOL0     C80816   5.913  12.314   1.186 -0.1857  0.3628 -0.0286
  613MOL0     C80817   5.932  12.391   1.077  0.2742 -0.3216  0.1531
  613MOL0     C80818   5.960  12.354   0.950  0.7824  0.1134  0.0662
  613MOL0     O80819   5.970  12.450   0.859 -0.3694 -0.1890  0.5596
  613MOL0     C80820   6.064  12.420   0.749  1.0254 -0.4721 -0.1467
  613MOL0     C80821   6.204  12.384   0.790  0.1966  0.8306 -0.4804
  613MOL0     C80822   6.262  12.279   0.693  0.2292 -0.4161 -0.2915
  613MOL0     C80823   6.396  12.235   0.743 -0.1325  0.4664  0.1442
  613MOL0     C80824   6.465  12.133   0.645 -0.8706 -0.2444 -0.0705
  613MOL0     C80825   6.613  12.159   0.656 -0.2501 -0.7357 -0.7082
  613MOL0     C80826   6.670  12.141   0.792  0.0882  0.1860  0.1098
  613MOL0     C80827   6.711  12.271   0.880 -0.4266  1.5338 -0.5461
  613MOL0    Cl80828   6.825  12.369   0.787 -0.1800  0.4879 -0.0057
  613MOL0     C80829   5.968  12.212   0.925  0.4598  0.3849 -0.3065
  613MOL0     C80830   5.938  12.128   1.041  0.1150  0.2971 -0.1761
  613MOL0     O80831   6.127  12.016   1.241  0.8173 -0.6469 -0.8040
  613MOL0     C80832   6.080  11.794   1.409 -0.0355 -0.0650 -0.6542
  613MOL0     C80833   6.055  11.674   1.480  0.2606  0.4743 -0.1146
  613MOL0     N80834   5.696  10.891   1.603  0.7584  1.6468 -0.2957
  613MOL0     N80835   5.593  10.818   1.625 -0.5648  0.0952  1.3942
  613MOL0     C80836   4.441  10.719   1.964  0.0882 -0.3030 -0.7093
  613MOL0     C80837   4.351  10.764   2.056 -0.5525  0.0550  0.5327
  613MOL0     C80838   3.955  10.915   2.229 -0.3363 -0.3256 -0.0552
  613MOL0     C80839   3.823  10.865   2.248 -0.8326 -0.0025 -0.4685
  613MOL0     C80840   3.721  10.940   2.299  0.4232  0.1663 -0.6459
  613MOL0     C80841   3.730  11.070   2.327  0.9046 -0.0110 -0.1255
  613MOL0     O80842   3.619  11.127   2.386 -0.9782 -0.8599 -0.3589
  613MOL0     C80843   3.605  11.276   2.364 -0.0093  0.4294  0.7389
  613MOL0     C80844   3.642  11.362   2.481  0.2557  0.1318 -0.0555
  613MOL0     C80845   3.586  11.297   2.606 -0.6005  0.2620  0.2895
  613MOL0     C80846   3.589  11.381   2.733  0.1776 -0.1241  1.0852
  613MOL0     C80847   3.476  11.481   2.730 -0.7109  0.6964 -1.2978
  613MOL0     C80848   3.401  11.576   2.729  0.7878 -0.2201 -0.0898
  613MOL0     C80849   3.863  11.127   2.317  0.3624 -0.2913 -0.2445
  613MOL0     C80850   3.972  11.053   2.265 -0.1946  0.6376 -0.3668
  613MOL0     H80851   4.228  11.023   1.874  0.8935  0.5981 -2.1212
  613MOL0     H80852   4.395  10.961   1.735 -2.7379 -0.8112 -0.6912
  613MOL0     H80853   4.688  10.592   1.677  0.2937  2.6118 -0.3372
  613MOL0     H80854   4.564  10.555   1.797 -1.1901  0.9605  1.4611
  613MOL0     H80855   4.787  10.532   1.898  1.4164  0.3748 -2.9107
  613MOL0     H80856   4.711  10.696   1.949  1.3285  1.1869 -0.2624
  613MOL0     H80857   4.843  10.803   1.819 -0.0636 -0.0517  5.3995
  613MOL0     H80858   4.880  10.667   1.702 -0.9528 -0.3954  0.4178
  613MOL0     H80859   4.975  10.696   1.995  2.3115  1.5368  0.8043
  613MOL0     H80860   5.044  10.587   1.879  0.4980 -0.1547  2.9066
  613MOL0     H80861   5.192  10.778   1.901 -0.1398 -0.5704 -2.4727
  613MOL0     H80862   5.053  10.892   1.923 -1.7771  0.4166  1.1977
  613MOL0     H80863   5.042  10.905   1.674  0.5126  0.8694 -0.3774
  613MOL0     H80864   5.130  10.750   1.661  2.2436 -0.1234  0.3244
  613MOL0     H80865   5.256  10.991   1.637 -0.0302  0.9973  0.7386
  613MOL0     H80866   5.255  10.988   1.807  1.9700 -0.1683 -0.3597
  613MOL0     H80867   5.367  10.742   1.662 -1.3663 -1.6719 -0.4805
  613MOL0     H80868   5.392  10.791   1.837 -2.3814 -1.1331 -0.2632
  613MOL0     H80869   5.469  11.095   1.720  0.1172 -0.2239  1.3728
  613MOL0     H80870   5.851  11.095   1.603 -0.0803 -1.5994  0.2230
  613MOL0     H80871   5.790  11.195   1.728  2.3319 -0.1391 -0.7922
  613MOL0     H80872   5.609  11.250   1.539 -0.3622 -0.9714  0.1234
  613MOL0     H80873   5.706  11.157   1.431  1.2336  1.2533 -0.4516
  613MOL0     H80874   5.914  11.311   1.516  0.6556  1.0373 -0.0391
  613MOL0     H80875   5.802  11.369   1.393  1.4573  0.6722  0.0963
  613MOL0     H80876   5.753  11.439   1.678 -1.8594  1.2658 -0.2666
  613MOL0     H80877   5.707  11.525   1.538 -1.9841 -0.4696  1.1296
  613MOL0     H80878   5.717  11.731   1.535 -0.0339  0.4141  0.0324
  613MOL0     H80879   5.760  11.930   1.399  1.4386  0.9683 -1.3975
  613MOL0     H80880   5.895  12.342   1.289  3.3268 -1.2789  1.1974
  613MOL0     H80881   5.927  12.499   1.088  0.8529 -0.1543 -1.0052
  613MOL0     H80882   6.065  12.503   0.677  2.6155 -0.6708 -0.3989
  613MOL0     H80883   6.026  12.339   0.686  3.4693 -1.3414 -0.6243
  613MOL0     H80884   6.196  12.342   0.891 -1.6618  0.1396 -0.8629
  613MOL0     H80885   6.253  12.481   0.793 -1.0187  1.4550 -0.1669
  613MOL0     H80886   6.265  12.325   0.594 -0.9276  2.5273  0.9424
  613MOL0     H80887   6.201  12.188   0.685 -0.0942 -0.2874  0.5157
  613MOL0     H80888   6.457  12.324   0.763 -0.5848  0.9691 -0.6592
  613MOL0     H80889   6.383  12.176   0.834  2.4275 -0.9998 -0.3348
  613MOL0     H80890   6.427  12.149   0.544  1.3895  1.0275 -0.7805
  613MOL0     H80891   6.435  12.031   0.671  0.4111 -0.3636  1.1009
  613MOL0     H80892   6.635  12.266   0.648 -0.7017 -0.2534  2.8682
  613MOL0     H80893   6.677  12.093   0.597  0.1505 -2.3784  1.4292
  613MOL0     H80894   6.599  12.084   0.852  0.2147  1.7047  1.7844
  613MOL0     H80895   6.764  12.086   0.778  1.5049  2.0690  1.5593
  613MOL0     H80896   6.769  12.241   0.967 -0.8948  0.3243 -0.6312
  613MOL0     H80897   6.623  12.324   0.917 -0.7262 -1.5954  3.9897
  613MOL0     H80898   5.983  12.168   0.827  2.7268 -1.5286  0.7990
  613MOL0     H80899   5.933  12.020   1.031 -2.5579  0.3923 -0.4714
  613MOL0     H80900   6.185  11.817   1.392  0.0739  1.0818  1.2442
  613MOL0     H80901   6.131  11.606   1.515 -0.5209 -0.5852 -0.3950
  613MOL0     H80902   4.483  10.621   1.986 -0.8529 -0.0583  2.8029
  613MOL0     H80903   4.329  10.729   2.156 -1.1047 -1.1041  0.0238
  613MOL0     H80904   3.807  10.758   2.238 -1.4097 -0.1927  1.9037
  613MOL0     H80905   3.628  10.886   2.314  1.5792 -1.5853  0.5440
  613MOL0     H80906   3.501  11.303   2.345  0.1604 -0.0280 -1.0107
  613MOL0     H80907   3.662  11.311   2.278  1.6067 -1.4989  0.9544
  613MOL0     H80908   3.751  11.368   2.473  0.6343 -1.9228  2.2500
  613MOL0     H80909   3.586  11.453   2.461 -3.6849 -0.9372  4.1915
  613MOL0     H80910   3.649  11.210   2.630  1.5617  0.6739 -3.1608
  613MOL0     H80911   3.482  11.267   2.589 -0.3009  1.1713 -4.5535
  613MOL0     H80912   3.579  11.328   2.828  3.4637  0.6029  1.9679
  613MOL0     H80913   3.683  11.436   2.749 -0.1008  0.3327  1.1727
  613MOL0     H80914   3.351  11.666   2.698 -4.0406 -3.9646 -5.3436
  613MOL0     H80915   3.895  11.228   2.338  2.6361 -0.4255 -2.6016
  613MOL0     H80916   4.068  11.103   2.255  1.5370 -2.7695 -2.9134
  614MOL0     O80917   5.584   1.142   5.120  0.2893 -0.7027 -0.2185
  614MOL0     C80918   5.592   1.139   5.238 -0.6938  0.2034 -0.6082
  614MOL0     O80919   5.698   1.095   5.317 -0.3858  0.3772 -0.3900
  614MOL0     C80920   5.832   1.085   5.291  0.0164 -0.0219 -0.7332
  614MOL0     C80921   5.910   1.046   5.402  0.8031 -0.2011 -0.1632
  614MOL0     C80922   6.049   1.060   5.395 -0.0901  0.2772 -0.3026
  614MOL0     C80923   6.122   1.103   5.279  0.4833 -0.2222  0.1807
  614MOL0     O80924   6.250   1.129   5.262  0.1640  0.7903  0.0920
  614MOL0     C80925   6.331   1.020   5.296 -0.2179  0.2412 -0.0789
  614MOL0     C80926   6.389   0.968   5.164  0.3446 -0.0033 -0.6419
  614MOL0     C80927   6.452   0.825   5.170 -0.1772 -0.1567 -1.4959
  614MOL0     C80928   6.570   0.826   5.275  0.9764 -0.4638  0.1295
  614MOL0     C80929   6.629   0.682   5.309  0.8421 -0.2961 -0.2934
  614MOL0     C80930   6.700   0.612   5.195  1.3729  0.0638 -0.1714
  614MOL0     C80931   6.814   0.521   5.252  0.6509 -0.6059  0.0299
  614MOL0     C80932   6.946   0.594   5.270 -0.3119  0.1210  0.0799
  614MOL0     N80933   7.039   0.616   5.154 -0.1107  0.7802  0.0962
  614MOL0     C80934   7.176   0.636   5.165 -0.0796  0.1316 -0.3363
  614MOL0     C80935   7.221   0.635   5.039 -0.1478  0.6117 -0.2351
  614MOL0     C80936   7.365   0.641   5.003 -0.4832  0.2321  0.5254
  614MOL0     C80937   7.465   0.547   5.068 -0.0307  0.0231  0.0369
  614MOL0     C80938   7.414   0.402   5.071  0.2378 -1.2065 -0.2697
  614MOL0     C80939   7.505   0.321   5.146  0.9872  0.0046 -0.6054
  614MOL0     O80940   7.648   0.312   5.087 -0.2812 -0.4150  0.0888
  614MOL0     C80941   7.660   0.245   4.972  0.3356 -0.4371  1.3107
  614MOL0     C80942   7.622   0.125   4.952  0.2350 -0.3291  0.1553
  614MOL0     C80943   7.651   0.052   4.838  0.2113 -0.6570 -0.7956
  614MOL0     C80944   7.723   0.117   4.735 -0.1345 -0.3053  0.0572
  614MOL0     C80945   7.760   0.044   4.612 -0.5416 -0.0897 -1.1783
  614MOL0     O80946   7.759  -0.085   4.618 -0.2527 -0.3894 -0.6134
  614MOL0     C80947   7.824  -0.150   4.513 -0.0724 -0.9220 -0.6274
  614MOL0     C80948   7.746  -0.235   4.446  0.0954  0.5387  0.6324
  614MOL0     C80949   7.793  -0.307   4.331  0.6765  0.2443 -0.5901
  614MOL0     C80950   7.929  -0.302   4.295  0.5748 -0.1173 -0.3705
  614MOL0     O80951   7.990  -0.375   4.197 -0.2799  0.2930  0.0301
  614MOL0     C80952   7.918  -0.412   4.081  0.9401 -0.1399 -0.5484
  614MOL0     C80953   7.973  -0.540   4.020 -0.5714 -0.5343  0.4235
  614MOL0     C80954   7.900  -0.576   3.891 -0.1904  0.5261  0.3448
  614MOL0     C80955   7.967  -0.688   3.821  0.7361  0.0459  0.2484
  614MOL0     C80956   7.867  -0.742   3.721 -0.5765  0.7093 -0.1127
  614MOL0     C80957   7.925  -0.874   3.656 -0.5400 -0.2543  0.3276
  614MOL0     C80958   7.852  -0.919   3.536  0.4561  0.4475 -0.2992
  614MOL0     C80959   7.702  -0.901   3.540 -0.0440  0.3356 -0.5243
  614MOL0    Cl80960   7.621  -1.006   3.653 -0.2059 -0.3752  0.3992
  614MOL0     C80961   8.008  -0.229   4.376  0.1838 -0.3100 -0.5151
  614MOL0     C80962   7.960  -0.152   4.482 -0.1761  0.8511  0.7912
  614MOL0     O80963   7.805   0.108   4.521 -0.1267 -0.6569  0.2221
  614MOL0     C80964   7.753   0.258   4.754 -0.1214  0.4718 -0.3369
  614MOL0     C80965   7.727   0.316   4.871  1.7584 -0.8395  0.5882
  614MOL0     N80966   7.118   0.610   4.957  0.0019  0.2621  0.0750
  614MOL0     N80967   7.007   0.608   5.020  0.0554 -0.0884 -0.9235
  614MOL0     C80968   6.040   1.132   5.166  0.0667 -0.4159 -0.1317
  614MOL0     C80969   5.899   1.127   5.171 -0.5012  0.6341 -0.2903
  614MOL0     C80970   5.464   1.177   5.309 -0.3289 -0.2370 -0.6644
  614MOL0     C80971   5.440   1.153   5.448  0.6641  0.7088 -0.4307
  614MOL0     C80972   5.332   1.213   5.521 -0.8417 -0.0080 -0.7047
  614MOL0     C80973   5.233   1.269   5.451  0.3802 -0.2736  0.6076
  614MOL0     O80974   5.122   1.321   5.511 -0.8009  0.3020 -0.7018
  614MOL0     C80975   5.012   1.370   5.438  0.5974 -0.4750  1.3138
  614MOL0     C80976   5.047   1.509   5.383  0.8622  0.3414 -0.3427
  614MOL0     C80977   4.925   1.570   5.323  0.3517 -0.0323  0.0542
  614MOL0     C80978   4.826   1.613   5.429 -0.3206  0.6574  0.4027
  614MOL0     C80979   4.893   1.712   5.517 -0.7496  1.3531 -0.6729
  614MOL0     C80980   4.956   1.776   5.601  0.2240 -0.5629 -0.0016
  614MOL0     C80981   5.243   1.272   5.311 -0.7805 -0.3930 -0.1082
  614MOL0     C80982   5.364   1.247   5.252 -0.3046  0.8103  0.1634
  614MOL0     H80983   5.867   1.011   5.495 -1.9568 -1.4988 -1.8025
  614MOL0     H80984   6.108   1.029   5.481 -0.3677 -3.7474 -1.3727
  614MOL0     H80985   6.270   0.942   5.341 -2.3974  2.1453  0.4422
  614MOL0     H80986   6.402   1.056   5.371  3.1041 -0.8241 -2.4387
  614MOL0     H80987   6.465   1.040   5.132  1.4993 -1.2834 -0.8404
  614MOL0     H80988   6.305   0.957   5.095  0.0384  0.4248 -0.3480
  614MOL0     H80989   6.494   0.798   5.073  4.4761 -0.4607  0.3797
  614MOL0     H80990   6.380   0.746   5.195  0.6308  0.0413  1.8584
  614MOL0     H80991   6.658   0.884   5.248  1.9335 -1.3805  1.1808
  614MOL0     H80992   6.532   0.870   5.368  0.9259  2.0042 -0.9758
  614MOL0     H80993   6.544   0.617   5.329  0.5611  0.2579  0.3343
  614MOL0     H80994   6.697   0.681   5.394 -1.2247  3.2385  1.6638
  614MOL0     H80995   6.740   0.693   5.133 -0.3305  1.2360  0.1833
  614MOL0     H80996   6.641   0.554   5.124  3.1687 -3.5974  1.0807
  614MOL0     H80997   6.791   0.478   5.350  2.7955  2.1148  1.8722
  614MOL0     H80998   6.832   0.443   5.177  1.7921  0.1434 -0.5105
  614MOL0     H80999   6.993   0.562   5.364 -3.0672 -1.7339  0.9305
  614MOL0     H81000   6.920   0.694   5.307 -2.8924 -0.7854  0.9046
  614MOL0     H81001   7.233   0.663   5.253  0.1778 -1.6449  0.0841
  614MOL0     H81002   7.401   0.744   5.012 -2.1900  1.3760 -3.5644
  614MOL0     H81003   7.371   0.617   4.896 -3.6413 -1.9042  0.6871
  614MOL0     H81004   7.464   0.571   5.175 -1.4538  0.5304 -0.0672
  614MOL0     H81005   7.567   0.555   5.029  1.4180 -2.7576  2.8448
  614MOL0     H81006   7.324   0.403   5.132  1.8368 -1.2720  2.2429
  614MOL0     H81007   7.389   0.360   4.973  0.7273 -0.0282 -0.9304
  614MOL0     H81008   7.463   0.221   5.158 -0.3657  0.7941  1.9424
  614MOL0     H81009   7.509   0.356   5.250 -0.8138  2.6637 -1.3571
  614MOL0     H81010   7.578   0.072   5.036 -0.4463 -1.1750 -0.7213
  614MOL0     H81011   7.628  -0.053   4.828 -1.4421 -0.3643 -0.4192
  614MOL0     H81012   7.638  -0.235   4.461 -0.0262 -3.0637  0.4734
  614MOL0     H81013   7.719  -0.371   4.283  0.7974  2.7382 -4.5320
  614MOL0     H81014   7.924  -0.327   4.012  0.0602 -1.2467 -2.0501
  614MOL0     H81015   7.814  -0.437   4.106  1.6472 -0.9419  1.8686
  614MOL0     H81016   7.976  -0.617   4.098 -0.1271 -0.7833  0.1678
  614MOL0     H81017   8.077  -0.508   4.005 -0.5770  0.8036  2.7707
  614MOL0     H81018   7.887  -0.500   3.813  0.1816  0.2345 -0.0100
  614MOL0     H81019   7.799  -0.608   3.918  0.3959 -4.2320 -1.9806
  614MOL0     H81020   8.056  -0.648   3.772  1.4782  1.8644  2.8133
  614MOL0     H81021   7.996  -0.777   3.879  4.2813  1.6172  1.1764
  614MOL0     H81022   7.872  -0.664   3.644  2.0237  0.3503 -0.4078
  614MOL0     H81023   7.765  -0.745   3.761 -0.2489 -2.1629  0.7617
  614MOL0     H81024   7.937  -0.958   3.725  0.8888 -1.0019 -0.7695
  614MOL0     H81025   8.023  -0.849   3.613 -0.6658  0.9895  0.7239
  614MOL0     H81026   7.880  -0.868   3.443 -0.6622  1.7084  0.0237
  614MOL0     H81027   7.870  -1.027   3.530  1.4146  0.6390 -0.9725
  614MOL0     H81028   7.679  -0.935   3.438  0.1728  0.2981 -0.5615
  614MOL0     H81029   7.666  -0.799   3.554  2.8680  1.6324 -1.6287
  614MOL0     H81030   8.115  -0.230   4.355  0.7253  3.7117  1.1212
  614MOL0     H81031   8.029  -0.094   4.541  0.9862  0.6347 -0.3184
  614MOL0     H81032   7.803   0.308   4.672 -1.2576 -3.4763 -3.7663
  614MOL0     H81033   7.760   0.418   4.886  0.2505  0.1637 -2.0922
  614MOL0     H81034   6.088   1.153   5.071  0.0511 -2.0381 -0.5321
  614MOL0     H81035   5.835   1.161   5.090  0.5703  0.3568 -1.2697
  614MOL0     H81036   5.506   1.088   5.504  1.4109 -0.0820 -2.1513
  614MOL0     H81037   5.316   1.202   5.628 -6.7259  4.1839 -0.6607
  614MOL0     H81038   4.916   1.352   5.487  0.0643  0.1172  0.5147
  614MOL0     H81039   4.997   1.311   5.347  0.1403 -2.5676  2.6887
  614MOL0     H81040   5.077   1.564   5.474 -1.4409 -0.6619  1.1227
  614MOL0     H81041   5.120   1.510   5.303 -0.6058 -1.0561 -1.7737
  614MOL0     H81042   4.876   1.510   5.246  0.6769  2.2993 -2.1010
  614MOL0     H81043   4.965   1.661   5.278 -2.4408  0.5268 -1.4864
  614MOL0     H81044   4.747   1.672   5.382 -1.0249  1.2702  2.2667
  614MOL0     H81045   4.778   1.531   5.484  0.5195  0.6863  1.1956
  614MOL0     H81046   5.008   1.834   5.675 -0.5093  0.8796 -0.5759
  614MOL0     H81047   5.155   1.297   5.253 -1.3772  0.3811  1.0839
  614MOL0     H81048   5.378   1.259   5.145  0.6004  0.6669  0.2592
  615MOL0     O81049   2.326   6.675   0.634 -0.3790 -1.1726 -0.7797
  615MOL0     C81050   2.409   6.589   0.620 -0.4722  0.1119 -0.3658
  615MOL0     O81051   2.415   6.502   0.514 -0.4981  0.1309 -0.8413
  615MOL0     C81052   2.317   6.500   0.414  0.8734  0.7352 -0.7619
  615MOL0     C81053   2.190   6.455   0.449  1.2846  0.3175 -0.1227
  615MOL0     C81054   2.084   6.462   0.357 -0.2279 -0.6886 -0.3277
  615MOL0     C81055   2.109   6.503   0.226 -0.3183  1.0394 -0.0476
  615MOL0     O81056   2.019   6.508   0.122  0.3407  0.0393  0.0453
  615MOL0     C81057   1.925   6.401   0.106  0.3195  0.0376 -0.1726
  615MOL0     C81058   1.826   6.433   0.005  0.2160  0.2040  1.0514
  615MOL0     C81059   1.733   6.545   0.040 -0.0500  0.2885  0.9881
  615MOL0     C81060   1.791   6.683   0.020 -0.5502 -0.7606 -1.3402
  615MOL0     C81061   1.703   6.789   0.081 -1.1666  0.0688 -0.7931
  615MOL0     C81062   1.763   6.933   0.059 -0.1602  0.8299  0.1832
  615MOL0     C81063   1.662   7.042   0.069 -0.2410 -0.0010  0.5207
  615MOL0     C81064   1.699   7.163  -0.021  1.1066 -0.2648  0.1335
  615MOL0     N81065   1.840   7.204  -0.028 -0.3498 -0.4592  0.2175
  615MOL0     C81066   1.940   7.130  -0.089  1.4712  0.0784  0.1598
  615MOL0     C81067   2.058   7.194  -0.062 -1.2303  0.0717 -0.8840
  615MOL0     C81068   2.200   7.145  -0.101 -0.9603 -0.0271 -1.0570
  615MOL0     C81069   2.201   6.983  -0.125 -0.1617  0.0777 -0.3896
  615MOL0     C81070   2.165   6.892  -0.008  0.2055  1.1133  0.9128
  615MOL0     C81071   2.240   6.919   0.124  0.6814 -0.2399  0.2357
  615MOL0     O81072   2.385   6.911   0.119  0.4664 -0.7733  1.0943
  615MOL0     C81073   2.442   6.904   0.243 -0.7545 -0.3602 -0.8896
  615MOL0     C81074   2.377   6.900   0.373  0.3595 -0.7053  0.0486
  615MOL0     C81075   2.454   6.911   0.491 -1.3604 -0.1904 -0.6950
  615MOL0     C81076   2.586   6.936   0.482 -0.1243  0.6065 -0.8805
  615MOL0     C81077   2.658   6.985   0.605  1.2897  0.1732  0.8726
  615MOL0     O81078   2.594   7.021   0.721 -0.3345 -0.3798 -0.2237
  615MOL0     C81079   2.669   7.073   0.829  0.2209  0.9753  0.1644
  615MOL0     C81080   2.731   6.973   0.907 -0.2462 -0.5334  0.2120
  615MOL0     C81081   2.816   7.007   1.008 -0.1911  0.4411 -0.1340
  615MOL0     C81082   2.823   7.141   1.051 -0.5261  0.4969 -0.0631
  615MOL0     O81083   2.897   7.169   1.169 -0.0062 -0.0570  0.5249
  615MOL0     C81084   2.979   7.285   1.159  0.0709  1.7217  0.0997
  615MOL0     C81085   3.110   7.262   1.242  1.0825  1.1739  0.5125
  615MOL0     C81086   3.221   7.368   1.207 -0.3417 -0.6809  0.8595
  615MOL0     C81087   3.339   7.323   1.297  0.7199 -0.0096  0.2762
  615MOL0     C81088   3.452   7.430   1.276 -0.0664  0.8084  0.3159
  615MOL0     C81089   3.419   7.567   1.332 -0.3325  0.9990 -0.5046
  615MOL0     C81090   3.547   7.618   1.387 -0.8127 -0.3111 -0.5109
  615MOL0     C81091   3.525   7.764   1.424 -0.2655  0.1224  0.1156
  615MOL0    Cl81092   3.687   7.842   1.468  0.5212  0.3949 -0.0974
  615MOL0     C81093   2.752   7.240   0.991 -0.0937  0.1935 -0.8590
  615MOL0     C81094   2.696   7.206   0.864  1.4283  0.3086  0.5250
  615MOL0     O81095   2.779   6.960   0.596 -0.1280 -0.2113  0.1703
  615MOL0     C81096   2.655   6.914   0.363  0.4900 -0.4389 -0.0635
  615MOL0     C81097   2.583   6.899   0.237 -0.2217  0.6424 -0.2349
  615MOL0     N81098   2.025   7.293   0.025 -0.4164 -0.4534 -0.1976
  615MOL0     N81099   1.900   7.309   0.040 -0.3754  0.5875 -0.5609
  615MOL0     C81100   2.243   6.537   0.194  0.7520  0.5463  0.7936
  615MOL0     C81101   2.342   6.535   0.287 -0.1137 -0.0044 -0.2450
  615MOL0     C81102   2.511   6.579   0.729 -0.3103  0.1854 -0.5129
  615MOL0     C81103   2.514   6.677   0.830  0.5011  0.7492 -0.6082
  615MOL0     C81104   2.611   6.655   0.935 -0.0485  0.5552 -0.3992
  615MOL0     C81105   2.677   6.533   0.948 -0.0571 -0.0201 -0.0739
  615MOL0     O81106   2.753   6.513   1.063 -0.4257 -0.4079  0.3184
  615MOL0     C81107   2.888   6.491   1.039 -0.8222  0.4603  0.7624
  615MOL0     C81108   2.988   6.525   1.150  0.0643 -0.3169  0.5043
  615MOL0     C81109   2.978   6.674   1.201 -0.1985  0.3364 -0.0244
  615MOL0     C81110   3.064   6.684   1.327 -0.2478  0.7329 -0.6465
  615MOL0     C81111   2.980   6.630   1.443 -0.0013  0.8220 -0.5188
  615MOL0     C81112   2.934   6.583   1.543  0.0553  0.2128 -0.6648
  615MOL0     C81113   2.673   6.438   0.851 -0.1240 -0.6454  0.3250
  615MOL0     C81114   2.597   6.463   0.739 -0.0246  0.0046  0.2492
  615MOL0     H81115   2.160   6.430   0.550 -0.1185  3.1272  0.2623
  615MOL0     H81116   1.985   6.432   0.390  0.5908 -2.6848  0.5092
  615MOL0     H81117   1.880   6.375   0.202  1.1699  0.9334  0.4883
  615MOL0     H81118   1.984   6.324   0.056  0.4224 -0.2433  0.3787
  615MOL0     H81119   1.772   6.340  -0.016  0.8685  0.3892 -1.8840
  615MOL0     H81120   1.881   6.453  -0.087  1.3850 -1.6333  1.2929
  615MOL0     H81121   1.688   6.539   0.140  1.0900 -1.5607  1.4359
  615MOL0     H81122   1.650   6.527  -0.028  2.1163 -3.5970 -0.9518
  615MOL0     H81123   1.879   6.700   0.083 -0.6244  1.1079 -1.6765
  615MOL0     H81124   1.819   6.700  -0.085 -0.8368 -0.3094 -1.3455
  615MOL0     H81125   1.714   6.772   0.189  1.6587  1.1138 -0.8361
  615MOL0     H81126   1.606   6.773   0.032 -0.5164 -1.9951 -1.4885
  615MOL0     H81127   1.805   6.931  -0.041 -0.2791 -0.7081  0.1322
  615MOL0     H81128   1.844   6.953   0.130  0.6287  1.9669 -1.0039
  615MOL0     H81129   1.562   7.007   0.043 -1.3029  1.1011  2.8722
  615MOL0     H81130   1.652   7.078   0.171 -1.3523  2.8032 -0.4683
  615MOL0     H81131   1.639   7.254  -0.012  1.2682  0.4970 -4.2900
  615MOL0     H81132   1.680   7.135  -0.125  0.6491 -4.3273  1.1514
  615MOL0     H81133   1.921   7.046  -0.154 -1.6104 -0.0655  1.0845
  615MOL0     H81134   2.270   7.169  -0.020 -1.4515 -2.1973  0.0973
  615MOL0     H81135   2.245   7.186  -0.192  2.9217 -0.6407  0.3663
  615MOL0     H81136   2.302   6.958  -0.160 -1.0121 -3.1788 -0.8748
  615MOL0     H81137   2.132   6.955  -0.205 -0.1672 -0.3604 -0.2313
  615MOL0     H81138   2.058   6.901   0.014 -0.2560 -0.8022 -0.3161
  615MOL0     H81139   2.191   6.788  -0.028  4.3298  1.8383  1.4751
  615MOL0     H81140   2.190   6.852   0.194 -0.5205  0.6847  0.3024
  615MOL0     H81141   2.214   7.019   0.160  0.0665 -0.4980  0.5169
  615MOL0     H81142   2.269   6.890   0.383  0.6436 -2.1925  2.1629
  615MOL0     H81143   2.404   6.921   0.586  1.6994  2.0572  0.8601
  615MOL0     H81144   2.707   6.869   0.887 -1.9973 -0.1732  0.2320
  615MOL0     H81145   2.871   6.923   1.051 -1.0510 -0.0179  0.0815
  615MOL0     H81146   2.922   7.369   1.202  0.0237  1.4910  0.4970
  615MOL0     H81147   3.002   7.299   1.053  0.1439  1.1079  0.0328
  615MOL0     H81148   3.146   7.164   1.211 -2.1939  0.1636 -0.5310
  615MOL0     H81149   3.097   7.259   1.351  1.9849  0.6269  0.6119
  615MOL0     H81150   3.179   7.464   1.237 -0.1660 -1.5346  4.2780
  615MOL0     H81151   3.247   7.368   1.101 -0.9794  2.8996  0.5929
  615MOL0     H81152   3.312   7.325   1.403  0.4164  5.7382  0.4104
  615MOL0     H81153   3.367   7.220   1.275 -1.4254 -0.5873  0.0334
  615MOL0     H81154   3.465   7.432   1.168 -2.9149  1.7285 -0.0855
  615MOL0     H81155   3.543   7.407   1.333 -0.2735  1.7857  1.0724
  615MOL0     H81156   3.357   7.560   1.422  2.3599  1.2625  1.4588
  615MOL0     H81157   3.365   7.632   1.261  1.9679  0.0380 -3.3465
  615MOL0     H81158   3.564   7.570   1.483  0.9181  3.2495  1.1747
  615MOL0     H81159   3.635   7.605   1.323 -0.4085 -1.2004  0.2140
  615MOL0     H81160   3.456   7.769   1.509 -1.3568 -0.7735 -0.6791
  615MOL0     H81161   3.484   7.817   1.338  0.7165  2.2940  0.9071
  615MOL0     H81162   2.766   7.341   1.028  0.2876  0.1939 -0.9956
  615MOL0     H81163   2.667   7.294   0.808  1.0975  0.0336  0.2601
  615MOL0     H81164   2.764   6.913   0.358  0.5033  0.9279 -0.3805
  615MOL0     H81165   2.629   6.880   0.140 -2.1218  1.9298 -1.4489
  615MOL0     H81166   2.246   6.575   0.093 -2.3949  0.6945  0.6479
  615MOL0     H81167   2.440   6.582   0.277 -0.1667  0.7570  2.1731
  615MOL0     H81168   2.458   6.770   0.820 -1.4131 -0.4562 -1.6698
  615MOL0     H81169   2.608   6.718   1.024  2.9471 -2.5793  2.2070
  615MOL0     H81170   2.923   6.537   0.947  1.5856 -4.2568 -1.0225
  615MOL0     H81171   2.906   6.384   1.021  4.4500  0.9745  1.4175
  615MOL0     H81172   2.980   6.454   1.232  1.5078  0.7388  1.6147
  615MOL0     H81173   3.087   6.512   1.106 -0.6686 -0.6752 -1.1369
  615MOL0     H81174   2.878   6.707   1.230  0.9476  1.9144  2.4449
  615MOL0     H81175   3.017   6.752   1.136 -0.5713 -0.1094 -0.8004
  615MOL0     H81176   3.170   6.659   1.318 -0.6291 -0.6404 -1.8538
  615MOL0     H81177   3.075   6.789   1.354  1.0680  0.6022 -0.6069
  615MOL0     H81178   2.892   6.531   1.627 -0.7097 -1.2354 -1.8958
  615MOL0     H81179   2.737   6.350   0.859 -1.2681 -1.5742 -0.3186
  615MOL0     H81180   2.616   6.399   0.654  2.6134  0.6002  0.2926
  616MOL0     O81181   8.014   6.459   3.819  0.5437  0.3818  1.2098
  616MOL0     C81182   7.920   6.432   3.892  0.1184  0.8716  0.3183
  616MOL0     O81183   7.924   6.377   4.010 -0.8287 -0.4437  0.6005
  616MOL0     C81184   8.054   6.358   4.062 -0.6965  0.3428 -0.3273
  616MOL0     C81185   8.087   6.396   4.189  0.5939  0.2987  0.3613
  616MOL0     C81186   8.212   6.387   4.243  0.3003  0.1574  0.4346
  616MOL0     C81187   8.306   6.308   4.173  0.6407 -0.0942 -0.0958
  616MOL0     O81188   8.426   6.277   4.239  0.0026 -0.9690  0.6825
  616MOL0     C81189   8.540   6.248   4.153  0.1517  1.4859  0.1520
  616MOL0     C81190   8.647   6.198   4.248  0.3850 -0.0324  0.1930
  616MOL0     C81191   8.785   6.251   4.226 -0.7186 -0.1284 -1.2401
  616MOL0     C81192   8.886   6.198   4.337  0.1319  1.0768 -0.3254
  616MOL0     C81193   9.019   6.275   4.331 -0.2561 -0.2854 -0.0447
  616MOL0     C81194   9.119   6.222   4.434 -0.5674  0.2037 -0.2107
  616MOL0     C81195   9.255   6.305   4.437 -0.1398  0.4637  0.1643
  616MOL0     C81196   9.359   6.269   4.541 -1.1949 -0.6151 -0.4612
  616MOL0     N81197   9.483   6.356   4.552  0.1049 -0.2923  1.3530
  616MOL0     C81198   9.611   6.327   4.529  0.5238 -0.1168  0.1543
  616MOL0     C81199   9.674   6.448   4.504  0.3978 -1.1429  0.3140
  616MOL0     C81200   9.815   6.474   4.458  0.1857  0.2609  0.2012
  616MOL0     C81201   9.825   6.587   4.352 -0.6873  0.0109 -0.2964
  616MOL0     C81202   9.970   6.616   4.308 -0.5349 -0.4087 -0.9098
  616MOL0     C81203   9.978   6.745   4.243 -0.5997 -0.3911  0.3687
  616MOL0     O81204   9.933   6.749   4.105 -0.2316 -0.0647  0.6393
  616MOL0     C81205   9.980   6.660   4.010 -0.0551 -0.5460  0.0244
  616MOL0     C81206   9.890   6.617   3.915 -0.0353 -0.2813 -0.2018
  616MOL0     C81207   9.946   6.551   3.803  0.6424 -0.5486 -0.1010
  616MOL0     C81208  10.086   6.523   3.793  0.4686 -0.2126 -0.0632
  616MOL0     C81209  10.138   6.470   3.674  0.3978  0.1639  0.1200
  616MOL0     O81210  10.049   6.430   3.581  0.3076 -0.3323  1.0162
  616MOL0     C81211  10.077   6.378   3.456 -0.1201 -1.1873 -0.0864
  616MOL0     C81212  10.201   6.323   3.420 -0.5326  0.4297  0.2513
  616MOL0     C81213  10.217   6.258   3.294 -0.8488 -0.2878 -0.7628
  616MOL0     C81214  10.113   6.245   3.210  0.4662  0.3177  0.2301
  616MOL0     O81215  10.128   6.177   3.088 -0.0223 -0.0516  0.0736
  616MOL0     C81216  10.030   6.193   2.983 -0.2409 -0.0561  0.1829
  616MOL0     C81217  10.098   6.158   2.848  0.5361 -1.2885  1.0962
  616MOL0     C81218  10.007   6.168   2.722 -0.7619  0.1609 -0.3648
  616MOL0     C81219   9.905   6.288   2.711  0.7504  0.4906 -0.6573
  616MOL0     C81220   9.843   6.293   2.574  0.0138  0.1124  0.9374
  616MOL0     C81221   9.697   6.345   2.580 -0.4468 -0.8613 -0.0386
  616MOL0     C81222   9.658   6.402   2.431  1.3144 -0.1513 -0.2326
  616MOL0     C81223   9.568   6.329   2.338  0.2301  0.3933  0.0765
  616MOL0    Cl81224   9.606   6.366   2.164  0.5890  0.2264 -0.1144
  616MOL0     C81225   9.988   6.295   3.247 -0.4068 -0.8150 -1.0393
  616MOL0     C81226   9.973   6.367   3.366  1.0453  0.2715  0.2402
  616MOL0     O81227  10.257   6.479   3.661 -0.3226  0.3707  0.2147
  616MOL0     C81228  10.163   6.559   3.899  0.2390  0.1330 -0.1366
  616MOL0     C81229  10.118   6.628   4.008  0.1398  0.2173 -0.2087
  616MOL0     N81230   9.568   6.543   4.509  0.9684  0.0160 -0.1470
  616MOL0     N81231   9.458   6.493   4.543 -1.3388  0.0255 -0.3737
  616MOL0     C81232   8.267   6.251   4.048  0.3869 -0.8145 -0.0856
  616MOL0     C81233   8.144   6.271   4.004  0.0856 -0.3851  0.3039
  616MOL0     C81234   7.778   6.451   3.845  0.0010  0.5126 -0.4081
  616MOL0     C81235   7.737   6.542   3.742 -0.0196  0.6300  0.8815
  616MOL0     C81236   7.601   6.566   3.706 -1.1110  0.3829  1.5992
  616MOL0     C81237   7.505   6.488   3.771  0.2496 -0.4138  0.4985
  616MOL0     O81238   7.370   6.492   3.742 -0.0798  0.5967  0.3661
  616MOL0     C81239   7.327   6.555   3.624 -0.4607 -0.3847  0.2413
  616MOL0     C81240   7.369   6.464   3.506  0.0039  0.5748  0.2934
  616MOL0     C81241   7.288   6.326   3.487  0.9880 -0.2040 -0.2976
  616MOL0     C81242   7.194   6.315   3.360 -0.2825 -0.1908 -0.4698
  616MOL0     C81243   7.073   6.396   3.381  0.1066  0.1012  0.1956
  616MOL0     C81244   6.976   6.458   3.395  0.9741  0.3131 -0.1226
  616MOL0     C81245   7.542   6.395   3.874 -0.4026 -0.5577  0.8481
  616MOL0     C81246   7.674   6.366   3.908  0.1317  0.0839  0.2270
  616MOL0     H81247   8.008   6.456   4.234  1.0101 -0.0128  1.5364
  616MOL0     H81248   8.245   6.424   4.339  1.4568  0.2934  0.0002
  616MOL0     H81249   8.590   6.335   4.110  4.7189 -1.2343 -0.6495
  616MOL0     H81250   8.532   6.166   4.082 -0.3921  2.2441 -0.6910
  616MOL0     H81251   8.648   6.089   4.247  4.8286 -0.1713  1.3230
  616MOL0     H81252   8.619   6.227   4.350 -0.9826 -1.0012  0.1204
  616MOL0     H81253   8.780   6.360   4.236 -0.1065 -0.2805  1.7562
  616MOL0     H81254   8.815   6.227   4.123 -0.4396 -1.7660 -0.8059
  616MOL0     H81255   8.846   6.209   4.438  0.4407 -2.6519  0.3348
  616MOL0     H81256   8.905   6.094   4.310  0.1458  0.7303  0.9713
  616MOL0     H81257   9.004   6.382   4.350  2.2139  0.0048  0.5992
  616MOL0     H81258   9.052   6.268   4.226 -0.4278  1.1048 -0.2111
  616MOL0     H81259   9.131   6.116   4.408 -2.4521 -0.1525  0.2371
  616MOL0     H81260   9.080   6.222   4.536  2.3558  1.9370  1.0502
  616MOL0     H81261   9.316   6.276   4.351  1.6505 -1.9026  2.0813
  616MOL0     H81262   9.246   6.414   4.436  1.0377  0.6742  3.1358
  616MOL0     H81263   9.383   6.162   4.539  0.3937 -0.3410  0.9646
  616MOL0     H81264   9.317   6.282   4.641 -0.1166  0.7300 -0.1369
  616MOL0     H81265   9.644   6.223   4.528 -4.1516 -1.9081 -2.6705
  616MOL0     H81266   9.847   6.385   4.403  1.6766 -1.2443  3.2649
  616MOL0     H81267   9.878   6.480   4.548  0.3527 -0.4724  0.1410
  616MOL0     H81268   9.780   6.671   4.404  0.0623 -0.2400  0.7947
  616MOL0     H81269   9.768   6.580   4.259 -1.3825  3.2346 -0.2243
  616MOL0     H81270  10.026   6.626   4.402  0.0743  3.3863 -1.5049
  616MOL0     H81271  10.014   6.536   4.247 -0.4535 -0.0945 -1.2656
  616MOL0     H81272  10.083   6.777   4.244 -1.5339  3.0680  1.4801
  616MOL0     H81273   9.923   6.819   4.302  2.3778  0.6289  2.0889
  616MOL0     H81274   9.783   6.631   3.915  0.3237  3.8332 -0.9764
  616MOL0     H81275   9.880   6.535   3.718 -0.4505 -0.6553  0.7477
  616MOL0     H81276  10.281   6.325   3.492 -0.9707 -0.9383  0.8019
  616MOL0     H81277  10.318   6.226   3.268  0.0730 -1.2940  3.3266
  616MOL0     H81278   9.977   6.289   2.984 -2.1339 -1.0268 -0.7604
  616MOL0     H81279   9.951   6.119   2.999  0.7618 -1.4332 -0.9785
  616MOL0     H81280  10.160   6.068   2.856  4.4582  1.1031  0.0743
  616MOL0     H81281  10.174   6.233   2.826 -1.8591  0.5016 -1.7408
  616MOL0     H81282   9.941   6.080   2.718 -0.5211 -0.0483  0.2192
  616MOL0     H81283  10.062   6.167   2.627 -1.0452  2.2312 -0.6086
  616MOL0     H81284   9.828   6.272   2.787  0.0858 -0.0407 -1.4341
  616MOL0     H81285   9.957   6.383   2.726  2.6406 -0.1241 -2.7457
  616MOL0     H81286   9.844   6.196   2.523 -0.5795  1.0363 -0.9008
  616MOL0     H81287   9.915   6.347   2.512  1.9103 -0.6103  2.4000
  616MOL0     H81288   9.683   6.422   2.656 -0.9660 -0.2302 -0.7649
  616MOL0     H81289   9.631   6.259   2.594 -0.2934 -1.3970 -2.1797
  616MOL0     H81290   9.612   6.498   2.456  0.7062 -0.4973 -0.0334
  616MOL0     H81291   9.752   6.415   2.375  1.5034  0.0923  0.1333
  616MOL0     H81292   9.465   6.338   2.372  0.1022 -4.9669  2.0835
  616MOL0     H81293   9.584   6.221   2.351 -2.6707 -0.0638  0.3831
  616MOL0     H81294   9.905   6.290   3.176  1.0274  0.7755 -2.9303
  616MOL0     H81295   9.875   6.405   3.391  1.0112 -0.0402  0.5875
  616MOL0     H81296  10.270   6.544   3.892  0.5179  1.6889  0.4049
  616MOL0     H81297  10.189   6.667   4.079  1.4949 -0.7041 -1.0203
  616MOL0     H81298   8.348   6.196   4.002 -0.1355 -1.4625 -0.2288
  616MOL0     H81299   8.118   6.228   3.908 -1.4408 -0.2230  0.6153
  616MOL0     H81300   7.805   6.593   3.675 -1.7987 -1.1320 -2.5224
  616MOL0     H81301   7.573   6.626   3.621  1.0065  2.3031  2.1760
  616MOL0     H81302   7.358   6.659   3.612 -3.0907  0.5423  0.7928
  616MOL0     H81303   7.218   6.549   3.623 -0.4763 -0.1932  0.5300
  616MOL0     H81304   7.380   6.519   3.411 -2.0993  1.7380  0.6384
  616MOL0     H81305   7.468   6.420   3.521  0.1777  0.3890 -1.1905
  616MOL0     H81306   7.228   6.316   3.578  2.2438 -2.2510  0.3652
  616MOL0     H81307   7.348   6.235   3.490 -3.4338 -3.4115  2.3643
  616MOL0     H81308   7.244   6.330   3.264 -2.4777 -0.0526 -1.6461
  616MOL0     H81309   7.146   6.218   3.348 -0.1463 -0.0023 -3.3980
  616MOL0     H81310   6.878   6.495   3.416 -0.4357 -1.6532 -2.6907
  616MOL0     H81311   7.463   6.347   3.931 -1.7988  3.3759  2.5433
  616MOL0     H81312   7.690   6.301   3.992  4.4448 -0.0472 -0.4718
  617MOL0     O81313   4.761  10.228   2.286  0.1742  0.4440 -0.3208
  617MOL0     C81314   4.693  10.319   2.238 -1.1053  1.0020  0.0388
  617MOL0     O81315   4.744  10.426   2.180  0.2175 -0.3662  0.3527
  617MOL0     C81316   4.871  10.401   2.132  0.2142  0.5640  1.0669
  617MOL0     C81317   4.980  10.470   2.192 -0.0892  0.8729 -0.2615
  617MOL0     C81318   5.110  10.453   2.142 -0.6419 -0.7197  0.0050
  617MOL0     C81319   5.134  10.370   2.035  0.8923 -0.2627 -1.1038
  617MOL0     O81320   5.259  10.349   1.997 -0.5294  0.1605 -0.6067
  617MOL0     C81321   5.334  10.474   1.982  0.7800 -0.6610 -0.9936
  617MOL0     C81322   5.476  10.423   1.974 -0.0875  0.0543 -0.4659
  617MOL0     C81323   5.577  10.536   1.965 -0.9125 -0.2128  0.3641
  617MOL0     C81324   5.713  10.506   2.013  0.4303  0.7605  0.2465
  617MOL0     C81325   5.810  10.627   2.018  0.2674 -0.7141  0.3706
  617MOL0     C81326   5.835  10.674   1.874  0.5178  0.1715  0.3074
  617MOL0     C81327   5.933  10.800   1.876 -0.2487  1.3178 -0.5746
  617MOL0     C81328   6.021  10.804   1.760  0.0668  0.3832  0.4567
  617MOL0     N81329   6.126  10.705   1.766 -0.8604 -0.5511  0.6028
  617MOL0     C81330   6.237  10.704   1.851  0.4013  0.1729 -0.0752
  617MOL0     C81331   6.299  10.582   1.831 -0.2841  0.3478 -0.2364
  617MOL0     C81332   6.418  10.531   1.918 -0.4521  0.1186 -0.6822
  617MOL0     C81333   6.537  10.627   1.875  0.0902  0.3750 -0.1137
  617MOL0     C81334   6.665  10.567   1.931  0.1431 -1.1728 -0.0737
  617MOL0     C81335   6.783  10.657   1.901 -0.1350  0.1626 -0.4080
  617MOL0     O81336   6.771  10.771   1.992 -0.6419 -0.4731 -0.0069
  617MOL0     C81337   6.885  10.845   2.027  0.0668  0.9282 -0.1284
  617MOL0     C81338   6.860  10.964   2.089  0.9244 -0.2583  0.7019
  617MOL0     C81339   6.962  11.052   2.125 -0.0068  0.4611 -0.2727
  617MOL0     C81340   7.096  11.020   2.100  1.0707  0.3303 -0.3453
  617MOL0     C81341   7.205  11.107   2.135  0.4690  0.4538 -0.1501
  617MOL0     O81342   7.164  11.222   2.190 -0.4025 -0.0494  1.1846
  617MOL0     C81343   7.258  11.316   2.222 -0.8339 -0.6463  0.6075
  617MOL0     C81344   7.239  11.442   2.166  0.2051 -0.1350  0.4659
  617MOL0     C81345   7.332  11.542   2.203 -0.6521 -0.4249  0.0352
  617MOL0     C81346   7.445  11.524   2.293  0.7098 -0.0897 -0.0266
  617MOL0     O81347   7.526  11.639   2.311 -0.0707  0.1691  0.1734
  617MOL0     C81348   7.466  11.764   2.339 -0.7166 -0.3563 -0.4260
  617MOL0     C81349   7.580  11.866   2.367  0.2999 -0.0200  0.7654
  617MOL0     C81350   7.666  11.816   2.481 -0.9740 -0.5085 -1.0151
  617MOL0     C81351   7.777  11.908   2.513  0.2197 -0.7147 -0.0098
  617MOL0     C81352   7.884  11.846   2.607  0.9524 -0.1635 -0.2503
  617MOL0     C81353   8.003  11.941   2.637 -0.0864 -0.1412  0.5608
  617MOL0     C81354   8.116  11.914   2.539 -0.0441  0.3369 -0.1086
  617MOL0     C81355   8.235  11.990   2.580 -0.6681  0.5935  0.5340
  617MOL0    Cl81356   8.202  12.163   2.598 -0.7780  0.2261 -0.3414
  617MOL0     C81357   7.461  11.399   2.337 -0.0726  0.7875 -0.2460
  617MOL0     C81358   7.365  11.297   2.309  0.0020  0.5589 -0.5066
  617MOL0     O81359   7.319  11.069   2.119 -0.7752 -0.0841  0.8951
  617MOL0     C81360   7.124  10.898   2.022  0.1697  0.1530  0.2547
  617MOL0     C81361   7.017  10.807   1.997  1.0674  0.7165  0.2078
  617MOL0     N81362   6.222  10.510   1.744 -0.7532 -0.2409 -0.5818
  617MOL0     N81363   6.118  10.580   1.704  0.9557 -0.1802 -0.2872
  617MOL0     C81364   5.029  10.293   1.981 -0.2885  0.1510 -0.4460
  617MOL0     C81365   4.902  10.306   2.023 -0.0522 -0.6935 -0.8236
  617MOL0     C81366   4.545  10.314   2.252 -0.5000  0.8956 -0.0976
  617MOL0     C81367   4.477  10.194   2.271  0.2449  0.7847  0.0728
  617MOL0     C81368   4.335  10.204   2.251  0.3834  0.4707 -0.3700
  617MOL0     C81369   4.262  10.321   2.250 -0.2331  0.4330 -0.1374
  617MOL0     O81370   4.125  10.300   2.247 -0.4350 -0.4944 -0.2659
  617MOL0     C81371   4.041  10.414   2.220 -0.7179  0.0816  0.7817
  617MOL0     C81372   3.909  10.361   2.170  0.8326 -0.7861 -0.1822
  617MOL0     C81373   3.804  10.474   2.168  0.0747  0.4131  0.0381
  617MOL0     C81374   3.675  10.424   2.115  0.8996  0.7390 -0.3881
  617MOL0     C81375   3.608  10.318   2.204 -0.5111 -0.4930  0.2387
  617MOL0     C81376   3.561  10.230   2.278 -0.2867 -0.7972  0.0946
  617MOL0     C81377   4.337  10.435   2.258  0.0561  0.3207  0.5085
  617MOL0     C81378   4.473  10.442   2.246 -0.5220 -0.0867 -0.6374
  617MOL0     H81379   4.938  10.530   2.272 -3.0923  3.3035 -3.3491
  617MOL0     H81380   5.189  10.508   2.194 -1.2104 -0.6424  0.7946
  617MOL0     H81381   5.311  10.548   2.060 -2.3329 -2.9321  0.4548
  617MOL0     H81382   5.299  10.529   1.894  0.5751  2.6413  0.9936
  617MOL0     H81383   5.487  10.360   1.885  2.5229  2.9381 -2.4100
  617MOL0     H81384   5.486  10.356   2.059 -2.0754  1.1081  0.6738
  617MOL0     H81385   5.539  10.616   2.030  3.3835  0.1303  2.8345
  617MOL0     H81386   5.580  10.576   1.864  0.6867 -1.9685 -0.3450
  617MOL0     H81387   5.705  10.458   2.111  0.4830 -2.4414 -1.1994
  617MOL0     H81388   5.757  10.429   1.949  2.5887  1.2687  1.0374
  617MOL0     H81389   5.902  10.600   2.070  0.5999 -0.8153 -0.2563
  617MOL0     H81390   5.761  10.706   2.075 -1.7219  1.3072 -3.7145
  617MOL0     H81391   5.747  10.714   1.822  2.5247  1.3318 -2.4005
  617MOL0     H81392   5.868  10.595   1.806 -2.2985 -0.3024 -0.6282
  617MOL0     H81393   5.876  10.893   1.881  0.1282  1.5586 -0.7707
  617MOL0     H81394   5.992  10.797   1.968 -3.3550 -1.4376  1.5681
  617MOL0     H81395   6.066  10.904   1.764 -1.4249  1.0549  1.3631
  617MOL0     H81396   5.973  10.782   1.664  0.2462  1.4561  0.1047
  617MOL0     H81397   6.267  10.776   1.926 -1.7382  0.3415  0.6792
  617MOL0     H81398   6.425  10.423   1.902  1.5586  0.2729 -1.0752
  617MOL0     H81399   6.406  10.568   2.021 -0.2305  2.3104 -1.3826
  617MOL0     H81400   6.515  10.723   1.923 -0.8350 -0.6623  1.6395
  617MOL0     H81401   6.547  10.634   1.766 -1.8250 -2.3769 -0.5630
  617MOL0     H81402   6.652  10.549   2.038 -0.2794  0.4774  0.1815
  617MOL0     H81403   6.679  10.474   1.876  1.0921 -1.7542  1.0989
  617MOL0     H81404   6.792  10.690   1.797 -4.5242 -0.6632 -1.2386
  617MOL0     H81405   6.869  10.598   1.932 -0.6246 -0.2171  0.2555
  617MOL0     H81406   6.758  10.984   2.120 -0.1318 -1.1723 -1.9412
  617MOL0     H81407   6.935  11.134   2.191 -0.3440  2.3166 -2.5918
  617MOL0     H81408   7.161  11.466   2.094 -1.1989  1.7699  2.5113
  617MOL0     H81409   7.314  11.643   2.168 -2.9963 -0.9758 -0.5362
  617MOL0     H81410   7.398  11.757   2.424 -0.2431  1.0660  0.0993
  617MOL0     H81411   7.424  11.803   2.245  2.4164  4.5508 -0.1780
  617MOL0     H81412   7.537  11.967   2.375  3.1812  1.4363 -0.7131
  617MOL0     H81413   7.635  11.869   2.273 -0.4633 -3.4198  0.0985
  617MOL0     H81414   7.708  11.717   2.460 -1.1981 -0.6599 -0.7601
  617MOL0     H81415   7.602  11.803   2.569  0.6709 -0.7021  0.2053
  617MOL0     H81416   7.813  11.937   2.414  0.9914 -1.7295 -0.0430
  617MOL0     H81417   7.742  12.002   2.558 -1.2980 -0.7141 -1.1331
  617MOL0     H81418   7.912  11.743   2.582  1.5618  0.3853 -1.9672
  617MOL0     H81419   7.837  11.826   2.704  3.8212  3.3116  2.1067
  617MOL0     H81420   8.036  11.920   2.739  0.4833 -0.6605  0.2794
  617MOL0     H81421   7.965  12.043   2.624  1.3587  0.5249  1.3898
  617MOL0     H81422   8.142  11.807   2.536 -1.1168  0.0813 -2.2184
  617MOL0     H81423   8.094  11.934   2.434  1.2061  1.5533 -0.1705
  617MOL0     H81424   8.310  11.985   2.501 -2.0246 -0.1933 -0.7475
  617MOL0     H81425   8.292  11.942   2.661 -0.9967  1.4399  1.2792
  617MOL0     H81426   7.543  11.387   2.406 -1.2144 -1.5892  0.7981
  617MOL0     H81427   7.381  11.201   2.358  0.4605  0.5098 -0.7479
  617MOL0     H81428   7.223  10.883   1.981 -0.8021 -0.5197 -1.9990
  617MOL0     H81429   7.035  10.713   1.946 -0.1294  0.7052 -0.2235
  617MOL0     H81430   5.057  10.202   1.930 -0.6805 -0.1452 -0.1318
  617MOL0     H81431   4.817  10.244   1.996  0.1849 -2.3141  1.8586
  617MOL0     H81432   4.536  10.105   2.254  0.6849  1.1045 -0.1019
  617MOL0     H81433   4.279  10.111   2.252 -1.4970  1.5468  1.1701
  617MOL0     H81434   4.079  10.485   2.145 -2.5610 -0.8701 -1.1461
  617MOL0     H81435   4.021  10.470   2.312  0.8864 -0.0411  1.2464
  617MOL0     H81436   3.919  10.314   2.072  0.8824  0.0419 -0.5887
  617MOL0     H81437   3.882  10.290   2.248 -2.8506 -0.0548 -0.6196
  617MOL0     H81438   3.849  10.563   2.125 -0.2585  1.2877  1.4245
  617MOL0     H81439   3.792  10.506   2.272  0.0810  0.0038  0.1674
  617MOL0     H81440   3.603  10.502   2.089 -2.4535 -2.6361 -2.2856
  617MOL0     H81441   3.703  10.369   2.025 -0.2790  0.6291 -0.7061
  617MOL0     H81442   3.509  10.164   2.345 -0.9942 -0.1797  0.1749
  617MOL0     H81443   4.296  10.536   2.262 -0.2482  0.4199 -2.6593
  617MOL0     H81444   4.522  10.538   2.237  0.3188 -0.4905 -0.4563
  618MOL0     O81445   9.243   5.263  10.234  0.4844 -0.7458  0.3517
  618MOL0     C81446   9.172   5.326  10.157 -0.0225 -0.2529  0.7804
  618MOL0     O81447   9.181   5.319  10.020 -0.3104 -0.0459 -0.2745
  618MOL0     C81448   9.287   5.246   9.969  0.1413 -0.4176  0.3480
  618MOL0     C81449   9.279   5.103   9.958 -0.6382  0.6689 -0.3851
  618MOL0     C81450   9.376   5.029   9.886  0.4717 -0.3090 -0.1483
  618MOL0     C81451   9.483   5.093   9.823 -0.1497  0.4356  0.1767
  618MOL0     O81452   9.585   5.022   9.764 -0.0542  0.2646  0.0088
  618MOL0     C81453   9.547   4.917   9.668  0.4454 -0.0405  0.4037
  618MOL0     C81454   9.668   4.861   9.593  0.0679  0.4426 -0.7524
  618MOL0     C81455   9.724   4.958   9.483 -0.6227  0.2391  1.3402
  618MOL0     C81456   9.817   4.890   9.371  0.6291 -0.8978 -0.4843
  618MOL0     C81457   9.868   4.979   9.262  0.4782 -0.2393  0.6348
  618MOL0     C81458   9.991   5.070   9.285  0.4503  0.3409  0.0594
  618MOL0     C81459  10.019   5.140   9.157 -0.2908  0.5616  0.3568
  618MOL0     C81460  10.158   5.221   9.177  0.8210 -0.8106  0.3597
  618MOL0     N81461  10.270   5.131   9.154  1.0406  0.3352  0.0033
  618MOL0     C81462  10.309   5.096   9.028 -0.4184  1.0074 -0.1433
  618MOL0     C81463  10.423   5.024   9.044 -0.2210  0.0769 -0.0885
  618MOL0     C81464  10.511   4.972   8.929 -0.7020  0.4292  0.1564
  618MOL0     C81465  10.594   4.849   8.967  0.6341 -0.6148  0.6071
  618MOL0     C81466  10.712   4.886   9.055 -0.0797  0.1242  0.6271
  618MOL0     C81467  10.806   4.769   9.083  0.9713 -0.2373  0.1998
  618MOL0     O81468  10.730   4.649   9.135  0.0869 -0.2622  0.4337
  618MOL0     C81469  10.805   4.550   9.184  0.4543  0.2615  0.2432
  618MOL0     C81470  10.938   4.532   9.150  1.2588  1.0924  0.4615
  618MOL0     C81471  11.012   4.423   9.196 -0.8446 -0.4220 -0.0159
  618MOL0     C81472  10.965   4.335   9.294 -0.3623  0.3861  0.2348
  618MOL0     C81473  11.046   4.220   9.339  0.6078 -0.3112 -0.3721
  618MOL0     O81474  11.183   4.211   9.301 -0.0465 -0.3147  0.3387
  618MOL0     C81475  11.266   4.119   9.357 -0.4893 -0.8277  0.2909
  618MOL0     C81476  11.401   4.153   9.330  0.0937 -1.1978 -0.1160
  618MOL0     C81477  11.503   4.072   9.374  0.3758  1.1957 -0.1416
  618MOL0     C81478  11.461   3.951   9.441  0.0417 -0.6113  0.7330
  618MOL0     O81479  11.564   3.867   9.492  0.4559  0.0900  0.0915
  618MOL0     C81480  11.670   3.924   9.580 -0.1929  0.0148  0.5220
  618MOL0     C81481  11.809   3.864   9.555  0.1785  0.1707  0.0309
  618MOL0     C81482  11.905   3.918   9.658  0.2321 -0.7018 -0.2430
  618MOL0     C81483  11.920   4.082   9.673  0.9610  0.2431  0.4203
  618MOL0     C81484  12.013   4.153   9.578 -0.2859 -0.0498  0.2603
  618MOL0     C81485  12.163   4.127   9.581 -1.4037 -0.7526 -0.1376
  618MOL0     C81486  12.234   4.249   9.505 -0.2027  0.0378 -0.2687
  618MOL0     C81487  12.259   4.221   9.355 -0.7355  0.4188  0.7283
  618MOL0    Cl81488  12.399   4.300   9.306 -0.4016 -0.5235 -0.2998
  618MOL0     C81489  11.328   3.919   9.469  1.0413  0.4066 -0.0380
  618MOL0     C81490  11.237   4.002   9.421  1.4824 -0.7989 -0.8518
  618MOL0     O81491  10.980   4.150   9.416 -0.0398  0.4717  0.0934
  618MOL0     C81492  10.833   4.367   9.337  0.4798  0.8813  0.1910
  618MOL0     C81493  10.754   4.468   9.284 -0.0331 -1.6410 -0.7176
  618MOL0     N81494  10.434   5.000   9.184 -0.9507 -0.5867 -0.0308
  618MOL0     N81495  10.340   5.065   9.247  0.3018 -0.2849  0.3798
  618MOL0     C81496   9.495   5.232   9.826  0.3004  0.6726  0.4044
  618MOL0     C81497   9.399   5.304   9.900 -0.5840 -0.3177 -0.1693
  618MOL0     C81498   9.053   5.396  10.205  0.8763 -0.3088  0.3599
  618MOL0     C81499   9.029   5.405  10.346  0.5247 -0.4314  0.4711
  618MOL0     C81500   8.931   5.473  10.414  0.0660  1.8151  0.6823
  618MOL0     C81501   8.838   5.534  10.330 -0.6550  0.1567 -0.1715
  618MOL0     O81502   8.725   5.583  10.391 -1.2664  0.6171  0.6762
  618MOL0     C81503   8.637   5.683  10.343  0.6638 -0.7574  0.0581
  618MOL0     C81504   8.493   5.640  10.336 -1.1479 -0.8559  0.1143
  618MOL0     C81505   8.432   5.618  10.467  0.2859  0.0079  0.2428
  618MOL0     C81506   8.371   5.746  10.522 -0.9007 -0.1737 -0.2466
  618MOL0     C81507   8.242   5.781  10.455  0.4761 -0.5768  0.6429
  618MOL0     C81508   8.133   5.811  10.405  0.8797 -0.2364 -0.7147
  618MOL0     C81509   8.853   5.534  10.192 -0.3519  0.8946  0.8646
  618MOL0     C81510   8.953   5.453  10.127 -0.9377  0.1967  0.3450
  618MOL0     H81511   9.195   5.052  10.005  0.6196  1.1007  2.5698
  618MOL0     H81512   9.370   4.921   9.877 -0.7383 -0.3047  0.3698
  618MOL0     H81513   9.466   4.947   9.602  1.5884 -1.1769 -1.6086
  618MOL0     H81514   9.518   4.839   9.738  2.2061  1.1008  2.5484
  618MOL0     H81515   9.640   4.779   9.526  1.2888  1.8177 -3.1169
  618MOL0     H81516   9.734   4.829   9.674 -2.4917  0.2521  1.3621
  618MOL0     H81517   9.780   5.038   9.533  0.9460  0.2448 -0.3142
  618MOL0     H81518   9.640   5.000   9.427  1.6202  0.8175 -1.8603
  618MOL0     H81519   9.897   4.834   9.422  0.0834 -1.2982 -0.0561
  618MOL0     H81520   9.749   4.818   9.323  0.6957 -1.3743  0.1223
  618MOL0     H81521   9.785   5.043   9.230 -0.0666  0.3695  3.0982
  618MOL0     H81522   9.882   4.910   9.178  1.0340  0.4261  0.1725
  618MOL0     H81523  10.083   5.015   9.309  0.9610  0.8622 -0.6781
  618MOL0     H81524   9.965   5.149   9.356  2.3796  1.4411 -0.3949
  618MOL0     H81525  10.038   5.064   9.080 -2.5053 -3.6235  3.5036
  618MOL0     H81526   9.930   5.196   9.127 -1.6982 -1.2004  1.0877
  618MOL0     H81527  10.160   5.249   9.283  2.3913 -0.1275  0.1754
  618MOL0     H81528  10.164   5.312   9.117 -0.0378  0.6300  2.3570
  618MOL0     H81529  10.266   5.119   8.931  1.6978 -0.8831 -1.6128
  618MOL0     H81530  10.577   5.059   8.925 -0.7680  0.4324 -1.3447
  618MOL0     H81531  10.451   4.964   8.838 -1.8376  1.0215  0.8278
  618MOL0     H81532  10.638   4.807   8.876  1.0079  0.8543  0.0855
  618MOL0     H81533  10.536   4.780   9.029 -0.4773 -0.0534  0.2287
  618MOL0     H81534  10.764   4.960   8.993 -1.4729 -0.8897 -1.9060
  618MOL0     H81535  10.685   4.942   9.145 -0.3056  3.0635 -1.1190
  618MOL0     H81536  10.892   4.803   9.142  1.7323 -0.6747 -0.6298
  618MOL0     H81537  10.848   4.728   8.991  1.8367  0.1746  0.3942
  618MOL0     H81538  10.967   4.590   9.062 -0.9423  0.4990 -0.7274
  618MOL0     H81539  11.106   4.401   9.146  0.9880  3.5373  1.3360
  618MOL0     H81540  11.453   4.238   9.287 -1.0422 -1.0334 -1.2405
  618MOL0     H81541  11.603   4.104   9.348  0.0655 -1.4896 -6.0541
  618MOL0     H81542  11.640   3.899   9.682  0.6934 -0.8495  0.5999
  618MOL0     H81543  11.676   4.032   9.565  0.6028 -0.3617 -2.5881
  618MOL0     H81544  11.851   3.892   9.457  3.0758  1.0592  1.4002
  618MOL0     H81545  11.802   3.756   9.567  0.2780  0.2142  0.5103
  618MOL0     H81546  11.999   3.870   9.628 -1.0120 -4.0619  0.7809
  618MOL0     H81547  11.879   3.879   9.757  1.2309  1.5442  0.9662
  618MOL0     H81548  11.827   4.133   9.697 -1.6196 -3.7103 -0.2540
  618MOL0     H81549  11.973   4.094   9.768  1.6770  2.4885 -0.2065
  618MOL0     H81550  11.988   4.259   9.588 -0.8852 -0.3570  2.4614
  618MOL0     H81551  11.974   4.129   9.479 -1.6373  2.1709  0.1838
  618MOL0     H81552  12.182   4.030   9.533 -1.4508  0.7558 -3.4453
  618MOL0     H81553  12.200   4.141   9.683  1.2508 -0.4510 -1.0717
  618MOL0     H81554  12.181   4.345   9.510 -0.5125  0.1068 -3.3497
  618MOL0     H81555  12.332   4.266   9.550 -0.8193 -0.8837  1.5211
  618MOL0     H81556  12.174   4.254   9.294  0.4296 -0.1219 -1.3048
  618MOL0     H81557  12.284   4.118   9.327  0.1510 -0.2541  3.6497
  618MOL0     H81558  11.299   3.820   9.504 -2.3868  0.2330 -2.8505
  618MOL0     H81559  11.137   3.969   9.449  1.1733  2.4308  2.6227
  618MOL0     H81560  10.781   4.318   9.419 -0.6405  0.1741 -0.9121
  618MOL0     H81561  10.657   4.490   9.327  1.1140  2.2258  0.3798
  618MOL0     H81562   9.580   5.278   9.777  0.0745  2.4645  1.5855
  618MOL0     H81563   9.417   5.411   9.897 -3.4424  0.2760  0.5860
  618MOL0     H81564   9.098   5.357  10.416 -0.0814 -1.7721  0.1888
  618MOL0     H81565   8.921   5.472  10.522 -1.4648  2.1905  0.5634
  618MOL0     H81566   8.667   5.702  10.239 -1.4189 -1.1904 -0.6603
  618MOL0     H81567   8.665   5.773  10.399 -0.9825 -0.4423  0.4081
  618MOL0     H81568   8.439   5.719  10.284  0.7627 -0.2386 -1.0624
  618MOL0     H81569   8.485   5.551  10.273 -0.5926  0.3429 -1.7534
  618MOL0     H81570   8.503   5.570  10.534 -1.1540  1.8149  3.3138
  618MOL0     H81571   8.339   5.560  10.463 -0.8097  1.6600  0.7916
  618MOL0     H81572   8.376   5.744  10.631  0.5368 -4.5056 -0.1994
  618MOL0     H81573   8.442   5.828  10.504 -0.8336 -0.8063 -3.5352
  618MOL0     H81574   8.035   5.830  10.368 -0.5083 -3.0399  1.1680
  618MOL0     H81575   8.779   5.572  10.123 -1.2096 -0.9985  0.6942
  618MOL0     H81576   8.961   5.441  10.019  1.9827  0.5163  0.4450
  619MOL0     O81577   6.006   0.493   1.731 -1.0456 -0.2194  0.2047
  619MOL0     C81578   6.071   0.519   1.833  0.1780 -0.0575 -0.1397
  619MOL0     O81579   6.106   0.644   1.869  0.6912  0.6914 -0.1240
  619MOL0     C81580   6.081   0.744   1.783 -0.2483  0.5470 -0.1611
  619MOL0     C81581   6.160   0.762   1.673 -1.2148 -0.4207  0.1077
  619MOL0     C81582   6.135   0.864   1.583  0.0738 -0.5041  0.2854
  619MOL0     C81583   6.031   0.953   1.604  0.1210 -0.4484 -0.2256
  619MOL0     O81584   6.030   1.065   1.527  1.0081 -0.4733  0.9368
  619MOL0     C81585   5.966   1.182   1.574  0.2742  0.6222 -0.9925
  619MOL0     C81586   6.025   1.293   1.496 -0.3225  0.6080 -0.8832
  619MOL0     C81587   5.957   1.418   1.530  0.4185  0.2264 -0.5977
  619MOL0     C81588   6.005   1.529   1.434  0.5246 -0.0247 -0.2729
  619MOL0     C81589   5.908   1.656   1.448 -0.7052 -0.2483 -0.5511
  619MOL0     C81590   5.944   1.758   1.337 -0.5587 -0.7100 -0.2499
  619MOL0     C81591   5.884   1.893   1.364 -0.1817 -0.0280  0.4803
  619MOL0     C81592   5.767   1.944   1.281  0.2830  0.8578  0.6258
  619MOL0     N81593   5.655   1.858   1.328 -0.5072  0.8232 -0.1531
  619MOL0     C81594   5.584   1.875   1.442  0.6442  0.7919 -0.8713
  619MOL0     C81595   5.540   1.749   1.467  0.0997 -0.0948 -0.1915
  619MOL0     C81596   5.484   1.703   1.598  0.7692  0.3702  1.3479
  619MOL0     C81597   5.340   1.646   1.588  0.4742  0.1476  0.2413
  619MOL0     C81598   5.257   1.761   1.520  0.0447 -0.2859  0.1073
  619MOL0     C81599   5.114   1.748   1.573 -0.0614 -0.0730  0.0647
  619MOL0     O81600   5.020   1.850   1.538 -0.5678  0.2439  1.2988
  619MOL0     C81601   4.991   1.891   1.402 -0.7414  0.3539 -0.2734
  619MOL0     C81602   4.949   2.015   1.368 -0.3943  0.5616  0.2247
  619MOL0     C81603   4.905   2.047   1.239 -0.5182 -0.9632 -0.0151
  619MOL0     C81604   4.905   1.956   1.135 -0.4957 -0.2446 -1.5799
  619MOL0     C81605   4.879   1.989   0.989  0.1099 -0.4528 -0.0816
  619MOL0     O81606   4.839   2.115   0.952 -0.4848  0.2399  0.7268
  619MOL0     C81607   4.839   2.144   0.813 -0.6285 -0.0403  0.3318
  619MOL0     C81608   4.713   2.169   0.755  0.2066 -0.1326  0.3911
  619MOL0     C81609   4.706   2.219   0.628  0.1595 -0.0235  0.7306
  619MOL0     C81610   4.821   2.244   0.549 -0.5612  0.0800 -0.7513
  619MOL0     O81611   4.821   2.300   0.427  0.3518 -0.3483 -0.0914
  619MOL0     C81612   4.708   2.361   0.360  0.0141 -0.2542 -0.1157
  619MOL0     C81613   4.773   2.440   0.238 -0.1325 -0.3444 -0.2156
  619MOL0     C81614   4.687   2.560   0.165 -0.6948  0.1466 -0.2306
  619MOL0     C81615   4.769   2.635   0.068  0.0787 -0.0675 -0.0260
  619MOL0     C81616   4.857   2.746   0.133 -0.1674 -1.1571 -0.2773
  619MOL0     C81617   4.915   2.838   0.022 -0.5924 -0.0944  0.2606
  619MOL0     C81618   4.941   2.982   0.071 -0.1467  0.0071 -0.3078
  619MOL0     C81619   5.013   3.057  -0.037  0.3689  0.3468  0.4460
  619MOL0    Cl81620   4.881   3.110  -0.158 -0.3725  0.7444  0.3249
  619MOL0     C81621   4.947   2.217   0.593 -1.0420  0.6470 -0.0033
  619MOL0     C81622   4.960   2.159   0.731  0.1795 -0.4184  0.4116
  619MOL0     O81623   4.897   1.894   0.913  0.8944 -0.4433 -0.4680
  619MOL0     C81624   4.957   1.827   1.172  0.2026 -0.3729  1.2104
  619MOL0     C81625   4.997   1.796   1.301  0.3199  0.7895  0.5066
  619MOL0     N81626   5.570   1.660   1.362 -0.2359 -0.1881 -0.4916
  619MOL0     N81627   5.631   1.730   1.278  0.8608  0.6209  0.7028
  619MOL0     C81628   5.945   0.943   1.719  0.3096 -0.3026  0.1766
  619MOL0     C81629   5.974   0.836   1.803 -0.1233  0.2016 -0.5961
  619MOL0     C81630   6.116   0.408   1.913  1.2451  0.2885 -0.2825
  619MOL0     C81631   6.097   0.273   1.870 -0.7035  0.6138  0.1895
  619MOL0     C81632   6.165   0.167   1.936  0.1062  0.7261 -0.5907
  619MOL0     C81633   6.226   0.198   2.061 -0.0869  0.6687  0.1438
  619MOL0     O81634   6.303   0.101   2.130  0.1569 -0.3362  1.1188
  619MOL0     C81635   6.361  -0.021   2.069 -0.3439 -0.1670  0.6822
  619MOL0     C81636   6.441  -0.087   2.186 -0.0478 -0.1295  0.1117
  619MOL0     C81637   6.517   0.015   2.272 -0.3829  0.6586 -0.2412
  619MOL0     C81638   6.654  -0.033   2.305 -0.5833  0.7866 -0.6125
  619MOL0     C81639   6.749  -0.004   2.204  0.1557 -0.7044 -1.3436
  619MOL0     C81640   6.822   0.034   2.110  0.4243  0.5090  0.2001
  619MOL0     C81641   6.224   0.331   2.110 -0.3013 -0.1612 -0.2644
  619MOL0     C81642   6.170   0.431   2.032 -1.0559  0.1638 -0.4661
  619MOL0     H81643   6.247   0.704   1.643 -1.5418 -0.0533 -1.7127
  619MOL0     H81644   6.196   0.895   1.499 -1.5481  4.4590  0.6003
  619MOL0     H81645   5.998   1.195   1.678  0.8268 -0.7777 -0.9661
  619MOL0     H81646   5.859   1.168   1.558  0.0414 -1.2414  1.4569
  619MOL0     H81647   6.000   1.270   1.392  0.9199  2.9974 -1.7973
  619MOL0     H81648   6.134   1.298   1.493 -0.2763  1.1177  0.5913
  619MOL0     H81649   5.985   1.443   1.632  1.3308  1.6344 -1.1667
  619MOL0     H81650   5.848   1.410   1.528  0.4804 -1.3325  0.4380
  619MOL0     H81651   6.112   1.548   1.440  0.3816  0.8253 -0.3216
  619MOL0     H81652   5.981   1.484   1.337 -3.4136 -2.2743  1.4924
  619MOL0     H81653   5.920   1.714   1.540 -0.3894  1.9785 -1.9302
  619MOL0     H81654   5.805   1.619   1.445 -1.2596  1.2217 -4.0643
  619MOL0     H81655   5.917   1.713   1.241 -2.9068 -2.0699  0.9651
  619MOL0     H81656   6.054   1.758   1.340 -0.5515 -1.6454 -0.1029
  619MOL0     H81657   5.870   1.900   1.472  0.3365 -1.0488  0.6225
  619MOL0     H81658   5.960   1.965   1.333 -0.7962  0.0006 -1.0408
  619MOL0     H81659   5.778   1.927   1.174  0.3575 -3.2946  1.1111
  619MOL0     H81660   5.732   2.047   1.294 -3.1253  0.1121 -1.4048
  619MOL0     H81661   5.592   1.957   1.513  1.3560 -2.1470  2.7691
  619MOL0     H81662   5.496   1.784   1.671  3.4449  0.9275  0.3820
  619MOL0     H81663   5.535   1.623   1.651 -0.8273  0.0624  2.5028
  619MOL0     H81664   5.294   1.608   1.680 -2.4515 -3.2027 -2.3248
  619MOL0     H81665   5.339   1.559   1.521 -2.2829 -2.8681  3.7489
  619MOL0     H81666   5.293   1.860   1.547 -1.3210  0.3075 -0.1556
  619MOL0     H81667   5.252   1.758   1.410 -1.2359  0.9688  0.0975
  619MOL0     H81668   5.121   1.752   1.682 -1.5175  1.3277  0.1547
  619MOL0     H81669   5.073   1.650   1.546 -0.0573 -0.7262  2.2112
  619MOL0     H81670   4.959   2.087   1.449  0.6775 -1.3013  1.8373
  619MOL0     H81671   4.876   2.150   1.224  1.5697 -0.2698  0.3420
  619MOL0     H81672   4.619   2.156   0.808  1.2584 -1.7293  1.9789
  619MOL0     H81673   4.606   2.241   0.592 -1.3167 -1.9267  3.3719
  619MOL0     H81674   4.651   2.430   0.423  0.3080 -3.3890  4.0178
  619MOL0     H81675   4.639   2.286   0.320  0.4074 -1.9648  2.2075
  619MOL0     H81676   4.792   2.364   0.162 -0.1075  0.5267 -1.1175
  619MOL0     H81677   4.867   2.485   0.271 -1.9632  2.1054  2.0808
  619MOL0     H81678   4.659   2.632   0.244  0.5375  4.0350 -3.0187
  619MOL0     H81679   4.598   2.520   0.116  0.5667 -1.1568 -1.5279
  619MOL0     H81680   4.832   2.574   0.003  1.0951  1.5734 -0.6572
  619MOL0     H81681   4.696   2.672  -0.005  0.7559  3.4876  0.8927
  619MOL0     H81682   4.933   2.695   0.192  0.0551 -0.3157  0.1835
  619MOL0     H81683   4.810   2.812   0.206 -2.2295  2.4401 -4.3498
  619MOL0     H81684   4.844   2.837  -0.061 -0.4471 -1.2675  0.1421
  619MOL0     H81685   5.013   2.801  -0.008 -0.2226  0.7319  0.3996
  619MOL0     H81686   4.849   3.036   0.094 -0.5297 -1.0002  0.5298
  619MOL0     H81687   5.004   2.986   0.160  2.3341  0.2198 -1.9630
  619MOL0     H81688   5.088   3.001  -0.094  0.3287  0.9937 -0.2492
  619MOL0     H81689   5.065   3.143   0.005 -0.6031 -0.0376  2.6094
  619MOL0     H81690   5.026   2.239   0.522 -1.4266  0.5933 -0.4500
  619MOL0     H81691   5.058   2.143   0.775  0.2827  0.5699  0.5633
  619MOL0     H81692   4.965   1.754   1.092 -0.1410  1.3631 -0.4826
  619MOL0     H81693   5.027   1.693   1.315  1.5230  1.1507  0.6385
  619MOL0     H81694   5.860   1.008   1.731  0.4084 -0.4495  2.0243
  619MOL0     H81695   5.904   0.823   1.885 -1.8042  3.0791 -1.4467
  619MOL0     H81696   6.037   0.245   1.784  0.2966 -2.5013  0.3732
  619MOL0     H81697   6.173   0.063   1.906 -0.8100 -1.4133  5.2726
  619MOL0     H81698   6.432  -0.006   1.987  1.3369 -0.3704  2.0467
  619MOL0     H81699   6.286  -0.081   2.018  0.0202  0.0936 -0.1907
  619MOL0     H81700   6.366  -0.128   2.256 -1.9631  3.6255  0.5519
  619MOL0     H81701   6.510  -0.163   2.150  1.2723  0.6281  0.9346
  619MOL0     H81702   6.485   0.021   2.376  3.7150 -1.3147  1.3029
  619MOL0     H81703   6.519   0.111   2.220  0.8174  0.9497  0.3153
  619MOL0     H81704   6.683   0.028   2.391  3.8615  3.5338 -3.6529
  619MOL0     H81705   6.653  -0.138   2.334 -1.3247  1.0056  0.2061
  619MOL0     H81706   6.897   0.065   2.041  1.1533 -0.7177  0.4152
  619MOL0     H81707   6.255   0.357   2.211 -0.6944  0.3758 -0.2804
  619MOL0     H81708   6.179   0.529   2.077  2.7345 -0.4358  0.4246
  620MOL0     O81709   6.309   5.574   1.835  0.2798 -0.1341  0.1389
  620MOL0     C81710   6.240   5.487   1.885  0.5157 -0.1259  1.2890
  620MOL0     O81711   6.111   5.491   1.933  0.1710 -0.3266  0.0647
  620MOL0     C81712   6.035   5.599   1.922 -0.8324 -0.8407  0.5715
  620MOL0     C81713   6.065   5.740   1.920 -0.0663 -0.3711  0.3257
  620MOL0     C81714   5.965   5.835   1.913 -0.3490  0.5787 -0.3282
  620MOL0     C81715   5.832   5.794   1.898 -0.4209  1.0607  0.2572
  620MOL0     O81716   5.729   5.885   1.879 -0.3779  0.4715  1.0081
  620MOL0     C81717   5.681   5.899   1.748  0.6907  0.5741  1.0722
  620MOL0     C81718   5.557   5.990   1.754 -0.1794 -0.1343  0.2725
  620MOL0     C81719   5.524   6.055   1.626  0.1966  0.1574 -0.4942
  620MOL0     C81720   5.404   6.141   1.630 -0.2331  1.8754  1.0701
  620MOL0     C81721   5.274   6.059   1.658  0.2247 -0.5475 -1.2412
  620MOL0     C81722   5.237   5.942   1.555 -0.1662  0.1668 -0.8265
  620MOL0     C81723   5.195   6.012   1.427 -0.4283 -0.1981 -0.0736
  620MOL0     C81724   5.171   5.926   1.307 -1.2485 -0.5368  0.2977
  620MOL0     N81725   5.270   5.825   1.277 -0.5248  0.5241  0.1497
  620MOL0     C81726   5.407   5.845   1.287  1.3902 -0.0702  0.8209
  620MOL0     C81727   5.461   5.721   1.287  0.5707 -0.4784 -0.3168
  620MOL0     C81728   5.615   5.697   1.266 -1.0104  0.2053 -0.6955
  620MOL0     C81729   5.680   5.653   1.404  0.5536  0.1695  0.4026
  620MOL0     C81730   5.833   5.645   1.408  0.1960 -0.2399 -0.5157
  620MOL0     C81731   5.903   5.645   1.542  0.3915  0.5590 -1.2246
  620MOL0     O81732   6.031   5.581   1.524  0.1634 -0.1110  0.5762
  620MOL0     C81733   6.058   5.447   1.555  0.3835 -0.4648 -0.9699
  620MOL0     C81734   6.191   5.402   1.552 -0.0581 -0.1833  0.0067
  620MOL0     C81735   6.236   5.271   1.577 -0.1557  0.0170 -0.8323
  620MOL0     C81736   6.142   5.175   1.615  0.1565 -0.1147  0.1193
  620MOL0     C81737   6.185   5.031   1.647  0.2045  0.1717  0.6359
  620MOL0     O81738   6.313   5.005   1.631  0.1442  0.7793  0.1343
  620MOL0     C81739   6.374   4.879   1.667 -0.2233  0.5007  0.2849
  620MOL0     C81740   6.511   4.879   1.663 -0.0778  0.2051  0.5046
  620MOL0     C81741   6.584   4.762   1.681 -0.2024 -0.0743  0.4034
  620MOL0     C81742   6.527   4.636   1.709 -0.3452 -0.6726  0.3510
  620MOL0     O81743   6.605   4.529   1.737 -0.4600 -0.1949 -0.6690
  620MOL0     C81744   6.530   4.409   1.769 -0.0236  0.0542  0.3033
  620MOL0     C81745   6.627   4.295   1.791 -0.1638 -0.0914 -0.1299
  620MOL0     C81746   6.570   4.172   1.860  0.5485  0.3840  0.4406
  620MOL0     C81747   6.679   4.072   1.879  0.5847  0.9737 -0.2026
  620MOL0     C81748   6.611   3.936   1.928 -0.5771 -0.6788 -0.1361
  620MOL0     C81749   6.506   3.945   2.041  0.5443 -0.2144 -0.5743
  620MOL0     C81750   6.536   3.854   2.158 -1.0867  1.4139  0.4553
  620MOL0     C81751   6.405   3.839   2.250 -0.6616 -0.6800 -1.2241
  620MOL0    Cl81752   6.345   3.996   2.308 -0.5291 -0.0428  0.2632
  620MOL0     C81753   6.386   4.633   1.694  0.6795 -0.3845  0.5160
  620MOL0     C81754   6.312   4.749   1.674  0.0582 -0.0090 -0.1147
  620MOL0     O81755   6.109   4.946   1.683  0.1399 -0.1986  0.4131
  620MOL0     C81756   6.004   5.216   1.613  0.0450  0.4978  0.0283
  620MOL0     C81757   5.957   5.340   1.587 -0.5815 -0.6802 -0.1522
  620MOL0     N81758   5.354   5.625   1.296 -0.0953  0.4898 -0.4441
  620MOL0     N81759   5.240   5.694   1.298  0.2831  0.4617 -0.0803
  620MOL0     C81760   5.799   5.652   1.907 -1.2524  0.3228  1.1408
  620MOL0     C81761   5.905   5.559   1.915 -0.0323  0.6220  0.1138
  620MOL0     C81762   6.315   5.362   1.901  0.1665  0.3234 -0.7360
  620MOL0     C81763   6.451   5.355   1.878 -0.7815 -0.6172  0.5077
  620MOL0     C81764   6.520   5.235   1.912  0.9045  0.4950  0.6053
  620MOL0     C81765   6.448   5.119   1.960 -0.3643 -0.3130 -0.5109
  620MOL0     O81766   6.538   5.017   1.988  0.1531 -0.3703 -0.2562
  620MOL0     C81767   6.489   4.906   2.066  0.2511 -0.0755  0.0124
  620MOL0     C81768   6.613   4.840   2.121 -0.0440  0.0852  0.6545
  620MOL0     C81769   6.588   4.708   2.184  0.6192  0.6383  0.3888
  620MOL0     C81770   6.613   4.606   2.072 -0.9571 -0.7695  0.4093
  620MOL0     C81771   6.609   4.469   2.128  0.6084 -1.1904 -0.3382
  620MOL0     C81772   6.599   4.362   2.174  0.3820  0.3218 -0.4940
  620MOL0     C81773   6.309   5.123   1.982 -0.4031  0.8431 -0.0660
  620MOL0     C81774   6.245   5.247   1.960 -0.7030 -0.8541  0.0013
  620MOL0     H81775   6.169   5.770   1.927 -0.5026  0.8189  3.6291
  620MOL0     H81776   5.980   5.942   1.903  0.3983  0.6786  1.5448
  620MOL0     H81777   5.659   5.805   1.697 -3.1498  0.6624  2.2592
  620MOL0     H81778   5.755   5.947   1.683  2.1760 -1.9383  0.7441
  620MOL0     H81779   5.576   6.068   1.829 -1.4576 -0.3435  0.8523
  620MOL0     H81780   5.474   5.924   1.783 -0.4975 -0.5213 -1.4542
  620MOL0     H81781   5.519   5.981   1.546 -2.2826  0.2990 -0.5446
  620MOL0     H81782   5.616   6.113   1.613  0.8698 -0.3134  1.6397
  620MOL0     H81783   5.432   6.201   1.717  2.4727 -0.8893  2.2950
  620MOL0     H81784   5.390   6.198   1.537 -0.6830  1.8493  1.1224
  620MOL0     H81785   5.197   6.133   1.638 -0.0640 -0.4415  0.1587
  620MOL0     H81786   5.263   6.023   1.761 -2.4927 -0.3722 -1.3915
  620MOL0     H81787   5.147   5.887   1.586 -0.7796  1.8070  0.4352
  620MOL0     H81788   5.320   5.872   1.539  1.5663  1.2298  2.5746
  620MOL0     H81789   5.100   6.064   1.440 -0.3003 -0.3039  1.4610
  620MOL0     H81790   5.281   6.074   1.398  0.0144 -0.6789  0.2076
  620MOL0     H81791   5.169   5.986   1.215  0.9732 -2.5476 -1.1908
  620MOL0     H81792   5.068   5.893   1.326 -0.7030 -2.6362 -0.1287
  620MOL0     H81793   5.456   5.941   1.301  1.0254  0.1017  0.9415
  620MOL0     H81794   5.663   5.792   1.240  2.2562 -1.7811 -2.5419
  620MOL0     H81795   5.642   5.629   1.186 -1.2058  1.5186 -1.9157
  620MOL0     H81796   5.634   5.555   1.421  2.0367 -1.2784 -3.0385
  620MOL0     H81797   5.647   5.733   1.471  0.9299  1.1775 -0.5803
  620MOL0     H81798   5.867   5.549   1.365  2.7222 -0.7259  2.2306
  620MOL0     H81799   5.869   5.728   1.347  0.9358 -1.5534 -1.9668
  620MOL0     H81800   5.840   5.595   1.616  3.4632 -0.1962  1.0991
  620MOL0     H81801   5.902   5.751   1.569 -3.0184  1.1834 -3.1918
  620MOL0     H81802   6.260   5.480   1.520 -2.6255  2.3022  0.2152
  620MOL0     H81803   6.342   5.256   1.557  0.6623  0.8994  2.2819
  620MOL0     H81804   6.573   4.967   1.647  0.1659  0.0240  0.4664
  620MOL0     H81805   6.692   4.760   1.685  0.0079  1.0851 -2.4651
  620MOL0     H81806   6.465   4.373   1.689 -3.3029  2.4930  1.6164
  620MOL0     H81807   6.472   4.422   1.861 -0.9220  0.5696 -0.3165
  620MOL0     H81808   6.713   4.328   1.850  0.1035 -1.8227  0.5033
  620MOL0     H81809   6.662   4.256   1.695  1.9212  0.1778  0.4723
  620MOL0     H81810   6.490   4.131   1.799  2.3006 -0.0678 -1.6695
  620MOL0     H81811   6.534   4.203   1.959 -0.4276  2.4098 -0.4892
  620MOL0     H81812   6.737   4.047   1.789 -2.3275 -1.9044 -1.4702
  620MOL0     H81813   6.752   4.099   1.956 -1.3121 -1.7250  2.8175
  620MOL0     H81814   6.698   3.871   1.946 -1.2224 -2.1716 -1.9855
  620MOL0     H81815   6.554   3.899   1.842 -1.7054  1.9264 -0.6004
  620MOL0     H81816   6.409   3.922   1.995  1.2903 -1.4282 -1.6086
  620MOL0     H81817   6.480   4.041   2.086  0.0387 -0.6702  0.1339
  620MOL0     H81818   6.572   3.757   2.123 -3.1837  1.3882 -1.9137
  620MOL0     H81819   6.604   3.904   2.228  2.2392  1.0412 -2.2490
  620MOL0     H81820   6.418   3.771   2.335 -0.6342 -0.6303 -1.1882
  620MOL0     H81821   6.326   3.805   2.182  0.6509 -2.7988 -1.7843
  620MOL0     H81822   6.325   4.544   1.704  1.4103 -1.0589 -0.7604
  620MOL0     H81823   6.206   4.729   1.682 -0.0696  1.3346  2.3891
  620MOL0     H81824   5.938   5.135   1.641 -0.3383  0.1360 -1.7804
  620MOL0     H81825   5.854   5.371   1.596 -0.4998 -0.9916  3.5686
  620MOL0     H81826   5.695   5.623   1.891 -0.3079 -1.1681 -3.7372
  620MOL0     H81827   5.885   5.452   1.911  0.5892  0.5103 -0.1365
  620MOL0     H81828   6.501   5.441   1.833  0.9246 -1.2387  1.1084
  620MOL0     H81829   6.626   5.221   1.894  0.2738 -1.7657 -2.2660
  620MOL0     H81830   6.436   4.831   2.007  1.4032 -0.1581 -0.9872
  620MOL0     H81831   6.429   4.950   2.146  1.2252  1.6207 -0.1335
  620MOL0     H81832   6.675   4.837   2.031 -4.3509 -0.4380 -2.6442
  620MOL0     H81833   6.659   4.898   2.201 -0.4134  0.7257  0.4163
  620MOL0     H81834   6.487   4.707   2.225  1.1501 -1.3008  1.7517
  620MOL0     H81835   6.657   4.685   2.265  0.4062  0.5564  0.5482
  620MOL0     H81836   6.544   4.618   1.988 -1.2004  0.5764  0.7802
  620MOL0     H81837   6.715   4.612   2.033 -1.4391 -4.0107 -1.7479
  620MOL0     H81838   6.613   4.270   2.227  0.9120  0.2031 -0.8295
  620MOL0     H81839   6.253   5.045   2.032 -0.0817  1.6429  1.6012
  620MOL0     H81840   6.138   5.260   1.975 -0.8231 -0.2514 -1.2531
  621MOL0     O81841   9.297   5.353   5.869 -0.4894 -0.4429  0.3489
  621MOL0     C81842   9.289   5.393   5.749 -0.1729 -0.4267  0.1348
  621MOL0     O81843   9.362   5.336   5.643 -0.8609  0.0057 -0.2539
  621MOL0     C81844   9.483   5.265   5.665 -0.2161 -0.4540  1.0136
  621MOL0     C81845   9.587   5.282   5.573  0.1873 -0.1601 -0.1710
  621MOL0     C81846   9.714   5.215   5.588 -0.3895  0.8509  0.3525
  621MOL0     C81847   9.731   5.127   5.686 -0.8585  0.4970 -0.5093
  621MOL0     O81848   9.851   5.074   5.721  0.0079  0.4968 -0.1754
  621MOL0     C81849   9.973   5.118   5.648  0.0015 -0.3192 -0.0908
  621MOL0     C81850  10.085   5.021   5.685 -0.2633 -0.1767  0.0180
  621MOL0     C81851  10.185   5.025   5.577 -0.0462 -0.2188  0.1730
  621MOL0     C81852  10.320   4.942   5.593  0.3267 -0.6336 -0.2425
  621MOL0     C81853  10.388   4.916   5.465 -0.7520 -0.7642  0.0945
  621MOL0     C81854  10.521   4.828   5.471  0.2528 -0.0841  0.2713
  621MOL0     C81855  10.589   4.828   5.323  0.2955  0.1656 -0.4014
  621MOL0     C81856  10.691   4.948   5.325  0.4311 -0.3811  0.2400
  621MOL0     N81857  10.755   4.953   5.189  0.0371 -0.0091 -0.5747
  621MOL0     C81858  10.886   4.923   5.167  0.2199  0.8242 -0.2358
  621MOL0     C81859  10.909   4.969   5.049 -0.7837  0.7813  0.7661
  621MOL0     C81860  11.040   4.962   4.967 -0.0066 -0.4076  0.5092
  621MOL0     C81861  11.131   4.839   4.988  0.3034 -0.1796 -0.0926
  621MOL0     C81862  11.067   4.713   4.955  0.1923  0.8717  0.2206
  621MOL0     C81863  11.146   4.597   5.011  0.7016 -0.5582  0.5888
  621MOL0     O81864  11.096   4.479   4.949  0.4073  0.0388 -0.1509
  621MOL0     C81865  10.981   4.416   4.994  0.5241 -0.0311  0.0916
  621MOL0     C81866  10.967   4.280   4.959 -0.9582  0.2404  0.5628
  621MOL0     C81867  10.869   4.201   5.026  0.2650 -0.2753  0.1941
  621MOL0     C81868  10.783   4.250   5.124 -0.0351 -0.6683  0.0832
  621MOL0     C81869  10.670   4.161   5.166  0.4156 -0.7850 -0.9511
  621MOL0     O81870  10.694   4.028   5.161 -0.5312  0.9923  1.1061
  621MOL0     C81871  10.602   3.939   5.201 -0.6830  0.3232 -0.0407
  621MOL0     C81872  10.476   3.933   5.151 -0.5977  0.5706 -0.6745
  621MOL0     C81873  10.375   3.835   5.185  0.9928 -0.7355 -0.4425
  621MOL0     C81874  10.402   3.750   5.280  0.4839 -0.0488 -0.0256
  621MOL0     O81875  10.317   3.640   5.288 -0.1678  0.1648 -1.3704
  621MOL0     C81876  10.298   3.577   5.421 -0.4564 -0.5092  0.6913
  621MOL0     C81877  10.153   3.542   5.450  0.4464  0.5075  0.2120
  621MOL0     C81878  10.093   3.431   5.352  0.0023  0.2649 -0.2153
  621MOL0     C81879  10.161   3.286   5.339 -0.1280 -1.2477  0.5338
  621MOL0     C81880  10.202   3.242   5.482 -0.2599  0.5704 -0.1947
  621MOL0     C81881  10.078   3.221   5.569 -0.3204 -0.6508  0.8650
  621MOL0     C81882   9.964   3.131   5.517  0.0364 -0.2863 -0.5424
  621MOL0     C81883  10.022   2.990   5.502 -0.2372 -0.4677 -0.2443
  621MOL0    Cl81884  10.065   2.921   5.662 -0.1344 -0.1813 -0.6699
  621MOL0     C81885  10.533   3.752   5.347  0.2047 -0.3046  0.1845
  621MOL0     C81886  10.636   3.838   5.300 -0.8732  0.7399  0.5101
  621MOL0     O81887  10.575   4.214   5.226  0.5357  0.5476  0.6540
  621MOL0     C81888  10.799   4.390   5.157  0.1272  0.1967  0.1394
  621MOL0     C81889  10.895   4.468   5.092  0.3770  0.3072 -0.5342
  621MOL0     N81890  10.792   5.011   4.989 -0.3631 -0.6376 -0.5315
  621MOL0     N81891  10.701   5.003   5.070  1.1551 -0.6511 -0.5001
  621MOL0     C81892   9.625   5.102   5.771 -0.8541  0.2321 -0.2142
  621MOL0     C81893   9.497   5.167   5.762  0.6086  0.7234  0.2133
  621MOL0     C81894   9.172   5.470   5.724  0.6031 -1.0452  0.4377
  621MOL0     C81895   9.060   5.478   5.808  0.6409  0.7035 -0.8785
  621MOL0     C81896   8.940   5.564   5.784 -0.4657  0.3548 -0.7340
  621MOL0     C81897   8.949   5.629   5.661 -0.3985  1.4940  1.0268
  621MOL0     O81898   8.851   5.714   5.624  0.2012  0.5522  0.3379
  621MOL0     C81899   8.882   5.829   5.542  0.1868 -0.0884  0.1718
  621MOL0     C81900   8.777   5.945   5.555  0.9478  0.2300  0.7855
  621MOL0     C81901   8.640   5.907   5.508 -0.4877 -0.3079  0.2116
  621MOL0     C81902   8.554   6.023   5.548  0.8348  0.1941  0.2408
  621MOL0     C81903   8.422   5.986   5.502  0.6441 -0.3510  0.1620
  621MOL0     C81904   8.316   5.941   5.476  0.3391  0.1491  1.1238
  621MOL0     C81905   9.063   5.619   5.577  0.0375  1.2502 -0.5124
  621MOL0     C81906   9.176   5.551   5.613  0.2856 -0.2238  0.5573
  621MOL0     H81907   9.585   5.360   5.497  2.6567 -1.0103 -1.1876
  621MOL0     H81908   9.788   5.242   5.514 -2.4486 -2.3437 -3.2798
  621MOL0     H81909  10.004   5.218   5.681  0.2978 -1.6571  4.1928
  621MOL0     H81910   9.951   5.121   5.541 -0.3462 -4.1285 -0.2422
  621MOL0     H81911  10.047   4.919   5.702  1.5446 -1.4502 -2.7706
  621MOL0     H81912  10.132   5.055   5.778 -0.5330 -1.4581  0.6519
  621MOL0     H81913  10.212   5.130   5.562  0.2503  0.1312  2.7191
  621MOL0     H81914  10.130   4.996   5.487  0.5786  0.3954 -0.4259
  621MOL0     H81915  10.386   4.993   5.664 -1.9091 -0.4144  1.7842
  621MOL0     H81916  10.290   4.844   5.632  0.8023  1.2770  6.0221
  621MOL0     H81917  10.420   5.016   5.434  0.2196 -0.2414  2.5587
  621MOL0     H81918  10.323   4.888   5.382  0.0675 -1.5667 -0.2954
  621MOL0     H81919  10.495   4.723   5.484 -1.6051  0.0266 -1.8937
  621MOL0     H81920  10.585   4.878   5.544  0.3651 -0.9128  0.7415
  621MOL0     H81921  10.640   4.732   5.313  1.1815 -0.0905  4.1600
  621MOL0     H81922  10.519   4.828   5.240 -0.0057  0.6623 -0.1497
  621MOL0     H81923  10.764   4.932   5.405 -0.1295 -2.6143  0.3649
  621MOL0     H81924  10.631   5.039   5.333  0.4480 -0.2537 -0.9377
  621MOL0     H81925  10.959   4.882   5.236  2.6491  2.7111 -1.5247
  621MOL0     H81926  11.096   5.053   4.990 -1.7075  0.6516  0.6558
  621MOL0     H81927  11.022   4.955   4.859  1.8245  0.4516  0.0947
  621MOL0     H81928  11.173   4.845   5.089  0.4691  2.3083 -0.2594
  621MOL0     H81929  11.214   4.855   4.919 -1.7880  1.4648 -2.3937
  621MOL0     H81930  10.963   4.709   4.988  0.3954 -0.7026  0.7302
  621MOL0     H81931  11.080   4.680   4.851 -0.4397 -1.0647  0.7319
  621MOL0     H81932  11.131   4.596   5.119  0.3401 -0.3569  0.5452
  621MOL0     H81933  11.253   4.607   4.996  0.6318 -1.4877 -0.6237
  621MOL0     H81934  11.044   4.240   4.893  0.3716  1.8337  1.0602
  621MOL0     H81935  10.849   4.097   5.001  4.2208 -1.5973  1.6470
  621MOL0     H81936  10.446   4.010   5.081  0.1651 -0.8551 -2.6709
  621MOL0     H81937  10.286   3.832   5.123 -0.7326 -2.0416  1.9505
  621MOL0     H81938  10.335   3.643   5.499  0.3726  2.7568 -2.2251
  621MOL0     H81939  10.351   3.482   5.434 -1.8328 -1.1878  1.5921
  621MOL0     H81940  10.085   3.627   5.440 -0.3385 -0.1412 -0.0842
  621MOL0     H81941  10.134   3.512   5.553  0.1137  2.6523  0.8259
  621MOL0     H81942  10.088   3.458   5.246 -0.5694 -1.3621 -0.6334
  621MOL0     H81943   9.989   3.421   5.384  0.6473  0.3835  2.0993
  621MOL0     H81944  10.104   3.213   5.280 -0.1011 -0.9860  0.1822
  621MOL0     H81945  10.248   3.305   5.276 -0.5764  0.9150  0.4966
  621MOL0     H81946  10.263   3.321   5.528  1.1756 -0.4627 -0.2550
  621MOL0     H81947  10.270   3.157   5.469 -1.7602 -1.1808  2.5106
  621MOL0     H81948  10.026   3.314   5.594 -1.1883 -0.8511 -0.1549
  621MOL0     H81949  10.117   3.182   5.664 -3.8382  1.7857  3.5987
  621MOL0     H81950   9.883   3.115   5.588 -0.1821 -1.1137 -0.9697
  621MOL0     H81951   9.924   3.157   5.419 -1.1582 -3.9663 -1.1619
  621MOL0     H81952  10.109   2.982   5.436  1.5996 -2.1503  2.2103
  621MOL0     H81953   9.942   2.926   5.463 -1.0603  0.5907 -0.3159
  621MOL0     H81954  10.564   3.690   5.430 -0.7406  1.1558  1.7055
  621MOL0     H81955  10.733   3.839   5.347  1.0699 -1.0789 -3.0218
  621MOL0     H81956  10.738   4.439   5.232 -1.7789 -1.2069 -0.4367
  621MOL0     H81957  10.919   4.567   5.132  0.9729  0.2469 -0.7292
  621MOL0     H81958   9.639   5.053   5.867 -0.0203  0.8620 -0.0031
  621MOL0     H81959   9.419   5.130   5.828 -1.0768  0.4500 -1.8247
  621MOL0     H81960   9.067   5.410   5.892  1.5508  3.0776  1.1083
  621MOL0     H81961   8.855   5.561   5.850 -0.8329  2.7384 -1.0063
  621MOL0     H81962   8.882   5.785   5.441  3.2424 -0.4235  0.2408
  621MOL0     H81963   8.980   5.873   5.565  0.6374  0.2205 -2.0854
  621MOL0     H81964   8.766   5.970   5.661 -1.1895 -0.7546  0.8411
  621MOL0     H81965   8.819   6.036   5.509 -0.1171  0.0487 -0.5916
  621MOL0     H81966   8.620   5.813   5.561  0.5506  1.0134  3.1203
  621MOL0     H81967   8.636   5.902   5.399 -1.2151  1.5810  0.1245
  621MOL0     H81968   8.548   6.026   5.657 -4.3920 -0.6347  0.2276
  621MOL0     H81969   8.592   6.117   5.508  1.4896  1.0055  2.6023
  621MOL0     H81970   8.219   5.902   5.451  1.0067  0.0127 -1.5567
  621MOL0     H81971   9.068   5.674   5.484 -0.4933  1.1713 -0.5884
  621MOL0     H81972   9.272   5.559   5.563  1.4195 -0.1701  2.6550
  622MOL0     O81973   0.728   6.996  10.739  0.1852 -0.0978 -0.0464
  622MOL0     C81974   0.616   6.967  10.698  0.9799 -0.7565  0.0582
  622MOL0     O81975   0.582   6.936  10.566 -0.0499  0.1320 -0.0148
  622MOL0     C81976   0.676   6.942  10.464 -0.0400  0.5235 -0.2703
  622MOL0     C81977   0.700   7.061  10.402 -0.3379 -0.4122 -0.1958
  622MOL0     C81978   0.812   7.083  10.326  1.3798 -0.1655 -0.1390
  622MOL0     C81979   0.900   6.973  10.300 -1.0179 -0.4742  0.5126
  622MOL0     O81980   1.015   6.976  10.233 -0.6666 -0.2870 -0.0173
  622MOL0     C81981   1.042   7.104  10.161 -0.4124  0.1029  0.0901
  622MOL0     C81982   1.160   7.095  10.067  0.3760 -0.5373  0.3798
  622MOL0     C81983   1.286   7.123  10.151  0.1468  0.5910  0.2339
  622MOL0     C81984   1.408   7.089  10.068 -0.3480  0.1461 -0.3149
  622MOL0     C81985   1.538   7.108  10.156  0.1757 -0.3132  1.0838
  622MOL0     C81986   1.553   7.255  10.196 -0.1976 -0.2474  0.3025
  622MOL0     C81987   1.692   7.298  10.226  0.0948  0.1561  0.5337
  622MOL0     C81988   1.707   7.442  10.283 -0.3076 -0.1982 -0.0446
  622MOL0     N81989   1.847   7.481  10.274  0.4775 -0.4632 -0.1025
  622MOL0     C81990   1.948   7.448  10.360  0.3578  0.0268 -0.6700
  622MOL0     C81991   2.059   7.511  10.313 -0.4588 -0.2443  0.5976
  622MOL0     C81992   2.193   7.500  10.370 -0.6115 -0.4270  0.5027
  622MOL0     C81993   2.225   7.601  10.483 -0.1104  0.3330 -0.4917
  622MOL0     C81994   2.186   7.558  10.622  0.0244  0.2613 -0.2923
  622MOL0     C81995   2.178   7.679  10.722 -0.8033  0.4324  0.0278
  622MOL0     O81996   2.306   7.722  10.781  0.3276 -0.5766 -0.4399
  622MOL0     C81997   2.307   7.854  10.817 -1.0265  0.6826 -0.2199
  622MOL0     C81998   2.413   7.941  10.775  0.3681 -0.2859  0.4947
  622MOL0     C81999   2.404   8.078  10.804 -0.3200 -0.5002  0.4148
  622MOL0     C82000   2.290   8.129  10.872 -1.1768 -0.4979 -0.5165
  622MOL0     C82001   2.270   8.272  10.886  0.0776 -0.1644 -0.2221
  622MOL0     O82002   2.365   8.351  10.819 -0.7314  0.0868 -0.3758
  622MOL0     C82003   2.367   8.486  10.805  0.0911  0.1205  0.4536
  622MOL0     C82004   2.280   8.581  10.860  0.0154 -0.2088  0.3812
  622MOL0     C82005   2.302   8.719  10.847 -0.0434 -0.0449 -0.2645
  622MOL0     C82006   2.403   8.774  10.776 -0.7329 -0.0334 -0.3154
  622MOL0     O82007   2.425   8.915  10.780  0.5578 -0.3477  0.4134
  622MOL0     C82008   2.371   8.985  10.672  0.9483  0.3051 -0.9197
  622MOL0     C82009   2.449   9.113  10.651 -0.3332 -1.0551 -0.2178
  622MOL0     C82010   2.468   9.201  10.770 -0.1685  0.2044 -0.0981
  622MOL0     C82011   2.573   9.304  10.741 -1.5012  1.3627  1.3625
  622MOL0     C82012   2.579   9.401  10.858 -0.0284  0.4980 -0.1972
  622MOL0     C82013   2.448   9.482  10.863  0.3429  0.3902  0.0645
  622MOL0     C82014   2.441   9.563  10.999  0.4054 -1.0572 -0.0560
  622MOL0     C82015   2.502   9.711  10.981  0.1754  0.6766  0.4132
  622MOL0    Cl82016   2.424   9.811  10.851  0.0056  0.2282 -0.2081
  622MOL0     C82017   2.484   8.684  10.712 -0.3040  0.3001 -0.1258
  622MOL0     C82018   2.467   8.544  10.728  1.1227  0.2467 -0.3256
  622MOL0     O82019   2.170   8.315  10.945  0.3197  0.3788 -0.1049
  622MOL0     C82020   2.196   8.043  10.931 -0.0599  0.3587  0.4393
  622MOL0     C82021   2.207   7.907  10.907 -0.3550 -0.4535  0.6930
  622MOL0     N82022   2.031   7.589  10.197  0.0983 -0.3829 -0.7684
  622MOL0     N82023   1.903   7.557  10.180  0.6384 -0.8101 -0.1239
  622MOL0     C82024   0.878   6.849  10.360 -0.9330 -0.1143  0.4914
  622MOL0     C82025   0.760   6.834  10.439  1.1036 -0.0030  0.6101
  622MOL0     C82026   0.511   6.962  10.798 -0.4721  0.5453 -0.3997
  622MOL0     C82027   0.378   6.973  10.745  0.0600 -0.9990 -0.2822
  622MOL0     C82028   0.267   6.966  10.833  0.6153  0.7834 -0.3323
  622MOL0     C82029   0.277   6.953  10.968  0.2207  0.1449  1.0966
  622MOL0     O82030   0.171   6.940  11.060 -0.2484 -0.2093  0.1917
  622MOL0     C82031   0.038   6.941  11.013 -0.2088 -0.1839 -0.0418
  622MOL0     C82032   0.001   6.814  10.951  0.2218 -0.0404  0.9486
  622MOL0     C82033  -0.151   6.825  10.921  0.0030  0.5495 -0.0233
  622MOL0     C82034  -0.212   6.684  10.874 -0.3576 -0.3917  0.3310
  622MOL0     C82035  -0.199   6.583  10.977 -0.2799 -0.1371  0.2371
  622MOL0     C82036  -0.183   6.501  11.064  0.2087 -1.1811 -1.1142
  622MOL0     C82037   0.408   6.939  11.021 -0.7240 -0.9658 -1.2735
  622MOL0     C82038   0.527   6.947  10.940  1.0307  0.4363  1.2582
  622MOL0     H82039   0.644   7.146  10.440  0.4608 -0.5488  1.3696
  622MOL0     H82040   0.832   7.184  10.292  0.3212  0.3956  0.8378
  622MOL0     H82041   1.052   7.186  10.233 -0.3873  0.8427 -0.7344
  622MOL0     H82042   0.957   7.123  10.095 -0.8048  1.7912  1.0270
  622MOL0     H82043   1.158   7.173   9.990 -1.4398 -0.7995  0.1293
  622MOL0     H82044   1.160   6.998  10.017  0.9663 -2.8126  4.3309
  622MOL0     H82045   1.287   7.064  10.243  0.0733  1.8391  1.0658
  622MOL0     H82046   1.285   7.227  10.186  1.5337  1.8069 -2.9968
  622MOL0     H82047   1.399   6.984  10.038 -0.6753 -0.4540  1.6977
  622MOL0     H82048   1.408   7.154   9.980  0.0894 -2.5354 -2.4326
  622MOL0     H82049   1.629   7.088  10.097  2.1302 -0.4060  3.9447
  622MOL0     H82050   1.537   7.039  10.241  1.2593 -1.4489  0.2182
  622MOL0     H82051   1.483   7.273  10.278 -0.9643 -1.7823  0.0203
  622MOL0     H82052   1.533   7.319  10.110  1.3365 -2.5463 -1.8784
  622MOL0     H82053   1.742   7.230  10.295 -0.0623  0.8463  1.3303
  622MOL0     H82054   1.735   7.307  10.125 -4.4337  5.8097 -1.4940
  622MOL0     H82055   1.669   7.445  10.385 -0.0357  0.9755  0.0363
  622MOL0     H82056   1.643   7.505  10.219  1.6986  1.7695 -0.2376
  622MOL0     H82057   1.951   7.379  10.443 -4.6648 -0.0357 -0.2199
  622MOL0     H82058   2.265   7.514  10.289 -1.2849 -0.2636 -0.0777
  622MOL0     H82059   2.198   7.400  10.413 -0.3771  0.7745  3.4871
  622MOL0     H82060   2.163   7.682  10.444 -0.0968 -0.0028 -1.2365
  622MOL0     H82061   2.330   7.625  10.463  0.2315 -2.1463 -2.2809
  622MOL0     H82062   2.090   7.507  10.632 -1.3293  2.2174 -2.3016
  622MOL0     H82063   2.265   7.486  10.640  0.8277  1.6678  2.3672
  622MOL0     H82064   2.104   7.651  10.798  0.0256  0.6589  0.9428
  622MOL0     H82065   2.143   7.767  10.668 -4.2917  0.2552  1.7101
  622MOL0     H82066   2.489   7.900  10.709 -0.7602 -0.2051 -0.8758
  622MOL0     H82067   2.484   8.137  10.760 -0.2804  0.0018  1.1286
  622MOL0     H82068   2.193   8.548  10.915 -2.6458 -0.6055 -3.6183
  622MOL0     H82069   2.240   8.796  10.892 -3.0290 -1.0550 -2.3079
  622MOL0     H82070   2.263   9.006  10.675  0.3890 -2.2207 -0.9258
  622MOL0     H82071   2.379   8.917  10.587  2.8550  1.5168 -1.7553
  622MOL0     H82072   2.409   9.165  10.563 -0.1164 -1.9453 -0.8616
  622MOL0     H82073   2.550   9.082  10.624  0.3956  1.9911 -1.4590
  622MOL0     H82074   2.490   9.140  10.859  0.7990  2.8391  1.6052
  622MOL0     H82075   2.370   9.247  10.784 -0.3650  0.1454 -1.2207
  622MOL0     H82076   2.670   9.256  10.724 -0.5080  3.5085  0.6711
  622MOL0     H82077   2.553   9.353  10.645  0.2631  1.8796  1.2357
  622MOL0     H82078   2.662   9.472  10.852 -0.6188  1.3116  0.9562
  622MOL0     H82079   2.589   9.339  10.948 -2.1103  0.2452 -0.1007
  622MOL0     H82080   2.355   9.425  10.866  0.9644 -0.6175  0.4911
  622MOL0     H82081   2.430   9.546  10.776 -3.1924  1.2737  1.2609
  622MOL0     H82082   2.335   9.571  11.025  0.5331  1.3998 -0.0524
  622MOL0     H82083   2.494   9.520  11.084  0.4445  1.0636  1.0728
  622MOL0     H82084   2.610   9.705  10.964  0.2160  2.2946 -0.0270
  622MOL0     H82085   2.496   9.754  11.081 -0.5909 -0.6840  0.9869
  622MOL0     H82086   2.560   8.731  10.651 -0.1523 -0.6013 -0.6467
  622MOL0     H82087   2.535   8.467  10.692  0.5756  0.7464 -2.5391
  622MOL0     H82088   2.127   8.078  11.007 -0.7793 -0.0879 -0.0035
  622MOL0     H82089   2.153   7.830  10.962  1.7324 -2.0702  0.6039
  622MOL0     H82090   0.947   6.765  10.361  1.0920  1.4283 -0.9098
  622MOL0     H82091   0.751   6.740  10.492 -2.2593  0.0721  0.3548
  622MOL0     H82092   0.371   6.981  10.637  1.1736  0.5222 -0.2797
  622MOL0     H82093   0.168   6.974  10.790  0.8718  2.7401 -0.6517
  622MOL0     H82094   0.021   7.024  10.944 -2.3639 -1.0284 -0.6039
  622MOL0     H82095  -0.033   6.947  11.095 -0.9012  0.5094 -0.6745
  622MOL0     H82096   0.056   6.793  10.858 -1.1204  1.5462 -0.2619
  622MOL0     H82097   0.022   6.732  11.020  2.4501 -1.7281 -1.5001
  622MOL0     H82098  -0.168   6.898  10.841 -4.5966 -0.2147 -0.0376
  622MOL0     H82099  -0.213   6.832  11.011  0.2340 -0.8342  0.2694
  622MOL0     H82100  -0.318   6.697  10.850  0.2166  0.2378 -2.1741
  622MOL0     H82101  -0.165   6.649  10.782 -0.4945 -1.4214  0.6408
  622MOL0     H82102  -0.153   6.432  11.140 -0.3572 -2.2342 -1.8257
  622MOL0     H82103   0.432   6.944  11.126 -1.1023  1.3474 -1.2345
  622MOL0     H82104   0.626   6.924  10.977  1.0353 -0.9878  0.4495
  623MOL0     O82105   0.406   2.085   4.949  0.0585 -0.0589  0.2397
  623MOL0     C82106   0.464   2.192   4.939 -0.6312  0.5304  0.3450
  623MOL0     O82107   0.427   2.298   5.020 -0.2011 -0.5323 -0.3469
  623MOL0     C82108   0.302   2.312   5.084 -0.1470  0.1006 -0.2370
  623MOL0     C82109   0.300   2.398   5.197  0.4184  0.8530  0.5408
  623MOL0     C82110   0.187   2.402   5.281  0.5483 -0.3861 -0.4826
  623MOL0     C82111   0.071   2.333   5.247  0.0954  0.0129  0.7797
  623MOL0     O82112  -0.043   2.341   5.324  0.2311  0.1172  0.0613
  623MOL0     C82113  -0.171   2.322   5.261  0.7290 -0.2467  0.5627
  623MOL0     C82114  -0.284   2.332   5.367 -0.6019 -0.5081 -0.2384
  623MOL0     C82115  -0.282   2.478   5.420 -0.7436  0.5800 -0.1076
  623MOL0     C82116  -0.366   2.487   5.558  0.0178 -0.2260 -0.1462
  623MOL0     C82117  -0.513   2.495   5.523  0.3473  0.4887 -0.7245
  623MOL0     C82118  -0.566   2.638   5.550 -0.3006  0.4967  0.5737
  623MOL0     C82119  -0.542   2.728   5.426  0.6512  0.2508  0.2104
  623MOL0     C82120  -0.439   2.839   5.460 -0.6998  0.5481 -0.0711
  623MOL0     N82121  -0.431   2.926   5.339  1.3904 -0.0888 -0.3257
  623MOL0     C82122  -0.367   2.900   5.223 -0.1573  0.6453 -0.0445
  623MOL0     C82123  -0.407   2.991   5.137  0.2257 -0.4575 -1.2129
  623MOL0     C82124  -0.349   3.014   5.000  0.3072  1.0696 -0.7016
  623MOL0     C82125  -0.296   3.158   4.972  0.0508 -0.1667 -0.0411
  623MOL0     C82126  -0.236   3.191   4.836 -0.4358 -0.5037 -0.9117
  623MOL0     C82127  -0.121   3.104   4.775 -0.5115  0.2110 -0.3575
  623MOL0     O82128  -0.022   3.084   4.875 -0.4594  0.2454  0.5224
  623MOL0     C82129   0.103   3.095   4.826  0.3085  0.4706  0.0599
  623MOL0     C82130   0.190   3.197   4.881  0.3126 -0.3945 -0.8966
  623MOL0     C82131   0.322   3.218   4.827  0.4360  0.1541  0.2059
  623MOL0     C82132   0.371   3.135   4.724  0.2465 -0.1985  0.7404
  623MOL0     C82133   0.508   3.159   4.666 -0.4734 -0.1331  0.4553
  623MOL0     O82134   0.540   3.086   4.551  0.2232 -0.2708  0.0534
  623MOL0     C82135   0.665   3.094   4.504  0.7066 -0.1125 -0.5596
  623MOL0     C82136   0.775   3.060   4.586 -0.1284  0.7290  0.5550
  623MOL0     C82137   0.902   3.079   4.533 -0.5897 -0.3264 -0.4435
  623MOL0     C82138   0.923   3.097   4.396 -0.0650 -0.7138 -0.1037
  623MOL0     O82139   1.046   3.103   4.343 -0.6816  0.3553 -0.6662
  623MOL0     C82140   1.163   3.127   4.428 -0.4261  0.2232 -0.5160
  623MOL0     C82141   1.284   3.154   4.342  1.2604 -0.0964  0.3122
  623MOL0     C82142   1.280   3.302   4.298 -0.3955  0.1063  0.6124
  623MOL0     C82143   1.385   3.325   4.190  0.0324 -0.0172  0.1617
  623MOL0     C82144   1.441   3.467   4.196  0.2485 -0.1181 -0.0226
  623MOL0     C82145   1.338   3.571   4.212  0.0002  0.5845  0.1501
  623MOL0     C82146   1.282   3.608   4.067 -0.1517  0.2229  0.3090
  623MOL0     C82147   1.160   3.693   4.060  0.1601  0.1993 -0.7927
  623MOL0    Cl82148   1.117   3.715   3.877  0.1847  0.0666 -0.0184
  623MOL0     C82149   0.811   3.117   4.312 -0.6688 -0.8630 -0.5736
  623MOL0     C82150   0.684   3.116   4.368  0.4044  0.2226  0.3981
  623MOL0     O82151   0.577   3.253   4.712  0.0983  0.3184 -0.3283
  623MOL0     C82152   0.286   3.032   4.681  0.2250 -0.7047  0.1468
  623MOL0     C82153   0.151   3.023   4.719  0.4839  0.4947  0.2148
  623MOL0     N82154  -0.521   3.061   5.189 -0.6277  0.1666 -0.5535
  623MOL0     N82155  -0.525   3.027   5.310  0.7728  0.3964  0.2347
  623MOL0     C82156   0.069   2.260   5.124 -0.4209  0.7094  0.7381
  623MOL0     C82157   0.186   2.253   5.045  0.5365  0.7906  0.0367
  623MOL0     C82158   0.601   2.202   4.877  0.0004  0.1528 -0.5443
  623MOL0     C82159   0.674   2.308   4.919 -1.0393  0.7244  0.3171
  623MOL0     C82160   0.805   2.321   4.869  0.6461 -0.0559 -0.0159
  623MOL0     C82161   0.861   2.217   4.794 -1.3459  0.2587 -0.5049
  623MOL0     O82162   0.996   2.221   4.742 -0.1333 -0.8249 -0.0743
  623MOL0     C82163   1.098   2.301   4.801  0.3874 -0.1224  0.6152
  623MOL0     C82164   1.122   2.264   4.946 -0.3622  0.5247 -0.0229
  623MOL0     C82165   1.240   2.328   5.010  0.7784 -0.7648  0.2919
  623MOL0     C82166   1.200   2.476   5.048  0.7431  0.1198 -0.6907
  623MOL0     C82167   1.303   2.553   5.112 -0.0106  0.4510 -0.8714
  623MOL0     C82168   1.397   2.619   5.144  0.4400  0.4367 -0.1132
  623MOL0     C82169   0.784   2.116   4.752  0.2560 -0.2902 -0.6082
  623MOL0     C82170   0.656   2.103   4.800  0.1536  0.0302 -0.2845
  623MOL0     H82171   0.390   2.454   5.219 -0.4897  1.7245  2.2316
  623MOL0     H82172   0.187   2.461   5.373 -0.4730 -3.0385  1.3225
  623MOL0     H82173  -0.177   2.226   5.210 -0.5510 -0.7782  1.6479
  623MOL0     H82174  -0.188   2.404   5.191  2.3189  1.5579  2.1604
  623MOL0     H82175  -0.263   2.273   5.457 -1.0623  4.6107  3.6401
  623MOL0     H82176  -0.385   2.313   5.330 -1.9789  0.6368  2.6998
  623MOL0     H82177  -0.318   2.549   5.345  1.1203  2.4436  0.6675
  623MOL0     H82178  -0.185   2.516   5.454 -0.8785 -0.4371  1.4981
  623MOL0     H82179  -0.340   2.397   5.615  0.5677  1.0024  1.6094
  623MOL0     H82180  -0.331   2.573   5.616  2.5569 -1.3560  0.1718
  623MOL0     H82181  -0.573   2.431   5.588  0.1514  3.1365  1.9314
  623MOL0     H82182  -0.524   2.460   5.420  2.1947 -0.4857 -0.6335
  623MOL0     H82183  -0.532   2.684   5.644  0.2224 -0.3858  0.8313
  623MOL0     H82184  -0.674   2.629   5.562 -0.0748 -0.1428  2.5755
  623MOL0     H82185  -0.510   2.667   5.341 -1.3339 -0.3730 -0.1439
  623MOL0     H82186  -0.629   2.782   5.388 -0.8578 -0.4225  2.4784
  623MOL0     H82187  -0.341   2.792   5.476  0.8963  3.6463  0.1989
  623MOL0     H82188  -0.475   2.886   5.552 -1.7083 -0.9177  0.3062
  623MOL0     H82189  -0.290   2.828   5.198 -0.5674 -0.0581  0.6417
  623MOL0     H82190  -0.434   2.991   4.935  0.0727  0.5030 -0.2046
  623MOL0     H82191  -0.265   2.945   4.990 -1.7117 -1.5332 -0.8420
  623MOL0     H82192  -0.221   3.172   5.051 -0.6652  0.2978  0.5681
  623MOL0     H82193  -0.370   3.235   4.996 -2.1315 -2.7676  2.3216
  623MOL0     H82194  -0.315   3.203   4.762  0.5823  1.3304 -1.7702
  623MOL0     H82195  -0.195   3.292   4.848 -2.9235  0.4279  0.5204
  623MOL0     H82196  -0.077   3.157   4.691 -0.0927 -0.9668 -0.8946
  623MOL0     H82197  -0.158   3.010   4.735 -1.4964 -1.0355  3.1312
  623MOL0     H82198   0.159   3.263   4.961  1.3516 -1.4459  0.4160
  623MOL0     H82199   0.384   3.299   4.865  0.3697  1.5039 -2.3687
  623MOL0     H82200   0.762   3.046   4.693 -0.5506  1.2524  0.5763
  623MOL0     H82201   0.985   3.064   4.600 -0.6953  0.6042 -0.0874
  623MOL0     H82202   1.196   3.038   4.482  2.1379 -1.9377 -5.0378
  623MOL0     H82203   1.150   3.213   4.494  0.0595 -1.9725  2.6289
  623MOL0     H82204   1.279   3.080   4.262  0.7675  0.2695  0.0047
  623MOL0     H82205   1.374   3.156   4.405  1.1045  1.7282  0.5330
  623MOL0     H82206   1.310   3.362   4.384  3.0818 -0.5228 -0.0403
  623MOL0     H82207   1.184   3.335   4.255  1.1276  2.4317 -1.2649
  623MOL0     H82208   1.469   3.258   4.209 -0.6465 -1.2106 -0.8701
  623MOL0     H82209   1.340   3.298   4.094 -0.6049  0.5434  0.2948
  623MOL0     H82210   1.515   3.477   4.115  1.5064 -1.5435  0.8964
  623MOL0     H82211   1.495   3.462   4.291  1.8331 -3.0814 -0.9482
  623MOL0     H82212   1.384   3.660   4.256  0.7630  1.6354 -2.5472
  623MOL0     H82213   1.255   3.547   4.279  0.3337  4.8768  2.4282
  623MOL0     H82214   1.352   3.654   3.997 -1.0068  2.3960  0.7964
  623MOL0     H82215   1.241   3.516   4.024 -2.0656  1.1206  0.0904
  623MOL0     H82216   1.181   3.790   4.104 -1.1235  0.5632 -0.9159
  623MOL0     H82217   1.078   3.644   4.114 -2.4082  2.5827 -2.2641
  623MOL0     H82218   0.824   3.128   4.205  0.1075  0.5588 -0.3597
  623MOL0     H82219   0.598   3.128   4.302  0.2874 -2.0126  0.0831
  623MOL0     H82220   0.319   2.962   4.606  1.8521 -1.4606  1.5031
  623MOL0     H82221   0.083   2.944   4.687 -1.3026  0.5985  3.3818
  623MOL0     H82222  -0.011   2.192   5.099 -0.1869  0.4005  0.8204
  623MOL0     H82223   0.182   2.182   4.963 -0.8143  1.5714 -0.5918
  623MOL0     H82224   0.641   2.383   4.990 -2.1198 -0.8254  1.5213
  623MOL0     H82225   0.845   2.418   4.897  0.1680 -0.2801  1.5221
  623MOL0     H82226   1.069   2.406   4.815 -3.2227 -0.7985 -0.5148
  623MOL0     H82227   1.189   2.282   4.745  0.9714  0.4477  1.3502
  623MOL0     H82228   1.035   2.288   5.008  1.0379  0.1861  2.2058
  623MOL0     H82229   1.145   2.157   4.948  2.5331  1.0652  1.2514
  623MOL0     H82230   1.334   2.325   4.954  0.8154 -0.5507  0.3384
  623MOL0     H82231   1.252   2.263   5.096 -1.2415 -1.1815  0.3128
  623MOL0     H82232   1.175   2.535   4.959 -1.6187 -1.6098 -1.2962
  623MOL0     H82233   1.115   2.469   5.117 -0.1312 -1.5353 -1.8496
  623MOL0     H82234   1.478   2.677   5.183  2.5648 -1.3230 -1.6196
  623MOL0     H82235   0.826   2.046   4.680 -0.0316  0.6458 -1.7122
  623MOL0     H82236   0.599   2.017   4.767 -0.4387 -0.7937  2.6253
  624MOL0     O82237   5.249   3.363   0.119  0.1857  0.1165  0.6981
  624MOL0     C82238   5.297   3.441   0.199 -0.3866 -0.0063 -0.7788
  624MOL0     O82239   5.326   3.409   0.334  0.7397 -0.6651  0.3426
  624MOL0     C82240   5.329   3.275   0.375  0.3693  0.2492 -0.1311
  624MOL0     C82241   5.260   3.240   0.486 -0.5271  1.0261 -0.1605
  624MOL0     C82242   5.233   3.103   0.526  0.1883 -0.9621  0.5584
  624MOL0     C82243   5.311   3.007   0.463  0.4470  0.4924 -0.9155
  624MOL0     O82244   5.292   2.879   0.512  0.0346 -0.8177 -0.5714
  624MOL0     C82245   5.282   2.770   0.422  0.2039 -0.2609 -0.5900
  624MOL0     C82246   5.244   2.644   0.504 -0.2316 -0.5685  0.4425
  624MOL0     C82247   5.100   2.647   0.542  0.3286 -0.8082 -0.4001
  624MOL0     C82248   5.062   2.516   0.604  0.3358 -0.4522  0.5180
  624MOL0     C82249   5.064   2.517   0.756 -0.6097 -0.4778 -1.0888
  624MOL0     C82250   4.942   2.580   0.818 -0.7315 -0.0640 -0.3338
  624MOL0     C82251   4.957   2.598   0.969 -0.2808 -0.5241  0.2929
  624MOL0     C82252   5.051   2.708   1.018 -0.6956 -0.6315 -0.0598
  624MOL0     N82253   5.032   2.757   1.156 -0.5389 -0.1766  0.1566
  624MOL0     C82254   4.995   2.877   1.201 -0.1128  0.0241  0.4783
  624MOL0     C82255   5.016   2.887   1.336 -1.2752 -0.6579  0.9151
  624MOL0     C82256   4.988   3.004   1.424  0.8219 -0.4514 -0.5082
  624MOL0     C82257   5.093   3.113   1.427  0.1700  0.0566  0.8502
  624MOL0     C82258   5.064   3.244   1.497  0.1473 -0.4148  0.2445
  624MOL0     C82259   4.990   3.249   1.639  0.4406 -1.0795  0.7696
  624MOL0     O82260   4.848   3.212   1.621 -0.6020 -0.2937 -0.0851
  624MOL0     C82261   4.782   3.185   1.728  0.6458 -0.1316 -1.5410
  624MOL0     C82262   4.792   3.071   1.803  0.0107  0.7750 -0.7401
  624MOL0     C82263   4.725   3.049   1.928  0.8108  0.4413 -0.0807
  624MOL0     C82264   4.635   3.144   1.979 -0.1482  0.2395  0.2866
  624MOL0     C82265   4.550   3.127   2.100  0.9396 -0.3905  0.6623
  624MOL0     O82266   4.562   3.006   2.160  0.9373  0.1479 -0.1409
  624MOL0     C82267   4.461   2.961   2.251  0.0107 -0.3405  0.4530
  624MOL0     C82268   4.416   3.034   2.365 -0.6523 -0.3792  1.0189
  624MOL0     C82269   4.341   2.963   2.460 -0.3780  0.1439  0.2823
  624MOL0     C82270   4.291   2.834   2.432 -0.8630  0.2412 -0.0849
  624MOL0     O82271   4.229   2.769   2.534 -0.1687 -0.0432 -0.3845
  624MOL0     C82272   4.131   2.821   2.623  0.1855  0.2247 -0.1167
  624MOL0     C82273   4.018   2.908   2.557 -0.7033 -0.0418 -0.7392
  624MOL0     C82274   3.985   3.003   2.685 -0.4919  1.1767  0.6011
  624MOL0     C82275   3.850   3.063   2.672  1.1133 -0.0660  0.0284
  624MOL0     C82276   3.800   3.118   2.807 -0.1071 -0.6212 -0.1462
  624MOL0     C82277   3.686   3.211   2.778  0.0834  0.3385  0.0324
  624MOL0     C82278   3.626   3.273   2.901  0.7116 -0.0245 -0.5292
  624MOL0     C82279   3.506   3.362   2.861  0.9412 -0.1360 -0.1232
  624MOL0    Cl82280   3.351   3.262   2.863  0.2271  0.5008  0.1363
  624MOL0     C82281   4.323   2.776   2.316  0.0469 -0.9987 -0.1264
  624MOL0     C82282   4.415   2.830   2.226  0.4724  0.0033  0.3490
  624MOL0     O82283   4.450   3.212   2.120 -0.5422 -0.2366  0.3863
  624MOL0     C82284   4.628   3.256   1.903 -0.2910 -0.5545  0.4087
  624MOL0     C82285   4.695   3.283   1.782  0.0257 -0.8388 -0.6459
  624MOL0     N82286   5.078   2.763   1.377 -0.3588 -0.8466  0.9293
  624MOL0     N82287   5.099   2.693   1.261  1.1236 -0.3679 -0.1298
  624MOL0     C82288   5.388   3.040   0.349 -0.4219  1.5841 -0.0773
  624MOL0     C82289   5.385   3.169   0.305  0.9101  0.3849  0.6476
  624MOL0     C82290   5.351   3.566   0.150 -0.4296  0.1496 -0.0748
  624MOL0     C82291   5.293   3.631   0.051 -0.3247  0.1452 -0.2079
  624MOL0     C82292   5.342   3.758   0.015  0.5960 -0.4883  1.5057
  624MOL0     C82293   5.465   3.811   0.058 -0.5317 -0.3372  0.3108
  624MOL0     O82294   5.527   3.922   0.019 -0.6497  0.5406  0.9178
  624MOL0     C82295   5.460   4.011  -0.076 -0.5682 -0.0014 -0.2365
  624MOL0     C82296   5.551   4.122  -0.133 -0.2287 -1.0432  0.1187
  624MOL0     C82297   5.561   4.243  -0.038 -1.3009  0.0028 -0.1161
  624MOL0     C82298   5.686   4.237   0.054 -0.2571 -0.8499  0.0903
  624MOL0     C82299   5.671   4.324   0.171 -0.6682  0.0526  0.9206
  624MOL0     C82300   5.656   4.402   0.265  1.1721 -0.1515 -0.9452
  624MOL0     C82301   5.533   3.731   0.155 -0.6455  0.5063 -0.4933
  624MOL0     C82302   5.466   3.617   0.207 -0.6992 -0.2959 -0.0591
  624MOL0     H82303   5.202   3.312   0.543  0.1963 -0.3423  2.4748
  624MOL0     H82304   5.170   3.078   0.611  0.0218  0.3372  0.8444
  624MOL0     H82305   5.375   2.747   0.370  0.5952 -1.6906  0.6750
  624MOL0     H82306   5.198   2.791   0.354  0.0105  2.6540  0.4009
  624MOL0     H82307   5.303   2.644   0.596 -1.9366  2.5551  1.6694
  624MOL0     H82308   5.270   2.560   0.439 -0.1350 -0.8180  0.8038
  624MOL0     H82309   5.029   2.651   0.459  0.0953 -1.1725 -0.2218
  624MOL0     H82310   5.074   2.730   0.609 -1.9583  0.0118 -2.1552
  624MOL0     H82311   4.965   2.481   0.567  1.7140 -2.1062 -1.8951
  624MOL0     H82312   5.116   2.429   0.564 -2.5930 -2.3455  0.3293
  624MOL0     H82313   5.151   2.577   0.782 -2.3084  2.5301 -1.9137
  624MOL0     H82314   5.069   2.420   0.806 -1.3131  0.8880  1.8122
  624MOL0     H82315   4.868   2.506   0.789 -0.6864 -0.2876  0.1215
  624MOL0     H82316   4.922   2.671   0.761 -1.4853  0.2287  0.3851
  624MOL0     H82317   4.855   2.617   1.002  0.3925  2.8562  0.8370
  624MOL0     H82318   4.980   2.506   1.023  0.2609 -0.5659  0.0071
  624MOL0     H82319   5.056   2.791   0.948 -0.4783 -1.0162 -0.5066
  624MOL0     H82320   5.154   2.671   1.011  0.1279  1.4987  0.0898
  624MOL0     H82321   4.965   2.955   1.132  0.7917  1.8411  2.0667
  624MOL0     H82322   4.988   2.965   1.526  1.4299  2.7351  0.8262
  624MOL0     H82323   4.895   3.056   1.401  1.9272  2.0815  0.4166
  624MOL0     H82324   5.123   3.131   1.323 -2.0067  1.2858  0.3802
  624MOL0     H82325   5.175   3.061   1.477 -1.4795 -1.7837  1.7826
  624MOL0     H82326   5.161   3.291   1.512 -0.1056  0.5083 -0.8900
  624MOL0     H82327   5.000   3.303   1.430  1.8414 -1.0606 -2.0567
  624MOL0     H82328   4.997   3.352   1.677 -0.9767  0.1916 -2.1115
  624MOL0     H82329   5.033   3.177   1.709  2.5536  0.1943  0.8900
  624MOL0     H82330   4.858   2.991   1.773 -0.4860 -0.2134  0.6982
  624MOL0     H82331   4.725   2.957   1.986 -1.7775 -0.7799 -1.8028
  624MOL0     H82332   4.451   3.134   2.393  0.4732 -0.7985  1.1726
  624MOL0     H82333   4.307   3.012   2.550  1.9193 -2.5383  2.8261
  624MOL0     H82334   4.197   2.879   2.689 -0.1958  1.0504 -0.4456
  624MOL0     H82335   4.088   2.731   2.666  2.0637 -1.4271 -1.5413
  624MOL0     H82336   3.946   2.840   2.512 -1.9676  2.2471 -2.4156
  624MOL0     H82337   4.058   2.977   2.482 -0.5802  0.7564  0.0345
  624MOL0     H82338   4.062   3.081   2.683  0.1640  0.5296 -0.4592
  624MOL0     H82339   3.981   2.952   2.782  1.5259  2.0485  1.2008
  624MOL0     H82340   3.847   3.145   2.601 -0.6399  0.6468  0.8637
  624MOL0     H82341   3.770   2.996   2.639  0.2924  1.1949 -0.6258
  624MOL0     H82342   3.873   3.170   2.870 -2.7719  2.8653  0.3953
  624MOL0     H82343   3.761   3.037   2.869 -0.3640  1.0323  1.9983
  624MOL0     H82344   3.602   3.151   2.742  1.0385 -1.3957  0.5653
  624MOL0     H82345   3.713   3.295   2.713  2.2353  2.1221  2.9393
  624MOL0     H82346   3.590   3.198   2.972  0.7606  3.6069  3.7995
  624MOL0     H82347   3.698   3.330   2.961  0.1227 -2.3147  2.6122
  624MOL0     H82348   3.506   3.395   2.757 -1.8252  2.6953  0.6129
  624MOL0     H82349   3.502   3.454   2.920 -0.2457 -0.4833  0.3522
  624MOL0     H82350   4.292   2.673   2.304  1.9043 -1.3967 -2.1480
  624MOL0     H82351   4.448   2.773   2.140  0.7389  0.3955  0.1848
  624MOL0     H82352   4.558   3.336   1.928  0.4823  0.1126  0.4610
  624MOL0     H82353   4.680   3.371   1.721 -1.0099 -0.7785 -0.3160
  624MOL0     H82354   5.421   2.957   0.288  0.3871  2.1291 -0.4022
  624MOL0     H82355   5.434   3.185   0.210 -1.2078 -0.8133 -0.7337
  624MOL0     H82356   5.202   3.596   0.002  0.3446 -0.4799 -1.0207
  624MOL0     H82357   5.289   3.812  -0.063  0.1773 -1.1826  1.3059
  624MOL0     H82358   5.372   4.066  -0.041 -0.8226  0.9283 -2.2124
  624MOL0     H82359   5.419   3.956  -0.162 -2.5934  2.5346 -1.0342
  624MOL0     H82360   5.650   4.082  -0.157  1.0467  2.1241 -0.3792
  624MOL0     H82361   5.491   4.160  -0.217  0.6925 -0.9966 -0.5325
  624MOL0     H82362   5.468   4.229   0.018  0.6165 -3.7443  2.5377
  624MOL0     H82363   5.558   4.338  -0.093 -1.6879 -1.5396 -2.9892
  624MOL0     H82364   5.694   4.135   0.091  1.3544 -0.8612 -0.2001
  624MOL0     H82365   5.777   4.271   0.003  0.2367 -0.2113  1.3231
  624MOL0     H82366   5.653   4.472   0.346  0.6766  2.3565 -2.9863
  624MOL0     H82367   5.628   3.749   0.205  0.0854 -0.6626 -1.4196
  624MOL0     H82368   5.516   3.564   0.288 -0.1885 -1.0513 -0.8577
  625MOL0     O82369   7.958   4.930   7.901  0.1163  0.1195  0.2006
  625MOL0     C82370   7.858   4.948   7.835  0.1067 -0.8751  0.2819
  625MOL0     O82371   7.792   4.863   7.751 -0.6475  0.7510  0.3375
  625MOL0     C82372   7.854   4.735   7.739  0.6210 -0.5172 -0.2967
  625MOL0     C82373   7.953   4.719   7.646 -0.1647  0.8439  0.3412
  625MOL0     C82374   8.014   4.583   7.633 -0.4624 -0.7477  0.6485
  625MOL0     C82375   7.981   4.480   7.722  0.2196  0.7402  1.5278
  625MOL0     O82376   8.070   4.369   7.709  0.0814  0.0434  0.7623
  625MOL0     C82377   8.097   4.301   7.827  0.7960 -0.3215  0.1770
  625MOL0     C82378   8.197   4.193   7.800 -0.1788  0.9371  0.2665
  625MOL0     C82379   8.311   4.182   7.904 -0.0173  0.0224 -0.2458
  625MOL0     C82380   8.382   4.052   7.913 -0.1033 -0.7023 -0.3572
  625MOL0     C82381   8.469   4.021   7.801 -0.0377  0.7448 -0.2011
  625MOL0     C82382   8.513   3.877   7.806  0.3034 -0.5402  0.5910
  625MOL0     C82383   8.389   3.782   7.772  1.8872 -0.1440 -0.1993
  625MOL0     C82384   8.427   3.633   7.791  0.0985 -0.4506 -0.3604
  625MOL0     N82385   8.509   3.571   7.693  0.1015 -0.7843  0.1602
  625MOL0     C82386   8.499   3.454   7.634  0.8200  0.2840  0.9892
  625MOL0     C82387   8.611   3.445   7.557 -0.2290 -0.2674 -0.7253
  625MOL0     C82388   8.647   3.324   7.475  0.0984 -0.4512 -0.6632
  625MOL0     C82389   8.587   3.350   7.343 -0.5957  0.1656  0.4744
  625MOL0     C82390   8.653   3.455   7.248  0.1360  0.5581  0.2005
  625MOL0     C82391   8.573   3.536   7.157 -0.3685  0.0430 -0.0663
  625MOL0     O82392   8.471   3.463   7.083 -0.7973  0.0534  0.6417
  625MOL0     C82393   8.367   3.532   7.024 -0.4724 -0.5130  0.0372
  625MOL0     C82394   8.381   3.660   6.970  0.1329 -0.3366 -0.0182
  625MOL0     C82395   8.271   3.730   6.931  0.6749  0.0620  0.0694
  625MOL0     C82396   8.152   3.673   6.924 -0.4242  0.4428 -1.4403
  625MOL0     C82397   8.032   3.748   6.890  0.9138  0.5838  0.9139
  625MOL0     O82398   8.028   3.887   6.916  0.3855  0.4821 -0.2035
  625MOL0     C82399   7.907   3.955   6.895  0.0369  0.3325 -0.8982
  625MOL0     C82400   7.863   4.038   7.003  0.5088 -0.0417  0.5456
  625MOL0     C82401   7.725   4.077   7.011  0.3493  0.7859  0.1801
  625MOL0     C82402   7.632   4.031   6.908  0.7821 -0.3799  0.2183
  625MOL0     O82403   7.497   4.059   6.933 -0.1090  0.0883 -0.2883
  625MOL0     C82404   7.417   4.124   6.833  1.3049  0.2908  0.5457
  625MOL0     C82405   7.462   4.264   6.825  0.2200 -0.3072 -0.4259
  625MOL0     C82406   7.556   4.301   6.705 -0.2326 -0.5770  0.0586
  625MOL0     C82407   7.507   4.435   6.642 -0.1143  0.4900  0.5328
  625MOL0     C82408   7.383   4.425   6.560  0.4236 -0.1695  0.2981
  625MOL0     C82409   7.318   4.559   6.561  0.5126  0.1680 -0.3478
  625MOL0     C82410   7.189   4.548   6.474  0.2990  0.7336  0.0664
  625MOL0     C82411   7.111   4.685   6.476 -0.7067  0.8827 -0.4355
  625MOL0    Cl82412   7.081   4.748   6.630 -0.1646 -0.5403 -0.0831
  625MOL0     C82413   7.686   3.971   6.794 -0.3608  0.2411 -0.0483
  625MOL0     C82414   7.820   3.929   6.789  0.0907  0.3235 -0.5276
  625MOL0     O82415   7.937   3.685   6.859 -0.3560  0.2419  0.4686
  625MOL0     C82416   8.144   3.530   6.961  0.0597 -0.6619  0.1660
  625MOL0     C82417   8.253   3.464   7.020 -0.0381 -0.2837  0.2053
  625MOL0     N82418   8.694   3.550   7.581 -0.3600 -0.1762  0.1966
  625MOL0     N82419   8.629   3.626   7.652  0.3252 -0.7633  0.4450
  625MOL0     C82420   7.881   4.501   7.812  0.4195 -0.0226  1.0712
  625MOL0     C82421   7.819   4.631   7.824  0.2843 -0.2059  0.2471
  625MOL0     C82422   7.807   5.083   7.854 -0.8613  0.4553  0.0393
  625MOL0     C82423   7.892   5.199   7.876  0.2635 -0.0458  0.4584
  625MOL0     C82424   7.829   5.326   7.884 -0.8151 -0.0434 -0.4587
  625MOL0     C82425   7.698   5.340   7.867 -0.3723  0.0689 -0.0005
  625MOL0     O82426   7.639   5.466   7.882  0.0510 -0.7915  0.1809
  625MOL0     C82427   7.697   5.599   7.881  0.4730  0.9815 -0.3765
  625MOL0     C82428   7.582   5.696   7.904  0.2051 -0.9774 -0.3875
  625MOL0     C82429   7.623   5.789   8.015 -0.2533  0.8715 -0.2376
  625MOL0     C82430   7.580   5.931   8.003 -0.0481  0.4591  0.2122
  625MOL0     C82431   7.440   5.930   8.046  0.0744  0.4711  0.4872
  625MOL0     C82432   7.317   5.925   8.066 -0.6671  0.2567  0.5336
  625MOL0     C82433   7.618   5.227   7.853 -0.0446 -0.5396  0.1251
  625MOL0     C82434   7.669   5.097   7.851  0.7919  0.2500 -0.1599
  625MOL0     H82435   7.985   4.807   7.591  0.2192 -2.0331 -4.6465
  625MOL0     H82436   8.105   4.574   7.575 -0.3350 -1.6891  0.9722
  625MOL0     H82437   8.002   4.268   7.868  0.0191 -0.1175 -1.3836
  625MOL0     H82438   8.139   4.375   7.896 -1.4952 -1.0278  2.4600
  625MOL0     H82439   8.258   4.210   7.710  1.2865  0.4722  1.1389
  625MOL0     H82440   8.146   4.096   7.790  2.3330 -0.4635  0.2668
  625MOL0     H82441   8.271   4.190   8.006  2.7754 -2.3254  1.1946
  625MOL0     H82442   8.385   4.262   7.894 -0.5009  0.4361 -0.5432
  625MOL0     H82443   8.444   4.053   8.003 -4.5137 -3.7676  3.1348
  625MOL0     H82444   8.311   3.972   7.932  1.3098 -1.4926  2.0079
  625MOL0     H82445   8.555   4.088   7.808  0.3386  0.1332  2.0907
  625MOL0     H82446   8.412   4.032   7.709  0.5227  0.1939 -0.6256
  625MOL0     H82447   8.563   3.852   7.900  0.6247 -1.7408  0.1142
  625MOL0     H82448   8.598   3.874   7.737 -1.8681  0.9905 -2.3537
  625MOL0     H82449   8.299   3.793   7.833 -0.3023  1.8478 -3.4519
  625MOL0     H82450   8.346   3.799   7.673  1.6390 -1.8735 -0.4211
  625MOL0     H82451   8.334   3.574   7.794  0.3213 -0.8364 -0.8545
  625MOL0     H82452   8.473   3.629   7.890  1.8715 -4.7808 -1.1339
  625MOL0     H82453   8.415   3.385   7.638  0.7431  0.3397  0.3563
  625MOL0     H82454   8.608   3.228   7.508  3.0850 -1.5114  0.1400
  625MOL0     H82455   8.756   3.311   7.469  0.1256 -0.3741 -0.3779
  625MOL0     H82456   8.478   3.355   7.351 -0.6117  0.2686  0.1976
  625MOL0     H82457   8.592   3.258   7.285 -0.0966  1.1756 -1.1487
  625MOL0     H82458   8.701   3.539   7.298  0.4994  1.3424 -1.4069
  625MOL0     H82459   8.727   3.405   7.184 -0.0744  1.8306 -1.0805
  625MOL0     H82460   8.641   3.600   7.100  2.3555 -0.6593  2.1530
  625MOL0     H82461   8.515   3.603   7.221 -1.6260 -1.4302  0.4068
  625MOL0     H82462   8.477   3.706   6.949 -1.1595  1.8673 -1.4622
  625MOL0     H82463   8.277   3.836   6.910  2.0129 -0.2764 -1.4368
  625MOL0     H82464   7.931   4.057   7.085  1.4072 -0.4781 -0.0855
  625MOL0     H82465   7.685   4.123   7.100  1.3149 -3.6664  3.2179
  625MOL0     H82466   7.312   4.114   6.863  0.6093  2.8589 -0.6973
  625MOL0     H82467   7.427   4.068   6.740  2.6865  1.2282  0.1052
  625MOL0     H82468   7.481   4.305   6.925  0.2370 -0.2325 -0.4596
  625MOL0     H82469   7.366   4.308   6.799 -1.1696 -3.0468 -0.2653
  625MOL0     H82470   7.570   4.232   6.622 -1.0517 -2.6499  1.5628
  625MOL0     H82471   7.651   4.307   6.760 -1.9507  2.8985  3.0857
  625MOL0     H82472   7.511   4.513   6.719  0.6500 -1.0268  2.1072
  625MOL0     H82473   7.589   4.461   6.574 -0.2063 -0.8023 -0.1029
  625MOL0     H82474   7.313   4.357   6.608 -0.4893 -0.1648 -0.9947
  625MOL0     H82475   7.403   4.386   6.460 -0.5789  2.3625 -0.9769
  625MOL0     H82476   7.380   4.635   6.511  3.1215 -1.7494 -0.2454
  625MOL0     H82477   7.311   4.603   6.661  0.7368 -1.0030  0.1935
  625MOL0     H82478   7.215   4.537   6.368 -0.3020  0.7415 -0.0844
  625MOL0     H82479   7.121   4.474   6.518  4.8633 -3.7053  0.5027
  625MOL0     H82480   7.018   4.681   6.419 -0.4454 -1.6256 -0.7883
  625MOL0     H82481   7.174   4.753   6.417  0.2485  1.4216  1.1558
  625MOL0     H82482   7.615   3.934   6.722  0.2900 -1.9614  0.3476
  625MOL0     H82483   7.849   3.880   6.697  0.6142 -1.9226  0.7620
  625MOL0     H82484   8.051   3.475   6.955  0.0905 -0.9049  1.6147
  625MOL0     H82485   8.242   3.365   7.061 -2.7015  0.8113  2.4532
  625MOL0     H82486   7.855   4.424   7.884  0.5343 -0.5391  0.5737
  625MOL0     H82487   7.732   4.633   7.889 -0.7775 -0.8428 -1.0951
  625MOL0     H82488   8.000   5.195   7.889  0.4746 -1.4643 -1.4138
  625MOL0     H82489   7.901   5.405   7.903  0.6666 -1.6695  1.1275
  625MOL0     H82490   7.732   5.624   7.781 -3.4723  3.1190 -1.4117
  625MOL0     H82491   7.774   5.617   7.956 -0.7982  0.5038  1.1122
  625MOL0     H82492   7.559   5.749   7.811 -3.7963  4.2110  3.0429
  625MOL0     H82493   7.491   5.644   7.937 -0.5070  2.0386  2.9117
  625MOL0     H82494   7.732   5.791   8.013 -0.1443 -1.2552 -3.2711
  625MOL0     H82495   7.598   5.742   8.111  0.6833 -3.0010 -1.6928
  625MOL0     H82496   7.642   5.984   8.076 -1.3653 -1.3771  2.8472
  625MOL0     H82497   7.597   5.957   7.898 -0.2092 -3.9657 -1.1134
  625MOL0     H82498   7.212   5.934   8.078 -0.3493  1.9946  2.4993
  625MOL0     H82499   7.513   5.252   7.842  0.1709  0.9358  1.0864
  625MOL0     H82500   7.608   5.010   7.830 -0.4942  0.8437  0.9475
  626MOL0     O82501   1.510   2.773   3.505  0.1458  0.1718  0.0323
  626MOL0     C82502   1.516   2.822   3.398 -0.4578 -0.4404  0.0749
  626MOL0     O82503   1.426   2.825   3.302  0.1385 -0.0610  0.5680
  626MOL0     C82504   1.301   2.769   3.308 -0.0472  1.7429  0.3621
  626MOL0     C82505   1.239   2.692   3.408  0.3660  0.2116 -0.0247
  626MOL0     C82506   1.097   2.657   3.398  0.3063 -0.2978  0.1991
  626MOL0     C82507   1.025   2.715   3.288 -0.3364 -0.6433 -1.1354
  626MOL0     O82508   0.885   2.697   3.290  0.1710 -0.4618  0.1937
  626MOL0     C82509   0.808   2.659   3.173 -0.0289  0.6532  0.2317
  626MOL0     C82510   0.662   2.690   3.204 -1.9157  0.3546 -0.8327
  626MOL0     C82511   0.575   2.709   3.093 -0.5815  1.2760  0.1695
  626MOL0     C82512   0.613   2.844   3.016 -0.2905 -0.6182  0.1382
  626MOL0     C82513   0.557   2.858   2.873  0.5695  1.0767  0.2044
  626MOL0     C82514   0.650   2.936   2.781 -0.0464 -0.6817  0.1291
  626MOL0     C82515   0.607   2.943   2.638 -0.5498  0.1351 -0.3164
  626MOL0     C82516   0.473   3.021   2.609  0.9587  0.6038 -0.2443
  626MOL0     N82517   0.507   3.163   2.595  0.1942 -1.1222 -0.0876
  626MOL0     C82518   0.459   3.264   2.681  0.1202  0.7707  0.0301
  626MOL0     C82519   0.473   3.375   2.616 -0.3451 -0.8271 -0.2499
  626MOL0     C82520   0.455   3.514   2.664 -0.8400  0.1524  0.2403
  626MOL0     C82521   0.474   3.535   2.819 -0.8670  0.3766  0.7854
  626MOL0     C82522   0.426   3.668   2.855 -0.7570  0.5903 -0.0157
  626MOL0     C82523   0.271   3.683   2.875 -0.8645  0.0101 -0.1807
  626MOL0     O82524   0.227   3.618   3.000  0.3446 -0.3675  0.3231
  626MOL0     C82525   0.237   3.697   3.111  0.1345 -0.2978  0.9991
  626MOL0     C82526   0.148   3.802   3.138 -0.1645  0.4086  0.5192
  626MOL0     C82527   0.149   3.865   3.261 -0.0514  0.7760 -0.0976
  626MOL0     C82528   0.239   3.819   3.361 -0.5727 -0.1538  0.9929
  626MOL0     C82529   0.249   3.891   3.488  0.5158  0.2305 -0.2343
  626MOL0     O82530   0.130   3.945   3.524  0.4930  0.5802  0.0387
  626MOL0     C82531   0.115   4.007   3.648  0.1333 -0.4701 -0.6951
  626MOL0     C82532  -0.014   4.016   3.700  0.7552  0.1350  1.0236
  626MOL0     C82533  -0.044   4.081   3.818 -0.0982  0.6516  1.4118
  626MOL0     C82534   0.055   4.143   3.891 -1.1095  0.0111 -0.9587
  626MOL0     O82535   0.042   4.209   4.018  0.3530 -0.2765 -0.0370
  626MOL0     C82536   0.118   4.333   4.048 -0.4484  0.1502 -0.6366
  626MOL0     C82537   0.176   4.335   4.194  0.1552  0.5157  0.0513
  626MOL0     C82538   0.323   4.389   4.199  0.2375 -0.2645  0.4276
  626MOL0     C82539   0.412   4.285   4.140 -1.2505 -0.3566 -0.6117
  626MOL0     C82540   0.558   4.292   4.184  0.0701 -0.0685  0.3759
  626MOL0     C82541   0.642   4.189   4.098 -0.5829  0.2340  0.4151
  626MOL0     C82542   0.789   4.243   4.089  0.0283  1.3542 -0.0025
  626MOL0     C82543   0.860   4.198   4.214  0.5433  0.0318  0.6347
  626MOL0    Cl82544   0.887   4.032   4.220 -0.0854 -0.5380  0.5605
  626MOL0     C82545   0.190   4.142   3.829  0.0825 -0.0543 -1.1199
  626MOL0     C82546   0.222   4.080   3.715 -0.3219 -0.5294 -0.1514
  626MOL0     O82547   0.348   3.888   3.553 -0.2256  0.0904 -0.1185
  626MOL0     C82548   0.321   3.710   3.331 -0.0212 -0.2954  0.1822
  626MOL0     C82549   0.330   3.654   3.204  0.3820 -0.2646  0.1921
  626MOL0     N82550   0.539   3.349   2.503  0.5832 -0.1302  0.6590
  626MOL0     N82551   0.567   3.224   2.491  0.2156 -0.5710 -0.0819
  626MOL0     C82552   1.081   2.787   3.194 -0.5069  0.3464 -0.4435
  626MOL0     C82553   1.224   2.810   3.200  0.0643  0.5343 -0.2872
  626MOL0     C82554   1.647   2.883   3.372  0.7931 -1.3168  1.0585
  626MOL0     C82555   1.660   2.947   3.243 -0.9158  0.4798  0.2315
  626MOL0     C82556   1.781   3.015   3.204 -0.1515 -0.3857 -0.2643
  626MOL0     C82557   1.891   3.003   3.289 -0.3115  0.2588  0.1155
  626MOL0     O82558   2.007   3.062   3.237  0.4553 -0.4055  0.5049
  626MOL0     C82559   2.131   3.013   3.292  0.1175 -0.6254  0.4754
  626MOL0     C82560   2.257   3.066   3.224  0.7427 -1.8185 -0.7545
  626MOL0     C82561   2.256   3.218   3.207 -0.3826 -0.1573 -1.0716
  626MOL0     C82562   2.395   3.274   3.194 -0.1770 -0.7898 -0.6430
  626MOL0     C82563   2.453   3.227   3.068 -0.1904 -0.6116 -0.0239
  626MOL0     C82564   2.499   3.159   2.975  0.2115 -0.6102 -1.2054
  626MOL0     C82565   1.877   2.930   3.412  0.5003 -0.0951  0.1708
  626MOL0     C82566   1.751   2.882   3.452  0.2904 -0.2413 -0.6027
  626MOL0     H82567   1.299   2.654   3.490  0.4600  0.2014 -0.0978
  626MOL0     H82568   1.061   2.596   3.480  0.4915  0.4565  0.8525
  626MOL0     H82569   0.815   2.551   3.164 -5.2542  0.1163 -0.4971
  626MOL0     H82570   0.845   2.687   3.074 -0.9888 -1.1545 -0.6810
  626MOL0     H82571   0.652   2.778   3.268  0.7256  0.2781 -0.1779
  626MOL0     H82572   0.640   2.598   3.259  1.8686  0.6335  1.5381
  626MOL0     H82573   0.474   2.716   3.134 -0.3325  3.4465  0.5286
  626MOL0     H82574   0.593   2.620   3.031  0.1955  1.9434 -0.5876
  626MOL0     H82575   0.575   2.933   3.067  0.2101  0.4035 -1.1922
  626MOL0     H82576   0.720   2.861   3.007 -0.6186  1.4934 -0.2654
  626MOL0     H82577   0.454   2.893   2.864  0.0917 -0.6285 -1.8277
  626MOL0     H82578   0.556   2.754   2.839  1.2586  0.1243  2.8478
  626MOL0     H82579   0.738   2.874   2.765 -2.9030 -4.5675 -2.2195
  626MOL0     H82580   0.666   3.036   2.822 -2.2006 -1.4534  3.2158
  626MOL0     H82581   0.689   2.996   2.588  1.5720 -0.8978  1.8564
  626MOL0     H82582   0.584   2.843   2.599 -1.5248 -1.9971  4.9048
  626MOL0     H82583   0.406   3.012   2.695  1.4668  2.5632  0.4087
  626MOL0     H82584   0.422   2.983   2.520 -0.2307 -1.9877  1.4201
  626MOL0     H82585   0.397   3.249   2.769 -2.0294 -2.7096 -1.8229
  626MOL0     H82586   0.350   3.542   2.662 -0.8498  0.3238  1.8424
  626MOL0     H82587   0.512   3.581   2.598  0.7656 -1.2154  0.1527
  626MOL0     H82588   0.583   3.524   2.823 -1.0075 -3.8038 -1.7035
  626MOL0     H82589   0.425   3.459   2.881 -0.2369  0.3025  1.2028
  626MOL0     H82590   0.483   3.697   2.943 -0.6154  2.4664 -0.6864
  626MOL0     H82591   0.451   3.744   2.781 -0.9247  1.8794  1.2229
  626MOL0     H82592   0.203   3.644   2.798 -2.7281 -1.2720  1.9849
  626MOL0     H82593   0.250   3.791   2.879  0.9832  0.4278 -0.7673
  626MOL0     H82594   0.078   3.842   3.066  0.0832  3.9269  2.0471
  626MOL0     H82595   0.079   3.945   3.283 -1.3512 -1.1654  3.6892
  626MOL0     H82596  -0.083   3.949   3.650  2.2951 -1.0265  0.3793
  626MOL0     H82597  -0.149   4.083   3.845 -0.4109 -0.8398  0.4214
  626MOL0     H82598   0.046   4.415   4.040 -1.6644 -1.0022 -2.0964
  626MOL0     H82599   0.205   4.347   3.984  1.0471  1.3544  1.5143
  626MOL0     H82600   0.162   4.236   4.238  1.5256  0.2761 -0.0288
  626MOL0     H82601   0.111   4.398   4.257  0.2507 -0.4863  1.1935
  626MOL0     H82602   0.347   4.403   4.305  2.1114  0.4350 -0.0497
  626MOL0     H82603   0.312   4.478   4.136 -0.0222 -0.7608 -0.2388
  626MOL0     H82604   0.368   4.194   4.182  0.5225 -0.4902  1.1601
  626MOL0     H82605   0.401   4.294   4.032 -0.0675 -0.2030 -0.7319
  626MOL0     H82606   0.568   4.278   4.292  0.8364  0.8926  0.4412
  626MOL0     H82607   0.581   4.396   4.160 -1.3974 -0.2983 -2.4283
  626MOL0     H82608   0.598   4.182   3.998 -1.8532  0.5609  0.9333
  626MOL0     H82609   0.635   4.088   4.137  0.0195 -0.6909 -1.6968
  626MOL0     H82610   0.835   4.192   4.003 -1.0967 -0.7440  0.5687
  626MOL0     H82611   0.780   4.350   4.071 -3.2817  0.9460 -1.5977
  626MOL0     H82612   0.790   4.216   4.296 -2.0717 -1.6655 -1.0613
  626MOL0     H82613   0.961   4.238   4.226  1.6809 -2.8958  1.5705
  626MOL0     H82614   0.275   4.181   3.885 -1.1623  0.2109  0.6853
  626MOL0     H82615   0.324   4.087   3.681 -0.4225  1.5010 -0.1698
  626MOL0     H82616   0.393   3.681   3.407 -0.3021 -1.2794  0.0876
  626MOL0     H82617   0.407   3.578   3.189  0.3627 -0.2658  0.0945
  626MOL0     H82618   1.006   2.825   3.125 -0.9446  1.7158  0.7326
  626MOL0     H82619   1.277   2.865   3.123  1.6662 -0.2308  0.2297
  626MOL0     H82620   1.586   2.944   3.164  0.2474  1.1481 -0.9296
  626MOL0     H82621   1.800   3.056   3.105  1.3062 -0.8562 -0.1926
  626MOL0     H82622   2.143   2.904   3.289  0.0201 -0.6712  1.5691
  626MOL0     H82623   2.130   3.047   3.395  1.9164 -4.1318  1.8207
  626MOL0     H82624   2.346   3.034   3.278  2.2036  0.3547 -1.7063
  626MOL0     H82625   2.272   3.032   3.121  0.0951 -2.1152 -0.7602
  626MOL0     H82626   2.198   3.258   3.290  0.3279 -1.6738  0.2161
  626MOL0     H82627   2.201   3.247   3.117 -0.8119  0.2188 -0.6917
  626MOL0     H82628   2.409   3.382   3.201 -0.2963 -0.8850  2.1176
  626MOL0     H82629   2.452   3.253   3.285  1.4130  1.8613 -0.9286
  626MOL0     H82630   2.551   3.103   2.900  3.5748  0.5899  0.0000
  626MOL0     H82631   1.962   2.939   3.479  1.7227 -3.8785 -0.6424
  626MOL0     H82632   1.752   2.846   3.554 -1.8466 -0.5904 -0.6702
  627MOL0     O82633   4.208   4.610   5.379 -0.2815 -0.4584  0.1510
  627MOL0     C82634   4.236   4.678   5.480  0.0235 -0.0285  0.0705
  627MOL0     O82635   4.271   4.630   5.600  0.4639  0.1092 -0.6493
  627MOL0     C82636   4.263   4.494   5.622 -0.1817  0.6773  0.6002
  627MOL0     C82637   4.381   4.420   5.642  0.4787 -0.0233  0.6949
  627MOL0     C82638   4.367   4.276   5.646  0.7163 -0.8288 -0.5603
  627MOL0     C82639   4.246   4.212   5.658 -0.1366  0.6157  0.5162
  627MOL0     O82640   4.259   4.074   5.670  0.0404 -0.6746 -0.3020
  627MOL0     C82641   4.200   3.996   5.566  0.3567 -0.4097 -0.4347
  627MOL0     C82642   4.267   3.856   5.548 -0.5140 -0.4982 -0.6969
  627MOL0     C82643   4.192   3.751   5.626 -0.3902 -0.1290 -0.0793
  627MOL0     C82644   4.279   3.625   5.629  0.3394  0.1253  0.3844
  627MOL0     C82645   4.212   3.510   5.719  0.3330 -0.1031 -0.1174
  627MOL0     C82646   4.078   3.470   5.668  0.0304 -0.5161  0.9938
  627MOL0     C82647   4.032   3.346   5.747  0.6874 -0.7437  0.3558
  627MOL0     C82648   3.951   3.378   5.873 -0.5965  0.1949  0.6150
  627MOL0     N82649   3.826   3.440   5.853  0.1428 -0.4133  0.9426
  627MOL0     C82650   3.795   3.567   5.906 -0.2616 -0.0511  0.8821
  627MOL0     C82651   3.673   3.593   5.856 -0.6628 -0.1764 -0.7102
  627MOL0     C82652   3.613   3.729   5.881 -0.4530  0.4669 -0.7337
  627MOL0     C82653   3.507   3.756   5.780  0.6041  0.0037 -0.9906
  627MOL0     C82654   3.463   3.902   5.782  0.5793 -0.2597  0.0252
  627MOL0     C82655   3.358   3.928   5.671  1.0045  0.4888 -0.1197
  627MOL0     O82656   3.239   3.851   5.710 -0.1827  0.2785 -0.3480
  627MOL0     C82657   3.130   3.893   5.645  0.0995  0.7958  0.3011
  627MOL0     C82658   3.078   4.024   5.670  0.3404  0.3410 -0.1425
  627MOL0     C82659   2.962   4.062   5.599 -0.1346  0.2119 -0.1194
  627MOL0     C82660   2.899   3.975   5.505  0.1843 -0.2393 -0.1360
  627MOL0     C82661   2.800   4.011   5.408  0.4924 -0.0462 -0.0391
  627MOL0     O82662   2.809   3.930   5.291 -0.0300  0.6205 -0.3125
  627MOL0     C82663   2.715   3.938   5.189  0.1001 -0.1890  0.3269
  627MOL0     C82664   2.635   3.825   5.157  0.0406 -0.4627 -1.1624
  627MOL0     C82665   2.550   3.817   5.055 -0.7077  0.5372  0.6934
  627MOL0     C82666   2.524   3.942   4.976 -0.0660 -0.4172  0.9064
  627MOL0     O82667   2.443   3.941   4.868  0.0735 -0.0667 -0.5915
  627MOL0     C82668   2.445   3.832   4.775  0.0379  0.0531  0.8396
  627MOL0     C82669   2.343   3.861   4.662  0.2450  0.5082 -1.9834
  627MOL0     C82670   2.343   3.753   4.557  0.5350  0.1925 -0.4172
  627MOL0     C82671   2.235   3.784   4.456 -0.1965 -0.3728 -0.2506
  627MOL0     C82672   2.208   3.666   4.357  0.0009  0.4985 -0.1848
  627MOL0     C82673   2.332   3.612   4.284 -0.7143 -0.3638 -0.3869
  627MOL0     C82674   2.298   3.525   4.167 -0.1237  0.4534  0.3571
  627MOL0     C82675   2.409   3.456   4.097 -0.4259 -0.0446 -0.0080
  627MOL0    Cl82676   2.333   3.360   3.952 -0.1882 -0.1841  0.4829
  627MOL0     C82677   2.601   4.054   5.010  0.2566 -0.8572  0.0233
  627MOL0     C82678   2.694   4.051   5.112  0.4470 -0.7139 -0.5468
  627MOL0     O82679   2.712   4.099   5.434 -0.1750  0.4037  0.2485
  627MOL0     C82680   2.952   3.845   5.501  0.1905 -0.2029 -0.5925
  627MOL0     C82681   3.068   3.800   5.571  0.5868 -1.0987 -0.1815
  627MOL0     N82682   3.630   3.494   5.771  0.7049 -0.3133  0.0549
  627MOL0     N82683   3.727   3.409   5.766  0.0456 -0.1117  0.2638
  627MOL0     C82684   4.128   4.289   5.646  0.7966 -0.5416 -1.0985
  627MOL0     C82685   4.140   4.434   5.635 -0.0236  1.3929  1.4687
  627MOL0     C82686   4.235   4.829   5.469  0.1082  0.2813  0.6906
  627MOL0     C82687   4.195   4.886   5.351 -0.6796  0.0553  0.0519
  627MOL0     C82688   4.196   5.026   5.337 -1.1747 -0.3071 -0.0783
  627MOL0     C82689   4.240   5.109   5.434 -0.6316  0.2613  0.7069
  627MOL0     O82690   4.245   5.241   5.398  0.6687  0.4059 -0.3435
  627MOL0     C82691   4.279   5.347   5.492  0.1599 -0.6266 -0.2062
  627MOL0     C82692   4.167   5.391   5.600  0.5433 -0.9361  0.3354
  627MOL0     C82693   4.085   5.510   5.558 -0.3608 -0.6055 -0.0362
  627MOL0     C82694   4.091   5.632   5.639  0.4183 -0.2512 -0.7154
  627MOL0     C82695   4.208   5.714   5.611  0.0035  0.6253 -0.4361
  627MOL0     C82696   4.321   5.758   5.591 -0.0087  0.3151 -0.1990
  627MOL0     C82697   4.285   5.054   5.552 -0.5079 -0.0005  0.6055
  627MOL0     C82698   4.289   4.909   5.568  0.1583 -1.8918  0.4781
  627MOL0     H82699   4.479   4.460   5.618 -0.4160  0.9162 -1.7292
  627MOL0     H82700   4.466   4.237   5.667  0.9189  0.2909  0.6681
  627MOL0     H82701   4.222   4.054   5.475 -1.9826  2.1164  0.4774
  627MOL0     H82702   4.092   3.986   5.578  0.3029  1.2617  0.8760
  627MOL0     H82703   4.373   3.862   5.575  0.2830 -3.5886 -2.5969
  627MOL0     H82704   4.267   3.837   5.440 -0.4211 -1.5741 -0.5207
  627MOL0     H82705   4.091   3.755   5.585 -0.5117  3.2825  0.2282
  627MOL0     H82706   4.178   3.785   5.729 -0.5698  0.7616 -0.3862
  627MOL0     H82707   4.294   3.593   5.526 -1.5225  0.5784 -0.0549
  627MOL0     H82708   4.379   3.652   5.663 -0.4557  2.4767  1.0512
  627MOL0     H82709   4.213   3.543   5.824 -0.6474 -2.2032  0.6115
  627MOL0     H82710   4.275   3.421   5.709 -0.2953 -0.6375  0.5616
  627MOL0     H82711   4.096   3.430   5.568  0.5624  0.2274  0.7827
  627MOL0     H82712   4.008   3.552   5.687  1.9098  0.7632  2.9487
  627MOL0     H82713   3.960   3.300   5.678 -1.5310 -0.3249  2.2617
  627MOL0     H82714   4.118   3.281   5.763  0.7471 -0.5246  0.9487
  627MOL0     H82715   4.015   3.437   5.940 -1.0036 -0.0983  1.2793
  627MOL0     H82716   3.921   3.290   5.929 -0.2986 -0.7235 -0.6282
  627MOL0     H82717   3.855   3.622   5.978 -0.7718  1.1993  0.3781
  627MOL0     H82718   3.685   3.812   5.873  2.2691 -1.4266  1.8000
  627MOL0     H82719   3.584   3.733   5.987  0.1883 -0.4991 -0.5149
  627MOL0     H82720   3.422   3.689   5.796  0.4349  0.0813 -1.5344
  627MOL0     H82721   3.533   3.735   5.676 -2.6667 -1.5848 -1.6143
  627MOL0     H82722   3.417   3.916   5.880  2.7292 -2.0771  1.4020
  627MOL0     H82723   3.545   3.973   5.768  0.3335 -0.3279 -2.3075
  627MOL0     H82724   3.395   3.891   5.575  2.4001 -0.1272  0.6260
  627MOL0     H82725   3.328   4.032   5.657 -1.5845  0.0565  1.4360
  627MOL0     H82726   3.129   4.083   5.745 -2.1116  1.6320  0.6332
  627MOL0     H82727   2.923   4.161   5.622  1.8198  0.5067  2.2736
  627MOL0     H82728   2.644   3.731   5.211 -2.8985 -0.5807 -0.7521
  627MOL0     H82729   2.504   3.724   5.024 -0.0150  0.7500 -1.0718
  627MOL0     H82730   2.427   3.735   4.823  2.7327 -1.3160 -0.6882
  627MOL0     H82731   2.548   3.817   4.740 -0.2526 -2.5844  0.8872
  627MOL0     H82732   2.360   3.954   4.607  1.2790 -1.0969 -4.5653
  627MOL0     H82733   2.247   3.854   4.714  0.3142 -2.6453 -2.0888
  627MOL0     H82734   2.317   3.663   4.614  1.5706 -0.1703 -0.5046
  627MOL0     H82735   2.446   3.736   4.524  1.6256  1.5886  2.0561
  627MOL0     H82736   2.139   3.817   4.495 -0.4081 -0.0080 -1.0456
  627MOL0     H82737   2.272   3.871   4.401  1.0323 -1.3359 -1.0020
  627MOL0     H82738   2.131   3.694   4.284 -2.7615 -1.8660  1.6166
  627MOL0     H82739   2.166   3.580   4.410 -2.2079 -0.4604 -3.2067
  627MOL0     H82740   2.397   3.554   4.350 -0.5970  0.8121  0.5592
  627MOL0     H82741   2.392   3.698   4.253  0.3289 -1.0565 -0.3173
  627MOL0     H82742   2.231   3.449   4.209  1.5588 -1.0908  0.3919
  627MOL0     H82743   2.243   3.588   4.097 -1.1357 -0.4142  0.3462
  627MOL0     H82744   2.457   3.395   4.174 -0.6631  0.6755  0.7282
  627MOL0     H82745   2.477   3.534   4.061 -1.3411 -0.0394 -1.8317
  627MOL0     H82746   2.587   4.136   4.940  0.9146 -1.5950 -1.0048
  627MOL0     H82747   2.751   4.137   5.146 -1.8920  0.1485  1.5111
  627MOL0     H82748   2.901   3.774   5.437  2.4334 -0.7980 -1.7887
  627MOL0     H82749   3.105   3.699   5.565 -3.2398 -2.8166  1.6750
  627MOL0     H82750   4.040   4.226   5.657  2.1592 -2.0309  4.2814
  627MOL0     H82751   4.056   4.502   5.639 -1.1228  0.2793 -0.7264
  627MOL0     H82752   4.180   4.818   5.267 -1.9701 -0.8045  0.9407
  627MOL0     H82753   4.180   5.088   5.249  1.4483  0.6242  0.0022
  627MOL0     H82754   4.307   5.435   5.433  2.0249  0.4889  2.1603
  627MOL0     H82755   4.369   5.311   5.542 -0.6767 -1.0890  1.0309
  627MOL0     H82756   4.090   5.316   5.624  1.0020 -1.0933  1.3754
  627MOL0     H82757   4.218   5.401   5.696 -0.4788 -1.1741  0.9244
  627MOL0     H82758   3.980   5.484   5.575 -0.1721 -0.6795  1.1560
  627MOL0     H82759   4.114   5.534   5.456 -1.1143 -0.1619 -0.1566
  627MOL0     H82760   4.002   5.691   5.618 -1.3110 -2.2233  0.6665
  627MOL0     H82761   4.100   5.619   5.748  3.6329  1.7329 -0.5994
  627MOL0     H82762   4.419   5.791   5.562  0.6839 -0.6147  0.9938
  627MOL0     H82763   4.319   5.111   5.638  1.1122 -2.9223  2.0382
  627MOL0     H82764   4.322   4.858   5.658  2.4000 -2.2698 -0.4851
  628MOL0     O82765   8.135  10.839   7.145  0.0982  0.2506 -0.4203
  628MOL0     C82766   8.043  10.830   7.224 -0.3108 -0.5663  0.2159
  628MOL0     O82767   8.039  10.766   7.347  0.2283 -0.3481 -0.0483
  628MOL0     C82768   8.151  10.694   7.386  1.2300 -0.6229  0.4208
  628MOL0     C82769   8.219  10.619   7.294 -0.5878 -0.1309  0.0427
  628MOL0     C82770   8.337  10.561   7.335 -0.7207 -0.3920 -0.2592
  628MOL0     C82771   8.391  10.569   7.462 -0.2804  0.1207 -0.0492
  628MOL0     O82772   8.504  10.492   7.492  0.5946  0.7049  0.1548
  628MOL0     C82773   8.620  10.563   7.547 -0.2267  0.3065 -0.1410
  628MOL0     C82774   8.738  10.467   7.535 -0.0578 -0.9119  0.1043
  628MOL0     C82775   8.773  10.424   7.389  0.3011 -0.1220 -0.2353
  628MOL0     C82776   8.872  10.302   7.405 -0.0091 -0.0123 -0.0231
  628MOL0     C82777   8.926  10.252   7.269  0.9197  1.0332 -0.0818
  628MOL0     C82778   9.004  10.119   7.288 -0.2316 -0.2935 -0.0810
  628MOL0     C82779   9.102  10.104   7.176 -0.6037 -0.2361 -0.3365
  628MOL0     C82780   9.179   9.972   7.183  0.7523  0.0867  0.7164
  628MOL0     N82781   9.254   9.959   7.052  0.6091  0.1631 -0.2134
  628MOL0     C82782   9.238   9.852   6.976  0.5054 -0.5101  0.1749
  628MOL0     C82783   9.346   9.852   6.888  0.8201  1.1791 -0.1807
  628MOL0     C82784   9.366   9.753   6.772  0.1279  1.3294  0.2864
  628MOL0     C82785   9.495   9.673   6.790  0.4435  0.8366  1.1314
  628MOL0     C82786   9.611   9.730   6.698  0.2744  0.1046 -0.5878
  628MOL0     C82787   9.594   9.717   6.551  0.0354  0.7406  0.4511
  628MOL0     O82788   9.552   9.585   6.509 -0.1570  0.7225 -0.7070
  628MOL0     C82789   9.646   9.490   6.476  0.2353  0.2923  0.5915
  628MOL0     C82790   9.778   9.491   6.504  0.3791 -0.5384 -0.0275
  628MOL0     C82791   9.867   9.397   6.457 -0.0657  0.9982 -0.1876
  628MOL0     C82792   9.819   9.291   6.376  0.0987 -0.1570 -0.1461
  628MOL0     C82793   9.916   9.195   6.311  0.1838  0.0999  0.3772
  628MOL0     O82794   9.870   9.121   6.205  0.8358 -0.1421 -0.1091
  628MOL0     C82795   9.963   9.045   6.139  0.1404 -0.3806  0.2601
  628MOL0     C82796   9.955   8.907   6.125 -0.3699 -0.0465 -0.1505
  628MOL0     C82797  10.051   8.839   6.048 -0.5172  0.5933  0.3498
  628MOL0     C82798  10.157   8.900   5.988  0.6984  0.6500  0.8592
  628MOL0     O82799  10.253   8.845   5.917  1.5517 -0.8017  0.5718
  628MOL0     C82800  10.261   8.705   5.877  0.6377  0.0388 -0.1841
  628MOL0     C82801  10.165   8.681   5.762  1.2075 -0.4350  0.5945
  628MOL0     C82802  10.209   8.745   5.634 -0.2335 -0.7204  0.1009
  628MOL0     C82803  10.111   8.711   5.522  0.4302  1.0000  0.6545
  628MOL0     C82804  10.130   8.797   5.395 -0.7615  1.3129  0.2265
  628MOL0     C82805  10.265   8.768   5.319  0.3186  0.1330  0.8402
  628MOL0     C82806  10.299   8.884   5.223 -0.2830 -0.2432 -0.6120
  628MOL0     C82807  10.395   8.833   5.111  0.1855 -1.0654  0.5581
  628MOL0    Cl82808  10.424   8.959   4.972 -0.2206  0.1685  0.0784
  628MOL0     C82809  10.172   9.038   6.012  0.7568 -0.4906 -0.2872
  628MOL0     C82810  10.075   9.103   6.075  0.5749 -0.1686  0.4419
  628MOL0     O82811  10.024   9.180   6.367  0.2605  0.0257 -0.0462
  628MOL0     C82812   9.689   9.294   6.330 -0.2183 -0.0712  0.0682
  628MOL0     C82813   9.604   9.388   6.383 -0.5333  0.7461 -1.1167
  628MOL0     N82814   9.418   9.965   6.919 -0.2131  0.5826 -0.9057
  628MOL0     N82815   9.362  10.030   7.013  0.2220 -0.3366  0.0019
  628MOL0     C82816   8.313  10.643   7.557  0.0120  0.7661  0.3584
  628MOL0     C82817   8.198  10.717   7.513  0.1400 -0.3102  0.1911
  628MOL0     C82818   7.922  10.909   7.192 -0.3853 -0.2748  0.0771
  628MOL0     C82819   7.937  11.026   7.110 -0.0705  0.5328 -0.0406
  628MOL0     C82820   7.838  11.113   7.085 -0.8035 -0.7790  0.1907
  628MOL0     C82821   7.709  11.087   7.137 -0.8934 -0.0212  0.1055
  628MOL0     O82822   7.601  11.178   7.128 -0.3165 -0.0835 -0.5760
  628MOL0     C82823   7.619  11.287   7.031  0.0421 -0.4134 -0.1328
  628MOL0     C82824   7.484  11.345   7.008  0.5795  0.2910  0.5716
  628MOL0     C82825   7.423  11.405   7.130  0.6395  0.2633 -0.2732
  628MOL0     C82826   7.468  11.550   7.170 -0.3979  0.5615 -0.7754
  628MOL0     C82827   7.447  11.654   7.070 -1.1454  0.4208  0.6243
  628MOL0     C82828   7.430  11.725   6.973  0.2130  0.1424  0.0597
  628MOL0     C82829   7.694  10.967   7.214  0.2534 -0.1159  0.3054
  628MOL0     C82830   7.795  10.874   7.240  0.0856 -0.7006  0.0190
  628MOL0     H82831   8.195  10.599   7.190  0.1699  0.0825 -0.1829
  628MOL0     H82832   8.390  10.498   7.264  1.6443 -0.2436  1.2568
  628MOL0     H82833   8.598  10.567   7.654 -1.9205 -4.2466 -0.1117
  628MOL0     H82834   8.638  10.665   7.511 -0.8416  0.0149 -1.3200
  628MOL0     H82835   8.710  10.373   7.583 -2.7830  0.0054  0.4708
  628MOL0     H82836   8.826  10.510   7.585 -1.4459  3.8546 -1.0009
  628MOL0     H82837   8.827  10.507   7.344  2.9998  0.2921  3.2812
  628MOL0     H82838   8.685  10.389   7.335  2.4179 -1.2850 -3.2254
  628MOL0     H82839   8.958  10.330   7.466 -0.4755  1.5133 -0.0322
  628MOL0     H82840   8.816  10.224   7.457  4.2419 -1.7221  2.4550
  628MOL0     H82841   8.995  10.324   7.224 -1.2335  1.7342 -2.5420
  628MOL0     H82842   8.852  10.230   7.192  2.9843 -1.0136 -1.6480
  628MOL0     H82843   8.945  10.028   7.305  1.5637 -1.7005 -0.9914
  628MOL0     H82844   9.063  10.121   7.380  2.2098  1.3749 -1.5392
  628MOL0     H82845   9.057  10.102   7.077 -0.2631  0.2661 -0.5075
  628MOL0     H82846   9.175  10.185   7.175 -0.2869 -0.5233 -1.2520
  628MOL0     H82847   9.104   9.893   7.188  2.6177 -1.7519  1.6256
  628MOL0     H82848   9.243   9.965   7.272 -0.1475  0.9340  1.4559
  628MOL0     H82849   9.158   9.779   6.973 -0.4768  0.5392 -2.4696
  628MOL0     H82850   9.364   9.808   6.678  3.5060  0.6670 -0.3143
  628MOL0     H82851   9.280   9.685   6.774  0.4730  0.7568 -2.0783
  628MOL0     H82852   9.485   9.568   6.761 -1.3743  0.9214  1.3083
  628MOL0     H82853   9.518   9.679   6.897  2.9638 -1.0421  0.7845
  628MOL0     H82854   9.610   9.839   6.709 -4.2882  0.4534 -2.1026
  628MOL0     H82855   9.707   9.687   6.728 -0.6165 -1.5402  0.0047
  628MOL0     H82856   9.686   9.754   6.505 -0.7857  1.5054 -0.6074
  628MOL0     H82857   9.518   9.788   6.518 -1.6637 -1.5414 -0.8105
  628MOL0     H82858   9.808   9.571   6.571 -4.9625 -1.4246  4.0831
  628MOL0     H82859   9.972   9.413   6.475  0.0203  0.9073 -0.5986
  628MOL0     H82860   9.875   8.848   6.168  0.4816 -3.0610 -2.3639
  628MOL0     H82861  10.046   8.732   6.031 -0.1745  0.9186 -2.1681
  628MOL0     H82862  10.238   8.632   5.956  3.9124 -1.5740 -0.5301
  628MOL0     H82863  10.364   8.676   5.855  0.0554 -1.7307 -0.7037
  628MOL0     H82864  10.070   8.731   5.782  0.7608 -0.9928 -0.0807
  628MOL0     H82865  10.143   8.575   5.745 -2.1554  0.5581 -2.6388
  628MOL0     H82866  10.309   8.705   5.618 -1.6277 -5.1407  1.1323
  628MOL0     H82867  10.222   8.852   5.657  0.0215 -0.6902 -0.1690
  628MOL0     H82868  10.129   8.608   5.491 -1.4578  0.3993  1.3947
  628MOL0     H82869  10.006   8.720   5.553 -0.1615 -2.6841  0.1260
  628MOL0     H82870  10.119   8.902   5.426  0.3191  2.4631 -2.8540
  628MOL0     H82871  10.047   8.775   5.327  0.0031  1.4781 -0.7855
  628MOL0     H82872  10.251   8.674   5.264 -4.5875  1.3278 -0.4667
  628MOL0     H82873  10.348   8.746   5.387 -0.4730  3.2807  2.9867
  628MOL0     H82874  10.210   8.924   5.174 -0.1545  1.7444  0.6880
  628MOL0     H82875  10.343   8.966   5.280 -0.7069  0.6860 -1.6065
  628MOL0     H82876  10.349   8.749   5.058  1.6122 -0.4695 -1.7898
  628MOL0     H82877  10.487   8.792   5.153 -0.2190 -3.1055 -0.3826
  628MOL0     H82878  10.269   9.077   5.985  1.5139 -1.2642  1.1688
  628MOL0     H82879  10.071   9.210   6.089 -1.0582 -0.1310 -0.0970
  628MOL0     H82880   9.659   9.219   6.259  0.3136 -0.2228 -0.0018
  628MOL0     H82881   9.500   9.373   6.357 -0.3201 -1.9447 -0.6278
  628MOL0     H82882   8.336  10.639   7.663  0.5542  1.3684  0.2693
  628MOL0     H82883   8.129  10.773   7.575 -0.4988 -1.2643  0.3515
  628MOL0     H82884   8.037  11.052   7.076  0.9365 -1.6784  1.0344
  628MOL0     H82885   7.858  11.208   7.037 -2.6687  0.2579  1.3663
  628MOL0     H82886   7.656  11.259   6.932 -3.0562 -0.1355 -1.4744
  628MOL0     H82887   7.687  11.364   7.072 -0.3173 -0.5799  0.8084
  628MOL0     H82888   7.485  11.411   6.921 -2.5617 -1.3040 -0.8616
  628MOL0     H82889   7.432  11.255   6.973  1.5403 -0.2689  0.5367
  628MOL0     H82890   7.438  11.339   7.217  0.5851  1.6943  0.8706
  628MOL0     H82891   7.316  11.405   7.110 -0.0056 -4.2086  1.9891
  628MOL0     H82892   7.412  11.575   7.260  3.5426  0.6169  1.8894
  628MOL0     H82893   7.570  11.560   7.206 -0.8184  1.7331  0.1712
  628MOL0     H82894   7.395  11.797   6.901 -0.9170  2.3699  2.6517
  628MOL0     H82895   7.596  10.952   7.256  0.8475  2.5339  3.0431
  628MOL0     H82896   7.790  10.779   7.292  1.3246 -2.5055 -2.9151
  629MOL0     O82897   4.348   7.450   9.297 -0.0508 -0.7615 -0.3135
  629MOL0     C82898   4.328   7.336   9.273  1.5367  0.2606 -0.5572
  629MOL0     O82899   4.433   7.242   9.243 -0.1579  0.7233 -0.4001
  629MOL0     C82900   4.561   7.274   9.278 -0.5414 -1.0646 -0.3817
  629MOL0     C82901   4.668   7.253   9.195  0.4164 -0.4475  0.8680
  629MOL0     C82902   4.802   7.275   9.234 -0.1838  0.1011 -0.0517
  629MOL0     C82903   4.831   7.320   9.364  0.5021 -0.5196 -0.3915
  629MOL0     O82904   4.969   7.319   9.403  0.4168 -0.6221  0.6927
  629MOL0     C82905   4.993   7.400   9.519 -0.1012  0.2321  0.3778
  629MOL0     C82906   5.139   7.443   9.520  0.3284 -0.6463 -0.0121
  629MOL0     C82907   5.157   7.576   9.451 -0.3505 -0.3976  0.0780
  629MOL0     C82908   5.306   7.582   9.404  0.4581  0.2315  0.5206
  629MOL0     C82909   5.346   7.719   9.339  0.4167 -0.0226 -0.2121
  629MOL0     C82910   5.487   7.704   9.295  0.7400  0.7562 -0.2909
  629MOL0     C82911   5.522   7.811   9.195 -0.8595 -0.4714  0.2097
  629MOL0     C82912   5.526   7.956   9.242  0.5843 -0.2092  0.1882
  629MOL0     N82913   5.618   8.000   9.355 -0.1306 -0.1267  1.5600
  629MOL0     C82914   5.738   7.941   9.386 -0.2951  0.6970 -0.7536
  629MOL0     C82915   5.783   8.018   9.492 -0.2894 -0.0338  0.9092
  629MOL0     C82916   5.924   8.016   9.545 -0.2364  1.0793  0.6271
  629MOL0     C82917   6.011   7.884   9.525  0.6466 -0.6632 -1.0364
  629MOL0     C82918   5.978   7.770   9.637  0.5901 -0.6754  0.5526
  629MOL0     C82919   5.839   7.699   9.607  0.0241 -0.2085 -0.4621
  629MOL0     O82920   5.863   7.634   9.477  0.1193  0.2544 -0.4800
  629MOL0     C82921   5.769   7.531   9.446 -0.6340 -0.0460 -0.3904
  629MOL0     C82922   5.665   7.485   9.532  0.0416 -0.4627 -0.1733
  629MOL0     C82923   5.573   7.391   9.494  1.1796  0.8312 -0.4558
  629MOL0     C82924   5.577   7.333   9.363  1.4400 -0.2570  0.8713
  629MOL0     C82925   5.472   7.246   9.312  0.2433 -0.0817 -0.3733
  629MOL0     O82926   5.405   7.179   9.402 -0.3878  0.3883 -0.2001
  629MOL0     C82927   5.319   7.082   9.365  0.2685 -0.3655  0.0457
  629MOL0     C82928   5.193   7.061   9.432  0.6378 -0.6936  1.1233
  629MOL0     C82929   5.135   6.934   9.427  0.0335 -0.1694 -0.3560
  629MOL0     C82930   5.186   6.835   9.347  0.6087  0.3059 -1.5231
  629MOL0     O82931   5.128   6.706   9.326  0.5673 -0.5106  0.1185
  629MOL0     C82932   4.990   6.708   9.322  0.2931 -0.7866  0.7128
  629MOL0     C82933   4.929   6.577   9.288  1.3015  0.0988 -1.1746
  629MOL0     C82934   4.771   6.566   9.272 -0.0776 -0.3309 -0.1670
  629MOL0     C82935   4.723   6.438   9.193 -1.0060 -0.0506 -1.6332
  629MOL0     C82936   4.579   6.456   9.138  0.7537 -0.2052 -0.1341
  629MOL0     C82937   4.594   6.506   8.993 -0.6812 -0.2002  1.2759
  629MOL0     C82938   4.463   6.536   8.935 -0.2796  0.1517  0.1128
  629MOL0     C82939   4.462   6.664   8.849  0.0695  0.0201 -0.0526
  629MOL0    Cl82940   4.473   6.811   8.945 -0.0554 -0.1057  0.0253
  629MOL0     C82941   5.309   6.855   9.286  0.9263 -0.5372  0.2306
  629MOL0     C82942   5.378   6.975   9.288  0.1790 -0.8221  0.0445
  629MOL0     O82943   5.471   7.234   9.192  0.5667 -0.8011 -0.1488
  629MOL0     C82944   5.678   7.377   9.275  0.1913  0.8921 -0.4123
  629MOL0     C82945   5.775   7.468   9.320  0.2403  0.0938 -0.4154
  629MOL0     N82946   5.687   8.106   9.525  0.0907  0.3712 -0.5209
  629MOL0     N82947   5.585   8.086   9.447 -0.6216 -0.7228 -0.4616
  629MOL0     C82948   4.721   7.340   9.450  0.7664  0.7012 -0.0251
  629MOL0     C82949   4.591   7.326   9.407 -0.2998 -0.1879  0.9868
  629MOL0     C82950   4.189   7.306   9.235 -0.1000  0.2862 -0.1445
  629MOL0     C82951   4.169   7.189   9.158 -0.6926 -0.1154 -0.2323
  629MOL0     C82952   4.043   7.163   9.111 -0.3983  0.0080  0.2331
  629MOL0     C82953   3.931   7.246   9.144 -1.2571  0.3479  0.2732
  629MOL0     O82954   3.816   7.193   9.088  0.1941  0.8942 -0.6164
  629MOL0     C82955   3.709   7.284   9.063 -0.8641  0.8041  0.5648
  629MOL0     C82956   3.638   7.244   8.926 -0.2614 -1.3854 -1.0305
  629MOL0     C82957   3.541   7.123   8.964  0.4284  0.4619  0.0899
  629MOL0     C82958   3.461   7.073   8.849  0.3960  0.4253  0.7729
  629MOL0     C82959   3.378   6.954   8.883 -0.0303 -0.4976  0.4498
  629MOL0     C82960   3.314   6.859   8.923  0.2179 -0.3537  0.1470
  629MOL0     C82961   3.949   7.360   9.212  0.7771 -0.2339 -0.4141
  629MOL0     C82962   4.080   7.399   9.254  0.5284  0.1887  0.5963
  629MOL0     H82963   4.663   7.210   9.095  3.3173 -0.3385  0.6038
  629MOL0     H82964   4.887   7.253   9.170  1.0347  3.0278  0.3876
  629MOL0     H82965   4.975   7.346   9.612  2.1885  0.8543  1.2532
  629MOL0     H82966   4.932   7.490   9.526 -0.6467 -0.1662  0.7701
  629MOL0     H82967   5.204   7.378   9.461  2.0338  0.9371  0.0011
  629MOL0     H82968   5.181   7.451   9.621  0.7066  1.2202 -0.2636
  629MOL0     H82969   5.147   7.659   9.522  1.0357 -2.5063  2.9551
  629MOL0     H82970   5.089   7.594   9.368  0.8386  0.8745 -0.6660
  629MOL0     H82971   5.381   7.578   9.484  1.4894  1.1669 -0.3598
  629MOL0     H82972   5.330   7.492   9.346  3.5068 -1.1300  3.5457
  629MOL0     H82973   5.339   7.793   9.419  0.1984 -0.3705  0.0992
  629MOL0     H82974   5.279   7.749   9.258 -1.1684  1.1046  1.4431
  629MOL0     H82975   5.493   7.609   9.242 -0.7639  0.2044  0.4771
  629MOL0     H82976   5.558   7.683   9.375  1.5692  0.1812 -1.1575
  629MOL0     H82977   5.621   7.785   9.159 -0.4012  0.3454  0.8556
  629MOL0     H82978   5.455   7.804   9.108 -0.8264 -0.0692  0.1521
  629MOL0     H82979   5.427   7.984   9.277  0.4535 -1.8691  1.2756
  629MOL0     H82980   5.550   8.000   9.145 -0.4393 -2.3030 -1.0986
  629MOL0     H82981   5.789   7.872   9.319 -0.6739 -0.7470  0.3925
  629MOL0     H82982   5.920   8.045   9.650  2.4831 -1.5597  1.5834
  629MOL0     H82983   5.975   8.102   9.502 -0.2249  1.5822  1.6423
  629MOL0     H82984   6.117   7.912   9.532  0.5775 -0.8278  1.6641
  629MOL0     H82985   5.984   7.849   9.425  0.4850 -1.0530 -0.8568
  629MOL0     H82986   6.064   7.703   9.643  2.5097  1.7039  1.7095
  629MOL0     H82987   5.966   7.818   9.735 -0.7366 -1.1065  0.6226
  629MOL0     H82988   5.756   7.770   9.602 -0.8028 -1.0165  1.0386
  629MOL0     H82989   5.835   7.613   9.675 -1.8287 -0.2820 -0.6066
  629MOL0     H82990   5.638   7.536   9.624 -4.4066 -1.6402 -0.5698
  629MOL0     H82991   5.488   7.364   9.556 -0.2392  2.6529 -1.4988
  629MOL0     H82992   5.141   7.140   9.485  0.0378 -0.6671  0.5032
  629MOL0     H82993   5.044   6.917   9.484  1.6406 -0.0006  2.4249
  629MOL0     H82994   4.952   6.785   9.254 -0.9220 -0.0383  2.1877
  629MOL0     H82995   4.955   6.739   9.421  3.1572 -0.9070  1.8439
  629MOL0     H82996   4.955   6.504   9.365 -0.8463 -0.1060 -0.6101
  629MOL0     H82997   4.960   6.544   9.188 -2.9762  1.5902 -3.2165
  629MOL0     H82998   4.733   6.652   9.217  0.9795 -0.4570 -1.1289
  629MOL0     H82999   4.734   6.567   9.375  2.3907  0.4339  0.7895
  629MOL0     H83000   4.796   6.411   9.116  0.7983  1.2196 -0.4513
  629MOL0     H83001   4.717   6.356   9.265 -1.1859 -1.6074 -3.3392
  629MOL0     H83002   4.508   6.512   9.198  2.7455  1.3023  0.9029
  629MOL0     H83003   4.542   6.353   9.124 -1.6568  0.7133 -1.0406
  629MOL0     H83004   4.647   6.437   8.927  0.2131  3.1916 -1.8948
  629MOL0     H83005   4.644   6.603   8.982 -1.8593  0.0658 -3.8716
  629MOL0     H83006   4.432   6.450   8.875 -2.3611  0.9715 -0.0597
  629MOL0     H83007   4.380   6.541   9.007 -0.0390  2.8335  0.2850
  629MOL0     H83008   4.379   6.657   8.778  0.3124 -1.3494 -0.2310
  629MOL0     H83009   4.547   6.662   8.780  1.5756  1.2351  1.6481
  629MOL0     H83010   5.339   6.767   9.230 -4.1185 -2.6446  0.3352
  629MOL0     H83011   5.476   6.982   9.240  0.0489  3.0597  0.0311
  629MOL0     H83012   5.679   7.336   9.175  1.5264  2.2219 -0.9868
  629MOL0     H83013   5.860   7.487   9.255 -1.5740  5.9221 -1.6945
  629MOL0     H83014   4.744   7.358   9.555  2.6662 -1.6080  0.0523
  629MOL0     H83015   4.517   7.369   9.474 -1.1905 -2.3637  1.4941
  629MOL0     H83016   4.251   7.125   9.125  3.3476  3.7136  1.3301
  629MOL0     H83017   4.031   7.068   9.058  2.5936  0.5019 -1.5520
  629MOL0     H83018   3.757   7.381   9.054 -1.8614  1.4718  1.9847
  629MOL0     H83019   3.643   7.285   9.150 -2.8259 -1.2750 -0.7652
  629MOL0     H83020   3.581   7.328   8.885  1.5070  0.3100 -0.1397
  629MOL0     H83021   3.710   7.213   8.851  2.5172  2.0950 -0.0718
  629MOL0     H83022   3.472   7.155   9.043  0.4488 -1.7818  1.0701
  629MOL0     H83023   3.603   7.038   8.993  1.2063  0.8988 -0.2446
  629MOL0     H83024   3.406   7.152   8.797  2.1735 -0.7490 -3.3397
  629MOL0     H83025   3.524   7.022   8.775 -1.7910  1.5502 -2.0491
  629MOL0     H83026   3.247   6.785   8.962  1.0399 -0.1841  1.9653
  629MOL0     H83027   3.863   7.423   9.234  0.9053 -0.5933  1.2984
  629MOL0     H83028   4.100   7.497   9.296  2.3787 -0.3032  0.9461
  630MOL0     O83029  10.019   0.775  11.248  0.1812 -0.9195 -0.6574
  630MOL0     C83030  10.106   0.701  11.284  0.0014 -0.9185 -0.7175
  630MOL0     O83031  10.090   0.584  11.356  0.5297 -0.0340 -0.1254
  630MOL0     C83032   9.959   0.537  11.373  0.0259 -0.4713  0.0960
  630MOL0     C83033   9.924   0.502  11.501  0.7220 -0.3595  0.3590
  630MOL0     C83034   9.815   0.427  11.532 -0.0528  0.2369  0.7324
  630MOL0     C83035   9.736   0.380  11.429  0.3420 -0.4418  0.3050
  630MOL0     O83036   9.620   0.316  11.452  0.5844 -0.4607  0.3651
  630MOL0     C83037   9.517   0.399  11.514 -0.0494 -0.0622 -0.4090
  630MOL0     C83038   9.423   0.303  11.576  0.1297 -0.0483 -0.0198
  630MOL0     C83039   9.296   0.376  11.630  0.8393  0.0192 -0.1765
  630MOL0     C83040   9.194   0.282  11.683 -1.1099 -0.2156 -1.0458
  630MOL0     C83041   9.124   0.337  11.809  0.5186  0.1534  0.0828
  630MOL0     C83042   9.011   0.256  11.853 -0.2291  1.3157 -0.2295
  630MOL0     C83043   8.903   0.236  11.756  0.2564  0.4663 -0.2214
  630MOL0     C83044   8.842   0.102  11.792 -0.0723 -0.1529  0.0783
  630MOL0     N83045   8.705   0.112  11.744 -0.4881  0.0769  0.2249
  630MOL0     C83046   8.585   0.144  11.810 -0.3514 -0.2734  0.4858
  630MOL0     C83047   8.497   0.141  11.712  0.3546 -0.2195  0.4633
  630MOL0     C83048   8.360   0.202  11.727 -0.5013 -0.5977 -1.0716
  630MOL0     C83049   8.256   0.105  11.784 -0.7387 -0.4814 -0.2914
  630MOL0     C83050   8.257  -0.024  11.703  0.3533  0.1795  0.9317
  630MOL0     C83051   8.219  -0.030  11.553 -0.2654  0.1958  0.6405
  630MOL0     O83052   8.089   0.021  11.525  0.4514 -0.6228  0.0604
  630MOL0     C83053   7.976  -0.063  11.528  0.3347  0.7595 -0.1389
  630MOL0     C83054   7.856  -0.002  11.490 -0.1958 -0.2124  1.0912
  630MOL0     C83055   7.736  -0.079  11.494  0.2184 -0.0681  0.0899
  630MOL0     C83056   7.731  -0.216  11.526 -0.5606  0.1791 -0.7354
  630MOL0     C83057   7.601  -0.288  11.512 -0.4517 -1.0309 -0.4670
  630MOL0     O83058   7.591  -0.426  11.506 -0.1907  0.4358 -0.5706
  630MOL0     C83059   7.482  -0.504  11.540 -0.3417 -0.8641 -0.3147
  630MOL0     C83060   7.354  -0.461  11.517 -0.1654 -0.0609 -0.6151
  630MOL0     C83061   7.255  -0.556  11.552  0.3402  0.8619  1.7113
  630MOL0     C83062   7.282  -0.682  11.602  0.1513  0.3843  0.3321
  630MOL0     O83063   7.190  -0.775  11.632 -0.3851 -0.7853  0.0248
  630MOL0     C83064   7.094  -0.734  11.722 -0.0655 -0.6490 -0.1041
  630MOL0     C83065   7.024  -0.852  11.775  0.3099 -0.3298 -0.5531
  630MOL0     C83066   6.873  -0.823  11.806  0.5256 -0.2777  0.1502
  630MOL0     C83067   6.808  -0.954  11.821  0.4997  0.4782 -0.9550
  630MOL0     C83068   6.660  -0.942  11.863 -0.2346 -0.9363 -0.8151
  630MOL0     C83069   6.591  -1.078  11.845  0.3157  0.3306 -0.5478
  630MOL0     C83070   6.454  -1.087  11.922 -0.2028 -0.8612  0.5255
  630MOL0     C83071   6.376  -1.209  11.870 -0.1478  0.9066  0.1916
  630MOL0    Cl83072   6.449  -1.343  11.954  0.2032 -0.0659 -0.4696
  630MOL0     C83073   7.407  -0.717  11.631 -0.5647 -0.7046 -0.8157
  630MOL0     C83074   7.510  -0.623  11.608 -0.3426 -0.2282  0.5485
  630MOL0     O83075   7.505  -0.206  11.525 -0.3193  0.1729 -0.1389
  630MOL0     C83076   7.852  -0.275  11.558  0.4798 -0.3996 -0.8346
  630MOL0     C83077   7.973  -0.201  11.559 -0.8612  0.6929 -0.4556
  630MOL0     N83078   8.541   0.096  11.592  0.0062  0.6063  1.1381
  630MOL0     N83079   8.671   0.082  11.616  0.9561  0.6230 -0.0054
  630MOL0     C83080   9.764   0.408  11.303 -0.0250  0.2219 -0.1088
  630MOL0     C83081   9.880   0.480  11.272  0.3355  0.3854  0.4372
  630MOL0     C83082  10.247   0.748  11.264 -0.1321  0.4913  0.6412
  630MOL0     C83083  10.283   0.858  11.188  0.0413  0.0574 -0.8295
  630MOL0     C83084  10.412   0.900  11.187 -1.8715  1.0772  2.0894
  630MOL0     C83085  10.509   0.839  11.261 -1.1393 -0.2759 -0.2082
  630MOL0     O83086  10.641   0.861  11.258 -0.7185  0.5221 -0.4143
  630MOL0     C83087  10.692   0.982  11.204  0.9923 -0.0334 -0.3944
  630MOL0     C83088  10.840   1.004  11.245  0.2956 -1.1799  0.5224
  630MOL0     C83089  10.939   0.905  11.182 -0.1316  0.0196 -0.1488
  630MOL0     C83090  11.083   0.958  11.162  0.4573 -0.1921  0.5440
  630MOL0     C83091  11.170   0.856  11.096 -0.1442  0.2846 -0.3098
  630MOL0     C83092  11.241   0.777  11.039 -0.0071  0.0290 -1.0487
  630MOL0     C83093  10.471   0.726  11.325 -1.3026 -0.5201 -0.3998
  630MOL0     C83094  10.344   0.676  11.317 -1.0541 -0.2295  0.1167
  630MOL0     H83095   9.995   0.525  11.580  1.9273 -0.0844 -0.7628
  630MOL0     H83096   9.768   0.403  11.627 -0.6261  0.3545  0.4809
  630MOL0     H83097   9.461   0.450  11.436  0.7040  2.1500  0.3932
  630MOL0     H83098   9.553   0.471  11.589  3.4273 -3.8455  1.9712
  630MOL0     H83099   9.474   0.244  11.652 -3.0395 -0.3273  2.0618
  630MOL0     H83100   9.390   0.231  11.501  1.0881  0.1426 -0.6391
  630MOL0     H83101   9.248   0.435  11.551  0.1092  0.7079  0.7647
  630MOL0     H83102   9.322   0.446  11.709  0.1428 -0.9496  0.9472
  630MOL0     H83103   9.133   0.251  11.598 -2.3000  2.9493 -1.4770
  630MOL0     H83104   9.242   0.193  11.724  1.6128  1.4058 -0.4359
  630MOL0     H83105   9.082   0.436  11.789  0.2518 -0.1512 -0.9151
  630MOL0     H83106   9.203   0.346  11.884  0.1036  1.7345  0.3575
  630MOL0     H83107   8.964   0.281  11.949 -1.2168 -1.2674  0.0482
  630MOL0     H83108   9.062   0.160  11.866  0.4603  1.8506  1.1296
  630MOL0     H83109   8.835   0.320  11.773  2.4226  2.3274 -0.3037
  630MOL0     H83110   8.947   0.235  11.656 -1.2133 -1.8329 -0.9062
  630MOL0     H83111   8.830   0.086  11.900 -1.1853 -0.7264 -0.1123
  630MOL0     H83112   8.887   0.017  11.740  0.9829  1.2237 -1.3287
  630MOL0     H83113   8.575   0.187  11.909  0.9607  0.6430  0.2394
  630MOL0     H83114   8.319   0.245  11.635 -1.0818  2.0230  0.3242
  630MOL0     H83115   8.360   0.294  11.787 -0.6393 -1.4235  0.2329
  630MOL0     H83116   8.156   0.147  11.796 -1.2460 -1.8675  0.5858
  630MOL0     H83117   8.288   0.085  11.886 -0.0762 -1.1912 -0.6298
  630MOL0     H83118   8.346  -0.085  11.719  0.6991 -0.1738 -1.8603
  630MOL0     H83119   8.180  -0.079  11.756  0.5198  0.8179  1.8623
  630MOL0     H83120   8.240  -0.132  11.518  2.1614  2.0394 -4.4460
  630MOL0     H83121   8.290   0.029  11.493 -1.3929  1.2952  0.3469
  630MOL0     H83122   7.856   0.101  11.456 -0.3269 -1.1591 -2.1416
  630MOL0     H83123   7.646  -0.021  11.475  0.4484  0.9446  1.8687
  630MOL0     H83124   7.335  -0.365  11.469  1.2458  0.3117 -0.4629
  630MOL0     H83125   7.150  -0.534  11.530  0.7428  0.5193 -0.8948
  630MOL0     H83126   7.018  -0.680  11.664 -1.3747 -3.2650 -0.9796
  630MOL0     H83127   7.138  -0.668  11.797  0.4374 -0.6188 -0.4184
  630MOL0     H83128   7.080  -0.871  11.868  0.0521  2.6375  0.2901
  630MOL0     H83129   7.044  -0.933  11.704  5.5766  1.0767 -1.1426
  630MOL0     H83130   6.827  -0.763  11.726 -1.2881 -2.0952 -0.2432
  630MOL0     H83131   6.858  -0.774  11.903  0.4951  0.5119 -0.2413
  630MOL0     H83132   6.802  -0.986  11.717 -3.1842 -1.1059 -0.4042
  630MOL0     H83133   6.876  -1.020  11.877  0.4448  1.7638  0.7034
  630MOL0     H83134   6.614  -0.854  11.817  0.3360 -0.1505  0.0647
  630MOL0     H83135   6.658  -0.918  11.970  0.3168  1.5802 -1.3138
  630MOL0     H83136   6.642  -1.162  11.894 -2.2432 -2.0254 -1.6418
  630MOL0     H83137   6.572  -1.099  11.740 -2.2399 -0.5129  0.0117
  630MOL0     H83138   6.466  -1.098  12.030  1.3731 -2.8097  0.2131
  630MOL0     H83139   6.401  -0.993  11.903 -2.2296 -1.6603  1.8171
  630MOL0     H83140   6.399  -1.227  11.764 -1.7671 -1.1905  0.1437
  630MOL0     H83141   6.272  -1.196  11.899  0.5129  1.3175  2.6034
  630MOL0     H83142   7.421  -0.816  11.674 -5.4139 -1.4981 -0.4909
  630MOL0     H83143   7.616  -0.634  11.626  0.3284  1.0405 -2.1549
  630MOL0     H83144   7.860  -0.380  11.584 -0.3753 -0.3805 -0.4730
  630MOL0     H83145   8.066  -0.250  11.585 -1.6989 -0.1309  1.2034
  630MOL0     H83146   9.702   0.367  11.224  1.9228 -1.1051 -1.0437
  630MOL0     H83147   9.900   0.503  11.168 -1.3725 -2.4748 -0.6405
  630MOL0     H83148  10.202   0.916  11.145 -1.1192 -0.8767  0.0155
  630MOL0     H83149  10.441   0.990  11.133  0.6074 -0.6239  0.3952
  630MOL0     H83150  10.646   1.069  11.251 -0.9329 -1.8291  1.2254
  630MOL0     H83151  10.676   0.983  11.096 -0.2303 -0.8424 -0.2323
  630MOL0     H83152  10.865   1.108  11.223 -0.3301 -1.2767 -0.7166
  630MOL0     H83153  10.842   0.995  11.354 -2.6021 -3.0936  0.5358
  630MOL0     H83154  10.890   0.881  11.087 -1.8945 -0.0105  0.7150
  630MOL0     H83155  10.950   0.824  11.254  0.9896 -1.3345 -1.7811
  630MOL0     H83156  11.082   1.050  11.103  2.8528  1.9502  3.5244
  630MOL0     H83157  11.126   0.995  11.255  1.4782  3.8326 -1.3021
  630MOL0     H83158  11.296   0.702  10.986 -1.5886 -0.5880 -1.8941
  630MOL0     H83159  10.551   0.667  11.369 -1.0992  0.1664  0.1744
  630MOL0     H83160  10.325   0.583  11.370 -1.0767 -0.0542  0.4238
  631MOL0     O83161   3.063   2.062   1.877 -0.7072 -0.2106  0.5664
  631MOL0     C83162   2.963   2.111   1.843  0.0443 -0.1286  0.2163
  631MOL0     O83163   2.947   2.220   1.754 -0.0267  0.1377 -0.4201
  631MOL0     C83164   3.066   2.268   1.695 -0.4945 -0.5597  0.2803
  631MOL0     C83165   3.081   2.410   1.694  0.2492 -0.2831  0.0114
  631MOL0     C83166   3.206   2.473   1.663 -0.6996 -0.1425 -0.0578
  631MOL0     C83167   3.315   2.406   1.614  0.1606 -1.3987 -0.2790
  631MOL0     O83168   3.438   2.474   1.594  1.4212  0.6825 -0.0625
  631MOL0     C83169   3.545   2.394   1.539 -0.3008  0.2677 -0.2943
  631MOL0     C83170   3.666   2.481   1.568 -0.8128  0.2141 -0.5276
  631MOL0     C83171   3.797   2.426   1.508 -0.1184  0.7028 -0.0730
  631MOL0     C83172   3.860   2.310   1.583 -0.0006  0.9674 -0.6952
  631MOL0     C83173   4.002   2.259   1.530  0.0202 -0.6216  0.7490
  631MOL0     C83174   4.112   2.352   1.513 -0.9940  0.1027 -0.6913
  631MOL0     C83175   4.181   2.382   1.649  0.8402 -0.1053  0.0730
  631MOL0     C83176   4.298   2.486   1.635 -0.6219 -0.2704  0.3816
  631MOL0     N83177   4.405   2.415   1.569  0.3731  0.3303 -0.6354
  631MOL0     C83178   4.458   2.455   1.451  0.8899 -0.5486  0.3033
  631MOL0     C83179   4.571   2.394   1.428  0.4359 -0.0977  0.4240
  631MOL0     C83180   4.674   2.441   1.330  0.0425 -0.3665  0.6528
  631MOL0     C83181   4.728   2.576   1.354  0.5598  0.3645 -0.0487
  631MOL0     C83182   4.634   2.704   1.352 -0.7771  0.1888  0.0444
  631MOL0     C83183   4.578   2.740   1.219  0.2170 -0.2767  0.0374
  631MOL0     O83184   4.676   2.802   1.131  0.0450  0.1777 -0.4523
  631MOL0     C83185   4.679   2.938   1.119 -0.5413  0.1078 -0.7905
  631MOL0     C83186   4.643   3.036   1.219 -0.8153  0.4261  0.9266
  631MOL0     C83187   4.648   3.170   1.184  0.5734  0.4716 -0.1698
  631MOL0     C83188   4.671   3.214   1.049 -0.0549  0.2605 -0.5704
  631MOL0     C83189   4.692   3.355   1.021 -0.6941 -0.9224  0.2605
  631MOL0     O83190   4.784   3.397   0.921 -0.0854  0.0387 -1.2837
  631MOL0     C83191   4.776   3.535   0.893 -0.4509  0.2086 -0.0683
  631MOL0     C83192   4.880   3.623   0.912 -0.0716 -0.0797  1.3816
  631MOL0     C83193   4.864   3.756   0.876  0.0567 -0.0889  0.4362
  631MOL0     C83194   4.734   3.801   0.830 -0.7422  1.1749  0.4957
  631MOL0     O83195   4.702   3.931   0.800 -0.3925 -0.3538 -0.1332
  631MOL0     C83196   4.801   4.027   0.813 -0.0705 -0.7246  0.0149
  631MOL0     C83197   4.895   4.022   0.700  0.1193  0.4984 -1.3834
  631MOL0     C83198   5.000   4.136   0.678 -0.0002 -0.4572  0.1100
  631MOL0     C83199   5.074   4.116   0.550  0.7470 -0.0279 -0.5203
  631MOL0     C83200   5.142   4.232   0.500 -0.0995 -0.2285 -0.2790
  631MOL0     C83201   5.267   4.263   0.586  0.8583  0.2748  0.1619
  631MOL0     C83202   5.342   4.379   0.522 -0.9205 -0.6383 -0.6349
  631MOL0     C83203   5.458   4.457   0.598 -0.0918  0.5941 -0.0142
  631MOL0    Cl83204   5.586   4.338   0.652  0.4854  0.1547  0.3614
  631MOL0     C83205   4.627   3.709   0.824  0.0415  0.3870 -0.2350
  631MOL0     C83206   4.654   3.581   0.845  0.7148 -0.2712  0.0104
  631MOL0     O83207   4.624   3.438   1.089  0.6364 -0.5954  0.0283
  631MOL0     C83208   4.700   3.119   0.954 -0.3190  1.3536 -0.6778
  631MOL0     C83209   4.697   2.974   0.986  0.4003 -0.5100 -0.3808
  631MOL0     N83210   4.589   2.310   1.538 -0.7159  0.8219  0.2826
  631MOL0     N83211   4.489   2.322   1.625 -0.0456 -1.2321 -0.1512
  631MOL0     C83212   3.297   2.266   1.610  0.5938 -0.4961  1.1999
  631MOL0     C83213   3.178   2.202   1.650 -0.0780  0.0001  0.0771
  631MOL0     C83214   2.843   2.049   1.901  0.0617  0.3903  0.1299
  631MOL0     C83215   2.713   2.110   1.879  0.1672  0.5971  0.5611
  631MOL0     C83216   2.605   2.076   1.971 -0.5125 -0.6005 -0.7004
  631MOL0     C83217   2.626   1.987   2.081  0.5489  0.1280  0.1873
  631MOL0     O83218   2.543   1.969   2.183 -0.1925  0.5064 -0.1734
  631MOL0     C83219   2.456   2.065   2.235 -0.1951 -0.1503  0.9865
  631MOL0     C83220   2.314   2.075   2.159  0.0018 -0.0385  0.6774
  631MOL0     C83221   2.248   2.209   2.186  0.4296  0.2248 -0.1824
  631MOL0     C83222   2.139   2.238   2.089 -0.4617 -0.3753  0.0793
  631MOL0     C83223   2.072   2.365   2.136 -0.4427 -0.7248 -0.7207
  631MOL0     C83224   2.023   2.469   2.170  0.0563 -0.2048  0.7453
  631MOL0     C83225   2.752   1.918   2.087 -0.4413 -0.3562  0.2194
  631MOL0     C83226   2.849   1.945   1.997  0.4546  0.5196  0.1760
  631MOL0     H83227   2.995   2.466   1.729 -0.0769 -0.9835  0.3364
  631MOL0     H83228   3.229   2.576   1.691  0.7039 -0.6896  0.9102
  631MOL0     H83229   3.542   2.363   1.434  1.9967 -2.3136  0.2637
  631MOL0     H83230   3.548   2.294   1.585  2.3576  1.4805  2.5557
  631MOL0     H83231   3.679   2.477   1.677 -3.0093 -0.1515 -0.2373
  631MOL0     H83232   3.654   2.581   1.523  1.1065  0.2319 -1.1292
  631MOL0     H83233   3.875   2.503   1.510 -0.7654  1.3532  1.2230
  631MOL0     H83234   3.781   2.408   1.401  0.4571  0.1684 -0.0727
  631MOL0     H83235   3.871   2.343   1.687  1.3859 -0.1720 -0.4412
  631MOL0     H83236   3.798   2.220   1.581  3.3024 -1.5994  1.0970
  631MOL0     H83237   3.990   2.224   1.426  0.1651  1.9772 -0.2163
  631MOL0     H83238   4.031   2.168   1.583  2.3891 -0.6204 -0.4164
  631MOL0     H83239   4.088   2.443   1.457  1.4499  1.0694 -0.2866
  631MOL0     H83240   4.187   2.294   1.457 -1.6542 -3.1719  1.5324
  631MOL0     H83241   4.111   2.423   1.723 -0.0846 -0.7130 -0.4410
  631MOL0     H83242   4.228   2.289   1.682  1.6439 -0.3524 -1.6375
  631MOL0     H83243   4.320   2.517   1.738 -0.3395 -1.9191  0.8505
  631MOL0     H83244   4.272   2.569   1.568 -1.8960 -0.6434  0.3963
  631MOL0     H83245   4.414   2.530   1.387  0.2832 -1.8293 -0.8121
  631MOL0     H83246   4.628   2.444   1.231 -0.8792  1.5465  1.1018
  631MOL0     H83247   4.760   2.374   1.314 -0.7698 -1.1346 -0.6355
  631MOL0     H83248   4.818   2.591   1.293  0.1258  0.1031 -0.7574
  631MOL0     H83249   4.762   2.566   1.458 -0.7708  1.1305  0.4859
  631MOL0     H83250   4.556   2.705   1.429  0.6092  0.3261  1.4979
  631MOL0     H83251   4.702   2.781   1.388 -1.5907 -0.3369  3.0041
  631MOL0     H83252   4.490   2.804   1.231  0.8436  0.1702  3.2155
  631MOL0     H83253   4.539   2.652   1.168  4.0235  0.0622 -4.0586
  631MOL0     H83254   4.619   3.001   1.319 -0.7683  2.1488  1.5728
  631MOL0     H83255   4.627   3.247   1.258 -2.9796  0.6391 -1.1848
  631MOL0     H83256   4.975   3.594   0.957  0.6755 -1.1559 -0.7696
  631MOL0     H83257   4.945   3.823   0.904  0.8138 -1.4583  1.7029
  631MOL0     H83258   4.863   4.022   0.903  2.7666  3.0260 -1.4609
  631MOL0     H83259   4.752   4.124   0.802 -2.7008 -2.1386 -1.8617
  631MOL0     H83260   4.828   4.023   0.614 -1.8810 -2.6016 -0.0231
  631MOL0     H83261   4.939   3.922   0.700 -0.5330  0.2053 -0.6853
  631MOL0     H83262   5.071   4.163   0.756  1.4938  2.1046 -1.9623
  631MOL0     H83263   4.945   4.225   0.647 -0.5909 -0.4057  1.2522
  631MOL0     H83264   5.134   4.025   0.561  1.3440  0.6073  2.7197
  631MOL0     H83265   4.996   4.107   0.474  0.3628  1.0918 -0.2833
  631MOL0     H83266   5.076   4.319   0.501  0.4914  0.2707 -1.8081
  631MOL0     H83267   5.171   4.226   0.395 -1.0551 -1.0878 -0.5158
  631MOL0     H83268   5.329   4.173   0.593  2.7044  1.3586 -1.3810
  631MOL0     H83269   5.238   4.308   0.681  1.8755  3.0745 -0.7547
  631MOL0     H83270   5.384   4.348   0.426  1.0388  3.9406 -1.5162
  631MOL0     H83271   5.268   4.459   0.509  0.0874  0.7664  1.6231
  631MOL0     H83272   5.413   4.506   0.685 -2.5071 -3.7933  1.5246
  631MOL0     H83273   5.507   4.524   0.528  0.9209 -1.7299 -1.6324
  631MOL0     H83274   4.524   3.741   0.807 -0.5654 -1.5080 -0.3497
  631MOL0     H83275   4.568   3.516   0.856  0.4367  0.0623 -0.1417
  631MOL0     H83276   4.708   3.154   0.852 -1.5351  1.8194 -0.6235
  631MOL0     H83277   4.703   2.899   0.908 -2.0874  0.3493 -1.5175
  631MOL0     H83278   3.368   2.200   1.561 -2.2736 -3.4568  0.5834
  631MOL0     H83279   3.190   2.095   1.634  0.0013 -0.3648  2.2586
  631MOL0     H83280   2.705   2.184   1.799  1.4805 -0.2074 -0.3629
  631MOL0     H83281   2.517   2.138   1.981 -1.3637 -0.9843 -4.3098
  631MOL0     H83282   2.514   2.158   2.231  0.0207 -0.2363  1.8964
  631MOL0     H83283   2.438   2.053   2.342 -4.8149  0.7684  0.5114
  631MOL0     H83284   2.325   2.067   2.051  1.2244  0.6030  0.7372
  631MOL0     H83285   2.259   1.982   2.180  0.3353 -0.6526 -0.9842
  631MOL0     H83286   2.324   2.286   2.171 -0.2240  0.4442 -2.8927
  631MOL0     H83287   2.210   2.215   2.289  4.5947 -4.4774  2.0646
  631MOL0     H83288   2.190   2.240   1.992 -1.4092 -3.0253 -0.5375
  631MOL0     H83289   2.078   2.149   2.100  2.0187 -2.2279 -0.2879
  631MOL0     H83290   1.974   2.557   2.205 -1.9745 -1.4217  1.0999
  631MOL0     H83291   2.758   1.835   2.157 -3.9358 -2.3558 -1.5911
  631MOL0     H83292   2.946   1.907   2.029  0.3675  1.7916  2.0784
  632MOL0     O83293   4.511   8.876   0.576 -0.2506  0.1395  0.4154
  632MOL0     C83294   4.602   8.875   0.484 -0.3541 -0.2726 -0.5852
  632MOL0     O83295   4.574   8.894   0.346 -0.2046  0.1032 -0.2386
  632MOL0     C83296   4.460   8.945   0.301  1.1008  0.9032  1.0089
  632MOL0     C83297   4.413   9.072   0.332  0.1014  0.1358  0.1931
  632MOL0     C83298   4.301   9.123   0.271  0.0361  0.3771  0.1505
  632MOL0     C83299   4.222   9.041   0.189 -1.1404 -0.2121 -0.2596
  632MOL0     O83300   4.100   9.079   0.128 -0.0102 -0.2521  0.1433
  632MOL0     C83301   4.083   9.222   0.105 -0.6467 -0.0085 -0.7978
  632MOL0     C83302   4.007   9.281   0.228  0.0771  0.3151 -0.0206
  632MOL0     C83303   3.869   9.212   0.257  0.4488 -0.0836  0.0039
  632MOL0     C83304   3.809   9.258   0.393  0.0711  0.1251 -0.5104
  632MOL0     C83305   3.657   9.282   0.390 -0.4245  0.7297  1.1431
  632MOL0     C83306   3.620   9.390   0.291  0.6450  0.1498 -0.3354
  632MOL0     C83307   3.676   9.531   0.310 -0.1372  0.0276 -0.0495
  632MOL0     C83308   3.655   9.612   0.185 -0.1793 -0.6406 -0.0232
  632MOL0     N83309   3.733   9.742   0.202 -0.3707  1.7047 -0.3046
  632MOL0     C83310   3.681   9.851   0.264  0.8161  0.8195 -0.0905
  632MOL0     C83311   3.780   9.945   0.262 -1.0169 -0.4296  0.1839
  632MOL0     C83312   3.768  10.082   0.297  0.2156  0.5187 -0.4054
  632MOL0     C83313   3.879  10.134   0.393 -0.3275 -0.1986 -0.3047
  632MOL0     C83314   3.851  10.101   0.543 -0.0170  0.0972  0.9258
  632MOL0     C83315   3.875  10.237   0.614 -0.0652 -0.4693  0.1441
  632MOL0     O83316   3.820  10.224   0.748 -0.3201 -0.2728  0.7044
  632MOL0     C83317   3.891  10.165   0.846  0.2516 -1.2929  1.2708
  632MOL0     C83318   4.021  10.114   0.846  0.3352  0.9222  0.1734
  632MOL0     C83319   4.074  10.055   0.965 -0.0763  0.1125  0.4839
  632MOL0     C83320   4.003  10.051   1.082  0.9078 -0.3179 -0.6675
  632MOL0     C83321   4.060   9.984   1.195 -0.2108  0.3329  0.3319
  632MOL0     O83322   4.001  10.015   1.320  0.3005  0.3373  0.2182
  632MOL0     C83323   4.033   9.961   1.439  0.7263 -0.1406 -0.3305
  632MOL0     C83324   4.089   9.838   1.462 -0.8579  1.0122  0.4380
  632MOL0     C83325   4.141   9.798   1.588 -0.7295  0.1224  0.2966
  632MOL0     C83326   4.097   9.871   1.704 -0.5692 -0.2336 -0.2619
  632MOL0     O83327   4.114   9.814   1.827  0.0506 -0.3558  0.1377
  632MOL0     C83328   3.997   9.753   1.878  0.0590 -0.1382 -0.8022
  632MOL0     C83329   4.032   9.650   1.988 -0.9110 -0.5058 -0.8131
  632MOL0     C83330   4.048   9.740   2.115  0.2362 -0.4344  0.4387
  632MOL0     C83331   3.917   9.787   2.176 -0.2586  1.7313  0.3744
  632MOL0     C83332   3.914   9.835   2.328 -0.0693  0.0237 -0.0899
  632MOL0     C83333   3.765   9.858   2.385  0.4011  0.0303  0.6871
  632MOL0     C83334   3.763   9.963   2.498 -0.9017  0.2581  0.2814
  632MOL0     C83335   3.827   9.921   2.631 -0.5802 -0.0129 -0.3108
  632MOL0    Cl83336   3.743   9.773   2.679 -0.2833 -0.3314  0.0646
  632MOL0     C83337   4.037   9.991   1.681  0.1643 -1.3256 -0.0411
  632MOL0     C83338   4.016  10.037   1.551 -0.0219  0.0748 -0.3827
  632MOL0     O83339   4.147   9.903   1.177 -0.5829 -0.5464  0.2795
  632MOL0     C83340   3.876  10.108   1.081  0.3606  0.4385 -1.0950
  632MOL0     C83341   3.830  10.174   0.968 -0.6486 -0.0427  0.0828
  632MOL0     N83342   3.890   9.875   0.204  0.2599 -0.5869  0.4343
  632MOL0     N83343   3.862   9.752   0.172 -0.0928 -0.1559  0.0323
  632MOL0     C83344   4.257   8.909   0.175  0.0495 -0.1285  0.1928
  632MOL0     C83345   4.383   8.867   0.216  1.1146 -0.3426  0.7800
  632MOL0     C83346   4.735   8.829   0.523  0.2744  0.1705 -1.0837
  632MOL0     C83347   4.775   8.847   0.656 -0.0374 -0.1122 -0.3981
  632MOL0     C83348   4.906   8.820   0.694  0.3797  0.5318  0.4394
  632MOL0     C83349   5.000   8.771   0.604 -0.5157 -0.6518  0.1223
  632MOL0     O83350   5.128   8.776   0.642 -0.4508 -0.1786  0.2548
  632MOL0     C83351   5.185   8.647   0.621 -1.1998 -0.3261 -0.3645
  632MOL0     C83352   5.319   8.643   0.696 -0.4302 -0.3203  0.3835
  632MOL0     C83353   5.307   8.676   0.849 -0.7501  0.6065  0.7186
  632MOL0     C83354   5.454   8.672   0.895 -0.9213  0.0856  0.8384
  632MOL0     C83355   5.492   8.737   1.018  0.5723  0.2214 -0.4246
  632MOL0     C83356   5.550   8.768   1.119  0.0401  0.0187 -0.9291
  632MOL0     C83357   4.956   8.741   0.476  0.1319 -0.2321 -0.3808
  632MOL0     C83358   4.828   8.772   0.437 -0.1772  0.5349 -0.4909
  632MOL0     H83359   4.457   9.147   0.398 -2.5698  2.0139 -0.0272
  632MOL0     H83360   4.275   9.228   0.281  1.1856  0.4772  4.9827
  632MOL0     H83361   4.028   9.228   0.011 -0.1543  1.0847 -1.0251
  632MOL0     H83362   4.176   9.277   0.090  0.8445 -2.1784 -0.0951
  632MOL0     H83363   3.987   9.386   0.208 -0.7388  0.6864  2.3936
  632MOL0     H83364   4.065   9.277   0.321  3.1476  2.9144 -1.6318
  632MOL0     H83365   3.871   9.103   0.254 -0.9345 -0.2325  2.4724
  632MOL0     H83366   3.811   9.232   0.166  0.5711  1.3365  0.2102
  632MOL0     H83367   3.824   9.175   0.463 -0.1175 -2.5453 -3.3943
  632MOL0     H83368   3.854   9.352   0.426 -4.3047  1.2415  3.5725
  632MOL0     H83369   3.633   9.306   0.494 -0.8430 -0.6447  1.3733
  632MOL0     H83370   3.597   9.195   0.362 -1.0621  0.6530  2.6476
  632MOL0     H83371   3.511   9.385   0.298  0.6803 -0.8389 -0.4321
  632MOL0     H83372   3.653   9.355   0.193 -2.4391 -1.1294 -1.0399
  632MOL0     H83373   3.643   9.585   0.400  2.7950  0.8386  0.6587
  632MOL0     H83374   3.785   9.522   0.323  0.2444  3.0220 -0.4283
  632MOL0     H83375   3.553   9.647   0.165  0.7709  1.4242 -1.5159
  632MOL0     H83376   3.687   9.557   0.096  0.2213  1.5774 -1.3176
  632MOL0     H83377   3.583   9.873   0.306 -0.0102 -0.7401 -1.0925
  632MOL0     H83378   3.670  10.111   0.337  0.7628 -0.1404  1.4963
  632MOL0     H83379   3.761  10.135   0.201 -1.0010 -2.1084 -1.8855
  632MOL0     H83380   3.895  10.241   0.379  0.1971 -0.2365 -0.0254
  632MOL0     H83381   3.969  10.090   0.349 -0.5870 -0.9509 -0.0974
  632MOL0     H83382   3.747  10.076   0.563  0.3686  0.3466  3.5137
  632MOL0     H83383   3.927  10.028   0.571  0.4397  0.0158 -0.4193
  632MOL0     H83384   3.844  10.328   0.562 -1.2304  0.3720  2.2033
  632MOL0     H83385   3.984  10.238   0.621 -0.1410 -0.8056  1.7555
  632MOL0     H83386   4.080  10.108   0.755 -3.5790 -2.1245 -2.4969
  632MOL0     H83387   4.174  10.013   0.965 -1.1088 -2.5722  0.6545
  632MOL0     H83388   4.129   9.785   1.376  1.6059  2.2834  0.7025
  632MOL0     H83389   4.218   9.723   1.604 -0.1017  0.7414  0.2194
  632MOL0     H83390   3.945   9.696   1.801 -0.3899 -1.6537  0.5747
  632MOL0     H83391   3.921   9.822   1.914 -0.8199 -0.6907 -1.5731
  632MOL0     H83392   4.129   9.605   1.965  0.0787  1.0727  0.0951
  632MOL0     H83393   3.958   9.571   2.007 -3.4995  2.1587  0.9217
  632MOL0     H83394   4.105   9.829   2.088  0.8121 -0.9060  0.0417
  632MOL0     H83395   4.097   9.674   2.187  2.3826 -2.2144 -2.4025
  632MOL0     H83396   3.883   9.870   2.114 -0.9604  1.0639 -0.1500
  632MOL0     H83397   3.854   9.698   2.185  0.1854  1.5969  4.8569
  632MOL0     H83398   3.968   9.930   2.327  1.9461 -1.0330 -2.3129
  632MOL0     H83399   3.969   9.764   2.392  0.5329  0.2249 -0.3715
  632MOL0     H83400   3.727   9.763   2.422 -0.9363 -1.0386 -2.9605
  632MOL0     H83401   3.700   9.891   2.304 -3.4164  0.1873  3.5223
  632MOL0     H83402   3.812  10.049   2.452 -1.7815 -0.1557 -1.5011
  632MOL0     H83403   3.657   9.984   2.513 -0.7957  1.7264 -0.7837
  632MOL0     H83404   3.814  10.001   2.704  2.3230  0.1153  0.1817
  632MOL0     H83405   3.935   9.905   2.622 -0.4626 -0.2336  1.3064
  632MOL0     H83406   4.007  10.056   1.763  0.6556 -1.9406  0.6323
  632MOL0     H83407   3.981  10.140   1.545  0.7131  0.4947  1.7345
  632MOL0     H83408   3.816  10.115   1.171 -0.7846 -0.4396 -1.7616
  632MOL0     H83409   3.735  10.226   0.980 -1.2108 -1.3546  1.7014
  632MOL0     H83410   4.209   8.838   0.108 -0.7599  1.4556 -0.9653
  632MOL0     H83411   4.411   8.768   0.181  0.9429 -1.4713  3.6289
  632MOL0     H83412   4.713   8.895   0.732  0.1613  2.1025 -1.5660
  632MOL0     H83413   4.942   8.839   0.794  1.9325  1.8584 -0.3286
  632MOL0     H83414   5.196   8.641   0.512  1.1435 -2.2437 -0.1078
  632MOL0     H83415   5.119   8.567   0.658  0.5019 -0.9471  1.5299
  632MOL0     H83416   5.357   8.543   0.676  1.3035  0.8272 -2.8428
  632MOL0     H83417   5.379   8.716   0.641  1.1692 -1.7369  0.1691
  632MOL0     H83418   5.252   8.596   0.900  0.9548  1.4209  4.0684
  632MOL0     H83419   5.267   8.775   0.867 -1.5773  0.6141 -0.9388
  632MOL0     H83420   5.491   8.571   0.917 -2.7742 -0.3665  2.1112
  632MOL0     H83421   5.520   8.710   0.817 -0.3364 -1.0210  0.7692
  632MOL0     H83422   5.611   8.787   1.204 -2.7517  1.7934  0.8547
  632MOL0     H83423   5.018   8.693   0.401 -0.7989 -0.0039 -1.3224
  632MOL0     H83424   4.800   8.748   0.335  0.4917 -1.3305 -0.2859
  633MOL0     O83425   4.607   9.478   6.484  0.2468 -0.3112 -0.5885
  633MOL0     C83426   4.659   9.579   6.456 -0.0008 -0.2054  0.6528
  633MOL0     O83427   4.653   9.644   6.331 -0.4222  0.5357 -1.1772
  633MOL0     C83428   4.578   9.599   6.224 -0.1510  0.1348 -0.5974
  633MOL0     C83429   4.454   9.530   6.230  0.5380  0.5315 -0.1948
  633MOL0     C83430   4.395   9.489   6.110 -0.4167  0.5584  0.2390
  633MOL0     C83431   4.446   9.530   5.987  0.2576  0.6516  0.5675
  633MOL0     O83432   4.389   9.484   5.872 -0.6121  0.9332  1.0380
  633MOL0     C83433   4.338   9.585   5.793  0.0847 -0.7490  0.9202
  633MOL0     C83434   4.264   9.535   5.671  0.0374  0.6033 -0.4483
  633MOL0     C83435   4.137   9.446   5.702 -0.2281  0.3509 -0.5617
  633MOL0     C83436   4.085   9.409   5.566 -0.4312  0.8723 -0.6554
  633MOL0     C83437   3.970   9.301   5.577  0.6209 -0.6877  0.1289
  633MOL0     C83438   3.860   9.344   5.672 -0.3370 -0.8238 -0.2339
  633MOL0     C83439   3.782   9.468   5.618  0.2800  0.3278 -0.1454
  633MOL0     C83440   3.731   9.432   5.483  0.1122 -0.1087 -0.0588
  633MOL0     N83441   3.615   9.505   5.426  1.4023  0.0617  1.0942
  633MOL0     C83442   3.612   9.637   5.381  0.5906  0.4485 -0.7037
  633MOL0     C83443   3.491   9.651   5.341  1.4082 -0.0991 -1.1007
  633MOL0     C83444   3.418   9.772   5.273 -0.1987  0.1387 -0.9978
  633MOL0     C83445   3.280   9.806   5.334  1.0936 -0.6423  0.4478
  633MOL0     C83446   3.302   9.897   5.459 -0.0648  0.2723  0.0541
  633MOL0     C83447   3.172   9.951   5.503 -0.5449  0.2916 -0.2325
  633MOL0     O83448   3.105  10.033   5.405 -0.5735  0.1277  0.4732
  633MOL0     C83449   2.980  10.086   5.412 -0.3650  0.2267 -0.4109
  633MOL0     C83450   2.892  10.050   5.517 -0.2766 -0.7942 -0.0496
  633MOL0     C83451   2.753  10.090   5.517 -0.6715  0.4538 -0.6214
  633MOL0     C83452   2.707  10.160   5.405  0.4152  0.5734 -0.2394
  633MOL0     C83453   2.564  10.201   5.392  0.0532  0.4926  0.1253
  633MOL0     O83454   2.484  10.176   5.508 -0.4982  0.3884 -0.3329
  633MOL0     C83455   2.374  10.246   5.543  0.4089  0.7874  0.0742
  633MOL0     C83456   2.306  10.202   5.660 -0.7343 -0.1492 -0.4049
  633MOL0     C83457   2.187  10.265   5.699  1.1021 -0.0544 -0.3928
  633MOL0     C83458   2.142  10.380   5.636 -0.6036 -0.5188 -0.6839
  633MOL0     O83459   2.032  10.457   5.669 -0.0674  0.1486  0.1751
  633MOL0     C83460   1.932  10.406   5.757 -0.5759  0.0960  0.1967
  633MOL0     C83461   1.805  10.489   5.737  0.4405 -0.1699 -0.2241
  633MOL0     C83462   1.684  10.407   5.786  0.3599 -0.4176 -0.3390
  633MOL0     C83463   1.542  10.488   5.784  0.6264 -0.0611 -0.7831
  633MOL0     C83464   1.416  10.414   5.841  0.5286 -0.6644  0.1601
  633MOL0     C83465   1.395  10.272   5.784 -0.1979 -0.4620  0.5792
  633MOL0     C83466   1.251  10.229   5.826 -0.5656 -0.3137  0.4958
  633MOL0     C83467   1.221  10.100   5.746 -0.6459 -0.1177 -0.5819
  633MOL0    Cl83468   1.189  10.134   5.583 -0.0738  0.2287  0.5106
  633MOL0     C83469   2.210  10.430   5.525  1.4727 -0.4461 -0.2863
  633MOL0     C83470   2.318  10.363   5.474  0.1248  0.0002 -0.6135
  633MOL0     O83471   2.523  10.248   5.285  0.6079  0.4178 -0.1395
  633MOL0     C83472   2.801  10.207   5.310  0.1529  0.0536 -0.6330
  633MOL0     C83473   2.937  10.174   5.314 -0.6277  0.7158  0.2101
  633MOL0     N83474   3.408   9.542   5.368 -0.2532  0.6056  0.3655
  633MOL0     N83475   3.488   9.450   5.401 -0.5612 -0.2707 -0.3638
  633MOL0     C83476   4.571   9.598   5.988 -0.1826  0.8102 -0.1337
  633MOL0     C83477   4.635   9.641   6.107  0.3955  0.7278  0.9042
  633MOL0     C83478   4.709   9.659   6.570  0.1609 -0.2730  0.6076
  633MOL0     C83479   4.722   9.611   6.693 -0.3841  0.8261 -0.0926
  633MOL0     C83480   4.762   9.682   6.806  0.1474  0.7516  0.7696
  633MOL0     C83481   4.784   9.821   6.783 -1.1916  0.4379  0.6608
  633MOL0     O83482   4.818   9.907   6.882 -0.3415 -0.4653  0.4979
  633MOL0     C83483   4.857   9.852   7.005 -0.1680  0.4009 -0.7472
  633MOL0     C83484   4.904   9.952   7.109 -0.1222 -0.2502  0.0457
  633MOL0     C83485   4.908   9.894   7.252 -1.6903 -0.2426  0.1440
  633MOL0     C83486   4.772   9.870   7.309  0.5886 -0.5789  1.0690
  633MOL0     C83487   4.796   9.866   7.455 -0.5156  0.0892  0.4487
  633MOL0     C83488   4.802   9.865   7.573  0.3012  0.6403  0.3992
  633MOL0     C83489   4.770   9.882   6.664 -0.0071  0.6681  0.3900
  633MOL0     C83490   4.731   9.796   6.557 -0.7749  0.0520 -0.7084
  633MOL0     H83491   4.424   9.503   6.331  2.0490  3.3189  1.0945
  633MOL0     H83492   4.302   9.433   6.096 -0.4921  1.2660 -2.9623
  633MOL0     H83493   4.420   9.652   5.765  0.7432 -1.8710  0.1013
  633MOL0     H83494   4.270   9.640   5.859 -0.0131  0.0254  0.1913
  633MOL0     H83495   4.337   9.469   5.623  0.5927  0.3422  0.7123
  633MOL0     H83496   4.234   9.612   5.599  0.8961 -0.4571 -1.9755
  633MOL0     H83497   4.069   9.499   5.770  1.5460  0.3886  1.2913
  633MOL0     H83498   4.156   9.352   5.754  0.9892  2.3876  3.0159
  633MOL0     H83499   4.050   9.495   5.508 -0.8767  1.0657 -0.1067
  633MOL0     H83500   4.169   9.370   5.509  0.8395 -2.5990  3.0999
  633MOL0     H83501   3.999   9.198   5.604 -1.3288 -1.6416 -1.1849
  633MOL0     H83502   3.924   9.280   5.480  0.4651  1.2238 -0.2418
  633MOL0     H83503   3.885   9.371   5.775 -1.3318  0.2815 -0.2553
  633MOL0     H83504   3.799   9.254   5.683  1.0437 -1.7877 -0.2771
  633MOL0     H83505   3.695   9.486   5.682  1.4496  2.4318  0.9859
  633MOL0     H83506   3.848   9.555   5.614  1.3866 -0.4640  0.4126
  633MOL0     H83507   3.705   9.326   5.475  0.9818 -0.3382  0.0913
  633MOL0     H83508   3.819   9.448   5.420 -0.1799 -1.3246 -0.7953
  633MOL0     H83509   3.698   9.702   5.370  2.2540 -1.5150  0.0500
  633MOL0     H83510   3.408   9.733   5.171 -0.4803  0.3765 -1.0630
  633MOL0     H83511   3.475   9.866   5.265 -1.0433  0.6119 -1.7787
  633MOL0     H83512   3.217   9.721   5.363  1.7190 -1.1443  0.3712
  633MOL0     H83513   3.227   9.871   5.263  0.1011 -0.1045  1.6469
  633MOL0     H83514   3.333   9.829   5.539 -0.4207  0.7625  0.6187
  633MOL0     H83515   3.371   9.981   5.451  1.9425 -1.1308  1.5196
  633MOL0     H83516   3.173  10.007   5.596 -0.7796 -1.8357  1.1289
  633MOL0     H83517   3.103   9.867   5.519 -0.6383  0.4468  0.1996
  633MOL0     H83518   2.933   9.994   5.600  0.7866  1.2483  0.8875
  633MOL0     H83519   2.684  10.060   5.595 -2.1642 -0.0483 -2.0591
  633MOL0     H83520   2.328  10.120   5.728 -2.1115 -0.3943 -0.2286
  633MOL0     H83521   2.129  10.217   5.777  2.0240 -0.8408 -0.1875
  633MOL0     H83522   1.967  10.411   5.860 -1.4764  0.2869  0.5033
  633MOL0     H83523   1.910  10.302   5.731  2.0172 -0.4495 -0.0554
  633MOL0     H83524   1.800  10.512   5.630  1.5532 -1.1737 -0.5219
  633MOL0     H83525   1.811  10.576   5.802 -2.5019  0.0700 -0.1746
  633MOL0     H83526   1.713  10.379   5.888  0.8939 -0.9585 -0.6345
  633MOL0     H83527   1.673  10.316   5.727  0.8034  0.1229 -1.2853
  633MOL0     H83528   1.552  10.577   5.847 -1.5571 -0.8124  0.7445
  633MOL0     H83529   1.521  10.524   5.683  0.7241  1.9318 -0.1379
  633MOL0     H83530   1.327  10.471   5.814  1.5522 -0.5583 -3.6560
  633MOL0     H83531   1.430  10.414   5.949 -0.6213 -2.7361  0.3723
  633MOL0     H83532   1.471  10.210   5.831 -0.6010 -0.6231  1.0241
  633MOL0     H83533   1.408  10.269   5.675  1.5278 -0.0536  0.7468
  633MOL0     H83534   1.256  10.220   5.935 -0.4575  0.3150  0.5462
  633MOL0     H83535   1.181  10.309   5.800  0.2436  1.5332  3.4567
  633MOL0     H83536   1.132  10.053   5.789 -0.5364 -0.4365 -0.6980
  633MOL0     H83537   1.296  10.021   5.755 -0.2936  0.4296  2.4491
  633MOL0     H83538   2.175  10.520   5.477 -0.0978  0.0862  1.7525
  633MOL0     H83539   2.370  10.406   5.389  0.8092 -0.1844 -0.2938
  633MOL0     H83540   2.781  10.266   5.221  1.2382 -1.1408 -1.7216
  633MOL0     H83541   3.007  10.196   5.235  0.0074 -0.4206  0.4345
  633MOL0     H83542   4.627   9.610   5.896  2.2043 -4.3991  0.2768
  633MOL0     H83543   4.728   9.696   6.115  0.4595  1.0449 -1.5525
  633MOL0     H83544   4.703   9.504   6.693 -1.2681  0.9719 -0.6315
  633MOL0     H83545   4.783   9.623   6.895  5.1475  1.3169  0.2747
  633MOL0     H83546   4.945   9.788   6.996 -0.3779  0.0859 -0.5803
  633MOL0     H83547   4.775   9.794   7.047 -0.2156  0.1483 -1.1849
  633MOL0     H83548   4.998   9.999   7.078  0.4119  0.0371  1.9518
  633MOL0     H83549   4.824  10.026   7.106  2.4788  2.7367 -0.7347
  633MOL0     H83550   4.962   9.964   7.318 -1.0207 -0.7199  0.1129
  633MOL0     H83551   4.962   9.799   7.253  1.6716  1.4763  1.5125
  633MOL0     H83552   4.699   9.950   7.291 -0.4384 -2.1554 -2.6870
  633MOL0     H83553   4.737   9.774   7.271 -0.7708  0.3164 -0.0441
  633MOL0     H83554   4.815   9.852   7.679 -0.1827 -1.8572  0.2098
  633MOL0     H83555   4.790   9.988   6.655 -2.5265  1.4190  2.4577
  633MOL0     H83556   4.730   9.841   6.458 -0.2545  2.0408  0.1195
  634MOL0     O83557   6.260  10.694   3.196  0.4244 -0.0648 -0.1736
  634MOL0     C83558   6.366  10.632   3.218  0.5930 -0.8957 -0.2042
  634MOL0     O83559   6.487  10.687   3.248  0.4754 -0.7324  0.5674
  634MOL0     C83560   6.492  10.823   3.235  0.5330 -0.0058  0.2795
  634MOL0     C83561   6.554  10.880   3.120  0.9994  0.8027 -0.7030
  634MOL0     C83562   6.564  11.023   3.114 -0.1846  0.7164 -0.4344
  634MOL0     C83563   6.520  11.109   3.210  1.2373  0.3521  0.0931
  634MOL0     O83564   6.504  11.239   3.168 -0.6509 -0.1955  0.1529
  634MOL0     C83565   6.574  11.337   3.249 -0.6608  0.4355  0.3921
  634MOL0     C83566   6.486  11.402   3.363  0.2311  0.8154 -0.2239
  634MOL0     C83567   6.344  11.419   3.319  0.2736 -0.4003  0.7942
  634MOL0     C83568   6.318  11.517   3.208  0.0267  0.1721  1.3766
  634MOL0     C83569   6.170  11.545   3.193 -0.8850  0.2767  0.6779
  634MOL0     C83570   6.091  11.437   3.134  0.4163 -0.5900  0.1102
  634MOL0     C83571   5.939  11.481   3.128  0.1748  0.3394  0.2977
  634MOL0     C83572   5.851  11.358   3.090 -0.7756  0.3444  0.0974
  634MOL0     N83573   5.715  11.397   3.095 -0.1021  0.2068  0.2457
  634MOL0     C83574   5.631  11.403   2.986 -1.1805 -0.0713 -1.2948
  634MOL0     C83575   5.513  11.436   3.032 -0.0193  0.1528  0.0704
  634MOL0     C83576   5.392  11.478   2.947 -0.6077 -0.1770  0.6642
  634MOL0     C83577   5.353  11.365   2.854 -0.2983  1.1976 -1.1797
  634MOL0     C83578   5.217  11.377   2.789 -0.2773  0.7322 -0.3046
  634MOL0     C83579   5.203  11.266   2.678 -0.3725  0.0135 -0.6915
  634MOL0     O83580   5.182  11.140   2.749 -0.2191  1.2950  0.4462
  634MOL0     C83581   5.066  11.107   2.814  0.3597  0.4991  0.6132
  634MOL0     C83582   5.062  10.979   2.886 -0.3132 -0.4607  0.5434
  634MOL0     C83583   4.939  10.923   2.918 -0.1797  0.5135  0.9322
  634MOL0     C83584   4.824  10.980   2.876 -0.1972  0.2895 -0.0374
  634MOL0     C83585   4.696  10.905   2.895  0.1710 -0.3852 -0.6387
  634MOL0     O83586   4.707  10.766   2.926  0.0482  0.1236 -0.3925
  634MOL0     C83587   4.598  10.708   2.999  0.1112 -0.2927  0.1168
  634MOL0     C83588   4.521  10.774   3.091  0.0862  0.4112 -0.2558
  634MOL0     C83589   4.406  10.710   3.152 -0.3616 -0.3358 -0.5924
  634MOL0     C83590   4.368  10.579   3.116 -0.1953 -0.2518  0.9031
  634MOL0     O83591   4.240  10.540   3.157 -0.0529  0.1434  0.7506
  634MOL0     C83592   4.155  10.462   3.074  1.1544  0.2056  0.0564
  634MOL0     C83593   4.179  10.320   3.118  0.2637  0.2583  0.6972
  634MOL0     C83594   4.125  10.272   3.254 -0.8938 -0.0459  0.2012
  634MOL0     C83595   3.972  10.248   3.262  0.0628  1.3007  0.2306
  634MOL0     C83596   3.940  10.184   3.401 -0.1624 -0.0066 -0.4024
  634MOL0     C83597   4.012  10.061   3.443  0.4169 -0.6352 -0.5190
  634MOL0     C83598   3.932   9.992   3.557  0.2785  0.9502  0.6230
  634MOL0     C83599   3.991   9.858   3.601  0.3656 -0.0318 -0.1761
  634MOL0    Cl83600   4.142   9.861   3.688 -0.6473 -0.3347  0.2297
  634MOL0     C83601   4.461  10.508   3.037 -0.2171  0.1054 -0.8262
  634MOL0     C83602   4.573  10.574   2.980  0.8941  0.1568  0.6836
  634MOL0     O83603   4.596  10.967   2.877 -0.0456  0.8623  0.6817
  634MOL0     C83604   4.830  11.108   2.820 -0.7403 -1.1387 -0.0155
  634MOL0     C83605   4.952  11.175   2.789  1.2455  0.3174  0.3505
  634MOL0     N83606   5.512  11.439   3.170  0.2300  0.0683 -1.1306
  634MOL0     N83607   5.642  11.415   3.205  0.3327  0.5771 -0.4298
  634MOL0     C83608   6.470  11.045   3.329  0.0042 -1.2299  0.0527
  634MOL0     C83609   6.463  10.911   3.345  0.8907  0.1907  0.6073
  634MOL0     C83610   6.356  10.486   3.237  0.4578 -0.3527 -0.2055
  634MOL0     C83611   6.468  10.418   3.275  0.3202  0.6129 -0.1126
  634MOL0     C83612   6.476  10.273   3.273 -0.7351 -0.0173  0.8778
  634MOL0     C83613   6.352  10.202   3.257 -0.0226 -0.2275  0.7103
  634MOL0     O83614   6.324  10.065   3.264  0.8545 -0.5787 -0.0508
  634MOL0     C83615   6.424   9.976   3.218  0.2041  0.0328 -0.4565
  634MOL0     C83616   6.397   9.970   3.063  0.3197 -0.4870  0.0118
  634MOL0     C83617   6.463   9.847   2.990 -0.3273 -0.3898 -0.0159
  634MOL0     C83618   6.613   9.842   3.023 -0.5692 -0.5183  0.7633
  634MOL0     C83619   6.694   9.753   2.932 -0.4186 -0.6336 -0.1481
  634MOL0     C83620   6.757   9.684   2.848  0.1808  0.3432 -0.6433
  634MOL0     C83621   6.236  10.275   3.228  0.5834 -0.9173  0.2679
  634MOL0     C83622   6.242  10.415   3.200  0.3057  0.2123  0.1855
  634MOL0     H83623   6.581  10.808   3.044  1.5532 -0.7804  0.9165
  634MOL0     H83624   6.589  11.064   3.017  1.2039 -3.2098 -1.9652
  634MOL0     H83625   6.604  11.422   3.186 -1.1339  1.0852  1.0256
  634MOL0     H83626   6.670  11.292   3.276 -0.7995 -1.9665 -2.6203
  634MOL0     H83627   6.527  11.499   3.394  0.4012  0.4702  0.6571
  634MOL0     H83628   6.488  11.343   3.455 -2.9821  0.0739 -0.5250
  634MOL0     H83629   6.290  11.456   3.407  0.3205  1.8051 -0.0501
  634MOL0     H83630   6.303  11.320   3.297 -3.3459  1.0276  0.3202
  634MOL0     H83631   6.370  11.612   3.227  0.6504  0.1826 -0.2363
  634MOL0     H83632   6.356  11.472   3.116  1.0154  2.7335  0.4200
  634MOL0     H83633   6.151  11.634   3.131 -3.1044 -1.5553 -1.5182
  634MOL0     H83634   6.117  11.562   3.287 -0.6478  2.0730  0.5257
  634MOL0     H83635   6.096  11.339   3.182 -0.1613 -1.3655 -1.3552
  634MOL0     H83636   6.133  11.429   3.033  0.3552  0.8348 -0.0519
  634MOL0     H83637   5.899  11.517   3.223 -1.4832  2.5841 -1.1495
  634MOL0     H83638   5.918  11.558   3.053 -0.2638 -1.2732 -1.3122
  634MOL0     H83639   5.870  11.278   3.162 -2.9024  1.1402  1.6526
  634MOL0     H83640   5.898  11.331   2.995 -0.4133  0.4587  0.2441
  634MOL0     H83641   5.665  11.409   2.883  1.2268 -2.7737 -0.7944
  634MOL0     H83642   5.407  11.577   2.901 -2.2256 -0.3684 -0.3749
  634MOL0     H83643   5.304  11.498   3.010  0.4552  1.7654  1.6362
  634MOL0     H83644   5.338  11.278   2.919  0.0996  0.1039 -2.5142
  634MOL0     H83645   5.426  11.344   2.776 -0.2639  0.7133 -1.0174
  634MOL0     H83646   5.138  11.356   2.862 -0.4297  1.5562 -0.2222
  634MOL0     H83647   5.202  11.481   2.757  1.8102  1.0473 -0.4310
  634MOL0     H83648   5.290  11.250   2.613 -0.4906 -0.6036 -0.7011
  634MOL0     H83649   5.120  11.283   2.609  1.6389 -2.8308 -4.1946
  634MOL0     H83650   5.156  10.929   2.907 -0.0250 -1.0968 -1.9753
  634MOL0     H83651   4.944  10.819   2.950  1.8999  0.2469 -0.1069
  634MOL0     H83652   4.544  10.875   3.122 -1.4384 -0.1019  2.8347
  634MOL0     H83653   4.326  10.759   3.207 -0.2161  0.7352 -1.3132
  634MOL0     H83654   4.194  10.474   2.972  2.6234  3.5465  0.8781
  634MOL0     H83655   4.056  10.506   3.085  1.1244  1.3107 -3.4623
  634MOL0     H83656   4.287  10.305   3.113 -0.1004 -3.8625  1.0898
  634MOL0     H83657   4.139  10.247   3.047 -0.8235  0.7273  0.8167
  634MOL0     H83658   4.143  10.342   3.336 -1.5949 -1.6215  1.7754
  634MOL0     H83659   4.186  10.182   3.269 -0.0837  0.2373 -1.2001
  634MOL0     H83660   3.909  10.337   3.257 -0.2862  1.1301  1.2845
  634MOL0     H83661   3.932  10.186   3.181  2.7071  0.3840 -0.4659
  634MOL0     H83662   3.837  10.151   3.386 -0.5670  1.1316 -0.2283
  634MOL0     H83663   3.956  10.248   3.488 -2.2062 -0.6117  0.4665
  634MOL0     H83664   4.113  10.075   3.481  0.0356  0.8678 -0.0183
  634MOL0     H83665   4.012   9.991   3.358  1.3576 -1.1696 -0.0961
  634MOL0     H83666   3.924  10.060   3.642 -0.1904  1.7664 -0.0574
  634MOL0     H83667   3.830   9.975   3.521  0.7628  1.7698 -1.2590
  634MOL0     H83668   3.995   9.793   3.513  0.0511 -1.4016  0.7786
  634MOL0     H83669   3.918   9.822   3.675  2.0614  0.1892  1.6719
  634MOL0     H83670   4.452  10.400   3.030 -0.3682  0.0030  0.5856
  634MOL0     H83671   4.645  10.529   2.914 -0.2427  0.5194 -0.8589
  634MOL0     H83672   4.736  11.162   2.806 -0.9410 -1.5464 -0.2825
  634MOL0     H83673   4.940  11.276   2.750 -1.4593 -0.5275 -1.3195
  634MOL0     H83674   6.433  11.110   3.407  3.4281  0.7405  0.2585
  634MOL0     H83675   6.435  10.874   3.443 -0.2305 -1.2655 -0.2190
  634MOL0     H83676   6.567  10.459   3.293  0.4289  0.8587 -1.2249
  634MOL0     H83677   6.562  10.216   3.305 -2.3014 -2.5623  0.9019
  634MOL0     H83678   6.416   9.879   3.267  0.2586  0.1525 -0.2070
  634MOL0     H83679   6.526  10.006   3.242  0.0072 -0.2950  0.9100
  634MOL0     H83680   6.290   9.953   3.047  0.8439 -4.1675 -0.4825
  634MOL0     H83681   6.440  10.063   3.026 -0.1037  1.2457  3.5103
  634MOL0     H83682   6.450   9.858   2.882 -1.3516 -0.6237  0.0775
  634MOL0     H83683   6.427   9.745   3.006  3.6911 -2.4617 -2.5169
  634MOL0     H83684   6.652   9.943   3.012  1.8360 -1.4448  0.0496
  634MOL0     H83685   6.631   9.821   3.129  1.9928  3.3065  1.2725
  634MOL0     H83686   6.803   9.614   2.781 -0.6564 -1.0684  0.1983
  634MOL0     H83687   6.148  10.213   3.217  1.1823 -1.5738 -1.1808
  634MOL0     H83688   6.163  10.484   3.168  0.5908  1.0412  1.2170
  635MOL0     O83689   0.215   2.416   4.381 -0.6265 -0.5440 -0.2077
  635MOL0     C83690   0.104   2.462   4.419  0.0465 -0.5933  0.8300
  635MOL0     O83691   0.038   2.572   4.360 -0.2241  0.8334  0.5864
  635MOL0     C83692   0.115   2.660   4.293  0.1343  1.0283 -0.0086
  635MOL0     C83693   0.221   2.739   4.339 -0.7795  0.4663  0.0505
  635MOL0     C83694   0.291   2.832   4.261  0.3265  0.3105  0.2490
  635MOL0     C83695   0.240   2.863   4.136  0.4971  0.0515  0.4216
  635MOL0     O83696   0.310   2.961   4.061 -0.4620  0.0244 -0.2631
  635MOL0     C83697   0.238   3.042   3.977  0.2483  0.0912 -0.5470
  635MOL0     C83698   0.326   3.160   3.921 -0.1450  0.3011  0.1838
  635MOL0     C83699   0.355   3.256   4.036 -1.1235 -0.3051 -0.3121
  635MOL0     C83700   0.476   3.338   4.014 -0.7168 -0.1468  0.5978
  635MOL0     C83701   0.612   3.281   4.013  0.0864  0.4535  0.0050
  635MOL0     C83702   0.736   3.381   3.986 -0.3500 -0.2944  0.1381
  635MOL0     C83703   0.856   3.302   3.932 -0.3009  0.2697 -0.7344
  635MOL0     C83704   0.993   3.367   3.955 -0.8483  0.1655 -0.9589
  635MOL0     N83705   1.109   3.305   3.882  0.4220  0.0272 -0.1939
  635MOL0     C83706   1.148   3.173   3.885  0.3652 -0.3168 -0.3548
  635MOL0     C83707   1.251   3.172   3.793  0.3360  0.5744  0.9736
  635MOL0     C83708   1.341   3.061   3.732 -0.0243 -1.1558  0.0729
  635MOL0     C83709   1.491   3.091   3.747 -0.1946  0.7881  0.3297
  635MOL0     C83710   1.544   3.099   3.893  0.3091 -0.4134  0.0836
  635MOL0     C83711   1.507   2.968   3.967 -0.1626  0.4703 -1.3330
  635MOL0     O83712   1.370   2.969   4.025  0.5369  0.0925 -0.0488
  635MOL0     C83713   1.333   2.850   4.083  0.3136  0.4246 -0.6561
  635MOL0     C83714   1.417   2.731   4.103 -0.0988 -0.6431  0.3069
  635MOL0     C83715   1.366   2.610   4.141  0.3479  0.3396  0.1697
  635MOL0     C83716   1.231   2.603   4.172  0.8278 -0.4213 -1.5181
  635MOL0     C83717   1.171   2.477   4.210 -0.4067 -0.2883  0.1153
  635MOL0     O83718   1.245   2.379   4.271 -0.3926 -0.3811  0.0045
  635MOL0     C83719   1.179   2.257   4.297  0.0821  1.0174  0.0360
  635MOL0     C83720   1.204   2.143   4.210 -0.9475  0.5819 -0.7132
  635MOL0     C83721   1.160   2.013   4.243 -0.3727 -1.5794  0.5177
  635MOL0     C83722   1.081   2.001   4.358  0.6925  0.6552 -0.6125
  635MOL0     O83723   1.044   1.872   4.390  0.0605  0.3532  0.1155
  635MOL0     C83724   0.903   1.856   4.403  1.0952  1.0792  0.4518
  635MOL0     C83725   0.863   1.703   4.433 -0.1932 -0.5499 -0.4534
  635MOL0     C83726   0.934   1.641   4.556  0.6831 -1.0749  0.9267
  635MOL0     C83727   0.888   1.493   4.582  0.7086 -0.4472 -1.1697
  635MOL0     C83728   0.977   1.428   4.692 -0.4795 -0.5474  0.3035
  635MOL0     C83729   0.953   1.273   4.699  0.4092 -0.2824 -0.2592
  635MOL0     C83730   1.054   1.214   4.801 -0.3970  0.1139  0.4923
  635MOL0     C83731   0.986   1.168   4.934 -0.1912  0.2887 -0.5718
  635MOL0    Cl83732   0.924   1.303   5.036 -0.3968 -0.1991  0.4986
  635MOL0     C83733   1.060   2.110   4.441  0.0104  0.2306 -0.2214
  635MOL0     C83734   1.109   2.239   4.419 -0.3663  0.0502  0.6154
  635MOL0     O83735   1.049   2.464   4.180 -0.0170 -0.3164  0.5330
  635MOL0     C83736   1.151   2.723   4.170  0.3850 -0.0202 -0.2675
  635MOL0     C83737   1.197   2.838   4.109 -0.6035 -0.1855  0.7374
  635MOL0     N83738   1.266   3.297   3.749 -0.3823  0.7704 -0.2660
  635MOL0     N83739   1.186   3.375   3.799  0.1249 -0.7290 -0.0948
  635MOL0     C83740   0.130   2.790   4.090 -0.2103  0.7467 -0.2403
  635MOL0     C83741   0.067   2.694   4.172  0.1393  0.1554  0.7959
  635MOL0     C83742   0.035   2.382   4.530  0.4531 -1.3610  0.0791
  635MOL0     C83743   0.094   2.269   4.590 -0.2678 -0.5398  0.1330
  635MOL0     C83744   0.020   2.193   4.677 -0.1031 -0.4779  1.2494
  635MOL0     C83745  -0.101   2.229   4.713  0.2645 -0.5443 -0.4346
  635MOL0     O83746  -0.151   2.145   4.805 -0.1986 -0.2172 -0.1365
  635MOL0     C83747  -0.297   2.133   4.825 -1.2417 -0.8621 -0.1985
  635MOL0     C83748  -0.382   2.082   4.706  0.1220 -0.0892  0.0324
  635MOL0     C83749  -0.534   2.091   4.736  0.3466 -0.8722 -0.3102
  635MOL0     C83750  -0.630   1.995   4.663  0.5702 -0.1019  0.0116
  635MOL0     C83751  -0.772   2.044   4.676  0.7531 -0.1841 -0.0354
  635MOL0     C83752  -0.884   2.090   4.690 -0.4215  0.3181 -0.2858
  635MOL0     C83753  -0.168   2.339   4.658  0.4854  0.5019 -0.0164
  635MOL0     C83754  -0.098   2.410   4.561 -0.3987  0.5333  0.5111
  635MOL0     H83755   0.246   2.722   4.444  4.8086  3.1886 -0.4409
  635MOL0     H83756   0.377   2.885   4.301  1.6604 -0.3567 -1.6064
  635MOL0     H83757   0.155   3.085   4.034  1.2296  1.5373 -0.1193
  635MOL0     H83758   0.207   2.983   3.891 -2.9623  1.0668 -0.1983
  635MOL0     H83759   0.273   3.215   3.843 -0.3261 -2.5503 -1.8672
  635MOL0     H83760   0.417   3.115   3.880 -0.0141  1.0220 -0.3365
  635MOL0     H83761   0.350   3.202   4.131  0.2747 -3.3952 -1.8715
  635MOL0     H83762   0.268   3.319   4.055  0.8127  1.9537  1.7381
  635MOL0     H83763   0.448   3.385   3.919 -1.1578  0.0242  0.8064
  635MOL0     H83764   0.477   3.414   4.093 -1.0766 -2.0491  2.5228
  635MOL0     H83765   0.620   3.223   3.920  3.2899  1.5059 -0.4848
  635MOL0     H83766   0.624   3.215   4.100 -1.0552 -0.9208 -0.8204
  635MOL0     H83767   0.766   3.427   4.081  0.6347  1.5353 -0.9960
  635MOL0     H83768   0.710   3.462   3.917 -2.0636 -2.4308 -1.9043
  635MOL0     H83769   0.858   3.201   3.974  3.5768  0.3150 -0.4543
  635MOL0     H83770   0.842   3.279   3.826  2.7938  2.0207 -1.6612
  635MOL0     H83771   1.021   3.368   4.060 -2.6029  0.2931 -0.4589
  635MOL0     H83772   0.986   3.475   3.937 -2.3622  0.4803  1.1407
  635MOL0     H83773   1.104   3.086   3.933 -1.0424 -0.6743 -2.1767
  635MOL0     H83774   1.317   3.047   3.626 -1.8768 -0.0806  0.2999
  635MOL0     H83775   1.315   2.963   3.774 -0.7326 -1.3122 -0.7109
  635MOL0     H83776   1.506   3.187   3.696 -0.5043  2.1881  2.7196
  635MOL0     H83777   1.546   3.014   3.693 -0.5904 -0.6306  1.8573
  635MOL0     H83778   1.652   3.113   3.894  0.4222 -1.1713  2.1532
  635MOL0     H83779   1.496   3.181   3.947 -1.3380 -2.1125  1.3366
  635MOL0     H83780   1.575   2.951   4.051  0.7102 -0.1279 -2.1364
  635MOL0     H83781   1.519   2.884   3.897 -4.2980 -0.8310 -0.7381
  635MOL0     H83782   1.524   2.742   4.090 -0.3527  3.9753  0.4925
  635MOL0     H83783   1.436   2.528   4.153  0.2448  0.4587  1.6584
  635MOL0     H83784   1.258   2.184   4.126 -4.1760  3.9001 -1.4117
  635MOL0     H83785   1.179   1.929   4.177 -1.9717 -0.3263 -1.6497
  635MOL0     H83786   0.849   1.879   4.311  0.8576 -3.4748 -0.8068
  635MOL0     H83787   0.853   1.913   4.482 -1.4329 -0.2876 -0.0617
  635MOL0     H83788   0.887   1.636   4.351 -1.0678  0.3515 -1.4879
  635MOL0     H83789   0.758   1.689   4.457 -0.4382  0.0761 -1.1095
  635MOL0     H83790   0.922   1.709   4.641  0.9197  2.3808 -1.5950
  635MOL0     H83791   1.040   1.629   4.532  0.0031 -0.4271 -3.2677
  635MOL0     H83792   0.784   1.495   4.615  0.1345  0.1319 -2.8885
  635MOL0     H83793   0.903   1.436   4.490  0.7050  0.1009 -1.5214
  635MOL0     H83794   0.953   1.463   4.793  1.1823  0.9588  0.2121
  635MOL0     H83795   1.084   1.439   4.675 -0.6469  1.0841  0.1373
  635MOL0     H83796   0.986   1.226   4.606  3.5469 -2.4893  1.7776
  635MOL0     H83797   0.856   1.241   4.739 -0.0928  1.1869 -0.2366
  635MOL0     H83798   1.108   1.132   4.753  1.3727  2.9992 -2.8556
  635MOL0     H83799   1.131   1.285   4.832 -1.2362  1.8681 -1.2934
  635MOL0     H83800   1.054   1.091   4.973  1.5998  1.9230 -0.2976
  635MOL0     H83801   0.896   1.117   4.897 -0.6084  1.3607 -1.0711
  635MOL0     H83802   1.017   2.099   4.541  2.6596  2.8922  1.3470
  635MOL0     H83803   1.096   2.323   4.486  1.0611 -1.0596  2.3867
  635MOL0     H83804   1.044   2.711   4.180  0.2692  2.3176  2.2626
  635MOL0     H83805   1.129   2.916   4.079 -0.5001 -0.7075 -0.9152
  635MOL0     H83806   0.109   2.806   3.985 -1.6278  0.5943  0.0019
  635MOL0     H83807  -0.014   2.633   4.132 -0.2397  1.4255 -0.4487
  635MOL0     H83808   0.183   2.226   4.546  0.7813 -0.5042  2.1389
  635MOL0     H83809   0.065   2.112   4.733  2.3194 -0.2686 -0.2555
  635MOL0     H83810  -0.344   2.219   4.872 -3.0517 -1.7994 -0.2204
  635MOL0     H83811  -0.288   2.061   4.906 -0.1354 -2.6667 -1.8209
  635MOL0     H83812  -0.365   2.151   4.624  0.2086  1.2441  1.1392
  635MOL0     H83813  -0.338   1.987   4.674 -0.7124  0.2940 -2.4363
  635MOL0     H83814  -0.567   2.194   4.721  0.4238 -0.8743 -0.4999
  635MOL0     H83815  -0.552   2.070   4.842 -0.5167 -1.1929 -0.5132
  635MOL0     H83816  -0.611   1.984   4.556 -1.4314 -0.0408 -0.3904
  635MOL0     H83817  -0.621   1.895   4.704  3.8632  1.0359  2.5094
  635MOL0     H83818  -0.987   2.116   4.703 -0.3527 -0.3286  1.9013
  635MOL0     H83819  -0.269   2.360   4.692  0.9395 -0.7560  2.2598
  635MOL0     H83820  -0.148   2.484   4.500  1.1797  0.3450 -1.1117
  636MOL0     O83821   7.757   7.185   2.547 -0.0064  0.8076  0.5631
  636MOL0     C83822   7.652   7.249   2.557  0.8842 -0.5704  0.0593
  636MOL0     O83823   7.539   7.233   2.481 -0.6248  0.5513  0.3405
  636MOL0     C83824   7.524   7.124   2.395  0.6803  0.2524 -0.7058
  636MOL0     C83825   7.432   7.146   2.288  0.4031 -0.2397  0.4452
  636MOL0     C83826   7.391   7.038   2.207 -0.3471 -0.5431 -0.7084
  636MOL0     C83827   7.421   6.910   2.247 -0.7494 -0.0560 -0.2922
  636MOL0     O83828   7.363   6.795   2.198  0.5312 -0.0281 -0.3193
  636MOL0     C83829   7.297   6.797   2.066  0.9362  0.0835  1.0243
  636MOL0     C83830   7.315   6.667   1.995 -0.1124  1.0448 -0.0545
  636MOL0     C83831   7.277   6.540   2.075 -0.0825  0.9667  0.5912
  636MOL0     C83832   7.293   6.402   1.994  0.4037 -0.0919 -0.6070
  636MOL0     C83833   7.238   6.281   2.069  0.3766  0.8045 -0.3128
  636MOL0     C83834   7.234   6.150   1.990  0.6493  1.3058 -0.5306
  636MOL0     C83835   7.174   6.025   2.072 -0.0698  0.2436 -1.5075
  636MOL0     C83836   7.274   5.972   2.183 -0.2551  0.4904  1.1200
  636MOL0     N83837   7.232   5.845   2.239  0.2621  0.0080  0.6206
  636MOL0     C83838   7.204   5.812   2.371  0.8522  0.1012 -0.3741
  636MOL0     C83839   7.134   5.695   2.361  0.5586  0.7963  0.8712
  636MOL0     C83840   7.093   5.627   2.481  0.2702  1.2653  0.4072
  636MOL0     C83841   7.196   5.509   2.511  1.5375  0.1853  0.6593
  636MOL0     C83842   7.179   5.462   2.647 -0.2781 -0.4902 -0.6632
  636MOL0     C83843   7.050   5.369   2.666  0.2658 -0.6725  0.0430
  636MOL0     O83844   6.929   5.440   2.640 -0.1360 -0.5650  0.6314
  636MOL0     C83845   6.807   5.385   2.672 -0.1499 -0.5739 -0.6210
  636MOL0     C83846   6.697   5.464   2.642 -0.1860 -1.0019  0.6255
  636MOL0     C83847   6.561   5.426   2.658 -0.0138 -0.3386 -1.1025
  636MOL0     C83848   6.539   5.288   2.715 -0.9756  0.1907 -0.1137
  636MOL0     C83849   6.401   5.248   2.735  0.2649 -0.2058 -0.7809
  636MOL0     O83850   6.315   5.338   2.683  0.9422  0.6228 -0.2039
  636MOL0     C83851   6.181   5.324   2.695 -0.4362  0.5363 -0.7988
  636MOL0     C83852   6.100   5.341   2.586  0.2591 -0.4519 -0.3991
  636MOL0     C83853   5.961   5.317   2.593  0.0821 -0.7654 -1.0725
  636MOL0     C83854   5.903   5.286   2.713  0.2755 -0.0778  0.3134
  636MOL0     O83855   5.766   5.278   2.707  0.1899 -0.0917  0.1224
  636MOL0     C83856   5.700   5.226   2.824 -0.1500 -0.0590 -0.7895
  636MOL0     C83857   5.671   5.344   2.923  0.2057  0.4994 -0.5223
  636MOL0     C83858   5.598   5.282   3.049 -0.5166 -0.6555  1.6007
  636MOL0     C83859   5.462   5.223   3.031  0.7725  0.9479  0.4684
  636MOL0     C83860   5.424   5.176   3.167  0.1773  0.4860  0.7576
  636MOL0     C83861   5.308   5.066   3.162  0.2222  0.1206  0.4998
  636MOL0     C83862   5.253   5.025   3.303  0.6147  0.0747 -0.1479
  636MOL0     C83863   5.159   5.133   3.354  0.4472 -0.8202 -0.3073
  636MOL0    Cl83864   5.133   5.086   3.530  0.1647  0.0681  0.4301
  636MOL0     C83865   5.987   5.259   2.821  0.1017  0.5451  0.2337
  636MOL0     C83866   6.123   5.280   2.813 -0.0863  0.4752 -0.4596
  636MOL0     O83867   6.376   5.139   2.783 -0.0672 -0.9067  0.2531
  636MOL0     C83868   6.652   5.209   2.754 -1.0644 -1.0077 -0.2991
  636MOL0     C83869   6.788   5.255   2.722  0.5490  0.1824  0.5540
  636MOL0     N83870   7.130   5.644   2.229 -0.1447 -0.0118 -0.0943
  636MOL0     N83871   7.190   5.742   2.157  0.1850  0.0369 -0.4398
  636MOL0     C83872   7.522   6.887   2.342 -0.3243 -0.3658 -0.7251
  636MOL0     C83873   7.577   6.990   2.418 -1.3697 -0.5522  0.2892
  636MOL0     C83874   7.655   7.357   2.653  0.1861 -0.6364  0.4231
  636MOL0     C83875   7.779   7.408   2.705 -0.2617  0.3494  0.5139
  636MOL0     C83876   7.784   7.509   2.804  0.6002  0.6838 -0.4280
  636MOL0     C83877   7.666   7.564   2.855 -0.0360  0.4779  1.2901
  636MOL0     O83878   7.680   7.675   2.938 -1.0264  0.1778  0.6605
  636MOL0     C83879   7.564   7.735   2.995  0.6423 -0.8726  0.0249
  636MOL0     C83880   7.615   7.828   3.105 -0.9476 -0.4867 -0.6255
  636MOL0     C83881   7.674   7.746   3.223 -0.5287 -0.0348  0.6591
  636MOL0     C83882   7.570   7.645   3.272 -0.3756 -0.0949 -0.1618
  636MOL0     C83883   7.442   7.702   3.297  0.1207  0.5069 -0.9749
  636MOL0     C83884   7.328   7.741   3.314  0.5493  0.0328  0.4006
  636MOL0     C83885   7.549   7.517   2.800  0.5452 -0.5408  0.6363
  636MOL0     C83886   7.542   7.418   2.700  0.0887 -0.3218  0.3134
  636MOL0     H83887   7.402   7.250   2.283  1.3419  0.0229  0.1299
  636MOL0     H83888   7.339   7.057   2.114  2.7732 -0.7744 -2.6521
  636MOL0     H83889   7.331   6.873   1.995  0.9807 -0.9024 -0.0281
  636MOL0     H83890   7.190   6.820   2.075  0.9833  1.2869 -0.8939
  636MOL0     H83891   7.419   6.651   1.965  0.0354  2.9952 -0.7172
  636MOL0     H83892   7.254   6.672   1.905 -0.5431 -1.4412  0.0187
  636MOL0     H83893   7.169   6.545   2.091  0.0269  0.4386  1.5533
  636MOL0     H83894   7.339   6.542   2.165  1.8695 -0.1708 -0.6500
  636MOL0     H83895   7.240   6.409   1.898  0.1235  1.7456 -0.3479
  636MOL0     H83896   7.399   6.383   1.975  0.1992 -2.7289  0.4200
  636MOL0     H83897   7.134   6.308   2.093 -0.8324 -0.5311 -3.4460
  636MOL0     H83898   7.305   6.264   2.153  0.4544  2.8731  0.1117
  636MOL0     H83899   7.335   6.121   1.962  1.5314 -0.8080  3.9950
  636MOL0     H83900   7.161   6.165   1.909 -0.7629  0.1494  0.4722
  636MOL0     H83901   7.076   6.050   2.114 -1.3469 -0.0037 -4.0956
  636MOL0     H83902   7.153   5.948   1.997  0.0593  0.6926 -2.0141
  636MOL0     H83903   7.281   6.049   2.260 -0.5442  2.8826 -1.1265
  636MOL0     H83904   7.374   5.954   2.143  0.4379 -0.5949  3.1627
  636MOL0     H83905   7.221   5.876   2.458  1.8248  0.5569 -0.8779
  636MOL0     H83906   6.997   5.581   2.455  1.9644 -1.8017 -0.9766
  636MOL0     H83907   7.088   5.694   2.567 -1.9624 -0.0166  1.3832
  636MOL0     H83908   7.296   5.540   2.478  0.9267  2.5167  0.7796
  636MOL0     H83909   7.157   5.424   2.454 -1.5035  0.8148  1.6417
  636MOL0     H83910   7.266   5.398   2.665 -0.5753 -1.2692 -1.9231
  636MOL0     H83911   7.176   5.554   2.706 -2.4550 -0.8680 -0.1010
  636MOL0     H83912   7.059   5.341   2.772  1.0767  0.2749  0.2375
  636MOL0     H83913   7.061   5.288   2.593  2.4594  1.6250 -2.3881
  636MOL0     H83914   6.716   5.567   2.614 -2.5509  0.2561  3.2018
  636MOL0     H83915   6.486   5.495   2.621 -0.0210  0.1500 -0.2240
  636MOL0     H83916   6.138   5.375   2.490 -2.2185  1.6616 -0.7509
  636MOL0     H83917   5.913   5.322   2.496  0.6041  1.0730 -1.2620
  636MOL0     H83918   5.746   5.139   2.872 -4.0160 -0.6026  2.4572
  636MOL0     H83919   5.609   5.188   2.776 -1.1092 -1.4707  1.9379
  636MOL0     H83920   5.608   5.424   2.884 -1.1558  1.9297  3.9560
  636MOL0     H83921   5.762   5.392   2.959 -0.1920  1.6221 -0.9766
  636MOL0     H83922   5.594   5.365   3.120 -2.0153  1.0670 -0.3323
  636MOL0     H83923   5.669   5.200   3.062  1.8862 -0.0857 -4.3706
  636MOL0     H83924   5.394   5.292   2.978  0.5389  0.1161 -0.3544
  636MOL0     H83925   5.465   5.131   2.972 -0.4067  0.0960  1.6693
  636MOL0     H83926   5.386   5.266   3.215  0.5919  0.2054  1.6236
  636MOL0     H83927   5.510   5.136   3.222  0.0145  1.5519  1.8018
  636MOL0     H83928   5.346   4.975   3.116  0.1510 -0.7361  2.0713
  636MOL0     H83929   5.225   5.090   3.095  0.8096 -2.9941 -1.5645
  636MOL0     H83930   5.198   4.932   3.287  0.4854  0.1708 -0.2703
  636MOL0     H83931   5.329   5.000   3.378  1.1070  0.7788 -0.4035
  636MOL0     H83932   5.067   5.129   3.295  0.8424  5.3035 -1.9626
  636MOL0     H83933   5.198   5.235   3.345  0.2229 -0.8098 -1.2739
  636MOL0     H83934   5.946   5.231   2.917 -2.5385  4.5125  0.4991
  636MOL0     H83935   6.182   5.249   2.899 -1.7512 -0.8223  0.2781
  636MOL0     H83936   6.648   5.111   2.800 -0.6979 -0.3946  1.0917
  636MOL0     H83937   6.866   5.181   2.742  0.8344  1.3175  4.5083
  636MOL0     H83938   7.547   6.784   2.365  0.3927  0.2592  1.4853
  636MOL0     H83939   7.637   6.977   2.508 -0.8973  0.1408  0.0833
  636MOL0     H83940   7.872   7.361   2.672 -1.2621 -1.0153 -0.4740
  636MOL0     H83941   7.878   7.554   2.835  1.3424 -1.1854  0.1861
  636MOL0     H83942   7.498   7.658   3.035  0.2569 -0.7345 -0.3353
  636MOL0     H83943   7.500   7.795   2.930  2.2543  0.8689 -0.0613
  636MOL0     H83944   7.691   7.893   3.061 -0.5078 -2.3563 -2.8079
  636MOL0     H83945   7.541   7.891   3.156 -0.5479 -1.9865  1.9859
  636MOL0     H83946   7.710   7.816   3.299 -2.5400  1.8119  0.0280
  636MOL0     H83947   7.768   7.699   3.191 -0.5510 -0.7719  1.6430
  636MOL0     H83948   7.569   7.554   3.212  3.2576 -1.3073  1.3537
  636MOL0     H83949   7.613   7.618   3.368 -0.2798 -1.8171 -0.6657
  636MOL0     H83950   7.228   7.770   3.341  1.3585  0.3324  3.5007
  636MOL0     H83951   7.460   7.573   2.825  1.5796 -0.5811  5.3804
  636MOL0     H83952   7.446   7.400   2.654 -0.0415  2.1305 -0.4944
  637MOL0     O83953   8.953   5.008   5.220 -0.2312  0.1181 -1.0881
  637MOL0     C83954   8.987   5.098   5.300  0.3147 -0.1825  0.4074
  637MOL0     O83955   9.103   5.150   5.309 -0.1453 -0.0812 -1.4662
  637MOL0     C83956   9.216   5.112   5.237  0.9973 -1.0379  0.4937
  637MOL0     C83957   9.337   5.145   5.303  1.1825 -0.3639  0.5693
  637MOL0     C83958   9.465   5.119   5.254 -0.3159 -0.1742 -0.0234
  637MOL0     C83959   9.468   5.042   5.132 -0.2162 -0.7919  0.3940
  637MOL0     O83960   9.597   4.998   5.090 -1.2998 -0.7623  0.2273
  637MOL0     C83961   9.599   4.887   5.003 -0.4771  0.6713 -0.2652
  637MOL0     C83962   9.745   4.869   4.962 -0.8427  0.7489  0.7313
  637MOL0     C83963   9.784   4.958   4.848  0.8110  0.1677  0.9495
  637MOL0     C83964   9.920   4.921   4.793  0.4478 -0.4755  0.1196
  637MOL0     C83965  10.033   4.947   4.897 -0.6972 -0.2013 -0.5989
  637MOL0     C83966  10.147   4.872   4.815 -0.7127  0.3041  0.6200
  637MOL0     C83967  10.282   4.877   4.880 -0.0974 -0.3338 -0.1736
  637MOL0     C83968  10.383   4.771   4.819 -0.4756  0.2475  0.6621
  637MOL0     N83969  10.454   4.819   4.702 -0.2083 -0.4001 -0.2557
  637MOL0     C83970  10.564   4.898   4.713 -0.6192 -0.1168  0.7907
  637MOL0     C83971  10.623   4.888   4.581 -0.2485  0.6173 -1.5038
  637MOL0     C83972  10.740   4.970   4.521  0.4375  1.1758  0.5253
  637MOL0     C83973  10.868   4.889   4.501 -0.4260 -0.2366 -0.2547
  637MOL0     C83974  10.966   4.974   4.418  0.6765 -0.4313 -0.4358
  637MOL0     C83975  11.011   5.102   4.473 -0.2311 -0.1745 -0.0479
  637MOL0     O83976  11.049   5.099   4.611  0.1866 -0.0356 -0.4351
  637MOL0     C83977  11.053   5.223   4.665 -0.0546  1.0831 -0.6765
  637MOL0     C83978  10.973   5.250   4.774  0.6470 -0.0080  0.1900
  637MOL0     C83979  10.992   5.373   4.838 -0.1683 -0.1453  0.1173
  637MOL0     C83980  11.080   5.479   4.784 -0.0003  0.2757 -0.2284
  637MOL0     C83981  11.097   5.610   4.842 -0.0556  0.4117  0.7416
  637MOL0     O83982  11.083   5.724   4.755 -0.3328  0.2913 -0.0878
  637MOL0     C83983  11.078   5.856   4.801 -0.3966  0.5711 -0.1331
  637MOL0     C83984  11.025   5.950   4.714  0.7947  0.1676 -0.2689
  637MOL0     C83985  11.005   6.081   4.759  1.5477  0.0143 -0.4916
  637MOL0     C83986  11.043   6.127   4.883 -0.5929 -0.6213 -0.1265
  637MOL0     O83987  11.012   6.252   4.919  0.7187  0.1153 -1.1906
  637MOL0     C83988  10.919   6.244   5.029 -0.1112 -0.1538  0.0491
  637MOL0     C83989  10.811   6.342   5.020 -0.2027  0.1094  0.1652
  637MOL0     C83990  10.866   6.493   5.035  0.2798  0.0565 -0.7981
  637MOL0     C83991  10.742   6.584   5.062 -0.3241  0.7062  0.6535
  637MOL0     C83992  10.776   6.728   5.026 -0.1118 -0.7371  0.0073
  637MOL0     C83993  10.658   6.825   5.046 -0.3137  0.5344  0.2720
  637MOL0     C83994  10.590   6.826   4.908  0.0141  1.2054 -0.6362
  637MOL0     C83995  10.463   6.909   4.926  0.5981 -0.3031 -0.2285
  637MOL0    Cl83996  10.350   6.887   4.790  0.3273 -0.0112  0.4297
  637MOL0     C83997  11.107   6.029   4.972 -0.4648 -1.4054 -0.1265
  637MOL0     C83998  11.122   5.901   4.930  0.6401 -0.7227  0.4851
  637MOL0     O83999  11.115   5.619   4.960  0.7311 -0.7952 -0.3741
  637MOL0     C84000  11.154   5.446   4.672 -0.2085  0.6021 -0.5711
  637MOL0     C84001  11.142   5.317   4.614  0.0572 -1.1222  0.4509
  637MOL0     N84002  10.535   4.814   4.499 -0.8140 -0.9383  0.4536
  637MOL0     N84003  10.432   4.782   4.574 -0.7968 -0.8450 -0.0144
  637MOL0     C84004   9.344   5.011   5.066 -0.2435  0.0316 -1.2462
  637MOL0     C84005   9.222   5.051   5.120  0.1089 -0.6262 -0.0456
  637MOL0     C84006   8.877   5.147   5.381 -1.0083  0.5559 -0.3259
  637MOL0     C84007   8.748   5.095   5.383 -1.0235 -0.0557  0.2387
  637MOL0     C84008   8.645   5.146   5.467 -0.5186  0.5711 -0.2973
  637MOL0     C84009   8.669   5.257   5.540  0.5728  0.6810 -0.1519
  637MOL0     O84010   8.551   5.308   5.595 -0.6333  0.0607  0.2158
  637MOL0     C84011   8.568   5.428   5.675  0.0077 -0.1384 -0.0962
  637MOL0     C84012   8.451   5.448   5.781 -0.8491 -0.0762 -0.4743
  637MOL0     C84013   8.347   5.549   5.745  0.2408 -0.2637 -0.1674
  637MOL0     C84014   8.404   5.687   5.714 -1.2263 -0.3238  0.3236
  637MOL0     C84015   8.512   5.739   5.798  0.0230  0.4656 -0.6327
  637MOL0     C84016   8.598   5.795   5.863 -0.6391  0.1979  0.6976
  637MOL0     C84017   8.802   5.316   5.535  0.4340  0.0658 -0.6180
  637MOL0     C84018   8.904   5.258   5.461 -0.0321 -0.1110  0.0899
  637MOL0     H84019   9.326   5.179   5.406 -2.6360  1.4256 -0.2563
  637MOL0     H84020   9.556   5.136   5.311  2.4663 -3.4065 -3.0605
  637MOL0     H84021   9.538   4.914   4.916  4.8512  4.6330 -3.3372
  637MOL0     H84022   9.570   4.805   5.070 -0.9654  2.4760  1.8864
  637MOL0     H84023   9.762   4.768   4.924  1.2492  2.1267 -2.4799
  637MOL0     H84024   9.812   4.878   5.048 -0.6344  2.5067  0.4244
  637MOL0     H84025   9.792   5.055   4.896 -0.0066  1.5430 -1.5129
  637MOL0     H84026   9.709   4.952   4.769  0.6332  0.3025  1.1092
  637MOL0     H84027   9.920   4.816   4.764  0.7861 -0.7316  1.0237
  637MOL0     H84028   9.939   4.978   4.702 -1.5464 -1.4181 -0.9483
  637MOL0     H84029  10.023   4.885   4.986  1.5751 -1.1002 -0.9024
  637MOL0     H84030  10.052   5.055   4.894  0.5737 -0.4019 -0.5449
  637MOL0     H84031  10.156   4.913   4.714  1.6813  0.5949  0.8891
  637MOL0     H84032  10.116   4.768   4.806 -1.7692  0.3242  3.1913
  637MOL0     H84033  10.323   4.979   4.874  0.2035 -0.2761  2.0137
  637MOL0     H84034  10.263   4.862   4.987 -0.7214  1.7817  0.0673
  637MOL0     H84035  10.334   4.683   4.776  2.2711 -0.5544 -1.0651
  637MOL0     H84036  10.455   4.726   4.888  1.1297 -1.7753 -2.1198
  637MOL0     H84037  10.608   4.957   4.793  1.6687  3.5245 -2.7699
  637MOL0     H84038  10.757   5.058   4.583  2.2126 -1.4616  4.2134
  637MOL0     H84039  10.703   5.001   4.423  1.3853 -1.5764 -0.8088
  637MOL0     H84040  10.843   4.795   4.451  0.9192  0.8010 -3.1258
  637MOL0     H84041  10.900   4.862   4.602 -3.2180 -1.3248  0.4393
  637MOL0     H84042  11.055   4.912   4.407  0.6758 -0.6457  0.6303
  637MOL0     H84043  10.924   4.976   4.317  3.0481 -1.2653 -1.5083
  637MOL0     H84044  10.929   5.171   4.448 -1.3159 -1.3327  0.2169
  637MOL0     H84045  11.098   5.134   4.415  1.1810 -2.0802  0.9379
  637MOL0     H84046  10.905   5.184   4.826 -0.3918  2.7505  2.6536
  637MOL0     H84047  10.933   5.403   4.924  0.1912 -1.0114  0.6818
  637MOL0     H84048  11.001   5.922   4.612  1.5677 -0.8892 -0.1860
  637MOL0     H84049  10.963   6.156   4.693 -2.6627 -2.5685 -1.1208
  637MOL0     H84050  10.968   6.280   5.120 -0.2841 -0.2732  0.1883
  637MOL0     H84051  10.881   6.144   5.051  0.9320 -0.8147 -1.0002
  637MOL0     H84052  10.751   6.319   5.108  1.9343  0.4055  1.7793
  637MOL0     H84053  10.768   6.327   4.920  2.8063  2.0717 -1.5763
  637MOL0     H84054  10.901   6.524   4.936 -0.5964  1.1037 -0.7969
  637MOL0     H84055  10.931   6.508   5.121 -1.3860  1.9868  0.2104
  637MOL0     H84056  10.656   6.541   5.010 -0.0255  1.2460 -0.3055
  637MOL0     H84057  10.722   6.573   5.169  1.7399 -1.5714  0.9031
  637MOL0     H84058  10.822   6.751   4.929  0.5540 -2.5882 -0.1539
  637MOL0     H84059  10.846   6.760   5.103 -1.3878 -0.1366  0.9633
  637MOL0     H84060  10.702   6.926   5.051 -2.6136  1.6070  0.0386
  637MOL0     H84061  10.591   6.803   5.129  0.5177 -4.2402 -0.0562
  637MOL0     H84062  10.662   6.857   4.832 -0.0777 -0.8456 -1.6411
  637MOL0     H84063  10.568   6.720   4.890  0.8889  0.6782  1.1452
  637MOL0     H84064  10.491   7.014   4.936 -1.4669  0.0891  3.1984
  637MOL0     H84065  10.396   6.888   5.010  2.1273  0.2137  1.1832
  637MOL0     H84066  11.159   6.057   5.063 -0.3683  3.7616 -1.4549
  637MOL0     H84067  11.183   5.830   4.986  0.5052 -0.3869  1.0734
  637MOL0     H84068  11.231   5.509   4.630  0.7336  2.2703  3.2392
  637MOL0     H84069  11.199   5.283   4.529 -2.0478 -0.5372 -1.2786
  637MOL0     H84070   9.340   4.951   4.976  2.1165 -2.9477  0.4486
  637MOL0     H84071   9.137   5.040   5.053  1.2369  4.0519 -2.7751
  637MOL0     H84072   8.718   5.017   5.313 -0.2549 -1.6589  1.6219
  637MOL0     H84073   8.549   5.095   5.462  0.8655 -2.2191 -0.6030
  637MOL0     H84074   8.583   5.512   5.607 -1.6630  0.3059  0.0462
  637MOL0     H84075   8.661   5.439   5.732  1.9246  0.6824 -3.1736
  637MOL0     H84076   8.410   5.346   5.782 -2.2053  0.4374 -0.8026
  637MOL0     H84077   8.490   5.452   5.883 -1.9324  2.2317 -0.1010
  637MOL0     H84078   8.284   5.569   5.833  1.9224  2.0606  0.6129
  637MOL0     H84079   8.281   5.514   5.665  0.5346  2.5363 -1.7559
  637MOL0     H84080   8.436   5.676   5.610 -1.3859 -4.0068  0.5179
  637MOL0     H84081   8.332   5.769   5.725  1.9659  2.6379  0.6036
  637MOL0     H84082   8.664   5.856   5.921 -1.8233  2.2198  0.0395
  637MOL0     H84083   8.805   5.418   5.572  0.6530 -0.7940  1.9012
  637MOL0     H84084   9.004   5.300   5.460  0.2591 -0.7927 -0.9822
  638MOL0     O84085  10.032   8.332   4.672 -0.0002  0.8308  0.1176
  638MOL0     C84086  10.009   8.316   4.795 -0.3335 -1.1646 -0.7489
  638MOL0     O84087   9.890   8.324   4.859  1.2934 -0.6449 -0.2244
  638MOL0     C84088   9.776   8.330   4.781  1.0058  0.5803  0.4873
  638MOL0     C84089   9.736   8.236   4.687  0.0210  0.5568  0.2673
  638MOL0     C84090   9.619   8.239   4.616 -0.1285 -0.1326 -0.7027
  638MOL0     C84091   9.539   8.343   4.628 -0.9152 -0.3765 -0.1504
  638MOL0     O84092   9.421   8.354   4.557 -0.8091  0.2754  0.6158
  638MOL0     C84093   9.355   8.248   4.495 -0.4155 -0.4809 -0.5680
  638MOL0     C84094   9.216   8.310   4.493  0.4982 -0.4907 -0.4204
  638MOL0     C84095   9.113   8.234   4.414 -0.4393 -0.4500  0.2358
  638MOL0     C84096   9.151   8.201   4.270 -0.4776  0.7125 -0.7326
  638MOL0     C84097   9.199   8.314   4.170  0.3091  0.2313  0.6365
  638MOL0     C84098   9.081   8.407   4.128 -0.2219  0.6786 -0.4421
  638MOL0     C84099   9.120   8.519   4.045  0.5976  0.3418  0.3044
  638MOL0     C84100   9.013   8.586   3.967 -0.3966 -0.7855 -0.1974
  638MOL0     N84101   8.952   8.700   4.035 -0.1053  1.1220 -0.3474
  638MOL0     C84102   9.027   8.804   4.092  0.4342  0.2685 -0.3076
  638MOL0     C84103   8.928   8.878   4.154 -0.5237 -0.2752 -0.1196
  638MOL0     C84104   8.951   9.012   4.221 -0.0640  0.3481 -0.1521
  638MOL0     C84105   8.968   9.119   4.107 -0.6898 -0.1745 -0.1665
  638MOL0     C84106   9.106   9.188   4.109 -0.9442 -0.0648 -0.1670
  638MOL0     C84107   9.089   9.322   4.038  1.3435  0.6116 -0.1288
  638MOL0     O84108   9.211   9.385   4.027 -0.2117 -0.2179  0.2381
  638MOL0     C84109   9.231   9.451   3.912 -0.0366 -0.2513  1.5237
  638MOL0     C84110   9.316   9.412   3.806 -0.3415  0.2160  0.7824
  638MOL0     C84111   9.340   9.494   3.696 -0.3648 -0.8825  0.3286
  638MOL0     C84112   9.278   9.619   3.678 -0.0167  0.5158 -0.2610
  638MOL0     C84113   9.304   9.690   3.551 -0.5242 -0.8737 -0.7598
  638MOL0     O84114   9.226   9.802   3.543  0.3545 -0.9269  0.3179
  638MOL0     C84115   9.243   9.872   3.428 -1.1737  0.0932 -0.1427
  638MOL0     C84116   9.337   9.977   3.430  1.1639  0.3268  0.0018
  638MOL0     C84117   9.320  10.074   3.324  0.3649  0.1948  0.2110
  638MOL0     C84118   9.240  10.049   3.206 -0.0736  0.5884 -0.7363
  638MOL0     O84119   9.203  10.142   3.114 -0.0569  0.3272  1.1765
  638MOL0     C84120   9.137  10.265   3.159 -0.4025 -0.4149 -0.2246
  638MOL0     C84121   8.987  10.244   3.197  0.5956 -0.4251 -0.6974
  638MOL0     C84122   8.919  10.380   3.195  0.2943 -0.3162 -0.7966
  638MOL0     C84123   8.777  10.353   3.253 -0.2698  0.3045 -0.8369
  638MOL0     C84124   8.681  10.473   3.216  0.0950  0.8799 -0.3761
  638MOL0     C84125   8.550  10.479   3.306 -1.6792 -0.1874 -0.5919
  638MOL0     C84126   8.559  10.545   3.444 -0.5767  0.3913 -0.6875
  638MOL0     C84127   8.436  10.527   3.525 -0.1817  0.2581  0.4173
  638MOL0    Cl84128   8.410  10.661   3.644 -0.1541 -0.0586  0.3443
  638MOL0     C84129   9.180   9.927   3.198 -0.4410 -1.1704 -0.1678
  638MOL0     C84130   9.173   9.838   3.307 -0.8584 -0.2231  0.4517
  638MOL0     O84131   9.382   9.647   3.474  0.1814 -0.4122 -0.2732
  638MOL0     C84132   9.184   9.654   3.773  0.2068  0.9518  0.4961
  638MOL0     C84133   9.166   9.569   3.894 -0.9546 -0.2641 -0.5070
  638MOL0     N84134   8.810   8.817   4.137  1.3062 -0.0703 -0.3647
  638MOL0     N84135   8.824   8.718   4.060  0.1431  0.2916 -0.8831
  638MOL0     C84136   9.569   8.448   4.711  1.1923  0.3585  0.4979
  638MOL0     C84137   9.685   8.440   4.790 -0.5724 -0.3493 -0.4303
  638MOL0     C84138  10.129   8.310   4.879  0.3372  0.9227  0.6445
  638MOL0     C84139  10.120   8.267   5.009 -0.0524 -1.3290 -0.4909
  638MOL0     C84140  10.238   8.270   5.095  0.2214 -0.8217 -0.8685
  638MOL0     C84141  10.367   8.300   5.042 -0.7078 -0.1664 -0.1343
  638MOL0     O84142  10.479   8.269   5.118  0.0985  0.0095 -0.8546
  638MOL0     C84143  10.565   8.160   5.064 -0.0558 -0.5777 -0.2639
  638MOL0     C84144  10.695   8.149   5.142 -0.3697  1.1058  0.1417
  638MOL0     C84145  10.683   8.153   5.295  0.1174 -0.8016  0.7404
  638MOL0     C84146  10.807   8.110   5.371  0.6733 -0.2261  0.1139
  638MOL0     C84147  10.928   8.165   5.307  0.6551  0.6819 -0.5059
  638MOL0     C84148  11.018   8.195   5.229  0.0697  0.0340 -0.5599
  638MOL0     C84149  10.373   8.346   4.910  0.3441  0.4899 -0.0849
  638MOL0     C84150  10.258   8.357   4.829 -0.4416 -0.0819 -0.2326
  638MOL0     H84151   9.803   8.152   4.673 -0.7311 -0.1294  0.6978
  638MOL0     H84152   9.585   8.152   4.561 -1.2095 -0.7677  0.8985
  638MOL0     H84153   9.360   8.158   4.557  2.5578  1.5363  2.5036
  638MOL0     H84154   9.401   8.234   4.396 -0.0044 -0.8163 -0.3321
  638MOL0     H84155   9.228   8.410   4.450  1.2778 -1.2475 -2.0345
  638MOL0     H84156   9.181   8.326   4.596 -2.1510 -0.2576 -1.2795
  638MOL0     H84157   9.027   8.301   4.406  1.7819  2.3555 -3.5830
  638MOL0     H84158   9.083   8.142   4.464 -0.3477 -0.8008 -0.3470
  638MOL0     H84159   9.232   8.128   4.275  1.7787  3.1250  0.7183
  638MOL0     H84160   9.068   8.147   4.224  0.6867  0.3964 -2.5970
  638MOL0     H84161   9.238   8.259   4.084  1.6408 -0.2030  1.4906
  638MOL0     H84162   9.284   8.369   4.211  1.6061 -1.6355  0.5704
  638MOL0     H84163   9.043   8.447   4.223  0.0219 -1.0270  0.4034
  638MOL0     H84164   8.997   8.350   4.087 -1.1302  0.8818  1.0674
  638MOL0     H84165   9.174   8.591   4.107  1.0353 -0.3054  0.6741
  638MOL0     H84166   9.193   8.477   3.975 -0.3674 -1.2317  0.1802
  638MOL0     H84167   8.933   8.514   3.949  0.5040 -1.4435 -1.7245
  638MOL0     H84168   9.049   8.617   3.868  0.3839 -2.0982 -0.3418
  638MOL0     H84169   9.132   8.831   4.092 -0.1841  2.8577 -0.9423
  638MOL0     H84170   9.031   9.014   4.295  1.0676  0.0446 -1.3284
  638MOL0     H84171   8.864   9.050   4.276  1.5079  1.3621  1.7366
  638MOL0     H84172   8.882   9.186   4.121 -0.9304 -0.4408 -0.3552
  638MOL0     H84173   8.959   9.072   4.009 -1.4578  2.4758 -1.4886
  638MOL0     H84174   9.154   9.203   4.207 -1.3470  1.8463 -0.2166
  638MOL0     H84175   9.174   9.122   4.055 -0.2497  0.7735 -0.3401
  638MOL0     H84176   9.018   9.393   4.081  1.2747  2.4890 -3.0923
  638MOL0     H84177   9.048   9.302   3.939 -2.3535  1.6671  1.0257
  638MOL0     H84178   9.378   9.323   3.805 -0.2734  0.2576  1.0608
  638MOL0     H84179   9.414   9.456   3.626 -0.5826  0.0742 -0.4551
  638MOL0     H84180   9.402   9.995   3.515  0.6193  3.1073 -0.0780
  638MOL0     H84181   9.363  10.174   3.324 -0.9524  1.0068  4.5872
  638MOL0     H84182   9.144  10.348   3.088 -2.0201  1.5853  1.7917
  638MOL0     H84183   9.196  10.310   3.239 -1.0575  3.1882 -1.5757
  638MOL0     H84184   8.993  10.206   3.299 -0.1256 -1.0294 -0.8735
  638MOL0     H84185   8.944  10.171   3.128  0.1832  1.5244 -2.6286
  638MOL0     H84186   8.915  10.419   3.093 -1.0154 -0.5264 -0.8431
  638MOL0     H84187   8.986  10.445   3.252  3.0910 -1.7647 -2.2170
  638MOL0     H84188   8.728  10.260   3.221 -2.5661  0.7546  1.1129
  638MOL0     H84189   8.795  10.351   3.361 -0.6576  4.5354 -0.5375
  638MOL0     H84190   8.643  10.451   3.115 -1.5612  0.4919  0.2973
  638MOL0     H84191   8.740  10.565   3.211  2.5286 -0.5639 -0.3475
  638MOL0     H84192   8.511  10.377   3.315  0.1268 -0.6867  3.5968
  638MOL0     H84193   8.475  10.541   3.255 -2.5299  0.4283  1.3037
  638MOL0     H84194   8.651  10.504   3.488 -1.0476 -0.7589 -0.7405
  638MOL0     H84195   8.571  10.652   3.426  5.5552 -0.1304 -1.9354
  638MOL0     H84196   8.423  10.427   3.567 -0.7358 -0.4685 -1.4046
  638MOL0     H84197   8.357  10.539   3.450 -0.4810  0.6842  0.7955
  638MOL0     H84198   9.115   9.900   3.115 -3.4217  0.5780  1.4139
  638MOL0     H84199   9.123   9.742   3.308  1.0000 -1.2409  0.5159
  638MOL0     H84200   9.129   9.747   3.765 -0.7209  0.4793  1.1828
  638MOL0     H84201   9.094   9.597   3.971 -0.6824 -2.1068  0.4590
  638MOL0     H84202   9.507   8.537   4.715  1.8122  0.7768  1.3393
  638MOL0     H84203   9.705   8.531   4.846 -0.3045 -0.5780 -0.1499
  638MOL0     H84204  10.022   8.240   5.047  0.1925  0.3634  1.5508
  638MOL0     H84205  10.218   8.232   5.195 -2.4348 -0.9114 -1.3564
  638MOL0     H84206  10.589   8.173   4.958  1.7591 -2.1990 -0.0900
  638MOL0     H84207  10.510   8.066   5.073 -0.6739 -0.2395 -0.4115
  638MOL0     H84208  10.749   8.059   5.113 -0.5290  0.6442  1.2324
  638MOL0     H84209  10.762   8.231   5.112  2.6715 -1.9562 -2.2159
  638MOL0     H84210  10.602   8.091   5.335  0.4731 -2.5033 -1.0124
  638MOL0     H84211  10.652   8.254   5.322  1.5755  0.6980 -2.7045
  638MOL0     H84212  10.790   8.124   5.478 -0.4090 -0.8345  0.0337
  638MOL0     H84213  10.815   8.001   5.362  0.1583 -0.1300 -1.9650
  638MOL0     H84214  11.104   8.234   5.178  2.3610  0.1126  3.0146
  638MOL0     H84215  10.474   8.365   4.876  1.4027 -0.4169  2.2821
  638MOL0     H84216  10.258   8.404   4.731  0.0919 -1.0123 -0.6913
  639MOL0     O84217   7.387   4.438   0.962  0.3402 -0.1297 -0.1510
  639MOL0     C84218   7.365   4.330   1.022 -0.8837  0.9463  0.2872
  639MOL0     O84219   7.376   4.314   1.154 -0.5100 -0.5890 -0.4911
  639MOL0     C84220   7.366   4.426   1.236  0.5923  0.5765  1.1490
  639MOL0     C84221   7.452   4.420   1.348 -0.2750  0.2117  1.1447
  639MOL0     C84222   7.457   4.520   1.448  0.2902  0.2401  0.5183
  639MOL0     C84223   7.361   4.624   1.437 -0.2949  0.0668  0.2369
  639MOL0     O84224   7.360   4.725   1.536  0.7655  0.1309  0.2068
  639MOL0     C84225   7.229   4.770   1.589 -0.4771 -0.0156  0.6833
  639MOL0     C84226   7.249   4.879   1.695 -0.8209 -0.1325  0.1944
  639MOL0     C84227   7.122   4.949   1.739  0.4487  0.6448  0.7459
  639MOL0     C84228   7.159   5.060   1.834 -0.3652  0.5603  0.4007
  639MOL0     C84229   7.035   5.146   1.854 -1.3024 -0.1141 -0.0626
  639MOL0     C84230   7.070   5.263   1.942 -0.2621 -0.5253 -0.3269
  639MOL0     C84231   6.950   5.325   2.000 -0.4893  0.3546 -0.2409
  639MOL0     C84232   6.861   5.383   1.898  1.0712  0.4021  0.0106
  639MOL0     N84233   6.937   5.471   1.810  0.4106  0.0406  0.3782
  639MOL0     C84234   7.003   5.581   1.854 -0.0779  1.2765  0.5994
  639MOL0     C84235   7.068   5.623   1.743  0.2692 -0.5897 -0.7791
  639MOL0     C84236   7.167   5.731   1.739  0.1659  0.2789  1.1597
  639MOL0     C84237   7.314   5.679   1.756  0.5953  0.1893 -0.1745
  639MOL0     C84238   7.423   5.790   1.725 -0.3793  0.6822 -0.2216
  639MOL0     C84239   7.560   5.755   1.784 -0.5159 -1.2434 -0.3992
  639MOL0     O84240   7.655   5.858   1.762 -0.5865  0.2039  0.3344
  639MOL0     C84241   7.788   5.818   1.794 -0.1189 -0.7103 -0.3569
  639MOL0     C84242   7.829   5.700   1.850 -0.1293 -0.4860  0.5767
  639MOL0     C84243   7.958   5.673   1.864 -0.3945 -0.3160 -0.0100
  639MOL0     C84244   8.060   5.762   1.823 -0.5234 -0.7487  0.1900
  639MOL0     C84245   8.202   5.719   1.825 -0.1026  0.3230 -0.0083
  639MOL0     O84246   8.232   5.585   1.851 -0.1009 -0.7354 -0.5115
  639MOL0     C84247   8.355   5.542   1.868 -0.0962 -0.3419  0.2338
  639MOL0     C84248   8.366   5.440   1.951 -0.0868 -0.6194 -1.2152
  639MOL0     C84249   8.497   5.385   1.967 -0.2163  0.2132  1.0278
  639MOL0     C84250   8.604   5.430   1.885 -0.1702 -0.0188 -0.5350
  639MOL0     O84251   8.726   5.373   1.897 -0.3816  1.0349  0.3183
  639MOL0     C84252   8.742   5.250   1.977 -0.2578 -0.1282  0.2951
  639MOL0     C84253   8.814   5.279   2.111 -0.4296  0.8066 -0.0018
  639MOL0     C84254   8.918   5.387   2.115  0.8824 -0.2916 -0.3911
  639MOL0     C84255   9.032   5.342   2.037 -0.6684 -0.6841  0.0187
  639MOL0     C84256   9.159   5.427   2.071  0.2104 -0.2823  1.1771
  639MOL0     C84257   9.298   5.368   2.032  0.0372 -0.1717 -0.1979
  639MOL0     C84258   9.411   5.433   2.098  0.0259  0.5572 -0.2222
  639MOL0     C84259   9.436   5.574   2.058  0.1468  0.2003 -0.2552
  639MOL0    Cl84260   9.527   5.658   2.189 -0.0302  0.6949  0.3013
  639MOL0     C84261   8.587   5.537   1.800  0.3943 -0.9456 -0.4789
  639MOL0     C84262   8.458   5.593   1.786  0.2778  0.5713  0.1665
  639MOL0     O84263   8.283   5.814   1.824 -0.1346 -0.6331  0.2748
  639MOL0     C84264   8.022   5.879   1.758  0.3977 -1.2210 -0.1348
  639MOL0     C84265   7.882   5.912   1.752  0.2157 -0.4295  0.7248
  639MOL0     N84266   7.037   5.544   1.636  0.5591  0.7733  0.3672
  639MOL0     N84267   6.960   5.445   1.682  0.9517  0.3600  0.3670
  639MOL0     C84268   7.277   4.627   1.320  0.1817  0.8359 -0.8726
  639MOL0     C84269   7.281   4.534   1.216 -0.6394  0.7384  0.8681
  639MOL0     C84270   7.382   4.209   0.939 -1.3377 -0.1720 -0.4680
  639MOL0     C84271   7.337   4.210   0.811 -0.2278 -0.2520  0.3232
  639MOL0     C84272   7.342   4.096   0.728 -0.8868 -0.8271  0.6127
  639MOL0     C84273   7.388   3.976   0.775  0.6268  0.4453 -0.4750
  639MOL0     O84274   7.395   3.847   0.710 -0.8892 -0.4697  0.7810
  639MOL0     C84275   7.292   3.823   0.613  0.6225 -0.6868 -0.5239
  639MOL0     C84276   7.315   3.696   0.533 -0.1746  0.1474 -0.1786
  639MOL0     C84277   7.322   3.564   0.619  0.3035  0.7051  0.6570
  639MOL0     C84278   7.375   3.440   0.545 -0.1298 -0.5625  0.4331
  639MOL0     C84279   7.516   3.454   0.519 -0.3373 -0.5629  0.9910
  639MOL0     C84280   7.632   3.481   0.507  0.9131 -0.9414  0.7101
  639MOL0     C84281   7.418   3.968   0.914 -0.2085 -0.3058  0.9525
  639MOL0     C84282   7.422   4.082   0.995  0.1143  0.1494 -0.0577
  639MOL0     H84283   7.523   4.339   1.347 -0.8816 -0.3292  0.7046
  639MOL0     H84284   7.524   4.512   1.533 -1.0669 -1.8020  1.4589
  639MOL0     H84285   7.171   4.686   1.627 -0.4867  0.3440  1.4805
  639MOL0     H84286   7.153   4.799   1.515  0.5855  0.4189 -0.2703
  639MOL0     H84287   7.313   4.961   1.663 -0.0652 -1.3693 -1.6500
  639MOL0     H84288   7.295   4.842   1.787 -0.4486  1.6633  0.7636
  639MOL0     H84289   7.052   4.878   1.785 -1.3294  1.5034 -0.5043
  639MOL0     H84290   7.068   4.986   1.651 -0.2617 -1.9028  0.0281
  639MOL0     H84291   7.198   5.011   1.925  0.6230  2.0722  0.8287
  639MOL0     H84292   7.239   5.116   1.786 -1.1350  0.0084 -1.6409
  639MOL0     H84293   6.959   5.084   1.902 -0.0310 -1.7356 -0.0424
  639MOL0     H84294   6.993   5.182   1.760  0.1544 -0.8312 -1.0312
  639MOL0     H84295   7.121   5.335   1.878  1.2201 -2.4989 -1.4829
  639MOL0     H84296   7.131   5.236   2.029 -0.8859  2.5316  1.1709
  639MOL0     H84297   6.893   5.247   2.052 -2.2638  2.7986  1.6787
  639MOL0     H84298   6.991   5.406   2.060  4.2232  0.5704 -3.2613
  639MOL0     H84299   6.782   5.446   1.940 -1.5826  0.0156 -3.8177
  639MOL0     H84300   6.809   5.307   1.839 -0.9514  2.6908 -1.3598
  639MOL0     H84301   7.016   5.628   1.951  0.9978  0.8263  0.6820
  639MOL0     H84302   7.139   5.793   1.824  1.3229 -0.4449  2.0971
  639MOL0     H84303   7.155   5.786   1.645 -0.2819  0.0460  1.0789
  639MOL0     H84304   7.333   5.589   1.698 -1.1662 -1.4704  1.6747
  639MOL0     H84305   7.325   5.657   1.862  4.4238  2.2044 -0.0000
  639MOL0     H84306   7.449   5.803   1.619  1.1358 -0.8126 -0.0666
  639MOL0     H84307   7.377   5.885   1.753 -0.5077  0.1818  1.3607
  639MOL0     H84308   7.589   5.658   1.743  0.6107 -1.2545  0.3724
  639MOL0     H84309   7.540   5.741   1.891 -0.4291  0.5524 -0.1185
  639MOL0     H84310   7.761   5.619   1.875  0.7220 -1.0209  1.2204
  639MOL0     H84311   7.986   5.580   1.912 -1.8568 -1.1509 -0.7061
  639MOL0     H84312   8.277   5.420   2.010  0.2920  1.2706  0.0680
  639MOL0     H84313   8.503   5.308   2.044  4.5758  1.2597  1.9889
  639MOL0     H84314   8.805   5.192   1.910 -2.3596 -0.1810 -1.7292
  639MOL0     H84315   8.651   5.191   1.990  0.8966 -2.3996 -1.4621
  639MOL0     H84316   8.853   5.183   2.145 -0.3388 -0.0634 -2.4061
  639MOL0     H84317   8.738   5.314   2.181  0.3607 -0.8903  1.7912
  639MOL0     H84318   8.951   5.410   2.217  0.2141  2.6283 -0.7252
  639MOL0     H84319   8.875   5.484   2.086  1.6274  0.3774  0.6776
  639MOL0     H84320   9.061   5.239   2.058  0.0842 -0.2007  1.4487
  639MOL0     H84321   9.011   5.356   1.930 -0.3884 -1.2504 -0.1129
  639MOL0     H84322   9.162   5.439   2.180 -4.1670  0.1172  1.4336
  639MOL0     H84323   9.147   5.523   2.021 -2.8378  0.4332  3.0630
  639MOL0     H84324   9.293   5.376   1.923 -1.6996 -2.6013 -0.3699
  639MOL0     H84325   9.297   5.261   2.052 -1.4957 -0.1291  0.0664
  639MOL0     H84326   9.395   5.407   2.203  2.0404  0.0483 -0.0085
  639MOL0     H84327   9.503   5.376   2.081  0.7446  1.8879 -0.9536
  639MOL0     H84328   9.333   5.609   2.043 -0.8272 -2.3388  0.0433
  639MOL0     H84329   9.496   5.578   1.966  1.3156  2.1311  0.5192
  639MOL0     H84330   8.670   5.569   1.738 -0.1359  0.4591 -0.4927
  639MOL0     H84331   8.435   5.666   1.709 -1.1684  0.5267  0.5290
  639MOL0     H84332   8.097   5.943   1.712 -1.7383  0.2678 -1.7703
  639MOL0     H84333   7.835   5.998   1.705  2.1633  0.7273  0.7683
  639MOL0     H84334   7.202   4.706   1.315 -0.0773  0.8880  2.1734
  639MOL0     H84335   7.210   4.541   1.134 -0.7198  0.2807  0.8976
  639MOL0     H84336   7.287   4.296   0.766 -0.8902 -1.5435 -1.5067
  639MOL0     H84337   7.294   4.101   0.631  1.1834 -0.8046 -0.4877
  639MOL0     H84338   7.288   3.910   0.546  0.8902  1.1520  1.7025
  639MOL0     H84339   7.199   3.817   0.670  0.0407  1.5058 -1.1224
  639MOL0     H84340   7.237   3.675   0.460 -0.4763 -0.2137  0.2500
  639MOL0     H84341   7.409   3.724   0.483  0.1734 -1.1364 -0.2603
  639MOL0     H84342   7.220   3.531   0.639 -0.3277  1.4480 -1.1199
  639MOL0     H84343   7.386   3.587   0.705  0.0309 -0.7646  1.2793
  639MOL0     H84344   7.366   3.343   0.594  1.9543  0.4950  3.2325
  639MOL0     H84345   7.331   3.424   0.447  1.0803 -2.6297  0.1605
  639MOL0     H84346   7.729   3.519   0.482 -0.0347  1.7088  0.7549
  639MOL0     H84347   7.455   3.872   0.950  1.8245  0.2244  0.4172
  639MOL0     H84348   7.456   4.068   1.097  3.0347  1.4560 -0.7353
  640MOL0     O84349   1.122   5.482   2.742 -0.0164 -0.1067 -0.0965
  640MOL0     C84350   1.106   5.581   2.812 -0.7126  0.2274 -0.7678
  640MOL0     O84351   1.036   5.684   2.785  0.2467 -0.3235 -0.1794
  640MOL0     C84352   0.950   5.691   2.675  0.2014 -0.6880 -0.6618
  640MOL0     C84353   0.851   5.789   2.684 -0.7755 -0.3543  0.5370
  640MOL0     C84354   0.761   5.812   2.583  0.8219  0.2756 -0.4004
  640MOL0     C84355   0.747   5.715   2.482  0.7343  0.1909 -0.0752
  640MOL0     O84356   0.660   5.735   2.374 -0.0802 -0.2355  0.6449
  640MOL0     C84357   0.615   5.625   2.303 -0.0888  0.7756 -0.4146
  640MOL0     C84358   0.477   5.636   2.236  0.8469 -0.0335 -0.2223
  640MOL0     C84359   0.433   5.528   2.140 -0.4981  0.1577  0.0332
  640MOL0     C84360   0.408   5.385   2.206 -0.0194 -0.8084 -0.4054
  640MOL0     C84361   0.379   5.281   2.095  0.2961 -0.1446  0.1359
  640MOL0     C84362   0.227   5.294   2.047 -0.4889  0.8418  0.0943
  640MOL0     C84363   0.200   5.159   1.978  0.5060 -0.2693 -0.1879
  640MOL0     C84364   0.166   5.176   1.831  0.3002  0.2605  0.2631
  640MOL0     N84365   0.259   5.101   1.742 -0.1961 -1.2347  0.3828
  640MOL0     C84366   0.366   5.163   1.675  0.4593 -0.2724 -0.2753
  640MOL0     C84367   0.407   5.068   1.596 -0.7142 -0.2546  0.7331
  640MOL0     C84368   0.524   5.061   1.500 -0.6322  0.4864 -0.4374
  640MOL0     C84369   0.582   4.918   1.496  0.3538 -0.2109 -0.0840
  640MOL0     C84370   0.710   4.930   1.406 -1.3411  0.1535  0.3834
  640MOL0     C84371   0.770   4.785   1.380 -0.1313 -0.1678 -0.6362
  640MOL0     O84372   0.819   4.733   1.512  0.2107  0.6454 -1.0957
  640MOL0     C84373   0.910   4.625   1.510  1.0141 -1.0849 -0.0024
  640MOL0     C84374   0.993   4.613   1.625 -0.3740 -0.5346  1.1837
  640MOL0     C84375   1.074   4.499   1.642  0.3926  0.2918  0.6172
  640MOL0     C84376   1.074   4.387   1.545  0.4749 -0.2934  0.1239
  640MOL0     C84377   1.172   4.271   1.551 -0.7302 -0.3041  0.0967
  640MOL0     O84378   1.177   4.179   1.449  0.0492  0.1757 -0.1399
  640MOL0     C84379   1.262   4.075   1.457 -0.4197 -0.0398  0.8531
  640MOL0     C84380   1.208   3.952   1.421  0.0771  1.1691  0.9156
  640MOL0     C84381   1.297   3.836   1.428  0.8540 -1.5155  0.4693
  640MOL0     C84382   1.421   3.854   1.474 -1.0922  0.3379  0.0543
  640MOL0     O84383   1.497   3.734   1.477  0.2943 -0.5687  0.0767
  640MOL0     C84384   1.647   3.746   1.497  0.0785 -0.8831  0.2375
  640MOL0     C84385   1.703   3.607   1.540  0.0258  0.9201  0.6123
  640MOL0     C84386   1.604   3.521   1.618 -0.4949  1.1404  0.9389
  640MOL0     C84387   1.555   3.586   1.757  0.5171 -0.7266 -0.8064
  640MOL0     C84388   1.659   3.663   1.832 -0.1689 -0.3899 -1.2968
  640MOL0     C84389   1.773   3.574   1.894  0.3501  0.3577  0.0506
  640MOL0     C84390   1.877   3.671   1.952  0.2698  0.7448 -0.2474
  640MOL0     C84391   1.979   3.602   2.044 -0.2106 -0.1756  1.3715
  640MOL0    Cl84392   1.897   3.544   2.196 -0.1684  0.4707  0.1097
  640MOL0     C84393   1.474   3.979   1.501  0.2295  0.1360  1.0543
  640MOL0     C84394   1.393   4.085   1.508  0.8098  0.2075 -1.1762
  640MOL0     O84395   1.234   4.273   1.651 -0.3340  0.0775 -0.4753
  640MOL0     C84396   1.002   4.418   1.426 -0.2622 -0.0032 -0.7118
  640MOL0     C84397   0.917   4.527   1.414  0.5305  0.0688 -0.5415
  640MOL0     N84398   0.332   4.953   1.618 -0.3100  0.1701 -0.4108
  640MOL0     N84399   0.243   4.979   1.700  0.0161 -0.2092 -0.4979
  640MOL0     C84400   0.841   5.614   2.476 -0.0320 -0.2654 -0.3161
  640MOL0     C84401   0.950   5.604   2.564  0.4498  0.1084  0.1669
  640MOL0     C84402   1.166   5.578   2.942 -0.3299  0.2213  1.2069
  640MOL0     C84403   1.081   5.625   3.052 -0.7806 -0.0627 -0.7882
  640MOL0     C84404   1.137   5.626   3.179  0.1624  0.2094  0.9016
  640MOL0     C84405   1.265   5.591   3.200  0.3892 -0.4974  0.3070
  640MOL0     O84406   1.310   5.600   3.327 -0.0682 -0.3524 -0.1627
  640MOL0     C84407   1.384   5.492   3.383  0.3655  1.0546 -0.5077
  640MOL0     C84408   1.297   5.366   3.422 -0.3971  0.2365  0.7527
  640MOL0     C84409   1.172   5.408   3.504 -0.7523  0.8562  0.5238
  640MOL0     C84410   1.116   5.283   3.582 -0.0759 -0.0624 -0.5540
  640MOL0     C84411   1.052   5.299   3.714 -0.9129 -0.5007 -1.0311
  640MOL0     C84412   0.994   5.316   3.819 -0.3395  0.8328 -0.1764
  640MOL0     C84413   1.350   5.559   3.090  0.3465  0.2218  0.4157
  640MOL0     C84414   1.300   5.543   2.963  0.8305 -0.4276 -0.2021
  640MOL0     H84415   0.850   5.853   2.771 -2.0360  1.5391 -0.7900
  640MOL0     H84416   0.695   5.898   2.585  2.2342  1.4095 -1.0374
  640MOL0     H84417   0.612   5.533   2.361  0.5163 -0.2619 -1.9733
  640MOL0     H84418   0.680   5.600   2.218 -0.7460 -2.3615 -0.1194
  640MOL0     H84419   0.457   5.729   2.181 -1.3187  0.9176  1.9682
  640MOL0     H84420   0.396   5.640   2.310 -0.4789  1.0760 -1.6546
  640MOL0     H84421   0.507   5.527   2.060 -0.1200  2.0235  0.3077
  640MOL0     H84422   0.346   5.559   2.081  0.6243 -1.8347 -2.9048
  640MOL0     H84423   0.495   5.352   2.264 -1.2765 -4.9778 -0.5690
  640MOL0     H84424   0.324   5.396   2.276 -0.6936 -1.5285 -1.0807
  640MOL0     H84425   0.388   5.184   2.144 -2.2031 -0.3388  0.3611
  640MOL0     H84426   0.443   5.292   2.007 -0.8151  1.3375 -0.5252
  640MOL0     H84427   0.198   5.376   1.981 -0.8913 -0.2695 -1.1345
  640MOL0     H84428   0.178   5.298   2.144  1.5355 -4.1138  1.6505
  640MOL0     H84429   0.283   5.091   1.994 -1.5205 -2.3140  2.5301
  640MOL0     H84430   0.115   5.107   2.023  1.4576 -2.1049 -0.4286
  640MOL0     H84431   0.157   5.281   1.804  1.3219  0.2014 -0.4011
  640MOL0     H84432   0.062   5.145   1.817  0.6158 -0.9948  0.5979
  640MOL0     H84433   0.405   5.264   1.683 -1.2600  0.3219  1.4202
  640MOL0     H84434   0.602   5.136   1.514  0.7249 -0.1732 -3.6832
  640MOL0     H84435   0.495   5.096   1.401  1.9390  1.3026 -0.9632
  640MOL0     H84436   0.510   4.847   1.455 -0.3929  0.9662 -0.8439
  640MOL0     H84437   0.612   4.901   1.600  0.5798  0.4220 -0.0409
  640MOL0     H84438   0.689   4.971   1.307  0.3176  2.6131  0.9702
  640MOL0     H84439   0.784   4.997   1.451  1.4045 -1.1182 -1.8688
  640MOL0     H84440   0.840   4.784   1.295 -1.1524  0.7748 -1.5133
  640MOL0     H84441   0.682   4.730   1.345 -0.8464  1.5644 -1.7063
  640MOL0     H84442   0.982   4.693   1.697 -1.0965 -0.5137  1.0531
  640MOL0     H84443   1.127   4.476   1.734 -3.4646 -0.6842  2.8162
  640MOL0     H84444   1.105   3.942   1.390  0.0894  0.6506  1.0312
  640MOL0     H84445   1.269   3.739   1.387 -3.2970  0.7636 -2.8979
  640MOL0     H84446   1.675   3.819   1.573  0.0978 -2.0188  1.3352
  640MOL0     H84447   1.682   3.793   1.404 -0.0124 -2.1445 -0.4637
  640MOL0     H84448   1.798   3.607   1.594 -0.4351  0.9201  1.4430
  640MOL0     H84449   1.706   3.547   1.449 -2.7301  2.3588 -0.5416
  640MOL0     H84450   1.661   3.429   1.634  0.5746  0.9256 -2.9069
  640MOL0     H84451   1.519   3.498   1.554  2.3147 -1.5613 -2.2387
  640MOL0     H84452   1.475   3.654   1.725  2.0407  1.3215 -0.5006
  640MOL0     H84453   1.509   3.511   1.821  2.6037 -2.5838 -1.3390
  640MOL0     H84454   1.617   3.724   1.913  0.6315 -0.2847 -0.9529
  640MOL0     H84455   1.705   3.731   1.759  0.6300 -2.3756 -2.7335
  640MOL0     H84456   1.814   3.504   1.821 -3.1561 -3.2116  1.1826
  640MOL0     H84457   1.725   3.513   1.971 -0.1721  0.3141 -0.2996
  640MOL0     H84458   1.927   3.729   1.874 -0.0115  0.7481 -0.4272
  640MOL0     H84459   1.811   3.741   2.004 -2.7238 -3.5829  2.4937
  640MOL0     H84460   2.057   3.674   2.070 -0.5097 -0.0977  2.0778
  640MOL0     H84461   2.039   3.529   1.989 -0.2268  1.4947 -0.9813
  640MOL0     H84462   1.577   3.995   1.531 -0.0063  3.9738  0.2852
  640MOL0     H84463   1.436   4.172   1.555  0.9197 -0.6129  0.2918
  640MOL0     H84464   0.985   4.334   1.359  1.1640 -1.1133  0.2705
  640MOL0     H84465   0.837   4.520   1.341 -2.3081 -0.1459  2.3270
  640MOL0     H84466   0.843   5.547   2.390 -0.7325  0.3144 -0.7868
  640MOL0     H84467   1.024   5.529   2.539  1.2085  0.5366  1.1006
  640MOL0     H84468   0.976   5.649   3.039 -0.7160  0.5327 -0.2779
  640MOL0     H84469   1.080   5.645   3.269 -1.5342  2.9589 -0.6022
  640MOL0     H84470   1.437   5.533   3.469 -0.8695  0.8468  0.3782
  640MOL0     H84471   1.461   5.462   3.311 -0.3659  0.3568 -1.0164
  640MOL0     H84472   1.266   5.316   3.330  0.7587  0.2372  0.3510
  640MOL0     H84473   1.356   5.288   3.471 -0.3876  0.3218  0.8781
  640MOL0     H84474   1.094   5.453   3.442  0.3811  0.4558 -1.2822
  640MOL0     H84475   1.193   5.483   3.582  0.8917 -2.4286  3.5256
  640MOL0     H84476   1.039   5.242   3.516  0.6973  0.9814 -2.1555
  640MOL0     H84477   1.197   5.213   3.604  0.2554  0.2279 -0.8347
  640MOL0     H84478   0.952   5.321   3.917 -0.0671 -5.7047  0.6968
  640MOL0     H84479   1.456   5.536   3.097 -0.0809 -1.8200  0.8936
  640MOL0     H84480   1.356   5.511   2.875 -0.6507  3.7301 -2.9408
  641MOL0     O84481  10.244   2.739   2.195  0.8057  0.0432 -0.4710
  641MOL0     C84482  10.245   2.730   2.072  0.9466  0.4522 -0.5130
  641MOL0     O84483  10.355   2.716   1.997 -0.1051 -0.9549  0.3012
  641MOL0     C84484  10.485   2.706   2.050  0.0245  0.7068 -0.7407
  641MOL0     C84485  10.591   2.737   1.961 -0.4045  0.3996 -0.3342
  641MOL0     C84486  10.729   2.730   2.008  0.7268 -0.2817 -0.1561
  641MOL0     C84487  10.755   2.689   2.141 -0.4380 -0.2158  0.4051
  641MOL0     O84488  10.887   2.680   2.206  0.8438 -0.2586 -0.3443
  641MOL0     C84489  11.001   2.739   2.151 -0.0932 -0.7711  0.5508
  641MOL0     C84490  11.112   2.638   2.114 -0.2417 -0.1761  0.0879
  641MOL0     C84491  11.152   2.553   2.235  0.1734 -0.0743 -0.3439
  641MOL0     C84492  11.203   2.402   2.207 -0.6964 -0.3138 -0.3645
  641MOL0     C84493  11.272   2.342   2.334  0.2279 -0.2695  0.3606
  641MOL0     C84494  11.419   2.309   2.294  0.2600  0.1180  0.3414
  641MOL0     C84495  11.514   2.430   2.266 -0.5338 -0.4850  0.1704
  641MOL0     C84496  11.664   2.404   2.265  0.7075 -0.4484 -0.6667
  641MOL0     N84497  11.735   2.364   2.393 -0.7766 -0.4315 -0.0032
  641MOL0     C84498  11.799   2.449   2.470 -0.2324  0.4579 -0.3494
  641MOL0     C84499  11.883   2.372   2.538  0.0070 -0.0853 -0.1361
  641MOL0     C84500  11.971   2.442   2.635 -0.2669  0.5593 -0.6452
  641MOL0     C84501  12.068   2.338   2.691 -0.5756  0.0357 -0.6211
  641MOL0     C84502  12.141   2.401   2.811  0.0817 -0.5788 -0.2331
  641MOL0     C84503  12.188   2.291   2.910 -0.0354  0.2126  0.3969
  641MOL0     O84504  12.240   2.347   3.028 -0.4001 -0.5065 -0.1183
  641MOL0     C84505  12.279   2.259   3.122 -0.2647 -0.4970  0.7859
  641MOL0     C84506  12.233   2.128   3.123 -0.8466 -0.4651  0.6632
  641MOL0     C84507  12.273   2.029   3.221 -0.0524 -0.2505 -1.1523
  641MOL0     C84508  12.353   2.069   3.326 -0.5995  0.7748 -1.0389
  641MOL0     C84509  12.405   1.961   3.419 -0.6959  0.8258 -0.4211
  641MOL0     O84510  12.503   2.000   3.516  1.0017  0.3170  0.2197
  641MOL0     C84511  12.538   1.908   3.609 -0.1325  0.4689  0.7414
  641MOL0     C84512  12.677   1.893   3.640  0.5068 -0.1634  0.5141
  641MOL0     C84513  12.713   1.824   3.760  0.2228 -0.1506  0.1928
  641MOL0     C84514  12.615   1.779   3.850  0.4691 -0.2808  0.7033
  641MOL0     O84515  12.671   1.708   3.957  0.1604  1.0623 -0.8341
  641MOL0     C84516  12.584   1.627   4.044 -0.5438 -0.6179  0.0042
  641MOL0     C84517  12.671   1.536   4.120  0.2329 -0.1061 -0.8687
  641MOL0     C84518  12.588   1.430   4.210 -0.0917 -0.0275  0.0921
  641MOL0     C84519  12.674   1.355   4.315  0.2542  0.6057  0.5742
  641MOL0     C84520  12.606   1.220   4.341  1.0209 -0.2863  0.2714
  641MOL0     C84521  12.699   1.128   4.410  0.0567 -0.5288  0.2885
  641MOL0     C84522  12.810   1.079   4.322 -0.0474  0.5174 -0.6733
  641MOL0     C84523  12.907   0.989   4.409  0.1739  0.1016 -0.2646
  641MOL0    Cl84524  12.975   1.094   4.523 -0.1815 -0.4574  0.7362
  641MOL0     C84525  12.482   1.796   3.809  0.3040 -0.3539  0.9141
  641MOL0     C84526  12.440   1.851   3.695 -0.5047 -0.1234  0.0725
  641MOL0     O84527  12.374   1.840   3.392 -0.1150 -0.0503  0.2054
  641MOL0     C84528  12.414   2.194   3.323 -0.6073  0.0376 -0.0886
  641MOL0     C84529  12.379   2.290   3.221 -0.0068 -0.3737  0.0990
  641MOL0     N84530  11.877   2.236   2.496  0.2531 -0.6542 -0.3618
  641MOL0     N84531  11.779   2.235   2.416 -0.0336 -0.4960 -0.0815
  641MOL0     C84532  10.655   2.659   2.224  0.2327 -0.0388 -1.1478
  641MOL0     C84533  10.520   2.661   2.180 -1.3858 -0.1951 -0.2754
  641MOL0     C84534  10.111   2.708   2.008 -0.7309 -0.3894 -0.8077
  641MOL0     C84535   9.994   2.737   2.079 -0.0886 -0.3482 -0.4049
  641MOL0     C84536   9.867   2.729   2.014 -0.2108 -0.2473 -0.5269
  641MOL0     C84537   9.854   2.711   1.881  0.1117  0.4997  0.6096
  641MOL0     O84538   9.739   2.702   1.811  0.5046  0.4927 -0.1119
  641MOL0     C84539   9.626   2.667   1.891  0.0756  0.1513 -1.4308
  641MOL0     C84540   9.504   2.624   1.807 -0.6797 -0.5338  0.2505
  641MOL0     C84541   9.375   2.569   1.873 -0.0314  0.8865  0.2840
  641MOL0     C84542   9.368   2.414   1.847 -0.5129  0.8872  0.0104
  641MOL0     C84543   9.470   2.334   1.922  0.3963 -0.0284 -0.6709
  641MOL0     C84544   9.547   2.261   1.975  0.0898  0.3504  0.7087
  641MOL0     C84545   9.973   2.686   1.804 -0.7813  0.3929  0.0409
  641MOL0     C84546  10.097   2.679   1.870 -0.2883  0.7795 -0.4255
  641MOL0     H84547  10.573   2.759   1.857  1.4630 -1.3927 -1.1125
  641MOL0     H84548  10.798   2.766   1.933  0.1550 -2.5232 -1.8324
  641MOL0     H84549  11.046   2.817   2.214 -1.3050  0.0545  0.4218
  641MOL0     H84550  10.960   2.781   2.059 -1.0419 -0.1490  1.2363
  641MOL0     H84551  11.209   2.679   2.082  0.8217 -2.6069  0.0154
  641MOL0     H84552  11.080   2.575   2.031 -1.3465  2.6306 -1.7782
  641MOL0     H84553  11.069   2.546   2.306  0.2692  3.9834  0.3913
  641MOL0     H84554  11.219   2.613   2.297 -1.2241  1.2341 -0.0343
  641MOL0     H84555  11.119   2.339   2.175 -2.6146  1.2143  1.3483
  641MOL0     H84556  11.268   2.411   2.120  0.8957  0.7644  0.8779
  641MOL0     H84557  11.227   2.245   2.360 -2.9899  0.9520 -0.2809
  641MOL0     H84558  11.261   2.412   2.417  1.0478  1.4086 -0.8925
  641MOL0     H84559  11.407   2.243   2.207  2.3219 -0.2428  0.2854
  641MOL0     H84560  11.459   2.242   2.370  0.0543 -0.6860 -0.2428
  641MOL0     H84561  11.481   2.469   2.170 -1.4779 -1.2679  0.1642
  641MOL0     H84562  11.492   2.498   2.349 -1.0365  1.0047 -1.1541
  641MOL0     H84563  11.708   2.494   2.221 -0.9740  1.3525  1.1488
  641MOL0     H84564  11.687   2.321   2.197  1.9444 -2.3388  1.8977
  641MOL0     H84565  11.775   2.553   2.488  3.0198  1.5125 -1.4745
  641MOL0     H84566  11.916   2.504   2.706 -0.3587  0.7077 -0.8463
  641MOL0     H84567  12.026   2.523   2.586  1.1241  1.6444  2.4628
  641MOL0     H84568  12.138   2.300   2.616  0.4114 -1.9302  1.1876
  641MOL0     H84569  12.020   2.247   2.729  1.8318 -0.9426  0.2546
  641MOL0     H84570  12.227   2.459   2.778  0.0616 -1.8864 -2.8122
  641MOL0     H84571  12.067   2.457   2.870 -0.5992 -3.2550  1.6413
  641MOL0     H84572  12.269   2.235   2.862  0.4210  1.6539 -0.5932
  641MOL0     H84573  12.102   2.225   2.923 -0.2978  0.6254  0.7620
  641MOL0     H84574  12.162   2.087   3.053  0.3640 -2.6609  0.6339
  641MOL0     H84575  12.227   1.931   3.215 -2.1254  0.5453  0.2696
  641MOL0     H84576  12.752   1.938   3.575 -0.4174 -1.2059 -1.3238
  641MOL0     H84577  12.819   1.822   3.786  0.2348  5.9491  2.3062
  641MOL0     H84578  12.537   1.559   3.972 -1.0032 -1.5677  1.1664
  641MOL0     H84579  12.524   1.691   4.109 -0.9893 -1.4092  0.3738
  641MOL0     H84580  12.740   1.603   4.173  1.1240 -1.6582  0.0112
  641MOL0     H84581  12.736   1.482   4.050  0.8242  1.6343 -1.7300
  641MOL0     H84582  12.539   1.356   4.146  2.5921 -0.8278 -1.2319
  641MOL0     H84583  12.510   1.486   4.261 -0.3091  0.7220 -1.0003
  641MOL0     H84584  12.776   1.339   4.279 -0.4233 -2.6835 -0.2759
  641MOL0     H84585  12.688   1.408   4.409  1.1691 -0.9581  1.3726
  641MOL0     H84586  12.573   1.182   4.244  1.9883 -0.4865  0.0070
  641MOL0     H84587  12.519   1.239   4.404  0.5866 -0.6845 -0.2068
  641MOL0     H84588  12.645   1.043   4.452  1.8098 -5.1461 -5.4822
  641MOL0     H84589  12.731   1.190   4.494 -2.3084  0.9902  0.1723
  641MOL0     H84590  12.760   1.034   4.236 -0.7086 -0.8360  0.3912
  641MOL0     H84591  12.873   1.165   4.297  1.1881 -0.0494  0.3953
  641MOL0     H84592  12.975   0.927   4.350 -1.1402 -2.1918  0.4647
  641MOL0     H84593  12.845   0.923   4.471  0.9503  1.0866  1.6105
  641MOL0     H84594  12.402   1.761   3.874 -0.2971  0.7039  0.7521
  641MOL0     H84595  12.336   1.873   3.677 -0.6446 -1.2560 -0.6019
  641MOL0     H84596  12.475   2.233   3.404 -1.1258 -1.9504  1.3299
  641MOL0     H84597  12.431   2.385   3.221  0.1411 -0.4449 -0.9110
  641MOL0     H84598  10.667   2.639   2.330 -0.4211 -3.2114 -1.5556
  641MOL0     H84599  10.444   2.617   2.245  1.9366 -1.9556  2.8301
  641MOL0     H84600  10.003   2.759   2.185 -0.2110  0.9863 -0.6602
  641MOL0     H84601   9.779   2.740   2.076  0.6018  0.6669  0.5053
  641MOL0     H84602   9.593   2.756   1.946 -3.5342 -1.9119  0.1017
  641MOL0     H84603   9.647   2.589   1.965 -1.4461  1.5351  0.5756
  641MOL0     H84604   9.480   2.722   1.764  1.5484  0.3430  0.8603
  641MOL0     H84605   9.541   2.562   1.725 -1.6779 -1.5550  0.5575
  641MOL0     H84606   9.289   2.621   1.831  1.2195  1.6926 -1.4267
  641MOL0     H84607   9.379   2.590   1.980  0.5446  0.3532  0.3724
  641MOL0     H84608   9.264   2.383   1.860  0.0324 -0.6451  0.9458
  641MOL0     H84609   9.388   2.402   1.740  1.3010  1.1557  0.2874
  641MOL0     H84610   9.629   2.203   2.010  1.3590  2.0919  0.7349
  641MOL0     H84611   9.977   2.670   1.697  1.4692 -0.1488  0.1595
  641MOL0     H84612  10.195   2.665   1.825 -0.3376  0.8442 -0.5505
  642MOL0     O84613   4.740   4.820   4.237  0.6618  0.6256 -0.4411
  642MOL0     C84614   4.741   4.708   4.295 -0.1063  0.4019  0.1581
  642MOL0     O84615   4.650   4.609   4.270 -0.6467 -0.0021 -0.2428
  642MOL0     C84616   4.546   4.619   4.183 -0.1103 -0.4241  0.4770
  642MOL0     C84617   4.509   4.513   4.104  0.0700 -0.3505  0.8026
  642MOL0     C84618   4.391   4.515   4.027 -0.7983  0.2917  0.7352
  642MOL0     C84619   4.300   4.614   4.043 -0.4718 -1.2084  0.6517
  642MOL0     O84620   4.192   4.620   3.971  1.1573  0.0249  0.3029
  642MOL0     C84621   4.213   4.675   3.838  1.2600  0.2334 -0.7659
  642MOL0     C84622   4.197   4.570   3.745 -0.1164 -0.2623 -0.1989
  642MOL0     C84623   4.285   4.606   3.615  0.3136 -0.6156  0.2836
  642MOL0     C84624   4.315   4.471   3.539  0.2645  0.1984 -0.3404
  642MOL0     C84625   4.448   4.399   3.577 -0.2995  0.7038  0.2405
  642MOL0     C84626   4.475   4.275   3.485  0.5051 -0.6804  0.2385
  642MOL0     C84627   4.507   4.317   3.341  0.2120 -0.2589  0.4055
  642MOL0     C84628   4.507   4.216   3.220  0.5686  0.7131  0.2341
  642MOL0     N84629   4.553   4.283   3.102  0.3719  0.3506 -0.1606
  642MOL0     C84630   4.687   4.267   3.048  0.0795  0.1036 -0.5396
  642MOL0     C84631   4.680   4.323   2.929 -0.1627  0.2561 -0.5569
  642MOL0     C84632   4.796   4.331   2.834 -0.5380  0.4125 -0.6632
  642MOL0     C84633   4.778   4.259   2.698 -0.0562 -0.0212 -0.0431
  642MOL0     C84634   4.890   4.317   2.608 -0.5809 -0.0655  0.9612
  642MOL0     C84635   4.889   4.247   2.467 -0.5733 -0.1516  0.8477
  642MOL0     O84636   4.901   4.101   2.479  0.4094  0.3076  0.5541
  642MOL0     C84637   4.952   4.024   2.377  0.0146  0.3513  0.5107
  642MOL0     C84638   4.976   3.895   2.407 -0.3538 -0.3307 -0.4725
  642MOL0     C84639   5.050   3.814   2.327  0.0211  0.4397 -0.6440
  642MOL0     C84640   5.071   3.854   2.196 -0.4027 -0.1291 -0.7515
  642MOL0     C84641   5.137   3.765   2.106 -0.1520 -1.1307  0.0520
  642MOL0     O84642   5.188   3.654   2.154  0.0286 -0.3818 -0.8784
  642MOL0     C84643   5.315   3.607   2.132 -0.5221 -0.7075 -0.1327
  642MOL0     C84644   5.347   3.476   2.175  0.7009 -0.7493  0.0970
  642MOL0     C84645   5.470   3.419   2.137 -0.1442  0.3833  0.0530
  642MOL0     C84646   5.573   3.502   2.076 -0.3258 -0.2214 -0.3398
  642MOL0     O84647   5.691   3.425   2.036  0.5437  0.2160  0.4139
  642MOL0     C84648   5.795   3.503   1.967  1.0233  0.4282  0.1713
  642MOL0     C84649   5.919   3.422   1.920  0.6468  0.0017  0.2267
  642MOL0     C84650   5.992   3.505   1.817 -0.4257  0.1885  0.2697
  642MOL0     C84651   6.021   3.645   1.861  0.3499 -0.1930 -0.4607
  642MOL0     C84652   6.130   3.717   1.788 -0.3247  0.3983 -0.2095
  642MOL0     C84653   6.122   3.868   1.798 -0.0263  0.1335  0.4276
  642MOL0     C84654   6.218   3.938   1.707 -0.2605 -0.4716  0.1062
  642MOL0     C84655   6.210   4.097   1.699  0.1482 -1.0390 -0.2278
  642MOL0    Cl84656   6.251   4.172   1.862  0.4893 -0.5033  0.1257
  642MOL0     C84657   5.543   3.634   2.043 -0.4597 -0.4752 -0.0331
  642MOL0     C84658   5.418   3.683   2.065 -0.7446 -0.6496 -0.0631
  642MOL0     O84659   5.155   3.804   1.992 -0.2544 -1.0813 -0.1166
  642MOL0     C84660   5.040   3.978   2.155 -0.2074 -0.2304 -0.8320
  642MOL0     C84661   4.992   4.069   2.247  0.3769  0.8322  0.5072
  642MOL0     N84662   4.547   4.374   2.909  0.0082 -0.3890 -0.4959
  642MOL0     N84663   4.469   4.354   3.012  0.4974  0.7080 -0.1258
  642MOL0     C84664   4.335   4.726   4.119 -0.7168  0.6845 -0.0569
  642MOL0     C84665   4.465   4.734   4.179  0.9807  0.4584 -0.6343
  642MOL0     C84666   4.837   4.688   4.404 -0.5068 -0.0807  0.1107
  642MOL0     C84667   4.936   4.780   4.444 -0.6290  0.0745 -0.0315
  642MOL0     C84668   5.036   4.744   4.533  0.2597 -0.1406 -0.8879
  642MOL0     C84669   5.032   4.612   4.598  0.1767 -0.2256  0.2876
  642MOL0     O84670   5.112   4.555   4.700  0.0369 -1.0562  0.0351
  642MOL0     C84671   5.204   4.647   4.767 -0.0284 -0.1912  0.1210
  642MOL0     C84672   5.341   4.647   4.688 -0.0439 -0.4143 -0.3037
  642MOL0     C84673   5.468   4.660   4.768  0.0861 -0.7343 -0.7492
  642MOL0     C84674   5.517   4.810   4.792  0.6956 -0.5578 -0.1444
  642MOL0     C84675   5.444   4.886   4.896  0.4476 -0.3544  0.3460
  642MOL0     C84676   5.388   4.944   4.989  0.2118  0.8737  0.8556
  642MOL0     C84677   4.921   4.525   4.576 -0.1960  0.0977 -1.3579
  642MOL0     C84678   4.833   4.559   4.467 -0.6130 -0.4991 -0.5961
  642MOL0     H84679   4.570   4.424   4.090 -0.2856 -0.5683  0.6431
  642MOL0     H84680   4.387   4.430   3.959  1.1889  1.0245 -0.3711
  642MOL0     H84681   4.312   4.721   3.833  0.2618  2.3662 -2.2553
  642MOL0     H84682   4.137   4.751   3.818 -0.5989 -1.0581  0.9374
  642MOL0     H84683   4.094   4.538   3.727  0.1313 -2.5440  1.8877
  642MOL0     H84684   4.235   4.483   3.800  0.9062 -0.3697 -1.0405
  642MOL0     H84685   4.379   4.655   3.643  0.2078  0.1371 -0.5933
  642MOL0     H84686   4.221   4.677   3.561 -0.9084 -1.0426  1.1260
  642MOL0     H84687   4.238   4.397   3.564 -0.3807  0.7249 -0.7508
  642MOL0     H84688   4.316   4.494   3.432  0.2549  1.0140 -0.1740
  642MOL0     H84689   4.440   4.361   3.680 -0.2566 -0.6163 -0.2186
  642MOL0     H84690   4.534   4.465   3.564 -1.1097  1.4931 -1.2739
  642MOL0     H84691   4.385   4.212   3.492  0.5717 -0.6141  3.3060
  642MOL0     H84692   4.554   4.216   3.532 -0.1030  0.6017  3.0982
  642MOL0     H84693   4.457   4.410   3.312  0.5678  0.2468  1.3395
  642MOL0     H84694   4.610   4.353   3.348  0.1335 -0.1765  5.6830
  642MOL0     H84695   4.407   4.180   3.197  1.6776 -2.7724  0.2813
  642MOL0     H84696   4.569   4.128   3.243  2.1505  1.6361 -0.3304
  642MOL0     H84697   4.759   4.203   3.098 -1.5107 -0.4040  1.2019
  642MOL0     H84698   4.881   4.280   2.881 -0.5281  1.1621  0.1604
  642MOL0     H84699   4.818   4.438   2.825  1.3292 -0.0176 -1.7155
  642MOL0     H84700   4.676   4.286   2.669 -0.5624 -2.9387 -1.2553
  642MOL0     H84701   4.784   4.152   2.718  0.9723 -0.0387 -0.3762
  642MOL0     H84702   4.856   4.415   2.573 -1.3557  0.2127  2.3885
  642MOL0     H84703   4.984   4.311   2.664 -0.8130 -3.5223  1.1624
  642MOL0     H84704   4.978   4.284   2.415 -1.0824 -1.4153 -1.0286
  642MOL0     H84705   4.802   4.266   2.404 -0.5625 -0.9379  0.5846
  642MOL0     H84706   4.940   3.852   2.499  0.2351 -1.9659 -0.9608
  642MOL0     H84707   5.076   3.717   2.368  2.3006  1.8833  1.5972
  642MOL0     H84708   5.279   3.414   2.233  0.2787  1.5472  2.2676
  642MOL0     H84709   5.494   3.317   2.167 -2.1484 -0.3687 -0.7533
  642MOL0     H84710   5.822   3.588   2.031 -4.3527  2.7275 -0.1296
  642MOL0     H84711   5.743   3.551   1.885 -0.3038  0.1642  0.8332
  642MOL0     H84712   5.880   3.328   1.879  0.3108 -0.6961  2.0420
  642MOL0     H84713   5.973   3.391   2.010 -0.5318  2.2371  1.8183
  642MOL0     H84714   5.922   3.522   1.734 -1.7717  0.2558  1.3913
  642MOL0     H84715   6.085   3.458   1.783 -1.2809 -1.0880 -0.3981
  642MOL0     H84716   5.930   3.704   1.845  0.7904 -0.3246 -4.9057
  642MOL0     H84717   6.045   3.631   1.966 -0.7106 -4.0299 -0.5626
  642MOL0     H84718   6.118   3.694   1.682 -2.3980  1.5171 -0.2661
  642MOL0     H84719   6.224   3.680   1.830 -3.1085 -1.3463  5.4391
  642MOL0     H84720   6.146   3.906   1.898  1.0993  0.5670  0.0180
  642MOL0     H84721   6.020   3.901   1.774 -1.9961 -4.3176  1.7628
  642MOL0     H84722   6.318   3.907   1.737 -0.3637 -0.3580  0.5844
  642MOL0     H84723   6.193   3.911   1.604 -2.3059  3.4225 -0.6218
  642MOL0     H84724   6.110   4.119   1.663  0.2275 -0.5776 -0.1704
  642MOL0     H84725   6.284   4.132   1.627  0.1991  0.8471  0.6597
  642MOL0     H84726   5.618   3.691   1.989 -0.0214  1.4857  2.4145
  642MOL0     H84727   5.389   3.781   2.028 -0.3066 -0.4758  0.0395
  642MOL0     H84728   5.076   4.007   2.056 -0.0700 -2.5805 -1.5220
  642MOL0     H84729   4.975   4.166   2.203  1.4611 -0.5803 -3.4447
  642MOL0     H84730   4.271   4.812   4.133 -0.0465  1.1388  0.2326
  642MOL0     H84731   4.489   4.807   4.256  0.2123 -1.9615  2.1065
  642MOL0     H84732   4.936   4.873   4.389 -3.0439 -2.1276 -4.1837
  642MOL0     H84733   5.105   4.826   4.549  0.8742 -0.4969 -1.6526
  642MOL0     H84734   5.223   4.606   4.867  2.0455  2.4790  0.9469
  642MOL0     H84735   5.164   4.748   4.777 -0.2280 -0.4283  2.0125
  642MOL0     H84736   5.344   4.562   4.620 -0.1008  0.2512 -1.1510
  642MOL0     H84737   5.347   4.737   4.626 -0.1939  0.0123  0.2875
  642MOL0     H84738   5.553   4.610   4.721  0.8192 -0.8327  0.6468
  642MOL0     H84739   5.456   4.616   4.867  1.9190  1.7853  0.6950
  642MOL0     H84740   5.619   4.802   4.831  0.1391 -2.3587  1.0761
  642MOL0     H84741   5.518   4.854   4.692 -2.0616  0.6872  0.2722
  642MOL0     H84742   5.337   5.003   5.062  0.5578  0.6433  1.2905
  642MOL0     H84743   4.933   4.426   4.620  3.9197  0.6259 -0.9455
  642MOL0     H84744   4.752   4.489   4.449 -0.5887 -1.1183  1.4691
  643MOL0     O84745   3.198   9.683   0.903 -0.6895  0.1582  0.0734
  643MOL0     C84746   3.125   9.702   1.002 -0.3192  0.8810 -0.3761
  643MOL0     O84747   3.122   9.634   1.128  0.0352  0.0080  0.4979
  643MOL0     C84748   3.166   9.502   1.147 -0.7671 -0.3110  0.3274
  643MOL0     C84749   3.231   9.474   1.277 -0.0057 -0.0814  0.6085
  643MOL0     C84750   3.279   9.345   1.304 -0.5732  0.1264  0.3368
  643MOL0     C84751   3.261   9.241   1.212  0.3013  0.4076  0.2909
  643MOL0     O84752   3.316   9.120   1.256 -0.5622 -0.4641 -0.5799
  643MOL0     C84753   3.302   9.003   1.178  0.1350 -0.0934  0.0663
  643MOL0     C84754   3.162   8.947   1.211  0.6219 -0.6431 -0.8124
  643MOL0     C84755   3.118   8.819   1.143 -0.7742 -1.1301 -1.0633
  643MOL0     C84756   2.975   8.774   1.186  0.0105  1.2751  0.6540
  643MOL0     C84757   2.852   8.863   1.166 -0.1780 -0.9144  0.0659
  643MOL0     C84758   2.814   8.852   1.021  0.3841 -0.6895  0.0165
  643MOL0     C84759   2.711   8.961   0.980  0.5319  0.6115 -0.2856
  643MOL0     C84760   2.638   8.930   0.850  0.7506  0.1866  0.1332
  643MOL0     N84761   2.525   9.030   0.841 -0.2807  0.4336 -0.0316
  643MOL0     C84762   2.390   9.006   0.797 -0.6799  0.8829  0.1067
  643MOL0     C84763   2.327   9.129   0.788 -0.3305 -0.3986  0.6498
  643MOL0     C84764   2.181   9.169   0.765  0.1101 -0.3577 -0.0284
  643MOL0     C84765   2.132   9.170   0.622 -0.3813  0.3493  0.2507
  643MOL0     C84766   1.981   9.116   0.616  0.5243 -0.1828 -0.5582
  643MOL0     C84767   1.947   8.977   0.660  0.5020 -0.0572  0.5204
  643MOL0     O84768   2.043   8.894   0.588  0.9248 -0.0398  0.1350
  643MOL0     C84769   2.125   8.800   0.646 -0.0767  0.0763 -0.0755
  643MOL0     C84770   2.137   8.779   0.789  0.5642 -0.2492  0.2349
  643MOL0     C84771   2.223   8.683   0.837 -0.4169  0.3787  0.0992
  643MOL0     C84772   2.302   8.597   0.755 -0.0938 -0.7881  0.7575
  643MOL0     C84773   2.396   8.508   0.824  1.0503  1.3363 -0.4158
  643MOL0     O84774   2.358   8.453   0.944  0.3380 -1.0633 -0.3307
  643MOL0     C84775   2.462   8.448   1.025 -0.7087  0.4139 -1.0811
  643MOL0     C84776   2.544   8.337   1.024  0.8685  0.3133  0.1462
  643MOL0     C84777   2.656   8.330   1.105 -0.5072 -0.3403 -0.5026
  643MOL0     C84778   2.697   8.438   1.181  0.6686 -0.5116 -0.5489
  643MOL0     O84779   2.804   8.433   1.265  0.9907 -0.3030 -0.2552
  643MOL0     C84780   2.881   8.306   1.271 -0.0441 -0.3046  0.0098
  643MOL0     C84781   2.997   8.336   1.373 -0.0495 -0.5303 -0.3851
  643MOL0     C84782   3.104   8.439   1.333  0.4461 -0.3125 -0.3560
  643MOL0     C84783   3.195   8.474   1.449  0.3209  0.7060  0.5754
  643MOL0     C84784   3.105   8.542   1.556  0.4459  0.5783 -0.6865
  643MOL0     C84785   3.171   8.655   1.637 -0.3166 -1.1358  0.1167
  643MOL0     C84786   3.322   8.673   1.653  0.0485  0.2522  0.5990
  643MOL0     C84787   3.393   8.546   1.709  0.1954 -0.2953 -0.1307
  643MOL0    Cl84788   3.545   8.610   1.787 -0.0896  0.0507  0.4692
  643MOL0     C84789   2.626   8.563   1.174  0.9097  0.5148 -0.4708
  643MOL0     C84790   2.511   8.562   1.097  0.2262 -0.1811 -0.3548
  643MOL0     O84791   2.503   8.492   0.769  0.0243  0.1411  0.4949
  643MOL0     C84792   2.296   8.626   0.619 -0.2199 -0.2923  1.8610
  643MOL0     C84793   2.218   8.731   0.558 -0.2289  0.5204 -0.0567
  643MOL0     N84794   2.428   9.225   0.818 -0.2061 -0.5544 -0.5377
  643MOL0     N84795   2.537   9.166   0.852  0.0215  0.6364 -0.0139
  643MOL0     C84796   3.179   9.271   1.091  0.2041 -0.1878  0.8209
  643MOL0     C84797   3.140   9.399   1.062  0.0644 -0.2044 -0.7856
  643MOL0     C84798   3.021   9.815   0.995 -0.6181 -0.8297  0.3644
  643MOL0     C84799   3.022   9.912   0.897 -0.0949  0.2651 -0.7087
  643MOL0     C84800   2.930  10.015   0.886 -0.0841 -0.5914 -0.1216
  643MOL0     C84801   2.830  10.018   0.982 -0.7046  0.3608 -0.7899
  643MOL0     O84802   2.741  10.125   0.989 -0.0536  0.5645  0.4179
  643MOL0     C84803   2.671  10.173   0.872  0.1057  0.1625 -0.2694
  643MOL0     C84804   2.605  10.290   0.919 -0.6997 -0.3677 -0.2382
  643MOL0     C84805   2.533  10.357   0.802  0.3340  0.3465  0.7366
  643MOL0     C84806   2.427  10.456   0.840  0.6820 -1.6725 -0.3098
  643MOL0     C84807   2.450  10.551   0.951 -0.2179  0.0995 -0.3774
  643MOL0     C84808   2.484  10.625   1.044  0.7441  0.0183  0.0197
  643MOL0     C84809   2.834   9.929   1.089 -0.0909  0.3342  0.4510
  643MOL0     C84810   2.922   9.818   1.089  0.0921 -1.3075 -0.7278
  643MOL0     H84811   3.245   9.549   1.354 -0.9523  0.9353 -0.1802
  643MOL0     H84812   3.341   9.321   1.390 -0.5185  0.4193  0.3797
  643MOL0     H84813   3.378   8.928   1.201  1.6447  0.6832 -2.0594
  643MOL0     H84814   3.326   9.029   1.074  0.9127 -2.0274 -0.2909
  643MOL0     H84815   3.100   9.030   1.177  0.5914  0.2134  1.1741
  643MOL0     H84816   3.160   8.925   1.318  2.5018 -3.9312 -1.3114
  643MOL0     H84817   3.197   8.750   1.173  0.3079  0.8182  0.8367
  643MOL0     H84818   3.108   8.843   1.036  4.0897  0.2714 -1.4392
  643MOL0     H84819   2.942   8.682   1.136  0.0604  1.2312  0.7025
  643MOL0     H84820   2.986   8.743   1.291  0.6471  1.4695  0.6452
  643MOL0     H84821   2.883   8.962   1.201 -2.9267  0.5433 -1.2935
  643MOL0     H84822   2.770   8.840   1.234 -0.6793  5.0121  1.9876
  643MOL0     H84823   2.783   8.752   0.990  1.6981 -2.1989  3.1427
  643MOL0     H84824   2.906   8.873   0.965  0.6856 -0.3675  0.6215
  643MOL0     H84825   2.632   8.971   1.055  0.7589  1.2421 -0.1227
  643MOL0     H84826   2.758   9.060   0.971 -2.8271  2.3641 -0.1291
  643MOL0     H84827   2.613   8.824   0.848  0.2943  0.2999 -0.2844
  643MOL0     H84828   2.705   8.939   0.764 -2.1023  3.7421 -2.0093
  643MOL0     H84829   2.355   8.904   0.783  1.8874 -0.3956  2.2128
  643MOL0     H84830   2.166   9.272   0.797 -2.6144  1.0338 -4.8050
  643MOL0     H84831   2.118   9.107   0.831  0.1788 -1.7236 -1.1864
  643MOL0     H84832   2.192   9.114   0.550 -2.0259 -0.4080 -0.5919
  643MOL0     H84833   2.131   9.266   0.570 -1.7431  1.0827  1.5485
  643MOL0     H84834   1.901   9.177   0.659 -1.2495 -2.5660 -0.2341
  643MOL0     H84835   1.949   9.120   0.511  0.2276 -1.9185 -0.5584
  643MOL0     H84836   1.847   8.952   0.624  0.5702 -2.4162  1.8076
  643MOL0     H84837   1.937   8.961   0.767 -3.3579 -0.4770  0.2174
  643MOL0     H84838   2.081   8.846   0.853  0.7923 -0.3770  0.5725
  643MOL0     H84839   2.238   8.684   0.944 -1.2401  5.3691  0.3835
  643MOL0     H84840   2.520   8.253   0.960 -0.5808 -0.9359  2.2212
  643MOL0     H84841   2.712   8.237   1.096 -0.5980 -0.2985 -1.7432
  643MOL0     H84842   2.913   8.281   1.169 -2.9562 -1.9509 -0.5890
  643MOL0     H84843   2.818   8.223   1.303  0.2736 -0.3168  0.6119
  643MOL0     H84844   3.045   8.243   1.403  1.4546  0.8776  1.7981
  643MOL0     H84845   2.952   8.376   1.464  0.5157 -1.3830  0.2741
  643MOL0     H84846   3.044   8.520   1.290 -1.3901 -1.1836  0.4485
  643MOL0     H84847   3.171   8.391   1.261  2.3872  0.7786  0.6412
  643MOL0     H84848   3.239   8.380   1.486  0.4931  0.5306 -0.0605
  643MOL0     H84849   3.278   8.540   1.423 -0.3695  1.1246 -0.6707
  643MOL0     H84850   3.068   8.474   1.634 -0.0052  3.2887  1.6504
  643MOL0     H84851   3.018   8.592   1.512  1.3895 -0.7339 -4.3603
  643MOL0     H84852   3.124   8.659   1.736 -1.5418  2.2883 -0.4719
  643MOL0     H84853   3.137   8.746   1.588  0.6284 -1.4480 -1.1553
  643MOL0     H84854   3.363   8.714   1.560 -2.7955  3.4415  0.5273
  643MOL0     H84855   3.327   8.757   1.723 -0.4516 -1.1913  2.4323
  643MOL0     H84856   3.409   8.476   1.626 -0.3065 -2.2054  1.3056
  643MOL0     H84857   3.322   8.501   1.778  0.0887  2.8561  2.0094
  643MOL0     H84858   2.637   8.652   1.235 -2.0061  0.9524 -0.4511
  643MOL0     H84859   2.447   8.650   1.096 -3.1638 -2.4621  0.4271
  643MOL0     H84860   2.356   8.566   0.550 -3.8337 -1.5872 -0.4374
  643MOL0     H84861   2.237   8.746   0.452 -1.2229 -2.3593 -0.7429
  643MOL0     H84862   3.154   9.200   1.013 -1.8683  0.6221  0.6629
  643MOL0     H84863   3.083   9.410   0.970 -0.5387 -0.0471 -0.3966
  643MOL0     H84864   3.110   9.908   0.834  1.8405 -1.7482  1.8834
  643MOL0     H84865   2.924  10.097   0.815 -0.6739 -1.8628 -1.6050
  643MOL0     H84866   2.599  10.105   0.827  0.9679 -0.8383 -0.1888
  643MOL0     H84867   2.736  10.202   0.789 -0.1145  1.5119  0.0138
  643MOL0     H84868   2.521  10.273   0.987 -1.9414 -0.9965 -1.8540
  643MOL0     H84869   2.678  10.355   0.969 -0.1020 -1.7749  0.7728
  643MOL0     H84870   2.490  10.281   0.735 -1.4294 -1.1167  3.3352
  643MOL0     H84871   2.607  10.412   0.743 -0.1127  0.0484 -0.1250
  643MOL0     H84872   2.414  10.525   0.756  2.5660 -1.6093 -0.5954
  643MOL0     H84873   2.330  10.407   0.854 -0.4302  0.7361  0.9199
  643MOL0     H84874   2.520  10.689   1.122  2.2832 -1.7224  0.8267
  643MOL0     H84875   2.757   9.933   1.165 -0.8153 -1.9024 -0.0973
  643MOL0     H84876   2.896   9.735   1.153  0.8762 -3.3418 -2.9089
  644MOL0     O84877   6.878   3.901   5.587 -0.7041  0.1631  0.5049
  644MOL0     C84878   6.760   3.920   5.578  0.7421  0.4469 -0.2997
  644MOL0     O84879   6.658   3.840   5.639 -0.3778  0.3497  0.0252
  644MOL0     C84880   6.676   3.747   5.744 -0.2997  0.3548  0.2899
  644MOL0     C84881   6.578   3.648   5.758  0.0106 -0.1683  0.1634
  644MOL0     C84882   6.577   3.571   5.869  0.0476  0.1384 -0.1116
  644MOL0     C84883   6.673   3.587   5.968 -0.2314 -0.4771 -0.8319
  644MOL0     O84884   6.663   3.518   6.082 -0.4122 -0.3977 -0.7025
  644MOL0     C84885   6.790   3.475   6.146  0.2456 -0.3568  1.3758
  644MOL0     C84886   6.758   3.396   6.274 -0.5558  0.2069 -0.2385
  644MOL0     C84887   6.882   3.335   6.330  0.6014 -0.0521 -0.5581
  644MOL0     C84888   6.902   3.184   6.307 -0.2707  0.0828 -0.1829
  644MOL0     C84889   7.035   3.138   6.372 -0.6906  0.8289 -0.1039
  644MOL0     C84890   7.054   2.986   6.367  0.6934  0.1700 -0.4993
  644MOL0     C84891   7.168   2.949   6.454  0.2115 -0.7240  0.6441
  644MOL0     C84892   7.191   2.802   6.465 -0.0698  0.9060 -0.3827
  644MOL0     N84893   7.167   2.713   6.354  0.1490 -0.1185  0.3493
  644MOL0     C84894   7.267   2.643   6.301  0.8453  0.5442  0.2214
  644MOL0     C84895   7.204   2.556   6.213 -0.5323 -0.6780 -0.1910
  644MOL0     C84896   7.258   2.448   6.130 -0.0775  0.4606  0.5480
  644MOL0     C84897   7.165   2.319   6.130  0.8411 -0.5831  0.2166
  644MOL0     C84898   7.220   2.209   6.041  0.7446 -0.1390  0.0023
  644MOL0     C84899   7.293   2.097   6.119  0.1038 -0.9378 -0.6805
  644MOL0     O84900   7.356   1.998   6.036  0.0404 -0.4985  0.4712
  644MOL0     C84901   7.390   1.874   6.070 -0.5297  0.1640 -0.4821
  644MOL0     C84902   7.411   1.774   5.971  0.1030 -1.0087  0.7265
  644MOL0     C84903   7.451   1.643   6.002  0.1058  0.0487  0.0921
  644MOL0     C84904   7.498   1.613   6.129 -0.0158 -0.6047 -0.9913
  644MOL0     C84905   7.547   1.483   6.161 -0.0166  0.0087  1.2984
  644MOL0     O84906   7.583   1.478   6.286 -0.5641 -0.4684 -0.8811
  644MOL0     C84907   7.641   1.371   6.354 -0.2513  0.8086  0.8177
  644MOL0     C84908   7.677   1.399   6.485  0.4743 -0.5517 -0.0190
  644MOL0     C84909   7.732   1.297   6.569 -0.3388 -0.7619 -1.6807
  644MOL0     C84910   7.756   1.175   6.515  0.0573  1.2694 -1.2209
  644MOL0     O84911   7.811   1.084   6.605 -0.4683  0.0198 -0.0277
  644MOL0     C84912   7.917   0.993   6.564  0.4943  0.1986 -0.3371
  644MOL0     C84913   8.006   0.933   6.675 -0.3169  1.0294 -0.0803
  644MOL0     C84914   7.919   0.888   6.790 -0.1879 -0.1002 -0.5453
  644MOL0     C84915   7.991   0.825   6.907 -0.1343 -0.4152  0.3047
  644MOL0     C84916   7.899   0.766   7.016  1.0994 -0.3668  0.2726
  644MOL0     C84917   7.779   0.682   6.968 -0.3180 -0.0018  0.1097
  644MOL0     C84918   7.699   0.631   7.095  0.3730 -0.1552  0.9165
  644MOL0     C84919   7.780   0.548   7.194 -0.1788  0.8364  0.7151
  644MOL0    Cl84920   7.699   0.515   7.344  0.5199 -0.2221  0.4827
  644MOL0     C84921   7.721   1.147   6.380  0.0336 -0.1605 -0.3960
  644MOL0     C84922   7.665   1.242   6.305  0.6002  0.6298  0.6024
  644MOL0     O84923   7.563   1.397   6.079  1.0228  1.2056  0.2254
  644MOL0     C84924   7.473   1.716   6.231 -0.8341  1.3345  0.5093
  644MOL0     C84925   7.420   1.837   6.201 -0.2367 -0.3083  0.6021
  644MOL0     N84926   7.069   2.590   6.207 -0.1046 -0.6339  0.2064
  644MOL0     N84927   7.045   2.681   6.301  0.1996  0.9085  0.4145
  644MOL0     C84928   6.768   3.683   5.954 -0.0839 -0.8487  0.7877
  644MOL0     C84929   6.774   3.765   5.845  0.3152 -0.4976 -0.3857
  644MOL0     C84930   6.707   4.031   5.494  0.5672 -0.0035  0.4556
  644MOL0     C84931   6.782   4.078   5.385  0.2218  0.6897 -0.5341
  644MOL0     C84932   6.727   4.171   5.300  0.1208  0.2762  0.2934
  644MOL0     C84933   6.599   4.236   5.329 -0.3016  0.0304  0.3819
  644MOL0     O84934   6.561   4.344   5.250 -0.3752  0.0813  0.1690
  644MOL0     C84935   6.459   4.432   5.282  0.8088 -0.2864  0.1319
  644MOL0     C84936   6.419   4.531   5.166 -0.3809  0.1072 -0.1989
  644MOL0     C84937   6.274   4.569   5.178  0.7140  0.2262 -0.9691
  644MOL0     C84938   6.246   4.680   5.072  0.1596 -0.6050  0.0490
  644MOL0     C84939   6.276   4.645   4.931  0.7768 -0.3424 -0.0999
  644MOL0     C84940   6.286   4.601   4.812 -0.5797  0.5242 -0.1234
  644MOL0     C84941   6.533   4.189   5.446  0.2680 -0.1928  0.0682
  644MOL0     C84942   6.584   4.091   5.537 -0.0737  1.5015  0.1746
  644MOL0     H84943   6.498   3.648   5.685  1.6564  0.9467 -1.7421
  644MOL0     H84944   6.498   3.496   5.872  0.0005  0.1334 -1.2449
  644MOL0     H84945   6.874   3.544   6.161  5.3591 -5.3505 -0.6523
  644MOL0     H84946   6.825   3.415   6.062 -0.8464  2.0721 -0.9354
  644MOL0     H84947   6.676   3.324   6.284  2.4955 -3.3442  1.5842
  644MOL0     H84948   6.742   3.469   6.355 -0.8767  1.1592 -1.1470
  644MOL0     H84949   6.862   3.345   6.437  2.7674  0.8863 -0.1815
  644MOL0     H84950   6.962   3.405   6.302 -2.6437  3.4300 -2.0680
  644MOL0     H84951   6.820   3.134   6.360 -1.5995 -1.2841 -3.2561
  644MOL0     H84952   6.903   3.152   6.203 -2.2905 -0.3935 -0.0862
  644MOL0     H84953   7.054   3.176   6.472  1.9574 -2.6678  0.8954
  644MOL0     H84954   7.107   3.190   6.308  0.0177  0.6524  0.5313
  644MOL0     H84955   7.066   2.959   6.262  0.0110 -1.1728 -0.2443
  644MOL0     H84956   6.959   2.941   6.396  0.4018  0.9468 -0.2158
  644MOL0     H84957   7.263   2.982   6.411 -1.4123  3.7056  0.0023
  644MOL0     H84958   7.148   2.985   6.556 -0.4842  1.0691 -0.0855
  644MOL0     H84959   7.129   2.765   6.547  1.2226 -3.4049 -1.0893
  644MOL0     H84960   7.298   2.796   6.490  0.6546  4.2549 -2.0501
  644MOL0     H84961   7.365   2.623   6.343 -0.4168 -2.1315  2.2374
  644MOL0     H84962   7.351   2.432   6.185 -1.7927  1.0367  3.8940
  644MOL0     H84963   7.284   2.472   6.027  0.7523 -2.7096 -0.1048
  644MOL0     H84964   7.072   2.345   6.080  2.0984  2.4861 -0.7754
  644MOL0     H84965   7.151   2.283   6.232  1.8174  0.3604  0.6960
  644MOL0     H84966   7.137   2.159   5.990 -1.2466  0.4420  2.4370
  644MOL0     H84967   7.297   2.242   5.971  1.4094 -0.4463  0.5839
  644MOL0     H84968   7.229   2.048   6.194  0.4594  3.2128  2.7252
  644MOL0     H84969   7.368   2.144   6.184 -0.8301  0.2444 -0.4160
  644MOL0     H84970   7.397   1.794   5.866  0.3457 -0.1555  0.8426
  644MOL0     H84971   7.445   1.561   5.931  3.5909 -0.0600 -0.2401
  644MOL0     H84972   7.657   1.501   6.515 -0.0083 -0.1695 -1.5280
  644MOL0     H84973   7.748   1.319   6.674 -1.7865  0.3831 -1.6676
  644MOL0     H84974   7.982   1.045   6.492  0.5406  1.3811  0.5394
  644MOL0     H84975   7.860   0.913   6.516 -0.6103  1.8816 -1.9696
  644MOL0     H84976   8.074   1.013   6.708 -0.2724  1.0849 -0.3073
  644MOL0     H84977   8.068   0.857   6.628  1.3049  1.3023  1.4539
  644MOL0     H84978   7.854   0.809   6.749  0.5416  0.0407 -2.0109
  644MOL0     H84979   7.849   0.966   6.822 -0.9055 -1.1235  0.5039
  644MOL0     H84980   8.042   0.742   6.857  1.4751  2.6337 -3.6557
  644MOL0     H84981   8.071   0.889   6.944 -0.8308  0.4185  0.4047
  644MOL0     H84982   7.856   0.843   7.080  0.2895 -2.2441  2.0790
  644MOL0     H84983   7.966   0.707   7.079 -0.0139  0.9871  2.8442
  644MOL0     H84984   7.815   0.593   6.917  0.1845 -0.0075  0.4643
  644MOL0     H84985   7.714   0.740   6.902 -0.3621 -0.2961 -0.1063
  644MOL0     H84986   7.657   0.721   7.141 -2.7518 -0.8085 -0.4245
  644MOL0     H84987   7.616   0.569   7.059  2.0750 -0.9865 -1.9177
  644MOL0     H84988   7.873   0.600   7.218 -0.6618  1.5882  0.9834
  644MOL0     H84989   7.806   0.450   7.151 -1.0007  1.4454 -1.2585
  644MOL0     H84990   7.721   1.050   6.329 -0.7134  1.0335 -2.8271
  644MOL0     H84991   7.622   1.210   6.211 -3.1471  1.5937  1.8072
  644MOL0     H84992   7.500   1.695   6.334  0.0717 -2.1969 -0.3086
  644MOL0     H84993   7.403   1.919   6.270 -3.6092 -0.8068  0.5014
  644MOL0     H84994   6.836   3.715   6.032 -1.0982  0.2303  1.2501
  644MOL0     H84995   6.850   3.841   5.833  3.4119 -2.8273  2.6245
  644MOL0     H84996   6.879   4.039   5.357  1.9285  2.5530  2.3737
  644MOL0     H84997   6.777   4.215   5.214 -1.0604 -0.8281 -1.0141
  644MOL0     H84998   6.498   4.492   5.365  1.3315 -0.4410  0.0004
  644MOL0     H84999   6.369   4.377   5.308 -0.9672  1.2565 -2.2956
  644MOL0     H85000   6.490   4.615   5.172  1.2587 -1.3208  2.1577
  644MOL0     H85001   6.421   4.481   5.069 -1.9037  0.7748 -0.5986
  644MOL0     H85002   6.266   4.607   5.280  0.4597 -0.7826 -0.6094
  644MOL0     H85003   6.211   4.483   5.155  3.2795 -1.1668 -3.4962
  644MOL0     H85004   6.139   4.704   5.080  0.8887  2.2703  2.5808
  644MOL0     H85005   6.315   4.762   5.093  0.9267 -1.3083  0.2883
  644MOL0     H85006   6.286   4.559   4.713  3.2369 -0.1350  0.0369
  644MOL0     H85007   6.435   4.229   5.469 -0.9593 -1.7939 -2.0647
  644MOL0     H85008   6.525   4.062   5.623 -0.9157  3.2930  0.2614
  645MOL0     O85009   1.130   1.876   9.956  0.3462 -0.2033  0.6964
  645MOL0     C85010   1.192   1.886   9.849 -0.2525  0.4134  0.4446
  645MOL0     O85011   1.163   1.970   9.746  0.1976  0.6996 -0.7985
  645MOL0     C85012   1.040   2.027   9.716  0.0543 -0.3485  0.0129
  645MOL0     C85013   0.926   2.013   9.784 -0.2093  0.4101  0.9188
  645MOL0     C85014   0.812   2.080   9.760  0.1140  0.2170 -0.3043
  645MOL0     C85015   0.803   2.166   9.664  0.4732  0.8601  0.4658
  645MOL0     O85016   0.691   2.241   9.634  0.2956  1.3023 -0.3876
  645MOL0     C85017   0.572   2.199   9.696  0.0924  0.8178  0.2351
  645MOL0     C85018   0.453   2.260   9.609 -0.2681 -0.3904 -0.1005
  645MOL0     C85019   0.327   2.227   9.693  0.4707  0.4041  0.2685
  645MOL0     C85020   0.197   2.261   9.611 -0.0317  0.4254 -1.0031
  645MOL0     C85021   0.087   2.153   9.633 -0.3048  1.3410  1.1016
  645MOL0     C85022  -0.042   2.194   9.573 -0.3135 -0.4996  0.1344
  645MOL0     C85023  -0.060   2.189   9.413 -0.0932  0.6620 -0.3145
  645MOL0     C85024  -0.083   2.055   9.333 -0.7050 -0.6051  0.3280
  645MOL0     N85025   0.024   1.958   9.353  0.3631  0.2236 -0.0172
  645MOL0     C85026   0.156   1.970   9.308 -0.1305 -1.0028  0.2780
  645MOL0     C85027   0.210   1.847   9.343 -0.0541  0.5458  0.5138
  645MOL0     C85028   0.361   1.808   9.311  0.3045 -0.0943 -0.2681
  645MOL0     C85029   0.459   1.832   9.422 -0.1250 -0.8739  0.4946
  645MOL0     C85030   0.597   1.791   9.379  0.4958  0.6259  0.0126
  645MOL0     C85031   0.700   1.811   9.492 -0.0445 -0.3007  0.2285
  645MOL0     O85032   0.688   1.736   9.613  0.0683 -0.6474  0.9759
  645MOL0     C85033   0.803   1.664   9.657 -0.4898 -0.1699  0.3218
  645MOL0     C85034   0.938   1.708   9.641  0.5706  0.0898  0.7482
  645MOL0     C85035   1.038   1.618   9.680  0.3117 -0.3652 -0.4888
  645MOL0     C85036   1.016   1.490   9.736  0.2904 -1.2810  0.0073
  645MOL0     C85037   1.135   1.407   9.766  0.3979  0.0873 -0.0311
  645MOL0     O85038   1.262   1.459   9.731 -0.4654 -0.7762  0.1371
  645MOL0     C85039   1.363   1.402   9.789 -1.0316 -0.1811  0.0038
  645MOL0     C85040   1.467   1.364   9.703  0.9600  0.3984  0.4501
  645MOL0     C85041   1.597   1.319   9.743 -0.0005 -0.6724 -0.2298
  645MOL0     C85042   1.626   1.307   9.881  0.0804  0.3552  0.0214
  645MOL0     O85043   1.752   1.270   9.920  0.1134  0.4918 -1.1292
  645MOL0     C85044   1.786   1.261  10.063 -0.1306 -0.1747  0.4781
  645MOL0     C85045   1.936   1.206  10.056  0.4860 -0.2300  0.5823
  645MOL0     C85046   1.959   1.091   9.960 -0.8921  0.4644  0.4708
  645MOL0     C85047   2.110   1.032   9.973 -0.0926 -0.5470 -0.6435
  645MOL0     C85048   2.129   0.904   9.886  0.0507 -0.3171  0.3696
  645MOL0     C85049   2.135   0.940   9.740 -0.3075 -0.7006  0.2728
  645MOL0     C85050   2.162   0.817   9.656  0.7571  0.0436  0.0912
  645MOL0     C85051   2.059   0.706   9.674  0.7111 -0.5728  0.3361
  645MOL0    Cl85052   2.083   0.562   9.567  0.0848 -0.6222 -0.2887
  645MOL0     C85053   1.522   1.345   9.971  0.2482 -0.3433 -0.2383
  645MOL0     C85054   1.401   1.394   9.924  0.3058  0.6199  0.3334
  645MOL0     O85055   1.120   1.293   9.795 -0.6155  0.1247  0.2390
  645MOL0     C85056   0.886   1.444   9.753 -0.3724 -0.6390  0.2774
  645MOL0     C85057   0.779   1.539   9.716 -0.4328  0.6821  0.4082
  645MOL0     N85058   0.104   1.766   9.381  0.0898  0.4075  0.7896
  645MOL0     N85059   0.001   1.840   9.411 -0.6967 -0.3370  0.2560
  645MOL0     C85060   0.920   2.192   9.589  0.6860  0.2180  0.5457
  645MOL0     C85061   1.035   2.123   9.615 -0.3979 -0.0917 -0.1813
  645MOL0     C85062   1.321   1.827   9.843  0.8238 -0.4167 -0.5436
  645MOL0     C85063   1.405   1.801   9.960 -0.3099 -0.2956  0.1482
  645MOL0     C85064   1.537   1.740   9.944  0.6862 -0.1549  0.3072
  645MOL0     C85065   1.575   1.710   9.816  0.1703  0.2799 -0.5517
  645MOL0     O85066   1.693   1.645   9.803 -0.3449  0.1297  0.1846
  645MOL0     C85067   1.798   1.730   9.748 -0.5309 -0.0824  0.0377
  645MOL0     C85068   1.926   1.700   9.818  0.0794  0.0489 -0.6665
  645MOL0     C85069   2.056   1.758   9.745  0.5226 -1.0131 -0.4001
  645MOL0     C85070   2.186   1.701   9.818  0.6097  1.2164  0.0484
  645MOL0     C85071   2.309   1.776   9.795 -0.0174  0.3040 -0.3991
  645MOL0     C85072   2.418   1.829   9.797 -0.0823  0.3557  1.2605
  645MOL0     C85073   1.496   1.741   9.708 -0.4185  0.4452  0.5423
  645MOL0     C85074   1.372   1.783   9.723 -0.3705 -0.8908  0.6990
  645MOL0     H85075   0.914   1.932   9.855 -0.2436  0.9324  1.5184
  645MOL0     H85076   0.728   2.042   9.818  0.3535 -1.3494 -0.9399
  645MOL0     H85077   0.572   2.246   9.795  4.6275  0.7672  0.4785
  645MOL0     H85078   0.558   2.092   9.709 -1.7024  1.1041  0.9683
  645MOL0     H85079   0.464   2.213   9.510 -0.1910  1.6705 -1.1195
  645MOL0     H85080   0.456   2.366   9.585 -0.0396 -0.8576 -2.3793
  645MOL0     H85081   0.317   2.273   9.792 -2.4194 -0.2522  0.3764
  645MOL0     H85082   0.333   2.118   9.701  2.0829  0.3177 -1.4050
  645MOL0     H85083   0.156   2.355   9.649 -0.3158 -1.7412  5.3523
  645MOL0     H85084   0.217   2.250   9.504  0.5151  0.6873 -0.9289
  645MOL0     H85085   0.078   2.141   9.742 -1.7150 -4.4057  0.6706
  645MOL0     H85086   0.105   2.050   9.603  2.4938  0.3559  5.2890
  645MOL0     H85087  -0.043   2.298   9.605 -1.0284 -1.4468  3.6417
  645MOL0     H85088  -0.128   2.145   9.620 -1.2747  0.8447 -0.1750
  645MOL0     H85089  -0.150   2.241   9.379  0.0891 -0.2060 -2.2146
  645MOL0     H85090   0.023   2.250   9.374  2.6476 -2.7160 -0.2984
  645MOL0     H85091  -0.091   2.084   9.228  0.0999 -0.3780  0.3171
  645MOL0     H85092  -0.181   2.012   9.354 -0.8850 -0.7724 -0.8008
  645MOL0     H85093   0.207   2.062   9.280  0.3545 -0.3271  3.0267
  645MOL0     H85094   0.396   1.856   9.219 -0.0621 -1.2048 -1.0153
  645MOL0     H85095   0.369   1.702   9.282  3.2183  0.5045 -2.1023
  645MOL0     H85096   0.427   1.768   9.505 -0.0448 -0.6368  0.7074
  645MOL0     H85097   0.458   1.939   9.444 -0.1961 -0.4288 -1.4555
  645MOL0     H85098   0.587   1.684   9.356  0.4685  0.8151 -0.8799
  645MOL0     H85099   0.627   1.838   9.285  3.5089 -0.9636  0.0409
  645MOL0     H85100   0.708   1.915   9.526  3.0825 -1.1737  2.6038
  645MOL0     H85101   0.797   1.784   9.449  0.0581 -2.1579  1.5347
  645MOL0     H85102   0.969   1.790   9.578 -2.7453 -1.7643 -3.8253
  645MOL0     H85103   1.140   1.651   9.661  0.2342  0.2068  0.0535
  645MOL0     H85104   1.435   1.376   9.600 -1.0912 -1.6094  0.7621
  645MOL0     H85105   1.670   1.308   9.663 -1.8562 -1.6164 -1.8848
  645MOL0     H85106   1.738   1.186  10.125 -0.0393  0.7359  1.6725
  645MOL0     H85107   1.767   1.357  10.112 -2.4824 -0.3550  0.0230
  645MOL0     H85108   1.970   1.187  10.159  1.5400 -2.1208 -0.0682
  645MOL0     H85109   2.000   1.288  10.022 -1.3683  0.4023 -1.6028
  645MOL0     H85110   1.940   1.130   9.860 -0.4905  2.6039  1.1686
  645MOL0     H85111   1.900   1.002   9.983 -2.6671  0.7470 -2.5134
  645MOL0     H85112   2.183   1.109   9.944 -0.8453  0.5971  0.3633
  645MOL0     H85113   2.124   1.006  10.079 -1.1756  1.3774  0.0174
  645MOL0     H85114   2.044   0.846   9.920  1.0281 -2.6772 -0.9801
  645MOL0     H85115   2.225   0.855   9.906  2.6495  5.1511  4.0782
  645MOL0     H85116   2.197   1.029   9.722 -1.4144  0.4539  1.8925
  645MOL0     H85117   2.035   0.970   9.706 -0.6211  0.3633  2.0116
  645MOL0     H85118   2.157   0.847   9.551  1.8505 -1.5231 -0.4525
  645MOL0     H85119   2.258   0.777   9.691  1.2602 -1.3131 -2.6094
  645MOL0     H85120   1.959   0.746   9.655  1.6210  0.2575 -3.3111
  645MOL0     H85121   2.060   0.668   9.777  1.8929  0.0769  0.5804
  645MOL0     H85122   1.532   1.317  10.075 -2.1685 -0.4177  0.0320
  645MOL0     H85123   1.325   1.437   9.989 -0.9708 -0.5783 -0.3043
  645MOL0     H85124   0.880   1.343   9.794  2.6017 -1.2756 -0.6226
  645MOL0     H85125   0.677   1.503   9.728  0.7906 -3.7446 -0.6741
  645MOL0     H85126   0.911   2.255   9.501 -2.4405 -3.6870 -2.3022
  645MOL0     H85127   1.114   2.151   9.545  0.3834  0.0368  0.7360
  645MOL0     H85128   1.365   1.838  10.053 -0.7011 -1.4324  0.4415
  645MOL0     H85129   1.589   1.719  10.037 -0.7034  1.4375  1.5087
  645MOL0     H85130   1.779   1.837   9.755  0.2004 -0.0735  3.6681
  645MOL0     H85131   1.801   1.697   9.643  0.8915  0.3920 -0.0942
  645MOL0     H85132   1.920   1.731   9.923 -4.6630 -1.9571 -0.0484
  645MOL0     H85133   1.940   1.591   9.828  2.9430  0.4582  0.7834
  645MOL0     H85134   2.055   1.867   9.757  1.7650 -1.1753  1.7920
  645MOL0     H85135   2.050   1.733   9.639 -0.8459 -0.4967 -0.4624
  645MOL0     H85136   2.165   1.689   9.925 -0.6382 -1.7831 -0.4167
  645MOL0     H85137   2.201   1.605   9.768 -0.3973  1.3901 -0.6093
  645MOL0     H85138   2.515   1.874   9.809  0.1347  0.6008 -1.0340
  645MOL0     H85139   1.533   1.719   9.609 -0.4682  3.1227 -0.1585
  645MOL0     H85140   1.323   1.804   9.628  1.7278  1.9980  0.1075
  646MOL0     O85141   2.435   1.944   0.173 -0.4078  0.1692 -0.5547
  646MOL0     C85142   2.547   1.926   0.222 -0.8970 -0.1681  0.2529
  646MOL0     O85143   2.616   1.805   0.204  0.7329 -0.6504  0.5462
  646MOL0     C85144   2.552   1.720   0.110 -0.3680 -0.2209 -0.2325
  646MOL0     C85145   2.430   1.649   0.137 -0.3510  0.1927 -1.0903
  646MOL0     C85146   2.395   1.540   0.054  0.9210 -0.4815 -0.4327
  646MOL0     C85147   2.448   1.526  -0.070 -0.2164  0.6995 -0.1778
  646MOL0     O85148   2.417   1.427  -0.156 -0.2025 -0.1487  0.2557
  646MOL0     C85149   2.286   1.379  -0.189  0.2563 -0.5839  0.1404
  646MOL0     C85150   2.294   1.293  -0.313 -0.4926 -0.6628 -0.7561
  646MOL0     C85151   2.164   1.271  -0.387  0.1905  0.2447  0.6906
  646MOL0     C85152   2.049   1.206  -0.305 -0.2138  0.5297  0.9356
  646MOL0     C85153   1.909   1.217  -0.357  0.9136  0.2929 -0.3593
  646MOL0     C85154   1.893   1.142  -0.482  0.1276  0.1434  0.2082
  646MOL0     C85155   1.751   1.135  -0.536 -0.6338  0.0234 -0.0093
  646MOL0     C85156   1.699   1.285  -0.572 -0.6741  0.3625 -0.0163
  646MOL0     N85157   1.562   1.291  -0.623  0.7091  0.1024 -0.1938
  646MOL0     C85158   1.522   1.400  -0.695  0.1155  0.4677  0.8565
  646MOL0     C85159   1.378   1.386  -0.698 -0.2353  0.5186  0.8357
  646MOL0     C85160   1.293   1.477  -0.771  0.4182  0.1340  1.4564
  646MOL0     C85161   1.205   1.564  -0.681 -0.5026 -0.4160  0.1384
  646MOL0     C85162   1.092   1.635  -0.762 -0.3791  0.8271 -0.5207
  646MOL0     C85163   1.052   1.760  -0.692  0.5283 -0.6359 -0.1864
  646MOL0     O85164   0.927   1.800  -0.738 -0.3661  0.2824  0.1390
  646MOL0     C85165   0.855   1.905  -0.677  0.5914 -0.3290 -0.8037
  646MOL0     C85166   0.715   1.917  -0.699 -0.3111  0.0513 -0.7856
  646MOL0     C85167   0.643   2.031  -0.666  0.9754  0.5134 -0.2631
  646MOL0     C85168   0.699   2.127  -0.590  1.0727 -0.1797  0.2014
  646MOL0     C85169   0.621   2.241  -0.536 -0.2593 -0.5120  0.2013
  646MOL0     O85170   0.496   2.255  -0.586  0.0068  0.5026 -0.2347
  646MOL0     C85171   0.449   2.379  -0.587  0.8597 -0.3642  1.1386
  646MOL0     C85172   0.314   2.395  -0.539  0.6022 -0.7160  0.1501
  646MOL0     C85173   0.266   2.528  -0.517 -0.4693 -0.3893 -0.4334
  646MOL0     C85174   0.352   2.637  -0.533 -0.8081  0.8187  0.0518
  646MOL0     O85175   0.310   2.756  -0.486  0.0882  0.4425  0.2982
  646MOL0     C85176   0.355   2.868  -0.562 -0.2717 -0.0586 -0.5969
  646MOL0     C85177   0.476   2.932  -0.500  0.1429  0.2492 -0.4611
  646MOL0     C85178   0.425   3.038  -0.396  0.3845  0.3855  0.9542
  646MOL0     C85179   0.538   3.113  -0.324  0.0401 -0.1340  0.1191
  646MOL0     C85180   0.464   3.203  -0.209 -0.2419  0.3917  0.7804
  646MOL0     C85181   0.540   3.195  -0.080 -0.1555  0.0620  1.0410
  646MOL0     C85182   0.467   3.280   0.027  0.0883  0.2572  0.6056
  646MOL0     C85183   0.456   3.216   0.159  1.0625 -1.0657  0.1135
  646MOL0    Cl85184   0.617   3.206   0.242 -0.4312 -0.4171  0.3139
  646MOL0     C85185   0.475   2.616  -0.599  0.2107  0.5143 -0.2156
  646MOL0     C85186   0.520   2.492  -0.634 -0.3298 -0.4029  0.6567
  646MOL0     O85187   0.682   2.332  -0.476 -0.3025  0.4709  0.3617
  646MOL0     C85188   0.838   2.112  -0.550 -0.5675 -0.1973 -0.5481
  646MOL0     C85189   0.906   1.991  -0.585 -0.1951 -0.4376  0.3065
  646MOL0     N85190   1.344   1.264  -0.629  0.4198 -0.4114 -0.0657
  646MOL0     N85191   1.454   1.222  -0.580  0.3386 -0.0621 -0.2457
  646MOL0     C85192   2.581   1.582  -0.095  0.6476 -0.2862  0.1279
  646MOL0     C85193   2.630   1.674   0.003  0.3172 -0.2997 -0.4590
  646MOL0     C85194   2.609   2.029   0.301 -0.7525  0.9068  0.0288
  646MOL0     C85195   2.549   2.156   0.298  0.5153  0.1004  0.5878
  646MOL0     C85196   2.605   2.267   0.360 -0.1198 -0.1381 -0.1141
  646MOL0     C85197   2.725   2.243   0.419 -0.1774  0.1044  0.3411
  646MOL0     O85198   2.776   2.355   0.481  0.4970 -0.3897 -0.1067
  646MOL0     C85199   2.899   2.348   0.546  0.2056 -0.0083 -0.1145
  646MOL0     C85200   2.960   2.489   0.560 -1.3319 -0.0425 -0.0303
  646MOL0     C85201   3.094   2.487   0.636  0.2212  0.4441 -0.2281
  646MOL0     C85202   3.144   2.632   0.650  0.0673 -0.1208 -0.3333
  646MOL0     C85203   3.057   2.713   0.737 -0.9641 -0.2901 -0.5700
  646MOL0     C85204   3.000   2.797   0.811 -0.2600 -0.9197  0.4194
  646MOL0     C85205   2.783   2.113   0.435  0.2538 -0.5636 -0.5999
  646MOL0     C85206   2.726   2.007   0.373  1.2121 -0.8241 -0.7869
  646MOL0     H85207   2.384   1.665   0.234  0.4170 -0.4416 -0.6126
  646MOL0     H85208   2.325   1.464   0.088  2.5503 -2.3242 -1.0464
  646MOL0     H85209   2.215   1.458  -0.212  1.7200  1.0063  0.8467
  646MOL0     H85210   2.246   1.305  -0.119 -1.4670 -1.8899 -2.0884
  646MOL0     H85211   2.336   1.198  -0.279 -0.4858 -0.0244  1.1765
  646MOL0     H85212   2.372   1.346  -0.368 -0.5100  2.0670  1.5872
  646MOL0     H85213   2.190   1.212  -0.475 -0.0168 -1.5865  1.7963
  646MOL0     H85214   2.121   1.366  -0.422 -0.8237 -0.3501  0.2724
  646MOL0     H85215   2.062   1.098  -0.301  0.9690  0.6799  1.5676
  646MOL0     H85216   2.046   1.248  -0.205 -1.6169 -2.7451  2.4039
  646MOL0     H85217   1.888   1.325  -0.357 -1.2497  0.0097  2.7464
  646MOL0     H85218   1.843   1.167  -0.286  0.6246  2.9864  1.3961
  646MOL0     H85219   1.931   1.041  -0.467 -0.1857 -0.0793 -0.4396
  646MOL0     H85220   1.954   1.183  -0.564 -0.5523 -3.6184 -2.4491
  646MOL0     H85221   1.749   1.072  -0.625 -0.1528 -0.7778  0.5476
  646MOL0     H85222   1.683   1.088  -0.465  2.0707  1.1989  3.6454
  646MOL0     H85223   1.774   1.330  -0.638  0.2579 -1.6564 -0.4313
  646MOL0     H85224   1.693   1.340  -0.478  3.0581  2.1989 -0.6675
  646MOL0     H85225   1.576   1.490  -0.723 -2.7804  1.5684 -1.7670
  646MOL0     H85226   1.229   1.418  -0.838  1.4096  2.4340 -1.7347
  646MOL0     H85227   1.356   1.544  -0.831 -1.9090  0.7549 -0.4180
  646MOL0     H85228   1.270   1.644  -0.646 -0.6582 -0.2776  0.1105
  646MOL0     H85229   1.164   1.512  -0.593  1.2316 -1.9980  0.0746
  646MOL0     H85230   1.116   1.670  -0.863 -1.4346  0.8969 -0.7633
  646MOL0     H85231   1.013   1.560  -0.761 -0.0905  0.5024 -1.2527
  646MOL0     H85232   1.129   1.831  -0.724 -0.0801  0.1951  0.1396
  646MOL0     H85233   1.044   1.740  -0.585  0.5313 -0.0680 -0.0749
  646MOL0     H85234   0.670   1.839  -0.760 -1.6474  1.0162 -1.0747
  646MOL0     H85235   0.536   2.027  -0.682  0.8567 -0.9660  0.7388
  646MOL0     H85236   0.254   2.316  -0.496 -0.9601  1.1412  1.5682
  646MOL0     H85237   0.178   2.536  -0.454 -0.0134 -2.7094  0.6014
  646MOL0     H85238   0.277   2.945  -0.553  0.2634  0.3773  0.3949
  646MOL0     H85239   0.376   2.843  -0.667  1.4304  0.2502 -0.3598
  646MOL0     H85240   0.534   2.992  -0.571 -1.6529  1.7418 -0.7299
  646MOL0     H85241   0.540   2.860  -0.448 -1.4820 -0.6890  0.3468
  646MOL0     H85242   0.360   2.990  -0.323  0.1180  1.2215  1.2901
  646MOL0     H85243   0.366   3.111  -0.453  2.0197  0.9042 -0.1593
  646MOL0     H85244   0.614   3.041  -0.293 -0.7060 -1.8334 -1.7229
  646MOL0     H85245   0.591   3.166  -0.404  1.0304 -1.2701 -0.0074
  646MOL0     H85246   0.361   3.169  -0.207 -0.1215 -0.9440 -3.8884
  646MOL0     H85247   0.463   3.307  -0.243  1.3672  0.4407  0.7611
  646MOL0     H85248   0.640   3.237  -0.096 -0.7457  1.6313  1.2895
  646MOL0     H85249   0.554   3.093  -0.045 -3.3747 -0.5504  0.8031
  646MOL0     H85250   0.521   3.375   0.027 -0.7214  0.7221  0.8320
  646MOL0     H85251   0.363   3.289  -0.003  0.1534  3.0389  0.9360
  646MOL0     H85252   0.407   3.119   0.148 -0.8404 -0.3053  1.4058
  646MOL0     H85253   0.392   3.278   0.222  1.4883 -1.5573  1.0652
  646MOL0     H85254   0.536   2.700  -0.630  2.9419 -0.2453  2.5554
  646MOL0     H85255   0.608   2.471  -0.693  0.3361 -1.9081  2.1078
  646MOL0     H85256   0.886   2.178  -0.479 -2.6821 -1.0718  1.8744
  646MOL0     H85257   1.004   1.968  -0.542  0.1999  0.4130 -0.1215
  646MOL0     H85258   2.644   1.557  -0.179 -1.3994  0.4507 -1.7052
  646MOL0     H85259   2.725   1.727  -0.008 -0.4467  1.8300  2.1651
  646MOL0     H85260   2.455   2.175   0.246  1.6422  0.8364 -1.2955
  646MOL0     H85261   2.552   2.361   0.356  1.4798  0.7370 -2.1530
  646MOL0     H85262   2.968   2.284   0.490  0.2590  0.0976 -0.1707
  646MOL0     H85263   2.882   2.307   0.645  0.7931 -1.7594 -0.6961
  646MOL0     H85264   2.972   2.546   0.467  3.8359  2.7787  1.9195
  646MOL0     H85265   2.882   2.537   0.620 -2.0782 -0.7963 -0.3815
  646MOL0     H85266   3.172   2.441   0.575  1.6042  1.6460  0.5783
  646MOL0     H85267   3.079   2.433   0.730  0.4772  2.5920  1.1279
  646MOL0     H85268   3.243   2.632   0.697 -0.2462 -1.5728  0.3929
  646MOL0     H85269   3.165   2.673   0.551  4.1085  0.7773  0.7165
  646MOL0     H85270   2.951   2.863   0.880  1.0214 -1.0597  1.4940
  646MOL0     H85271   2.869   2.092   0.498  0.8642  3.1954  0.0220
  646MOL0     H85272   2.772   1.910   0.361  0.7578 -1.5930  2.7138
  647MOL0     O85273   8.372   7.487   3.696 -0.3050  1.2866 -0.5868
  647MOL0     C85274   8.377   7.534   3.818  0.2493 -0.5306  0.5294
  647MOL0     O85275   8.484   7.570   3.890 -0.2567 -0.1834  0.9273
  647MOL0     C85276   8.603   7.580   3.832 -1.2236  0.2832  0.2818
  647MOL0     C85277   8.629   7.620   3.699 -0.4636  0.2550 -0.5670
  647MOL0     C85278   8.761   7.642   3.655  1.4842  0.3059  0.3989
  647MOL0     C85279   8.863   7.608   3.736 -0.2512 -0.4882  1.0072
  647MOL0     O85280   8.997   7.604   3.694 -0.4594 -0.1816 -0.4707
  647MOL0     C85281   9.021   7.568   3.555 -0.2527 -0.1750  0.7270
  647MOL0     C85282   9.119   7.453   3.559  0.9388  0.1799  1.3958
  647MOL0     C85283   9.244   7.492   3.625  0.0626 -0.2282 -1.2382
  647MOL0     C85284   9.349   7.383   3.618 -0.3779 -0.3726 -1.0647
  647MOL0     C85285   9.483   7.416   3.684 -0.1531 -0.0772 -0.5862
  647MOL0     C85286   9.467   7.411   3.842  0.6420 -1.0240  0.6303
  647MOL0     C85287   9.610   7.390   3.885 -0.1016  0.2559 -0.8641
  647MOL0     C85288   9.620   7.378   4.032 -0.3312 -0.7281 -0.3288
  647MOL0     N85289   9.599   7.515   4.097  0.4290 -0.0565 -0.4166
  647MOL0     C85290   9.480   7.583   4.110 -0.2735  0.1884  0.6692
  647MOL0     C85291   9.511   7.690   4.182 -0.6022  0.0321 -0.0528
  647MOL0     C85292   9.410   7.781   4.250  0.1017  0.5552 -0.1750
  647MOL0     C85293   9.290   7.706   4.302  0.3351 -0.6480 -0.5275
  647MOL0     C85294   9.312   7.595   4.404 -0.0256  0.1715 -0.0694
  647MOL0     C85295   9.187   7.509   4.425 -0.4119  0.6726  0.4609
  647MOL0     O85296   9.120   7.471   4.297  0.2041  0.1909  0.4679
  647MOL0     C85297   9.165   7.358   4.227 -0.4310 -0.0063  0.3161
  647MOL0     C85298   9.261   7.260   4.265 -0.3669  0.7232 -0.6383
  647MOL0     C85299   9.297   7.153   4.179 -0.3255  0.0031 -0.4754
  647MOL0     C85300   9.239   7.146   4.048 -0.7116 -0.2241  0.4366
  647MOL0     C85301   9.284   7.051   3.949 -0.4125  0.2185  0.0258
  647MOL0     O85302   9.422   7.032   3.948  0.3208 -0.1128  0.3653
  647MOL0     C85303   9.502   6.974   3.850 -0.1532  1.8860 -0.4005
  647MOL0     C85304   9.637   6.979   3.873  0.0542  0.4331 -0.9644
  647MOL0     C85305   9.736   6.930   3.791 -0.2900  0.5909 -0.0574
  647MOL0     C85306   9.694   6.847   3.677 -0.0085 -0.3105 -0.1941
  647MOL0     O85307   9.773   6.783   3.584  0.3935 -0.4636  0.1386
  647MOL0     C85308   9.908   6.823   3.589  0.2717  0.2163  0.7637
  647MOL0     C85309   9.982   6.769   3.460 -0.4542 -0.2311  0.3079
  647MOL0     C85310  10.129   6.822   3.453  0.6830  0.0141 -0.0403
  647MOL0     C85311  10.207   6.758   3.338 -0.4537 -0.7230 -0.3748
  647MOL0     C85312  10.346   6.809   3.332 -0.4499  1.5312  0.5588
  647MOL0     C85313  10.438   6.768   3.449  0.2052  0.2265  0.4043
  647MOL0     C85314  10.584   6.789   3.395 -0.2898  0.1735 -0.5412
  647MOL0     C85315  10.692   6.748   3.494  0.6212  0.5334  1.4190
  647MOL0    Cl85316  10.846   6.812   3.441 -0.0624  0.4470  0.0214
  647MOL0     C85317   9.559   6.833   3.658 -0.3793 -0.5846 -0.1820
  647MOL0     C85318   9.461   6.908   3.731 -0.7867  0.8388  0.1213
  647MOL0     O85319   9.201   7.008   3.872 -0.5532 -0.5701  0.0510
  647MOL0     C85320   9.140   7.243   4.011  0.4321 -0.4558  0.1606
  647MOL0     C85321   9.109   7.351   4.097  0.4465 -0.0323 -0.3693
  647MOL0     N85322   9.640   7.698   4.203  0.3621 -0.4671 -0.1834
  647MOL0     N85323   9.690   7.590   4.155 -0.0457  0.0384 -0.3841
  647MOL0     C85324   8.848   7.577   3.870  0.0630 -0.2958 -0.5428
  647MOL0     C85325   8.716   7.559   3.916 -0.4975  0.3063  0.0082
  647MOL0     C85326   8.249   7.555   3.894 -0.1765  0.4200  0.7220
  647MOL0     C85327   8.256   7.599   4.028  0.9345 -0.2298 -0.1963
  647MOL0     C85328   8.139   7.616   4.100  0.2387  0.7002  0.1911
  647MOL0     C85329   8.009   7.590   4.049 -0.3158  0.4137 -0.1309
  647MOL0     O85330   7.889   7.598   4.111 -0.4076 -0.6676  0.0458
  647MOL0     C85331   7.891   7.631   4.247 -0.2295  0.9593 -0.2981
  647MOL0     C85332   7.763   7.605   4.319 -0.7487 -0.3811  0.4161
  647MOL0     C85333   7.645   7.705   4.285 -0.2799  0.9570 -0.5401
  647MOL0     C85334   7.528   7.662   4.374  0.1090 -0.2101 -0.0470
  647MOL0     C85335   7.556   7.644   4.520 -0.2142 -0.3692  0.8955
  647MOL0     C85336   7.586   7.623   4.634  0.0196 -1.5568 -0.7578
  647MOL0     C85337   8.003   7.550   3.913 -0.3982  0.4747  0.6431
  647MOL0     C85338   8.115   7.530   3.841 -0.2310  0.0906 -0.7083
  647MOL0     H85339   8.550   7.662   3.636 -1.2921  0.5975  0.6639
  647MOL0     H85340   8.760   7.656   3.547 -1.6626  1.8399  0.5283
  647MOL0     H85341   9.065   7.652   3.500 -1.1203  1.8914  3.0074
  647MOL0     H85342   8.933   7.533   3.499  0.2249 -0.5805  0.2195
  647MOL0     H85343   9.148   7.408   3.463  0.5251 -3.4385  2.8257
  647MOL0     H85344   9.069   7.374   3.615  1.6076 -1.9595 -0.8362
  647MOL0     H85345   9.221   7.513   3.730  0.2540 -0.6759 -1.1053
  647MOL0     H85346   9.283   7.582   3.576 -0.4812 -0.3783 -1.9684
  647MOL0     H85347   9.304   7.290   3.652 -1.4953 -0.5892 -2.9569
  647MOL0     H85348   9.367   7.361   3.512  1.7720 -2.7613 -0.3107
  647MOL0     H85349   9.507   7.517   3.651 -0.5521 -0.6515 -2.8189
  647MOL0     H85350   9.556   7.346   3.643 -1.5853 -0.1288 -3.2772
  647MOL0     H85351   9.401   7.329   3.873 -0.6585  0.3256  1.5999
  647MOL0     H85352   9.427   7.510   3.865 -2.3387 -1.0472 -3.3857
  647MOL0     H85353   9.659   7.307   3.834 -1.1113 -0.8107 -0.1769
  647MOL0     H85354   9.674   7.475   3.860 -0.7050  0.9014 -0.2734
  647MOL0     H85355   9.723   7.342   4.041 -0.1217 -1.4655 -4.1737
  647MOL0     H85356   9.552   7.304   4.074 -0.6693  1.1642  2.8095
  647MOL0     H85357   9.387   7.550   4.064  0.4119  0.9597 -1.4079
  647MOL0     H85358   9.367   7.842   4.170  1.9965  1.2865 -0.6859
  647MOL0     H85359   9.457   7.839   4.329  3.1176 -2.6046  0.5595
  647MOL0     H85360   9.245   7.651   4.220 -1.2922  0.4714 -0.4436
  647MOL0     H85361   9.216   7.778   4.340  0.3235 -1.5891  1.3645
  647MOL0     H85362   9.386   7.526   4.363 -0.7348  0.9345 -2.7859
  647MOL0     H85363   9.350   7.628   4.501 -1.4681  0.0310  0.5803
  647MOL0     H85364   9.115   7.561   4.489 -1.6059 -0.8820  0.4349
  647MOL0     H85365   9.215   7.426   4.490  0.6221  0.3521 -0.3676
  647MOL0     H85366   9.297   7.259   4.368 -0.7243  0.0402 -0.5121
  647MOL0     H85367   9.366   7.085   4.227  2.1677  3.0115  0.5839
  647MOL0     H85368   9.651   7.033   3.966 -2.7916 -1.2059  0.5596
  647MOL0     H85369   9.832   6.946   3.840 -1.7786 -1.0540  3.8255
  647MOL0     H85370   9.954   6.779   3.679 -0.2621  0.5069  1.1861
  647MOL0     H85371   9.918   6.932   3.589  3.4000  0.1114  3.5456
  647MOL0     H85372   9.933   6.807   3.370 -0.3416  2.6544  1.3593
  647MOL0     H85373   9.985   6.660   3.462  0.3409 -0.2080  1.2534
  647MOL0     H85374  10.180   6.808   3.549 -3.5260 -3.2448  2.0567
  647MOL0     H85375  10.111   6.929   3.439 -1.6594 -0.4377 -0.8965
  647MOL0     H85376  10.196   6.650   3.336  1.6817 -0.9806 -0.5943
  647MOL0     H85377  10.170   6.784   3.238 -2.3969 -1.4647  0.1083
  647MOL0     H85378  10.349   6.918   3.338  0.5307  1.5201  0.3397
  647MOL0     H85379  10.375   6.768   3.234 -1.4154 -3.0666  1.9408
  647MOL0     H85380  10.415   6.665   3.479  2.7635 -0.7506 -0.6730
  647MOL0     H85381  10.420   6.833   3.535  3.8366  2.1728 -0.1234
  647MOL0     H85382  10.606   6.736   3.302 -0.0401 -2.1636  0.7761
  647MOL0     H85383  10.596   6.897   3.378  3.2094  0.6422  3.2788
  647MOL0     H85384  10.700   6.639   3.508 -2.5418 -0.0287 -0.2604
  647MOL0     H85385  10.669   6.792   3.592 -2.7087 -2.1518  2.0598
  647MOL0     H85386   9.527   6.758   3.586  1.1618 -1.6292  0.1816
  647MOL0     H85387   9.359   6.898   3.695 -1.2317  1.0092  1.2755
  647MOL0     H85388   9.088   7.231   3.917 -0.3381 -1.9581  0.7500
  647MOL0     H85389   9.033   7.426   4.077  0.1215 -0.7586 -1.9542
  647MOL0     H85390   8.925   7.537   3.935 -1.2736 -1.5746  0.3153
  647MOL0     H85391   8.703   7.518   4.016 -0.4709 -3.9406 -1.5114
  647MOL0     H85392   8.345   7.642   4.071 -0.5283  3.1980 -0.2773
  647MOL0     H85393   8.157   7.661   4.198  2.3185 -3.2644  1.8757
  647MOL0     H85394   7.941   7.729   4.248 -0.2534  0.9738 -0.4333
  647MOL0     H85395   7.964   7.566   4.296  4.1427  4.2752 -1.7532
  647MOL0     H85396   7.740   7.498   4.314 -2.5749  0.0042  0.0110
  647MOL0     H85397   7.788   7.625   4.424  2.0100 -1.9394  0.1566
  647MOL0     H85398   7.625   7.704   4.177 -0.2975  3.4717 -0.6331
  647MOL0     H85399   7.678   7.805   4.316  0.3877 -0.1324  2.6554
  647MOL0     H85400   7.450   7.738   4.380  0.7989  0.5012  0.2198
  647MOL0     H85401   7.492   7.571   4.326  2.4906 -0.4168 -1.6141
  647MOL0     H85402   7.633   7.606   4.728  1.2864 -0.4976 -1.1600
  647MOL0     H85403   7.911   7.502   3.881  0.7173 -0.2379 -1.7157
  647MOL0     H85404   8.109   7.479   3.745 -1.1448 -3.9732  1.2641
  648MOL0     O85405   1.493   3.514   7.676  0.2112 -0.0622  0.2526
  648MOL0     C85406   1.576   3.477   7.589  0.9089 -0.0065 -0.2307
  648MOL0     O85407   1.595   3.345   7.555 -0.0791 -0.1149  0.2253
  648MOL0     C85408   1.491   3.265   7.610 -0.9960 -0.2220 -0.5813
  648MOL0     C85409   1.510   3.210   7.735  0.4201 -0.8038 -0.7883
  648MOL0     C85410   1.401   3.126   7.784 -0.0559 -0.8332 -0.4669
  648MOL0     C85411   1.290   3.095   7.713  0.3128  0.3399  0.3038
  648MOL0     O85412   1.190   3.020   7.766  0.4794  0.1266  0.3341
  648MOL0     C85413   1.151   3.018   7.908 -0.6971 -0.6755  0.5002
  648MOL0     C85414   1.184   2.891   7.988 -0.0183  0.0893  0.2077
  648MOL0     C85415   1.144   2.905   8.140  0.3829 -0.3660 -0.7077
  648MOL0     C85416   1.229   2.819   8.223 -0.4287  0.1734  1.1807
  648MOL0     C85417   1.204   2.671   8.212  0.5842  0.9182 -0.1530
  648MOL0     C85418   1.315   2.581   8.289 -0.7852  0.2565 -0.5693
  648MOL0     C85419   1.320   2.434   8.240  0.4194 -0.3288 -0.0599
  648MOL0     C85420   1.438   2.367   8.303  0.4389 -0.6215 -0.4253
  648MOL0     N85421   1.476   2.238   8.235 -0.6286  0.3669 -0.6437
  648MOL0     C85422   1.601   2.186   8.241 -0.4492  0.0560 -0.2738
  648MOL0     C85423   1.597   2.058   8.198 -0.6006  0.5741  1.1384
  648MOL0     C85424   1.697   1.956   8.197 -0.3262 -0.5596 -0.4360
  648MOL0     C85425   1.708   1.884   8.333  1.1626  0.1154  0.4434
  648MOL0     C85426   1.790   1.753   8.299 -1.0526 -0.2074  0.1306
  648MOL0     C85427   1.938   1.780   8.271 -0.7047  0.9505 -0.8119
  648MOL0     O85428   2.013   1.816   8.396  0.7439 -0.8042 -0.1255
  648MOL0     C85429   2.151   1.836   8.400  0.4059  0.4750 -1.2356
  648MOL0     C85430   2.227   1.859   8.286 -0.4296  0.0140  0.0577
  648MOL0     C85431   2.367   1.860   8.294 -0.4980 -0.2513  0.4679
  648MOL0     C85432   2.432   1.857   8.424  0.4918 -0.0999  0.5311
  648MOL0     C85433   2.579   1.876   8.427 -0.1124  0.0032 -0.6724
  648MOL0     O85434   2.636   1.916   8.314 -0.5041 -0.3536 -0.1179
  648MOL0     C85435   2.773   1.918   8.314  1.2022  0.0104  0.2455
  648MOL0     C85436   2.864   1.828   8.361 -0.1797  1.0709 -0.1628
  648MOL0     C85437   3.004   1.842   8.327  0.0832  0.1209 -0.2116
  648MOL0     C85438   3.049   1.947   8.250  0.3657 -0.7631 -0.7550
  648MOL0     O85439   3.187   1.959   8.228 -0.0891  0.2033  0.7800
  648MOL0     C85440   3.244   2.093   8.218 -0.1681 -0.7372  0.0470
  648MOL0     C85441   3.392   2.072   8.247 -0.1952 -1.0557 -0.3739
  648MOL0     C85442   3.443   2.208   8.308 -0.7754  0.3843 -0.3419
  648MOL0     C85443   3.596   2.211   8.343 -0.7557  0.9005 -0.7522
  648MOL0     C85444   3.634   2.318   8.441  0.8001  0.2592  0.8758
  648MOL0     C85445   3.785   2.320   8.487  0.8987 -0.1850  0.2054
  648MOL0     C85446   3.881   2.358   8.367  0.4995  0.1159  0.1464
  648MOL0     C85447   4.006   2.273   8.391 -0.6250 -0.3184 -0.0789
  648MOL0    Cl85448   4.131   2.299   8.263 -0.1283 -0.0268  0.1956
  648MOL0     C85449   2.953   2.031   8.187 -0.2660 -0.5666 -0.3487
  648MOL0     C85450   2.813   2.023   8.223 -0.3482  0.8999  0.4517
  648MOL0     O85451   2.639   1.836   8.531  1.1159 -0.1525 -0.7800
  648MOL0     C85452   2.357   1.831   8.539 -0.2221 -0.0281  0.0370
  648MOL0     C85453   2.218   1.823   8.525 -0.3099 -0.5048 -0.6244
  648MOL0     N85454   1.466   2.030   8.162 -0.1431 -0.1563  0.1510
  648MOL0     N85455   1.395   2.146   8.186 -0.0896  0.1184  0.2369
  648MOL0     C85456   1.268   3.159   7.587 -0.0469  0.5022  0.1223
  648MOL0     C85457   1.372   3.235   7.536 -1.1181 -0.3107  0.6072
  648MOL0     C85458   1.660   3.584   7.518  0.0170  0.6473 -0.3991
  648MOL0     C85459   1.661   3.716   7.564  0.5677  0.1957  0.9301
  648MOL0     C85460   1.748   3.806   7.516 -0.6137 -1.0098  0.0142
  648MOL0     C85461   1.846   3.770   7.427 -1.2013  0.7569  0.6709
  648MOL0     O85462   1.938   3.858   7.373  0.4361  0.7427  0.3328
  648MOL0     C85463   1.999   3.951   7.454 -1.2427 -0.4558  0.4625
  648MOL0     C85464   2.082   3.887   7.570 -0.4144  0.6804 -0.2140
  648MOL0     C85465   2.206   3.982   7.608  0.8846 -0.0431 -1.0646
  648MOL0     C85466   2.225   4.013   7.762  0.3068  0.7015  0.1204
  648MOL0     C85467   2.331   4.111   7.771  0.2893 -0.0375  0.1721
  648MOL0     C85468   2.415   4.192   7.798 -0.3767  0.3859 -0.1176
  648MOL0     C85469   1.841   3.638   7.366  0.6445 -0.5729  0.2250
  648MOL0     C85470   1.750   3.542   7.418  0.0854  0.0269 -0.2730
  648MOL0     H85471   1.589   3.229   7.806 -0.8382 -1.3173  0.7969
  648MOL0     H85472   1.409   3.079   7.882  0.9448 -1.2558 -0.7326
  648MOL0     H85473   1.042   3.030   7.904 -0.3865  3.4353 -2.8010
  648MOL0     H85474   1.192   3.102   7.966 -3.7965 -0.0231  1.9925
  648MOL0     H85475   1.292   2.881   7.975  0.0083  1.3755 -0.8368
  648MOL0     H85476   1.127   2.807   7.947  0.2481 -0.0561  0.1350
  648MOL0     H85477   1.039   2.881   8.160  0.1532  2.2143  1.8161
  648MOL0     H85478   1.156   3.011   8.166 -1.1298 -0.2912 -0.2266
  648MOL0     H85479   1.332   2.826   8.187 -0.8452  0.3664  0.0147
  648MOL0     H85480   1.225   2.855   8.327  0.3864  2.8909  0.3549
  648MOL0     H85481   1.200   2.637   8.108  2.5720 -2.0322  0.6011
  648MOL0     H85482   1.111   2.644   8.263  3.2020 -2.0211  3.5927
  648MOL0     H85483   1.297   2.587   8.397  0.0749  0.6323 -0.4382
  648MOL0     H85484   1.419   2.614   8.288 -0.1051 -1.2442  3.3668
  648MOL0     H85485   1.222   2.391   8.265  0.6841 -1.3286 -0.6732
  648MOL0     H85486   1.325   2.422   8.132 -1.3409 -0.6350 -0.1460
  648MOL0     H85487   1.424   2.343   8.409 -0.6284 -2.2170 -0.8920
  648MOL0     H85488   1.524   2.434   8.291  1.0289 -1.0350  1.2475
  648MOL0     H85489   1.683   2.247   8.277 -1.0663  0.8827 -0.2383
  648MOL0     H85490   1.795   2.001   8.178 -0.8202  0.0997 -1.5179
  648MOL0     H85491   1.675   1.888   8.115 -3.0200  0.6939 -0.8452
  648MOL0     H85492   1.615   1.848   8.378  1.1828 -1.3216 -0.5800
  648MOL0     H85493   1.754   1.945   8.411 -0.2396  1.1088  0.5486
  648MOL0     H85494   1.787   1.694   8.392 -0.9799 -0.7477 -0.2036
  648MOL0     H85495   1.743   1.704   8.213  1.6150  1.0063 -2.1896
  648MOL0     H85496   1.960   1.856   8.195  0.0298 -1.3459 -3.0281
  648MOL0     H85497   1.976   1.683   8.240  3.7608  1.2624  2.6626
  648MOL0     H85498   2.184   1.856   8.186 -3.5571 -3.6997  1.2632
  648MOL0     H85499   2.417   1.862   8.198 -1.6953  0.6875 -0.1807
  648MOL0     H85500   2.836   1.742   8.421  0.0537 -0.2517 -1.8640
  648MOL0     H85501   3.074   1.771   8.367 -1.0557 -0.9777 -0.0912
  648MOL0     H85502   3.191   2.166   8.279 -1.5614  3.0158 -4.9872
  648MOL0     H85503   3.233   2.136   8.118 -0.1529 -0.9204 -0.0344
  648MOL0     H85504   3.454   2.043   8.161 -0.4435 -0.2823 -0.8290
  648MOL0     H85505   3.402   1.991   8.319 -0.5852  0.3052  1.2902
  648MOL0     H85506   3.390   2.230   8.402 -1.3107  0.3388 -0.6265
  648MOL0     H85507   3.414   2.287   8.237 -0.1123  2.0304  1.1262
  648MOL0     H85508   3.630   2.114   8.381 -1.8039  1.2129  1.0879
  648MOL0     H85509   3.644   2.239   8.248  0.1221  2.7638  0.1965
  648MOL0     H85510   3.576   2.299   8.532  2.0741 -1.3872  1.4056
  648MOL0     H85511   3.618   2.420   8.405  0.6297  1.1795  3.3749
  648MOL0     H85512   3.805   2.222   8.531  1.6032  0.0278  0.3690
  648MOL0     H85513   3.801   2.403   8.556 -0.5843  0.1205  0.2258
  648MOL0     H85514   3.835   2.338   8.269 -0.3545 -0.8131  0.7236
  648MOL0     H85515   3.902   2.466   8.366 -0.0704  0.2518 -1.8581
  648MOL0     H85516   3.970   2.170   8.384 -2.7827  0.3890 -0.1205
  648MOL0     H85517   4.047   2.284   8.492  0.5992  0.4778 -0.6434
  648MOL0     H85518   2.997   2.101   8.117  1.2352 -0.8870  0.2249
  648MOL0     H85519   2.750   2.095   8.172 -2.6955  0.5218  2.6096
  648MOL0     H85520   2.406   1.815   8.635 -2.4538 -1.6366  0.9861
  648MOL0     H85521   2.154   1.799   8.609  0.5496 -2.3241 -0.4534
  648MOL0     H85522   1.183   3.136   7.524 -1.7239  0.6045  2.2606
  648MOL0     H85523   1.359   3.282   7.439 -1.1146 -0.5170  0.5075
  648MOL0     H85524   1.582   3.739   7.633 -2.6198 -0.9194 -2.0501
  648MOL0     H85525   1.731   3.900   7.566 -0.6041 -0.9535 -0.0883
  648MOL0     H85526   1.921   4.017   7.493  0.3827  1.3992  0.7376
  648MOL0     H85527   2.074   3.992   7.385 -0.5252 -1.1105  0.8318
  648MOL0     H85528   2.010   3.869   7.650 -1.4739  1.5308 -0.9465
  648MOL0     H85529   2.112   3.790   7.529 -1.7997  0.3739 -0.5367
  648MOL0     H85530   2.179   4.077   7.560  0.4765 -0.8034 -2.3736
  648MOL0     H85531   2.297   3.946   7.560  2.8518  3.7996 -0.6177
  648MOL0     H85532   2.132   4.052   7.806 -0.5785 -1.1000 -0.0522
  648MOL0     H85533   2.266   3.927   7.816 -1.0746 -1.1253 -1.6052
  648MOL0     H85534   2.501   4.253   7.817 -0.1209 -0.1791  0.5639
  648MOL0     H85535   1.917   3.609   7.294 -0.5164 -0.3387 -1.1374
  648MOL0     H85536   1.749   3.439   7.385  1.5934  0.5316 -2.0469
  649MOL0     O85537   2.938   1.573   6.328 -0.2581  0.0820 -0.1412
  649MOL0     C85538   2.966   1.561   6.447 -0.2998  0.3442  0.5859
  649MOL0     O85539   3.041   1.650   6.524 -0.6840  0.0916 -0.5536
  649MOL0     C85540   3.085   1.764   6.464  0.1801  0.2110 -0.5489
  649MOL0     C85541   2.997   1.864   6.407  0.3733 -0.0353 -0.4362
  649MOL0     C85542   3.053   1.971   6.330 -0.4707 -0.6450  0.1024
  649MOL0     C85543   3.191   1.976   6.319 -0.1825 -1.0563  1.1394
  649MOL0     O85544   3.248   2.080   6.250 -0.6331 -0.2908 -0.1949
  649MOL0     C85545   3.243   2.200   6.323  0.1504  0.5318  0.4363
  649MOL0     C85546   3.255   2.315   6.230  0.0609  0.4052 -0.0859
  649MOL0     C85547   3.412   2.357   6.213  0.5282  0.0625 -0.1790
  649MOL0     C85548   3.484   2.405   6.339 -0.6613 -0.8330  0.0550
  649MOL0     C85549   3.633   2.422   6.308  0.7536  0.7233 -0.5809
  649MOL0     C85550   3.712   2.476   6.421 -0.3099  0.1612 -0.3024
  649MOL0     C85551   3.712   2.639   6.425 -0.3139  0.8074  0.0405
  649MOL0     C85552   3.814   2.701   6.524  0.2644  0.3848  0.7085
  649MOL0     N85553   3.802   2.845   6.528  0.4941  0.3101  0.1905
  649MOL0     C85554   3.804   2.932   6.423 -0.3458  0.4943  0.2137
  649MOL0     C85555   3.778   3.051   6.482 -0.4605 -0.0321  0.8592
  649MOL0     C85556   3.764   3.189   6.434  0.4527  0.3137  0.7540
  649MOL0     C85557   3.854   3.211   6.310 -0.9019 -0.1762 -0.0688
  649MOL0     C85558   3.824   3.340   6.236  0.7860 -0.0875  0.2720
  649MOL0     C85559   3.831   3.463   6.330 -0.4933 -0.0858  0.1087
  649MOL0     O85560   3.797   3.573   6.253  0.2705 -0.0597  0.1251
  649MOL0     C85561   3.833   3.697   6.295  0.4262 -0.5848 -0.3395
  649MOL0     C85562   3.813   3.798   6.199  0.5731  0.6712 -0.7097
  649MOL0     C85563   3.852   3.928   6.244 -0.1147  0.2380  0.4275
  649MOL0     C85564   3.890   3.962   6.373  0.0617 -0.5832 -0.5502
  649MOL0     C85565   3.916   4.108   6.406 -0.0537  0.0683  0.9289
  649MOL0     O85566   3.962   4.130   6.534 -0.1021  0.3827  0.3817
  649MOL0     C85567   4.004   4.247   6.581  0.9790  0.0813  0.2294
  649MOL0     C85568   4.061   4.347   6.510 -0.1093 -0.3187 -0.3673
  649MOL0     C85569   4.080   4.470   6.571 -0.4983 -0.7561 -0.3111
  649MOL0     C85570   4.049   4.492   6.704 -0.0116 -0.0109 -0.0386
  649MOL0     O85571   4.063   4.609   6.777  0.4710 -0.0711  0.1655
  649MOL0     C85572   4.128   4.715   6.708  0.2336 -0.0220 -0.0237
  649MOL0     C85573   4.165   4.822   6.809  0.5876 -0.7043  0.4266
  649MOL0     C85574   4.266   4.764   6.913 -0.3127 -0.7153 -0.5245
  649MOL0     C85575   4.330   4.880   6.987  0.2052  0.3117 -0.8820
  649MOL0     C85576   4.440   4.843   7.085 -0.2946  0.7986 -0.4831
  649MOL0     C85577   4.385   4.764   7.205 -0.4382  0.5561  0.5615
  649MOL0     C85578   4.299   4.842   7.306 -0.8900 -0.6778  0.3520
  649MOL0     C85579   4.247   4.746   7.416  0.8722 -0.5610  0.5455
  649MOL0    Cl85580   4.118   4.846   7.487 -0.3703  0.3487 -0.2426
  649MOL0     C85581   4.007   4.384   6.780 -0.7509  0.6294  0.2723
  649MOL0     C85582   3.979   4.260   6.719 -0.6993 -1.1147 -1.9527
  649MOL0     O85583   3.901   4.191   6.312 -1.0883  0.3439 -0.2848
  649MOL0     C85584   3.902   3.863   6.466  0.2985 -0.1653  0.8344
  649MOL0     C85585   3.865   3.733   6.429 -0.3667 -1.0167 -0.0895
  649MOL0     N85586   3.790   3.031   6.618 -0.0038  0.4524  0.6464
  649MOL0     N85587   3.802   2.910   6.645 -0.0280 -0.1174 -0.9120
  649MOL0     C85588   3.280   1.890   6.383 -0.7784  0.7179  0.6547
  649MOL0     C85589   3.217   1.784   6.448 -0.6955 -0.1277 -0.0115
  649MOL0     C85590   2.909   1.445   6.524 -0.8222  0.7930  0.1052
  649MOL0     C85591   2.933   1.436   6.662  1.1318  0.3413 -0.6745
  649MOL0     C85592   2.869   1.339   6.743 -0.6469  1.0729  0.4930
  649MOL0     C85593   2.793   1.232   6.685 -0.3400 -0.8080  0.3694
  649MOL0     O85594   2.723   1.136   6.754  0.5844  0.1148  0.7512
  649MOL0     C85595   2.770   1.084   6.870 -0.4698 -0.2381  0.7770
  649MOL0     C85596   2.712   0.949   6.917 -0.2017 -0.2402  0.0028
  649MOL0     C85597   2.569   0.959   6.949  0.8075  0.0716  0.3707
  649MOL0     C85598   2.518   0.828   7.007  0.9821  1.4924 -0.5026
  649MOL0     C85599   2.376   0.846   7.033  0.5461 -0.2113 -0.1584
  649MOL0     C85600   2.258   0.867   7.069  0.0274 -0.2241 -0.6114
  649MOL0     C85601   2.760   1.252   6.549  1.7417 -0.4542 -0.9207
  649MOL0     C85602   2.817   1.356   6.468 -0.1147  0.4107  0.4187
  649MOL0     H85603   2.890   1.846   6.401  0.5638 -1.6545  0.4871
  649MOL0     H85604   2.984   2.046   6.290  1.0758  0.7549 -0.0676
  649MOL0     H85605   3.321   2.200   6.399  3.2457 -3.9104 -2.2918
  649MOL0     H85606   3.149   2.222   6.376 -2.7636 -3.9663 -2.1894
  649MOL0     H85607   3.208   2.405   6.271 -0.2863 -0.1157  0.6641
  649MOL0     H85608   3.218   2.300   6.128  3.5767 -1.3897 -1.2562
  649MOL0     H85609   3.405   2.449   6.154 -0.8316  1.7271  2.3817
  649MOL0     H85610   3.468   2.269   6.180 -2.1854 -1.8938  0.1560
  649MOL0     H85611   3.447   2.502   6.373  2.0769  0.1524  0.5291
  649MOL0     H85612   3.470   2.327   6.414 -0.7863 -0.3193  0.5748
  649MOL0     H85613   3.641   2.490   6.223  2.0430  2.9560  1.2153
  649MOL0     H85614   3.668   2.319   6.296  1.6521  0.6547  2.0298
  649MOL0     H85615   3.812   2.432   6.413  0.4754  1.7474  0.4884
  649MOL0     H85616   3.675   2.440   6.518 -1.6085 -2.3883 -1.6377
  649MOL0     H85617   3.732   2.667   6.321 -1.3830  1.5302  0.0114
  649MOL0     H85618   3.612   2.673   6.453 -0.7833  1.2310 -1.9841
  649MOL0     H85619   3.917   2.677   6.496  0.1781  0.8340 -0.0463
  649MOL0     H85620   3.789   2.664   6.623  0.9794  0.6969  1.0146
  649MOL0     H85621   3.794   2.912   6.317  0.8816 -0.0550  0.1876
  649MOL0     H85622   3.785   3.262   6.512  1.8542 -0.0076  0.7118
  649MOL0     H85623   3.663   3.202   6.394  0.0698 -1.2810  1.1239
  649MOL0     H85624   3.833   3.133   6.236  1.1536 -0.0466 -0.8309
  649MOL0     H85625   3.958   3.212   6.342 -0.4779 -0.9006 -1.3554
  649MOL0     H85626   3.895   3.356   6.154 -0.4652  0.6337 -0.6957
  649MOL0     H85627   3.725   3.338   6.191  1.5324 -1.3070 -1.4387
  649MOL0     H85628   3.934   3.479   6.360  0.0345  0.2947 -1.7575
  649MOL0     H85629   3.765   3.462   6.418  1.7879 -0.9794  1.9001
  649MOL0     H85630   3.782   3.781   6.097  0.5975 -2.4871 -0.2823
  649MOL0     H85631   3.838   4.005   6.169 -2.1251  0.0801  0.5719
  649MOL0     H85632   4.089   4.338   6.406  0.2770 -3.0624 -0.1031
  649MOL0     H85633   4.118   4.542   6.498 -2.2025 -1.3557 -1.8534
  649MOL0     H85634   4.064   4.759   6.631 -0.1746 -1.3951 -0.4891
  649MOL0     H85635   4.211   4.678   6.647  0.4383 -0.3924  0.4831
  649MOL0     H85636   4.078   4.867   6.858  0.9214  2.7568 -1.8548
  649MOL0     H85637   4.220   4.901   6.758 -0.5529 -2.2748 -3.6461
  649MOL0     H85638   4.349   4.707   6.871  1.2930  1.2629 -0.2204
  649MOL0     H85639   4.203   4.700   6.976  0.1686 -0.6034  0.0842
  649MOL0     H85640   4.365   4.953   6.914 -3.2333  1.2007 -1.8283
  649MOL0     H85641   4.244   4.917   7.043  0.9679  1.4804 -0.4411
  649MOL0     H85642   4.505   4.928   7.108 -0.3690  0.5506  0.6803
  649MOL0     H85643   4.500   4.762   7.043 -1.0768 -0.2056  0.3029
  649MOL0     H85644   4.465   4.729   7.271 -1.6198 -2.7080  0.4759
  649MOL0     H85645   4.327   4.681   7.163 -1.3088  2.1985 -1.6509
  649MOL0     H85646   4.342   4.930   7.354 -1.3852 -0.6482  0.7498
  649MOL0     H85647   4.208   4.867   7.252  0.1474  0.9780 -0.6959
  649MOL0     H85648   4.316   4.711   7.493 -1.1825  1.4234  3.5315
  649MOL0     H85649   4.207   4.657   7.368 -1.0318  0.9870 -0.9511
  649MOL0     H85650   3.980   4.392   6.885  0.0480 -0.5686  0.5799
  649MOL0     H85651   3.926   4.186   6.778 -3.2013  0.1001 -2.5459
  649MOL0     H85652   3.920   3.886   6.571 -2.2571  0.3283  1.2372
  649MOL0     H85653   3.873   3.660   6.510 -0.8414 -0.6519  0.2888
  649MOL0     H85654   3.386   1.899   6.361 -0.8331  0.1159  0.0886
  649MOL0     H85655   3.289   1.715   6.492 -0.9029 -2.8577 -3.4996
  649MOL0     H85656   2.986   1.516   6.711  0.5131  0.9263 -0.9516
  649MOL0     H85657   2.863   1.349   6.851 -1.3675  0.8238  0.4867
  649MOL0     H85658   2.751   1.154   6.952 -0.1453  0.2559  0.4356
  649MOL0     H85659   2.877   1.071   6.849 -0.1698 -0.2410  2.2007
  649MOL0     H85660   2.748   0.874   6.846  1.7865  0.2275  0.4542
  649MOL0     H85661   2.767   0.934   7.011 -0.0151 -0.1245 -0.0863
  649MOL0     H85662   2.506   0.988   6.864 -0.8266 -3.0109  0.3666
  649MOL0     H85663   2.554   1.040   7.021  0.9785  1.1270 -0.7537
  649MOL0     H85664   2.544   0.738   6.949 -1.2232  0.2752  0.2943
  649MOL0     H85665   2.560   0.797   7.103  0.2098 -0.6450 -0.8110
  649MOL0     H85666   2.157   0.859   7.104  0.0845  2.6993  0.5200
  649MOL0     H85667   2.695   1.176   6.506  1.7012  0.4998 -2.6467
  649MOL0     H85668   2.779   1.380   6.369  0.7594 -0.8184 -0.2335
  650MOL0     O85669   0.942   4.740  10.002 -1.2777  0.5177  0.1786
  650MOL0     C85670   0.986   4.817  10.084 -0.3685 -0.0432 -0.9137
  650MOL0     O85671   0.911   4.852  10.192  0.1935  0.3681 -0.3034
  650MOL0     C85672   0.776   4.841  10.195  0.3845 -0.1116  0.6468
  650MOL0     C85673   0.726   4.788  10.314  0.8922 -0.3173 -0.0534
  650MOL0     C85674   0.583   4.782  10.330 -0.5463  0.8058  1.0983
  650MOL0     C85675   0.498   4.824  10.226 -0.6564  0.1138  0.1919
  650MOL0     O85676   0.367   4.814  10.244 -0.0389  1.0118  0.1536
  650MOL0     C85677   0.288   4.800  10.126  0.1368 -0.5255 -0.1121
  650MOL0     C85678   0.223   4.935  10.076 -0.1508  0.4936 -1.0384
  650MOL0     C85679   0.159   4.940   9.938  0.0836 -0.1149  1.1035
  650MOL0     C85680   0.097   5.078   9.919  0.0811  0.3933 -0.3447
  650MOL0     C85681   0.063   5.121   9.777  0.1085  0.4237 -0.4179
  650MOL0     C85682   0.175   5.174   9.685  0.0023 -0.3663 -0.2320
  650MOL0     C85683   0.314   5.101   9.678 -0.8463  0.1742 -0.0587
  650MOL0     C85684   0.295   4.966   9.598 -0.1527  0.3544  0.5257
  650MOL0     N85685   0.417   4.895   9.578 -0.4448 -0.2749  0.7888
  650MOL0     C85686   0.507   4.847   9.676  0.2730 -0.5586 -0.3760
  650MOL0     C85687   0.598   4.780   9.611  1.4793 -0.7839 -0.0132
  650MOL0     C85688   0.719   4.715   9.680  0.3129 -0.3627 -0.5769
  650MOL0     C85689   0.842   4.800   9.661  0.3989  0.1048  0.3998
  650MOL0     C85690   0.928   4.776   9.534 -0.1122  0.1009  0.5572
  650MOL0     C85691   1.050   4.881   9.523  0.8757 -0.9171 -0.2789
  650MOL0     O85692   1.097   4.862   9.386  0.0839 -0.3503 -0.3606
  650MOL0     C85693   1.062   4.956   9.295  0.0020  0.3475 -0.2173
  650MOL0     C85694   1.122   4.936   9.167  0.7989 -0.1878  0.1501
  650MOL0     C85695   1.090   5.020   9.055 -0.5009  0.2852  0.6882
  650MOL0     C85696   1.007   5.126   9.079  0.3083  0.0210  0.3746
  650MOL0     C85697   0.960   5.208   8.967 -0.3099 -0.5020 -0.3058
  650MOL0     O85698   0.856   5.295   8.997 -0.1707  0.2062  0.5774
  650MOL0     C85699   0.804   5.393   8.912  0.2912 -1.0547 -1.5644
  650MOL0     C85700   0.687   5.464   8.955 -0.8184  0.8008 -0.2159
  650MOL0     C85701   0.625   5.563   8.883  0.0309 -0.7225 -0.3097
  650MOL0     C85702   0.683   5.606   8.759  0.5670 -0.5327  0.2312
  650MOL0     O85703   0.608   5.698   8.683 -0.2006  0.7149 -0.8960
  650MOL0     C85704   0.683   5.755   8.577  0.3957  0.1101 -0.5603
  650MOL0     C85705   0.607   5.870   8.500  0.5180  0.7550  0.4376
  650MOL0     C85706   0.454   5.843   8.478 -0.0196 -0.2948 -0.9939
  650MOL0     C85707   0.416   5.707   8.422  0.3617  0.3477 -1.0240
  650MOL0     C85708   0.262   5.704   8.411 -0.2515 -0.4422 -0.0201
  650MOL0     C85709   0.225   5.579   8.337  0.2013 -0.9870 -0.2893
  650MOL0     C85710   0.076   5.556   8.330  0.0412 -0.0530 -0.9973
  650MOL0     C85711   0.033   5.461   8.217 -0.6740  0.7258  0.3936
  650MOL0    Cl85712   0.071   5.535   8.065 -0.2574 -0.7041 -0.0366
  650MOL0     C85713   0.792   5.528   8.719  0.6602 -0.1704 -0.0144
  650MOL0     C85714   0.853   5.426   8.792 -0.3544 -0.4924 -0.8044
  650MOL0     O85715   1.031   5.213   8.868  0.0992  0.6210  0.7595
  650MOL0     C85716   0.938   5.138   9.204  0.3670 -0.2705  0.7052
  650MOL0     C85717   0.965   5.053   9.309 -0.6539  0.8935  0.8170
  650MOL0     N85718   0.561   4.775   9.481  0.1053 -0.2658  1.4521
  650MOL0     N85719   0.461   4.841   9.459 -0.1577  0.1239 -0.3087
  650MOL0     C85720   0.551   4.866  10.105  0.8335 -0.1445  0.1053
  650MOL0     C85721   0.688   4.875  10.088  0.3578 -0.9934 -0.1278
  650MOL0     C85722   1.128   4.875  10.078 -0.2668  0.2899 -0.0104
  650MOL0     C85723   1.203   4.834   9.964  0.1252 -0.3829 -0.7147
  650MOL0     C85724   1.331   4.881   9.956 -1.0351  1.0594 -1.0945
  650MOL0     C85725   1.397   4.961  10.048 -0.4918  0.3889  0.3876
  650MOL0     O85726   1.517   5.021  10.027 -0.4674  0.1558 -0.1325
  650MOL0     C85727   1.593   5.068  10.146  0.4098 -0.1368  0.6180
  650MOL0     C85728   1.747   5.022  10.123 -0.3483 -0.9360 -0.4341
  650MOL0     C85729   1.804   5.079   9.991  0.1529  0.2858  0.0855
  650MOL0     C85730   1.947   5.035   9.972 -0.6625 -0.4884  0.1219
  650MOL0     C85731   2.056   5.104  10.045 -0.3772  1.2384  0.1669
  650MOL0     C85732   2.143   5.159  10.107 -0.0220  0.8351 -0.5518
  650MOL0     C85733   1.318   4.999  10.162  0.8408 -0.0213 -0.3584
  650MOL0     C85734   1.185   4.960  10.171 -0.1052 -0.6978 -0.6243
  650MOL0     H85735   0.793   4.736  10.380 -0.5805 -3.0875 -0.6054
  650MOL0     H85736   0.551   4.751  10.429  1.4056 -2.6388  0.8052
  650MOL0     H85737   0.209   4.727  10.140  1.5901 -1.9418  1.2036
  650MOL0     H85738   0.341   4.761  10.039 -0.9693 -0.9461 -0.6007
  650MOL0     H85739   0.294   5.018  10.080  0.8977 -0.4221  1.6377
  650MOL0     H85740   0.150   4.966  10.152 -1.2944 -2.8016 -0.6100
  650MOL0     H85741   0.084   4.860   9.927  0.6064 -0.5031  0.2080
  650MOL0     H85742   0.238   4.926   9.864 -3.7945 -2.6606 -3.1434
  650MOL0     H85743   0.005   5.072   9.978  0.5562 -4.2814  0.3534
  650MOL0     H85744   0.163   5.157   9.957 -0.3851  0.6785 -0.1177
  650MOL0     H85745  -0.018   5.194   9.777  1.3293  2.0513  3.2695
  650MOL0     H85746   0.015   5.034   9.731  1.1610 -0.4997  0.1651
  650MOL0     H85747   0.189   5.277   9.718 -2.0047  0.1429 -0.7922
  650MOL0     H85748   0.144   5.191   9.581  1.5435  1.2200 -0.4678
  650MOL0     H85749   0.382   5.158   9.615  0.5622 -0.0139  1.2495
  650MOL0     H85750   0.346   5.090   9.782 -1.7028  1.8383  0.4340
  650MOL0     H85751   0.256   4.988   9.499  1.5658  1.1829  0.0051
  650MOL0     H85752   0.229   4.891   9.643  0.2141 -0.2748  0.0257
  650MOL0     H85753   0.496   4.862   9.783 -0.5967 -1.6118 -0.2943
  650MOL0     H85754   0.741   4.615   9.640 -0.5955 -1.7760  2.1684
  650MOL0     H85755   0.695   4.698   9.786  2.1101  0.4213 -0.0064
  650MOL0     H85756   0.910   4.779   9.744  0.3918  0.9762  0.6423
  650MOL0     H85757   0.811   4.903   9.683 -4.0737 -0.7183 -1.1268
  650MOL0     H85758   0.942   4.668   9.528 -2.4283 -0.3351  1.8516
  650MOL0     H85759   0.867   4.807   9.448  2.1830  2.8572 -0.2638
  650MOL0     H85760   1.118   4.876   9.608  0.0083  0.3084  0.5302
  650MOL0     H85761   1.008   4.982   9.523 -1.1198 -1.6173 -3.1951
  650MOL0     H85762   1.185   4.849   9.148 -0.3570 -0.9461 -0.2986
  650MOL0     H85763   1.141   4.990   8.964  1.9113  0.9837  1.7287
  650MOL0     H85764   0.655   5.438   9.055 -3.4601 -2.3235 -1.6621
  650MOL0     H85765   0.540   5.615   8.926 -1.2406 -1.9831 -1.1881
  650MOL0     H85766   0.695   5.667   8.513 -3.3266 -0.6130 -0.5009
  650MOL0     H85767   0.777   5.801   8.609  0.3649 -0.2966  0.1305
  650MOL0     H85768   0.651   5.875   8.400 -0.8545  0.6990 -0.1889
  650MOL0     H85769   0.625   5.968   8.545  1.2817  0.1358  1.5643
  650MOL0     H85770   0.425   5.925   8.412 -1.5204  0.3153  0.3470
  650MOL0     H85771   0.412   5.864   8.577  1.1737  1.0232 -0.7444
  650MOL0     H85772   0.462   5.698   8.324  2.4405  0.5932 -0.1235
  650MOL0     H85773   0.444   5.627   8.491 -2.9017  0.3225  0.4881
  650MOL0     H85774   0.206   5.784   8.362 -1.4048  0.8019  3.1162
  650MOL0     H85775   0.207   5.707   8.505  0.9498 -0.8030  0.7153
  650MOL0     H85776   0.273   5.486   8.372 -3.6367 -2.0095  3.0077
  650MOL0     H85777   0.258   5.588   8.233  0.1121  0.6712 -0.1988
  650MOL0     H85778   0.031   5.511   8.420 -0.6678  0.2521 -1.1891
  650MOL0     H85779   0.028   5.654   8.319 -2.5531 -0.7493  2.1805
  650MOL0     H85780  -0.073   5.442   8.234 -0.9019  1.6257  0.0410
  650MOL0     H85781   0.083   5.365   8.230 -2.6066 -0.5199 -0.9989
  650MOL0     H85782   0.845   5.544   8.626  1.2085  2.8010  0.7151
  650MOL0     H85783   0.944   5.388   8.747  0.4986 -0.4338  0.8103
  650MOL0     H85784   0.870   5.223   9.208 -0.0617 -0.4691 -1.2929
  650MOL0     H85785   0.894   5.056   9.391 -0.7397  0.5884  0.7586
  650MOL0     H85786   0.488   4.890  10.020 -1.4724 -0.0598  1.7481
  650MOL0     H85787   0.710   4.909   9.988 -1.1497 -0.1578 -0.2093
  650MOL0     H85788   1.156   4.779   9.883 -2.4161  0.3070  0.1761
  650MOL0     H85789   1.401   4.857   9.876  0.2400 -1.6026  0.6724
  650MOL0     H85790   1.558   5.025  10.240  0.3709 -1.1877  0.1417
  650MOL0     H85791   1.591   5.177  10.152  1.0038 -0.0406 -0.6644
  650MOL0     H85792   1.803   5.048  10.214 -0.9107  0.5940 -0.4903
  650MOL0     H85793   1.751   4.914  10.106 -1.1740 -1.1011  0.3303
  650MOL0     H85794   1.786   5.187   9.985 -2.1396  0.2259  3.2414
  650MOL0     H85795   1.750   5.031   9.909  1.5708 -1.9268  0.3813
  650MOL0     H85796   1.947   4.926   9.986 -0.1890 -0.3574  1.2390
  650MOL0     H85797   1.951   5.054   9.865 -2.5558  0.4404  0.1667
  650MOL0     H85798   2.232   5.187  10.160  0.8198 -2.5632  0.1114
  650MOL0     H85799   1.352   5.070  10.236 -4.5355  0.4184  2.1641
  650MOL0     H85800   1.119   4.992  10.251 -2.6784 -2.3964 -1.9513
  651MOL0     O85801   7.030   0.545   1.511 -0.4913  0.3818 -0.8010
  651MOL0     C85802   6.980   0.640   1.456 -0.0307 -1.1493  1.3036
  651MOL0     O85803   6.961   0.657   1.321 -0.0010 -0.4072  0.4263
  651MOL0     C85804   6.994   0.548   1.244  0.4054  0.0426  0.5050
  651MOL0     C85805   7.124   0.498   1.226 -0.1276 -0.1051 -0.8017
  651MOL0     C85806   7.160   0.402   1.132  0.2750 -0.2165 -0.5115
  651MOL0     C85807   7.051   0.340   1.062 -0.0235  0.6185 -0.0985
  651MOL0     O85808   7.067   0.242   0.964 -0.1453  0.0975 -0.0376
  651MOL0     C85809   7.196   0.215   0.912 -0.2935  0.1594  0.6209
  651MOL0     C85810   7.187   0.127   0.783  0.5386 -0.3396  0.5893
  651MOL0     C85811   7.321   0.065   0.734  0.3372  0.1743  0.6470
  651MOL0     C85812   7.438   0.154   0.742 -0.2075  0.2009 -0.5614
  651MOL0     C85813   7.563   0.080   0.703  1.1918  0.7963 -0.4784
  651MOL0     C85814   7.688   0.174   0.679 -0.8972  0.0719 -0.5306
  651MOL0     C85815   7.829   0.101   0.653  0.5589  0.0643  0.6212
  651MOL0     C85816   7.944   0.206   0.642  0.0795  0.4299  0.2287
  651MOL0     N85817   7.917   0.309   0.543  0.1640 -0.8831  0.0192
  651MOL0     C85818   7.927   0.304   0.410 -1.3084 -0.6908  0.0810
  651MOL0     C85819   7.915   0.430   0.356  0.0139  0.2297  0.1319
  651MOL0     C85820   7.941   0.491   0.215  0.6025  0.1489  0.4338
  651MOL0     C85821   7.886   0.403   0.098  0.0133 -1.3656  0.9589
  651MOL0     C85822   7.856   0.507  -0.008 -0.3423 -0.0865 -0.6342
  651MOL0     C85823   7.810   0.433  -0.132 -0.4575  0.0593 -0.8839
  651MOL0     O85824   7.814   0.511  -0.248 -0.7287 -0.2541  0.5687
  651MOL0     C85825   7.923   0.494  -0.336 -0.0001  0.7881  0.1914
  651MOL0     C85826   7.879   0.461  -0.469 -0.0233  1.0556 -0.7234
  651MOL0     C85827   7.967   0.448  -0.578  0.0301 -0.3747 -0.9300
  651MOL0     C85828   8.105   0.469  -0.553 -0.0484  0.1687 -0.4672
  651MOL0     C85829   8.203   0.456  -0.666  0.4939  0.3703 -0.3175
  651MOL0     O85830   8.326   0.515  -0.632 -0.0956  0.1582 -0.5658
  651MOL0     C85831   8.431   0.524  -0.721 -0.2810  0.0790  0.2101
  651MOL0     C85832   8.466   0.427  -0.816  0.0660  0.1401  0.1795
  651MOL0     C85833   8.561   0.436  -0.912 -0.1324  0.4766  0.4538
  651MOL0     C85834   8.642   0.553  -0.915 -0.3636  0.2920 -0.2449
  651MOL0     O85835   8.740   0.564  -1.013  0.2188  0.0375  0.2160
  651MOL0     C85836   8.796   0.450  -1.083  0.1474 -0.7912  0.2705
  651MOL0     C85837   8.907   0.510  -1.170 -0.0076 -0.3879 -0.2402
  651MOL0     C85838   8.975   0.402  -1.258  0.4378 -0.7399  0.5510
  651MOL0     C85839   9.077   0.475  -1.352 -0.0996  0.6243 -0.8178
  651MOL0     C85840   9.136   0.377  -1.458  0.7661  0.1052 -0.4664
  651MOL0     C85841   9.234   0.437  -1.555 -0.1153 -0.6024 -0.1099
  651MOL0     C85842   9.286   0.347  -1.661 -0.6446  0.1619 -0.0205
  651MOL0     C85843   9.346   0.437  -1.773 -0.2543 -0.1138  0.0232
  651MOL0    Cl85844   9.441   0.326  -1.886 -0.0494 -0.5916  0.6882
  651MOL0     C85845   8.611   0.654  -0.827  0.2070 -0.2277  0.1128
  651MOL0     C85846   8.499   0.648  -0.735 -0.2846  0.1607  0.2885
  651MOL0     O85847   8.173   0.383  -0.768  0.4418 -0.3577  0.7092
  651MOL0     C85848   8.146   0.493  -0.422  0.2268  0.1981  0.5428
  651MOL0     C85849   8.057   0.506  -0.312  0.8383  0.3885 -1.4762
  651MOL0     N85850   7.907   0.512   0.472  0.2340  0.4366  0.4425
  651MOL0     N85851   7.906   0.442   0.576  0.1007 -0.6714 -0.0743
  651MOL0     C85852   6.923   0.392   1.073  0.2327 -0.1722  0.9549
  651MOL0     C85853   6.892   0.494   1.156  0.3459  0.0832  0.3381
  651MOL0     C85854   6.934   0.752   1.537 -0.7592 -0.5822 -0.6915
  651MOL0     C85855   6.959   0.748   1.681 -0.4340  0.9578  0.4096
  651MOL0     C85856   6.919   0.856   1.755  0.2587  0.5808  0.4076
  651MOL0     C85857   6.852   0.955   1.708 -0.2419  0.1007  0.4316
  651MOL0     O85858   6.820   1.047   1.807  0.2705  0.4059 -0.1838
  651MOL0     C85859   6.754   1.173   1.761 -0.2093  0.0247  0.2801
  651MOL0     C85860   6.604   1.152   1.746  0.2650  0.3280 -0.0954
  651MOL0     C85861   6.528   1.293   1.718 -0.0770  0.8321 -0.8689
  651MOL0     C85862   6.436   1.291   1.595  0.1808 -1.0674 -0.4148
  651MOL0     C85863   6.516   1.261   1.481  0.2348 -0.2778  0.2729
  651MOL0     C85864   6.576   1.234   1.375 -0.1086 -0.1714 -1.4597
  651MOL0     C85865   6.824   0.962   1.570  0.2546 -0.3677  0.2033
  651MOL0     C85866   6.869   0.863   1.482 -0.1112 -0.2581 -0.1373
  651MOL0     H85867   7.205   0.548   1.279 -1.3929 -0.3402  1.5157
  651MOL0     H85868   7.262   0.367   1.118 -0.0179 -0.6744 -1.5664
  651MOL0     H85869   7.252   0.159   0.988  0.6251 -1.0852 -0.9083
  651MOL0     H85870   7.256   0.304   0.890 -0.5309  0.4559  1.1527
  651MOL0     H85871   7.142   0.185   0.701  1.5604 -2.9051 -1.9596
  651MOL0     H85872   7.110   0.051   0.802  1.1862 -1.6193 -1.5586
  651MOL0     H85873   7.308   0.039   0.628  1.6747  0.1485  0.4688
  651MOL0     H85874   7.354  -0.010   0.806  1.4499  0.2178  0.1989
  651MOL0     H85875   7.425   0.238   0.673  3.5778  1.9310  0.5396
  651MOL0     H85876   7.452   0.187   0.845  0.7597  3.6173 -1.6521
  651MOL0     H85877   7.545   0.010   0.621 -2.9145  1.8251 -0.6903
  651MOL0     H85878   7.580   0.013   0.787 -0.9804  3.0997  1.9706
  651MOL0     H85879   7.704   0.231   0.771 -0.2495  0.5408 -0.9214
  651MOL0     H85880   7.677   0.238   0.590  1.1947 -1.1166 -1.7288
  651MOL0     H85881   7.849   0.037   0.740  2.6371  2.1213  1.7683
  651MOL0     H85882   7.819   0.044   0.561 -1.3248 -0.0946  0.8901
  651MOL0     H85883   8.037   0.152   0.626 -0.8663 -2.4467  3.3410
  651MOL0     H85884   7.955   0.253   0.740 -1.1506  1.0244  0.1020
  651MOL0     H85885   7.966   0.220   0.354  3.8398  2.8312 -2.5003
  651MOL0     H85886   8.048   0.499   0.194  0.1448 -0.9949 -3.0583
  651MOL0     H85887   7.888   0.587   0.225  2.5146  1.5978 -2.0349
  651MOL0     H85888   7.797   0.346   0.127 -0.9741 -0.4334 -0.0949
  651MOL0     H85889   7.969   0.336   0.075  1.5950  0.2351  1.7928
  651MOL0     H85890   7.777   0.576   0.026 -1.2357 -1.6420  0.5884
  651MOL0     H85891   7.942   0.569  -0.033 -1.8397  2.1200 -0.6363
  651MOL0     H85892   7.712   0.386  -0.129 -0.6341  0.4375  2.5261
  651MOL0     H85893   7.877   0.347  -0.143  0.5800  0.1192  3.2423
  651MOL0     H85894   7.773   0.440  -0.480  0.2840 -1.8896  1.0412
  651MOL0     H85895   7.938   0.422  -0.680  0.9212 -0.5748 -1.1464
  651MOL0     H85896   8.408   0.335  -0.817  2.0106 -1.1585 -2.1801
  651MOL0     H85897   8.570   0.352  -0.980 -3.8256  1.3376 -1.3364
  651MOL0     H85898   8.720   0.402  -1.147 -1.6403  3.0392 -0.8099
  651MOL0     H85899   8.830   0.370  -1.018  0.3887 -1.5358 -0.7483
  651MOL0     H85900   8.982   0.551  -1.101 -0.6242 -0.4109  0.4488
  651MOL0     H85901   8.866   0.591  -1.232 -3.7594  0.2618  2.7456
  651MOL0     H85902   8.892   0.360  -1.315 -1.6537  0.3761  2.6295
  651MOL0     H85903   9.013   0.320  -1.195 -0.6190  2.2586  5.6096
  651MOL0     H85904   9.026   0.550  -1.413 -1.0128 -1.5026 -2.8468
  651MOL0     H85905   9.161   0.508  -1.290 -0.4654  0.1932 -0.0780
  651MOL0     H85906   9.052   0.340  -1.517 -1.3517  1.4899  1.4965
  651MOL0     H85907   9.179   0.298  -1.396 -0.3722  2.3405  3.6087
  651MOL0     H85908   9.320   0.477  -1.500 -0.0317 -0.1878 -0.5438
  651MOL0     H85909   9.187   0.522  -1.605 -2.3184 -2.0890 -0.7225
  651MOL0     H85910   9.364   0.289  -1.612 -0.2524  1.4280  0.9215
  651MOL0     H85911   9.208   0.277  -1.690 -0.0198 -0.1210 -1.0636
  651MOL0     H85912   9.417   0.509  -1.732  1.9213 -0.9812 -1.9649
  651MOL0     H85913   9.265   0.488  -1.826  2.1727  1.5270 -2.3832
  651MOL0     H85914   8.664   0.746  -0.848 -2.0782  0.7516 -1.9136
  651MOL0     H85915   8.461   0.733  -0.679  1.8341  1.0947  0.3873
  651MOL0     H85916   8.252   0.510  -0.402  0.3664  2.2365 -1.4369
  651MOL0     H85917   8.099   0.506  -0.212  0.4658  2.4420 -1.2904
  651MOL0     H85918   6.848   0.345   1.011 -0.9119  1.6949  0.8302
  651MOL0     H85919   6.789   0.529   1.156  0.1221 -0.5591  0.7340
  651MOL0     H85920   7.026   0.675   1.726  1.1721  1.5610 -0.8996
  651MOL0     H85921   6.965   0.861   1.853  0.0544 -1.4796  0.6458
  651MOL0     H85922   6.792   1.208   1.664  0.7282 -1.0950  0.2219
  651MOL0     H85923   6.773   1.238   1.846  2.0680  0.2299 -0.3241
  651MOL0     H85924   6.587   1.084   1.662  0.9490 -1.8975  1.4792
  651MOL0     H85925   6.582   1.104   1.842  1.2933 -0.2784 -0.1459
  651MOL0     H85926   6.605   1.369   1.707  0.4725  0.9966  2.8604
  651MOL0     H85927   6.472   1.321   1.807  2.0438 -0.9514  1.1709
  651MOL0     H85928   6.340   1.243   1.615 -0.9501  1.4267  0.5850
  651MOL0     H85929   6.412   1.397   1.580 -3.0619 -1.7779 -0.9475
  651MOL0     H85930   6.637   1.203   1.292  1.2172 -0.8157 -0.2867
  651MOL0     H85931   6.783   1.046   1.514  0.5079 -1.5693 -1.9097
  651MOL0     H85932   6.837   0.860   1.379 -3.0891 -0.2877  0.7128
  652MOL0     O85933   3.110   4.649   3.678 -0.0174  0.8738  0.7627
  652MOL0     C85934   3.038   4.729   3.628  0.2195 -0.8002 -0.5510
  652MOL0     O85935   2.994   4.839   3.695 -0.5951  0.1488 -0.5084
  652MOL0     C85936   3.049   4.868   3.824 -0.5645 -0.8544 -0.1838
  652MOL0     C85937   3.010   4.799   3.937 -0.8219  0.3167 -0.2788
  652MOL0     C85938   3.046   4.856   4.071  0.3279  0.1017  0.5836
  652MOL0     C85939   3.141   4.956   4.077 -0.8455 -0.8643  0.1183
  652MOL0     O85940   3.179   4.993   4.207 -0.0486 -1.0230 -0.5717
  652MOL0     C85941   3.267   5.107   4.222  0.2932  0.4449 -0.4301
  652MOL0     C85942   3.417   5.073   4.205 -0.7937 -0.3941 -0.2376
  652MOL0     C85943   3.462   4.936   4.259  0.6400 -0.2344 -1.1104
  652MOL0     C85944   3.613   4.911   4.239 -0.4129  0.9196 -0.2697
  652MOL0     C85945   3.692   4.832   4.351  0.3769 -0.5897 -0.0969
  652MOL0     C85946   3.843   4.867   4.338 -0.1634 -0.6645  0.2320
  652MOL0     C85947   3.922   4.773   4.429  0.4299 -0.3378  0.2635
  652MOL0     C85948   4.066   4.785   4.423  0.5840  0.7017  0.3229
  652MOL0     N85949   4.119   4.683   4.516  0.0243  0.1381 -0.6473
  652MOL0     C85950   4.186   4.703   4.635 -0.0889 -0.0536 -0.6885
  652MOL0     C85951   4.217   4.576   4.679  0.6077 -0.2592  0.7287
  652MOL0     C85952   4.285   4.566   4.810 -0.3155 -0.4148 -0.5259
  652MOL0     C85953   4.423   4.638   4.813 -0.2442 -0.1651  0.7424
  652MOL0     C85954   4.523   4.553   4.733  0.3254  0.9192 -0.1987
  652MOL0     C85955   4.543   4.411   4.789  0.0030  0.2582  0.5596
  652MOL0     O85956   4.559   4.413   4.930  0.0198 -0.2455  0.1207
  652MOL0     C85957   4.686   4.399   4.981  0.0896  0.0227  0.1912
  652MOL0     C85958   4.695   4.377   5.125  0.2147 -0.0012  1.4387
  652MOL0     C85959   4.818   4.353   5.187 -1.2197  0.3204 -0.2250
  652MOL0     C85960   4.939   4.366   5.116 -0.0688  0.2167  0.2672
  652MOL0     C85961   5.065   4.336   5.197  0.0616 -1.2716 -0.7211
  652MOL0     O85962   5.047   4.347   5.331 -0.3805  0.1775  0.4827
  652MOL0     C85963   5.146   4.306   5.421  0.1540  1.0195  0.5224
  652MOL0     C85964   5.285   4.297   5.410 -0.7651  0.2142 -0.1870
  652MOL0     C85965   5.371   4.258   5.513  0.6655 -0.1853 -0.5852
  652MOL0     C85966   5.324   4.223   5.639  0.1174 -0.1365  0.3274
  652MOL0     O85967   5.395   4.178   5.745 -0.4109 -0.0678  0.2949
  652MOL0     C85968   5.519   4.110   5.714 -0.2796  0.2992 -0.6149
  652MOL0     C85969   5.548   4.003   5.817  0.1999 -0.0846 -0.1882
  652MOL0     C85970   5.687   3.942   5.786 -0.1675  0.5690 -0.6724
  652MOL0     C85971   5.806   4.029   5.837  0.2692  0.2614  0.1595
  652MOL0     C85972   5.946   3.955   5.844  0.3948  0.7416 -0.9283
  652MOL0     C85973   5.976   3.845   5.745 -0.3008 -0.6658 -0.1278
  652MOL0     C85974   6.081   3.747   5.787 -0.3915 -0.7857  0.1583
  652MOL0     C85975   6.228   3.805   5.829 -0.6609  0.0353 -0.6242
  652MOL0    Cl85976   6.291   3.892   5.696  0.7518  0.1726  0.0689
  652MOL0     C85977   5.184   4.231   5.649  0.1527  0.8531  0.8096
  652MOL0     C85978   5.099   4.263   5.544 -0.2991  1.0243  0.3887
  652MOL0     O85979   5.167   4.353   5.136 -0.5967  0.4386 -0.5221
  652MOL0     C85980   4.932   4.408   4.981  0.4124  0.3873 -0.0479
  652MOL0     C85981   4.807   4.412   4.916 -1.7517  0.4056 -0.4706
  652MOL0     N85982   4.173   4.483   4.587 -0.6870 -0.2783 -0.2317
  652MOL0     N85983   4.098   4.551   4.500  0.9475  0.7729  0.6017
  652MOL0     C85984   3.178   5.023   3.959  0.2587  0.0124  0.6482
  652MOL0     C85985   3.120   4.986   3.835  0.3753 -0.4950 -0.2513
  652MOL0     C85986   2.972   4.700   3.505  0.1102 -0.2186 -0.2240
  652MOL0     C85987   2.887   4.787   3.439  0.4434  0.8128 -0.8047
  652MOL0     C85988   2.838   4.767   3.313 -0.3207  0.6431  0.4430
  652MOL0     C85989   2.875   4.652   3.241  1.0271 -0.4150  0.0888
  652MOL0     O85990   2.852   4.635   3.102 -0.0312 -0.0286  0.3707
  652MOL0     C85991   2.789   4.744   3.028 -0.7377 -0.6335 -0.9427
  652MOL0     C85992   2.634   4.746   3.024  0.0800  0.0485 -0.1564
  652MOL0     C85993   2.579   4.862   2.948 -0.4577  0.1043 -1.4778
  652MOL0     C85994   2.595   4.839   2.794  0.4425  0.0495  0.6477
  652MOL0     C85995   2.518   4.737   2.725  0.3573 -0.4796 -1.0705
  652MOL0     C85996   2.460   4.641   2.689  0.1812  0.7190  1.1292
  652MOL0     C85997   2.964   4.566   3.303  0.5028  0.0349 -0.8634
  652MOL0     C85998   3.013   4.587   3.436 -0.1482 -0.5061  0.3646
  652MOL0     H85999   2.945   4.712   3.935 -0.3989 -0.2670  3.4837
  652MOL0     H86000   3.018   4.811   4.166 -1.5744  2.7216  1.3583
  652MOL0     H86001   3.245   5.141   4.323 -4.8082 -0.3261 -1.0551
  652MOL0     H86002   3.236   5.194   4.164 -1.6429  0.6519  0.8211
  652MOL0     H86003   3.490   5.143   4.246  2.0166 -1.8838 -2.3744
  652MOL0     H86004   3.437   5.078   4.098 -3.0505  3.4757 -0.6790
  652MOL0     H86005   3.392   4.864   4.215  0.2258 -1.3273  1.1761
  652MOL0     H86006   3.439   4.922   4.364  0.2750 -5.1446 -1.6367
  652MOL0     H86007   3.620   4.862   4.142 -1.2503  0.3685 -0.0625
  652MOL0     H86008   3.660   5.010   4.238 -0.9496  1.2109  0.8490
  652MOL0     H86009   3.675   4.725   4.335  0.7199 -1.3858  3.8740
  652MOL0     H86010   3.655   4.861   4.449  0.3454 -0.5839 -0.1106
  652MOL0     H86011   3.866   4.972   4.359  0.5561 -1.1248  1.9348
  652MOL0     H86012   3.873   4.858   4.233 -0.1080 -3.7135  0.4130
  652MOL0     H86013   3.886   4.787   4.531  0.1075 -1.0506  0.2542
  652MOL0     H86014   3.889   4.675   4.394 -0.5721 -0.3761  1.2675
  652MOL0     H86015   4.092   4.887   4.450 -1.2560  1.4728 -0.6613
  652MOL0     H86016   4.097   4.765   4.319  0.2613  2.3730 -0.1188
  652MOL0     H86017   4.202   4.795   4.691  2.5662 -0.3810 -0.7874
  652MOL0     H86018   4.298   4.462   4.840  1.4067 -0.7593 -2.2940
  652MOL0     H86019   4.222   4.614   4.886 -1.7954  1.9223 -3.0295
  652MOL0     H86020   4.462   4.644   4.915  0.2571 -0.4250  0.5673
  652MOL0     H86021   4.411   4.740   4.774 -2.1100  0.5744  2.9941
  652MOL0     H86022   4.495   4.546   4.628 -1.7241 -0.8296  0.3894
  652MOL0     H86023   4.621   4.602   4.740  0.7102  0.1880 -0.3145
  652MOL0     H86024   4.633   4.371   4.742  0.1208  0.1753  0.8570
  652MOL0     H86025   4.458   4.345   4.770  0.2264 -0.3066  1.4604
  652MOL0     H86026   4.597   4.375   5.172 -0.0491 -0.5510  0.8807
  652MOL0     H86027   4.825   4.334   5.294  1.3407  2.8083  0.1687
  652MOL0     H86028   5.331   4.320   5.315 -1.0070 -2.7921 -1.1185
  652MOL0     H86029   5.474   4.255   5.478  0.9408 -1.6628  0.2648
  652MOL0     H86030   5.597   4.185   5.725  0.0476  0.0086 -0.9172
  652MOL0     H86031   5.530   4.056   5.619 -1.4856 -3.7703  1.3406
  652MOL0     H86032   5.461   3.938   5.830 -0.9332  1.4739  0.2547
  652MOL0     H86033   5.557   4.045   5.917  1.2504 -0.8542  0.0554
  652MOL0     H86034   5.699   3.900   5.686 -1.4985 -0.8553 -0.2744
  652MOL0     H86035   5.692   3.861   5.859  0.0289  0.8022 -0.4270
  652MOL0     H86036   5.808   4.120   5.778 -0.7759  1.5131  1.9570
  652MOL0     H86037   5.782   4.071   5.935 -2.9343 -0.8483 -0.0287
  652MOL0     H86038   5.958   3.909   5.942  0.7964 -1.7481 -2.0808
  652MOL0     H86039   6.014   4.041   5.840 -1.8118  3.0215  3.3055
  652MOL0     H86040   6.014   3.880   5.649 -2.0041 -1.3407 -1.0733
  652MOL0     H86041   5.882   3.791   5.733 -0.5467 -1.4151  3.8341
  652MOL0     H86042   6.044   3.693   5.875 -1.9561  2.6677  1.8409
  652MOL0     H86043   6.086   3.681   5.700 -0.0156 -0.7025  0.1143
  652MOL0     H86044   6.307   3.730   5.839  0.8222  1.8013  2.2391
  652MOL0     H86045   6.225   3.858   5.924 -0.4597  1.4037 -1.3454
  652MOL0     H86046   5.140   4.188   5.739 -0.5609 -1.1379 -0.4328
  652MOL0     H86047   4.994   4.240   5.556  0.7253 -5.9005  0.6479
  652MOL0     H86048   5.019   4.420   4.918 -0.1717  1.9351 -0.6059
  652MOL0     H86049   4.812   4.446   4.813 -0.7273  3.3960  0.4549
  652MOL0     H86050   3.242   5.111   3.954  1.7615 -1.0412  0.6498
  652MOL0     H86051   3.135   5.034   3.739 -1.0159 -1.6636 -1.0966
  652MOL0     H86052   2.853   4.880   3.484 -0.5395  0.5733 -1.0205
  652MOL0     H86053   2.758   4.833   3.283 -0.1716 -0.2504 -2.1303
  652MOL0     H86054   2.823   4.740   2.924 -1.1647  0.4308 -1.1338
  652MOL0     H86055   2.825   4.840   3.068  0.6574 -1.3757 -0.3551
  652MOL0     H86056   2.606   4.649   2.981  0.3809  0.6791 -1.8386
  652MOL0     H86057   2.587   4.747   3.123 -1.5511 -0.2454 -0.8938
  652MOL0     H86058   2.624   4.958   2.976  4.6947 -2.9132  2.5185
  652MOL0     H86059   2.474   4.875   2.974 -0.2799  0.1859 -0.7716
  652MOL0     H86060   2.579   4.933   2.740  0.1685 -1.1344 -1.4673
  652MOL0     H86061   2.701   4.839   2.766 -0.3067 -2.8133 -3.0781
  652MOL0     H86062   2.408   4.557   2.647 -1.3298  1.4875  1.4254
  652MOL0     H86063   3.001   4.478   3.250  1.7901 -0.2983  0.5387
  652MOL0     H86064   3.097   4.528   3.472  1.9754  2.7395  1.0904
  653MOL0     O86065   8.905   6.778   1.575  1.1364  0.1494 -0.3828
  653MOL0     C86066   8.997   6.699   1.588  0.0053  0.4661  1.1257
  653MOL0     O86067   9.134   6.732   1.604 -0.0929  0.5393 -0.6406
  653MOL0     C86068   9.192   6.853   1.618  0.5876 -1.0236 -0.5558
  653MOL0     C86069   9.332   6.867   1.603  0.3412  0.8074 -0.6128
  653MOL0     C86070   9.399   6.991   1.628 -0.5905  0.4131 -0.1928
  653MOL0     C86071   9.325   7.098   1.662  0.3517  0.0145 -1.0106
  653MOL0     O86072   9.395   7.223   1.693 -0.2309 -0.3454  0.5432
  653MOL0     C86073   9.332   7.318   1.601  0.9712 -0.2818 -0.3560
  653MOL0     C86074   9.415   7.445   1.632  0.0621  0.2200  0.1858
  653MOL0     C86075   9.354   7.567   1.563 -0.2893 -0.3203 -0.8453
  653MOL0     C86076   9.305   7.553   1.425 -0.9272  0.0593  0.6404
  653MOL0     C86077   9.241   7.687   1.383  1.0115 -0.1795 -0.5455
  653MOL0     C86078   9.207   7.704   1.240  0.6309  0.7929  0.7251
  653MOL0     C86079   9.110   7.599   1.177  0.1669  0.1712 -0.8512
  653MOL0     C86080   8.959   7.604   1.238 -0.9500  1.1430  0.4950
  653MOL0     N86081   8.858   7.665   1.148 -0.2621 -0.5767  0.6508
  653MOL0     C86082   8.860   7.798   1.093  0.5962  0.3914 -1.1550
  653MOL0     C86083   8.743   7.806   1.027 -0.3838  0.8962 -0.1917
  653MOL0     C86084   8.686   7.924   0.949 -0.4409  0.1041  0.3529
  653MOL0     C86085   8.635   7.892   0.810 -0.2193 -0.0755  0.6866
  653MOL0     C86086   8.636   8.022   0.723  0.4566  1.0690  0.4861
  653MOL0     C86087   8.509   8.106   0.753 -0.8441 -0.3917  0.0059
  653MOL0     O86088   8.385   8.030   0.729  0.1679 -0.7247  0.1762
  653MOL0     C86089   8.270   8.107   0.716  1.0142 -0.3907  0.3296
  653MOL0     C86090   8.145   8.043   0.717  1.3600  0.0355 -0.9203
  653MOL0     C86091   8.024   8.118   0.716 -0.6242  0.1103  0.2726
  653MOL0     C86092   8.027   8.263   0.710 -0.3258  0.0684 -0.5570
  653MOL0     C86093   7.900   8.333   0.714  0.6152  0.6174 -0.0528
  653MOL0     O86094   7.787   8.251   0.681 -0.5991 -0.4196  0.7785
  653MOL0     C86095   7.662   8.298   0.699 -0.0165  0.2767 -0.1559
  653MOL0     C86096   7.583   8.219   0.789  0.1397 -0.6576 -0.2214
  653MOL0     C86097   7.459   8.263   0.845  0.9985  0.2493 -0.5159
  653MOL0     C86098   7.395   8.385   0.797  0.5587  0.6553  0.4795
  653MOL0     O86099   7.268   8.424   0.851 -0.7652 -0.3972  0.0835
  653MOL0     C86100   7.217   8.558   0.808  0.4321 -0.2047  0.5035
  653MOL0     C86101   7.095   8.589   0.886  0.6816 -0.6223 -0.1061
  653MOL0     C86102   7.100   8.612   1.040  0.4146  0.1128  1.2578
  653MOL0     C86103   6.953   8.611   1.087  0.2435 -0.0397  0.9174
  653MOL0     C86104   6.936   8.620   1.243 -1.0828  0.4287 -0.4080
  653MOL0     C86105   6.979   8.752   1.306 -0.0621  0.3868 -1.0926
  653MOL0     C86106   6.969   8.727   1.461 -0.6608 -0.9655 -0.2242
  653MOL0     C86107   7.074   8.821   1.542  0.5616  1.2213 -0.9428
  653MOL0    Cl86108   7.005   8.987   1.524  0.2893  0.1912  0.0473
  653MOL0     C86109   7.466   8.457   0.702  0.2555 -0.0827 -0.3915
  653MOL0     C86110   7.596   8.414   0.653  0.0589 -1.1098 -0.9605
  653MOL0     O86111   7.903   8.457   0.735 -0.3992  0.3708  0.2282
  653MOL0     C86112   8.152   8.323   0.704  1.3040 -0.2548 -0.5500
  653MOL0     C86113   8.267   8.250   0.700 -0.9551  0.2231 -1.0431
  653MOL0     N86114   8.678   7.677   1.023  0.8506 -0.1336  0.1028
  653MOL0     N86115   8.745   7.597   1.105 -0.3255 -0.6364  0.3009
  653MOL0     C86116   9.187   7.086   1.669  0.3119  0.4543  0.2381
  653MOL0     C86117   9.114   6.969   1.648 -0.2067 -0.4608 -0.1729
  653MOL0     C86118   8.957   6.557   1.582  0.1325 -0.2649  0.5148
  653MOL0     C86119   8.829   6.514   1.542 -0.0813  0.3101  0.1874
  653MOL0     C86120   8.777   6.384   1.585  0.8500 -0.1581  0.0489
  653MOL0     C86121   8.859   6.299   1.650 -0.7224 -0.6543  0.3948
  653MOL0     O86122   8.826   6.174   1.679  0.4036 -0.8863 -0.2464
  653MOL0     C86123   8.734   6.155   1.784  0.5902 -0.3428  0.5322
  653MOL0     C86124   8.584   6.194   1.773 -0.5397 -0.1613 -0.5712
  653MOL0     C86125   8.527   6.110   1.891  0.3861 -0.1652 -0.4842
  653MOL0     C86126   8.375   6.139   1.921 -0.1310 -0.5689 -1.0484
  653MOL0     C86127   8.349   6.288   1.940 -0.1774 -0.1756 -0.1725
  653MOL0     C86128   8.322   6.396   1.979  0.3475  0.2779 -0.1300
  653MOL0     C86129   8.993   6.344   1.668  0.3410  0.4694 -0.9843
  653MOL0     C86130   9.037   6.467   1.641 -0.6712 -0.5130 -0.4226
  653MOL0     H86131   9.387   6.778   1.573 -1.6329 -0.7166  0.0779
  653MOL0     H86132   9.507   6.991   1.624 -0.5986  1.1367 -3.3062
  653MOL0     H86133   9.230   7.335   1.635  2.1928  1.8459  2.6982
  653MOL0     H86134   9.338   7.299   1.494 -1.0987 -3.2075 -0.0707
  653MOL0     H86135   9.517   7.425   1.598  0.4273  0.0044  1.3785
  653MOL0     H86136   9.418   7.476   1.737 -0.7604  0.3054  0.1937
  653MOL0     H86137   9.431   7.645   1.567  1.8758 -2.3612  2.0718
  653MOL0     H86138   9.269   7.591   1.627 -0.8767 -1.9893 -0.9324
  653MOL0     H86139   9.390   7.528   1.362  1.0134 -2.1749  3.8445
  653MOL0     H86140   9.235   7.469   1.413  2.2094 -2.6633  0.2093
  653MOL0     H86141   9.306   7.771   1.407 -2.4778  2.1572  1.7852
  653MOL0     H86142   9.147   7.715   1.432  2.1327  0.7922  1.1741
  653MOL0     H86143   9.301   7.688   1.188  0.8317  2.5206  0.4839
  653MOL0     H86144   9.172   7.805   1.215  3.1569  1.8265  1.0701
  653MOL0     H86145   9.104   7.614   1.068 -0.0803  0.5002 -0.7942
  653MOL0     H86146   9.157   7.503   1.197  0.6620  0.3533 -1.1053
  653MOL0     H86147   8.944   7.651   1.336 -0.6811 -0.7740  1.4958
  653MOL0     H86148   8.940   7.497   1.244  1.8222  0.2589 -3.2071
  653MOL0     H86149   8.929   7.882   1.100 -0.3529  1.0996  0.0776
  653MOL0     H86150   8.761   8.003   0.955  3.8288 -3.6289  3.4932
  653MOL0     H86151   8.599   7.963   1.001 -1.6496  1.1835 -2.2789
  653MOL0     H86152   8.536   7.846   0.813  0.3352 -1.3289  0.6590
  653MOL0     H86153   8.706   7.821   0.766  1.8454  2.3973 -0.2266
  653MOL0     H86154   8.738   8.060   0.731  2.1936 -3.0385  0.3688
  653MOL0     H86155   8.622   7.996   0.618  3.5196  2.2108 -0.3182
  653MOL0     H86156   8.522   8.198   0.695 -2.3313 -0.7907 -1.0262
  653MOL0     H86157   8.507   8.132   0.859  0.6093 -1.2762  0.2753
  653MOL0     H86158   8.132   7.936   0.711 -0.1725 -0.0395  1.8129
  653MOL0     H86159   7.934   8.058   0.710 -0.0410 -0.9707  1.6163
  653MOL0     H86160   7.643   8.133   0.817  0.9844 -0.0747 -0.1953
  653MOL0     H86161   7.406   8.224   0.931 -1.5126  0.4434 -1.8942
  653MOL0     H86162   7.182   8.553   0.705 -5.7548  1.5063  2.1294
  653MOL0     H86163   7.293   8.637   0.817  2.9665 -2.4962  0.6090
  653MOL0     H86164   7.020   8.511   0.870  2.2019 -2.1216 -0.1961
  653MOL0     H86165   7.048   8.675   0.836 -0.1254 -0.3352  1.1070
  653MOL0     H86166   7.160   8.701   1.063  0.9622  0.5067 -1.3450
  653MOL0     H86167   7.158   8.529   1.083  0.7122  0.5791  1.7653
  653MOL0     H86168   6.901   8.696   1.041 -1.5871 -1.5186  0.1183
  653MOL0     H86169   6.901   8.519   1.061  3.7430 -1.4249 -2.0719
  653MOL0     H86170   6.990   8.540   1.295  1.2085  1.4810 -1.0629
  653MOL0     H86171   6.829   8.614   1.267 -1.5827 -0.1219 -2.5185
  653MOL0     H86172   6.913   8.835   1.279 -2.1772 -1.6718 -2.7248
  653MOL0     H86173   7.079   8.794   1.299 -0.5687  1.4953 -2.0477
  653MOL0     H86174   6.870   8.756   1.498  0.0922  2.1413 -0.3658
  653MOL0     H86175   6.981   8.621   1.483  1.1589 -1.4546 -2.9529
  653MOL0     H86176   7.171   8.800   1.497  0.2681  3.0934 -2.6177
  653MOL0     H86177   7.076   8.794   1.648 -2.6265  2.9829 -0.3031
  653MOL0     H86178   7.446   8.548   0.648  0.1836  0.3508  0.3468
  653MOL0     H86179   7.642   8.485   0.585 -3.8254  2.4147 -0.3484
  653MOL0     H86180   8.166   8.429   0.685  0.4444  0.0078  0.2322
  653MOL0     H86181   8.355   8.308   0.677  0.1874 -1.6940 -1.7470
  653MOL0     H86182   9.122   7.170   1.691  3.2253  2.4586  1.8940
  653MOL0     H86183   9.006   6.969   1.660 -0.3377  1.3164 -0.9630
  653MOL0     H86184   8.758   6.572   1.484 -1.0986 -1.4829 -0.4126
  653MOL0     H86185   8.683   6.356   1.538 -0.0740  3.6792 -0.7167
  653MOL0     H86186   8.781   6.183   1.879  0.1529 -3.4027  1.7639
  653MOL0     H86187   8.735   6.046   1.800  0.7471 -0.6492 -1.3866
  653MOL0     H86188   8.584   6.303   1.785  2.2632  0.0424 -1.5376
  653MOL0     H86189   8.544   6.169   1.675  0.1190  0.4042 -0.9974
  653MOL0     H86190   8.587   6.132   1.980  1.3806 -0.8467 -0.9699
  653MOL0     H86191   8.531   6.003   1.871  0.2907 -0.0515 -1.1284
  653MOL0     H86192   8.311   6.108   1.839  1.0467  3.1087 -3.6642
  653MOL0     H86193   8.365   6.101   2.023 -1.4432  2.7493  0.2031
  653MOL0     H86194   8.296   6.492   2.019 -0.8176  0.0153 -0.2136
  653MOL0     H86195   9.057   6.272   1.719  2.6111  2.6485 -0.6072
  653MOL0     H86196   9.135   6.496   1.678  0.8255 -1.3255 -3.4998
  654MOL0     O86197   2.072   4.287   4.084 -0.4930 -0.1502 -0.1845
  654MOL0     C86198   2.010   4.381   4.040  0.3601  0.5480 -0.7329
  654MOL0     O86199   2.022   4.428   3.917  0.0461 -0.4871  1.0799
  654MOL0     C86200   2.110   4.372   3.825 -0.5830  0.2892 -0.4833
  654MOL0     C86201   2.057   4.280   3.733 -0.8230 -0.8133 -0.0900
  654MOL0     C86202   2.134   4.236   3.623 -0.9011 -0.1346  0.5621
  654MOL0     C86203   2.271   4.277   3.615  0.2101  0.2784 -1.0014
  654MOL0     O86204   2.356   4.235   3.517 -0.3911 -0.4264 -0.4261
  654MOL0     C86205   2.320   4.122   3.436  0.1049  0.2667 -0.8729
  654MOL0     C86206   2.421   4.071   3.322  0.0744  0.3015  0.5055
  654MOL0     C86207   2.493   4.204   3.267 -0.6883  0.3527  0.0723
  654MOL0     C86208   2.542   4.184   3.130  0.3688  0.3160  0.7895
  654MOL0     C86209   2.596   4.321   3.070 -0.1687  0.5216 -0.4779
  654MOL0     C86210   2.665   4.290   2.944  0.0221  0.6387  0.3472
  654MOL0     C86211   2.714   4.422   2.874 -0.1358 -0.3836 -0.5437
  654MOL0     C86212   2.783   4.392   2.740  1.1422  0.0600  0.1979
  654MOL0     N86213   2.854   4.510   2.688  0.0565 -1.2943 -0.0329
  654MOL0     C86214   2.983   4.543   2.706 -0.0752 -0.0669 -0.1197
  654MOL0     C86215   3.001   4.651   2.631  0.8991 -1.1673 -0.2145
  654MOL0     C86216   3.138   4.709   2.599 -0.6874  0.2241  0.0897
  654MOL0     C86217   3.205   4.688   2.451 -0.2313  0.1482 -0.6338
  654MOL0     C86218   3.196   4.536   2.398 -0.7306  0.8865  0.1829
  654MOL0     C86219   3.288   4.510   2.278  0.3736 -0.2691  1.0791
  654MOL0     O86220   3.421   4.480   2.297  0.1132 -0.2566  0.4376
  654MOL0     C86221   3.459   4.355   2.279 -0.6690  0.2456  0.1095
  654MOL0     C86222   3.417   4.255   2.364  0.3362 -0.3274  0.4884
  654MOL0     C86223   3.460   4.129   2.342  0.4063  0.4528 -0.4115
  654MOL0     C86224   3.568   4.103   2.246 -0.1379 -0.0318 -0.5983
  654MOL0     C86225   3.619   3.968   2.217 -1.4760 -0.2011  0.4535
  654MOL0     O86226   3.560   3.862   2.274  0.5108  0.0930  0.8809
  654MOL0     C86227   3.610   3.737   2.255  0.3007 -0.1642 -0.9354
  654MOL0     C86228   3.578   3.657   2.146 -0.5295  0.3469  0.1746
  654MOL0     C86229   3.619   3.525   2.138  0.2010 -0.1268  0.8147
  654MOL0     C86230   3.714   3.479   2.227 -0.3871 -0.6877  0.2400
  654MOL0     O86231   3.739   3.337   2.206  0.2248  0.1826  0.3710
  654MOL0     C86232   3.831   3.273   2.289  0.3759 -0.0950 -0.0326
  654MOL0     C86233   3.896   3.149   2.221 -0.6182 -0.9345  0.5693
  654MOL0     C86234   3.822   3.012   2.254  0.6411  0.1867  0.3248
  654MOL0     C86235   3.909   2.898   2.218  0.1606  0.1151 -0.0261
  654MOL0     C86236   3.844   2.765   2.228  0.4732 -1.2781  0.2976
  654MOL0     C86237   3.939   2.639   2.206 -0.8476  0.8603  0.9175
  654MOL0     C86238   4.024   2.637   2.073 -0.5254 -0.4202  0.0438
  654MOL0     C86239   4.046   2.498   2.014 -0.2512  0.5238  0.1335
  654MOL0    Cl86240   3.895   2.406   1.993  0.4695 -0.0401  0.2566
  654MOL0     C86241   3.750   3.560   2.339 -0.2511 -0.2345 -0.4338
  654MOL0     C86242   3.690   3.682   2.354  0.0500 -0.0225  0.1470
  654MOL0     O86243   3.709   3.955   2.128 -0.5816  0.6137  0.2023
  654MOL0     C86244   3.608   4.210   2.165  1.4395  0.2222 -0.1412
  654MOL0     C86245   3.550   4.335   2.183  0.0107  0.6000 -0.1061
  654MOL0     N86246   2.879   4.695   2.577  0.3512 -0.0780 -0.1179
  654MOL0     N86247   2.797   4.608   2.611  0.0608 -0.5838 -0.4687
  654MOL0     C86248   2.324   4.361   3.714  0.7970  0.7967  0.1101
  654MOL0     C86249   2.244   4.408   3.820 -0.1707 -0.3366  1.0753
  654MOL0     C86250   1.911   4.453   4.127 -0.2852 -0.2893  0.0014
  654MOL0     C86251   1.788   4.507   4.080 -0.8372  0.6537 -0.2413
  654MOL0     C86252   1.712   4.579   4.167 -0.3129  0.7652  0.0368
  654MOL0     C86253   1.741   4.602   4.302  0.3618  0.4132 -0.4686
  654MOL0     O86254   1.653   4.675   4.374  0.2340  0.7475 -0.5197
  654MOL0     C86255   1.549   4.759   4.325  1.6683  0.2856  0.1145
  654MOL0     C86256   1.594   4.890   4.259 -0.0731  0.4472  0.5062
  654MOL0     C86257   1.692   4.956   4.365 -0.1744  0.2838 -0.6506
  654MOL0     C86258   1.692   5.109   4.350 -0.7857 -0.6346  0.0162
  654MOL0     C86259   1.795   5.154   4.249 -0.4442  0.3940 -0.7328
  654MOL0     C86260   1.863   5.206   4.165  0.5121 -1.0668 -0.1399
  654MOL0     C86261   1.861   4.544   4.349  0.9018  1.5073  0.0313
  654MOL0     C86262   1.945   4.472   4.258 -0.2491 -1.1439 -0.6539
  654MOL0     H86263   1.949   4.272   3.735 -0.9722  0.9031  0.2015
  654MOL0     H86264   2.089   4.185   3.538  1.1907  1.3919 -1.6385
  654MOL0     H86265   2.223   4.137   3.387 -0.2063 -0.7692 -0.5985
  654MOL0     H86266   2.298   4.040   3.505 -0.3821  0.0898 -1.2254
  654MOL0     H86267   2.372   4.029   3.234 -0.8921  2.1073  0.1342
  654MOL0     H86268   2.512   4.021   3.355  0.7707 -0.4707 -2.2834
  654MOL0     H86269   2.582   4.228   3.325 -1.1168  1.7986  0.1819
  654MOL0     H86270   2.432   4.295   3.269  0.5199  1.2102 -0.5517
  654MOL0     H86271   2.614   4.105   3.155 -1.5558 -1.4264  1.0804
  654MOL0     H86272   2.472   4.136   3.062  1.4302 -1.9248  1.1808
  654MOL0     H86273   2.672   4.359   3.139 -1.3467  0.8685  0.6736
  654MOL0     H86274   2.517   4.392   3.043 -0.7102  0.0334 -0.1955
  654MOL0     H86275   2.595   4.242   2.875 -1.0233  0.6355  1.3825
  654MOL0     H86276   2.746   4.219   2.965  1.2721  1.8788 -0.0864
  654MOL0     H86277   2.628   4.487   2.852 -1.5045 -2.5953 -2.1221
  654MOL0     H86278   2.789   4.479   2.929  0.8397 -3.5656  1.6905
  654MOL0     H86279   2.706   4.375   2.665  1.6400  1.6887 -0.7290
  654MOL0     H86280   2.852   4.308   2.752  0.9419 -0.0697  0.4456
  654MOL0     H86281   3.067   4.495   2.756 -0.8336 -2.7621 -1.2446
  654MOL0     H86282   3.214   4.676   2.671  0.2432 -0.1437 -1.0208
  654MOL0     H86283   3.136   4.818   2.598  0.1657  0.2531  0.2154
  654MOL0     H86284   3.309   4.721   2.456 -0.5170  1.0406 -0.5872
  654MOL0     H86285   3.146   4.750   2.383 -1.2553  1.3137  1.2375
  654MOL0     H86286   3.227   4.469   2.478  1.9598  3.6081  1.6317
  654MOL0     H86287   3.091   4.511   2.376 -0.8558  0.1395  1.5710
  654MOL0     H86288   3.287   4.595   2.209  1.6726 -0.0472  1.3035
  654MOL0     H86289   3.231   4.432   2.226  0.8718 -1.2123  1.9025
  654MOL0     H86290   3.356   4.275   2.451 -0.3418  2.7570 -0.5428
  654MOL0     H86291   3.433   4.046   2.406  0.0618 -0.1361 -1.3054
  654MOL0     H86292   3.505   3.701   2.079 -0.4813  1.1308  0.6171
  654MOL0     H86293   3.586   3.463   2.055  2.0496  2.5280 -2.1086
  654MOL0     H86294   3.772   3.240   2.375 -1.6589 -1.3577 -1.8188
  654MOL0     H86295   3.913   3.341   2.315  0.4353 -0.0699 -0.2790
  654MOL0     H86296   3.996   3.143   2.265 -0.4324 -1.7393  0.0724
  654MOL0     H86297   3.910   3.166   2.114  0.7739 -0.1817  0.8489
  654MOL0     H86298   3.732   3.008   2.193 -0.4422 -0.5510  1.9035
  654MOL0     H86299   3.786   2.999   2.357 -2.0491 -1.9122 -0.7904
  654MOL0     H86300   3.922   2.906   2.110 -6.2906  0.7933 -1.1552
  654MOL0     H86301   4.000   2.907   2.278  0.5760  1.0034 -0.7678
  654MOL0     H86302   3.760   2.761   2.158  1.2431 -1.6684 -0.6306
  654MOL0     H86303   3.795   2.764   2.326  0.0306  1.8562  0.2081
  654MOL0     H86304   3.881   2.547   2.213 -1.3851  0.9066 -1.6414
  654MOL0     H86305   4.014   2.636   2.286  1.8144 -4.3548 -1.2680
  654MOL0     H86306   3.975   2.703   2.001  1.1311  3.7382  2.4012
  654MOL0     H86307   4.124   2.678   2.088 -0.5340  0.6674 -2.4082
  654MOL0     H86308   4.119   2.449   2.079  3.2588 -0.1973 -3.8499
  654MOL0     H86309   4.090   2.511   1.914 -2.0996  1.3803 -0.6211
  654MOL0     H86310   3.819   3.519   2.412  0.4980  1.1277 -0.3596
  654MOL0     H86311   3.701   3.734   2.448  1.8340  0.1458 -0.1293
  654MOL0     H86312   3.692   4.230   2.099 -0.5982 -0.1466 -3.0098
  654MOL0     H86313   3.593   4.428   2.147  1.1704  0.0972 -0.0534
  654MOL0     H86314   2.420   4.401   3.681  1.0209  0.9068  0.8905
  654MOL0     H86315   2.291   4.485   3.881 -0.1189 -1.8737  3.0681
  654MOL0     H86316   1.752   4.489   3.979 -0.1384 -0.3600 -0.3323
  654MOL0     H86317   1.643   4.651   4.124 -1.0249  1.4488  2.1986
  654MOL0     H86318   1.500   4.783   4.419  0.8584 -0.2951 -0.1481
  654MOL0     H86319   1.489   4.700   4.254  0.4806  0.3416  1.0438
  654MOL0     H86320   1.644   4.862   4.166 -1.3211  0.1139 -0.0893
  654MOL0     H86321   1.508   4.952   4.229  0.5922 -0.4518 -3.8620
  654MOL0     H86322   1.793   4.914   4.359  0.6242  2.0994 -0.6087
  654MOL0     H86323   1.648   4.941   4.464  1.3343  2.1974  0.3862
  654MOL0     H86324   1.592   5.148   4.327  0.3396  1.5555 -1.5016
  654MOL0     H86325   1.723   5.153   4.445 -0.4665  2.0200 -1.2313
  654MOL0     H86326   1.937   5.261   4.110  0.0555  1.9296  2.0066
  654MOL0     H86327   1.899   4.545   4.450 -0.4190 -0.6144  0.6081
  654MOL0     H86328   2.035   4.432   4.303  1.5962  2.6757 -0.5641
  655MOL0     O86329  11.166  10.976  10.808  0.0349 -0.5730 -0.1750
  655MOL0     C86330  11.230  11.042  10.892 -0.7267 -0.5087 -0.1866
  655MOL0     O86331  11.204  11.170  10.918 -1.0144 -0.5950  0.1770
  655MOL0     C86332  11.121  11.259  10.853  0.3904 -0.0639  0.2209
  655MOL0     C86333  11.084  11.374  10.912 -0.0732 -0.1561 -0.3926
  655MOL0     C86334  10.998  11.470  10.863  0.4541  0.4623  1.0410
  655MOL0     C86335  10.961  11.451  10.722 -0.0732 -0.3311 -0.0795
  655MOL0     O86336  10.893  11.547  10.653 -0.5444  0.6859  0.0352
  655MOL0     C86337  10.844  11.679  10.696  0.2807  0.1339  0.0828
  655MOL0     C86338  10.788  11.754  10.593 -0.8680 -0.2737  0.9000
  655MOL0     C86339  10.637  11.728  10.556  0.1463 -0.6685 -0.8331
  655MOL0     C86340  10.573  11.595  10.598 -1.2159 -0.4528 -0.3027
  655MOL0     C86341  10.430  11.595  10.557  0.3193  0.6503  0.6825
  655MOL0     C86342  10.379  11.447  10.577 -0.4467  0.7034 -0.2498
  655MOL0     C86343  10.276  11.422  10.460 -0.0666  0.3882  0.3904
  655MOL0     C86344  10.143  11.500  10.473  0.2316  0.4468  0.3661
  655MOL0     N86345  10.064  11.464  10.591  0.4374 -0.1436 -1.6970
  655MOL0     C86346  10.008  11.341  10.606 -0.1466  0.8782 -0.1539
  655MOL0     C86347   9.927  11.354  10.711  0.2200 -0.2883 -0.1175
  655MOL0     C86348   9.846  11.236  10.773 -0.0542 -0.0270 -0.5665
  655MOL0     C86349   9.916  11.112  10.819 -0.4394 -0.3597  0.5897
  655MOL0     C86350   9.816  10.994  10.823 -0.0852  0.0245  0.5231
  655MOL0     C86351   9.856  10.891  10.932  0.5608 -0.4697 -0.1734
  655MOL0     O86352   9.769  10.775  10.925  0.6400 -0.4707 -0.6788
  655MOL0     C86353   9.648  10.770  10.997 -0.6277  0.0466  0.6024
  655MOL0     C86354   9.589  10.878  11.058 -0.0419  0.0794  0.3153
  655MOL0     C86355   9.461  10.871  11.110 -0.2221 -0.0889  0.0837
  655MOL0     C86356   9.408  10.747  11.136  0.0787 -0.0933 -0.2629
  655MOL0     C86357   9.277  10.731  11.205 -0.7066 -0.9712 -0.5426
  655MOL0     O86358   9.189  10.631  11.165 -0.3586 -0.6597 -0.4527
  655MOL0     C86359   9.049  10.646  11.173  0.5451  0.1741  0.2698
  655MOL0     C86360   8.978  10.763  11.187 -0.2649 -0.6128  0.7004
  655MOL0     C86361   8.835  10.762  11.184 -0.1378  0.9952  0.3069
  655MOL0     C86362   8.761  10.628  11.186  0.0053 -0.0374  0.1125
  655MOL0     O86363   8.622  10.612  11.188 -0.0732 -0.5371 -1.0432
  655MOL0     C86364   8.536  10.726  11.194  0.3527 -0.1084  0.9340
  655MOL0     C86365   8.403  10.698  11.261  0.9448 -0.1381 -1.5637
  655MOL0     C86366   8.323  10.590  11.185  0.8039  0.3869 -0.7528
  655MOL0     C86367   8.188  10.553  11.261 -0.8439 -0.6599 -0.8247
  655MOL0     C86368   8.128  10.429  11.193  0.6002  0.5469  0.3250
  655MOL0     C86369   7.989  10.432  11.241  0.0767  0.2809  0.3052
  655MOL0     C86370   7.938  10.288  11.223 -0.3730  0.0851  0.3686
  655MOL0     C86371   7.811  10.278  11.303  0.6592 -0.2463  0.1055
  655MOL0    Cl86372   7.837  10.272  11.478  0.2946 -0.2296  0.2793
  655MOL0     C86373   8.838  10.512  11.173  0.3705  0.4464 -0.0347
  655MOL0     C86374   8.975  10.524  11.166 -0.3564  0.0321 -1.5423
  655MOL0     O86375   9.256  10.821  11.286  0.3104 -0.1023  0.8188
  655MOL0     C86376   9.482  10.638  11.096 -0.3930 -0.2461  0.4015
  655MOL0     C86377   9.593  10.652  11.022 -0.4078  0.2586 -0.5978
  655MOL0     N86378   9.932  11.483  10.763 -0.2390 -0.2984  0.3803
  655MOL0     N86379  10.026  11.546  10.691  0.8880  0.5336  0.2082
  655MOL0     C86380  11.001  11.338  10.652  0.3037  0.1966 -0.2673
  655MOL0     C86381  11.069  11.239  10.722 -0.8479 -0.3120 -0.5422
  655MOL0     C86382  11.349  10.984  10.953 -0.3458  0.7794 -0.1939
  655MOL0     C86383  11.449  11.065  11.001 -0.1534  0.2286  0.0197
  655MOL0     C86384  11.573  11.016  11.051 -0.5152  0.5251 -0.2960
  655MOL0     C86385  11.596  10.878  11.057 -0.4164  0.2747 -0.1038
  655MOL0     O86386  11.707  10.837  11.122  0.2511 -0.4596  0.2475
  655MOL0     C86387  11.731  10.699  11.165  0.5798  0.8291  0.3946
  655MOL0     C86388  11.632  10.655  11.270 -0.1740 -0.2945  0.4086
  655MOL0     C86389  11.661  10.521  11.326  0.5928  0.5459  0.0656
  655MOL0     C86390  11.535  10.459  11.393 -0.7170  0.1028  0.6923
  655MOL0     C86391  11.515  10.525  11.515 -0.1041 -0.8886 -0.5646
  655MOL0     C86392  11.500  10.583  11.619  0.4998 -0.6712  1.7421
  655MOL0     C86393  11.505  10.802  10.994  1.1304 -0.2127 -0.5849
  655MOL0     C86394  11.381  10.849  10.941 -1.8903 -0.2608 -0.1227
  655MOL0     H86395  11.125  11.382  11.012  1.9441 -0.6492 -1.1161
  655MOL0     H86396  10.957  11.556  10.915  1.3862  1.7096 -0.2420
  655MOL0     H86397  10.936  11.719  10.741  1.3543 -2.1797  0.0797
  655MOL0     H86398  10.780  11.672  10.785 -1.1219 -0.8580 -0.9604
  655MOL0     H86399  10.846  11.715  10.510 -3.4742 -2.8470  0.0952
  655MOL0     H86400  10.801  11.863  10.596  0.8057 -0.3545 -1.3606
  655MOL0     H86401  10.632  11.742  10.448 -0.1659 -1.1471 -0.8826
  655MOL0     H86402  10.580  11.808  10.604 -0.3621 -1.6774  0.3189
  655MOL0     H86403  10.628  11.519  10.543  0.0238  0.0952  0.1412
  655MOL0     H86404  10.582  11.578  10.706  0.1415  2.5249  0.1658
  655MOL0     H86405  10.422  11.616  10.450  3.0799  0.5358  0.3817
  655MOL0     H86406  10.367  11.666  10.612 -1.5415  0.0827 -0.5926
  655MOL0     H86407  10.320  11.435  10.668 -1.8991  2.8779 -0.8414
  655MOL0     H86408  10.466  11.380  10.571  1.6679  3.3415 -1.4096
  655MOL0     H86409  10.314  11.438  10.359 -0.7311 -0.1642  0.0385
  655MOL0     H86410  10.244  11.318  10.467 -2.3810  1.0174 -0.1293
  655MOL0     H86411  10.079  11.470  10.389  0.5123  0.3423  0.1867
  655MOL0     H86412  10.159  11.607  10.455  1.4255  0.1242 -0.6490
  655MOL0     H86413  10.034  11.251  10.551  0.8020  0.0686  1.5529
  655MOL0     H86414   9.776  11.208  10.693  0.9057  0.2389 -1.5132
  655MOL0     H86415   9.771  11.268  10.846  1.3026  0.2090  0.7771
  655MOL0     H86416   9.952  11.134  10.920 -0.6656  0.2567  0.5354
  655MOL0     H86417   9.992  11.096  10.742  0.0697 -0.2043  1.0575
  655MOL0     H86418   9.720  11.043  10.844 -1.4577 -1.9869 -0.8025
  655MOL0     H86419   9.815  10.944  10.726  1.9900  1.1678 -0.1467
  655MOL0     H86420   9.846  10.943  11.028 -3.4466  2.1676 -1.7138
  655MOL0     H86421   9.958  10.858  10.914  0.5812  0.1444 -1.2925
  655MOL0     H86422   9.628  10.978  11.046 -1.1393  0.4666 -0.1101
  655MOL0     H86423   9.403  10.960  11.133  0.8352  0.4218  0.8645
  655MOL0     H86424   9.027  10.860  11.190  1.1676 -1.2467 -0.9755
  655MOL0     H86425   8.783  10.856  11.168  0.7906  2.2353  3.6326
  655MOL0     H86426   8.507  10.754  11.092  0.4415 -1.0586  0.6445
  655MOL0     H86427   8.583  10.818  11.231 -1.7349  1.5987 -0.4394
  655MOL0     H86428   8.349  10.792  11.276 -1.4661 -1.8774  2.3626
  655MOL0     H86429   8.417  10.673  11.367  1.0974 -0.8691 -1.7502
  655MOL0     H86430   8.376  10.494  11.183 -0.9373 -0.6315  0.0407
  655MOL0     H86431   8.300  10.627  11.085 -0.3409 -0.5276 -0.8418
  655MOL0     H86432   8.195  10.547  11.370 -0.8495 -0.2341 -0.8000
  655MOL0     H86433   8.121  10.634  11.230  0.0857 -0.0266 -1.2333
  655MOL0     H86434   8.176  10.341  11.236 -2.8850 -1.2838  0.8363
  655MOL0     H86435   8.129  10.433  11.083 -2.0096  3.4227  0.2535
  655MOL0     H86436   7.927  10.505  11.189  0.8887 -0.3015 -1.5829
  655MOL0     H86437   7.996  10.455  11.347  1.7922 -1.6035  0.6634
  655MOL0     H86438   7.928  10.273  11.116  1.2783  1.3878  0.0011
  655MOL0     H86439   8.008  10.211  11.255 -1.0377 -0.5987  0.1905
  655MOL0     H86440   7.750  10.191  11.274  0.8026 -0.8564  1.5670
  655MOL0     H86441   7.744  10.360  11.277  1.4739 -0.0744 -1.6253
  655MOL0     H86442   8.795  10.413  11.163 -1.8600  1.2056  1.2018
  655MOL0     H86443   9.037  10.434  11.163  0.9778  0.9527 -3.5458
  655MOL0     H86444   9.446  10.539  11.121  0.4593  0.1177  3.6303
  655MOL0     H86445   9.646  10.564  10.986 -0.2200 -0.4547  1.3218
  655MOL0     H86446  10.965  11.341  10.549  1.2435 -0.3552 -0.6226
  655MOL0     H86447  11.083  11.154  10.656 -2.0538 -0.8928 -0.0690
  655MOL0     H86448  11.436  11.172  10.995  1.5572  0.4934  0.5906
  655MOL0     H86449  11.638  11.093  11.089  0.0365  0.4133 -0.9922
  655MOL0     H86450  11.834  10.693  11.200  0.3826  0.0036  0.8843
  655MOL0     H86451  11.731  10.638  11.074 -1.8385  1.7954 -0.3335
  655MOL0     H86452  11.644  10.727  11.352 -2.2881 -0.9990  1.3911
  655MOL0     H86453  11.530  10.661  11.232 -0.5817  1.0144  1.6340
  655MOL0     H86454  11.742  10.528  11.400 -0.0804  0.8737  0.7917
  655MOL0     H86455  11.697  10.443  11.258  0.5721  0.9949 -0.4656
  655MOL0     H86456  11.443  10.463  11.334 -0.1898  0.5339 -0.1091
  655MOL0     H86457  11.558  10.354  11.413 -0.1628 -0.4365 -2.3244
  655MOL0     H86458  11.484  10.632  11.713 -0.3697  1.5656  0.4978
  655MOL0     H86459  11.512  10.695  10.984 -3.1381 -0.5299 -2.7009
  655MOL0     H86460  11.306  10.786  10.895 -0.4038 -1.1335 -1.4549
  656MOL0     O86461   3.241   1.950   0.616  0.6811 -0.7374  0.2810
  656MOL0     C86462   3.315   1.938   0.716  0.0699  1.7384 -0.4433
  656MOL0     O86463   3.373   1.816   0.751  0.2835  0.8317 -0.5429
  656MOL0     C86464   3.387   1.716   0.662 -0.2339  0.3794 -0.6684
  656MOL0     C86465   3.289   1.610   0.647 -0.6968 -0.2948 -0.1433
  656MOL0     C86466   3.319   1.501   0.556  0.5000 -0.5180  0.7223
  656MOL0     C86467   3.439   1.507   0.475  0.4577 -0.0422 -0.2538
  656MOL0     O86468   3.451   1.414   0.377  0.6363  0.3259 -0.4328
  656MOL0     C86469   3.568   1.400   0.282  0.4035 -0.3515  0.8123
  656MOL0     C86470   3.555   1.287   0.182  1.1657  0.5985  0.9884
  656MOL0     C86471   3.677   1.301   0.089 -0.6192 -0.7188 -0.8264
  656MOL0     C86472   3.815   1.296   0.156  0.4002  0.0341  0.2686
  656MOL0     C86473   3.853   1.165   0.239 -1.0169  0.9389  0.0765
  656MOL0     C86474   3.984   1.178   0.312 -0.2935 -0.0766 -0.1933
  656MOL0     C86475   3.965   1.250   0.449 -0.7491  0.4379  0.6308
  656MOL0     C86476   3.937   1.146   0.560  0.0298 -0.1720 -0.4704
  656MOL0     N86477   3.878   1.213   0.677  0.7470 -0.0547 -0.9589
  656MOL0     C86478   3.749   1.269   0.682  0.2189  0.5966  0.7300
  656MOL0     C86479   3.745   1.349   0.790  1.0151  0.0813 -0.4888
  656MOL0     C86480   3.627   1.435   0.845 -0.4350  0.2731  0.2582
  656MOL0     C86481   3.512   1.347   0.888  0.0640 -0.8107 -0.5167
  656MOL0     C86482   3.523   1.263   1.021 -1.1544 -0.4959  0.4505
  656MOL0     C86483   3.595   1.338   1.135 -0.4857 -0.6010  0.0089
  656MOL0     O86484   3.527   1.468   1.135 -0.1547 -0.0519  0.3712
  656MOL0     C86485   3.591   1.563   1.212  0.4671  0.1338  0.8586
  656MOL0     C86486   3.658   1.532   1.328  0.3374  0.1717  1.0888
  656MOL0     C86487   3.711   1.622   1.416  0.4233  0.3808 -0.5300
  656MOL0     C86488   3.706   1.761   1.393  0.0683  0.1540  0.2915
  656MOL0     C86489   3.771   1.860   1.479 -0.2479  0.1757  0.8139
  656MOL0     O86490   3.810   1.806   1.602 -0.2049  0.2256  0.1434
  656MOL0     C86491   3.890   1.888   1.680 -0.5090  0.1212  0.3362
  656MOL0     C86492   4.029   1.859   1.691  0.2333 -0.9964 -0.1022
  656MOL0     C86493   4.111   1.930   1.776 -1.1742 -0.3726  0.0830
  656MOL0     C86494   4.067   2.036   1.862  0.3930  2.1466 -0.4823
  656MOL0     O86495   4.146   2.088   1.966 -0.0882 -0.4851  0.1611
  656MOL0     C86496   4.279   2.035   1.981 -0.2978 -0.6994 -0.1342
  656MOL0     C86497   4.356   2.109   2.091  0.8080  0.3200 -0.5740
  656MOL0     C86498   4.387   2.258   2.053  0.0646  0.5998 -0.5790
  656MOL0     C86499   4.509   2.306   2.136 -0.4777  0.2940 -0.3690
  656MOL0     C86500   4.548   2.450   2.122 -0.3681  0.3843  0.0834
  656MOL0     C86501   4.599   2.479   1.977  0.7186 -0.8662  0.7712
  656MOL0     C86502   4.680   2.604   1.962 -0.8571 -0.7021  0.9348
  656MOL0     C86503   4.749   2.615   1.828 -0.0131 -0.4487  1.1192
  656MOL0    Cl86504   4.643   2.683   1.701 -0.0381  0.1252 -0.0723
  656MOL0     C86505   3.927   2.065   1.854 -0.1291 -0.5980  0.3098
  656MOL0     C86506   3.839   1.983   1.769  1.5037  0.5640  1.0647
  656MOL0     O86507   3.779   1.979   1.442  0.0232 -0.4188  0.5302
  656MOL0     C86508   3.639   1.797   1.270  0.1005 -0.4141 -0.5303
  656MOL0     C86509   3.575   1.702   1.188 -0.2575 -0.0541 -0.5498
  656MOL0     N86510   3.862   1.331   0.859 -0.5044 -0.0142  0.9080
  656MOL0     N86511   3.942   1.246   0.795 -0.8979  0.9511  0.1087
  656MOL0     C86512   3.534   1.611   0.495 -0.1642 -0.1043 -0.3142
  656MOL0     C86513   3.513   1.713   0.591 -0.0643 -0.3299 -0.0575
  656MOL0     C86514   3.328   2.035   0.810  0.8323  0.0497  1.0895
  656MOL0     C86515   3.415   2.021   0.913 -0.0997 -0.6224 -0.2755
  656MOL0     C86516   3.437   2.122   1.006 -0.1125  0.3119 -0.7618
  656MOL0     C86517   3.381   2.250   0.999  0.1809  0.7901 -0.3877
  656MOL0     O86518   3.396   2.335   1.105  0.0078 -0.3368  0.5197
  656MOL0     C86519   3.315   2.453   1.114 -0.3140 -0.7469  0.0189
  656MOL0     C86520   3.360   2.531   1.234 -0.0313 -1.0185  0.7047
  656MOL0     C86521   3.307   2.676   1.241  0.4528  0.1861 -0.0593
  656MOL0     C86522   3.299   2.732   1.385  0.3318  0.2065 -0.7841
  656MOL0     C86523   3.432   2.778   1.424 -0.9669 -1.1139  0.3145
  656MOL0     C86524   3.536   2.842   1.425  0.3592 -0.2715  0.3174
  656MOL0     C86525   3.291   2.266   0.895 -0.3326  0.3161 -0.0806
  656MOL0     C86526   3.257   2.161   0.798  0.4740 -0.2675 -1.2609
  656MOL0     H86527   3.202   1.627   0.710 -0.4656  0.9362 -0.1349
  656MOL0     H86528   3.245   1.423   0.541  0.3971  0.0426 -2.2697
  656MOL0     H86529   3.665   1.395   0.333  2.5911  0.8912 -2.8758
  656MOL0     H86530   3.556   1.491   0.222 -0.6248  1.0523  3.0063
  656MOL0     H86531   3.462   1.287   0.125 -0.0770 -0.5055  2.9311
  656MOL0     H86532   3.558   1.187   0.225  0.4970 -1.1281 -2.5905
  656MOL0     H86533   3.663   1.395   0.035 -0.0109 -1.0466 -1.5772
  656MOL0     H86534   3.669   1.221   0.015 -0.0596 -0.6785 -0.9367
  656MOL0     H86535   3.888   1.312   0.076  1.5717 -2.2109  0.8013
  656MOL0     H86536   3.829   1.382   0.223  0.2705 -2.3817  3.6619
  656MOL0     H86537   3.865   1.082   0.169  2.7833  1.9805 -0.7060
  656MOL0     H86538   3.769   1.146   0.307 -0.0603  0.4434  1.1440
  656MOL0     H86539   4.062   1.232   0.257 -0.3502  1.3515  1.0818
  656MOL0     H86540   4.011   1.074   0.331 -0.8428 -0.9107 -3.3468
  656MOL0     H86541   4.059   1.303   0.472  0.7913 -2.1285  0.6009
  656MOL0     H86542   3.884   1.324   0.442  0.0673  1.6534  2.9122
  656MOL0     H86543   4.031   1.104   0.594  0.2243 -0.6969 -1.6007
  656MOL0     H86544   3.868   1.071   0.520 -0.1918  1.4375 -3.3741
  656MOL0     H86545   3.678   1.245   0.604 -1.1206  0.0965  2.0375
  656MOL0     H86546   3.599   1.509   0.769  0.8951  1.9175  1.2838
  656MOL0     H86547   3.658   1.500   0.927 -1.7795 -1.6377  2.3901
  656MOL0     H86548   3.494   1.279   0.804  1.0080 -2.4488  0.5591
  656MOL0     H86549   3.421   1.407   0.895  1.3020  0.9952  1.2731
  656MOL0     H86550   3.426   1.223   1.048 -2.4570  0.9939 -1.7068
  656MOL0     H86551   3.592   1.179   1.011 -0.3547 -0.2009  2.8350
  656MOL0     H86552   3.704   1.343   1.122 -0.4862 -3.5759 -2.1058
  656MOL0     H86553   3.575   1.286   1.229  1.3220 -0.3158  0.6047
  656MOL0     H86554   3.659   1.430   1.363 -1.3681 -0.3827 -0.2983
  656MOL0     H86555   3.760   1.588   1.507 -0.2733  0.3304 -0.1654
  656MOL0     H86556   4.073   1.780   1.631  1.2738  1.5904 -3.0050
  656MOL0     H86557   4.217   1.903   1.774 -1.1353 -0.6728  2.8379
  656MOL0     H86558   4.332   2.043   1.886  0.4878 -1.9409  0.1750
  656MOL0     H86559   4.276   1.929   2.008 -1.3743 -0.2875  1.5245
  656MOL0     H86560   4.451   2.058   2.109  0.1817 -0.0862  1.8615
  656MOL0     H86561   4.302   2.107   2.186  0.5550 -2.0306 -0.7212
  656MOL0     H86562   4.299   2.322   2.063  0.2831  0.5243  3.1746
  656MOL0     H86563   4.421   2.266   1.949  2.5107  0.2216  0.1212
  656MOL0     H86564   4.492   2.290   2.243 -1.1376 -0.2930 -0.5580
  656MOL0     H86565   4.588   2.239   2.101 -2.4448 -2.2831 -0.1837
  656MOL0     H86566   4.621   2.476   2.200  0.2823 -0.2518 -0.3014
  656MOL0     H86567   4.458   2.509   2.142 -0.9163  0.4741 -2.3422
  656MOL0     H86568   4.508   2.483   1.915  1.8206  0.8725 -0.8347
  656MOL0     H86569   4.658   2.391   1.950  0.6101 -0.9883  0.9284
  656MOL0     H86570   4.607   2.683   1.980  0.0733  0.9198 -1.7581
  656MOL0     H86571   4.759   2.601   2.037  1.5184  1.4786 -1.2483
  656MOL0     H86572   4.774   2.514   1.795  0.5502  0.8254 -2.8309
  656MOL0     H86573   4.846   2.665   1.841 -0.1709  0.4211 -0.8182
  656MOL0     H86574   3.873   2.126   1.925  1.4898  0.9175  0.3069
  656MOL0     H86575   3.735   2.012   1.782 -0.4937 -3.2416 -3.6052
  656MOL0     H86576   3.634   1.903   1.247 -3.1503 -0.5433 -0.9453
  656MOL0     H86577   3.517   1.740   1.104 -2.8036 -0.2186  1.0450
  656MOL0     H86578   3.620   1.615   0.428  1.1037 -1.8609  1.1115
  656MOL0     H86579   3.589   1.789   0.608 -1.9468  2.0472 -1.6635
  656MOL0     H86580   3.473   1.930   0.923 -0.0410 -0.7160 -1.3571
  656MOL0     H86581   3.505   2.102   1.088  1.3203  1.2970 -1.6606
  656MOL0     H86582   3.212   2.418   1.117  0.2089 -2.6743 -1.8154
  656MOL0     H86583   3.321   2.523   1.031 -1.7579  2.6216  2.5317
  656MOL0     H86584   3.323   2.470   1.318 -0.1785 -2.2639 -0.2331
  656MOL0     H86585   3.469   2.521   1.243  0.0870 -3.5516 -2.0578
  656MOL0     H86586   3.203   2.687   1.208  0.1551  2.6059  1.3961
  656MOL0     H86587   3.367   2.741   1.175  0.0322  0.1528 -0.4773
  656MOL0     H86588   3.223   2.810   1.397  0.5208  0.0452  2.6933
  656MOL0     H86589   3.257   2.652   1.447 -1.0111  2.8614  2.0286
  656MOL0     H86590   3.605   2.923   1.431 -3.6750  3.6950 -0.9649
  656MOL0     H86591   3.241   2.362   0.890 -1.9641 -0.5580 -1.9359
  656MOL0     H86592   3.182   2.178   0.721  0.5926  1.3953 -1.0525
  657MOL0     O86593   2.132   1.863   7.921 -0.1498 -0.1971 -0.1656
  657MOL0     C86594   2.183   1.797   7.833 -0.4179 -0.6256 -0.0560
  657MOL0     O86595   2.202   1.842   7.713 -0.2331  0.4811  0.2189
  657MOL0     C86596   2.159   1.966   7.667 -0.1707  0.4570 -0.3200
  657MOL0     C86597   2.249   2.043   7.589  0.3887 -0.7553  0.1471
  657MOL0     C86598   2.226   2.171   7.551  0.0280  0.4983  0.9077
  657MOL0     C86599   2.113   2.239   7.608  0.1257 -1.4592 -0.3255
  657MOL0     O86600   2.085   2.367   7.580  0.2132 -0.1671 -0.3098
  657MOL0     C86601   2.179   2.457   7.514  0.1420  0.6511 -0.3200
  657MOL0     C86602   2.168   2.449   7.358  0.0106  0.2844 -0.5480
  657MOL0     C86603   2.026   2.472   7.314 -0.3475  0.8393  0.1367
  657MOL0     C86604   1.964   2.595   7.371  0.7628  0.7378  0.0498
  657MOL0     C86605   1.875   2.674   7.267 -0.4382  0.6856 -0.4995
  657MOL0     C86606   1.765   2.597   7.209 -0.1128 -0.4963 -0.4437
  657MOL0     C86607   1.643   2.578   7.304 -0.2916 -0.0160  0.5733
  657MOL0     C86608   1.503   2.559   7.231 -0.6694  0.2703  0.5744
  657MOL0     N86609   1.403   2.459   7.291  0.0484 -1.1200 -0.0154
  657MOL0     C86610   1.439   2.332   7.316 -0.2831  0.0422 -0.0720
  657MOL0     C86611   1.342   2.278   7.395 -0.5532 -0.4243 -0.1928
  657MOL0     C86612   1.329   2.134   7.433 -0.1110  0.0262  0.8342
  657MOL0     C86613   1.460   2.057   7.452 -0.2276  0.8152  1.1371
  657MOL0     C86614   1.432   1.930   7.541 -0.4445 -0.5646 -0.3778
  657MOL0     C86615   1.563   1.860   7.576 -0.0771 -1.2236 -0.4643
  657MOL0     O86616   1.531   1.734   7.634  0.3427  0.5510 -0.3434
  657MOL0     C86617   1.502   1.717   7.767 -0.1603 -0.1931 -0.0557
  657MOL0     C86618   1.462   1.810   7.856 -0.6560  0.2032  0.2402
  657MOL0     C86619   1.415   1.771   7.986 -0.5099 -0.4880 -0.5544
  657MOL0     C86620   1.414   1.647   8.038 -0.7160 -0.5452  0.7194
  657MOL0     C86621   1.376   1.612   8.173  0.6455 -0.5363 -0.1995
  657MOL0     O86622   1.409   1.488   8.207  0.1712 -0.1119 -0.1262
  657MOL0     C86623   1.421   1.454   8.346  1.1116 -0.0671 -0.1282
  657MOL0     C86624   1.401   1.319   8.375  0.1308 -1.1157  0.5164
  657MOL0     C86625   1.422   1.280   8.506  0.3023  0.1658 -0.3901
  657MOL0     C86626   1.465   1.371   8.601 -0.0892 -0.1198 -0.2874
  657MOL0     O86627   1.481   1.337   8.732 -0.2321  0.6999 -0.3480
  657MOL0     C86628   1.606   1.280   8.771  0.4538  0.4200 -0.6021
  657MOL0     C86629   1.662   1.169   8.685  0.4944 -0.6993 -1.4906
  657MOL0     C86630   1.592   1.036   8.716 -0.2192 -0.0518 -0.0379
  657MOL0     C86631   1.641   0.922   8.625 -0.1694  0.5546  0.4547
  657MOL0     C86632   1.605   0.781   8.671  0.5617 -0.1023 -0.1803
  657MOL0     C86633   1.726   0.730   8.758 -0.7376  0.6714  0.6256
  657MOL0     C86634   1.720   0.575   8.788  0.4428  0.0094 -0.3522
  657MOL0     C86635   1.769   0.524   8.909  0.5769 -0.4025 -1.2478
  657MOL0    Cl86636   1.693   0.596   9.050  0.4289  0.2161 -0.3988
  657MOL0     C86637   1.486   1.497   8.574 -0.6954 -1.4654  0.2585
  657MOL0     C86638   1.463   1.549   8.443  0.6710  0.4803 -0.7215
  657MOL0     O86639   1.308   1.684   8.241  0.0494 -0.3767  0.4032
  657MOL0     C86640   1.457   1.550   7.942  0.5634 -0.1640  0.3781
  657MOL0     C86641   1.498   1.584   7.810 -1.3246  0.5699 -0.0808
  657MOL0     N86642   1.242   2.373   7.410  0.4460 -0.6076  0.0844
  657MOL0     N86643   1.289   2.488   7.351  0.5943  0.2830  0.2759
  657MOL0     C86644   2.024   2.167   7.686  0.0851  0.1204 -0.1492
  657MOL0     C86645   2.048   2.036   7.717 -0.4510 -0.9059 -0.5093
  657MOL0     C86646   2.221   1.663   7.871 -0.8242  0.0385  0.8519
  657MOL0     C86647   2.200   1.613   8.001 -0.2844  0.3664  0.1064
  657MOL0     C86648   2.254   1.483   8.036  0.2370 -0.0273 -0.3292
  657MOL0     C86649   2.328   1.404   7.945 -0.1106 -0.1753  0.9303
  657MOL0     O86650   2.360   1.272   7.957 -0.0724 -0.5029  0.2866
  657MOL0     C86651   2.320   1.197   8.072 -0.4398  0.0404 -0.3327
  657MOL0     C86652   2.219   1.093   8.028 -0.0951 -0.3155 -0.3495
  657MOL0     C86653   2.145   1.031   8.154  0.8209 -0.0533 -0.1770
  657MOL0     C86654   2.049   0.929   8.107 -0.1380 -0.4130 -0.1053
  657MOL0     C86655   2.131   0.814   8.064  0.0950  0.4025 -0.0460
  657MOL0     C86656   2.195   0.721   8.025  0.6030  0.2627 -0.7332
  657MOL0     C86657   2.352   1.460   7.823 -0.5343  0.1864 -0.1205
  657MOL0     C86658   2.290   1.581   7.782 -0.7042  0.8282  0.0872
  657MOL0     H86659   2.343   2.000   7.558  0.9932  2.0023 -2.2950
  657MOL0     H86660   2.292   2.220   7.481 -0.0371 -0.3976  0.2018
  657MOL0     H86661   2.281   2.438   7.549 -0.1826 -2.5391 -0.8176
  657MOL0     H86662   2.150   2.558   7.544 -4.1715  0.8302 -4.0522
  657MOL0     H86663   2.209   2.351   7.332  0.1686  0.0257  0.6125
  657MOL0     H86664   2.226   2.534   7.321 -2.8239  2.9040  0.6177
  657MOL0     H86665   1.961   2.388   7.340  4.1507 -2.3924  2.4179
  657MOL0     H86666   2.014   2.471   7.205 -1.4764  0.8763  0.2496
  657MOL0     H86667   1.896   2.572   7.454 -0.7016  2.7932 -0.4927
  657MOL0     H86668   2.039   2.666   7.406  1.0504  0.3219  0.2845
  657MOL0     H86669   1.929   2.712   7.180  1.3229  2.1004  1.1365
  657MOL0     H86670   1.845   2.767   7.316 -1.9801  0.0309 -0.1377
  657MOL0     H86671   1.799   2.501   7.169  0.9778 -0.2958 -0.0289
  657MOL0     H86672   1.732   2.648   7.118 -1.7133  1.9696  1.4038
  657MOL0     H86673   1.682   2.490   7.356  2.8176  1.1774  0.4716
  657MOL0     H86674   1.644   2.666   7.369  2.2929 -0.9044  1.8495
  657MOL0     H86675   1.528   2.533   7.127 -2.4420  0.4535  0.0703
  657MOL0     H86676   1.463   2.660   7.226 -0.7755  0.1956 -2.7413
  657MOL0     H86677   1.516   2.278   7.261 -0.4871 -0.6066  0.2697
  657MOL0     H86678   1.274   2.088   7.351 -2.1958  0.7091  1.7730
  657MOL0     H86679   1.263   2.125   7.520 -0.1413 -1.6532  0.6659
  657MOL0     H86680   1.529   2.124   7.505  0.0055  1.0177  0.5853
  657MOL0     H86681   1.498   2.033   7.352 -2.2685 -0.2718  0.5684
  657MOL0     H86682   1.370   1.960   7.626 -1.0251 -0.9648 -0.6530
  657MOL0     H86683   1.360   1.867   7.488 -1.0470 -2.1787  2.2265
  657MOL0     H86684   1.639   1.911   7.636  3.3216 -5.4462 -0.6489
  657MOL0     H86685   1.618   1.838   7.484  3.1876  1.5251  0.6049
  657MOL0     H86686   1.460   1.917   7.836 -0.2519  0.0639 -0.5471
  657MOL0     H86687   1.373   1.852   8.046 -0.9808 -2.3009  1.7177
  657MOL0     H86688   1.368   1.256   8.293 -0.1525 -0.1765 -0.1131
  657MOL0     H86689   1.411   1.177   8.539 -1.6015  0.5934  0.4855
  657MOL0     H86690   1.593   1.254   8.877 -2.3392 -0.3438 -1.0613
  657MOL0     H86691   1.683   1.358   8.767  0.8648  0.1264  1.0245
  657MOL0     H86692   1.770   1.166   8.700  0.1964 -0.0986  1.4601
  657MOL0     H86693   1.648   1.183   8.578 -1.2135 -1.9254 -1.4771
  657MOL0     H86694   1.486   1.043   8.690  0.6059  2.8248 -3.3721
  657MOL0     H86695   1.607   1.003   8.819  2.1273 -3.6885 -1.3521
  657MOL0     H86696   1.606   0.929   8.522 -2.2038 -2.4199  0.8010
  657MOL0     H86697   1.750   0.930   8.619 -0.1714  0.6996  0.5977
  657MOL0     H86698   1.593   0.726   8.578 -1.1867  5.1184 -3.4697
  657MOL0     H86699   1.507   0.786   8.720  0.2844  3.4297 -0.8934
  657MOL0     H86700   1.721   0.795   8.845 -0.8204 -0.0654  1.1841
  657MOL0     H86701   1.824   0.744   8.713 -0.2761 -2.4839  0.4285
  657MOL0     H86702   1.615   0.546   8.780  0.8938 -1.7027 -0.2820
  657MOL0     H86703   1.777   0.517   8.715  3.8086 -1.4982  3.1678
  657MOL0     H86704   1.875   0.548   8.919 -0.2487  3.4031  0.1858
  657MOL0     H86705   1.758   0.415   8.915  0.8155 -0.3907  4.3321
  657MOL0     H86706   1.532   1.563   8.647  0.6192 -2.7163  0.6010
  657MOL0     H86707   1.496   1.652   8.427 -3.7994  2.2489 -0.0801
  657MOL0     H86708   1.467   1.448   7.979  0.1715 -0.5374 -0.5170
  657MOL0     H86709   1.534   1.509   7.741 -1.9543 -2.5499  2.7143
  657MOL0     H86710   1.934   2.212   7.727  0.6937  0.3491  0.9966
  657MOL0     H86711   1.977   1.975   7.772 -0.7949  0.4076  0.5259
  657MOL0     H86712   2.144   1.676   8.070 -2.4108 -1.3191 -0.0064
  657MOL0     H86713   2.236   1.448   8.137  3.2676 -2.3386 -0.4740
  657MOL0     H86714   2.294   1.257   8.160 -1.3511  0.1336 -0.6487
  657MOL0     H86715   2.404   1.137   8.108 -3.9277 -3.3070  3.2883
  657MOL0     H86716   2.148   1.142   7.961 -0.3261  0.6709  0.5682
  657MOL0     H86717   2.265   1.015   7.967 -1.8273 -0.4233 -1.5780
  657MOL0     H86718   2.089   1.106   8.212  0.5308 -1.5379  1.5532
  657MOL0     H86719   2.216   0.998   8.230 -0.1551  0.3245  0.9282
  657MOL0     H86720   1.985   0.915   8.195  1.0892 -1.2584  0.6779
  657MOL0     H86721   1.983   0.959   8.025  0.4740  0.7870 -0.1685
  657MOL0     H86722   2.245   0.636   7.983  3.5064 -0.1348  2.9780
  657MOL0     H86723   2.423   1.414   7.756  2.2543 -1.1986  3.4327
  657MOL0     H86724   2.327   1.618   7.687  2.4307 -2.3380 -0.1463
  658MOL0     O86725   5.135   7.120   0.705 -0.3247 -0.4802 -0.6346
  658MOL0     C86726   5.221   7.189   0.765 -0.5557 -0.2599 -0.0773
  658MOL0     O86727   5.187   7.285   0.853 -0.0970  0.3749  0.5635
  658MOL0     C86728   5.051   7.303   0.878 -0.9508 -1.0129 -0.8477
  658MOL0     C86729   4.967   7.201   0.925 -0.6379  0.1145  0.9591
  658MOL0     C86730   4.835   7.227   0.954 -0.3447 -0.0626  0.2902
  658MOL0     C86731   4.793   7.365   0.956  0.8547  0.3327  0.6151
  658MOL0     O86732   4.665   7.394   0.981 -0.2689 -0.4586 -0.0602
  658MOL0     C86733   4.624   7.520   1.038 -0.4723  0.6890  0.4021
  658MOL0     C86734   4.483   7.478   1.095 -0.2541 -0.1421 -0.8187
  658MOL0     C86735   4.398   7.599   1.135  0.9133  0.0360 -0.2464
  658MOL0     C86736   4.420   7.645   1.276 -0.1645  0.7211  0.1498
  658MOL0     C86737   4.302   7.741   1.321  0.0688  0.1362  1.3307
  658MOL0     C86738   4.321   7.795   1.460 -0.8967 -0.1644 -0.5527
  658MOL0     C86739   4.189   7.838   1.531 -0.0178 -0.8870  0.2265
  658MOL0     C86740   4.215   7.900   1.673 -0.4451 -0.1969 -0.1701
  658MOL0     N86741   4.097   7.974   1.716  0.9227  0.0947  0.3136
  658MOL0     C86742   3.996   7.920   1.797 -0.5904 -0.0229 -0.2705
  658MOL0     C86743   3.901   8.012   1.803  0.5678  0.3778 -0.0970
  658MOL0     C86744   3.776   8.006   1.887 -0.2783 -0.2444  0.0840
  658MOL0     C86745   3.717   7.864   1.901  0.2187 -0.5086 -0.0139
  658MOL0     C86746   3.587   7.858   1.983  0.0812  0.3103  0.3048
  658MOL0     C86747   3.463   7.897   1.899 -0.1096 -0.2176 -0.8774
  658MOL0     O86748   3.353   7.841   1.977 -0.0157  0.8118 -0.0044
  658MOL0     C86749   3.234   7.884   1.930  0.2967  0.8257 -0.4570
  658MOL0     C86750   3.129   7.845   2.024 -0.1200 -0.6212  0.3501
  658MOL0     C86751   2.992   7.861   1.992  0.6369 -0.1857 -0.0359
  658MOL0     C86752   2.956   7.921   1.870 -0.5148  0.1344  0.6953
  658MOL0     C86753   2.818   7.942   1.822 -0.7401 -0.0681  0.0556
  658MOL0     O86754   2.801   7.948   1.688  0.0928 -0.5893  0.2555
  658MOL0     C86755   2.680   7.971   1.628  0.6296  0.4607  0.2511
  658MOL0     C86756   2.563   7.876   1.632 -0.3802  0.2641  0.3869
  658MOL0     C86757   2.451   7.900   1.538  0.0936 -0.0139 -0.7358
  658MOL0     C86758   2.445   8.009   1.450 -1.2214 -0.3000  0.0843
  658MOL0     O86759   2.340   8.024   1.364  1.1713  0.2865  0.0354
  658MOL0     C86760   2.351   8.084   1.237  0.3383  0.6127  0.2582
  658MOL0     C86761   2.234   8.057   1.147 -0.1698  0.5585 -0.2008
  658MOL0     C86762   2.128   8.165   1.143 -0.1150 -0.6652  0.3784
  658MOL0     C86763   2.006   8.133   1.061  0.4872  0.9150 -0.1743
  658MOL0     C86764   1.891   8.233   1.067  0.0686  0.9858  0.8585
  658MOL0     C86765   1.759   8.189   0.999 -1.1785  0.1987  0.2793
  658MOL0     C86766   1.661   8.314   1.030  0.5320  0.0402  0.0493
  658MOL0     C86767   1.517   8.284   0.978  0.4540 -0.5326  0.1435
  658MOL0    Cl86768   1.535   8.291   0.801  0.1157  0.1448  0.3487
  658MOL0     C86769   2.558   8.096   1.449 -0.2512  0.5751 -0.2240
  658MOL0     C86770   2.671   8.071   1.537  0.1241  0.4253  1.4165
  658MOL0     O86771   2.729   7.939   1.905 -0.1000 -0.6115  0.4071
  658MOL0     C86772   3.058   7.962   1.779 -0.5922 -0.1357 -0.3731
  658MOL0     C86773   3.194   7.950   1.812 -0.0553  0.7034  0.3697
  658MOL0     N86774   3.948   8.121   1.728 -0.3278 -0.3602  0.0343
  658MOL0     N86775   4.058   8.101   1.675  0.7018  0.4649  0.4395
  658MOL0     C86776   4.880   7.465   0.923  0.3439  0.2861  0.3882
  658MOL0     C86777   5.002   7.436   0.880 -0.1596 -0.0791 -0.0052
  658MOL0     C86778   5.359   7.188   0.711 -0.4127  0.0001  0.1197
  658MOL0     C86779   5.445   7.286   0.736 -0.1666  0.4228  0.1863
  658MOL0     C86780   5.566   7.276   0.675 -0.2764 -0.4826  0.8361
  658MOL0     C86781   5.613   7.159   0.612 -0.9375 -0.6102 -0.0434
  658MOL0     O86782   5.748   7.174   0.570  0.8700 -0.2839 -0.9545
  658MOL0     C86783   5.810   7.076   0.488  0.0441 -1.0085  0.3526
  658MOL0     C86784   5.943   7.120   0.422  0.1909 -0.3851 -0.4771
  658MOL0     C86785   5.999   7.004   0.345 -0.1346 -0.0133  0.0927
  658MOL0     C86786   6.075   6.895   0.428  0.6504  0.1165  0.2528
  658MOL0     C86787   6.143   6.812   0.330 -1.1597 -0.2847 -0.4668
  658MOL0     C86788   6.220   6.747   0.262 -0.1723  0.1057 -0.3578
  658MOL0     C86789   5.527   7.052   0.598  0.3347 -0.5654 -0.5199
  658MOL0     C86790   5.402   7.067   0.649 -0.5680 -0.8131 -0.0123
  658MOL0     H86791   5.005   7.099   0.921 -0.5355  0.1527 -2.8951
  658MOL0     H86792   4.775   7.139   0.977 -1.6978  0.2011 -1.8924
  658MOL0     H86793   4.620   7.601   0.965  3.9983  0.8208  0.0755
  658MOL0     H86794   4.680   7.545   1.128 -2.4540 -0.5685  2.0944
  658MOL0     H86795   4.505   7.415   1.182  0.4860 -2.0872 -2.3403
  658MOL0     H86796   4.415   7.417   1.034 -2.4398 -2.3927  3.3614
  658MOL0     H86797   4.291   7.576   1.128 -0.3866  4.4877  1.7744
  658MOL0     H86798   4.419   7.684   1.069  2.4543  1.6563  2.1912
  658MOL0     H86799   4.436   7.566   1.350 -2.2784  0.1389  0.0681
  658MOL0     H86800   4.514   7.700   1.282  0.7133 -0.7590  0.3309
  658MOL0     H86801   4.210   7.682   1.312  1.4328 -1.9399  0.2778
  658MOL0     H86802   4.312   7.821   1.248  1.5373 -1.5285 -0.3776
  658MOL0     H86803   4.402   7.868   1.450 -0.4224 -0.1832  2.3469
  658MOL0     H86804   4.365   7.716   1.522 -2.2597 -0.1304  0.4860
  658MOL0     H86805   4.138   7.909   1.466  1.9869 -0.5571 -1.0763
  658MOL0     H86806   4.119   7.755   1.542 -2.5192  1.3332  2.6902
  658MOL0     H86807   4.306   7.961   1.673  1.1347 -2.2405 -4.0432
  658MOL0     H86808   4.237   7.822   1.747  3.2635  3.5064  3.1514
  658MOL0     H86809   4.001   7.826   1.851 -0.3030  0.8290  1.2777
  658MOL0     H86810   3.697   8.072   1.850 -0.0385  0.2469  0.4400
  658MOL0     H86811   3.813   8.041   1.984  0.8279 -1.6118  0.1848
  658MOL0     H86812   3.792   7.797   1.941  1.9631  0.4700 -1.4846
  658MOL0     H86813   3.689   7.830   1.801  0.4695 -1.8470  0.3581
  658MOL0     H86814   3.585   7.757   2.024  3.3943 -0.4170 -0.9621
  658MOL0     H86815   3.585   7.927   2.067 -0.0747 -1.3225  1.6911
  658MOL0     H86816   3.480   7.852   1.801  3.1965 -0.2590 -0.4085
  658MOL0     H86817   3.458   8.006   1.892 -0.1742 -0.2924 -2.0921
  658MOL0     H86818   3.158   7.808   2.122  0.0924 -0.6628  0.2709
  658MOL0     H86819   2.922   7.812   2.060 -0.1708  3.1859  1.7963
  658MOL0     H86820   2.569   7.781   1.685  2.6085 -0.6275 -1.2617
  658MOL0     H86821   2.360   7.842   1.537 -0.4925  0.7886  1.1070
  658MOL0     H86822   2.434   8.037   1.184  0.3715  0.2141  0.6627
  658MOL0     H86823   2.363   8.193   1.242 -3.1348  1.0719  2.3792
  658MOL0     H86824   2.187   7.962   1.176  3.2691 -1.2933 -0.1704
  658MOL0     H86825   2.271   8.030   1.048 -0.1283 -2.0878  0.4467
  658MOL0     H86826   2.171   8.252   1.092  0.7459  0.3173  2.6517
  658MOL0     H86827   2.096   8.205   1.240 -0.3551  0.1776 -0.0387
  658MOL0     H86828   2.039   8.128   0.957 -2.7986 -1.9069 -1.2975
  658MOL0     H86829   1.976   8.030   1.080  1.3934  0.4188 -1.3517
  658MOL0     H86830   1.923   8.328   1.022  4.0222 -0.6163 -0.1361
  658MOL0     H86831   1.878   8.259   1.172 -2.0298  3.9738  0.0078
  658MOL0     H86832   1.724   8.095   1.042 -1.1679  0.9518  2.0595
  658MOL0     H86833   1.779   8.178   0.893 -3.6713 -1.7246 -0.0802
  658MOL0     H86834   1.651   8.336   1.137  2.4393  0.2650  0.2171
  658MOL0     H86835   1.690   8.409   0.984  1.4141 -0.5332 -0.6092
  658MOL0     H86836   1.444   8.353   1.020 -0.0406 -1.2465  0.4754
  658MOL0     H86837   1.489   8.182   1.004  2.1310 -1.4347 -1.3136
  658MOL0     H86838   2.569   8.166   1.367  1.0080  0.9413  0.2379
  658MOL0     H86839   2.759   8.133   1.532  1.8169 -1.9578 -1.2981
  658MOL0     H86840   3.021   8.018   1.694  0.8635 -0.6232 -1.3745
  658MOL0     H86841   3.275   7.984   1.748 -0.6191  0.6083 -0.4127
  658MOL0     H86842   4.853   7.570   0.933  0.2371  0.0767  2.9926
  658MOL0     H86843   5.064   7.517   0.844 -1.5044 -0.3599 -3.3345
  658MOL0     H86844   5.410   7.386   0.760  1.0518  2.1443 -4.1774
  658MOL0     H86845   5.637   7.357   0.685  0.9273 -1.3127 -0.6178
  658MOL0     H86846   5.742   7.048   0.407  1.5473  3.0503 -2.6116
  658MOL0     H86847   5.837   6.994   0.556  2.7554  0.4877  1.2231
  658MOL0     H86848   5.931   7.210   0.361  0.9759  0.5278  0.6587
  658MOL0     H86849   6.011   7.143   0.504 -2.8203  0.4939  1.9903
  658MOL0     H86850   6.077   7.045   0.279 -1.5208 -1.7064 -2.8043
  658MOL0     H86851   5.921   6.955   0.286 -0.6553 -1.2370  1.7505
  658MOL0     H86852   6.147   6.937   0.499  0.5861  2.9503 -1.2023
  658MOL0     H86853   6.006   6.833   0.486 -1.2333  0.7048 -1.2545
  658MOL0     H86854   6.269   6.670   0.206  2.7031  1.4115  0.1983
  658MOL0     H86855   5.565   6.963   0.550  2.3739 -1.7013  2.8414
  658MOL0     H86856   5.333   6.986   0.626  0.4854 -1.1880 -2.1640
  659MOL0     O86857   4.356   4.263   6.733 -0.3415  0.4232 -0.6339
  659MOL0     C86858   4.416   4.363   6.700 -1.0801 -1.5217  0.4215
  659MOL0     O86859   4.490   4.453   6.777  1.1656  0.3995  0.0288
  659MOL0     C86860   4.474   4.436   6.914 -1.2954  0.2072  0.1476
  659MOL0     C86861   4.350   4.431   6.978  0.4401 -0.2279  0.7387
  659MOL0     C86862   4.340   4.412   7.117  0.6579  0.3709  0.5486
  659MOL0     C86863   4.454   4.379   7.190 -0.4213  0.8411  0.2891
  659MOL0     O86864   4.441   4.349   7.318 -0.5774  0.4352  0.2773
  659MOL0     C86865   4.423   4.206   7.341 -1.1482 -0.1182 -1.1560
  659MOL0     C86866   4.393   4.180   7.486 -0.1764 -0.3780  0.0638
  659MOL0     C86867   4.253   4.232   7.497  0.1145 -1.2598  0.4639
  659MOL0     C86868   4.147   4.120   7.481  0.1891  0.0753 -0.5592
  659MOL0     C86869   4.152   3.997   7.590 -0.0691  0.3642  0.0433
  659MOL0     C86870   4.027   3.921   7.587  0.3379 -0.5622  0.5577
  659MOL0     C86871   3.979   3.875   7.440 -1.5513 -0.7073 -0.1011
  659MOL0     C86872   3.844   3.819   7.459 -0.2036  0.4071 -0.4145
  659MOL0     N86873   3.756   3.787   7.338 -0.9472  0.3646 -0.0234
  659MOL0     C86874   3.732   3.664   7.299  0.0188  0.4273  0.0943
  659MOL0     C86875   3.626   3.669   7.215 -0.0091  0.7244  0.7714
  659MOL0     C86876   3.557   3.541   7.163 -1.3036  0.3293  0.0160
  659MOL0     C86877   3.434   3.525   7.254  0.4418  0.4102  0.4776
  659MOL0     C86878   3.364   3.388   7.239  0.9474  0.0307 -0.7346
  659MOL0     C86879   3.296   3.379   7.106 -0.6607  0.4585  0.5143
  659MOL0     O86880   3.193   3.468   7.113 -0.2381 -0.5396  0.3493
  659MOL0     C86881   3.115   3.482   7.004  0.5012 -0.2134 -0.3319
  659MOL0     C86882   3.006   3.572   7.006  0.1384 -0.3516 -0.0401
  659MOL0     C86883   2.927   3.592   6.887 -0.1321 -0.6355 -0.6921
  659MOL0     C86884   2.934   3.509   6.775  0.3884 -0.1509  0.0612
  659MOL0     C86885   2.844   3.524   6.660 -0.0117 -0.7854 -0.4582
  659MOL0     O86886   2.847   3.423   6.571  0.3767  0.0778 -0.5986
  659MOL0     C86887   2.762   3.432   6.461 -0.4198 -0.7215 -0.7977
  659MOL0     C86888   2.634   3.364   6.460  0.1425 -0.9526  0.1837
  659MOL0     C86889   2.557   3.355   6.339 -0.5686  0.5379 -0.2588
  659MOL0     C86890   2.602   3.414   6.224 -0.5455 -0.5124 -0.0804
  659MOL0     O86891   2.522   3.411   6.110  0.0271  0.7265 -0.7122
  659MOL0     C86892   2.388   3.466   6.117 -0.4202 -1.0720 -0.8498
  659MOL0     C86893   2.312   3.411   5.996 -0.0401 -0.3603 -0.2205
  659MOL0     C86894   2.279   3.256   6.002  0.6899  0.0400 -0.6582
  659MOL0     C86895   2.195   3.217   5.881  0.0776  0.0596 -0.3364
  659MOL0     C86896   2.142   3.080   5.908 -1.1326  0.3959  0.3968
  659MOL0     C86897   2.043   3.038   5.809  0.0084 -0.5909  0.6570
  659MOL0     C86898   1.978   2.903   5.837 -0.7017 -0.1840 -0.3204
  659MOL0     C86899   1.841   2.907   5.914 -0.3594  0.6528 -0.2162
  659MOL0    Cl86900   1.706   2.968   5.801  0.0779  0.0147  0.3732
  659MOL0     C86901   2.723   3.486   6.226 -0.4031  0.3766  0.4394
  659MOL0     C86902   2.799   3.494   6.343  0.2960  0.2949  0.2383
  659MOL0     O86903   2.772   3.622   6.658  0.3148 -0.2324  0.6714
  659MOL0     C86904   3.030   3.403   6.781  0.3422 -0.1885 -0.0718
  659MOL0     C86905   3.126   3.396   6.888 -0.1398 -0.2475 -0.0265
  659MOL0     N86906   3.593   3.798   7.189 -0.4506 -0.2787  0.1152
  659MOL0     N86907   3.668   3.871   7.275  0.7896 -0.7418 -0.3799
  659MOL0     C86908   4.584   4.387   7.131 -0.2057 -0.7285  0.4801
  659MOL0     C86909   4.590   4.420   6.987  0.1165 -0.0657 -1.0440
  659MOL0     C86910   4.431   4.377   6.559  0.0881 -0.5205  0.4963
  659MOL0     C86911   4.404   4.270   6.465  0.0173 -0.3299  0.5655
  659MOL0     C86912   4.425   4.291   6.328 -0.2517  0.0148 -1.0106
  659MOL0     C86913   4.482   4.409   6.282  0.0938 -0.1108  0.1543
  659MOL0     O86914   4.510   4.413   6.148  0.5213  1.2361  0.4307
  659MOL0     C86915   4.417   4.469   6.067  0.8440  0.6094  0.5076
  659MOL0     C86916   4.333   4.593   6.119 -0.1429  0.2474  0.5161
  659MOL0     C86917   4.251   4.653   5.997 -0.2619  0.0128 -0.3575
  659MOL0     C86918   4.159   4.766   6.043  0.0764  0.3053  0.3023
  659MOL0     C86919   4.108   4.843   5.930  0.6729 -0.1691 -0.2559
  659MOL0     C86920   4.063   4.901   5.837  0.3430 -0.6597  0.8600
  659MOL0     C86921   4.515   4.519   6.367  0.1400  0.6058  0.1272
  659MOL0     C86922   4.476   4.501   6.502  0.2685 -0.0980  1.3969
  659MOL0     H86923   4.255   4.443   6.926 -1.8497 -1.0555  4.3457
  659MOL0     H86924   4.243   4.413   7.165  1.7514 -0.6932  2.9290
  659MOL0     H86925   4.518   4.152   7.349 -0.6316  0.8913  5.9760
  659MOL0     H86926   4.347   4.154   7.281 -0.7051  0.4663 -2.2642
  659MOL0     H86927   4.455   4.236   7.557  2.1436 -2.1101 -0.4430
  659MOL0     H86928   4.403   4.075   7.515 -3.4698 -1.0397 -0.8638
  659MOL0     H86929   4.234   4.317   7.432 -2.5178 -2.4205 -0.4535
  659MOL0     H86930   4.237   4.273   7.597 -0.7915  0.2869 -0.2825
  659MOL0     H86931   4.056   4.181   7.492  0.8417  1.6533 -3.1498
  659MOL0     H86932   4.148   4.087   7.377 -1.4204  0.9810 -0.9097
  659MOL0     H86933   4.178   4.032   7.690  0.2866 -0.5891  0.2961
  659MOL0     H86934   4.224   3.918   7.566 -1.2444 -1.8841  3.2965
  659MOL0     H86935   3.950   3.991   7.620 -0.4799  0.5665 -3.2239
  659MOL0     H86936   4.038   3.839   7.659  0.6105  0.2192  1.4209
  659MOL0     H86937   3.974   3.953   7.364  2.7283  0.2965  0.4316
  659MOL0     H86938   4.051   3.806   7.395  5.0981  4.5297  1.0316
  659MOL0     H86939   3.792   3.887   7.526  0.6795 -0.5700  1.3319
  659MOL0     H86940   3.853   3.722   7.509  0.8650  0.7844  0.1590
  659MOL0     H86941   3.793   3.585   7.342 -2.0744  0.1825  2.8736
  659MOL0     H86942   3.634   3.464   7.176 -0.2728  0.9868 -1.7924
  659MOL0     H86943   3.536   3.549   7.056 -0.7808  1.3407 -0.0232
  659MOL0     H86944   3.360   3.605   7.243  0.2973  0.1981 -0.0920
  659MOL0     H86945   3.462   3.539   7.359 -0.7555  1.0302  0.7282
  659MOL0     H86946   3.433   3.304   7.254 -2.6267 -2.8750  0.9982
  659MOL0     H86947   3.294   3.384   7.323  4.9461 -0.1027  2.9826
  659MOL0     H86948   3.266   3.275   7.087  0.5674  0.3252 -0.9117
  659MOL0     H86949   3.366   3.398   7.024 -1.7946 -1.7416 -1.0567
  659MOL0     H86950   2.984   3.636   7.091 -2.4897  0.6782 -1.3922
  659MOL0     H86951   2.846   3.664   6.888 -0.7421 -1.2993 -0.8039
  659MOL0     H86952   2.611   3.326   6.559 -0.6738 -1.1015 -0.0601
  659MOL0     H86953   2.471   3.288   6.340  0.8214 -1.5857  4.1153
  659MOL0     H86954   2.388   3.575   6.109 -1.4650 -1.1226 -1.8365
  659MOL0     H86955   2.346   3.446   6.216 -2.0464 -0.2348 -1.3368
  659MOL0     H86956   2.369   3.433   5.906  1.2759  0.0167  0.6707
  659MOL0     H86957   2.212   3.455   5.997 -0.6691 -1.2586  4.8693
  659MOL0     H86958   2.216   3.249   6.091  0.1638  2.2547 -0.7997
  659MOL0     H86959   2.371   3.197   6.011 -0.4045 -1.4379  1.9647
  659MOL0     H86960   2.106   3.281   5.882  0.8093  1.1084 -1.0669
  659MOL0     H86961   2.244   3.220   5.783  3.4749 -4.5603  0.8613
  659MOL0     H86962   2.103   3.080   6.010 -0.1739  1.4532  0.7848
  659MOL0     H86963   2.232   3.018   5.914  0.8324  3.0388 -0.2231
  659MOL0     H86964   2.107   3.013   5.724  1.4822 -0.2482  1.6352
  659MOL0     H86965   1.983   3.121   5.770 -3.5455 -1.9854  2.6451
  659MOL0     H86966   1.971   2.845   5.744 -1.1966 -1.4242  0.4661
  659MOL0     H86967   2.047   2.851   5.905  0.1144  0.7804 -0.3904
  659MOL0     H86968   1.862   2.976   5.996 -1.0454 -0.4892  0.9630
  659MOL0     H86969   1.810   2.809   5.953  2.0186  1.3590  3.9900
  659MOL0     H86970   2.753   3.519   6.127 -0.1232  1.0537  0.7497
  659MOL0     H86971   2.899   3.534   6.347  0.6914 -0.8022  2.3588
  659MOL0     H86972   3.016   3.328   6.704 -2.2291  1.0804 -0.9603
  659MOL0     H86973   3.214   3.332   6.883  1.7488  2.0562  1.5096
  659MOL0     H86974   4.678   4.368   7.183  0.0801  0.1092  0.2840
  659MOL0     H86975   4.690   4.426   6.946 -0.0536  2.2913 -1.2455
  659MOL0     H86976   4.371   4.175   6.506  1.8249 -0.4408  1.8825
  659MOL0     H86977   4.394   4.223   6.249 -1.1006  3.5578 -3.9998
  659MOL0     H86978   4.356   4.386   6.031  0.8217  0.5091  0.7711
  659MOL0     H86979   4.473   4.512   5.984  2.8210  0.6232  1.7710
  659MOL0     H86980   4.279   4.570   6.212  0.4951 -1.6031  0.4839
  659MOL0     H86981   4.412   4.665   6.141  0.0208 -0.3032  1.8309
  659MOL0     H86982   4.188   4.578   5.949 -0.7710  0.6004 -0.6272
  659MOL0     H86983   4.315   4.706   5.925 -0.1346  2.5821  1.4910
  659MOL0     H86984   4.075   4.708   6.083  0.5083 -0.8971 -0.4818
  659MOL0     H86985   4.211   4.824   6.120 -1.3889 -0.0477  1.6191
  659MOL0     H86986   4.012   4.956   5.761 -1.9040 -2.0975  1.2489
  659MOL0     H86987   4.550   4.614   6.327 -0.3913  0.9231  0.3975
  659MOL0     H86988   4.474   4.586   6.571 -0.4354 -1.2792  2.8988
  660MOL0     O86989   7.413   5.082   8.718 -0.1229 -0.0539 -0.3184
  660MOL0     C86990   7.414   5.206   8.725 -0.0581 -0.1060 -0.0299
  660MOL0     O86991   7.522   5.286   8.722 -0.0749 -0.1935  0.0382
  660MOL0     C86992   7.645   5.239   8.713 -0.0160  0.1879 -0.9955
  660MOL0     C86993   7.695   5.112   8.676  1.3452  0.3072 -0.0061
  660MOL0     C86994   7.832   5.085   8.680  0.8206 -1.0618  0.5226
  660MOL0     C86995   7.921   5.183   8.733 -1.0563  0.3707  0.0875
  660MOL0     O86996   8.057   5.146   8.745  0.6823 -0.8908 -0.5183
  660MOL0     C86997   8.147   5.240   8.685  0.0713  0.3331 -0.0031
  660MOL0     C86998   8.280   5.166   8.638  0.5150 -0.9909 -0.2113
  660MOL0     C86999   8.354   5.260   8.543  0.4062 -0.2108 -0.0154
  660MOL0     C87000   8.482   5.189   8.492  0.2226 -0.0923  0.3088
  660MOL0     C87001   8.558   5.273   8.384  0.3109  0.1195 -0.6213
  660MOL0     C87002   8.703   5.226   8.373 -0.8995 -0.3762  0.1266
  660MOL0     C87003   8.696   5.124   8.262 -0.2426  0.3118 -0.6811
  660MOL0     C87004   8.836   5.078   8.214  0.7141  0.9975 -0.8694
  660MOL0     N87005   8.942   5.091   8.320  0.3565 -0.2057  0.1365
  660MOL0     C87006   9.028   5.194   8.332 -0.0635 -0.1600 -0.4889
  660MOL0     C87007   9.109   5.165   8.434 -0.2811  1.4028 -0.1366
  660MOL0     C87008   9.170   5.279   8.508  0.3288  0.8779 -0.1406
  660MOL0     C87009   9.302   5.231   8.574  0.8537 -0.6056  0.1843
  660MOL0     C87010   9.357   5.347   8.654  0.3915 -0.5164 -0.8959
  660MOL0     C87011   9.307   5.350   8.799 -0.3085 -0.1464  0.2186
  660MOL0     O87012   9.339   5.489   8.845 -0.2343 -0.0582  0.0851
  660MOL0     C87013   9.320   5.532   8.968 -0.4957 -0.9142  0.3201
  660MOL0     C87014   9.229   5.466   9.061  0.1940 -0.1240  0.5212
  660MOL0     C87015   9.206   5.521   9.190  0.2241  0.2639 -0.2748
  660MOL0     C87016   9.268   5.642   9.216  0.4900 -0.5260  0.1301
  660MOL0     C87017   9.278   5.703   9.355  0.2072  1.6599  0.7281
  660MOL0     O87018   9.201   5.632   9.451  0.7011 -0.2525 -0.3974
  660MOL0     C87019   9.192   5.679   9.580 -0.2900  0.1135  0.6828
  660MOL0     C87020   9.067   5.713   9.632  0.1973 -0.2347  0.2448
  660MOL0     C87021   9.062   5.733   9.764  0.9846 -0.2369  0.2741
  660MOL0     C87022   9.172   5.717   9.853  0.5514 -0.5817 -0.7890
  660MOL0     O87023   9.135   5.738   9.985  0.1771  0.1999  0.8418
  660MOL0     C87024   9.210   5.678  10.082  0.3393  0.0365 -0.8533
  660MOL0     C87025   9.328   5.762  10.138 -0.4137  0.0883 -0.1666
  660MOL0     C87026   9.438   5.693  10.227  0.2593  0.5436  0.5190
  660MOL0     C87027   9.377   5.620  10.347  0.4828  0.8289 -0.3560
  660MOL0     C87028   9.502   5.579  10.426 -0.1876  0.4060  0.8967
  660MOL0     C87029   9.474   5.516  10.559 -0.4175 -1.3481  0.0686
  660MOL0     C87030   9.406   5.379  10.555  0.4219 -0.2152 -0.1048
  660MOL0     C87031   9.372   5.340  10.694 -0.0994 -0.4064 -0.0748
  660MOL0    Cl87032   9.216   5.428  10.747 -0.5570 -0.6038 -0.5676
  660MOL0     C87033   9.298   5.685   9.802  0.3279 -0.3260 -0.7257
  660MOL0     C87034   9.302   5.660   9.663  0.0141  0.0550  0.5724
  660MOL0     O87035   9.347   5.801   9.371 -0.3007  0.4124 -0.4309
  660MOL0     C87036   9.330   5.713   9.115 -0.7420 -0.3997  0.0295
  660MOL0     C87037   9.377   5.659   8.997 -0.3198  0.2259  0.6031
  660MOL0     N87038   9.077   5.036   8.480  0.7170 -0.3444  0.0434
  660MOL0     N87039   8.969   4.996   8.417 -0.7004  0.1100  0.7150
  660MOL0     C87040   7.881   5.315   8.760  0.6411  0.2186 -0.3081
  660MOL0     C87041   7.741   5.339   8.748  1.6559  0.0324 -0.1179
  660MOL0     C87042   7.279   5.265   8.724  0.5363 -0.0791  0.4245
  660MOL0     C87043   7.265   5.410   8.704  0.8768  0.1425 -0.8188
  660MOL0     C87044   7.136   5.471   8.707  0.4083  0.9331  0.0973
  660MOL0     C87045   7.021   5.389   8.730  0.2583  0.3390  0.0388
  660MOL0     O87046   6.895   5.446   8.733 -0.0002  0.2840  0.7182
  660MOL0     C87047   6.779   5.374   8.677 -0.6817  0.7001  0.8646
  660MOL0     C87048   6.676   5.471   8.633 -0.1454 -0.9099  0.0284
  660MOL0     C87049   6.738   5.591   8.558  0.1331  0.6025  0.1596
  660MOL0     C87050   6.643   5.665   8.466 -0.2115  0.1247 -0.2330
  660MOL0     C87051   6.633   5.582   8.340 -0.0526 -0.5981 -0.4468
  660MOL0     C87052   6.612   5.520   8.242  0.3738 -0.4230  0.6884
  660MOL0     C87053   7.037   5.252   8.751  0.6724  0.2040  0.4354
  660MOL0     C87054   7.162   5.188   8.756  0.1670  0.0790  1.0123
  660MOL0     H87055   7.623   5.040   8.638  0.3147 -0.3086  2.8555
  660MOL0     H87056   7.878   4.992   8.649  3.7743 -0.2247  1.9489
  660MOL0     H87057   8.177   5.322   8.751  1.2087 -0.3801  0.4110
  660MOL0     H87058   8.099   5.288   8.599  0.1507  3.8931  1.7838
  660MOL0     H87059   8.257   5.077   8.578 -4.1882  1.0764 -1.9349
  660MOL0     H87060   8.343   5.134   8.721 -1.1251 -1.8849  0.7376
  660MOL0     H87061   8.384   5.349   8.599 -1.9571 -1.5785  3.7790
  660MOL0     H87062   8.296   5.286   8.454 -0.4458 -0.9998  0.2890
  660MOL0     H87063   8.549   5.178   8.579  0.8933  0.4492 -0.1232
  660MOL0     H87064   8.453   5.098   8.440 -0.1398  0.0004  0.3488
  660MOL0     H87065   8.557   5.380   8.410  0.0925  0.0586 -0.3768
  660MOL0     H87066   8.499   5.268   8.292  0.1870 -0.2326 -0.5237
  660MOL0     H87067   8.731   5.188   8.472 -2.1548  1.4679  1.2384
  660MOL0     H87068   8.764   5.309   8.336 -1.4770 -1.9272 -5.0559
  660MOL0     H87069   8.640   5.037   8.300 -3.3570  2.9917  1.4628
  660MOL0     H87070   8.638   5.171   8.182 -1.9606 -1.5848 -0.6439
  660MOL0     H87071   8.863   5.122   8.118 -1.6459  0.8094 -1.6818
  660MOL0     H87072   8.818   4.974   8.184  2.8702 -0.0790  1.2012
  660MOL0     H87073   9.012   5.293   8.290  0.9024  0.2843  0.1587
  660MOL0     H87074   9.105   5.316   8.587 -0.1516  0.4562 -0.3293
  660MOL0     H87075   9.188   5.358   8.435 -0.5487  1.5330  0.3334
  660MOL0     H87076   9.368   5.196   8.494 -1.3355 -2.1838 -1.0528
  660MOL0     H87077   9.293   5.149   8.646  0.6092  0.3607  1.2678
  660MOL0     H87078   9.466   5.335   8.660  0.4604 -0.5462 -1.9022
  660MOL0     H87079   9.346   5.448   8.612  2.8270  1.8292  3.3714
  660MOL0     H87080   9.369   5.271   8.842 -1.9044 -1.5039  0.1399
  660MOL0     H87081   9.204   5.314   8.799 -0.6889  0.8805 -0.1727
  660MOL0     H87082   9.161   5.387   9.032  0.1935 -1.0667  2.9071
  660MOL0     H87083   9.141   5.467   9.258  3.0571 -2.8552  0.1758
  660MOL0     H87084   8.976   5.735   9.577 -0.3740 -2.2887  0.2653
  660MOL0     H87085   8.967   5.759   9.809  1.5419 -0.6490  1.7396
  660MOL0     H87086   9.250   5.583  10.047  0.0555 -0.4095  0.0108
  660MOL0     H87087   9.144   5.661  10.167 -1.0583 -0.5972 -2.0318
  660MOL0     H87088   9.284   5.847  10.191 -4.8025 -2.5036  0.9120
  660MOL0     H87089   9.386   5.794  10.051 -2.1913 -1.2879 -1.9616
  660MOL0     H87090   9.505   5.776  10.252  0.6713  0.3084  0.2178
  660MOL0     H87091   9.497   5.622  10.169 -0.1270 -0.9362  1.8760
  660MOL0     H87092   9.316   5.688  10.407 -0.9945 -0.7972  0.0853
  660MOL0     H87093   9.315   5.541  10.305  0.8190  1.0554 -1.2915
  660MOL0     H87094   9.556   5.671  10.453 -1.4191  1.4475 -0.0522
  660MOL0     H87095   9.573   5.514  10.375  1.6704 -0.3292  4.0968
  660MOL0     H87096   9.414   5.585  10.619 -1.2957 -3.8535  2.2469
  660MOL0     H87097   9.567   5.513  10.616 -1.4929  3.2364  2.5320
  660MOL0     H87098   9.319   5.374  10.489  0.9592  0.0128 -0.8427
  660MOL0     H87099   9.477   5.305  10.516  1.4218 -0.0543  1.3244
  660MOL0     H87100   9.452   5.355  10.767  1.9105 -0.2545 -2.1556
  660MOL0     H87101   9.357   5.232  10.685 -0.9691 -0.1589 -2.1660
  660MOL0     H87102   9.378   5.660   9.872  1.2747  0.9081 -1.3305
  660MOL0     H87103   9.392   5.615   9.622 -1.4569 -2.5012 -0.0980
  660MOL0     H87104   9.354   5.816   9.138 -3.0402  0.4062 -0.8623
  660MOL0     H87105   9.433   5.712   8.922 -0.5087 -1.3807 -0.7248
  660MOL0     H87106   7.944   5.393   8.800  0.2147  1.2445 -1.5575
  660MOL0     H87107   7.695   5.437   8.756 -0.6634 -1.0239  0.6615
  660MOL0     H87108   7.351   5.471   8.681  0.0737  1.1960 -1.1118
  660MOL0     H87109   7.111   5.572   8.676  1.1337 -0.0253 -4.3793
  660MOL0     H87110   6.730   5.297   8.737 -1.1468  0.2538 -0.0537
  660MOL0     H87111   6.806   5.326   8.583  1.6495  2.2366  0.6597
  660MOL0     H87112   6.612   5.412   8.567 -1.2811  0.1462  0.1499
  660MOL0     H87113   6.616   5.510   8.716 -3.5499 -0.5870 -2.3698
  660MOL0     H87114   6.830   5.562   8.507  1.0416  2.2196  0.7729
  660MOL0     H87115   6.761   5.657   8.643  0.2198  0.0684  0.5559
  660MOL0     H87116   6.546   5.680   8.513  1.1988  0.1712  2.8792
  660MOL0     H87117   6.689   5.762   8.449  0.4078  0.5117  3.1355
  660MOL0     H87118   6.579   5.475   8.150 -0.0301 -0.4045  0.8201
  660MOL0     H87119   6.956   5.184   8.772  0.9172 -0.2339 -0.0181
  660MOL0     H87120   7.170   5.082   8.778  0.1394  0.5258  3.4883
  661MOL0     O87121   9.653   9.701   4.790 -0.1315 -0.3207  0.4013
  661MOL0     C87122   9.652   9.579   4.828  0.2742 -0.1778 -0.0299
  661MOL0     O87123   9.536   9.502   4.848  0.4518 -0.0828  0.1121
  661MOL0     C87124   9.413   9.566   4.868 -0.3188  0.0710 -0.8598
  661MOL0     C87125   9.360   9.657   4.778  0.3021 -1.0624 -0.4930
  661MOL0     C87126   9.235   9.712   4.813 -0.0565  0.3454 -0.0635
  661MOL0     C87127   9.159   9.666   4.924  0.3693 -0.7831  0.2700
  661MOL0     O87128   9.034   9.709   4.968 -1.0975  0.2486 -0.6834
  661MOL0     C87129   8.994   9.846   4.939  0.2379  0.0108 -0.6112
  661MOL0     C87130   8.844   9.850   4.943  0.1182  0.0555  0.2544
  661MOL0     C87131   8.777   9.757   4.847 -0.9077 -0.0363 -0.1554
  661MOL0     C87132   8.623   9.777   4.835 -0.2813  0.6972 -0.8613
  661MOL0     C87133   8.558   9.710   4.721 -0.6761  0.6127  0.9351
  661MOL0     C87134   8.413   9.748   4.706 -1.1324 -0.2399  0.3115
  661MOL0     C87135   8.322   9.661   4.792  0.3808 -0.0467  0.4053
  661MOL0     C87136   8.171   9.698   4.780 -0.5359  0.0826 -0.1712
  661MOL0     N87137   8.152   9.839   4.830  0.4042 -0.7905 -0.2587
  661MOL0     C87138   8.166   9.872   4.960 -0.6826 -0.6959  0.2194
  661MOL0     C87139   8.121   9.995   4.973 -0.2111 -0.4465  0.0789
  661MOL0     C87140   8.073  10.057   5.103  0.3676 -0.0452 -0.1322
  661MOL0     C87141   7.946   9.993   5.160 -0.2992  0.2922 -0.3004
  661MOL0     C87142   7.808   9.996   5.076 -0.1160 -0.2904  0.5172
  661MOL0     C87143   7.745  10.135   5.084  0.0842  0.8350 -0.1635
  661MOL0     O87144   7.630  10.120   5.173 -0.0864 -0.1928 -0.2561
  661MOL0     C87145   7.564  10.231   5.225  0.2884 -0.7833  1.1163
  661MOL0     C87146   7.590  10.366   5.193  0.6379 -0.4780  0.1433
  661MOL0     C87147   7.512  10.467   5.260  0.9120 -0.3841  0.3185
  661MOL0     C87148   7.409  10.435   5.352  0.3267  0.8500 -0.5230
  661MOL0     C87149   7.318  10.546   5.404 -0.1754  0.1763  0.4389
  661MOL0     O87150   7.235  10.509   5.500 -1.0584 -0.4330 -0.1037
  661MOL0     C87151   7.139  10.603   5.528  0.0669 -0.2803 -0.6804
  661MOL0     C87152   7.014  10.581   5.473 -0.6837  0.0300  0.1248
  661MOL0     C87153   6.907  10.673   5.489 -0.0232  0.1790 -0.4314
  661MOL0     C87154   6.931  10.800   5.547 -1.0850 -1.0743 -0.3032
  661MOL0     O87155   6.823  10.886   5.564  0.2368 -0.4430  0.4399
  661MOL0     C87156   6.753  10.929   5.441  0.1216 -1.4739 -0.1649
  661MOL0     C87157   6.633  11.022   5.477  0.2628  0.6157 -0.0133
  661MOL0     C87158   6.547  11.075   5.359  0.7297  0.0023 -0.2477
  661MOL0     C87159   6.447  11.181   5.396 -0.3216  0.9395 -0.1220
  661MOL0     C87160   6.366  11.161   5.527 -0.4199 -0.3199 -0.0385
  661MOL0     C87161   6.278  11.284   5.567 -0.1522  0.2262  1.0673
  661MOL0     C87162   6.179  11.308   5.443 -0.6889 -0.0881  0.0786
  661MOL0     C87163   6.063  11.398   5.474  0.0287  0.1600  0.6499
  661MOL0    Cl87164   6.123  11.566   5.511 -0.0351  0.3438  0.4953
  661MOL0     C87165   7.061  10.828   5.599  0.5155  0.2356  0.6444
  661MOL0     C87166   7.161  10.727   5.593  1.1661  0.0736  0.3620
  661MOL0     O87167   7.323  10.656   5.347  0.7609 -0.2059  0.2478
  661MOL0     C87168   7.390  10.299   5.384  0.5559  0.0400  0.9561
  661MOL0     C87169   7.471  10.202   5.323 -0.4375  0.2743  0.1302
  661MOL0     N87170   8.064  10.031   4.849  0.3393  0.0368 -0.0255
  661MOL0     N87171   8.085   9.936   4.767 -0.1315  0.2782  0.5047
  661MOL0     C87172   9.210   9.569   5.005  0.3830 -0.0200 -0.6417
  661MOL0     C87173   9.333   9.514   4.979 -0.3055  0.2778  0.1363
  661MOL0     C87174   9.784   9.528   4.856  0.9225  0.0686 -0.0844
  661MOL0     C87175   9.822   9.389   4.831  0.1131  0.0935 -0.4321
  661MOL0     C87176   9.944   9.349   4.883 -0.0009  0.5351 -0.5855
  661MOL0     C87177  10.033   9.432   4.942 -0.0154  0.4731  0.3319
  661MOL0     O87178  10.151   9.385   4.992  0.1700 -0.2360 -0.0193
  661MOL0     C87179  10.227   9.294   4.909 -0.2198  0.4722 -0.8401
  661MOL0     C87180  10.369   9.285   4.969  0.4462  0.4533 -0.1542
  661MOL0     C87181  10.439   9.416   4.964 -0.7830  0.1408  0.1661
  661MOL0     C87182  10.578   9.416   4.921 -0.7739  0.1377  0.7506
  661MOL0     C87183  10.636   9.549   4.898  0.6654  0.1015  0.4212
  661MOL0     C87184  10.693   9.642   4.856  1.5537  0.5027 -0.3834
  661MOL0     C87185   9.994   9.566   4.962  0.0484  0.7968 -0.7427
  661MOL0     C87186   9.873   9.618   4.920  0.9559 -0.3797 -0.6009
  661MOL0     H87187   9.402   9.679   4.680  0.6574 -2.0340 -0.5745
  661MOL0     H87188   9.191   9.781   4.742  2.1933  1.6115 -0.3309
  661MOL0     H87189   9.020   9.878   4.837 -1.7246 -0.0452 -1.1657
  661MOL0     H87190   9.037   9.911   5.015 -3.8174  1.9871  0.2317
  661MOL0     H87191   8.805   9.948   4.913  0.5681 -0.1197 -0.9557
  661MOL0     H87192   8.804   9.824   5.042 -0.9701 -0.1337 -0.2196
  661MOL0     H87193   8.799   9.654   4.875 -1.6938  0.1409  1.1446
  661MOL0     H87194   8.818   9.769   4.746  3.0363 -2.2452  0.9386
  661MOL0     H87195   8.575   9.740   4.926  2.0320  0.8093  0.4853
  661MOL0     H87196   8.612   9.886   4.828  0.2411  0.8656  0.4888
  661MOL0     H87197   8.583   9.604   4.721 -0.0890  0.7029 -1.2035
  661MOL0     H87198   8.606   9.752   4.632  0.1326 -0.7248  0.7154
  661MOL0     H87199   8.379   9.729   4.603 -0.2536  0.4317 -0.1098
  661MOL0     H87200   8.399   9.853   4.735 -0.1596 -0.0956  0.2751
  661MOL0     H87201   8.322   9.566   4.738  0.4878  0.4890 -0.5697
  661MOL0     H87202   8.360   9.645   4.893 -3.7795  2.3035  2.5777
  661MOL0     H87203   8.108   9.631   4.838  0.8565 -0.3785  0.8867
  661MOL0     H87204   8.155   9.696   4.672  1.6547 -0.2078 -0.5416
  661MOL0     H87205   8.207   9.815   5.043  1.4892 -1.0524 -1.0431
  661MOL0     H87206   8.068  10.164   5.080 -2.5608 -0.1903 -0.5190
  661MOL0     H87207   8.150  10.038   5.178  2.8573 -1.4861 -2.8311
  661MOL0     H87208   7.927  10.014   5.266 -0.2185  2.7872 -0.7099
  661MOL0     H87209   7.975   9.889   5.179  2.6960  1.1525  0.5129
  661MOL0     H87210   7.817   9.982   4.968 -0.3499  3.2114 -0.0870
  661MOL0     H87211   7.746   9.922   5.127  2.5397 -2.3931  0.9096
  661MOL0     H87212   7.704  10.162   4.986 -3.9965  1.4170  1.4929
  661MOL0     H87213   7.800  10.211   5.141  1.2661  0.4866 -0.8337
  661MOL0     H87214   7.664  10.380   5.115  0.1139 -1.1127 -0.4766
  661MOL0     H87215   7.547  10.565   5.229  1.5168 -1.1408 -1.5394
  661MOL0     H87216   7.003  10.487   5.418  1.7780  0.5020 -1.3486
  661MOL0     H87217   6.811  10.645   5.447  1.8674 -0.8718 -4.6028
  661MOL0     H87218   6.716  10.838   5.392 -1.4242 -1.1267  0.3281
  661MOL0     H87219   6.820  10.976   5.368  1.7134 -2.1817  0.7891
  661MOL0     H87220   6.685  11.103   5.529  0.4708  0.3107  0.2592
  661MOL0     H87221   6.577  10.967   5.553  3.2517 -2.9220 -0.1002
  661MOL0     H87222   6.486  10.990   5.330 -2.1477  0.6333  3.2331
  661MOL0     H87223   6.598  11.105   5.267  0.6055  0.9510 -0.0229
  661MOL0     H87224   6.505  11.274   5.401 -1.0429  1.4446 -0.9341
  661MOL0     H87225   6.385  11.192   5.307 -1.4739 -1.7160  0.2646
  661MOL0     H87226   6.437  11.144   5.609 -0.8983  3.7956  1.4655
  661MOL0     H87227   6.311  11.072   5.498  1.7977 -1.0133 -2.4618
  661MOL0     H87228   6.338  11.374   5.582 -3.4854  2.5900  1.2667
  661MOL0     H87229   6.220  11.264   5.658 -2.3421  0.7056 -0.1353
  661MOL0     H87230   6.233  11.348   5.356  1.1232 -0.5070  0.9618
  661MOL0     H87231   6.136  11.212   5.412 -2.0066  1.0208 -1.7369
  661MOL0     H87232   6.006  11.356   5.557 -0.4656 -1.3797 -0.4258
  661MOL0     H87233   5.984  11.404   5.398 -1.6694 -1.1115  2.2227
  661MOL0     H87234   7.073  10.925   5.646  0.2145  0.3163  0.5557
  661MOL0     H87235   7.261  10.757   5.622  1.4300  2.4041 -2.5886
  661MOL0     H87236   7.311  10.274   5.455 -1.4701  1.1957 -0.7830
  661MOL0     H87237   7.469  10.095   5.341  4.5582 -0.2298 -0.9088
  661MOL0     H87238   9.163   9.553   5.102  1.5242  0.9245  0.1086
  661MOL0     H87239   9.373   9.445   5.052  1.0429  0.4151 -0.4413
  661MOL0     H87240   9.749   9.330   4.777 -0.0879  0.5608 -0.6781
  661MOL0     H87241   9.966   9.243   4.876  0.3906  0.3597  2.3638
  661MOL0     H87242  10.239   9.318   4.803  2.7442 -2.2366 -1.2887
  661MOL0     H87243  10.191   9.191   4.910  4.7344 -1.5394 -1.0302
  661MOL0     H87244  10.368   9.248   5.072 -2.6762 -1.3152 -0.6849
  661MOL0     H87245  10.423   9.209   4.912  0.3609  2.4707 -3.1196
  661MOL0     H87246  10.426   9.461   5.062  0.8271  0.4318  0.2761
  661MOL0     H87247  10.378   9.478   4.898 -0.5362 -2.2151 -2.4942
  661MOL0     H87248  10.644   9.366   4.993 -2.5481  0.6911  2.8983
  661MOL0     H87249  10.582   9.355   4.831 -0.4492 -1.3996  1.7618
  661MOL0     H87250  10.745   9.728   4.818 -0.2276  2.7176  1.7912
  661MOL0     H87251  10.075   9.616   5.014  1.7984 -0.0261 -2.5601
  661MOL0     H87252   9.848   9.723   4.935  1.0934 -0.2413 -1.2950
  662MOL0     O87253   0.684   3.038   9.688 -0.4567 -0.2056 -0.4301
  662MOL0     C87254   0.789   3.103   9.658 -0.2007  0.5936 -0.0040
  662MOL0     O87255   0.783   3.220   9.583 -0.0154 -0.0677 -0.1194
  662MOL0     C87256   0.672   3.279   9.525 -0.1107 -0.9521 -0.3276
  662MOL0     C87257   0.536   3.233   9.526  0.1136  0.6142  0.7299
  662MOL0     C87258   0.443   3.275   9.432 -0.0501  0.5292  0.1197
  662MOL0     C87259   0.470   3.389   9.354 -0.6216 -0.2036 -0.6599
  662MOL0     O87260   0.380   3.447   9.277  0.2110 -0.2930  0.5665
  662MOL0     C87261   0.244   3.453   9.321  0.5770 -0.8229 -0.3483
  662MOL0     C87262   0.188   3.564   9.230  0.4474 -1.4331  0.8552
  662MOL0     C87263   0.148   3.501   9.098 -0.4162 -0.1564  0.3745
  662MOL0     C87264   0.167   3.602   8.976  0.7447 -0.5659  0.3877
  662MOL0     C87265   0.084   3.731   8.983 -0.3752 -0.2707 -0.5619
  662MOL0     C87266   0.084   3.835   8.864 -0.4114 -0.5125 -0.4779
  662MOL0     C87267  -0.023   3.946   8.887 -0.6914  0.4070  0.6293
  662MOL0     C87268  -0.004   4.057   8.779 -0.2702  0.4763 -0.3186
  662MOL0     N87269  -0.096   4.168   8.794  0.6387  1.0529 -0.1975
  662MOL0     C87270  -0.234   4.153   8.775  0.2763  0.6121 -0.2664
  662MOL0     C87271  -0.288   4.244   8.860 -0.3492  0.8235  0.2262
  662MOL0     C87272  -0.430   4.279   8.870 -0.2737  0.3919 -0.0351
  662MOL0     C87273  -0.485   4.328   8.740  0.1066  0.2526 -0.0228
  662MOL0     C87274  -0.638   4.328   8.730 -0.2101  0.2101 -0.6241
  662MOL0     C87275  -0.714   4.446   8.792 -0.5867 -0.6234 -0.3469
  662MOL0     O87276  -0.825   4.476   8.705 -0.2414 -0.2289 -0.2082
  662MOL0     C87277  -0.940   4.537   8.757  0.3902 -0.5466 -1.2798
  662MOL0     C87278  -1.028   4.578   8.667 -0.0456 -0.0987 -0.1740
  662MOL0     C87279  -1.150   4.643   8.710 -0.6738  0.0409 -0.3588
  662MOL0     C87280  -1.179   4.667   8.841 -0.0066  0.0523 -0.3849
  662MOL0     C87281  -1.303   4.733   8.894  0.5887  0.2234  0.5010
  662MOL0     O87282  -1.380   4.799   8.798  0.0831  0.3324 -0.1112
  662MOL0     C87283  -1.501   4.849   8.825 -0.1204 -0.1759 -1.2752
  662MOL0     C87284  -1.529   4.991   8.843 -0.1281  0.7655  1.0180
  662MOL0     C87285  -1.652   5.040   8.879  0.0620 -0.0320  0.4368
  662MOL0     C87286  -1.750   4.956   8.894 -0.0665  0.4560  0.0244
  662MOL0     O87287  -1.872   5.013   8.906  0.2865  0.1123 -0.0431
  662MOL0     C87288  -1.923   4.980   9.037  0.8867 -0.7543  1.2441
  662MOL0     C87289  -2.077   4.962   9.010 -0.0709  0.5295  0.6990
  662MOL0     C87290  -2.102   4.845   8.914  1.0379  0.2218  0.1433
  662MOL0     C87291  -2.253   4.816   8.886  0.3537 -0.3736  0.8270
  662MOL0     C87292  -2.324   4.940   8.839  0.0639 -0.6655  0.8170
  662MOL0     C87293  -2.455   4.904   8.760  0.1637 -0.3308  0.3824
  662MOL0     C87294  -2.560   5.017   8.757  0.1033 -0.7049 -0.0575
  662MOL0     C87295  -2.687   4.970   8.690  0.3890 -0.8779 -0.0002
  662MOL0    Cl87296  -2.758   4.844   8.800 -0.3010 -0.0195 -0.4463
  662MOL0     C87297  -1.736   4.817   8.892 -1.1904 -0.4881  0.3603
  662MOL0     C87298  -1.607   4.760   8.854  0.7288  0.4884  0.4302
  662MOL0     O87299  -1.346   4.709   9.009  0.4717 -0.1320  0.6850
  662MOL0     C87300  -1.084   4.621   8.934  0.4343  0.4931 -0.2566
  662MOL0     C87301  -0.963   4.563   8.890 -0.1373  0.7003  0.6691
  662MOL0     N87302  -0.188   4.304   8.936 -0.2551  0.4158  0.6296
  662MOL0     N87303  -0.079   4.268   8.882 -0.6960  0.2278  0.7426
  662MOL0     C87304   0.598   3.446   9.371  0.2095 -0.3341  1.1969
  662MOL0     C87305   0.697   3.387   9.445  0.6765  0.3710 -0.8856
  662MOL0     C87306   0.922   3.063   9.717  0.7884 -1.1398 -0.1253
  662MOL0     C87307   1.043   3.106   9.655  0.3707 -0.4446 -0.0490
  662MOL0     C87308   1.161   3.050   9.718  0.3212 -0.4092  0.1378
  662MOL0     C87309   1.161   2.969   9.825  0.7908  0.5439  0.0263
  662MOL0     O87310   1.282   2.936   9.886 -0.0487  0.0501  0.5652
  662MOL0     C87311   1.283   2.858  10.007 -0.3562 -0.2689  0.8670
  662MOL0     C87312   1.431   2.831  10.038 -0.3542  0.7017 -1.3294
  662MOL0     C87313   1.496   2.725   9.931 -0.2932  0.1123  0.4584
  662MOL0     C87314   1.509   2.579   9.992 -1.1472 -0.4608 -0.7820
  662MOL0     C87315   1.616   2.557  10.091  0.5250 -0.3783  0.4406
  662MOL0     C87316   1.680   2.520  10.185  0.0415  0.0338 -0.0243
  662MOL0     C87317   1.037   2.934   9.884  0.4941 -0.1982 -0.2902
  662MOL0     C87318   0.919   2.981   9.830 -0.2340 -0.2752 -0.3972
  662MOL0     H87319   0.500   3.144   9.576 -1.0064 -1.6727 -3.5902
  662MOL0     H87320   0.349   3.222   9.443 -0.9630  1.8904 -0.8250
  662MOL0     H87321   0.243   3.490   9.424 -0.1661 -2.3431  0.2128
  662MOL0     H87322   0.188   3.360   9.309 -1.6948  0.4609 -0.3999
  662MOL0     H87323   0.267   3.639   9.221 -0.2761 -0.7596 -0.0616
  662MOL0     H87324   0.107   3.627   9.269  2.3999  1.8965 -0.0896
  662MOL0     H87325   0.040   3.484   9.100 -0.8352  2.1776  0.3178
  662MOL0     H87326   0.207   3.411   9.081  1.3412  0.8919  0.6577
  662MOL0     H87327   0.273   3.628   8.968  0.4754  0.5948  0.3912
  662MOL0     H87328   0.129   3.545   8.891 -2.9158  1.5463  0.3969
  662MOL0     H87329   0.112   3.792   9.069  0.9449 -1.1305 -0.3658
  662MOL0     H87330  -0.019   3.707   9.011  0.5307 -1.7840  1.7781
  662MOL0     H87331   0.060   3.786   8.769 -5.8685 -1.2466  0.9088
  662MOL0     H87332   0.187   3.870   8.872  0.3479 -2.6242 -0.2836
  662MOL0     H87333  -0.124   3.904   8.883 -0.3426 -0.5608  1.5112
  662MOL0     H87334  -0.014   3.991   8.986 -2.6515  0.2395  0.9236
  662MOL0     H87335  -0.013   4.021   8.676 -1.0808  0.4232 -0.2377
  662MOL0     H87336   0.096   4.102   8.780 -0.7210  1.5062  0.3556
  662MOL0     H87337  -0.267   4.082   8.700 -1.6436 -1.0052  1.9657
  662MOL0     H87338  -0.446   4.346   8.955  2.9698  0.0028  1.0296
  662MOL0     H87339  -0.478   4.183   8.893  1.0313  0.0888  1.6881
  662MOL0     H87340  -0.442   4.277   8.654 -2.7354 -0.9420 -0.8431
  662MOL0     H87341  -0.463   4.436   8.741 -3.6269  1.2151  2.6911
  662MOL0     H87342  -0.661   4.330   8.623 -2.5542 -1.7929 -0.2510
  662MOL0     H87343  -0.683   4.234   8.763  1.6851 -0.2027  0.9363
  662MOL0     H87344  -0.661   4.542   8.793  0.4268 -1.1402 -1.3422
  662MOL0     H87345  -0.751   4.419   8.891 -0.3267 -0.5980 -0.2419
  662MOL0     H87346  -1.005   4.545   8.566  2.3489  0.0726  0.2560
  662MOL0     H87347  -1.216   4.654   8.625 -2.8858  2.5895  1.5040
  662MOL0     H87348  -1.452   5.066   8.827  0.7294 -0.6525 -2.4817
  662MOL0     H87349  -1.668   5.147   8.880  0.4494  0.0765 -1.4775
  662MOL0     H87350  -1.915   5.067   9.103 -0.9228 -1.0618  1.9137
  662MOL0     H87351  -1.880   4.889   9.079  2.3811  1.0760  4.0090
  662MOL0     H87352  -2.112   5.058   8.971 -1.2232 -0.8446 -1.9080
  662MOL0     H87353  -2.111   4.950   9.113  0.6480  1.4630  1.0518
  662MOL0     H87354  -2.056   4.748   8.933  0.6690 -0.0619 -0.3937
  662MOL0     H87355  -2.058   4.872   8.817  2.7208  1.7589  1.2592
  662MOL0     H87356  -2.262   4.742   8.806 -2.0562 -0.0907  0.7359
  662MOL0     H87357  -2.303   4.770   8.972 -0.5382 -2.5012 -0.7246
  662MOL0     H87358  -2.252   4.996   8.779  2.1872 -0.8858  3.0142
  662MOL0     H87359  -2.355   4.997   8.926 -2.0832 -0.7914  0.1909
  662MOL0     H87360  -2.510   4.821   8.804 -2.9504  1.4705  0.1602
  662MOL0     H87361  -2.429   4.894   8.654  0.0873  5.6175 -0.5389
  662MOL0     H87362  -2.575   5.050   8.860 -3.2770  1.6679 -1.1502
  662MOL0     H87363  -2.525   5.101   8.697 -2.1900 -0.4043 -1.0874
  662MOL0     H87364  -2.681   4.930   8.589  2.9468  2.2570 -1.2609
  662MOL0     H87365  -2.754   5.057   8.692  1.7886  0.2296  1.4175
  662MOL0     H87366  -1.824   4.752   8.892 -0.9915 -0.7658  1.0161
  662MOL0     H87367  -1.594   4.653   8.841 -2.1860 -0.3883  3.4307
  662MOL0     H87368  -1.105   4.634   9.040  1.7248 -1.1794  0.2530
  662MOL0     H87369  -0.886   4.535   8.961  0.6563 -1.3387 -0.9002
  662MOL0     H87370   0.622   3.529   9.305 -3.2446  0.8078  1.1848
  662MOL0     H87371   0.799   3.425   9.449  0.6702  0.3344 -0.3248
  662MOL0     H87372   1.046   3.174   9.570  1.0393  1.5409  1.4763
  662MOL0     H87373   1.260   3.063   9.674  0.8447  1.8811  1.7840
  662MOL0     H87374   1.236   2.761   9.996  2.4302 -1.6537  0.1609
  662MOL0     H87375   1.246   2.914  10.093 -1.4063  1.0499 -0.3986
  662MOL0     H87376   1.488   2.924  10.040 -0.4453  0.7544 -1.1556
  662MOL0     H87377   1.442   2.781  10.135 -2.0090 -0.6568 -1.7750
  662MOL0     H87378   1.587   2.768   9.888 -1.5605  2.6190  0.1196
  662MOL0     H87379   1.435   2.726   9.840  1.7190 -0.3540 -0.9914
  662MOL0     H87380   1.411   2.581  10.040 -0.9836  4.1906 -0.1787
  662MOL0     H87381   1.519   2.503   9.914 -0.6535  0.5650 -1.7433
  662MOL0     H87382   1.744   2.497  10.267  0.6372  0.2211 -0.4359
  662MOL0     H87383   1.017   2.883   9.978  2.3685 -0.0577  0.2202
  662MOL0     H87384   0.825   2.946   9.870  1.4846 -1.8838  2.5151
  663MOL0     O87385   6.008   7.197   4.576  1.0205 -0.6260  0.1840
  663MOL0     C87386   5.989   7.083   4.533  0.7267 -0.4923  0.1796
  663MOL0     O87387   6.084   6.986   4.517  0.4178 -0.9664  0.2863
  663MOL0     C87388   6.213   7.001   4.572 -0.3354 -0.2451  0.1064
  663MOL0     C87389   6.287   6.879   4.563 -0.0698  0.2464  0.3984
  663MOL0     C87390   6.417   6.872   4.610  0.1708  0.3677  0.2159
  663MOL0     C87391   6.467   6.987   4.680  0.9265 -0.0691 -0.2183
  663MOL0     O87392   6.592   6.995   4.734 -0.2997 -0.1134 -0.0507
  663MOL0     C87393   6.598   6.904   4.844 -0.6678  0.0883 -0.0572
  663MOL0     C87394   6.746   6.869   4.874 -0.4821 -0.5345  0.9621
  663MOL0     C87395   6.817   6.996   4.905  0.1426  0.1681 -0.1145
  663MOL0     C87396   6.951   6.964   4.960 -0.2864  0.9330 -0.0866
  663MOL0     C87397   7.020   7.091   4.995  0.6458 -0.0649 -0.6230
  663MOL0     C87398   7.145   7.064   5.073  0.0401 -0.1514  0.4428
  663MOL0     C87399   7.209   7.192   5.118 -0.8492  0.2334 -0.3829
  663MOL0     C87400   7.342   7.163   5.201  1.5558  0.5809  0.7727
  663MOL0     N87401   7.448   7.094   5.130 -0.0800 -0.0016 -0.3351
  663MOL0     C87402   7.495   6.971   5.164  0.8835 -0.4756  0.0130
  663MOL0     C87403   7.605   6.955   5.088 -0.0397  1.0680 -0.9496
  663MOL0     C87404   7.711   6.853   5.082 -0.1330 -0.3913 -0.7000
  663MOL0     C87405   7.660   6.710   5.095 -0.0396 -0.3974 -0.4464
  663MOL0     C87406   7.766   6.610   5.142 -0.9255  0.0325 -0.5288
  663MOL0     C87407   7.704   6.469   5.147  1.0941 -0.5848  0.3378
  663MOL0     O87408   7.802   6.375   5.180 -0.5708  0.3270 -0.2198
  663MOL0     C87409   7.827   6.374   5.320  0.3445 -0.9564 -0.1785
  663MOL0     C87410   7.750   6.297   5.403  1.0011  0.1596 -0.8899
  663MOL0     C87411   7.781   6.280   5.542  0.5100 -0.0188 -0.2732
  663MOL0     C87412   7.890   6.345   5.596 -0.4636  0.1743 -0.8343
  663MOL0     C87413   7.920   6.325   5.744  0.3849 -0.2075 -0.1097
  663MOL0     O87414   8.019   6.405   5.804 -0.0365  0.1561  0.0761
  663MOL0     C87415   8.057   6.388   5.933  0.4547  0.9423 -0.1182
  663MOL0     C87416   8.008   6.463   6.035 -0.0257 -0.6075  0.2447
  663MOL0     C87417   8.053   6.444   6.169  0.2097  0.5079 -0.3725
  663MOL0     C87418   8.151   6.349   6.203 -0.3193  0.7489 -0.5951
  663MOL0     O87419   8.198   6.323   6.330  0.3635 -0.3785 -1.0227
  663MOL0     C87420   8.239   6.440   6.412  0.5264  0.0382 -0.1786
  663MOL0     C87421   8.389   6.473   6.390 -1.0440 -0.1690  0.2835
  663MOL0     C87422   8.413   6.612   6.450 -0.7345 -0.6678 -0.2829
  663MOL0     C87423   8.569   6.643   6.483  0.5806  0.1138  0.3888
  663MOL0     C87424   8.614   6.588   6.617  0.7542 -0.0504  0.5011
  663MOL0     C87425   8.554   6.463   6.664  0.4886 -0.0827 -0.0174
  663MOL0     C87426   8.601   6.421   6.803 -0.3565  0.0358 -0.3023
  663MOL0     C87427   8.743   6.365   6.822 -0.3931  0.1796 -0.2440
  663MOL0    Cl87428   8.770   6.211   6.724  0.1630 -0.3567 -0.1245
  663MOL0     C87429   8.197   6.267   6.097 -0.2262  0.6719  0.0854
  663MOL0     C87430   8.143   6.280   5.969  0.0246 -0.3897  0.7520
  663MOL0     O87431   7.855   6.240   5.807 -0.1582 -0.2861  0.8703
  663MOL0     C87432   7.962   6.432   5.511 -0.4846 -0.2002 -0.2358
  663MOL0     C87433   7.939   6.433   5.367 -0.2166  0.0419 -0.3946
  663MOL0     N87434   7.618   7.063   5.001 -0.4159 -0.0435  0.4039
  663MOL0     N87435   7.527   7.143   5.037  0.4081 -0.4434  0.5220
  663MOL0     C87436   6.407   7.107   4.675  0.0047 -0.3356 -0.4614
  663MOL0     C87437   6.281   7.124   4.612 -0.6107  0.3129  0.2444
  663MOL0     C87438   5.860   7.068   4.462 -0.6542  0.5255  0.1181
  663MOL0     C87439   5.852   6.960   4.363 -0.4872 -0.7668 -0.3145
  663MOL0     C87440   5.736   6.956   4.287 -0.1834  0.1737  1.0984
  663MOL0     C87441   5.644   7.064   4.281  0.1032  0.3191  0.0530
  663MOL0     O87442   5.522   7.076   4.210 -0.0944  0.9301 -0.1702
  663MOL0     C87443   5.527   7.025   4.070  0.0831 -0.3911 -0.2940
  663MOL0     C87444   5.396   7.039   4.002  0.9424 -0.2521  0.4261
  663MOL0     C87445   5.282   7.046   4.109 -0.3201  0.0823  0.1246
  663MOL0     C87446   5.154   7.001   4.044 -0.0645 -0.6995 -0.6004
  663MOL0     C87447   5.071   7.109   3.984  0.4246 -0.9201  0.2340
  663MOL0     C87448   4.993   7.186   3.930  0.7655  0.3906 -0.0561
  663MOL0     C87449   5.660   7.158   4.378  0.4112  0.2131 -0.1553
  663MOL0     C87450   5.762   7.166   4.468  0.2028  0.0290  0.0329
  663MOL0     H87451   6.239   6.787   4.531  3.1901 -0.6935 -2.5252
  663MOL0     H87452   6.474   6.780   4.618  2.0803  1.5799  1.5855
  663MOL0     H87453   6.547   6.810   4.825 -1.3069  0.6407 -1.1417
  663MOL0     H87454   6.551   6.951   4.931  0.0916 -1.5545  1.2947
  663MOL0     H87455   6.786   6.837   4.778 -0.7942  2.8945 -0.4164
  663MOL0     H87456   6.746   6.801   4.960  1.5529  0.9863  2.2548
  663MOL0     H87457   6.755   7.042   4.983  0.9606  0.9573  0.0876
  663MOL0     H87458   6.831   7.060   4.818 -1.0020 -0.1562 -0.5539
  663MOL0     H87459   6.936   6.906   5.051  0.4514  0.1807 -0.4309
  663MOL0     H87460   7.013   6.904   4.893 -1.3487  0.9792 -1.1514
  663MOL0     H87461   6.963   7.159   5.058 -0.0399 -0.0779 -1.2223
  663MOL0     H87462   7.068   7.146   4.913  1.8580 -0.2999 -0.0960
  663MOL0     H87463   7.216   7.001   5.018 -0.2435  0.6213 -0.8683
  663MOL0     H87464   7.117   7.007   5.162 -0.0725  1.4235  1.4569
  663MOL0     H87465   7.256   7.248   5.036  3.3774 -1.1713  0.8278
  663MOL0     H87466   7.143   7.255   5.180 -1.7036  0.9433 -1.9615
  663MOL0     H87467   7.300   7.112   5.288 -1.1947  1.6393  0.1624
  663MOL0     H87468   7.377   7.263   5.228  1.4343  0.3799  1.7124
  663MOL0     H87469   7.443   6.890   5.214  1.2071 -1.7950 -1.6660
  663MOL0     H87470   7.768   6.880   5.172 -2.2189  3.8815 -0.4318
  663MOL0     H87471   7.774   6.869   4.994 -0.0023  3.0312 -0.1291
  663MOL0     H87472   7.624   6.666   5.002 -1.2732  1.7060 -1.0138
  663MOL0     H87473   7.575   6.710   5.164  2.4133  0.7765  2.8351
  663MOL0     H87474   7.845   6.617   5.066 -0.7595  2.1294 -0.2204
  663MOL0     H87475   7.800   6.638   5.242  2.3902 -1.3072 -1.1565
  663MOL0     H87476   7.667   6.454   5.045 -0.1224  0.5492  0.5825
  663MOL0     H87477   7.619   6.470   5.217  0.5036 -2.3744 -0.2961
  663MOL0     H87478   7.650   6.265   5.375 -0.6926  0.2781  3.9221
  663MOL0     H87479   7.715   6.225   5.609 -0.5921  3.8925  2.2135
  663MOL0     H87480   7.942   6.547   6.014  1.2614  0.3784 -0.0100
  663MOL0     H87481   8.020   6.518   6.242 -0.1013  3.0541 -2.9211
  663MOL0     H87482   8.222   6.407   6.515  0.9770 -0.1068 -0.1504
  663MOL0     H87483   8.174   6.525   6.390 -0.1843 -1.1206 -3.0570
  663MOL0     H87484   8.420   6.472   6.285 -0.4035  5.8981  0.0280
  663MOL0     H87485   8.442   6.390   6.437 -0.3042  0.0961 -0.0558
  663MOL0     H87486   8.357   6.629   6.543 -2.7000 -1.6984 -1.2243
  663MOL0     H87487   8.378   6.691   6.383 -2.3845 -0.9288  0.2458
  663MOL0     H87488   8.626   6.594   6.403 -0.9344  0.7225 -1.1212
  663MOL0     H87489   8.581   6.751   6.489 -3.7722  0.8286 -0.4802
  663MOL0     H87490   8.602   6.665   6.694  0.4757 -0.4324  0.8441
  663MOL0     H87491   8.721   6.567   6.615  0.6558 -0.5934  0.9240
  663MOL0     H87492   8.585   6.386   6.592 -2.4630 -0.3622 -1.1326
  663MOL0     H87493   8.446   6.470   6.679  0.8250  0.7832  2.5866
  663MOL0     H87494   8.583   6.507   6.868 -3.8858  1.3250 -2.6778
  663MOL0     H87495   8.532   6.348   6.846 -0.4784  2.9740  5.4984
  663MOL0     H87496   8.755   6.334   6.927  0.4920  0.0452 -0.3736
  663MOL0     H87497   8.825   6.435   6.802  1.8970 -1.7746  1.5483
  663MOL0     H87498   8.278   6.201   6.124  0.2582  0.4603 -1.7660
  663MOL0     H87499   8.182   6.220   5.887 -0.8014  1.3055 -0.9897
  663MOL0     H87500   8.050   6.488   5.543  0.8563 -1.5405 -1.3862
  663MOL0     H87501   8.008   6.483   5.300 -0.3223 -1.7216 -1.9042
  663MOL0     H87502   6.447   7.201   4.711  2.6521  0.6522 -5.1818
  663MOL0     H87503   6.241   7.225   4.607 -3.3713 -0.6893  0.4863
  663MOL0     H87504   5.922   6.878   4.348 -0.7187 -0.6133 -2.4520
  663MOL0     H87505   5.732   6.875   4.215 -1.7361  0.9745  0.2265
  663MOL0     H87506   5.562   6.922   4.067 -0.1075 -0.4488 -0.6213
  663MOL0     H87507   5.596   7.074   4.000 -1.9884  3.5668  0.1163
  663MOL0     H87508   5.390   7.126   3.937 -2.0525 -0.9848 -0.4688
  663MOL0     H87509   5.381   6.954   3.934 -0.3032 -1.2054  1.8261
  663MOL0     H87510   5.270   7.140   4.164 -1.9800  0.2203 -0.4274
  663MOL0     H87511   5.282   6.971   4.189 -1.3241 -1.6744 -1.4444
  663MOL0     H87512   5.171   6.917   3.975  2.8183 -1.1527  0.5526
  663MOL0     H87513   5.086   6.965   4.122 -2.1785  2.5921 -0.7445
  663MOL0     H87514   4.923   7.251   3.882 -0.8448 -1.2231  0.0150
  663MOL0     H87515   5.581   7.231   4.392  2.8876  3.1646 -0.6763
  663MOL0     H87516   5.778   7.247   4.539 -1.5252 -1.1364  1.8564
  664MOL0     O87517   7.728  10.998   9.984 -0.0417 -0.1152  0.4143
  664MOL0     C87518   7.764  11.120   9.978  1.0065 -0.8773 -0.6472
  664MOL0     O87519   7.887  11.164   9.928  0.2774  0.1968  0.1512
  664MOL0     C87520   7.986  11.081   9.882 -0.6108  0.3464 -0.3088
  664MOL0     C87521   7.997  11.046   9.745  0.3814  0.7586  0.3553
  664MOL0     C87522   8.107  10.978   9.689  0.2072  0.3155  0.4537
  664MOL0     C87523   8.198  10.927   9.778  0.7073 -0.1002 -0.2035
  664MOL0     O87524   8.305  10.856   9.712  0.1414 -1.1868 -0.2892
  664MOL0     C87525   8.434  10.854   9.777  0.5119  0.4064 -0.0021
  664MOL0     C87526   8.480  10.714   9.817 -0.7349 -0.1330  1.1190
  664MOL0     C87527   8.540  10.631   9.702  0.5219 -0.1407  0.9494
  664MOL0     C87528   8.669  10.679   9.655  0.4064 -0.0198 -1.2369
  664MOL0     C87529   8.716  10.619   9.523  0.6625 -0.2097 -1.0046
  664MOL0     C87530   8.844  10.683   9.472 -0.3272 -0.2344  0.0520
  664MOL0     C87531   8.971  10.683   9.558  0.5930  0.2709  0.2830
  664MOL0     C87532   8.997  10.551   9.626 -0.7375 -0.0770  0.6666
  664MOL0     N87533   9.139  10.548   9.655 -0.4304  0.2792 -0.6049
  664MOL0     C87534   9.234  10.524   9.565 -0.4850  0.2854  0.2898
  664MOL0     C87535   9.356  10.516   9.624  1.0578  0.9131  0.3175
  664MOL0     C87536   9.492  10.476   9.572 -0.3931 -0.0200 -0.2974
  664MOL0     C87537   9.514  10.328   9.551 -1.1337 -0.2104 -0.4603
  664MOL0     C87538   9.659  10.310   9.492 -0.0698  0.4992 -0.2218
  664MOL0     C87539   9.770  10.347   9.598  0.3386  0.3654 -0.2207
  664MOL0     O87540   9.888  10.274   9.560  1.0777  0.1959  0.1707
  664MOL0     C87541   9.888  10.137   9.571  0.3189  0.5157  1.4777
  664MOL0     C87542   9.800  10.073   9.660 -0.1199 -0.3928 -0.4905
  664MOL0     C87543   9.772   9.936   9.671  0.3674 -0.6942  0.1409
  664MOL0     C87544   9.841   9.849   9.582 -0.2244  0.2250 -1.0272
  664MOL0     C87545   9.838   9.698   9.591  0.1916  0.5725  0.2492
  664MOL0     O87546   9.931   9.629   9.528 -0.6425  0.6498 -0.1330
  664MOL0     C87547   9.914   9.497   9.522 -0.1858  1.3670 -0.1533
  664MOL0     C87548   9.924   9.413   9.628 -0.5741  0.4617  0.0335
  664MOL0     C87549   9.941   9.270   9.626 -0.3089 -1.3377  1.2487
  664MOL0     C87550   9.944   9.216   9.497 -0.8325 -0.5074 -0.3098
  664MOL0     O87551   9.950   9.083   9.491  0.9261 -0.2097 -0.8082
  664MOL0     C87552  10.077   9.024   9.477 -0.7409  0.1465  0.2723
  664MOL0     C87553  10.055   8.899   9.560 -0.5606 -0.1502 -0.5530
  664MOL0     C87554   9.963   8.792   9.510  0.9241  0.5791  0.0136
  664MOL0     C87555  10.041   8.708   9.396  0.1195  0.8463  0.3811
  664MOL0     C87556   9.950   8.611   9.318 -0.3114 -0.1037 -0.8092
  664MOL0     C87557   9.864   8.521   9.412  0.6442 -0.0780 -0.4600
  664MOL0     C87558   9.781   8.420   9.338 -0.3843 -0.0040 -0.0416
  664MOL0     C87559   9.695   8.474   9.233  1.4825 -1.9205 -0.3325
  664MOL0    Cl87560   9.585   8.350   9.196  0.3732 -0.2577 -0.3831
  664MOL0     C87561   9.936   9.299   9.383  0.3758  0.1654 -0.1840
  664MOL0     C87562   9.925   9.439   9.393  0.1811 -0.1703 -0.7519
  664MOL0     O87563   9.738   9.652   9.653  0.5067  0.5567  0.0019
  664MOL0     C87564   9.927   9.902   9.490 -0.4505 -1.1193  0.2312
  664MOL0     C87565   9.949  10.051   9.483  0.1136  1.4685 -0.2692
  664MOL0     N87566   9.332  10.544   9.761 -0.8549 -0.2813  0.3376
  664MOL0     N87567   9.203  10.553   9.772 -0.1002  0.9501 -0.6243
  664MOL0     C87568   8.183  10.958   9.912  0.2389 -0.9400  0.5765
  664MOL0     C87569   8.086  11.040   9.964  0.2245  0.3570  0.0094
  664MOL0     C87570   7.665  11.232  10.013 -0.2579 -0.3434  0.4222
  664MOL0     C87571   7.696  11.373  10.006  0.1847 -0.6792 -0.6863
  664MOL0     C87572   7.608  11.469  10.056 -0.2172  0.0834 -0.2710
  664MOL0     C87573   7.482  11.422  10.089  0.6925 -0.6778  0.0293
  664MOL0     O87574   7.391  11.522  10.119 -0.0201  0.2764 -0.7341
  664MOL0     C87575   7.273  11.492  10.194 -0.7296  1.1729  1.0633
  664MOL0     C87576   7.185  11.620  10.215  0.4112 -0.0170 -0.1231
  664MOL0     C87577   7.133  11.676  10.089  0.5947 -0.2480  0.1664
  664MOL0     C87578   7.000  11.612  10.039 -0.8963  0.2494 -0.1300
  664MOL0     C87579   6.970  11.643   9.907 -0.0175  0.0653  0.6014
  664MOL0     C87580   6.958  11.680   9.793 -0.7724 -0.0707  0.2011
  664MOL0     C87581   7.451  11.286  10.106 -0.9361  0.1860  0.5509
  664MOL0     C87582   7.544  11.187  10.069  0.2658 -0.4786  0.3461
  664MOL0     H87583   7.926  11.090   9.675 -1.1599 -1.6432  0.2715
  664MOL0     H87584   8.125  10.976   9.582  0.4139 -0.0484  0.4956
  664MOL0     H87585   8.436  10.909   9.871 -0.9955  0.7970 -0.1693
  664MOL0     H87586   8.504  10.896   9.704 -0.8641  1.1579 -0.9320
  664MOL0     H87587   8.404  10.645   9.854 -0.7213 -1.7704 -1.6212
  664MOL0     H87588   8.552  10.728   9.898  1.0015 -2.3690  0.0689
  664MOL0     H87589   8.465  10.642   9.623 -1.7142  0.3798  3.0028
  664MOL0     H87590   8.543  10.526   9.733  2.4931  0.6225  3.7506
  664MOL0     H87591   8.675  10.788   9.648 -2.6401  0.1954 -1.4425
  664MOL0     H87592   8.739  10.644   9.731  0.5636  0.7772 -1.0026
  664MOL0     H87593   8.638  10.633   9.448 -1.6929 -0.3966  1.2649
  664MOL0     H87594   8.742  10.515   9.543  0.2116  0.0308  1.0367
  664MOL0     H87595   8.819  10.788   9.458 -0.6538 -0.4478 -1.0104
  664MOL0     H87596   8.874  10.648   9.373 -0.5291  2.1160 -0.9008
  664MOL0     H87597   9.057  10.710   9.496  0.3631  0.8894  0.2209
  664MOL0     H87598   8.962  10.763   9.632  0.8542 -1.0929  1.8590
  664MOL0     H87599   8.974  10.460   9.569 -2.4359  0.8711 -0.2533
  664MOL0     H87600   8.947  10.547   9.723 -1.7823 -0.8191  0.1191
  664MOL0     H87601   9.212  10.494   9.463  3.4298 -1.0605 -0.3156
  664MOL0     H87602   9.569  10.512   9.641  0.6884  1.5648 -2.2194
  664MOL0     H87603   9.509  10.523   9.474  1.5842 -1.0030 -0.4751
  664MOL0     H87604   9.449  10.286   9.474 -2.0778 -0.3864  0.4168
  664MOL0     H87605   9.499  10.275   9.645 -0.0559 -1.0808 -0.7694
  664MOL0     H87606   9.667  10.208   9.454  0.4060 -0.2620  1.7493
  664MOL0     H87607   9.684  10.379   9.411 -1.7711  2.0638  0.5256
  664MOL0     H87608   9.733  10.338   9.701  2.4024  0.8017  0.6015
  664MOL0     H87609   9.814  10.445   9.580  1.4900 -0.5496 -2.8713
  664MOL0     H87610   9.754  10.140   9.732 -0.7591 -1.0079 -0.3243
  664MOL0     H87611   9.695   9.908   9.742 -1.7154  0.2990 -1.6339
  664MOL0     H87612   9.929   9.444   9.732 -0.6554 -0.6799  0.3875
  664MOL0     H87613   9.931   9.200   9.708  1.0568 -2.1868  0.7157
  664MOL0     H87614  10.144   9.089   9.536  0.3975  1.1764 -2.0385
  664MOL0     H87615  10.108   9.002   9.375 -0.4214 -0.3680  0.4715
  664MOL0     H87616  10.028   8.956   9.650 -0.7411 -0.0947 -0.6430
  664MOL0     H87617  10.154   8.857   9.579 -0.3068  1.1632  1.3472
  664MOL0     H87618   9.879   8.845   9.463 -0.5436 -0.0770  1.8008
  664MOL0     H87619   9.921   8.726   9.586 -3.6126  2.1084 -0.8312
  664MOL0     H87620  10.090   8.778   9.328  1.2695  0.2256  0.5486
  664MOL0     H87621  10.123   8.655   9.444 -1.0616 -1.8160 -0.3849
  664MOL0     H87622  10.018   8.542   9.267 -0.1811  0.7520 -1.8325
  664MOL0     H87623   9.879   8.663   9.254 -2.4412 -1.5219  0.2924
  664MOL0     H87624   9.793   8.573   9.478  0.7401  0.3421 -0.6847
  664MOL0     H87625   9.933   8.474   9.483  1.7678  2.0392 -0.0755
  664MOL0     H87626   9.840   8.341   9.292  1.8430  3.4572 -3.7559
  664MOL0     H87627   9.718   8.370   9.413  1.0894 -0.4191  0.9801
  664MOL0     H87628   9.762   8.513   9.155  2.4295 -0.1562  1.2835
  664MOL0     H87629   9.634   8.557   9.269  2.0056 -1.3813 -0.6698
  664MOL0     H87630   9.924   9.260   9.283  0.1260  1.8785 -0.8561
  664MOL0     H87631   9.928   9.511   9.312 -1.1506  2.7879  1.6127
  664MOL0     H87632   9.994   9.852   9.420  3.0249  1.9659  1.0392
  664MOL0     H87633  10.012  10.092   9.405  1.3011 -1.7890 -1.2170
  664MOL0     H87634   8.257  10.924   9.984  1.2540  1.2029  0.6393
  664MOL0     H87635   8.092  11.086  10.062 -0.3930  3.2607 -1.1979
  664MOL0     H87636   7.795  11.392   9.966  1.4755 -4.2373  0.4614
  664MOL0     H87637   7.628  11.576  10.062 -0.2445 -0.0159  3.1691
  664MOL0     H87638   7.301  11.445  10.289  2.5759 -3.5678 -1.7904
  664MOL0     H87639   7.214  11.420  10.135 -0.1020  1.2650  0.2977
  664MOL0     H87640   7.106  11.611  10.290  0.3092 -0.0394 -0.2345
  664MOL0     H87641   7.252  11.688  10.267 -0.5429  0.2497  0.7928
  664MOL0     H87642   7.214  11.665  10.016 -0.7042 -1.2113 -1.2004
  664MOL0     H87643   7.124  11.785  10.098  1.6935 -0.0144 -1.2793
  664MOL0     H87644   7.004  11.503  10.044 -3.2246  0.1868  3.0019
  664MOL0     H87645   6.915  11.650  10.097 -3.7398  0.0858 -3.7775
  664MOL0     H87646   6.930  11.697   9.691  0.3185  0.4978 -0.0091
  664MOL0     H87647   7.357  11.242  10.137 -1.1180 -2.0391 -2.5895
  664MOL0     H87648   7.515  11.082  10.077 -0.1539 -0.2763  1.5863
  665MOL0     O87649   3.623   0.278   8.352  0.4913  0.8673 -0.1447
  665MOL0     C87650   3.546   0.355   8.405  0.0984 -0.5073  0.2064
  665MOL0     O87651   3.577   0.438   8.512  0.1659  0.3321 -0.4919
  665MOL0     C87652   3.703   0.436   8.566  0.5486 -0.5028 -0.5551
  665MOL0     C87653   3.744   0.552   8.636 -0.9024  0.2887  0.2818
  665MOL0     C87654   3.863   0.550   8.714 -0.1223  0.0937  0.7745
  665MOL0     C87655   3.958   0.453   8.713 -0.0275 -1.2515 -0.1808
  665MOL0     O87656   4.073   0.474   8.777 -0.6600  0.6136 -0.5162
  665MOL0     C87657   4.175   0.369   8.760 -0.4938  0.7321 -1.5884
  665MOL0     C87658   4.295   0.426   8.833 -0.0167  0.4913  0.2879
  665MOL0     C87659   4.414   0.332   8.826 -0.1299 -0.8882 -0.6655
  665MOL0     C87660   4.531   0.397   8.906  0.0997  0.2081  0.3400
  665MOL0     C87661   4.618   0.289   8.974 -0.3967  0.2762 -0.0225
  665MOL0     C87662   4.685   0.207   8.857  0.8886 -1.0273 -0.2154
  665MOL0     C87663   4.766   0.089   8.925  0.3821 -0.3544  0.4571
  665MOL0     C87664   4.877   0.144   9.012 -0.6356  0.6134  0.5570
  665MOL0     N87665   4.978   0.046   9.062 -0.6151  0.3457  0.5393
  665MOL0     C87666   4.967  -0.034   9.168 -0.3670 -0.2134 -0.0817
  665MOL0     C87667   5.074  -0.117   9.172  0.2100  0.1213 -0.3142
  665MOL0     C87668   5.100  -0.223   9.278 -1.0403 -0.2810  0.6719
  665MOL0     C87669   4.981  -0.319   9.288  1.0666  0.9165 -0.6437
  665MOL0     C87670   5.017  -0.452   9.361  0.4004 -0.0836  0.6379
  665MOL0     C87671   5.047  -0.426   9.512  0.5829  0.3625  0.2286
  665MOL0     O87672   4.924  -0.403   9.578 -0.0469 -0.4652  1.0230
  665MOL0     C87673   4.921  -0.373   9.715  1.0711  0.0570  0.0273
  665MOL0     C87674   5.039  -0.374   9.794  0.5313 -1.2979 -0.0051
  665MOL0     C87675   5.040  -0.379   9.929  0.5870  0.3390 -0.4590
  665MOL0     C87676   4.914  -0.368  10.001 -0.8043 -0.4144 -0.2234
  665MOL0     C87677   4.912  -0.395  10.149 -0.8780  0.6760 -0.2683
  665MOL0     O87678   4.797  -0.374  10.214  1.1563 -0.3783 -0.5301
  665MOL0     C87679   4.767  -0.409  10.344  0.1205  1.0683 -0.2144
  665MOL0     C87680   4.645  -0.454  10.378  0.2398 -1.2299 -0.7460
  665MOL0     C87681   4.624  -0.512  10.508  1.0433  0.2652 -0.4966
  665MOL0     C87682   4.734  -0.512  10.606  0.5083 -0.7527  0.7422
  665MOL0     O87683   4.729  -0.562  10.737 -0.1969 -0.1130 -0.4192
  665MOL0     C87684   4.600  -0.576  10.794 -0.3616  1.0417 -0.1214
  665MOL0     C87685   4.610  -0.600  10.944  0.3177  1.1251 -0.1232
  665MOL0     C87686   4.485  -0.668  10.992  0.4052  0.7299  0.6926
  665MOL0     C87687   4.480  -0.687  11.140  0.0993 -0.3985  0.3291
  665MOL0     C87688   4.344  -0.754  11.168  0.2287 -1.1164  0.1399
  665MOL0     C87689   4.297  -0.723  11.309  0.3473  0.4771  1.3686
  665MOL0     C87690   4.154  -0.777  11.344  1.1449  0.8239 -0.7899
  665MOL0     C87691   4.109  -0.740  11.484 -0.2280  0.5308  0.1832
  665MOL0    Cl87692   3.964  -0.829  11.550  0.0359 -0.2799  0.3376
  665MOL0     C87693   4.854  -0.446  10.572  0.3913 -0.1016 -0.0458
  665MOL0     C87694   4.870  -0.401  10.446 -0.2264  1.0918  0.5355
  665MOL0     O87695   5.022  -0.426  10.200 -0.1740  0.2283 -0.8767
  665MOL0     C87696   4.794  -0.363   9.922  0.0923 -0.1932  0.3053
  665MOL0     C87697   4.795  -0.362   9.778 -0.2799 -0.1253  0.5373
  665MOL0     N87698   5.144  -0.100   9.049  0.1583 -0.1050 -0.1294
  665MOL0     N87699   5.096   0.011   8.993  0.0655  0.6061 -0.6575
  665MOL0     C87700   3.921   0.338   8.639  0.2892  0.5433  0.5354
  665MOL0     C87701   3.804   0.329   8.573 -0.4882 -0.7435 -0.2709
  665MOL0     C87702   3.401   0.339   8.355  0.8065 -0.3142  0.0353
  665MOL0     C87703   3.315   0.444   8.386 -0.1045  0.4717 -0.8779
  665MOL0     C87704   3.180   0.442   8.344 -1.0246  0.5962 -0.5943
  665MOL0     C87705   3.125   0.330   8.275 -0.3414 -1.0978  0.1902
  665MOL0     O87706   2.991   0.337   8.239 -0.6906 -0.2329 -0.0572
  665MOL0     C87707   2.950   0.260   8.122 -0.5317 -0.1506  0.3155
  665MOL0     C87708   2.808   0.303   8.085  0.2584  0.2739  0.0810
  665MOL0     C87709   2.739   0.199   8.009 -0.1487 -0.8261  0.3028
  665MOL0     C87710   2.798   0.157   7.865  1.0619  0.0876  0.4249
  665MOL0     C87711   2.813   0.281   7.788 -0.9622 -0.6791  0.5135
  665MOL0     C87712   2.834   0.384   7.730 -0.5633  0.7284  0.0842
  665MOL0     C87713   3.212   0.222   8.247 -0.7597  0.1463  0.2992
  665MOL0     C87714   3.341   0.219   8.297 -0.7348 -0.7789  0.5532
  665MOL0     H87715   3.662   0.623   8.650 -4.3948 -3.4664  0.8350
  665MOL0     H87716   3.884   0.637   8.775 -1.1897  0.5218  0.5536
  665MOL0     H87717   4.190   0.347   8.654 -2.5311 -1.0609 -1.5760
  665MOL0     H87718   4.140   0.279   8.811 -1.7681  1.5475 -0.9649
  665MOL0     H87719   4.251   0.438   8.933  1.8282 -3.5845  1.8140
  665MOL0     H87720   4.309   0.526   8.791 -0.2508  1.3364  2.1281
  665MOL0     H87721   4.451   0.321   8.724 -2.0123 -0.4629 -1.4247
  665MOL0     H87722   4.398   0.232   8.866  1.4274 -0.8524  0.1396
  665MOL0     H87723   4.599   0.444   8.834 -0.9301  1.7477  0.3073
  665MOL0     H87724   4.493   0.469   8.980  1.1038  0.9499  0.1609
  665MOL0     H87725   4.552   0.227   9.036 -1.1044  0.2177 -0.8267
  665MOL0     H87726   4.689   0.337   9.042 -1.5756  1.4115  0.4821
  665MOL0     H87727   4.747   0.285   8.810 -2.9258  1.5374 -1.4319
  665MOL0     H87728   4.617   0.175   8.778 -1.9708  0.7220  1.3609
  665MOL0     H87729   4.696   0.035   8.990  0.4635 -2.6506 -1.2643
  665MOL0     H87730   4.799   0.015   8.852  1.7099 -1.3115  1.9444
  665MOL0     H87731   4.827   0.201   9.091 -1.1192  3.4055 -1.5766
  665MOL0     H87732   4.941   0.220   8.967  0.0163  0.8291  1.7870
  665MOL0     H87733   4.895  -0.033   9.249 -1.1896  1.1682 -0.8019
  665MOL0     H87734   5.133  -0.179   9.372 -0.1790 -2.0555  1.2356
  665MOL0     H87735   5.182  -0.282   9.237 -2.3899 -1.1936 -0.8458
  665MOL0     H87736   4.963  -0.352   9.185  0.9354 -0.5094 -0.1779
  665MOL0     H87737   4.893  -0.277   9.337  0.1604 -3.7498  2.3749
  665MOL0     H87738   4.938  -0.526   9.345 -0.3747  0.6862  0.8193
  665MOL0     H87739   5.106  -0.497   9.317 -0.9390 -3.1791  0.8360
  665MOL0     H87740   5.116  -0.341   9.514  1.3563 -0.2330 -0.5658
  665MOL0     H87741   5.090  -0.519   9.551 -2.5835 -0.4643  2.1373
  665MOL0     H87742   5.134  -0.376   9.741  0.8901 -0.1444  0.5691
  665MOL0     H87743   5.133  -0.397   9.982 -1.1204  2.0085  3.5419
  665MOL0     H87744   4.567  -0.431  10.307  1.6390  1.2223 -1.5997
  665MOL0     H87745   4.521  -0.539  10.530  1.4178 -0.8650 -0.0842
  665MOL0     H87746   4.554  -0.666  10.750  0.2746  0.8598 -0.4300
  665MOL0     H87747   4.536  -0.489  10.778  0.5358  2.1763  2.0341
  665MOL0     H87748   4.622  -0.514  11.011  0.3030  0.8855  0.1876
  665MOL0     H87749   4.698  -0.663  10.960 -1.9668 -2.8310 -1.7746
  665MOL0     H87750   4.468  -0.764  10.943  1.0147  0.3990  1.1123
  665MOL0     H87751   4.394  -0.619  10.956 -1.7958 -2.0072  2.1327
  665MOL0     H87752   4.569  -0.740  11.175  1.3961 -0.6256 -2.9534
  665MOL0     H87753   4.481  -0.588  11.187 -3.1403 -0.7778  1.4475
  665MOL0     H87754   4.359  -0.861  11.151  3.2371 -0.7494 -0.0132
  665MOL0     H87755   4.268  -0.722  11.096  2.3083 -2.2293 -2.7208
  665MOL0     H87756   4.288  -0.615  11.317 -1.7681  0.3131  2.0307
  665MOL0     H87757   4.368  -0.745  11.389 -0.0275 -0.3507  1.4928
  665MOL0     H87758   4.089  -0.734  11.268 -2.2453 -3.1974 -0.5281
  665MOL0     H87759   4.158  -0.884  11.322 -0.0268  0.9918 -1.9548
  665MOL0     H87760   4.096  -0.633  11.496 -2.1100  0.4289 -0.5937
  665MOL0     H87761   4.198  -0.758  11.543 -0.4559 -1.8219 -0.0833
  665MOL0     H87762   4.943  -0.461  10.632 -1.3439 -0.4630  2.6383
  665MOL0     H87763   4.964  -0.349  10.434 -0.2231  1.1099  0.6349
  665MOL0     H87764   4.695  -0.364   9.966  0.4830  0.2950  1.2296
  665MOL0     H87765   4.709  -0.381   9.715  0.9652 -2.3476 -0.6528
  665MOL0     H87766   3.984   0.251   8.628  1.1277  1.4840 -3.8585
  665MOL0     H87767   3.778   0.243   8.512 -0.1621 -1.8728  1.1380
  665MOL0     H87768   3.358   0.526   8.442 -0.4908 -1.2255  2.1235
  665MOL0     H87769   3.114   0.521   8.377  2.7185  3.5749  0.5908
  665MOL0     H87770   2.954   0.153   8.145  0.0220 -0.4967 -1.2543
  665MOL0     H87771   3.007   0.286   8.033 -3.4674  3.1892 -0.8321
  665MOL0     H87772   2.755   0.320   8.179 -0.7755  3.2717 -0.9345
  665MOL0     H87773   2.808   0.400   8.034 -2.4799 -0.1530 -0.8566
  665MOL0     H87774   2.640   0.243   7.991  1.1559  1.1534 -2.9055
  665MOL0     H87775   2.726   0.109   8.071  0.3063 -2.1891 -1.5089
  665MOL0     H87776   2.895   0.107   7.855 -0.0001 -1.7347 -1.5622
  665MOL0     H87777   2.715   0.106   7.817  1.2213  0.8402 -0.6809
  665MOL0     H87778   2.840   0.479   7.682 -2.3741 -0.7883 -3.4836
  665MOL0     H87779   3.173   0.124   8.220  1.2251 -0.8117  0.6845
  665MOL0     H87780   3.405   0.132   8.290  2.5492  1.3870  1.2027
  666MOL0     O87781   9.796   1.108   1.493  0.6916  0.8124 -0.2384
  666MOL0     C87782   9.834   1.098   1.380  0.5318  0.5276 -0.0678
  666MOL0     O87783   9.936   1.012   1.339  0.1453 -0.4782 -0.8700
  666MOL0     C87784   9.993   0.916   1.419 -0.1118  0.1571  0.7406
  666MOL0     C87785  10.063   0.828   1.340 -0.5401 -0.3660 -0.2108
  666MOL0     C87786  10.122   0.715   1.398 -0.4668 -0.1351 -0.3380
  666MOL0     C87787  10.099   0.680   1.533  0.6098 -0.2944  0.1471
  666MOL0     O87788  10.159   0.579   1.601  0.1094  0.6452  0.2747
  666MOL0     C87789  10.264   0.610   1.697  0.0764 -0.8468  0.1399
  666MOL0     C87790  10.310   0.486   1.775 -0.0986 -0.0482 -1.1386
  666MOL0     C87791  10.390   0.532   1.900  0.0693  0.2784  0.8381
  666MOL0     C87792  10.435   0.422   1.998 -0.0318 -0.3026 -0.5595
  666MOL0     C87793  10.474   0.474   2.138  0.1272  0.2622  0.1276
  666MOL0     C87794  10.576   0.591   2.138 -0.5953  0.0017  0.0441
  666MOL0     C87795  10.705   0.563   2.063 -0.0034 -0.0236 -0.4144
  666MOL0     C87796  10.824   0.581   2.160  0.0318  0.0452 -0.0624
  666MOL0     N87797  10.950   0.530   2.115 -0.7149 -0.0041 -0.1186
  666MOL0     C87798  11.013   0.550   1.996  0.1925  1.5080  0.2789
  666MOL0     C87799  11.122   0.472   2.005  0.0701  0.0033  0.3758
  666MOL0     C87800  11.223   0.469   1.902 -0.0720 -0.1379  0.6353
  666MOL0     C87801  11.371   0.438   1.945 -0.1168  0.3494  0.0657
  666MOL0     C87802  11.466   0.456   1.829  0.0038 -0.2187  0.0182
  666MOL0     C87803  11.617   0.445   1.876  0.8999 -0.4935 -0.0156
  666MOL0     O87804  11.669   0.312   1.894  0.5139  0.3758  0.6758
  666MOL0     C87805  11.702   0.238   1.787 -0.1669  0.6987 -0.3167
  666MOL0     C87806  11.679   0.278   1.655 -0.2504  0.0029 -0.2024
  666MOL0     C87807  11.727   0.184   1.558 -0.3567  0.3092  0.0269
  666MOL0     C87808  11.769   0.046   1.592  0.2753  0.1651  0.6554
  666MOL0     C87809  11.803  -0.054   1.488  0.2380  0.5478  0.3338
  666MOL0     O87810  11.814  -0.002   1.366 -0.8112  0.0438  0.5096
  666MOL0     C87811  11.850  -0.084   1.262 -0.7484  0.2770 -0.0779
  666MOL0     C87812  11.752  -0.099   1.161 -0.1386 -0.5432  0.4430
  666MOL0     C87813  11.766  -0.199   1.062  0.2227  0.5315 -0.4786
  666MOL0     C87814  11.891  -0.269   1.062  0.2130 -0.1887  0.9225
  666MOL0     O87815  11.902  -0.384   0.984  0.2141 -0.2905  0.6878
  666MOL0     C87816  11.969  -0.499   1.036 -0.4035  0.1719  0.3924
  666MOL0     C87817  11.924  -0.617   0.936  0.7566  0.2857 -0.7052
  666MOL0     C87818  12.045  -0.674   0.874  0.8586 -0.2650  0.5400
  666MOL0     C87819  11.999  -0.773   0.770  0.1935  0.7986  0.3040
  666MOL0     C87820  12.109  -0.817   0.677 -0.2306  0.8666  1.0392
  666MOL0     C87821  12.226  -0.884   0.746 -1.2421 -0.4672 -0.3674
  666MOL0     C87822  12.286  -0.991   0.650 -0.0327  1.0785 -0.4624
  666MOL0     C87823  12.389  -1.060   0.738 -0.4021  0.4822 -0.6299
  666MOL0    Cl87824  12.333  -1.125   0.895 -0.3309  0.1730  0.2145
  666MOL0     C87825  11.996  -0.235   1.151 -0.2731 -0.0878 -0.0158
  666MOL0     C87826  11.979  -0.132   1.239 -0.0915 -0.1619  0.3612
  666MOL0     O87827  11.804  -0.175   1.518  0.8601  0.0057  0.3590
  666MOL0     C87828  11.784   0.018   1.730  0.1453  0.8496  0.2804
  666MOL0     C87829  11.739   0.108   1.821  0.0471 -0.3447 -0.6313
  666MOL0     N87830  11.137   0.414   2.134  0.0382  0.0506 -0.5533
  666MOL0     N87831  11.034   0.455   2.196  0.7737  0.3136  0.1255
  666MOL0     C87832  10.026   0.766   1.605 -0.6733  0.3024 -0.1457
  666MOL0     C87833   9.974   0.882   1.554 -0.4884 -0.6835 -0.2852
  666MOL0     C87834   9.775   1.192   1.281 -0.0706  0.5069  0.1173
  666MOL0     C87835   9.828   1.185   1.145 -0.2452  0.6193 -0.0792
  666MOL0     C87836   9.766   1.269   1.041 -1.3145 -0.2324 -0.5887
  666MOL0     C87837   9.678   1.360   1.078  0.0736 -0.3148  0.5960
  666MOL0     O87838   9.637   1.449   0.981  0.2126 -0.5937 -0.2334
  666MOL0     C87839   9.543   1.403   0.885  0.6054 -0.1757  0.0288
  666MOL0     C87840   9.488   1.522   0.818 -0.3513 -0.5313  0.1104
  666MOL0     C87841   9.419   1.624   0.900  0.4236  0.8735 -0.3359
  666MOL0     C87842   9.288   1.564   0.961 -0.2789 -0.6666  0.2248
  666MOL0     C87843   9.231   1.625   1.084 -0.0335 -0.4169  0.8039
  666MOL0     C87844   9.186   1.701   1.175 -0.2013 -0.5226 -0.1994
  666MOL0     C87845   9.642   1.376   1.215  0.0529 -0.5883 -0.0177
  666MOL0     C87846   9.686   1.288   1.314  0.3567  0.4328  0.6247
  666MOL0     H87847  10.085   0.846   1.236  2.0245  0.2636  0.3651
  666MOL0     H87848  10.185   0.646   1.343 -1.2776 -0.3119 -1.0679
  666MOL0     H87849  10.217   0.683   1.764 -2.8728  1.7634 -4.2446
  666MOL0     H87850  10.345   0.661   1.644  0.4748 -0.9581  0.6318
  666MOL0     H87851  10.368   0.420   1.710 -1.4321 -0.2013 -2.2255
  666MOL0     H87852  10.228   0.424   1.812  0.8589  0.5705  2.3674
  666MOL0     H87853  10.323   0.599   1.955 -0.8976  0.8778 -0.9992
  666MOL0     H87854  10.475   0.592   1.867  3.7684 -3.1585  3.1753
  666MOL0     H87855  10.344   0.361   1.998 -1.3384  1.5413  0.7834
  666MOL0     H87856  10.521   0.375   1.949 -0.4421 -0.8434 -0.7648
  666MOL0     H87857  10.513   0.392   2.200  0.2385  0.3746  0.2063
  666MOL0     H87858  10.381   0.500   2.189 -1.2042 -2.0585 -0.9291
  666MOL0     H87859  10.596   0.610   2.244 -0.7544 -0.5967  0.1871
  666MOL0     H87860  10.538   0.685   2.099  0.4723  1.3347  2.0649
  666MOL0     H87861  10.701   0.466   2.013 -1.4963  1.0427 -2.4936
  666MOL0     H87862  10.715   0.628   1.977 -0.7095 -0.4993 -0.8631
  666MOL0     H87863  10.797   0.538   2.257 -0.6229  2.6235  0.9952
  666MOL0     H87864  10.829   0.688   2.184 -2.6826  0.1909  0.2499
  666MOL0     H87865  10.980   0.601   1.906 -0.9349 -0.2793 -0.3660
  666MOL0     H87866  11.223   0.566   1.850  0.5086  0.6479  2.0415
  666MOL0     H87867  11.202   0.398   1.821 -0.4830  2.0024 -1.2429
  666MOL0     H87868  11.375   0.332   1.972  0.3943  0.6798  1.3945
  666MOL0     H87869  11.383   0.499   2.035 -3.8878  0.5697  0.5553
  666MOL0     H87870  11.459   0.382   1.749  0.1885  1.1324 -1.2962
  666MOL0     H87871  11.458   0.550   1.773  2.6893  0.1901  0.1714
  666MOL0     H87872  11.629   0.502   1.968  1.1652 -0.1319 -0.2753
  666MOL0     H87873  11.670   0.501   1.799 -1.4411  2.8860  0.6072
  666MOL0     H87874  11.669   0.383   1.631 -0.6187  0.3990  1.5468
  666MOL0     H87875  11.714   0.219   1.457 -3.0036  0.6125  0.3989
  666MOL0     H87876  11.660  -0.043   1.177  0.9398  1.0644  1.2337
  666MOL0     H87877  11.682  -0.217   0.995  1.8374 -0.7499 -2.2546
  666MOL0     H87878  11.958  -0.525   1.142  0.5820 -1.4750  0.1296
  666MOL0     H87879  12.078  -0.489   1.027 -0.7129  2.1167 -2.1448
  666MOL0     H87880  11.858  -0.581   0.857  1.8258  0.9237 -1.3326
  666MOL0     H87881  11.878  -0.702   0.988 -3.2651  1.0823 -2.6250
  666MOL0     H87882  12.103  -0.711   0.959  0.3005  1.9654  1.9862
  666MOL0     H87883  12.104  -0.597   0.824 -0.7572 -0.2883 -1.5834
  666MOL0     H87884  11.951  -0.861   0.813  1.1335  0.1588  0.0829
  666MOL0     H87885  11.936  -0.725   0.694 -0.5725  1.4225  1.3050
  666MOL0     H87886  12.141  -0.736   0.610  0.2062 -1.6002 -1.9591
  666MOL0     H87887  12.059  -0.893   0.616 -0.4254  1.1048  0.9003
  666MOL0     H87888  12.200  -0.913   0.848  0.0405  1.2874  0.5240
  666MOL0     H87889  12.307  -0.811   0.760 -1.5245 -0.6419  2.8630
  666MOL0     H87890  12.210  -1.059   0.612  1.6588 -0.8163 -0.5979
  666MOL0     H87891  12.348  -0.951   0.569  0.5186  1.1500 -0.0091
  666MOL0     H87892  12.474  -0.993   0.752  2.2748 -3.0045  1.3682
  666MOL0     H87893  12.432  -1.140   0.678  1.6094  0.8066  0.3053
  666MOL0     H87894  12.091  -0.289   1.153 -1.0769 -1.5659 -0.5551
  666MOL0     H87895  12.045  -0.117   1.324  0.0238  0.2832  0.1959
  666MOL0     H87896  11.806  -0.089   1.737 -0.4524  0.2796 -3.9970
  666MOL0     H87897  11.744   0.090   1.928 -2.2763 -1.4032 -0.6308
  666MOL0     H87898  10.010   0.749   1.711  1.2250  1.3608  0.3515
  666MOL0     H87899   9.931   0.953   1.624 -4.0165 -1.6353 -1.3273
  666MOL0     H87900   9.909   1.119   1.118 -0.5242  0.9248 -1.7599
  666MOL0     H87901   9.800   1.263   0.938  1.3309 -0.4709  0.2176
  666MOL0     H87902   9.465   1.345   0.935 -1.5652  3.2026  0.9381
  666MOL0     H87903   9.592   1.353   0.801  0.4746  1.3567 -1.0017
  666MOL0     H87904   9.573   1.561   0.761 -0.5592  0.5445  0.5171
  666MOL0     H87905   9.417   1.486   0.742  0.0027 -1.9353  0.4073
  666MOL0     H87906   9.394   1.707   0.834  2.7908  0.5701 -1.7006
  666MOL0     H87907   9.486   1.668   0.975  0.9982  0.6050 -0.6831
  666MOL0     H87908   9.213   1.551   0.882  0.0682  1.2438 -0.4712
  666MOL0     H87909   9.317   1.463   0.991 -0.2781 -0.6325  0.3400
  666MOL0     H87910   9.155   1.760   1.259  2.0398 -1.5518  1.4419
  666MOL0     H87911   9.575   1.456   1.246 -1.0249 -1.6832  0.5648
  666MOL0     H87912   9.652   1.300   1.416  2.1603 -3.2954  1.8372
  667MOL0     O87913  11.017   4.859   9.679  0.6386  0.1186  0.2954
  667MOL0     C87914  11.000   4.745   9.632 -0.4691 -0.4547 -0.3292
  667MOL0     O87915  10.887   4.694   9.576  0.2926  0.3894  0.3420
  667MOL0     C87916  10.774   4.772   9.599 -0.1507 -0.1846  1.2483
  667MOL0     C87917  10.728   4.801   9.730 -0.1544  0.0005 -0.1417
  667MOL0     C87918  10.615   4.877   9.755 -0.6115 -0.9213  0.6227
  667MOL0     C87919  10.548   4.923   9.640  0.0159  0.0050  0.4947
  667MOL0     O87920  10.438   4.995   9.667 -0.3531  0.3452 -0.3624
  667MOL0     C87921  10.322   4.934   9.617 -0.0984 -1.4283 -0.1858
  667MOL0     C87922  10.219   5.043   9.574 -0.5986  0.5195  0.6422
  667MOL0     C87923  10.179   5.134   9.696 -1.3714  0.2643  0.1741
  667MOL0     C87924  10.081   5.231   9.658  0.2481  0.9588 -0.6696
  667MOL0     C87925  10.047   5.312   9.780 -0.0203 -0.0332 -0.1063
  667MOL0     C87926   9.965   5.430   9.747 -0.0897 -0.2993 -0.0541
  667MOL0     C87927   9.930   5.516   9.868  0.0303  0.2510 -0.1182
  667MOL0     C87928   9.787   5.571   9.877 -0.4050 -0.7220  0.3394
  667MOL0     N87929   9.765   5.679   9.777  0.3403  0.1466 -0.7049
  667MOL0     C87930   9.646   5.759   9.767  0.1641 -0.4570 -0.7165
  667MOL0     C87931   9.655   5.835   9.655 -0.0954 -0.5101  0.1606
  667MOL0     C87932   9.555   5.932   9.606 -0.8892 -0.9392 -0.0164
  667MOL0     C87933   9.556   6.065   9.676 -0.3494  0.2775 -0.1680
  667MOL0     C87934   9.468   6.165   9.602  0.1344 -0.0237  0.4959
  667MOL0     C87935   9.328   6.107   9.584  1.2617  0.2436 -0.2084
  667MOL0     O87936   9.254   6.214   9.523  0.9216  0.1379 -0.4129
  667MOL0     C87937   9.120   6.161   9.525  0.6823  0.9375 -0.2489
  667MOL0     C87938   9.038   6.197   9.628 -0.3989 -0.0396  0.1911
  667MOL0     C87939   8.906   6.147   9.628 -0.6936  0.4123  0.4884
  667MOL0     C87940   8.859   6.046   9.537 -0.5529  0.5596  0.1045
  667MOL0     C87941   8.720   5.992   9.545  0.6565 -0.4352  0.6237
  667MOL0     O87942   8.663   6.015   9.669  0.3022 -0.2541  0.6644
  667MOL0     C87943   8.524   5.994   9.678 -0.9535  0.2799  0.7491
  667MOL0     C87944   8.465   6.085   9.773  0.0985 -0.4497 -0.4995
  667MOL0     C87945   8.334   6.083   9.815 -0.5161 -0.1217 -0.0786
  667MOL0     C87946   8.255   5.978   9.754  0.3094  1.3921  0.8071
  667MOL0     O87947   8.119   5.975   9.789 -1.0581 -0.2895 -0.2046
  667MOL0     C87948   8.029   5.873   9.764  0.2162 -0.4906  0.3666
  667MOL0     C87949   7.957   5.897   9.626  0.0299  0.5091  0.1493
  667MOL0     C87950   7.803   5.908   9.648 -0.8181  0.3970  0.3702
  667MOL0     C87951   7.759   6.021   9.732  0.9241 -0.1855 -0.4457
  667MOL0     C87952   7.618   6.078   9.711  0.8604  0.1835 -0.9478
  667MOL0     C87953   7.507   5.989   9.738 -0.4324  0.6513 -0.1619
  667MOL0     C87954   7.371   6.049   9.710  0.1541 -0.4183  0.2072
  667MOL0     C87955   7.279   5.942   9.671  0.3435  1.0152 -0.6226
  667MOL0    Cl87956   7.134   6.024   9.593 -0.6878 -0.0109  0.3725
  667MOL0     C87957   8.304   5.880   9.667  0.2732  0.3178  0.1999
  667MOL0     C87958   8.436   5.894   9.623  0.4930  0.4499  0.1521
  667MOL0     O87959   8.664   5.942   9.444  0.5935 -0.0682 -0.1967
  667MOL0     C87960   8.946   6.011   9.434  0.5562 -0.0866 -1.2208
  667MOL0     C87961   9.073   6.068   9.432  0.2981 -1.0384  0.4018
  667MOL0     N87962   9.781   5.815   9.604  0.1733  0.1702 -0.7259
  667MOL0     N87963   9.840   5.718   9.673  0.7573  0.5692 -1.5192
  667MOL0     C87964  10.588   4.893   9.513  0.2547 -0.3002  0.4022
  667MOL0     C87965  10.698   4.816   9.494  0.2615 -0.1667  1.0742
  667MOL0     C87966  11.125   4.660   9.632  1.0054 -1.1699 -0.4232
  667MOL0     C87967  11.120   4.539   9.572 -0.0410  0.6496  0.5744
  667MOL0     C87968  11.232   4.448   9.574  0.4377 -0.1390  0.3307
  667MOL0     C87969  11.346   4.482   9.648 -0.4391  0.4781  0.7507
  667MOL0     O87970  11.453   4.397   9.654  0.2479  0.1409  0.0852
  667MOL0     C87971  11.584   4.455   9.662 -0.4595  0.2012  0.5115
  667MOL0     C87972  11.640   4.433   9.797 -0.9002  0.3303 -0.0443
  667MOL0     C87973  11.789   4.469   9.814  0.8602 -0.3826 -0.3696
  667MOL0     C87974  11.849   4.420   9.948 -0.2138 -0.1335  0.8864
  667MOL0     C87975  11.987   4.475   9.949  0.3477 -0.8679  1.0713
  667MOL0     C87976  12.101   4.505   9.958 -0.9098  0.1631  0.6065
  667MOL0     C87977  11.350   4.612   9.697  0.2229  0.7389  0.8090
  667MOL0     C87978  11.241   4.696   9.691 -0.0268 -0.3294 -0.3832
  667MOL0     H87979  10.769   4.772   9.826  0.7778  5.0866  1.2974
  667MOL0     H87980  10.577   4.916   9.849  0.9746 -0.0698  0.9582
  667MOL0     H87981  10.282   4.877   9.701  0.6861 -0.0778  1.1525
  667MOL0     H87982  10.337   4.875   9.526  0.1751 -1.2829 -0.2354
  667MOL0     H87983  10.127   5.006   9.527 -0.1166 -0.8852  0.7605
  667MOL0     H87984  10.264   5.106   9.497 -0.7242  0.7025  0.7139
  667MOL0     H87985  10.269   5.180   9.737  1.0377 -2.7903 -1.2540
  667MOL0     H87986  10.148   5.065   9.776  0.9770 -2.0912 -0.8152
  667MOL0     H87987  10.115   5.299   9.579  0.7725 -0.0089 -1.3054
  667MOL0     H87988   9.992   5.177   9.623 -1.7413  1.7571  2.6895
  667MOL0     H87989  10.125   5.329   9.855 -1.3299 -0.1182  1.3050
  667MOL0     H87990   9.984   5.243   9.837 -2.4223  2.9639  1.1243
  667MOL0     H87991   9.874   5.397   9.695 -0.4813  1.3637 -0.4872
  667MOL0     H87992  10.015   5.490   9.671 -0.6647  0.6987  0.3368
  667MOL0     H87993   9.940   5.446   9.951 -2.0199  1.2829  1.0834
  667MOL0     H87994  10.002   5.594   9.894 -0.4123  1.2449 -1.7418
  667MOL0     H87995   9.765   5.610   9.977  0.2555  0.8306 -0.0781
  667MOL0     H87996   9.717   5.490   9.857 -0.7027 -0.1780 -0.9627
  667MOL0     H87997   9.568   5.761   9.842  2.6379 -1.2925  2.0957
  667MOL0     H87998   9.455   5.887   9.616 -0.5617 -2.0250 -1.3483
  667MOL0     H87999   9.584   5.953   9.503 -1.1796  3.2688  0.5897
  667MOL0     H88000   9.660   6.098   9.680  0.1895 -1.3460  0.1875
  667MOL0     H88001   9.534   6.044   9.781  2.1205  0.5798  0.4730
  667MOL0     H88002   9.460   6.254   9.665  0.6821 -0.2625  0.9142
  667MOL0     H88003   9.506   6.189   9.503  1.0114 -0.7743  0.6402
  667MOL0     H88004   9.290   6.077   9.682 -1.4065  2.3436 -0.4601
  667MOL0     H88005   9.333   6.025   9.513 -2.6670  3.6962 -5.2264
  667MOL0     H88006   9.069   6.278   9.694  0.7046 -1.1717  1.1235
  667MOL0     H88007   8.850   6.191   9.710  1.2923  0.8131  1.6910
  667MOL0     H88008   8.519   6.167   9.819 -0.2672 -0.1268 -0.6344
  667MOL0     H88009   8.303   6.145   9.898 -2.4332 -2.3725  1.0012
  667MOL0     H88010   7.955   5.889   9.843  0.9811  3.4284  0.4659
  667MOL0     H88011   8.070   5.771   9.764 -0.2739 -0.7531 -1.9758
  667MOL0     H88012   7.987   5.810   9.566 -3.6785 -0.8136  0.0028
  667MOL0     H88013   7.995   5.981   9.567 -4.9896  1.7097 -1.8560
  667MOL0     H88014   7.771   5.808   9.678  0.0502  0.4173  1.4484
  667MOL0     H88015   7.759   5.913   9.548 -2.9606 -1.2997  1.1326
  667MOL0     H88016   7.753   5.998   9.838 -1.1348 -0.4738 -0.5822
  667MOL0     H88017   7.834   6.100   9.729  0.6057  0.1328 -0.1663
  667MOL0     H88018   7.612   6.120   9.610 -2.3880  1.8185 -0.1844
  667MOL0     H88019   7.597   6.161   9.779  0.2309 -0.5669 -0.2117
  667MOL0     H88020   7.508   5.963   9.844 -2.7598 -0.8307 -0.4302
  667MOL0     H88021   7.527   5.895   9.686  0.8922 -1.2761  3.4727
  667MOL0     H88022   7.339   6.101   9.801  0.7301 -2.7189  1.8141
  667MOL0     H88023   7.388   6.123   9.632  1.4963 -0.3857  0.5095
  667MOL0     H88024   7.253   5.890   9.763 -0.4092 -1.5471 -2.1964
  667MOL0     H88025   7.319   5.864   9.605  0.5808  0.6345 -0.0313
  667MOL0     H88026   8.246   5.805   9.613  1.3181 -0.6333  0.3553
  667MOL0     H88027   8.476   5.816   9.558  0.1658  0.2224  0.2186
  667MOL0     H88028   8.920   5.946   9.351 -2.2323  1.0118 -1.3193
  667MOL0     H88029   9.137   6.036   9.349  1.0767  1.1933  0.0732
  667MOL0     H88030  10.527   4.931   9.432  0.5769  2.7095  1.4459
  667MOL0     H88031  10.726   4.811   9.389 -2.5477  1.1571  0.1661
  667MOL0     H88032  11.030   4.511   9.518  0.8558 -2.1535  0.3799
  667MOL0     H88033  11.226   4.361   9.510 -1.1911  0.5862 -0.5574
  667MOL0     H88034  11.585   4.558   9.625 -2.2077 -0.7188 -2.4558
  667MOL0     H88035  11.644   4.399   9.590  1.4641  3.4584 -0.5954
  667MOL0     H88036  11.582   4.506   9.855 -1.2911  0.0026 -0.0229
  667MOL0     H88037  11.621   4.334   9.839 -2.7475  0.2476 -0.9290
  667MOL0     H88038  11.793   4.578   9.812  3.4936 -0.3076  2.1915
  667MOL0     H88039  11.850   4.421   9.737  2.7586  0.0054  0.8228
  667MOL0     H88040  11.783   4.450  10.030 -2.0049  0.0857 -0.5683
  667MOL0     H88041  11.860   4.311   9.944 -0.4850 -0.1813  1.3137
  667MOL0     H88042  12.201   4.534   9.983 -0.4508  1.4562 -2.3476
  667MOL0     H88043  11.437   4.651   9.748 -1.9371  7.0953  0.4341
  667MOL0     H88044  11.259   4.786   9.748  3.3569 -0.4847 -0.9910
  668MOL0     O88045   5.077   3.088  10.426 -0.9114  0.7391 -0.3867
  668MOL0     C88046   4.991   3.165  10.459 -0.1282 -0.2348  0.4013
  668MOL0     O88047   4.954   3.278  10.392  0.4761 -0.4995  0.1603
  668MOL0     C88048   4.984   3.308  10.262  0.4942  0.1122 -0.4236
  668MOL0     C88049   5.006   3.442  10.240  1.0828 -0.3112  0.3447
  668MOL0     C88050   5.029   3.478  10.107 -0.3014 -0.5058 -0.5455
  668MOL0     C88051   5.035   3.381  10.003 -0.0909 -0.3291  0.8057
  668MOL0     O88052   5.068   3.407   9.867 -0.3180 -0.1634 -0.1731
  668MOL0     C88053   5.109   3.545   9.849 -0.3481 -0.6871  0.3422
  668MOL0     C88054   5.166   3.577   9.711 -0.6230 -0.2612  0.7217
  668MOL0     C88055   5.065   3.540   9.607  0.1403  0.4795  0.6318
  668MOL0     C88056   5.125   3.564   9.464  0.2784  0.1076  0.2251
  668MOL0     C88057   5.023   3.540   9.350  0.2767  0.2521 -0.6532
  668MOL0     C88058   5.094   3.529   9.222  0.1033 -0.7655 -0.1695
  668MOL0     C88059   5.125   3.673   9.157  0.5040 -0.1839  0.4520
  668MOL0     C88060   5.230   3.647   9.051 -0.1911 -0.8011  0.3970
  668MOL0     N88061   5.278   3.757   8.975 -0.2196 -0.5267  0.3951
  668MOL0     C88062   5.200   3.820   8.880  0.3040  0.1852  0.4902
  668MOL0     C88063   5.292   3.904   8.817 -0.1700 -0.1059 -0.1210
  668MOL0     C88064   5.246   3.968   8.683 -0.3216  0.0754  0.0422
  668MOL0     C88065   5.360   4.013   8.588  0.0771 -0.1163 -1.0965
  668MOL0     C88066   5.320   4.099   8.475 -0.9364  0.0674  0.5145
  668MOL0     C88067   5.443   4.116   8.390 -0.5287 -0.9424  0.5538
  668MOL0     O88068   5.443   4.227   8.297 -0.4293 -0.2812 -0.1865
  668MOL0     C88069   5.522   4.204   8.187 -0.0075 -0.2220  0.4059
  668MOL0     C88070   5.496   4.257   8.063 -0.5018 -0.6046  0.3137
  668MOL0     C88071   5.579   4.220   7.956  0.6042  0.2469  0.2988
  668MOL0     C88072   5.709   4.174   7.976 -1.8031  1.5037 -0.3474
  668MOL0     C88073   5.815   4.172   7.858 -0.3407  0.7536  0.0748
  668MOL0     O88074   5.911   4.074   7.873  0.4483 -0.3974  0.0527
  668MOL0     C88075   6.016   4.071   7.784  0.1526  0.4648 -0.4262
  668MOL0     C88076   6.003   4.040   7.647 -0.1475 -0.8535  0.2383
  668MOL0     C88077   6.117   4.024   7.563  0.1919  0.4497 -0.1657
  668MOL0     C88078   6.240   4.055   7.616 -0.0913 -0.0393  0.5248
  668MOL0     O88079   6.363   4.036   7.559  0.1159  0.3823  0.5963
  668MOL0     C88080   6.358   4.031   7.414  0.1264  0.1999  0.5730
  668MOL0     C88081   6.466   4.113   7.348 -0.2171 -0.0685  0.0390
  668MOL0     C88082   6.504   4.057   7.217  0.7087  0.2932  0.0787
  668MOL0     C88083   6.559   4.168   7.129 -0.4281  0.0816 -1.5568
  668MOL0     C88084   6.465   4.269   7.069  0.0878 -0.4757  0.0073
  668MOL0     C88085   6.354   4.217   6.969 -0.8925 -0.0631  1.3470
  668MOL0     C88086   6.402   4.233   6.822  0.6492  0.2363  0.2071
  668MOL0     C88087   6.352   4.119   6.740  0.6579  1.1213  0.4490
  668MOL0    Cl88088   6.175   4.088   6.748  0.1586 -0.0212  0.2921
  668MOL0     C88089   6.252   4.073   7.754  0.4589 -0.2571 -0.5326
  668MOL0     C88090   6.145   4.086   7.832 -0.2350 -0.3709 -0.3368
  668MOL0     O88091   5.802   4.251   7.764 -0.8519  0.1877 -0.3324
  668MOL0     C88092   5.738   4.129   8.105 -0.1522 -0.6493  1.2660
  668MOL0     C88093   5.650   4.148   8.215  0.0074 -0.0696  0.5900
  668MOL0     N88094   5.411   3.910   8.887 -0.5337  0.5255 -0.6179
  668MOL0     N88095   5.399   3.822   8.984 -0.0584  0.2978 -0.1947
  668MOL0     C88096   5.016   3.245  10.033 -0.8350 -0.6146 -0.0587
  668MOL0     C88097   4.991   3.209  10.168 -0.2230  0.4164 -0.7423
  668MOL0     C88098   4.911   3.142  10.583  0.5235  0.5489  0.1663
  668MOL0     C88099   4.873   3.239  10.673 -0.7682  0.3400 -0.3548
  668MOL0     C88100   4.785   3.212  10.782  0.8714  0.5866  0.7108
  668MOL0     C88101   4.742   3.084  10.802  0.5082  0.2461 -0.0154
  668MOL0     O88102   4.675   3.029  10.907 -0.1334 -0.2610 -0.0001
  668MOL0     C88103   4.611   3.122  11.003  0.3282  0.3987  0.3527
  668MOL0     C88104   4.556   3.039  11.111  0.2884  0.3368 -0.2434
  668MOL0     C88105   4.435   2.965  11.067  0.4853  0.2510  0.2187
  668MOL0     C88106   4.468   2.821  11.016  0.2532  0.8517  0.1187
  668MOL0     C88107   4.438   2.726  11.125  0.3253  0.2469  0.1527
  668MOL0     C88108   4.402   2.643  11.205 -0.4694 -0.1492 -0.2272
  668MOL0     C88109   4.787   2.978  10.719  0.7256  0.3383  0.1256
  668MOL0     C88110   4.869   3.009  10.611  0.0596 -1.0077  0.3451
  668MOL0     H88111   5.001   3.514  10.321 -1.0633  0.5727 -0.4851
  668MOL0     H88112   5.043   3.585  10.098 -2.6317  0.0026  0.9470
  668MOL0     H88113   5.190   3.569   9.918  0.7670 -2.1761 -0.3690
  668MOL0     H88114   5.028   3.614   9.872 -0.9254 -1.7019  1.4400
  668MOL0     H88115   5.258   3.518   9.699  1.6868  2.3668  3.7315
  668MOL0     H88116   5.202   3.680   9.705  1.9431 -1.1676 -2.8324
  668MOL0     H88117   4.968   3.592   9.614 -2.2878 -2.9415 -3.0672
  668MOL0     H88118   5.038   3.434   9.612  5.0180 -1.0120  0.0172
  668MOL0     H88119   5.164   3.666   9.460 -2.3252  1.3285  2.7711
  668MOL0     H88120   5.210   3.496   9.445  2.2153  2.7997 -1.4377
  668MOL0     H88121   4.946   3.617   9.344 -0.9686 -0.9753 -0.7732
  668MOL0     H88122   4.965   3.449   9.364 -1.8367  1.4388 -1.2787
  668MOL0     H88123   5.028   3.470   9.158 -2.0798  0.4967  0.7986
  668MOL0     H88124   5.174   3.456   9.238 -0.2774 -1.9269 -2.9550
  668MOL0     H88125   5.037   3.715   9.107  2.2255  2.0732 -0.8658
  668MOL0     H88126   5.155   3.740   9.238 -0.6479  1.0173 -0.0805
  668MOL0     H88127   5.194   3.571   8.980 -1.0557  0.3991 -0.4846
  668MOL0     H88128   5.315   3.611   9.110  1.1923  0.2047 -0.9367
  668MOL0     H88129   5.095   3.800   8.865  0.3494 -0.3155  0.8118
  668MOL0     H88130   5.191   4.059   8.709  0.3236  0.4827  0.0227
  668MOL0     H88131   5.186   3.901   8.621 -0.1878 -0.0045 -0.0011
  668MOL0     H88132   5.406   3.917   8.561 -0.3270 -0.5552 -0.2568
  668MOL0     H88133   5.430   4.065   8.654  0.6519 -1.3090 -0.7331
  668MOL0     H88134   5.239   4.057   8.414  0.3484  2.3531 -3.0503
  668MOL0     H88135   5.281   4.194   8.513 -2.7187 -0.7212  0.7421
  668MOL0     H88136   5.467   4.019   8.346  2.1825  0.3689 -1.1235
  668MOL0     H88137   5.525   4.137   8.459 -0.1836  0.7438 -0.2997
  668MOL0     H88138   5.415   4.329   8.052  0.6129  0.4804 -1.1370
  668MOL0     H88139   5.548   4.258   7.859 -1.0652  3.5081  1.9527
  668MOL0     H88140   5.901   4.015   7.618 -0.4192 -0.8057  1.1264
  668MOL0     H88141   6.113   4.002   7.456  1.5500 -2.8721  0.3419
  668MOL0     H88142   6.268   4.074   7.368 -1.0179 -2.6515 -0.0999
  668MOL0     H88143   6.376   3.930   7.376  2.7395  0.9712 -0.4489
  668MOL0     H88144   6.553   4.110   7.414 -1.0907  3.4836  1.6321
  668MOL0     H88145   6.432   4.217   7.341  2.3595  0.9402  1.2030
  668MOL0     H88146   6.409   4.022   7.175 -0.7877  3.5924  0.4318
  668MOL0     H88147   6.577   3.976   7.227  0.0734 -0.1299  1.4438
  668MOL0     H88148   6.628   4.227   7.191 -0.0538  2.1754 -3.7887
  668MOL0     H88149   6.612   4.132   7.041 -1.6821  1.9642 -3.1703
  668MOL0     H88150   6.518   4.347   7.014 -0.5361  1.9747  2.6740
  668MOL0     H88151   6.411   4.316   7.152  0.0799  0.5530 -0.5606
  668MOL0     H88152   6.270   4.287   6.969  0.5806  1.7665  1.2265
  668MOL0     H88153   6.316   4.114   6.978 -1.6122 -0.2223 -2.0317
  668MOL0     H88154   6.356   4.326   6.789 -0.0736 -0.2996 -0.3417
  668MOL0     H88155   6.510   4.230   6.810  0.5238 -2.5134 -1.2847
  668MOL0     H88156   6.377   4.025   6.791 -1.5203  1.8072  3.0370
  668MOL0     H88157   6.391   4.120   6.638  3.7557  1.7789  1.5457
  668MOL0     H88158   6.355   4.087   7.783  0.9616  0.2704 -2.4377
  668MOL0     H88159   6.152   4.119   7.935 -1.1274 -0.2855 -0.2994
  668MOL0     H88160   5.832   4.075   8.119 -0.2765 -1.8849 -1.9181
  668MOL0     H88161   5.675   4.108   8.313  2.1322 -2.0621 -0.6642
  668MOL0     H88162   5.033   3.173   9.954  1.3936 -1.1941  0.8749
  668MOL0     H88163   4.987   3.106  10.201 -0.3959  0.3197 -1.0581
  668MOL0     H88164   4.896   3.345  10.662 -1.7935  0.3487 -3.4832
  668MOL0     H88165   4.759   3.293  10.850  0.5852 -0.9322  2.5139
  668MOL0     H88166   4.517   3.167  10.968 -0.4819  0.1108  2.0510
  668MOL0     H88167   4.679   3.201  11.035 -1.5248  1.9589  0.6015
  668MOL0     H88168   4.622   2.961  11.150 -0.3424  0.9195  2.1433
  668MOL0     H88169   4.542   3.109  11.194 -0.7300  1.7113 -1.5081
  668MOL0     H88170   4.395   3.023  10.983 -1.2327 -0.7243  0.3217
  668MOL0     H88171   4.360   2.969  11.147 -0.0787 -1.0543 -0.2307
  668MOL0     H88172   4.393   2.804  10.938 -0.6277  3.0389  0.4186
  668MOL0     H88173   4.572   2.821  10.982 -0.2396 -0.2263 -1.5105
  668MOL0     H88174   4.382   2.573  11.283  0.6907  0.4826  0.6724
  668MOL0     H88175   4.762   2.877  10.747 -1.0472 -0.7367 -4.4808
  668MOL0     H88176   4.906   2.921  10.559  1.9166 -0.6371  0.9629
  669MOL0     O88177   0.778   8.837   8.216  0.3361 -0.4456  0.4743
  669MOL0     C88178   0.673   8.885   8.175 -0.5036  0.2574 -0.1487
  669MOL0     O88179   0.633   8.893   8.044 -0.2275  0.0783  0.4375
  669MOL0     C88180   0.715   8.838   7.950  0.0227  0.2525 -0.1052
  669MOL0     C88181   0.714   8.695   7.941  0.1681 -0.5985  1.2930
  669MOL0     C88182   0.782   8.638   7.841 -0.8053  0.2868  0.3458
  669MOL0     C88183   0.850   8.715   7.747 -0.8030  1.5830  0.5368
  669MOL0     O88184   0.936   8.650   7.655 -0.1087  0.6997 -0.0324
  669MOL0     C88185   1.021   8.543   7.699 -0.0682 -1.4429  0.4897
  669MOL0     C88186   1.137   8.538   7.609 -0.9288  0.1227  0.5102
  669MOL0     C88187   1.216   8.407   7.629 -0.7042 -0.0258 -0.2253
  669MOL0     C88188   1.304   8.417   7.761  0.5717 -0.9275 -0.6791
  669MOL0     C88189   1.414   8.305   7.776 -0.5440  0.3527  0.4184
  669MOL0     C88190   1.369   8.163   7.757 -0.6012 -0.1520 -0.7049
  669MOL0     C88191   1.456   8.058   7.833  0.1340  0.1075 -0.3900
  669MOL0     C88192   1.600   8.058   7.778 -1.9338  0.0549  0.5401
  669MOL0     N88193   1.613   8.035   7.630  0.4434 -0.3374  0.5117
  669MOL0     C88194   1.579   7.919   7.569 -0.7281  0.5739  0.9327
  669MOL0     C88195   1.621   7.934   7.446  0.2233  0.2864 -0.0414
  669MOL0     C88196   1.569   7.844   7.329 -0.6891  0.0369 -0.0848
  669MOL0     C88197   1.627   7.861   7.189 -0.4280  0.4702  0.3059
  669MOL0     C88198   1.587   7.739   7.099  0.2134 -0.3977 -0.2948
  669MOL0     C88199   1.436   7.730   7.081  0.2785  0.2645 -0.2101
  669MOL0     O88200   1.377   7.850   7.025  0.1585  0.2045  0.3261
  669MOL0     C88201   1.244   7.850   6.997  1.0069  0.3631  0.5052
  669MOL0     C88202   1.181   7.957   6.938  0.4565  0.1734  0.0633
  669MOL0     C88203   1.042   7.969   6.903  0.7630  0.4573  0.2570
  669MOL0     C88204   0.957   7.866   6.942  0.4333  0.1444 -0.9235
  669MOL0     C88205   0.809   7.879   6.915 -0.4279 -0.0331  0.5570
  669MOL0     O88206   0.736   7.769   6.931  0.2488 -0.5831  0.1699
  669MOL0     C88207   0.602   7.768   6.885  0.6159 -0.3018  0.4784
  669MOL0     C88208   0.581   7.729   6.758  0.2115 -0.0869 -0.2182
  669MOL0     C88209   0.454   7.721   6.712  0.1770 -0.1929  0.3887
  669MOL0     C88210   0.341   7.758   6.789  0.4421 -0.2643 -0.0363
  669MOL0     O88211   0.221   7.747   6.722 -0.8721 -0.3570  0.4211
  669MOL0     C88212   0.097   7.752   6.787 -0.5236 -0.1902  0.0585
  669MOL0     C88213   0.008   7.769   6.662 -0.7867 -0.2838  0.2056
  669MOL0     C88214  -0.135   7.741   6.692 -0.2698 -0.2963 -0.3807
  669MOL0     C88215  -0.166   7.594   6.738 -0.5262 -0.8373 -0.3104
  669MOL0     C88216  -0.318   7.566   6.727 -0.0824  0.8950 -0.2151
  669MOL0     C88217  -0.334   7.420   6.765 -0.0022  0.3442 -0.3190
  669MOL0     C88218  -0.477   7.386   6.788  0.6073 -0.0585  1.2105
  669MOL0     C88219  -0.537   7.316   6.669  0.1264  0.3483  0.0843
  669MOL0    Cl88220  -0.707   7.281   6.708  0.0180 -0.0475 -0.0360
  669MOL0     C88221   0.355   7.786   6.918  0.4352  0.3558  0.4052
  669MOL0     C88222   0.489   7.791   6.971  0.0367 -0.5766  0.0425
  669MOL0     O88223   0.768   7.989   6.874 -0.4872  0.1972 -0.2904
  669MOL0     C88224   1.009   7.750   7.005 -0.1866  0.4371 -0.2949
  669MOL0     C88225   1.148   7.742   7.030 -0.1496  0.2067  0.7678
  669MOL0     N88226   1.672   8.059   7.418 -0.5439 -0.3345 -0.8281
  669MOL0     N88227   1.656   8.121   7.536  0.0641 -0.2872  0.8263
  669MOL0     C88228   0.856   8.856   7.756  0.1654 -0.3866 -0.0423
  669MOL0     C88229   0.787   8.924   7.861 -0.3962  0.1872  0.6807
  669MOL0     C88230   0.587   8.941   8.286  0.0281 -1.0990  0.2039
  669MOL0     C88231   0.498   9.052   8.248  0.2531 -0.1022  0.0149
  669MOL0     C88232   0.423   9.097   8.353  0.2282 -0.2255  0.9979
  669MOL0     C88233   0.433   9.064   8.493  0.3385  1.1338  0.0838
  669MOL0     O88234   0.359   9.107   8.599  0.0058 -0.3969  0.1394
  669MOL0     C88235   0.220   9.145   8.570  0.1612  0.0624  0.2871
  669MOL0     C88236   0.142   9.175   8.699 -0.3850 -0.1304 -0.4167
  669MOL0     C88237   0.220   9.262   8.798  0.8080 -0.1735 -0.6848
  669MOL0     C88238   0.223   9.412   8.774 -0.3939 -0.2471  1.0193
  669MOL0     C88239   0.311   9.477   8.871  1.2311  0.4341 -0.3845
  669MOL0     C88240   0.383   9.508   8.963  0.3861  1.0107  0.0833
  669MOL0     C88241   0.536   8.976   8.532  0.1318 -0.0397  0.1095
  669MOL0     C88242   0.613   8.914   8.427  0.0718  0.5989 -0.1318
  669MOL0     H88243   0.659   8.648   8.023 -1.9069  2.2387  1.6717
  669MOL0     H88244   0.778   8.531   7.824  0.1761 -0.0915  2.2133
  669MOL0     H88245   0.968   8.447   7.697 -0.5416 -1.2823 -3.9336
  669MOL0     H88246   1.035   8.558   7.806  1.1467 -0.4161  0.2009
  669MOL0     H88247   1.203   8.624   7.624  1.2701 -1.6631  1.7129
  669MOL0     H88248   1.111   8.536   7.503 -1.3033  0.0920  0.5999
  669MOL0     H88249   1.281   8.381   7.545 -1.0839 -1.8162 -0.0241
  669MOL0     H88250   1.152   8.318   7.635  1.9561 -2.0939 -0.3954
  669MOL0     H88251   1.343   8.520   7.754  0.5940 -0.7482  1.3292
  669MOL0     H88252   1.244   8.409   7.852  0.9733  0.9396 -0.2020
  669MOL0     H88253   1.468   8.325   7.869 -0.2457  1.1741  0.0857
  669MOL0     H88254   1.480   8.332   7.692  1.0763  0.2718  1.6024
  669MOL0     H88255   1.383   8.126   7.655  2.8029 -1.4563  0.1125
  669MOL0     H88256   1.268   8.146   7.796  0.1688 -2.6698  0.3751
  669MOL0     H88257   1.448   8.076   7.941 -0.3568  1.0124 -0.5726
  669MOL0     H88258   1.423   7.955   7.815  0.1715  0.0469 -0.1206
  669MOL0     H88259   1.661   7.977   7.821 -2.6472 -0.0452  1.3966
  669MOL0     H88260   1.627   8.162   7.801 -1.0663  0.5349 -2.2811
  669MOL0     H88261   1.522   7.834   7.605 -0.2939 -1.6715 -3.1396
  669MOL0     H88262   1.460   7.845   7.325 -0.6908 -0.9479 -0.5131
  669MOL0     H88263   1.611   7.748   7.360  2.7144  1.1377 -0.7913
  669MOL0     H88264   1.736   7.863   7.189 -0.4295  1.0100 -0.5345
  669MOL0     H88265   1.591   7.957   7.150 -4.1008 -0.8688  0.0343
  669MOL0     H88266   1.629   7.753   6.998 -0.4773  2.7961 -0.2529
  669MOL0     H88267   1.613   7.643   7.143 -1.8857 -1.6255 -1.5875
  669MOL0     H88268   1.391   7.712   7.179 -1.5509  1.7554 -0.7222
  669MOL0     H88269   1.427   7.648   7.010 -3.4155  1.3095 -1.1859
  669MOL0     H88270   1.252   8.038   6.920  2.2652 -0.9402  1.7827
  669MOL0     H88271   1.001   8.052   6.846 -1.3313 -1.1519 -0.6968
  669MOL0     H88272   0.659   7.695   6.692 -0.9185 -1.5708 -0.8581
  669MOL0     H88273   0.427   7.696   6.610 -1.6476 -0.2423  0.8467
  669MOL0     H88274   0.084   7.833   6.860 -2.6169 -0.4357  0.0187
  669MOL0     H88275   0.085   7.655   6.835 -2.3817 -0.5488 -1.0618
  669MOL0     H88276   0.038   7.700   6.583 -1.5187  1.5309 -1.7486
  669MOL0     H88277   0.028   7.870   6.624  3.2585 -1.2259 -0.7382
  669MOL0     H88278  -0.197   7.752   6.603 -0.9673 -1.2275 -0.0219
  669MOL0     H88279  -0.161   7.815   6.769  0.0354  1.6058 -2.0126
  669MOL0     H88280  -0.113   7.529   6.668  1.6357  0.1613  0.3124
  669MOL0     H88281  -0.133   7.581   6.842 -6.6688 -2.2514  1.9096
  669MOL0     H88282  -0.353   7.565   6.623  0.3383 -1.4890 -0.3747
  669MOL0     H88283  -0.380   7.639   6.781 -1.5762  2.1707 -3.3938
  669MOL0     H88284  -0.277   7.394   6.854 -1.3149 -0.8737  0.1959
  669MOL0     H88285  -0.280   7.357   6.694  1.7661  0.8971  0.4926
  669MOL0     H88286  -0.478   7.323   6.877  0.2343  2.1776  2.8764
  669MOL0     H88287  -0.532   7.480   6.796  1.4773  0.5074  0.7921
  669MOL0     H88288  -0.485   7.220   6.668  0.0527  0.3102 -0.2478
  669MOL0     H88289  -0.531   7.371   6.575 -0.1947 -1.5997 -1.1195
  669MOL0     H88290   0.267   7.810   6.976  1.0411  0.5084  1.2825
  669MOL0     H88291   0.501   7.813   7.076 -0.0979  0.2330 -0.0993
  669MOL0     H88292   0.957   7.657   7.030  0.3791 -0.0927 -1.0530
  669MOL0     H88293   1.185   7.661   7.092  1.5317 -1.2275 -1.9324
  669MOL0     H88294   0.905   8.908   7.674  1.1505 -2.6866 -0.9908
  669MOL0     H88295   0.799   9.032   7.861  1.6259  0.0194  0.1076
  669MOL0     H88296   0.476   9.075   8.145  0.7938 -2.3489 -0.6635
  669MOL0     H88297   0.350   9.172   8.324 -1.8740 -3.1350 -1.8893
  669MOL0     H88298   0.169   9.061   8.523 -2.7907  1.8635  0.0258
  669MOL0     H88299   0.202   9.232   8.507  0.1621 -0.8734 -1.0290
  669MOL0     H88300   0.040   9.211   8.687  0.0688  1.8356  1.1426
  669MOL0     H88301   0.137   9.073   8.740  0.2784 -0.6726 -1.6279
  669MOL0     H88302   0.327   9.240   8.798  1.0927  0.8589 -3.2178
  669MOL0     H88303   0.175   9.228   8.893  4.0076 -2.3089  0.2341
  669MOL0     H88304   0.261   9.425   8.672  2.0092  2.4457  2.1492
  669MOL0     H88305   0.120   9.449   8.785  0.3339  1.5630  2.1305
  669MOL0     H88306   0.450   9.521   9.046  2.4933  0.8756 -1.5142
  669MOL0     H88307   0.536   8.958   8.639 -3.9143  0.7617  0.4072
  669MOL0     H88308   0.690   8.841   8.453 -1.4540 -0.2554  2.2428
  670MOL0     O88309   3.246   7.185   9.209  0.4280 -0.1741 -0.6700
  670MOL0     C88310   3.232   7.063   9.224 -0.2419 -0.2685  0.8316
  670MOL0     O88311   3.327   6.974   9.252 -0.4765 -0.4202 -1.3075
  670MOL0     C88312   3.458   7.013   9.282 -0.2633  0.7156 -0.2463
  670MOL0     C88313   3.487   7.129   9.352 -0.4458  0.4482 -0.0521
  670MOL0     C88314   3.621   7.148   9.402 -0.1398 -0.1222 -0.0025
  670MOL0     C88315   3.727   7.062   9.367  0.1018 -0.2723 -0.3284
  670MOL0     O88316   3.854   7.061   9.409  0.8735  0.5428 -0.2050
  670MOL0     C88317   3.897   7.158   9.507 -0.9573 -0.2844 -0.0408
  670MOL0     C88318   4.042   7.131   9.526  0.4616 -0.3428 -0.5284
  670MOL0     C88319   4.104   7.242   9.613 -0.0265  0.3803 -0.2797
  670MOL0     C88320   4.253   7.228   9.628  0.0968 -0.0017 -1.4450
  670MOL0     C88321   4.289   7.086   9.684 -0.9835  0.0189 -0.1058
  670MOL0     C88322   4.432   7.087   9.745 -0.5284  0.4255 -0.5778
  670MOL0     C88323   4.446   6.956   9.830  0.1327  0.7380 -0.2960
  670MOL0     C88324   4.379   6.943   9.976  0.1555 -0.6348  0.3191
  670MOL0     N88325   4.478   6.966  10.078 -0.6277  0.8062 -0.0338
  670MOL0     C88326   4.585   7.051  10.074 -0.1789 -0.8770  0.0739
  670MOL0     C88327   4.651   7.045  10.193  0.1286  0.2476  1.1473
  670MOL0     C88328   4.774   7.114  10.242  0.0559 -0.2422  0.2933
  670MOL0     C88329   4.794   7.255  10.184  0.2994  0.9100  0.3797
  670MOL0     C88330   4.744   7.365  10.270  0.1283  0.5455  0.8446
  670MOL0     C88331   4.702   7.500  10.191  0.0707  0.9060 -0.5202
  670MOL0     O88332   4.641   7.590  10.287 -0.8449  0.4803 -0.6674
  670MOL0     C88333   4.508   7.585  10.330 -0.3780 -1.2060  0.0871
  670MOL0     C88334   4.411   7.529  10.249 -0.2828 -0.4372  0.1628
  670MOL0     C88335   4.279   7.535  10.285  0.5982  0.7836  0.1518
  670MOL0     C88336   4.235   7.602  10.396  0.6845 -0.6757 -0.3383
  670MOL0     C88337   4.090   7.627  10.415  0.7098  0.3941  0.2185
  670MOL0     O88338   4.042   7.707  10.515  0.2736 -0.4468 -0.8660
  670MOL0     C88339   3.901   7.697  10.523  0.4334  0.6134 -0.7870
  670MOL0     C88340   3.826   7.801  10.495  0.0511 -0.1736  0.2503
  670MOL0     C88341   3.684   7.800  10.489  0.7271 -0.0887  0.4085
  670MOL0     C88342   3.620   7.680  10.486  0.5283 -0.8495 -0.1027
  670MOL0     O88343   3.484   7.696  10.468 -0.5549 -0.2869  0.0482
  670MOL0     C88344   3.384   7.587  10.496 -0.0564  0.1652  0.0756
  670MOL0     C88345   3.363   7.578  10.643  0.2996  0.5218  0.8448
  670MOL0     C88346   3.260   7.680  10.682 -0.2291 -0.0722  0.0575
  670MOL0     C88347   3.272   7.695  10.838  0.3787 -0.5148 -0.3359
  670MOL0     C88348   3.213   7.830  10.889  0.7741 -0.9742 -0.3001
  670MOL0     C88349   3.064   7.842  10.858 -0.0907  1.1114 -0.2305
  670MOL0     C88350   3.010   7.985  10.869 -0.5039  0.7914  0.1513
  670MOL0     C88351   2.867   7.992  10.827  0.3430 -0.6094  0.1461
  670MOL0    Cl88352   2.747   7.899  10.926  0.0257 -0.5964  0.1462
  670MOL0     C88353   3.689   7.564  10.525  0.0631 -0.3359 -0.0018
  670MOL0     C88354   3.832   7.573  10.551 -0.7450  0.8078  0.5834
  670MOL0     O88355   4.024   7.572  10.327 -0.7130 -0.6620 -0.0195
  670MOL0     C88356   4.333   7.653  10.490 -0.4519  0.1732  0.2420
  670MOL0     C88357   4.467   7.652  10.443 -0.4462  0.5980 -0.1866
  670MOL0     N88358   4.590   6.936  10.259  0.5104  0.4550  0.5132
  670MOL0     N88359   4.478   6.905  10.197  0.7393  0.1547 -0.1351
  670MOL0     C88360   3.688   6.951   9.291  0.1558 -1.3748  0.1008
  670MOL0     C88361   3.556   6.920   9.256  0.8576 -0.3911  0.6396
  670MOL0     C88362   3.100   7.002   9.186  0.3483 -0.3898 -0.0008
  670MOL0     C88363   2.996   7.092   9.138 -0.6507 -0.0346  0.1270
  670MOL0     C88364   2.875   7.037   9.093  0.9587  0.0630 -0.0983
  670MOL0     C88365   2.853   6.895   9.086  0.2630 -0.7090 -0.3301
  670MOL0     O88366   2.733   6.837   9.054  0.6578 -0.2191  0.5204
  670MOL0     C88367   2.628   6.898   8.981 -0.3005 -0.8813  0.3727
  670MOL0     C88368   2.527   6.942   9.095 -0.3343 -0.8197 -0.1968
  670MOL0     C88369   2.519   6.859   9.233  1.1810  0.8188  0.3186
  670MOL0     C88370   2.601   6.912   9.361  0.2254  1.0199 -0.4331
  670MOL0     C88371   2.545   7.026   9.438  0.2871  0.5082 -0.0882
  670MOL0     C88372   2.497   7.118   9.508  0.1056 -0.2716 -0.5869
  670MOL0     C88373   2.956   6.809   9.134  0.0585  0.7019 -0.0501
  670MOL0     C88374   3.073   6.864   9.189 -0.6578  0.1768  0.1971
  670MOL0     H88375   3.416   7.205   9.381 -2.4139 -0.4030 -2.3068
  670MOL0     H88376   3.623   7.235   9.468 -0.0341  0.2997 -0.5526
  670MOL0     H88377   3.850   7.147   9.606  0.2851 -0.3066  0.5729
  670MOL0     H88378   3.878   7.261   9.476  0.0286  0.9790  3.1172
  670MOL0     H88379   4.098   7.131   9.432 -1.5077 -0.7681 -1.7731
  670MOL0     H88380   4.048   7.036   9.579 -1.9659 -1.2319 -1.6901
  670MOL0     H88381   4.054   7.237   9.710 -3.2292 -2.1130 -1.8501
  670MOL0     H88382   4.083   7.341   9.571  2.8652  1.6410  0.9748
  670MOL0     H88383   4.299   7.236   9.529  3.4223 -1.1387 -0.1215
  670MOL0     H88384   4.294   7.305   9.693 -1.3767  0.2026 -0.7132
  670MOL0     H88385   4.282   7.001   9.615 -0.1749  0.5446 -0.8549
  670MOL0     H88386   4.203   7.067   9.749 -1.6152 -2.3551 -1.5132
  670MOL0     H88387   4.460   7.177   9.801  2.8475 -1.3355  0.9330
  670MOL0     H88388   4.501   7.087   9.661 -2.0067 -1.2304 -1.8583
  670MOL0     H88389   4.410   6.870   9.772 -0.6173  0.8351  0.0180
  670MOL0     H88390   4.554   6.946   9.844  0.3898  2.2511 -1.0532
  670MOL0     H88391   4.330   6.845   9.985  1.7148 -1.4482  0.1815
  670MOL0     H88392   4.296   7.015   9.970  0.9676  0.4484  1.6025
  670MOL0     H88393   4.617   7.115   9.993 -0.5669 -0.8352 -0.0493
  670MOL0     H88394   4.865   7.057  10.222  0.6977  1.7453 -3.2897
  670MOL0     H88395   4.754   7.109  10.350 -2.0979  1.2924  0.0453
  670MOL0     H88396   4.742   7.261  10.088 -2.0893 -0.1124  1.5293
  670MOL0     H88397   4.903   7.268  10.180  0.2087  1.5468 -0.3423
  670MOL0     H88398   4.653   7.329  10.320  0.7556 -1.1913  0.7815
  670MOL0     H88399   4.823   7.397  10.338  1.4547  0.3851 -0.5637
  670MOL0     H88400   4.645   7.486  10.099 -0.1191  0.9519 -0.4107
  670MOL0     H88401   4.795   7.544  10.151  0.1590  1.1402 -0.0603
  670MOL0     H88402   4.432   7.471  10.160 -0.9676  1.2750 -1.1703
  670MOL0     H88403   4.208   7.473  10.230  2.3737 -0.5678 -0.7117
  670MOL0     H88404   3.878   7.895  10.486  0.9911 -0.6836  0.2619
  670MOL0     H88405   3.632   7.891  10.458 -0.4826 -0.2293  1.8991
  670MOL0     H88406   3.419   7.488  10.463 -0.6808 -0.9299  2.4759
  670MOL0     H88407   3.285   7.596  10.451  0.0849 -0.6224 -0.4132
  670MOL0     H88408   3.455   7.607  10.695 -0.1951  1.1585  1.3933
  670MOL0     H88409   3.327   7.480  10.676 -0.5464 -0.0350 -1.5298
  670MOL0     H88410   3.162   7.646  10.648 -0.7628  1.0461  0.4402
  670MOL0     H88411   3.292   7.774  10.637  2.9456  0.3161  2.7372
  670MOL0     H88412   3.224   7.615  10.895  3.3462 -0.3586  2.7190
  670MOL0     H88413   3.377   7.696  10.868  0.2460 -0.7577  0.1393
  670MOL0     H88414   3.266   7.909  10.836  0.9835 -0.8237  0.1274
  670MOL0     H88415   3.241   7.829  10.995 -1.5818 -0.1283  0.4140
  670MOL0     H88416   3.010   7.785  10.935  2.3237  1.3026  1.7406
  670MOL0     H88417   3.038   7.808  10.757 -2.8323  2.0822  0.0865
  670MOL0     H88418   3.025   8.024  10.970  2.9776 -1.0327  0.5224
  670MOL0     H88419   3.066   8.045  10.796 -1.0981  2.2383  0.8538
  670MOL0     H88420   2.873   7.962  10.722 -0.5835 -4.6680  1.0960
  670MOL0     H88421   2.852   8.098  10.848 -0.0895 -1.0785  2.5577
  670MOL0     H88422   3.624   7.477  10.528 -2.2080  1.2803  0.6094
  670MOL0     H88423   3.884   7.479  10.568 -1.4165  0.2155 -0.5000
  670MOL0     H88424   4.308   7.702  10.583 -6.6488 -0.6695 -0.5805
  670MOL0     H88425   4.544   7.699  10.503  0.0022 -0.3234 -0.0200
  670MOL0     H88426   3.771   6.900   9.244  0.8475  1.8523 -2.6186
  670MOL0     H88427   3.540   6.819   9.218 -0.0089 -0.0359  0.0377
  670MOL0     H88428   3.020   7.198   9.145 -0.6671 -0.0801  1.0070
  670MOL0     H88429   2.796   7.108   9.071  0.3195 -0.5448  0.2067
  670MOL0     H88430   2.574   6.839   8.907  0.3677 -1.4411  0.3239
  670MOL0     H88431   2.656   6.989   8.927 -0.1212 -1.3029 -0.2536
  670MOL0     H88432   2.539   7.047   9.121 -5.3874  0.5995 -2.3091
  670MOL0     H88433   2.428   6.932   9.049 -0.8238 -1.7282  0.9961
  670MOL0     H88434   2.540   6.754   9.211  1.1630  1.0799 -1.0499
  670MOL0     H88435   2.413   6.860   9.258  1.1850 -0.3776  0.4394
  670MOL0     H88436   2.609   6.825   9.426  0.6925  0.7781 -0.8046
  670MOL0     H88437   2.704   6.929   9.326  0.1558 -2.8527 -3.2249
  670MOL0     H88438   2.464   7.200   9.569  3.5116 -0.1803  1.3749
  670MOL0     H88439   2.940   6.702   9.129 -2.4174  1.0781 -1.7789
  670MOL0     H88440   3.148   6.790   9.213 -1.8690 -0.2065  3.2088
  671MOL0     O88441   2.264   2.427  10.211  0.6272  0.0059  0.7667
  671MOL0     C88442   2.282   2.436  10.335  1.2525 -0.0592  0.5162
  671MOL0     O88443   2.378   2.508  10.392 -0.5555  0.3350  0.7487
  671MOL0     C88444   2.504   2.526  10.327  1.5866 -0.1208 -0.0813
  671MOL0     C88445   2.546   2.655  10.327 -0.1252  0.6075 -0.4037
  671MOL0     C88446   2.674   2.680  10.285  0.1340  0.1949  0.3374
  671MOL0     C88447   2.748   2.585  10.216  0.1375  0.0844  0.2968
  671MOL0     O88448   2.870   2.611  10.161 -0.1174  0.7959  0.2806
  671MOL0     C88449   2.909   2.736  10.095  0.7778 -0.3421  0.1928
  671MOL0     C88450   2.995   2.825  10.188  0.2863  0.5935  0.4928
  671MOL0     C88451   3.064   2.938  10.114 -0.4364 -0.0129  0.2163
  671MOL0     C88452   3.147   3.031  10.211  0.0043 -0.0390 -0.6388
  671MOL0     C88453   3.191   3.162  10.153  0.0768  0.2520 -0.2176
  671MOL0     C88454   3.328   3.143  10.079 -0.0639  0.3810  0.0369
  671MOL0     C88455   3.318   3.234   9.952  0.9388 -0.1689  0.3716
  671MOL0     C88456   3.428   3.229   9.855 -0.3255  0.6019 -0.0553
  671MOL0     N88457   3.560   3.231   9.921 -0.2084  0.4635 -0.1420
  671MOL0     C88458   3.652   3.133   9.921  0.1155 -0.2067 -0.0126
  671MOL0     C88459   3.744   3.190  10.002 -0.5024 -0.9795  0.8972
  671MOL0     C88460   3.877   3.121  10.025  0.3890 -0.4483 -0.0091
  671MOL0     C88461   3.971   3.165  10.139  0.6674  0.8177 -0.1609
  671MOL0     C88462   4.046   3.043  10.188  0.1557 -1.2006  0.3809
  671MOL0     C88463   4.151   2.992  10.084 -0.7244 -0.0456  1.2719
  671MOL0     O88464   4.100   2.965   9.954 -0.3957 -0.0618 -0.7882
  671MOL0     C88465   4.175   2.920   9.854  0.0364  0.2117  0.3976
  671MOL0     C88466   4.301   2.874   9.859  0.4959  0.0231 -1.1781
  671MOL0     C88467   4.381   2.856   9.755 -0.3943 -0.2512  0.1051
  671MOL0     C88468   4.332   2.881   9.634 -0.4449 -0.5293  0.0622
  671MOL0     C88469   4.419   2.846   9.506  1.2365  0.2719 -0.0675
  671MOL0     O88470   4.338   2.843   9.398  0.0019 -0.5044  0.4799
  671MOL0     C88471   4.395   2.848   9.271  0.1128  0.0812  0.6337
  671MOL0     C88472   4.343   2.770   9.165  0.3067  0.0185 -0.1352
  671MOL0     C88473   4.401   2.785   9.034 -0.1171 -0.1605  0.6086
  671MOL0     C88474   4.502   2.880   9.001  0.3239 -0.9004 -0.8211
  671MOL0     O88475   4.554   2.915   8.878  0.9046 -0.2225  0.2244
  671MOL0     C88476   4.477   2.868   8.765 -0.0752  0.3664 -0.4799
  671MOL0     C88477   4.513   2.939   8.634 -0.2922 -0.1792 -1.2743
  671MOL0     C88478   4.657   2.977   8.598  0.2510  0.2276 -0.0085
  671MOL0     C88479   4.655   3.044   8.457  0.6583 -0.1881  0.1459
  671MOL0     C88480   4.797   3.068   8.404  0.0103 -0.1065 -0.5072
  671MOL0     C88481   4.796   3.169   8.297 -0.2771  0.6187 -0.5276
  671MOL0     C88482   4.941   3.192   8.241  0.6153  0.0663 -0.4616
  671MOL0     C88483   4.959   3.310   8.159 -0.9586 -0.3256 -0.1113
  671MOL0    Cl88484   5.134   3.338   8.127  0.0584 -0.3406 -0.3690
  671MOL0     C88485   4.566   2.937   9.109 -0.3611  0.7391  0.2549
  671MOL0     C88486   4.510   2.931   9.237  0.2380 -0.3682 -0.6001
  671MOL0     O88487   4.542   2.824   9.505 -0.2048  0.1544 -0.4520
  671MOL0     C88488   4.199   2.920   9.613 -0.1766  0.0656 -0.0952
  671MOL0     C88489   4.116   2.926   9.724  0.2029  0.3115  0.1376
  671MOL0     N88490   3.711   3.327  10.036 -0.4226  0.2407 -0.9364
  671MOL0     N88491   3.593   3.332  10.004  0.9088 -0.0125  0.3932
  671MOL0     C88492   2.701   2.450  10.205  0.3791 -0.1674  0.3918
  671MOL0     C88493   2.580   2.423  10.263  0.1927 -0.0995  0.3980
  671MOL0     C88494   2.174   2.380  10.413  0.7684  0.1029 -0.0895
  671MOL0     C88495   2.054   2.317  10.354 -0.5171 -1.1070 -1.0477
  671MOL0     C88496   1.956   2.261  10.435  0.1520  0.8807 -0.3103
  671MOL0     C88497   1.968   2.262  10.574 -0.9600 -0.7853 -0.0421
  671MOL0     O88498   1.862   2.238  10.651 -0.3485 -0.9387  0.0541
  671MOL0     C88499   1.867   2.113  10.701 -0.1496  0.0283 -0.7515
  671MOL0     C88500   1.723   2.071  10.734 -0.4564 -1.1362 -0.1504
  671MOL0     C88501   1.729   1.926  10.798 -0.0986 -0.0363  0.3214
  671MOL0     C88502   1.591   1.868  10.829  0.5280  0.4044  0.0694
  671MOL0     C88503   1.522   1.826  10.708  0.3359 -0.2134  0.9023
  671MOL0     C88504   1.476   1.782  10.604 -0.1576 -0.7217  0.1686
  671MOL0     C88505   2.077   2.326  10.629 -0.5676 -0.0596  0.2347
  671MOL0     C88506   2.174   2.379  10.551 -0.9223 -1.1051 -0.6052
  671MOL0     H88507   2.476   2.725  10.371 -1.3778 -0.7160 -0.1772
  671MOL0     H88508   2.712   2.778  10.310 -0.1288 -0.2143  2.5522
  671MOL0     H88509   2.823   2.790  10.054 -0.2145 -2.5951 -0.9192
  671MOL0     H88510   2.974   2.720  10.009  2.6384 -1.3333  1.7148
  671MOL0     H88511   3.074   2.758  10.223  1.6203  0.0248 -3.1588
  671MOL0     H88512   2.929   2.864  10.265 -0.7829 -0.3231  0.0635
  671MOL0     H88513   2.984   2.987  10.059 -0.4925  1.4534  1.5377
  671MOL0     H88514   3.135   2.902  10.039  1.8003  2.3469  1.0725
  671MOL0     H88515   3.095   3.049  10.306  0.0799 -0.1999 -0.5676
  671MOL0     H88516   3.236   2.971  10.229 -0.1999 -0.1451  0.0760
  671MOL0     H88517   3.206   3.233  10.235 -0.2216  2.0733 -1.6666
  671MOL0     H88518   3.114   3.204  10.088 -0.7658  0.9662  1.1882
  671MOL0     H88519   3.344   3.039  10.047 -1.6999  0.3717 -0.8342
  671MOL0     H88520   3.415   3.163  10.142 -0.2867  0.2794  0.3843
  671MOL0     H88521   3.229   3.202   9.896  0.5848 -1.0992  1.4437
  671MOL0     H88522   3.308   3.341   9.974  3.7923  1.5119 -4.7977
  671MOL0     H88523   3.408   3.309   9.783  2.1207  0.3406 -1.1284
  671MOL0     H88524   3.410   3.131   9.809 -1.6781 -0.1671  1.9345
  671MOL0     H88525   3.656   3.037   9.870  1.6306 -2.5260  4.0513
  671MOL0     H88526   3.936   3.137   9.934 -0.4655 -0.8533 -0.6452
  671MOL0     H88527   3.869   3.012  10.020 -0.3553 -0.3515 -1.4777
  671MOL0     H88528   3.903   3.196  10.219 -1.1578 -2.6564 -0.1491
  671MOL0     H88529   4.046   3.240  10.111  0.4008  1.2052  0.1421
  671MOL0     H88530   4.100   3.057  10.282  0.7753 -3.2965  0.3859
  671MOL0     H88531   3.979   2.960  10.214 -1.3763  0.2403  1.2543
  671MOL0     H88532   4.206   2.906  10.124 -1.9844 -1.6836 -0.3304
  671MOL0     H88533   4.224   3.071  10.070 -2.1911  0.8665 -2.3610
  671MOL0     H88534   4.351   2.860   9.954  3.1996  1.6098 -2.2576
  671MOL0     H88535   4.484   2.823   9.761 -0.0113 -0.1667 -3.7845
  671MOL0     H88536   4.269   2.695   9.187  0.2363  0.2556  0.4462
  671MOL0     H88537   4.369   2.725   8.949 -0.7429 -1.2414  1.5795
  671MOL0     H88538   4.371   2.891   8.782 -0.0659  0.4584 -0.5508
  671MOL0     H88539   4.488   2.760   8.753 -1.3123  0.2930 -1.0795
  671MOL0     H88540   4.444   3.022   8.652  0.3152 -0.2548  1.8318
  671MOL0     H88541   4.465   2.881   8.555  4.1347 -4.3152 -1.3702
  671MOL0     H88542   4.705   2.880   8.586 -1.3356 -1.2332  3.9840
  671MOL0     H88543   4.702   3.037   8.677  3.0936 -3.1379  1.1589
  671MOL0     H88544   4.618   2.971   8.385 -1.4755 -0.2275  1.2073
  671MOL0     H88545   4.592   3.132   8.444 -1.2919 -0.9484  3.3700
  671MOL0     H88546   4.858   2.980   8.385  0.7071 -0.0905  1.4087
  671MOL0     H88547   4.846   3.107   8.494 -2.8167 -0.6491  1.4062
  671MOL0     H88548   4.754   3.264   8.333 -3.6764 -1.1815  0.6398
  671MOL0     H88549   4.733   3.124   8.219  1.7237 -2.5150 -0.4694
  671MOL0     H88550   5.004   3.191   8.331 -1.1151 -2.7376  0.8872
  671MOL0     H88551   4.978   3.098   8.199  0.1199  0.3448 -1.5568
  671MOL0     H88552   4.916   3.399   8.205  0.7112  0.3908  0.1098
  671MOL0     H88553   4.911   3.301   8.061 -0.0895 -0.9386 -0.4900
  671MOL0     H88554   4.655   2.997   9.093  0.5375 -1.2286 -2.8674
  671MOL0     H88555   4.552   3.006   9.305  2.3143 -0.5180 -1.6270
  671MOL0     H88556   4.152   2.916   9.515 -1.7957 -2.8634  0.6793
  671MOL0     H88557   4.012   2.956   9.715  0.6803  1.4132 -2.5221
  671MOL0     H88558   2.751   2.363  10.163  0.3764 -0.9055  1.8737
  671MOL0     H88559   2.556   2.317  10.266  2.4097 -0.6935 -0.4356
  671MOL0     H88560   2.035   2.334  10.248 -3.8080 -0.1457 -0.4038
  671MOL0     H88561   1.865   2.227  10.385 -1.2659  1.1606  1.9654
  671MOL0     H88562   1.934   2.104  10.787  1.0018 -2.8279 -1.8406
  671MOL0     H88563   1.901   2.036  10.632  1.3952  0.9395 -1.0453
  671MOL0     H88564   1.674   2.139  10.805 -0.3864 -0.4573 -0.7482
  671MOL0     H88565   1.665   2.067  10.642  0.8787 -0.5842 -1.0479
  671MOL0     H88566   1.795   1.942  10.883  0.2679  2.4667 -0.3562
  671MOL0     H88567   1.787   1.868  10.726  0.7335  1.2427 -0.0672
  671MOL0     H88568   1.611   1.786  10.898  1.3364  0.6930  0.1899
  671MOL0     H88569   1.545   1.953  10.880 -1.0317  1.5322 -2.9539
  671MOL0     H88570   1.434   1.745  10.513  3.0214 -0.0454 -1.7079
  671MOL0     H88571   2.075   2.342  10.737 -1.7694 -1.5174  0.4543
  671MOL0     H88572   2.256   2.428  10.604 -1.5265  0.6892 -1.2428
  672MOL0     O88573   9.218   7.752   9.652  0.7405 -0.3241 -0.1863
  672MOL0     C88574   9.286   7.650   9.628  0.1970 -0.6584  0.0569
  672MOL0     O88575   9.240   7.534   9.581 -0.2519  0.2689 -0.0785
  672MOL0     C88576   9.121   7.519   9.515 -0.1543 -0.4281  0.0405
  672MOL0     C88577   9.113   7.537   9.379  0.4401  0.4846  0.3154
  672MOL0     C88578   8.991   7.528   9.314 -0.5336 -0.7956 -0.1245
  672MOL0     C88579   8.884   7.461   9.358  0.4766 -0.6406  0.2775
  672MOL0     O88580   8.787   7.439   9.266  0.4101  0.3298 -0.9667
  672MOL0     C88581   8.691   7.327   9.275 -0.6303  0.1491 -0.5500
  672MOL0     C88582   8.566   7.387   9.252  0.5945  0.0931  0.3311
  672MOL0     C88583   8.449   7.298   9.285  0.0914 -0.0420  0.0696
  672MOL0     C88584   8.377   7.339   9.418 -0.1707 -0.1359 -0.0597
  672MOL0     C88585   8.255   7.243   9.452 -1.2520 -0.0829 -0.9774
  672MOL0     C88586   8.146   7.238   9.355 -0.6508 -0.0177 -0.6016
  672MOL0     C88587   8.093   7.388   9.322 -0.4901  1.0800  0.5406
  672MOL0     C88588   7.973   7.380   9.225  1.5031 -1.2032  0.3045
  672MOL0     N88589   7.846   7.402   9.287 -1.7365  0.3949 -0.5902
  672MOL0     C88590   7.797   7.516   9.344  0.1700 -0.2139 -0.6639
  672MOL0     C88591   7.679   7.484   9.409  0.1450  0.1158  0.2626
  672MOL0     C88592   7.606   7.548   9.516  0.1220 -0.6756  0.0367
  672MOL0     C88593   7.697   7.517   9.638 -0.3089 -0.0561 -0.6326
  672MOL0     C88594   7.793   7.635   9.656 -0.2743 -0.5252 -1.5387
  672MOL0     C88595   7.866   7.605   9.800  0.0136 -0.8083 -0.4226
  672MOL0     O88596   7.922   7.474   9.817  0.1541 -0.1286 -0.7352
  672MOL0     C88597   8.060   7.456   9.811 -0.6417 -0.0112  0.8358
  672MOL0     C88598   8.134   7.544   9.724 -0.5604 -0.0779 -0.0015
  672MOL0     C88599   8.272   7.537   9.727  0.0790 -0.0547  1.0983
  672MOL0     C88600   8.339   7.461   9.832  0.5530 -0.2494  0.9677
  672MOL0     C88601   8.485   7.444   9.842 -0.7771 -0.7474 -0.3908
  672MOL0     O88602   8.540   7.425   9.969 -0.6038  0.3987  0.1931
  672MOL0     C88603   8.682   7.427   9.987  0.5590  1.6659  0.1506
  672MOL0     C88604   8.778   7.521   9.942 -0.5748 -0.9758 -0.9867
  672MOL0     C88605   8.908   7.522   9.988 -0.5222  0.1072  0.2557
  672MOL0     C88606   8.962   7.426  10.075  0.5585  0.6200  0.3711
  672MOL0     O88607   9.091   7.438  10.123  1.0016  0.8920  0.7308
  672MOL0     C88608   9.193   7.464  10.029 -0.1067 -0.2455  0.2646
  672MOL0     C88609   9.336   7.421  10.089  0.0213 -0.7689  0.2594
  672MOL0     C88610   9.366   7.501  10.221  0.6639 -0.6530  0.9018
  672MOL0     C88611   9.488   7.454  10.291 -1.1016  0.0625  0.4001
  672MOL0     C88612   9.483   7.463  10.439  0.4576 -0.1542  0.6896
  672MOL0     C88613   9.561   7.362  10.507 -0.1784 -0.9779 -0.7975
  672MOL0     C88614   9.710   7.363  10.457 -0.1718 -0.2670  0.1913
  672MOL0     C88615   9.793   7.258  10.520  0.2724  0.0919  0.2842
  672MOL0    Cl88616   9.709   7.093  10.501 -0.0384  0.1052  0.6459
  672MOL0     C88617   8.864   7.329  10.116 -0.5018 -0.0333 -0.1686
  672MOL0     C88618   8.731   7.329  10.073  0.0402 -0.1211  0.4507
  672MOL0     O88619   8.557   7.453   9.737  0.4270 -0.5879  0.6082
  672MOL0     C88620   8.258   7.380   9.919  0.8712  0.2223  0.7292
  672MOL0     C88621   8.119   7.378   9.911  0.4809  0.2822 -1.2197
  672MOL0     N88622   7.663   7.347   9.395 -0.0639  0.7326 -0.4820
  672MOL0     N88623   7.755   7.305   9.310  0.1508 -0.4924 -0.2676
  672MOL0     C88624   8.890   7.440   9.493 -0.2199 -0.2927  0.0930
  672MOL0     C88625   9.001   7.472   9.573 -0.7926 -0.3933 -0.2232
  672MOL0     C88626   9.425   7.653   9.686 -0.0259  0.1247  0.0924
  672MOL0     C88627   9.483   7.550   9.760 -0.2828  0.4103 -0.0875
  672MOL0     C88628   9.595   7.561   9.829 -0.2729  0.7995 -1.3219
  672MOL0     C88629   9.668   7.677   9.813  0.3308 -0.2001  0.7003
  672MOL0     O88630   9.792   7.700   9.875  0.2777  0.9359  0.6352
  672MOL0     C88631   9.817   7.657  10.010 -0.4322 -0.7655 -0.8238
  672MOL0     C88632   9.749   7.752  10.104 -0.6566 -0.9609  0.2516
  672MOL0     C88633   9.841   7.877  10.128 -0.3463 -0.6525  0.2765
  672MOL0     C88634   9.889   7.875  10.272 -0.1656 -0.7071 -0.9876
  672MOL0     C88635  10.013   7.792  10.291 -0.0059 -0.0502 -0.7423
  672MOL0     C88636  10.101   7.712  10.310 -0.0399  0.1604  0.6873
  672MOL0     C88637   9.620   7.780   9.733 -0.7528  0.4939  0.0546
  672MOL0     C88638   9.499   7.770   9.673 -0.0175 -0.1994  0.1398
  672MOL0     H88639   9.193   7.591   9.330  0.8150 -1.4129 -1.3122
  672MOL0     H88640   8.996   7.565   9.212 -2.3388  0.6564  0.2434
  672MOL0     H88641   8.681   7.283   9.375 -1.2799  1.5510  0.0313
  672MOL0     H88642   8.724   7.246   9.209 -1.1792  1.5774 -2.6655
  672MOL0     H88643   8.561   7.436   9.154 -0.5943  1.7905  1.1845
  672MOL0     H88644   8.553   7.471   9.321  2.0123  0.5507  0.0666
  672MOL0     H88645   8.461   7.190   9.277  0.1821 -0.0008 -0.4341
  672MOL0     H88646   8.375   7.322   9.207 -2.2228 -4.2766  0.6657
  672MOL0     H88647   8.452   7.324   9.496 -0.2889  0.0372  0.0869
  672MOL0     H88648   8.359   7.446   9.423  2.8461  0.4658  0.1210
  672MOL0     H88649   8.221   7.261   9.554 -0.5157 -1.2036 -0.5166
  672MOL0     H88650   8.288   7.139   9.452 -0.5218 -0.0603  3.6531
  672MOL0     H88651   8.063   7.201   9.415 -0.7344 -1.6671 -1.6921
  672MOL0     H88652   8.163   7.178   9.265 -1.3396 -0.5778 -0.3605
  672MOL0     H88653   8.071   7.453   9.407 -0.3865 -1.7818  2.9284
  672MOL0     H88654   8.180   7.436   9.277  1.3418 -0.6336  2.0527
  672MOL0     H88655   7.963   7.284   9.173  1.4911 -0.7828 -0.4849
  672MOL0     H88656   7.980   7.468   9.160 -2.5529  2.4007  4.1130
  672MOL0     H88657   7.841   7.615   9.344  1.4590 -0.7547 -0.6370
  672MOL0     H88658   7.506   7.503   9.526 -1.1365  1.9755  0.3559
  672MOL0     H88659   7.591   7.656   9.505  1.9946 -0.0543  2.6199
  672MOL0     H88660   7.755   7.425   9.628  3.1192  1.9402 -0.8779
  672MOL0     H88661   7.631   7.496   9.722  0.0500 -1.1131 -0.6021
  672MOL0     H88662   7.857   7.645   9.568 -0.7677  1.1769 -1.7460
  672MOL0     H88663   7.739   7.730   9.669 -1.2829 -1.1839 -0.7888
  672MOL0     H88664   7.780   7.594   9.867 -1.7065  0.1594 -2.3664
  672MOL0     H88665   7.933   7.687   9.824  1.0979 -2.1080  1.1885
  672MOL0     H88666   8.071   7.611   9.666 -0.6820  0.6856  0.9910
  672MOL0     H88667   8.334   7.597   9.661 -0.6020  2.2549  2.4552
  672MOL0     H88668   8.744   7.592   9.868 -1.0843  0.4442  0.5599
  672MOL0     H88669   8.975   7.598   9.950 -1.2769  1.0574  0.7822
  672MOL0     H88670   9.204   7.570  10.003  4.0315 -0.7879 -1.0121
  672MOL0     H88671   9.163   7.401   9.945 -0.2198  0.6593 -0.3877
  672MOL0     H88672   9.417   7.433  10.016 -1.7511  1.9966 -1.4710
  672MOL0     H88673   9.335   7.317  10.122 -1.6819 -0.9100 -0.1676
  672MOL0     H88674   9.279   7.484  10.285 -1.4908  0.7862 -1.4266
  672MOL0     H88675   9.379   7.608  10.204  2.2950 -0.7474  1.3915
  672MOL0     H88676   9.495   7.349  10.260 -1.7021  0.5689 -1.5839
  672MOL0     H88677   9.575   7.498  10.242 -1.2672 -2.0229 -1.9690
  672MOL0     H88678   9.381   7.463  10.479  0.5019  1.2123  0.8780
  672MOL0     H88679   9.516   7.564  10.466 -1.1343  0.0630  1.9889
  672MOL0     H88680   9.506   7.268  10.499 -2.0895  0.2013 -3.0345
  672MOL0     H88681   9.559   7.393  10.612 -0.9683  0.9112 -1.3259
  672MOL0     H88682   9.721   7.347  10.349  2.0005 -0.2985  0.3825
  672MOL0     H88683   9.755   7.461  10.473  0.1825  0.1745 -2.8722
  672MOL0     H88684   9.825   7.265  10.624  2.8762 -1.0204 -0.3686
  672MOL0     H88685   9.888   7.256  10.465 -0.6337  0.6933 -1.3980
  672MOL0     H88686   8.898   7.264  10.196 -0.1915  2.0857  1.5063
  672MOL0     H88687   8.646   7.268  10.101 -1.2118  1.3229 -0.0156
  672MOL0     H88688   8.296   7.317  10.000 -2.4184 -2.3044  0.5374
  672MOL0     H88689   8.047   7.326   9.974 -2.9666  1.2226 -4.0571
  672MOL0     H88690   8.800   7.402   9.540 -1.9954  2.5039 -0.8019
  672MOL0     H88691   9.009   7.448   9.679  1.7328  0.4397 -0.1450
  672MOL0     H88692   9.432   7.455   9.773  1.7960 -0.7630 -0.0850
  672MOL0     H88693   9.621   7.474   9.889 -2.1767  0.7073 -0.5651
  672MOL0     H88694   9.925   7.650  10.030 -0.6994  0.7133  1.5086
  672MOL0     H88695   9.784   7.554  10.023 -3.7758 -0.1441 -3.2528
  672MOL0     H88696   9.657   7.783  10.053 -0.2605 -0.6438 -0.2885
  672MOL0     H88697   9.724   7.687  10.188  0.0104  0.2066  1.3881
  672MOL0     H88698   9.779   7.966  10.116 -1.7855 -1.1658  3.1409
  672MOL0     H88699   9.931   7.870  10.067  0.2207 -2.3090  1.2248
  672MOL0     H88700   9.897   7.977  10.309  1.2349 -0.7709 -1.0624
  672MOL0     H88701   9.819   7.830  10.343 -2.9657  3.1479 -1.0211
  672MOL0     H88702  10.171   7.631  10.311 -2.0240 -1.6993  3.3358
  672MOL0     H88703   9.687   7.861   9.709  0.3667 -0.6470 -0.8601
  672MOL0     H88704   9.461   7.852   9.613 -2.7627 -0.7629  0.9981
  673MOL0     O88705  11.307   4.773   2.823 -0.6392 -0.6470  0.9175
  673MOL0     C88706  11.235   4.864   2.784 -0.0913 -0.3694 -0.2552
  673MOL0     O88707  11.099   4.861   2.776  0.0736 -0.2452  0.6873
  673MOL0     C88708  11.042   4.737   2.781  0.4554  0.6056 -0.0367
  673MOL0     C88709  11.083   4.624   2.715 -0.2499  0.3284 -0.3493
  673MOL0     C88710  11.003   4.508   2.722 -0.5473  0.4733 -1.6013
  673MOL0     C88711  10.894   4.504   2.800  1.3087 -0.9186 -0.3745
  673MOL0     O88712  10.823   4.379   2.796 -0.0957 -0.9494 -0.5193
  673MOL0     C88713  10.742   4.365   2.907  0.2944  0.6907  0.1514
  673MOL0     C88714  10.677   4.227   2.924  0.6105  0.8404 -0.3476
  673MOL0     C88715  10.546   4.216   2.829 -0.2011 -0.3227  0.3147
  673MOL0     C88716  10.483   4.075   2.813  0.8397 -0.1519 -0.5357
  673MOL0     C88717  10.577   3.992   2.734 -0.4879  0.1139 -0.4294
  673MOL0     C88718  10.544   3.841   2.747 -0.0954  0.4467  0.2585
  673MOL0     C88719  10.581   3.791   2.887 -0.2143  0.3075  0.6111
  673MOL0     C88720  10.728   3.783   2.909 -0.3234  0.2079  0.8165
  673MOL0     N88721  10.793   3.683   2.811 -0.1735  1.5520  0.1921
  673MOL0     C88722  10.726   3.572   2.776 -0.7868 -0.0115 -0.5721
  673MOL0     C88723  10.810   3.512   2.691  0.2871  0.0056  0.3870
  673MOL0     C88724  10.778   3.385   2.616  0.0523 -0.6508  0.0876
  673MOL0     C88725  10.825   3.254   2.684  0.1588  0.3251  0.6087
  673MOL0     C88726  10.974   3.235   2.703 -0.1761 -0.2002 -0.2386
  673MOL0     C88727  11.001   3.087   2.744  0.2477  0.1868  0.5961
  673MOL0     O88728  10.962   2.977   2.659  0.2363  0.0127 -0.6452
  673MOL0     C88729  11.006   2.843   2.688  0.5283 -0.8615  0.3770
  673MOL0     C88730  11.046   2.783   2.816  0.0772 -0.0430 -0.4505
  673MOL0     C88731  11.068   2.647   2.822  0.5802  1.3588  0.0809
  673MOL0     C88732  11.034   2.557   2.716 -0.6667 -1.1909 -0.1845
  673MOL0     C88733  11.053   2.411   2.734  0.7108 -1.1082  0.5862
  673MOL0     O88734  11.055   2.328   2.629  0.4525  0.2282  0.0901
  673MOL0     C88735  11.086   2.198   2.663 -0.1317 -0.1994 -0.8836
  673MOL0     C88736  10.984   2.104   2.650 -0.3863 -0.6456  0.3149
  673MOL0     C88737  11.007   1.971   2.676  0.2817  0.3664  0.3463
  673MOL0     C88738  11.134   1.923   2.702  0.1864  0.3329 -1.0142
  673MOL0     O88739  11.132   1.792   2.734  1.3469 -0.2520  0.3299
  673MOL0     C88740  11.260   1.739   2.774 -0.1202 -0.4705  0.1132
  673MOL0     C88741  11.244   1.591   2.804  0.1283  0.2962 -0.1200
  673MOL0     C88742  11.210   1.522   2.675 -0.2098  0.1730 -0.3523
  673MOL0     C88743  11.202   1.367   2.700  0.7827  0.9496  0.2350
  673MOL0     C88744  11.130   1.303   2.581  1.4605  0.0100  0.1920
  673MOL0     C88745  11.192   1.341   2.450 -0.4044 -0.2728  0.5992
  673MOL0     C88746  11.121   1.258   2.338  0.7051 -0.5550  0.4146
  673MOL0     C88747  11.180   1.291   2.201  0.4823  1.0708  0.6384
  673MOL0    Cl88748  11.126   1.179   2.074  0.3737 -0.0306 -0.4067
  673MOL0     C88749  11.238   2.014   2.716 -0.3569  1.2688 -0.3311
  673MOL0     C88750  11.218   2.152   2.685 -0.1461 -0.3331 -0.9788
  673MOL0     O88751  11.089   2.389   2.849  0.5412  0.2808 -0.3082
  673MOL0     C88752  10.988   2.618   2.595  0.0055  0.1145  0.3592
  673MOL0     C88753  10.980   2.759   2.581 -0.3057  0.5702  0.5071
  673MOL0     N88754  10.923   3.584   2.675  0.2923 -0.3411  0.2853
  673MOL0     N88755  10.915   3.689   2.747  0.4443  0.9697  0.1928
  673MOL0     C88756  10.859   4.618   2.872  0.2169 -0.2196  0.1278
  673MOL0     C88757  10.925   4.738   2.862 -0.0496  0.2123  0.6038
  673MOL0     C88758  11.304   4.998   2.762 -0.3995  0.2908 -0.4136
  673MOL0     C88759  11.233   5.121   2.758 -0.0416 -0.7445 -0.3624
  673MOL0     C88760  11.306   5.243   2.766 -0.7158  0.1891  0.4239
  673MOL0     C88761  11.443   5.244   2.754 -0.4683  0.4465  0.1845
  673MOL0     O88762  11.510   5.364   2.742 -0.4389  0.6168 -0.5503
  673MOL0     C88763  11.449   5.474   2.663 -0.4710  0.3553 -1.4811
  673MOL0     C88764  11.568   5.544   2.595 -1.2859  0.6797 -0.9019
  673MOL0     C88765  11.539   5.667   2.505  0.5110  0.5188  0.5819
  673MOL0     C88766  11.413   5.661   2.415  0.6014 -0.6131 -0.8378
  673MOL0     C88767  11.411   5.575   2.295 -0.1684 -0.2377  0.1714
  673MOL0     C88768  11.397   5.502   2.201 -0.6162  1.3047 -1.1253
  673MOL0     C88769  11.508   5.123   2.747 -0.3419  0.8632  0.4550
  673MOL0     C88770  11.440   5.000   2.760 -0.2323 -1.0554 -1.2465
  673MOL0     H88771  11.162   4.620   2.641 -1.8996 -1.6326 -2.1312
  673MOL0     H88772  11.024   4.420   2.662 -1.1362 -1.2979  0.6435
  673MOL0     H88773  10.663   4.440   2.900 -0.9746 -0.5125  1.1164
  673MOL0     H88774  10.801   4.381   2.998  0.6687  2.0195 -0.2953
  673MOL0     H88775  10.657   4.201   3.028  0.6702  0.2791 -0.4680
  673MOL0     H88776  10.750   4.152   2.891  0.3948  0.6440 -0.3807
  673MOL0     H88777  10.576   4.255   2.731  1.8463  1.9432  1.7220
  673MOL0     H88778  10.468   4.274   2.879 -1.8567 -0.9989 -1.3462
  673MOL0     H88779  10.462   4.039   2.914  0.8052  2.6970  0.5837
  673MOL0     H88780  10.389   4.080   2.758  1.9966  2.5071 -2.5257
  673MOL0     H88781  10.680   4.015   2.765 -1.2139  0.1011  2.2791
  673MOL0     H88782  10.563   4.013   2.628 -0.8218 -3.8902 -1.3169
  673MOL0     H88783  10.596   3.790   2.666  0.0499  1.9789 -0.6640
  673MOL0     H88784  10.437   3.826   2.728 -0.0431  0.4535 -0.0623
  673MOL0     H88785  10.538   3.864   2.957  1.0360  0.8511  0.8392
  673MOL0     H88786  10.532   3.696   2.908 -0.9796  0.5829  0.1091
  673MOL0     H88787  10.750   3.747   3.010  0.1712 -2.8824 -0.2590
  673MOL0     H88788  10.767   3.885   2.898 -0.7662  0.7781  3.7041
  673MOL0     H88789  10.626   3.542   2.804 -0.0980 -1.1637  0.8129
  673MOL0     H88790  10.815   3.386   2.513  0.6812 -1.3925  0.2970
  673MOL0     H88791  10.670   3.370   2.609 -0.1912 -0.2317  2.3244
  673MOL0     H88792  10.796   3.174   2.615 -2.2893  0.2284  1.6412
  673MOL0     H88793  10.773   3.235   2.779 -0.7517 -0.7968 -0.0831
  673MOL0     H88794  11.036   3.265   2.618  1.0261 -0.8086  0.3984
  673MOL0     H88795  11.001   3.306   2.781 -2.3184 -1.1755  1.4926
  673MOL0     H88796  10.948   3.088   2.840  1.9398  1.7152  1.5722
  673MOL0     H88797  11.105   3.082   2.777  0.1830 -0.5352  0.7149
  673MOL0     H88798  11.071   2.841   2.904 -2.1445  0.9463 -0.4106
  673MOL0     H88799  11.098   2.613   2.921 -2.4720  2.1730  1.4086
  673MOL0     H88800  10.884   2.138   2.626  0.3610  0.7233 -0.9857
  673MOL0     H88801  10.922   1.904   2.671 -1.1102  2.1239 -0.7009
  673MOL0     H88802  11.300   1.793   2.860 -2.5034  2.4824 -0.4561
  673MOL0     H88803  11.324   1.742   2.686 -3.2010 -0.4539 -2.2800
  673MOL0     H88804  11.179   1.561   2.887 -2.0207  2.3706 -0.9417
  673MOL0     H88805  11.347   1.559   2.822  0.3809 -0.9494 -3.1371
  673MOL0     H88806  11.285   1.542   2.598 -1.0460 -2.5278 -1.9850
  673MOL0     H88807  11.115   1.560   2.635  1.5718  3.6644 -1.7446
  673MOL0     H88808  11.307   1.336   2.703  1.4272  2.9448  4.0300
  673MOL0     H88809  11.165   1.344   2.801  3.0909 -0.2025  0.8794
  673MOL0     H88810  11.028   1.338   2.562  1.8778  0.7350 -0.7566
  673MOL0     H88811  11.138   1.195   2.597  0.2746  0.0069  0.9288
  673MOL0     H88812  11.300   1.323   2.450  0.3657  3.5134  0.4909
  673MOL0     H88813  11.183   1.447   2.423 -0.9482  0.0000  1.8129
  673MOL0     H88814  11.148   1.153   2.356 -0.4986 -0.8048  0.8802
  673MOL0     H88815  11.013   1.257   2.322  0.7202  0.0391  0.2449
  673MOL0     H88816  11.287   1.287   2.222 -0.0760  0.2651  3.6900
  673MOL0     H88817  11.146   1.391   2.172 -1.1139  0.7741  1.3785
  673MOL0     H88818  11.342   1.993   2.736 -0.4385  0.6360 -0.5432
  673MOL0     H88819  11.291   2.229   2.661 -0.3306  1.0928  2.5133
  673MOL0     H88820  10.958   2.565   2.506  0.4315 -0.9208  0.8240
  673MOL0     H88821  10.938   2.795   2.488 -3.3488 -4.1403 -0.2957
  673MOL0     H88822  10.767   4.610   2.930 -1.3483  0.0362 -2.1876
  673MOL0     H88823  10.896   4.823   2.924  0.4109  0.8993 -0.1136
  673MOL0     H88824  11.126   5.134   2.763  0.0720  0.1766 -0.1446
  673MOL0     H88825  11.261   5.342   2.764  1.5186  1.2744  0.4751
  673MOL0     H88826  11.400   5.542   2.733 -1.8539 -1.6568 -0.4114
  673MOL0     H88827  11.373   5.436   2.594 -0.7339 -1.0706 -0.4348
  673MOL0     H88828  11.642   5.562   2.673 -0.4220 -0.2327 -1.4924
  673MOL0     H88829  11.609   5.461   2.537 -0.2637 -1.6805  2.8156
  673MOL0     H88830  11.631   5.696   2.453 -0.6781  1.9537 -0.8288
  673MOL0     H88831  11.510   5.748   2.572 -1.8582  0.4013 -0.2183
  673MOL0     H88832  11.326   5.628   2.473  0.6060 -0.1931 -0.5895
  673MOL0     H88833  11.385   5.762   2.384  0.9341 -0.5950 -1.0885
  673MOL0     H88834  11.409   5.424   2.128 -0.6040  3.3356 -3.4550
  673MOL0     H88835  11.615   5.119   2.730 -0.2828 -2.3340  0.9476
  673MOL0     H88836  11.499   4.908   2.765  3.1383  0.9733  1.0135
  674MOL0     O88837   4.546   8.420   4.882 -0.4191 -0.8807 -0.1518
  674MOL0     C88838   4.662   8.433   4.840 -0.3392 -0.2535  0.4119
  674MOL0     O88839   4.750   8.328   4.825  0.4505 -0.7270  0.3001
  674MOL0     C88840   4.714   8.194   4.847  0.5601  0.3913  0.0074
  674MOL0     C88841   4.819   8.103   4.875 -0.4242  1.0845 -0.7273
  674MOL0     C88842   4.786   7.972   4.905 -0.5058  1.1958 -0.0706
  674MOL0     C88843   4.653   7.921   4.888 -0.5961 -0.2286 -0.2669
  674MOL0     O88844   4.606   7.795   4.919  0.0786  0.1333 -0.7886
  674MOL0     C88845   4.650   7.714   5.026 -0.6138 -0.3696  0.6527
  674MOL0     C88846   4.712   7.589   4.965 -0.0271  0.2024  0.9268
  674MOL0     C88847   4.849   7.555   5.013 -0.9404  0.6996  0.0770
  674MOL0     C88848   4.929   7.448   4.945 -0.8717  0.4114  0.3650
  674MOL0     C88849   4.902   7.310   5.014  0.4301 -0.0337  0.3050
  674MOL0     C88850   4.985   7.208   4.944 -0.9227  0.1171  0.5425
  674MOL0     C88851   5.002   7.077   5.033  0.7137  0.2750 -0.3446
  674MOL0     C88852   5.056   6.963   4.954  0.4096 -0.1307 -0.3245
  674MOL0     N88853   5.074   6.845   5.037 -0.7674  0.6644 -0.8738
  674MOL0     C88854   5.183   6.779   5.075 -0.2728  0.3915  1.3813
  674MOL0     C88855   5.130   6.663   5.126 -0.2112 -0.3552 -0.1703
  674MOL0     C88856   5.203   6.549   5.188  0.2036 -0.0353  0.3694
  674MOL0     C88857   5.215   6.426   5.093 -0.4189  0.1427 -0.3795
  674MOL0     C88858   5.079   6.376   5.031 -0.0637  0.3283  0.0340
  674MOL0     C88859   5.104   6.263   4.923 -1.0272 -0.4088  0.5644
  674MOL0     O88860   5.201   6.176   4.985 -0.1742  1.1927  0.2705
  674MOL0     C88861   5.290   6.124   4.899 -0.4303  0.1274  0.3460
  674MOL0     C88862   5.320   6.157   4.767 -0.5744 -1.3161  0.3584
  674MOL0     C88863   5.406   6.077   4.686 -0.5717 -0.4235  0.4812
  674MOL0     C88864   5.451   5.960   4.744 -0.7146 -0.4835 -0.3689
  674MOL0     C88865   5.533   5.862   4.658  0.3135  0.0478 -0.0837
  674MOL0     O88866   5.629   5.923   4.577 -0.0389  0.5376  1.3002
  674MOL0     C88867   5.707   5.846   4.492 -0.0941  0.5140  0.4199
  674MOL0     C88868   5.849   5.855   4.508 -0.0240  0.2225 -0.2604
  674MOL0     C88869   5.932   5.763   4.434 -0.1617 -0.3843 -0.7157
  674MOL0     C88870   5.865   5.659   4.368 -0.1887 -0.1108 -0.3125
  674MOL0     O88871   5.938   5.562   4.297 -0.3939  0.0902  0.1977
  674MOL0     C88872   5.909   5.566   4.156 -0.2643 -0.4051  0.0395
  674MOL0     C88873   6.012   5.491   4.085 -0.4420 -0.0411  0.6489
  674MOL0     C88874   6.020   5.350   4.135  0.7084  0.1180  0.7845
  674MOL0     C88875   6.120   5.268   4.052 -0.2477 -0.2623  1.3817
  674MOL0     C88876   6.148   5.122   4.090 -0.6641  0.2552 -0.0715
  674MOL0     C88877   6.025   5.046   4.132  0.2508 -0.1424  0.4406
  674MOL0     C88878   5.921   4.997   4.026  0.2215  0.6392  0.4586
  674MOL0     C88879   5.983   4.925   3.897 -0.3096 -0.4650  0.1196
  674MOL0    Cl88880   6.071   4.780   3.953 -0.2676 -0.0202 -0.0427
  674MOL0     C88881   5.729   5.657   4.350  0.0975  0.7827 -0.3039
  674MOL0     C88882   5.648   5.753   4.407 -0.0530 -0.4482  0.3378
  674MOL0     O88883   5.530   5.738   4.676  0.0449 -0.5549  0.6377
  674MOL0     C88884   5.420   5.923   4.879  0.7654  0.4243 -0.1526
  674MOL0     C88885   5.330   6.003   4.951 -0.0679 -0.1103  0.7437
  674MOL0     N88886   4.990   6.673   5.136 -0.3869 -0.5812  0.1323
  674MOL0     N88887   4.960   6.780   5.084 -0.4351  0.2242 -0.1512
  674MOL0     C88888   4.561   8.005   4.842  0.2209  0.1482 -0.1963
  674MOL0     C88889   4.582   8.140   4.826  0.3529 -0.9527  0.0280
  674MOL0     C88890   4.701   8.573   4.801  0.0781  0.4637  0.2467
  674MOL0     C88891   4.608   8.678   4.826  0.1458  0.0777 -0.7982
  674MOL0     C88892   4.623   8.797   4.761 -1.1214  0.1418 -0.1384
  674MOL0     C88893   4.745   8.822   4.691  0.1090  0.8610  0.6772
  674MOL0     O88894   4.766   8.945   4.636  0.4939  0.1919 -0.3032
  674MOL0     C88895   4.899   8.968   4.583  0.4098 -0.4448 -0.5643
  674MOL0     C88896   4.923   9.106   4.522  0.3862 -0.0362  0.3838
  674MOL0     C88897   4.871   9.108   4.366 -0.4689  0.5459  1.0245
  674MOL0     C88898   4.899   9.236   4.306  0.2149  0.2736  0.1863
  674MOL0     C88899   5.045   9.254   4.285  0.1260 -1.0576 -1.1435
  674MOL0     C88900   5.167   9.266   4.284 -0.3827  0.5536 -0.0750
  674MOL0     C88901   4.836   8.711   4.666  0.0369  0.0585 -0.4803
  674MOL0     C88902   4.815   8.589   4.720 -1.2813  1.3137  0.8567
  674MOL0     H88903   4.923   8.134   4.875  0.1323 -0.5819  0.6207
  674MOL0     H88904   4.854   7.893   4.935 -2.6641  0.2103  2.6139
  674MOL0     H88905   4.564   7.688   5.087  0.2173 -2.0711  1.1671
  674MOL0     H88906   4.718   7.776   5.085 -0.9722 -0.8651  1.6149
  674MOL0     H88907   4.712   7.594   4.856  3.3757  1.2199  0.8755
  674MOL0     H88908   4.658   7.498   4.993  2.9628 -3.0556 -2.7331
  674MOL0     H88909   4.851   7.540   5.122 -1.7163  0.2350  0.0349
  674MOL0     H88910   4.899   7.652   5.000  0.6287  0.0827  1.1646
  674MOL0     H88911   4.921   7.456   4.836  1.9974  3.9138  0.2379
  674MOL0     H88912   5.036   7.460   4.961 -1.1874  1.6926  1.6723
  674MOL0     H88913   4.797   7.282   5.025  0.9553 -1.8016  1.1225
  674MOL0     H88914   4.937   7.314   5.117 -0.7020  2.2012  0.6823
  674MOL0     H88915   5.086   7.249   4.936  0.0522 -2.3573 -1.1108
  674MOL0     H88916   4.957   7.177   4.843  0.5124 -4.0809  1.2125
  674MOL0     H88917   5.067   7.093   5.120 -1.5733 -0.7448  1.6454
  674MOL0     H88918   4.902   7.053   5.069  0.3475  1.4482 -0.5368
  674MOL0     H88919   5.154   6.989   4.913 -0.2701  3.6282  0.0915
  674MOL0     H88920   4.985   6.939   4.874 -1.3506 -0.2162  1.1882
  674MOL0     H88921   5.288   6.800   5.063 -0.2114  2.0531  4.1242
  674MOL0     H88922   5.163   6.534   5.288 -1.3024 -1.3630 -0.3784
  674MOL0     H88923   5.307   6.572   5.210  0.1696 -2.3550  3.5553
  674MOL0     H88924   5.265   6.338   5.134  1.6201  0.9487 -0.9803
  674MOL0     H88925   5.282   6.464   5.016  1.7494  1.8484  2.1771
  674MOL0     H88926   5.021   6.321   5.106 -0.5540  0.1429 -0.4785
  674MOL0     H88927   5.024   6.462   4.992  0.4168  2.3074  3.2928
  674MOL0     H88928   5.134   6.307   4.828  0.7864 -2.9968 -0.1673
  674MOL0     H88929   5.012   6.213   4.891 -0.0830 -0.4133 -2.3352
  674MOL0     H88930   5.290   6.251   4.722  1.7492 -0.6541  0.0384
  674MOL0     H88931   5.441   6.090   4.584 -1.4918 -3.3772 -0.3036
  674MOL0     H88932   5.888   5.932   4.574 -2.5275 -1.4502  3.5154
  674MOL0     H88933   6.040   5.771   4.425  0.6099 -0.5815  4.9796
  674MOL0     H88934   5.919   5.671   4.129 -3.1938  0.1413  0.6728
  674MOL0     H88935   5.805   5.538   4.134 -0.2874 -0.8428  0.6577
  674MOL0     H88936   6.106   5.546   4.085  0.3721 -1.3543  2.4254
  674MOL0     H88937   5.982   5.476   3.981  0.2731 -2.6271  0.7477
  674MOL0     H88938   5.922   5.304   4.154  0.8568 -1.9819 -2.6642
  674MOL0     H88939   6.058   5.364   4.237 -2.4021  0.3265  2.0563
  674MOL0     H88940   6.079   5.273   3.951 -0.3494  0.8570  1.4662
  674MOL0     H88941   6.213   5.326   4.053  1.0120 -2.0718 -0.4280
  674MOL0     H88942   6.220   5.132   4.172  0.7557 -0.3467 -1.2017
  674MOL0     H88943   6.204   5.067   4.013 -1.6775  0.3700 -0.9072
  674MOL0     H88944   5.977   5.113   4.204  0.1004 -1.3177  1.4656
  674MOL0     H88945   6.040   4.953   4.187 -1.7643 -1.1777 -0.6611
  674MOL0     H88946   5.855   4.930   4.082  5.3259 -2.6207  3.3486
  674MOL0     H88947   5.865   5.080   3.984  0.7852  2.0339  2.3587
  674MOL0     H88948   6.046   5.002   3.852  0.3931  0.1392  2.0207
  674MOL0     H88949   5.908   4.901   3.822  0.0097 -1.5368  0.1321
  674MOL0     H88950   5.686   5.567   4.307 -4.5438  2.3787  0.4861
  674MOL0     H88951   5.541   5.742   4.394  0.3189 -4.1322 -0.9249
  674MOL0     H88952   5.469   5.834   4.916  0.2372  1.2535  2.8459
  674MOL0     H88953   5.314   5.967   5.052  0.9369 -0.7866  0.6806
  674MOL0     H88954   4.457   7.974   4.836  0.1365  0.1981  0.9028
  674MOL0     H88955   4.503   8.206   4.793 -1.1193 -2.0508  1.1706
  674MOL0     H88956   4.519   8.665   4.887 -0.7652  3.1880 -1.2829
  674MOL0     H88957   4.536   8.860   4.778 -1.0651  0.0513  0.4906
  674MOL0     H88958   4.912   8.889   4.508 -2.9146 -5.3260  3.3531
  674MOL0     H88959   4.977   8.959   4.659  0.4517 -2.0566 -0.7646
  674MOL0     H88960   4.878   9.191   4.574 -0.0299  1.0599 -1.6561
  674MOL0     H88961   5.030   9.128   4.520  0.0942  1.6438  1.2209
  674MOL0     H88962   4.763   9.091   4.363 -1.1777  3.5410  3.6004
  674MOL0     H88963   4.917   9.026   4.310 -0.7956 -0.7598  2.5847
  674MOL0     H88964   4.848   9.244   4.210  3.5652  1.6646 -1.6494
  674MOL0     H88965   4.862   9.308   4.380  2.7296 -1.0652  2.9625
  674MOL0     H88966   5.274   9.263   4.288 -0.3928 -1.3999 -0.4737
  674MOL0     H88967   4.924   8.734   4.608  0.5048  2.6146  1.0408
  674MOL0     H88968   4.884   8.506   4.715 -3.3775 -0.4699 -0.3860
  675MOL0     O88969  10.239   1.123   1.118  0.0902  0.2338 -0.2783
  675MOL0     C88970  10.243   1.144   1.241  0.6586  1.0795 -0.2696
  675MOL0     O88971  10.185   1.251   1.301 -0.1698 -0.6261 -0.6179
  675MOL0     C88972  10.129   1.351   1.223  0.5482 -0.0891 -0.0324
  675MOL0     C88973  10.015   1.422   1.272  0.3415 -0.4747 -0.5169
  675MOL0     C88974   9.960   1.529   1.196  0.2675  0.6529 -0.8113
  675MOL0     C88975  10.012   1.569   1.077 -0.3695  0.5346 -0.3667
  675MOL0     O88976   9.959   1.683   1.014 -0.5370  0.2573 -0.4868
  675MOL0     C88977   9.998   1.713   0.876  0.1419 -0.3754 -0.6071
  675MOL0     C88978   9.986   1.863   0.846  0.1055 -0.1333 -0.1760
  675MOL0     C88979   9.839   1.898   0.799 -0.6757  0.6348  0.4885
  675MOL0     C88980   9.828   2.036   0.726 -0.0342 -0.1306 -0.6528
  675MOL0     C88981   9.908   2.158   0.779  0.0368  0.6141 -0.5139
  675MOL0     C88982   9.953   2.265   0.679  0.5534  0.2709  0.4666
  675MOL0     C88983   9.835   2.320   0.602  0.6575  0.6164 -0.5988
  675MOL0     C88984   9.885   2.395   0.472  0.0882 -0.4470  0.3360
  675MOL0     N88985   9.790   2.481   0.407 -0.4594  0.1833  0.2594
  675MOL0     C88986   9.660   2.481   0.430  0.2369  0.1685  0.4949
  675MOL0     C88987   9.608   2.587   0.356  0.1567  0.4268  0.1978
  675MOL0     C88988   9.486   2.654   0.371 -0.1942 -0.7338  0.4036
  675MOL0     C88989   9.370   2.570   0.295  1.1930 -1.2736 -0.1629
  675MOL0     C88990   9.231   2.639   0.271  0.4555  0.1931 -0.7133
  675MOL0     C88991   9.179   2.697   0.400  0.7532 -0.2150 -0.2951
  675MOL0     O88992   9.036   2.708   0.386  0.2646  0.3134 -0.4890
  675MOL0     C88993   8.970   2.694   0.508  0.2937  0.4638 -0.8431
  675MOL0     C88994   8.858   2.612   0.496  0.0516  0.1064 -0.0737
  675MOL0     C88995   8.781   2.572   0.603  0.4176 -0.4472  0.6607
  675MOL0     C88996   8.802   2.628   0.723 -0.2788 -0.4959 -0.2289
  675MOL0     C88997   8.704   2.594   0.836 -0.6754 -0.0563 -0.6716
  675MOL0     O88998   8.742   2.648   0.958  0.1556  0.0013 -0.2583
  675MOL0     C88999   8.657   2.622   1.064  0.1610  0.4281  0.0027
  675MOL0     C89000   8.529   2.678   1.092  0.2819  0.0652  0.8198
  675MOL0     C89001   8.458   2.658   1.214  0.2905  0.1959 -0.2146
  675MOL0     C89002   8.514   2.581   1.309  0.5135  0.0659 -0.1665
  675MOL0     O89003   8.450   2.545   1.423  1.0808  0.5394  0.4349
  675MOL0     C89004   8.328   2.607   1.470 -0.1998  0.7214 -0.5579
  675MOL0     C89005   8.319   2.577   1.618  1.3235  0.4817 -0.6671
  675MOL0     C89006   8.244   2.692   1.701 -0.9639 -0.3690  0.2040
  675MOL0     C89007   8.200   2.658   1.836  0.2604  0.2856  0.7470
  675MOL0     C89008   8.181   2.794   1.913  0.1018 -0.2789  0.1460
  675MOL0     C89009   8.130   2.746   2.056 -0.1354 -1.2171  0.4818
  675MOL0     C89010   8.115   2.862   2.161  0.4138 -1.1491  0.3482
  675MOL0     C89011   8.094   3.004   2.093  0.5339  0.7148 -0.5384
  675MOL0    Cl89012   8.058   3.133   2.215 -0.0850 -0.2989 -0.1040
  675MOL0     C89013   8.631   2.510   1.282 -0.4908  0.1077  0.2318
  675MOL0     C89014   8.708   2.533   1.160 -0.2482 -0.3234  0.0713
  675MOL0     O89015   8.606   2.534   0.804  0.1602  0.1198  0.3980
  675MOL0     C89016   8.911   2.725   0.738 -0.6119 -0.2158  0.2899
  675MOL0     C89017   8.996   2.750   0.631 -0.1157 -0.4332  0.8156
  675MOL0     N89018   9.708   2.632   0.277  0.2643 -0.3976 -0.0280
  675MOL0     N89019   9.821   2.579   0.307 -0.2616  0.3008  0.4431
  675MOL0     C89020  10.143   1.523   1.040 -0.2209  0.2630  0.2772
  675MOL0     C89021  10.200   1.411   1.107 -1.6273  0.2195 -0.3666
  675MOL0     C89022  10.333   1.063   1.327  0.6126 -0.9010  0.5339
  675MOL0     C89023  10.394   0.952   1.281 -0.0118 -0.0800  0.6138
  675MOL0     C89024  10.477   0.874   1.362  1.1999 -0.5070  0.0098
  675MOL0     C89025  10.499   0.916   1.502 -0.4379 -0.8161 -1.0582
  675MOL0     O89026  10.585   0.846   1.583 -0.3840 -0.5651 -0.1075
  675MOL0     C89027  10.642   0.718   1.537  1.2266 -0.1518 -0.0859
  675MOL0     C89028  10.743   0.664   1.638  0.4379  0.1928 -0.3830
  675MOL0     C89029  10.783   0.524   1.606  0.5309 -1.2655  0.4257
  675MOL0     C89030  10.811   0.507   1.455 -0.4546  0.7871  0.2154
  675MOL0     C89031  10.876   0.377   1.418  0.7491 -0.0645  0.2994
  675MOL0     C89032  10.955   0.289   1.377  0.9535  0.0297  0.5247
  675MOL0     C89033  10.434   1.040   1.550 -0.6104  0.4210 -0.4163
  675MOL0     C89034  10.359   1.113   1.456  0.7268 -0.1594 -0.5557
  675MOL0     H89035   9.965   1.382   1.359  1.1574 -0.1543  0.1125
  675MOL0     H89036   9.872   1.577   1.238  0.7637  0.6546  0.2754
  675MOL0     H89037   9.931   1.669   0.801  0.3847  1.0409 -1.6837
  675MOL0     H89038  10.099   1.681   0.851 -1.1250 -3.8206 -2.0696
  675MOL0     H89039  10.062   1.879   0.769 -0.2367 -1.8890 -0.9385
  675MOL0     H89040  10.021   1.929   0.926  1.8552  1.6157 -2.2489
  675MOL0     H89041   9.774   1.904   0.888  1.4503  2.5771  2.0323
  675MOL0     H89042   9.801   1.818   0.735  0.5659 -1.4475  2.2005
  675MOL0     H89043   9.861   2.016   0.624  2.1878 -0.8405  0.1650
  675MOL0     H89044   9.722   2.066   0.724  0.0340  0.1059 -1.9937
  675MOL0     H89045  10.004   2.128   0.823 -0.4961 -0.8318 -0.2612
  675MOL0     H89046   9.847   2.199   0.861  2.7816 -0.3415  2.2066
  675MOL0     H89047  10.026   2.215   0.615 -0.0031 -0.3783  0.3249
  675MOL0     H89048  10.001   2.350   0.729  3.0034  0.0193 -1.2887
  675MOL0     H89049   9.769   2.240   0.567 -0.5467  1.7787 -1.0756
  675MOL0     H89050   9.775   2.390   0.660  2.1462  2.3215 -0.9872
  675MOL0     H89051   9.920   2.322   0.398 -1.0333 -2.7699  1.9853
  675MOL0     H89052   9.969   2.461   0.497 -1.4777  1.7561  0.0900
  675MOL0     H89053   9.606   2.418   0.500  0.1800  1.6819  1.8972
  675MOL0     H89054   9.500   2.758   0.341  2.5382 -0.1490  3.1883
  675MOL0     H89055   9.460   2.642   0.477  1.5131  0.0490  0.9432
  675MOL0     H89056   9.363   2.477   0.352 -3.5372  1.0456  3.8796
  675MOL0     H89057   9.400   2.523   0.201 -0.5828 -0.8579 -0.9916
  675MOL0     H89058   9.221   2.717   0.196 -2.7562  0.4393 -0.1524
  675MOL0     H89059   9.160   2.562   0.240  0.1040  0.5886 -0.9005
  675MOL0     H89060   9.220   2.798   0.410  2.3308 -0.8417 -0.0984
  675MOL0     H89061   9.206   2.640   0.490 -0.5954 -1.8178 -0.8594
  675MOL0     H89062   8.824   2.574   0.400 -1.9128  2.8337 -0.5971
  675MOL0     H89063   8.705   2.499   0.575  0.9954 -0.0728 -2.2483
  675MOL0     H89064   8.490   2.742   1.013 -0.7426 -1.1671  0.2878
  675MOL0     H89065   8.362   2.703   1.239  0.8710  1.0474  0.4951
  675MOL0     H89066   8.240   2.571   1.416 -1.8587 -0.0429  2.4320
  675MOL0     H89067   8.346   2.715   1.478  5.7908 -0.0903  2.3949
  675MOL0     H89068   8.421   2.567   1.657  0.9880 -1.4287 -0.2068
  675MOL0     H89069   8.262   2.487   1.645  1.1484  1.3849  2.3812
  675MOL0     H89070   8.162   2.739   1.646 -0.1192  1.2290  0.2595
  675MOL0     H89071   8.320   2.771   1.703 -0.6847 -0.4953 -2.2822
  675MOL0     H89072   8.105   2.604   1.827  0.0568  0.8648 -0.8975
  675MOL0     H89073   8.264   2.585   1.887  0.7041  2.0280  2.8345
  675MOL0     H89074   8.107   2.859   1.866 -0.7600  0.1613  2.0086
  675MOL0     H89075   8.278   2.845   1.913  0.1795 -0.4169 -0.7166
  675MOL0     H89076   8.202   2.677   2.100 -2.1215 -2.5791  1.7491
  675MOL0     H89077   8.037   2.689   2.050 -0.8340 -0.0040 -1.1476
  675MOL0     H89078   8.024   2.848   2.219 -0.3714  0.6448 -0.3536
  675MOL0     H89079   8.202   2.861   2.227  1.3455 -1.8130 -0.8560
  675MOL0     H89080   8.000   2.989   2.037  1.2211 -0.7669 -1.3742
  675MOL0     H89081   8.185   3.018   2.034  1.6904 -2.0958  0.3832
  675MOL0     H89082   8.668   2.436   1.354  1.3888 -0.3976 -1.1641
  675MOL0     H89083   8.801   2.478   1.144 -1.9236 -3.6426  0.8893
  675MOL0     H89084   8.923   2.797   0.817 -0.6278  0.7959 -0.6015
  675MOL0     H89085   9.082   2.814   0.639 -1.2998  1.0189  3.0421
  675MOL0     H89086  10.203   1.554   0.955 -1.1417 -0.5646 -0.7008
  675MOL0     H89087  10.296   1.366   1.082  0.2001  2.5716  1.9267
  675MOL0     H89088  10.371   0.928   1.178 -2.1875  1.4502  0.6792
  675MOL0     H89089  10.513   0.778   1.326 -3.9003 -2.8555  0.2926
  675MOL0     H89090  10.694   0.718   1.441  1.1266 -2.5564 -0.1898
  675MOL0     H89091  10.553   0.654   1.534  1.2943 -0.2704 -3.5831
  675MOL0     H89092  10.834   0.724   1.627  1.0616 -0.3496  1.4153
  675MOL0     H89093  10.723   0.676   1.745  0.5958 -1.6848 -0.1094
  675MOL0     H89094  10.693   0.467   1.632 -1.2682  1.1962 -0.0242
  675MOL0     H89095  10.872   0.494   1.662  0.5149  0.2377  1.2881
  675MOL0     H89096  10.721   0.523   1.394  0.4306 -1.6975 -1.9434
  675MOL0     H89097  10.882   0.584   1.424 -1.4780  2.4948  1.8866
  675MOL0     H89098  11.021   0.210   1.351 -0.5159 -0.6616 -1.2988
  675MOL0     H89099  10.443   1.076   1.652 -1.9868  2.1455 -0.8646
  675MOL0     H89100  10.301   1.193   1.501 -0.3369 -1.0789 -0.2260
  676MOL0     O89101  10.661   3.467   5.749 -0.6269 -0.3780  0.0242
  676MOL0     C89102  10.618   3.580   5.771  0.0462  0.2780  0.0668
  676MOL0     O89103  10.692   3.692   5.791  0.5889 -0.3120  0.6107
  676MOL0     C89104  10.818   3.675   5.757  0.2797 -0.3151 -0.4954
  676MOL0     C89105  10.912   3.684   5.867  0.6243  0.0926 -0.0513
  676MOL0     C89106  11.050   3.670   5.835  0.6174 -0.6114  0.8110
  676MOL0     C89107  11.093   3.641   5.706  0.2479 -0.5276 -1.0416
  676MOL0     O89108  11.225   3.618   5.658 -0.4716 -0.1072  0.5658
  676MOL0     C89109  11.331   3.650   5.746 -0.0348  0.0050  0.6157
  676MOL0     C89110  11.467   3.622   5.677  0.2755 -0.3371  0.3406
  676MOL0     C89111  11.510   3.740   5.586 -0.6164 -0.0720 -0.6185
  676MOL0     C89112  11.644   3.713   5.518 -0.7586 -0.4840  0.7264
  676MOL0     C89113  11.690   3.824   5.418 -0.1833 -0.3969 -0.1648
  676MOL0     C89114  11.819   3.791   5.338  0.5940 -0.0423  0.8519
  676MOL0     C89115  11.862   3.921   5.274 -0.1236 -0.6975 -0.1592
  676MOL0     C89116  11.973   3.994   5.361 -0.4488 -0.4683 -0.1382
  676MOL0     N89117  11.909   4.088   5.449 -0.1740  0.4205 -0.8267
  676MOL0     C89118  11.849   4.203   5.409  0.2486  0.4772  0.2982
  676MOL0     C89119  11.795   4.263   5.515 -0.4696 -0.1680 -0.5230
  676MOL0     C89120  11.699   4.377   5.528 -0.5358 -0.1626 -0.2863
  676MOL0     C89121  11.574   4.327   5.615 -0.4675  0.1605 -0.1160
  676MOL0     C89122  11.502   4.203   5.559 -0.1151 -0.7302  0.0678
  676MOL0     C89123  11.361   4.215   5.621 -0.3511 -0.1096 -0.1708
  676MOL0     O89124  11.290   4.093   5.620 -0.1529  0.1113  0.9283
  676MOL0     C89125  11.217   4.064   5.500  0.3016 -0.3792  0.1851
  676MOL0     C89126  11.148   3.945   5.499  0.2432  0.2778  0.1507
  676MOL0     C89127  11.079   3.895   5.392 -0.1779 -0.0684  0.6526
  676MOL0     C89128  11.088   3.962   5.270 -0.8480  0.5364  0.1214
  676MOL0     C89129  11.040   3.899   5.153 -0.1125 -0.3864 -0.1176
  676MOL0     O89130  11.011   3.767   5.163 -0.0216  0.4372  0.1726
  676MOL0     C89131  10.958   3.704   5.057  0.3850  0.3383 -0.0824
  676MOL0     C89132  11.045   3.642   4.969 -0.8641 -1.0959  0.2486
  676MOL0     C89133  10.989   3.586   4.849  0.0439  0.2907 -0.4018
  676MOL0     C89134  10.854   3.557   4.836  0.6655 -0.0214 -0.0322
  676MOL0     O89135  10.799   3.474   4.745 -0.0632  0.1196  0.9484
  676MOL0     C89136  10.794   3.341   4.795 -1.6025 -0.6816  0.2463
  676MOL0     C89137  10.745   3.242   4.689  0.4679  0.5520  0.4854
  676MOL0     C89138  10.747   3.090   4.739 -0.5183  0.5198  0.1450
  676MOL0     C89139  10.681   3.009   4.627  0.2559 -0.1800 -0.6085
  676MOL0     C89140  10.691   2.855   4.627 -0.1098  0.2411  0.2655
  676MOL0     C89141  10.834   2.792   4.650 -0.2646 -1.0161 -0.4647
  676MOL0     C89142  10.955   2.833   4.553  0.1350 -0.9185  0.2288
  676MOL0     C89143  11.034   2.713   4.505  0.6256  0.4167 -0.5916
  676MOL0    Cl89144  11.107   2.637   4.649  0.0963  0.0760  0.1240
  676MOL0     C89145  10.768   3.609   4.929 -0.2066 -0.1329  0.2582
  676MOL0     C89146  10.814   3.677   5.041  0.2736  0.1033 -0.7823
  676MOL0     O89147  11.031   3.961   5.045 -0.0054 -0.5605 -0.7679
  676MOL0     C89148  11.155   4.079   5.259  0.6106 -0.0032 -0.0304
  676MOL0     C89149  11.226   4.133   5.373 -0.5002  1.1427  0.3825
  676MOL0     N89150  11.850   4.207   5.624 -0.5924 -0.2483 -0.1108
  676MOL0     N89151  11.905   4.099   5.584  0.2214  0.3426  0.2727
  676MOL0     C89152  10.992   3.631   5.605 -0.1786  1.1074 -0.4496
  676MOL0     C89153  10.856   3.659   5.627 -0.1467  1.2509 -0.0266
  676MOL0     C89154  10.468   3.583   5.781 -0.6922 -0.2000  0.5900
  676MOL0     C89155  10.403   3.704   5.819 -0.1846 -0.3562  0.2266
  676MOL0     C89156  10.267   3.715   5.822 -0.1714  0.6792  0.7939
  676MOL0     C89157  10.191   3.603   5.826 -0.4466 -0.0831 -0.4290
  676MOL0     O89158  10.057   3.611   5.848  0.0792  0.5392  0.5186
  676MOL0     C89159   9.977   3.730   5.822  0.3630  0.1569 -0.6753
  676MOL0     C89160   9.941   3.765   5.666  0.2963  0.2576  0.1826
  676MOL0     C89161   9.855   3.650   5.610  0.1735 -0.3519  1.2110
  676MOL0     C89162   9.792   3.690   5.476 -0.1084  0.5533 -0.9121
  676MOL0     C89163   9.713   3.577   5.423  0.0422  0.3179 -0.4116
  676MOL0     C89164   9.656   3.484   5.374  0.6089  0.0789 -0.9127
  676MOL0     C89165  10.248   3.482   5.795  0.6401 -0.0791 -0.3112
  676MOL0     C89166  10.386   3.464   5.771  0.3442 -0.4689 -0.8039
  676MOL0     H89167  10.875   3.695   5.969  0.8580  0.5735 -0.0150
  676MOL0     H89168  11.128   3.689   5.908  2.0212  0.9522 -0.9964
  676MOL0     H89169  11.329   3.584   5.833  4.8029 -0.8713  0.3121
  676MOL0     H89170  11.322   3.755   5.776 -2.1232 -0.5852  2.2978
  676MOL0     H89171  11.467   3.523   5.630  0.0161 -0.8010  1.2910
  676MOL0     H89172  11.543   3.618   5.755  0.6580 -1.4945 -0.0705
  676MOL0     H89173  11.517   3.828   5.650 -1.6600  0.1981 -0.8488
  676MOL0     H89174  11.432   3.763   5.513  1.7464  0.3982 -3.1577
  676MOL0     H89175  11.730   3.690   5.581 -0.4854 -1.5632 -0.0157
  676MOL0     H89176  11.635   3.622   5.458  1.8529  0.8671 -2.0103
  676MOL0     H89177  11.687   3.927   5.456 -0.6091 -0.9067  1.2624
  676MOL0     H89178  11.609   3.834   5.345  0.7054 -0.9012 -1.2432
  676MOL0     H89179  11.803   3.721   5.255 -3.9513  1.2289  0.3924
  676MOL0     H89180  11.894   3.741   5.400  0.7803 -2.7491 -1.3434
  676MOL0     H89181  11.920   3.900   5.184 -0.2537  0.5493 -0.5525
  676MOL0     H89182  11.780   3.990   5.252  2.2601  2.9222  1.3766
  676MOL0     H89183  12.040   4.042   5.289 -2.4152  0.8448 -1.1963
  676MOL0     H89184  12.039   3.930   5.419 -1.4444 -0.3462  1.1824
  676MOL0     H89185  11.826   4.229   5.306 -1.0175 -0.6385  0.2718
  676MOL0     H89186  11.659   4.400   5.429  0.3299  0.5603 -0.4740
  676MOL0     H89187  11.729   4.470   5.575 -0.8394  1.7679 -3.6127
  676MOL0     H89188  11.508   4.415   5.611 -0.4073  0.1962 -0.3717
  676MOL0     H89189  11.615   4.330   5.716  1.9694  1.9918 -1.0542
  676MOL0     H89190  11.494   4.217   5.451 -0.9020 -0.4792  0.1462
  676MOL0     H89191  11.558   4.110   5.572  0.3758 -0.3342  0.9301
  676MOL0     H89192  11.294   4.291   5.580 -1.2087 -1.3056 -1.0532
  676MOL0     H89193  11.380   4.235   5.727  1.6370 -0.8209 -0.3451
  676MOL0     H89194  11.157   3.891   5.593 -0.9794 -0.4922 -0.1483
  676MOL0     H89195  11.030   3.798   5.401  0.1587 -0.0601  3.2576
  676MOL0     H89196  11.150   3.658   4.989 -0.2184 -2.4458 -1.7281
  676MOL0     H89197  11.056   3.555   4.770 -1.3255 -1.0959 -1.0502
  676MOL0     H89198  10.731   3.337   4.885 -0.6748  1.5933  1.0876
  676MOL0     H89199  10.900   3.324   4.814  0.0591  4.7287 -2.1322
  676MOL0     H89200  10.815   3.249   4.605  3.2425 -1.4755  2.4633
  676MOL0     H89201  10.647   3.261   4.644  0.4690  1.4412  0.8456
  676MOL0     H89202  10.686   3.081   4.829 -2.0661 -0.0779 -0.9245
  676MOL0     H89203  10.851   3.057   4.742 -0.6735 -0.1252 -0.9157
  676MOL0     H89204  10.576   3.038   4.631  0.3490  0.2669 -1.2756
  676MOL0     H89205  10.721   3.044   4.531  0.4537 -0.9882 -0.8220
  676MOL0     H89206  10.657   2.829   4.526  0.1489 -1.6956  0.6395
  676MOL0     H89207  10.623   2.814   4.702  2.7882 -2.3411  1.7485
  676MOL0     H89208  10.824   2.683   4.645  0.6688 -1.0600 -1.8080
  676MOL0     H89209  10.869   2.811   4.752  1.7379 -0.1356 -1.2785
  676MOL0     H89210  10.905   2.891   4.475 -1.6332  0.3003  2.1400
  676MOL0     H89211  11.024   2.904   4.600 -1.9027 -0.6488  3.1051
  676MOL0     H89212  11.120   2.734   4.441 -0.2176  1.2470 -1.4858
  676MOL0     H89213  10.973   2.634   4.460  3.4842 -1.3311 -1.6391
  676MOL0     H89214  10.661   3.605   4.915 -1.0841  3.7626  3.8329
  676MOL0     H89215  10.744   3.713   5.115  0.9095  1.6148 -0.8872
  676MOL0     H89216  11.164   4.127   5.162  0.3045  0.3679  0.1200
  676MOL0     H89217  11.274   4.228   5.351  1.7027  0.0621  0.2879
  676MOL0     H89218  11.015   3.602   5.502  0.1136  1.0660 -0.3753
  676MOL0     H89219  10.791   3.651   5.541  2.6817 -1.4914 -2.1540
  676MOL0     H89220  10.469   3.789   5.827 -0.9868  0.3767 -0.6495
  676MOL0     H89221  10.221   3.811   5.842 -3.8636 -1.2384  2.6585
  676MOL0     H89222  10.037   3.807   5.872  2.7468 -1.5276 -0.7510
  676MOL0     H89223   9.877   3.724   5.866  0.6185 -1.2281 -0.2431
  676MOL0     H89224   9.884   3.857   5.659  0.9493  0.5929 -0.9950
  676MOL0     H89225  10.036   3.781   5.614  2.2184  1.7609  3.7239
  676MOL0     H89226   9.773   3.623   5.678  0.8855 -0.2531  2.1233
  676MOL0     H89227   9.920   3.563   5.601 -1.4144 -1.5216  0.5975
  676MOL0     H89228   9.731   3.778   5.495  2.1922  1.9448  0.4834
  676MOL0     H89229   9.876   3.702   5.407  2.5831 -1.2209  1.8006
  676MOL0     H89230   9.593   3.407   5.335 -1.1083  0.1615  1.4474
  676MOL0     H89231  10.180   3.397   5.795 -0.0366  0.4479  0.4470
  676MOL0     H89232  10.428   3.367   5.747  0.9167 -0.2533 -0.6951
  677MOL0     O89233   9.076   2.125   6.934  0.3431  0.3482 -0.2690
  677MOL0     C89234   9.004   2.032   6.898 -0.0986 -0.0111 -1.0153
  677MOL0     O89235   8.872   2.045   6.857 -0.7590 -0.4673  0.2159
  677MOL0     C89236   8.842   2.148   6.770  0.0763 -0.2460  0.0690
  677MOL0     C89237   8.895   2.165   6.646  0.2065  1.2062 -0.1239
  677MOL0     C89238   8.832   2.223   6.528 -0.1999 -0.4133 -0.3802
  677MOL0     C89239   8.699   2.263   6.539  0.1052  0.2830 -0.0018
  677MOL0     O89240   8.643   2.323   6.436 -0.7077  0.4990  0.2447
  677MOL0     C89241   8.506   2.367   6.443  0.0183  0.3587 -0.8830
  677MOL0     C89242   8.477   2.418   6.300 -0.1338  0.9238 -1.4026
  677MOL0     C89243   8.329   2.466   6.294 -0.1960  0.3750 -0.6273
  677MOL0     C89244   8.264   2.492   6.157  0.0177  0.1151  0.4358
  677MOL0     C89245   8.126   2.571   6.177  0.2799  0.6334  0.3998
  677MOL0     C89246   8.059   2.584   6.034  0.0364 -0.0204 -0.5759
  677MOL0     C89247   7.933   2.659   6.040 -0.3370 -0.2021  0.4481
  677MOL0     C89248   7.824   2.583   6.124 -0.6612 -0.6887  0.8639
  677MOL0     N89249   7.708   2.663   6.091 -0.3333 -0.2590  0.3338
  677MOL0     C89250   7.690   2.793   6.037  0.4440 -0.0098 -0.5907
  677MOL0     C89251   7.567   2.825   6.080 -0.0096  0.4455  0.5286
  677MOL0     C89252   7.497   2.957   6.058  1.2751 -0.2223  0.6257
  677MOL0     C89253   7.477   2.986   5.904  0.5631 -0.5176 -0.8166
  677MOL0     C89254   7.384   2.881   5.848  0.1994  0.6879 -0.9425
  677MOL0     C89255   7.327   2.930   5.715  0.2761 -0.7294 -0.0623
  677MOL0     O89256   7.201   2.866   5.684 -0.9570 -0.2448  0.3167
  677MOL0     C89257   7.098   2.954   5.687  0.0026 -0.6658  0.0774
  677MOL0     C89258   7.084   3.051   5.789 -0.2550 -0.3012  0.2379
  677MOL0     C89259   6.961   3.114   5.805 -0.2142  0.0169 -0.1863
  677MOL0     C89260   6.854   3.095   5.722 -0.5611 -0.5236 -0.3857
  677MOL0     C89261   6.719   3.160   5.757  0.2664  0.1114 -0.4093
  677MOL0     O89262   6.614   3.117   5.675  0.4741 -0.4328  0.1394
  677MOL0     C89263   6.491   3.168   5.699  0.6880 -0.0398  0.9019
  677MOL0     C89264   6.420   3.131   5.807 -0.7617  0.5340 -0.3651
  677MOL0     C89265   6.288   3.188   5.827 -0.0706  0.5950  0.2064
  677MOL0     C89266   6.238   3.284   5.738 -0.6678  0.0471 -0.1418
  677MOL0     O89267   6.109   3.332   5.745  0.5291  0.3327 -0.4548
  677MOL0     C89268   6.006   3.261   5.823  0.1685 -0.8919  0.0869
  677MOL0     C89269   5.870   3.316   5.783  0.5646  0.3814 -0.3700
  677MOL0     C89270   5.751   3.267   5.873 -0.2649 -1.6156 -0.3730
  677MOL0     C89271   5.761   3.332   6.010  0.2058 -0.2195  0.6217
  677MOL0     C89272   5.625   3.319   6.082  0.1240  0.3977 -0.7323
  677MOL0     C89273   5.598   3.406   6.202  0.3701  1.2327  0.6614
  677MOL0     C89274   5.451   3.413   6.246  0.5011  0.9372  0.1099
  677MOL0     C89275   5.395   3.277   6.291 -0.1365 -0.8339  0.4498
  677MOL0    Cl89276   5.296   3.290   6.441 -0.0978  0.4903  0.6296
  677MOL0     C89277   6.320   3.323   5.630  0.3554  0.4718 -0.3805
  677MOL0     C89278   6.444   3.264   5.609 -0.4554  1.2067  0.6874
  677MOL0     O89279   6.707   3.232   5.855  0.2026  0.3319 -0.2315
  677MOL0     C89280   6.869   3.001   5.627 -1.1951 -0.1454 -0.4873
  677MOL0     C89281   6.990   2.934   5.603 -0.5849 -0.4636 -0.3077
  677MOL0     N89282   7.513   2.729   6.157  0.6034 -0.1643 -0.1590
  677MOL0     N89283   7.601   2.635   6.166 -0.5312  0.8966  0.1005
  677MOL0     C89284   8.635   2.251   6.662 -0.1850  0.9489 -1.3132
  677MOL0     C89285   8.712   2.205   6.779  0.2879 -0.1827  0.4548
  677MOL0     C89286   9.059   1.902   6.884 -0.4222 -0.2980 -0.1877
  677MOL0     C89287   9.194   1.875   6.932 -0.1278 -0.2641  0.9662
  677MOL0     C89288   9.244   1.747   6.916  0.0095 -0.3073 -0.0549
  677MOL0     C89289   9.161   1.641   6.868  0.3267 -0.1090 -0.1485
  677MOL0     O89290   9.206   1.511   6.864 -0.0986 -0.5277 -0.3301
  677MOL0     C89291   9.211   1.449   6.737 -0.2786  0.0572  0.2481
  677MOL0     C89292   9.218   1.298   6.764  0.1009 -0.3429  0.6347
  677MOL0     C89293   9.358   1.243   6.793  0.2736  0.1048  0.5507
  677MOL0     C89294   9.349   1.088   6.807 -0.2838  0.4764  0.4988
  677MOL0     C89295   9.460   1.044   6.891 -0.0958 -0.3601  0.0089
  677MOL0     C89296   9.543   1.000   6.965  0.3179  0.5569  0.3335
  677MOL0     C89297   9.031   1.665   6.832  0.9377 -0.3270 -0.1243
  677MOL0     C89298   8.979   1.799   6.842  0.7888  0.2780  0.1556
  677MOL0     H89299   8.987   2.114   6.618  0.9374  2.6986 -0.5176
  677MOL0     H89300   8.894   2.244   6.442  1.7902  2.2519  1.5307
  677MOL0     H89301   8.493   2.443   6.520 -2.0368  2.0409 -2.7366
  677MOL0     H89302   8.441   2.283   6.470 -0.8608  1.8028  1.8523
  677MOL0     H89303   8.479   2.330   6.235  0.1712 -0.3241  0.2234
  677MOL0     H89304   8.543   2.496   6.260 -0.5421  1.6925 -0.6122
  677MOL0     H89305   8.315   2.550   6.363 -0.7583 -1.1277  1.1626
  677MOL0     H89306   8.266   2.392   6.344 -2.5125  3.1356  0.7970
  677MOL0     H89307   8.338   2.562   6.117  2.1968 -1.4270  1.6155
  677MOL0     H89308   8.260   2.399   6.101  1.0280  0.4988 -0.2950
  677MOL0     H89309   8.139   2.669   6.224 -2.4249  1.0141  0.5482
  677MOL0     H89310   8.050   2.523   6.239 -3.3402  2.5107 -2.2351
  677MOL0     H89311   8.052   2.483   5.992  2.4327 -2.3121  3.8541
  677MOL0     H89312   8.119   2.642   5.964  0.8911 -0.8292 -0.5255
  677MOL0     H89313   7.953   2.756   6.085  1.6012 -0.3006 -0.1226
  677MOL0     H89314   7.894   2.677   5.939 -2.1346  2.4196  1.4973
  677MOL0     H89315   7.850   2.593   6.229  1.3362 -0.8836  0.4280
  677MOL0     H89316   7.823   2.477   6.095  3.0784 -0.6440 -0.0202
  677MOL0     H89317   7.765   2.846   5.979  1.9209 -3.1395 -1.8147
  677MOL0     H89318   7.566   3.038   6.080  1.1267  1.6920 -4.6257
  677MOL0     H89319   7.403   2.962   6.115  0.0696 -2.4323 -1.0018
  677MOL0     H89320   7.573   2.990   5.853  1.2832 -0.4914  0.4999
  677MOL0     H89321   7.434   3.086   5.894  1.7664 -0.1515 -2.7128
  677MOL0     H89322   7.439   2.790   5.821  0.4577  0.3207  0.7124
  677MOL0     H89323   7.303   2.842   5.910 -1.4385  1.3992 -2.5724
  677MOL0     H89324   7.390   2.902   5.630  0.3592 -0.4292 -0.1001
  677MOL0     H89325   7.328   3.040   5.719  3.4564 -0.6772  0.4173
  677MOL0     H89326   7.160   3.072   5.863  2.2080  0.5052 -2.3311
  677MOL0     H89327   6.952   3.188   5.884  1.9348  0.3864 -0.2285
  677MOL0     H89328   6.468   3.060   5.874 -0.5529 -1.7974 -2.8154
  677MOL0     H89329   6.239   3.148   5.915  3.1306  1.2706  2.4842
  677MOL0     H89330   6.032   3.269   5.928  3.6852 -1.6633 -0.6060
  677MOL0     H89331   6.006   3.152   5.812 -0.6750 -0.9938  0.9410
  677MOL0     H89332   5.852   3.294   5.678 -0.8552 -1.8034  0.2588
  677MOL0     H89333   5.882   3.424   5.781  0.2580  0.4078 -1.2250
  677MOL0     H89334   5.738   3.158   5.883  0.3086 -1.7411 -0.9082
  677MOL0     H89335   5.659   3.288   5.819  0.0633 -1.0933 -0.7379
  677MOL0     H89336   5.845   3.283   6.062 -1.8417 -1.3772  3.0684
  677MOL0     H89337   5.788   3.438   6.015  0.6556 -0.3818  2.2965
  677MOL0     H89338   5.594   3.216   6.100 -0.1973  0.5448 -0.4479
  677MOL0     H89339   5.549   3.360   6.015 -0.8855 -1.5025 -0.8248
  677MOL0     H89340   5.638   3.506   6.184  3.4926 -0.2234 -1.4717
  677MOL0     H89341   5.661   3.365   6.282  0.3834 -1.1263 -0.4552
  677MOL0     H89342   5.442   3.479   6.332 -1.2706 -1.1235  1.5883
  677MOL0     H89343   5.379   3.452   6.174 -1.2055  0.8955  1.7477
  677MOL0     H89344   5.474   3.204   6.314 -0.6120 -0.9370  1.8810
  677MOL0     H89345   5.325   3.248   6.212  1.3796  2.5821 -2.3942
  677MOL0     H89346   6.285   3.401   5.563  1.2461 -0.2598 -1.7456
  677MOL0     H89347   6.506   3.282   5.522  0.3669 -1.5194  0.6349
  677MOL0     H89348   6.786   2.963   5.569 -0.5167 -5.5291  1.4737
  677MOL0     H89349   7.002   2.848   5.538 -0.1545  1.3305 -2.7855
  677MOL0     H89350   8.539   2.291   6.695  0.6600  1.6725  0.3743
  677MOL0     H89351   8.657   2.189   6.871 -0.0990 -0.0600  0.2476
  677MOL0     H89352   9.257   1.956   6.968  1.5032 -1.0839  0.0693
  677MOL0     H89353   9.350   1.730   6.931 -0.3055 -2.0341  0.3888
  677MOL0     H89354   9.295   1.489   6.680  1.2423 -0.9299  1.6614
  677MOL0     H89355   9.118   1.474   6.686  0.1802  2.5091  0.4838
  677MOL0     H89356   9.156   1.272   6.850 -0.4698  1.8199  0.9470
  677MOL0     H89357   9.187   1.253   6.669 -0.6813  0.2646  0.5833
  677MOL0     H89358   9.385   1.273   6.894  0.9863 -2.1620  1.0970
  677MOL0     H89359   9.427   1.278   6.715  0.3872 -1.0922  0.0846
  677MOL0     H89360   9.261   1.052   6.861  0.0041 -0.5482  0.3084
  677MOL0     H89361   9.365   1.037   6.711 -0.0509 -1.3420  1.4506
  677MOL0     H89362   9.619   0.958   7.028  0.9272  1.4997  0.2469
  677MOL0     H89363   8.966   1.579   6.819 -0.3958 -0.0915  3.7038
  677MOL0     H89364   8.875   1.824   6.821  1.2302  4.4845  2.0761
  678MOL0     O89365   1.450   9.041   3.981 -1.4198  0.2264 -0.1808
  678MOL0     C89366   1.471   8.920   3.961 -0.2289 -0.1630 -0.2305
  678MOL0     O89367   1.545   8.846   4.041 -0.0035  0.0475 -0.0015
  678MOL0     C89368   1.558   8.882   4.173 -0.1851 -0.4828  0.6717
  678MOL0     C89369   1.688   8.850   4.234  0.6506  0.0988  0.2352
  678MOL0     C89370   1.705   8.860   4.371 -0.4898  0.8036 -0.8253
  678MOL0     C89371   1.606   8.912   4.458  0.9514  1.2585  0.6468
  678MOL0     O89372   1.621   8.929   4.590  0.0782  0.1149 -0.2486
  678MOL0     C89373   1.516   8.976   4.668  0.3239 -0.4809  0.9988
  678MOL0     C89374   1.563   8.976   4.820  0.9741 -0.0034 -0.1071
  678MOL0     C89375   1.456   9.003   4.923 -0.0515  0.3052 -0.9628
  678MOL0     C89376   1.487   8.950   5.051  0.1810  0.1426 -0.0149
  678MOL0     C89377   1.396   9.013   5.158 -1.5579  0.7481 -0.2824
  678MOL0     C89378   1.400   8.945   5.290  0.3210 -0.4136  0.6107
  678MOL0     C89379   1.297   8.985   5.393 -0.2551  0.8393 -0.3038
  678MOL0     C89380   1.335   8.941   5.534 -0.7867 -0.2710 -0.5491
  678MOL0     N89381   1.310   8.803   5.555 -0.3906 -0.4841  0.6055
  678MOL0     C89382   1.394   8.700   5.525 -0.7728 -0.6177  0.7641
  678MOL0     C89383   1.328   8.592   5.587 -0.0617 -0.3447 -0.3611
  678MOL0     C89384   1.384   8.453   5.587 -0.0215 -0.4978  0.0290
  678MOL0     C89385   1.437   8.413   5.721  0.1524 -0.0480 -0.2539
  678MOL0     C89386   1.593   8.421   5.721  0.0139  0.6578 -0.5652
  678MOL0     C89387   1.649   8.385   5.865 -0.1675  0.4284  0.7495
  678MOL0     O89388   1.599   8.467   5.972 -0.1985 -1.0975  0.1408
  678MOL0     C89389   1.600   8.611   5.960 -1.0806  0.2564 -0.6541
  678MOL0     C89390   1.489   8.684   6.005 -0.6046  0.6009 -0.8070
  678MOL0     C89391   1.474   8.815   5.988  0.5847 -0.3731  0.3732
  678MOL0     C89392   1.581   8.895   5.939 -0.3381 -1.1883  0.5989
  678MOL0     C89393   1.553   9.047   5.915 -0.3293 -0.8375 -0.4621
  678MOL0     O89394   1.666   9.126   5.881  0.3054  0.1381 -0.3366
  678MOL0     C89395   1.663   9.262   5.870  1.2142 -0.3304  1.2137
  678MOL0     C89396   1.732   9.315   5.766 -0.7120 -0.5502  0.1050
  678MOL0     C89397   1.750   9.454   5.762 -0.2007  0.6956 -0.0242
  678MOL0     C89398   1.689   9.541   5.858  0.1583 -0.6198  0.2362
  678MOL0     O89399   1.714   9.678   5.849 -0.3564  1.0306 -0.1456
  678MOL0     C89400   1.609   9.774   5.884  0.1643 -0.7257 -0.7939
  678MOL0     C89401   1.635   9.901   5.815  0.8708 -0.4765 -0.9195
  678MOL0     C89402   1.609   9.888   5.663 -0.5636 -0.8272  0.3372
  678MOL0     C89403   1.613  10.023   5.589 -0.5930  0.0195 -1.1335
  678MOL0     C89404   1.608  10.011   5.438  0.0829  0.3394  0.4203
  678MOL0     C89405   1.571  10.139   5.367 -0.9220  0.0988 -0.1541
  678MOL0     C89406   1.671  10.254   5.381  0.4651 -0.3725 -0.0465
  678MOL0     C89407   1.810  10.233   5.325  0.9064 -0.1251  0.9977
  678MOL0    Cl89408   1.873  10.400   5.304 -0.5630 -0.3724 -0.0296
  678MOL0     C89409   1.597   9.487   5.946  0.3647  0.2707 -0.4961
  678MOL0     C89410   1.590   9.346   5.961 -0.2513 -0.3186 -0.4460
  678MOL0     O89411   1.443   9.090   5.952 -0.2503 -0.6061  0.6162
  678MOL0     C89412   1.694   8.829   5.914 -0.5730 -0.1019  0.0465
  678MOL0     C89413   1.707   8.687   5.920 -0.2357 -0.5258  0.6504
  678MOL0     N89414   1.212   8.631   5.640 -0.0913  0.1862  0.2559
  678MOL0     N89415   1.209   8.762   5.630 -0.6317 -0.4314 -0.1919
  678MOL0     C89416   1.477   8.928   4.391  0.3279  0.5977 -0.9708
  678MOL0     C89417   1.458   8.911   4.254  0.0532  0.0481 -0.3769
  678MOL0     C89418   1.435   8.869   3.835 -0.8502  0.7878  0.8291
  678MOL0     C89419   1.374   8.951   3.737 -0.4080  0.5841  0.4418
  678MOL0     C89420   1.324   8.904   3.618  0.3993  0.0222  0.0236
  678MOL0     C89421   1.325   8.761   3.599 -0.2847  0.7701 -0.6091
  678MOL0     O89422   1.265   8.695   3.500 -0.2294 -0.1120  0.1280
  678MOL0     C89423   1.210   8.780   3.397 -0.4998  0.6466 -0.0454
  678MOL0     C89424   1.313   8.858   3.311 -0.6156 -0.2537  0.2773
  678MOL0     C89425   1.247   8.950   3.202 -0.4044 -0.1621 -0.2234
  678MOL0     C89426   1.222   8.860   3.072  0.7683  0.1515 -0.2895
  678MOL0     C89427   1.164   8.943   2.967  0.4279 -0.5944  0.7022
  678MOL0     C89428   1.129   9.027   2.886  0.4627  0.3266  0.2067
  678MOL0     C89429   1.385   8.680   3.693  0.0514 -0.3490 -0.3846
  678MOL0     C89430   1.454   8.735   3.801  0.3680  0.5279 -0.2566
  678MOL0     H89431   1.772   8.808   4.178 -0.1109 -1.1922  0.0307
  678MOL0     H89432   1.804   8.837   4.408  0.0084  0.8506 -2.0628
  678MOL0     H89433   1.423   8.918   4.660 -1.1409  1.8836 -0.4857
  678MOL0     H89434   1.504   9.078   4.630  1.7598 -0.4255  0.6608
  678MOL0     H89435   1.646   9.047   4.832  1.0854 -0.3851  1.6290
  678MOL0     H89436   1.604   8.883   4.860  1.0403  1.1089  2.5961
  678MOL0     H89437   1.362   8.954   4.895 -0.6497 -0.1143  1.5438
  678MOL0     H89438   1.431   9.110   4.927 -1.1725  0.0443 -0.6755
  678MOL0     H89439   1.475   8.842   5.049  0.9891  0.0394 -2.2496
  678MOL0     H89440   1.590   8.979   5.073 -0.3667  0.9131  1.6934
  678MOL0     H89441   1.293   9.003   5.124 -1.3554  0.0103 -0.7063
  678MOL0     H89442   1.418   9.119   5.173  0.6195  0.4049 -0.6244
  678MOL0     H89443   1.503   8.964   5.321  0.2096  2.6055 -0.5823
  678MOL0     H89444   1.399   8.840   5.259 -1.2688 -0.0873 -0.6148
  678MOL0     H89445   1.288   9.094   5.393  0.8753  1.0192 -3.1861
  678MOL0     H89446   1.198   8.948   5.364 -0.6514  1.9442 -0.4355
  678MOL0     H89447   1.273   9.005   5.598 -0.6952  1.9236 -2.5170
  678MOL0     H89448   1.436   8.980   5.551 -1.0138 -0.2173  0.8135
  678MOL0     H89449   1.486   8.702   5.468 -1.1279  3.5528  0.0463
  678MOL0     H89450   1.465   8.458   5.513 -2.6118 -0.2853 -3.0226
  678MOL0     H89451   1.299   8.394   5.551  1.1271 -1.3389 -1.4094
  678MOL0     H89452   1.410   8.307   5.729 -2.0033  0.4717  0.0180
  678MOL0     H89453   1.390   8.465   5.805 -3.0733 -0.8906 -1.3887
  678MOL0     H89454   1.631   8.358   5.640 -1.4060  0.9944 -1.5213
  678MOL0     H89455   1.628   8.523   5.704 -1.4899  1.6533  1.8550
  678MOL0     H89456   1.756   8.401   5.850 -0.7839  1.9663 -3.3236
  678MOL0     H89457   1.624   8.281   5.885  0.6841 -0.2865 -1.5558
  678MOL0     H89458   1.404   8.625   6.037 -0.8354 -1.9015 -5.2307
  678MOL0     H89459   1.380   8.860   6.018  0.0285 -0.6650 -0.8811
  678MOL0     H89460   1.787   9.253   5.696 -1.3500 -0.3836 -0.5616
  678MOL0     H89461   1.823   9.492   5.691 -0.3774 -0.1553 -0.6763
  678MOL0     H89462   1.610   9.798   5.991 -1.5556  1.3143 -1.1717
  678MOL0     H89463   1.512   9.735   5.851  0.7302  0.0851 -3.6835
  678MOL0     H89464   1.734   9.946   5.831  1.1388 -0.7624 -1.7406
  678MOL0     H89465   1.559   9.973   5.849  0.2338 -0.1018 -3.0202
  678MOL0     H89466   1.516   9.839   5.632  0.1582 -1.0017 -1.7149
  678MOL0     H89467   1.691   9.831   5.618  0.3363  1.4394 -1.0160
  678MOL0     H89468   1.538  10.091   5.631 -0.1975 -0.5221  0.5542
  678MOL0     H89469   1.705  10.079   5.605 -0.0576 -0.8975 -0.8982
  678MOL0     H89470   1.536   9.931   5.416 -1.4036  2.4348 -3.2519
  678MOL0     H89471   1.706   9.986   5.397  1.6991  4.8046  1.0486
  678MOL0     H89472   1.476  10.185   5.399 -0.9044  2.5065 -3.0632
  678MOL0     H89473   1.559  10.117   5.261  1.0843 -1.8720 -0.0423
  678MOL0     H89474   1.630  10.347   5.341  2.3110  0.8743  0.7884
  678MOL0     H89475   1.686  10.267   5.489 -0.6523  1.0085 -0.0321
  678MOL0     H89476   1.796  10.195   5.223  1.7834  2.6718 -0.2666
  678MOL0     H89477   1.881  10.171   5.381  0.4124 -0.3019  1.4376
  678MOL0     H89478   1.523   9.541   6.004 -0.4502 -0.5100 -0.7920
  678MOL0     H89479   1.525   9.298   6.033 -0.4583 -0.7414 -0.9074
  678MOL0     H89480   1.782   8.889   5.896 -0.3345 -1.0040 -2.2544
  678MOL0     H89481   1.800   8.642   5.888  0.7193  1.8249 -0.0312
  678MOL0     H89482   1.394   8.933   4.461  1.2883  3.3910  0.0806
  678MOL0     H89483   1.360   8.913   4.208  0.6327  2.0799 -1.6907
  678MOL0     H89484   1.378   9.059   3.746  0.2209  0.5102  1.1625
  678MOL0     H89485   1.271   8.974   3.555 -2.6721 -1.9729  0.1846
  678MOL0     H89486   1.133   8.849   3.433 -1.1590  0.2368 -0.6242
  678MOL0     H89487   1.147   8.717   3.332  0.1568 -1.0053  0.8800
  678MOL0     H89488   1.390   8.906   3.372  1.3869 -3.7969  0.8323
  678MOL0     H89489   1.373   8.779   3.263  0.4376  0.9313 -0.4367
  678MOL0     H89490   1.318   9.030   3.181  0.4447 -0.5651  1.0176
  678MOL0     H89491   1.160   9.002   3.243  0.0149  0.1460  0.2889
  678MOL0     H89492   1.317   8.815   3.039  0.2059 -2.1108  0.9622
  678MOL0     H89493   1.150   8.780   3.092 -0.5930  1.5595  0.6934
  678MOL0     H89494   1.101   9.086   2.801  0.9648  1.2696  0.6691
  678MOL0     H89495   1.401   8.575   3.673  2.5862 -0.6265  2.4416
  678MOL0     H89496   1.518   8.675   3.865  1.7128  2.8569  0.6973
  679MOL0     O89497   1.956   7.848   4.165 -0.0535 -0.6094  0.4120
  679MOL0     C89498   1.852   7.787   4.183  0.4617  0.3361  0.2611
  679MOL0     O89499   1.753   7.755   4.083 -0.6384  0.4867  0.2441
  679MOL0     C89500   1.775   7.816   3.956  0.7100  0.2435 -0.4412
  679MOL0     C89501   1.675   7.877   3.891  0.0650  0.1787  0.1854
  679MOL0     C89502   1.691   7.940   3.768  0.3341  0.9062 -0.8792
  679MOL0     C89503   1.809   7.935   3.704 -0.0359 -0.2597 -0.1141
  679MOL0     O89504   1.806   8.004   3.585 -0.1628 -0.1634 -0.7720
  679MOL0     C89505   1.890   7.960   3.482 -0.2061 -0.1884  0.2984
  679MOL0     C89506   1.833   8.014   3.343  0.0610  0.4125 -0.3673
  679MOL0     C89507   1.680   7.974   3.322  0.6904 -1.2091  0.0596
  679MOL0     C89508   1.627   8.056   3.201  0.4620  0.7456  0.4370
  679MOL0     C89509   1.472   8.015   3.193 -0.1366 -1.4189  0.4377
  679MOL0     C89510   1.421   8.020   3.043 -0.4755 -0.6941  0.4760
  679MOL0     C89511   1.465   8.146   2.957  1.4540 -0.5090 -0.2166
  679MOL0     C89512   1.431   8.135   2.811 -0.1016  0.0633  0.5171
  679MOL0     N89513   1.294   8.136   2.774  0.5615  0.3833 -0.0078
  679MOL0     C89514   1.212   8.030   2.758  0.9692 -0.9080 -0.2595
  679MOL0     C89515   1.089   8.079   2.739  0.1829 -0.5486  0.3030
  679MOL0     C89516   0.953   8.021   2.716 -0.4455  0.2904 -0.4413
  679MOL0     C89517   0.938   7.975   2.576 -0.5201 -0.1988  0.4379
  679MOL0     C89518   0.925   8.093   2.465  0.6676 -0.7051  0.2198
  679MOL0     C89519   0.787   8.172   2.470 -0.4115 -0.4583  0.3297
  679MOL0     O89520   0.786   8.253   2.347  0.0232  0.2625  0.0365
  679MOL0     C89521   0.661   8.301   2.314 -1.5529  0.3439  1.4708
  679MOL0     C89522   0.621   8.417   2.374  0.0280 -0.0473  0.2199
  679MOL0     C89523   0.487   8.453   2.365 -0.6444  0.3836  0.0882
  679MOL0     C89524   0.395   8.383   2.282  0.2098 -0.3182 -0.6972
  679MOL0     C89525   0.250   8.427   2.269 -0.3275 -0.1583  0.4214
  679MOL0     O89526   0.208   8.548   2.327  0.0661 -1.1110 -0.2667
  679MOL0     C89527   0.073   8.569   2.316 -0.5190  0.1895  0.6012
  679MOL0     C89528   0.023   8.644   2.211  0.0133  0.5214  0.5400
  679MOL0     C89529  -0.111   8.658   2.190  1.1825  0.3006  0.1502
  679MOL0     C89530  -0.197   8.601   2.290  0.4360 -0.5432 -0.5695
  679MOL0     O89531  -0.332   8.627   2.296  0.3008 -0.5243 -0.2405
  679MOL0     C89532  -0.366   8.768   2.301 -0.5274  0.6546  0.3729
  679MOL0     C89533  -0.426   8.814   2.170  0.3460 -0.4951 -0.2368
  679MOL0     C89534  -0.434   8.961   2.159  0.7146 -0.0954  0.3528
  679MOL0     C89535  -0.559   9.013   2.234  0.3701 -0.5772  0.0102
  679MOL0     C89536  -0.553   9.165   2.213 -0.6890 -0.6791 -0.5443
  679MOL0     C89537  -0.672   9.233   2.276 -0.6149 -0.0197 -0.2292
  679MOL0     C89538  -0.649   9.381   2.265  0.1239  0.1986  0.3377
  679MOL0     C89539  -0.717   9.470   2.372 -0.0507 -0.0995 -0.4031
  679MOL0    Cl89540  -0.893   9.468   2.324  0.1481 -0.0262 -0.0163
  679MOL0     C89541  -0.146   8.528   2.400 -0.9757  0.2238 -0.1098
  679MOL0     C89542  -0.013   8.497   2.409  0.5897  0.3234 -0.7027
  679MOL0     O89543   0.174   8.345   2.212 -0.1283 -0.3404  0.7437
  679MOL0     C89544   0.436   8.267   2.215 -0.9744 -0.1353  0.1155
  679MOL0     C89545   0.568   8.224   2.239 -0.2113 -0.7815 -0.1038
  679MOL0     N89546   1.112   8.217   2.709 -0.1921  0.2738  0.7355
  679MOL0     N89547   1.231   8.253   2.744 -0.9802  0.0008 -0.2386
  679MOL0     C89548   1.913   7.864   3.760  0.8693 -0.1900 -1.2831
  679MOL0     C89549   1.896   7.807   3.890  0.7564 -0.0753 -0.7973
  679MOL0     C89550   1.816   7.760   4.324  0.3730  0.5228 -0.4640
  679MOL0     C89551   1.891   7.817   4.431 -0.9229 -0.1183 -0.2747
  679MOL0     C89552   1.854   7.783   4.568  0.1733 -0.4776 -0.2098
  679MOL0     C89553   1.745   7.695   4.589  0.0174 -0.0883 -0.0781
  679MOL0     O89554   1.729   7.665   4.719  0.5403  0.0143  0.1425
  679MOL0     C89555   1.623   7.579   4.775 -0.7736  0.1699  0.0507
  679MOL0     C89556   1.510   7.660   4.846 -0.6219  0.3690  1.0204
  679MOL0     C89557   1.422   7.557   4.915  0.0192  0.2658 -0.9271
  679MOL0     C89558   1.324   7.631   5.011 -0.4486  0.6965  0.0977
  679MOL0     C89559   1.229   7.723   4.936  0.4749 -0.2600 -0.1032
  679MOL0     C89560   1.157   7.805   4.886  0.3783  0.5426  0.8165
  679MOL0     C89561   1.669   7.647   4.486 -0.0313 -0.7586 -0.0244
  679MOL0     C89562   1.701   7.689   4.354  0.1673  0.2280 -0.6872
  679MOL0     H89563   1.579   7.880   3.943 -0.6078  1.9874 -1.0513
  679MOL0     H89564   1.606   7.989   3.722 -0.9237  0.1016  0.5021
  679MOL0     H89565   1.901   7.851   3.475  2.3034 -0.0039  0.5728
  679MOL0     H89566   1.992   7.996   3.497 -0.7286  1.4582  0.0403
  679MOL0     H89567   1.891   8.000   3.251 -2.0513  0.9914 -1.8789
  679MOL0     H89568   1.839   8.123   3.347 -0.6645  0.5602 -2.2271
  679MOL0     H89569   1.622   8.001   3.411 -0.5382 -0.0046 -1.0532
  679MOL0     H89570   1.672   7.865   3.312  2.3920 -1.1783 -2.5680
  679MOL0     H89571   1.651   8.162   3.206  0.0082  0.9750 -1.3383
  679MOL0     H89572   1.683   8.014   3.116  1.2935  0.9341  0.8854
  679MOL0     H89573   1.417   8.081   3.261  1.8072  2.0694 -1.0787
  679MOL0     H89574   1.451   7.911   3.217  0.9663 -1.9509 -0.7991
  679MOL0     H89575   1.313   8.003   3.037 -0.4551 -1.0765  1.0627
  679MOL0     H89576   1.477   7.937   2.998  0.6990  1.4646 -2.3332
  679MOL0     H89577   1.406   8.227   3.001  2.5813  0.4713 -0.4783
  679MOL0     H89578   1.566   8.186   2.969  0.6176  1.2454  1.5886
  679MOL0     H89579   1.485   8.047   2.776  0.2414 -0.1954  1.6817
  679MOL0     H89580   1.463   8.226   2.758 -3.9192  2.8082  2.4163
  679MOL0     H89581   1.232   7.923   2.764  0.4589 -1.1561 -2.2599
  679MOL0     H89582   0.874   8.092   2.742 -1.0609 -0.2806 -0.7156
  679MOL0     H89583   0.934   7.940   2.788 -2.5491  0.8348 -0.3182
  679MOL0     H89584   0.858   7.901   2.572  0.6841 -1.5417  0.2634
  679MOL0     H89585   1.028   7.914   2.560  0.7536  0.8660  3.0239
  679MOL0     H89586   1.007   8.164   2.484  1.4028 -1.4976  0.0684
  679MOL0     H89587   0.937   8.051   2.365  1.0789 -0.9335  0.3594
  679MOL0     H89588   0.782   8.234   2.560 -1.8174 -0.7749  0.4877
  679MOL0     H89589   0.698   8.108   2.473 -1.3715  0.8580  2.7050
  679MOL0     H89590   0.700   8.467   2.428  0.4462  2.4711 -2.4949
  679MOL0     H89591   0.444   8.537   2.419 -2.4885 -0.0046 -0.7086
  679MOL0     H89592   0.096   8.693   2.146 -2.7715 -0.0144 -3.3178
  679MOL0     H89593  -0.155   8.725   2.116 -0.9447 -1.4235 -0.2473
  679MOL0     H89594  -0.275   8.827   2.314  0.9193 -1.1891 -0.8583
  679MOL0     H89595  -0.428   8.775   2.391  2.0014 -1.4487  2.4679
  679MOL0     H89596  -0.525   8.769   2.163 -1.2023  2.4502  1.0756
  679MOL0     H89597  -0.355   8.766   2.101  1.6613 -0.4716  1.0477
  679MOL0     H89598  -0.435   8.981   2.051 -0.0334  1.2337  0.5963
  679MOL0     H89599  -0.341   9.002   2.200  1.1238 -0.8329  0.1898
  679MOL0     H89600  -0.655   8.979   2.193  1.7374 -4.1136 -0.6804
  679MOL0     H89601  -0.561   8.986   2.340 -2.6642  0.1408  0.2406
  679MOL0     H89602  -0.535   9.201   2.111 -2.7491  2.8141  0.1803
  679MOL0     H89603  -0.464   9.192   2.270  0.8041 -0.7642 -2.6850
  679MOL0     H89604  -0.670   9.199   2.380 -0.1551  3.1765  0.9216
  679MOL0     H89605  -0.774   9.203   2.249 -0.8353 -1.0741  1.6063
  679MOL0     H89606  -0.544   9.412   2.271 -0.5959  2.6592  1.6111
  679MOL0     H89607  -0.680   9.408   2.164  2.1659 -1.7327 -0.8859
  679MOL0     H89608  -0.679   9.572   2.369 -1.1211  0.3368  0.2764
  679MOL0     H89609  -0.711   9.443   2.478 -2.1990  3.2192  0.7257
  679MOL0     H89610  -0.228   8.506   2.468 -3.3856  1.5593 -2.3966
  679MOL0     H89611   0.019   8.436   2.492 -2.6374 -0.5073  0.1032
  679MOL0     H89612   0.370   8.215   2.146 -0.9569  0.9535 -0.7577
  679MOL0     H89613   0.590   8.124   2.205 -0.7526 -0.1659 -2.4949
  679MOL0     H89614   2.011   7.859   3.714  0.3015 -1.3247 -2.4280
  679MOL0     H89615   1.985   7.759   3.931  0.5372 -0.8269 -1.1759
  679MOL0     H89616   1.982   7.877   4.430  0.9925 -2.7614  1.2049
  679MOL0     H89617   1.902   7.826   4.656 -1.8890  2.0402 -0.1981
  679MOL0     H89618   1.670   7.496   4.829  0.6076  0.2198 -0.9994
  679MOL0     H89619   1.579   7.510   4.703  2.6163 -1.8819 -0.2878
  679MOL0     H89620   1.551   7.738   4.911  2.5183  3.3201 -3.8499
  679MOL0     H89621   1.439   7.721   4.790 -0.2892 -0.2649 -0.1341
  679MOL0     H89622   1.485   7.486   4.969 -0.7195 -0.5292 -1.0905
  679MOL0     H89623   1.371   7.503   4.835  0.3605 -1.6505  0.0894
  679MOL0     H89624   1.255   7.571   5.070  0.9022  0.0378  1.0794
  679MOL0     H89625   1.397   7.687   5.071  1.9314  1.6762 -3.3588
  679MOL0     H89626   1.096   7.878   4.838  0.4906 -0.4020 -0.8405
  679MOL0     H89627   1.581   7.586   4.503 -1.9970  0.7880 -3.5495
  679MOL0     H89628   1.638   7.654   4.273 -0.7686  0.9709 -0.2892
  680MOL0     O89629   1.910   6.620   9.120  0.3173  0.1733 -0.0407
  680MOL0     C89630   2.022   6.568   9.092  0.1153 -0.2823 -0.2579
  680MOL0     O89631   2.082   6.585   8.965  0.0342  0.1660  0.0511
  680MOL0     C89632   1.997   6.656   8.879  0.1453  0.6240  0.5456
  680MOL0     C89633   1.891   6.598   8.796 -0.8620 -0.7494  0.7306
  680MOL0     C89634   1.825   6.686   8.700 -0.4553 -0.1671  0.2985
  680MOL0     C89635   1.858   6.820   8.675  0.0995 -0.5227 -0.6648
  680MOL0     O89636   1.774   6.883   8.586  0.2246 -0.6880 -0.0248
  680MOL0     C89637   1.780   7.029   8.580  0.0202 -0.9261 -0.8255
  680MOL0     C89638   1.707   7.101   8.695  1.4476 -0.1831 -0.9190
  680MOL0     C89639   1.553   7.084   8.694 -1.4648 -0.5857  0.8764
  680MOL0     C89640   1.483   7.153   8.807 -0.1537  0.1172  0.8348
  680MOL0     C89641   1.331   7.189   8.781 -0.5339 -0.0225 -0.8035
  680MOL0     C89642   1.298   7.306   8.693  0.5134 -0.3893 -0.1754
  680MOL0     C89643   1.344   7.441   8.759  0.1883  0.5502 -0.5705
  680MOL0     C89644   1.379   7.544   8.649  0.6859 -0.3729 -0.2840
  680MOL0     N89645   1.259   7.575   8.562  0.2339 -1.0326  0.4092
  680MOL0     C89646   1.125   7.543   8.575 -0.5437  0.3660 -0.0416
  680MOL0     C89647   1.064   7.610   8.473  0.8928  0.1809 -0.2216
  680MOL0     C89648   0.918   7.628   8.451  0.2877  1.3583  0.1613
  680MOL0     C89649   0.884   7.749   8.379 -0.1624 -0.4931  0.2093
  680MOL0     C89650   0.900   7.886   8.462 -0.9338 -0.1182  1.2711
  680MOL0     C89651   0.785   7.898   8.565  0.1403  0.5553 -0.5028
  680MOL0     O89652   0.673   7.905   8.479  0.0632 -0.1128 -0.1830
  680MOL0     C89653   0.544   7.898   8.522 -0.1381  0.6445 -0.0104
  680MOL0     C89654   0.442   7.972   8.458  0.6203 -0.4679  0.5668
  680MOL0     C89655   0.317   7.991   8.521  0.1949 -1.2088  0.9008
  680MOL0     C89656   0.280   7.923   8.645 -0.3069 -0.7967 -0.3172
  680MOL0     C89657   0.146   7.924   8.688 -0.1214 -0.2351  0.9626
  680MOL0     O89658   0.050   7.994   8.599  0.2496 -0.5774  0.7828
  680MOL0     C89659  -0.088   7.971   8.599  0.1632  0.4824 -0.7581
  680MOL0     C89660  -0.150   7.855   8.655  0.1499  0.2896  0.4995
  680MOL0     C89661  -0.289   7.845   8.664  0.4819 -0.3204 -0.2814
  680MOL0     C89662  -0.367   7.952   8.619  1.1551 -0.3839 -0.2200
  680MOL0     O89663  -0.503   7.956   8.622 -0.1181  0.5314 -0.4029
  680MOL0     C89664  -0.565   7.920   8.754  0.1847 -0.0722 -0.5141
  680MOL0     C89665  -0.697   7.987   8.759 -0.0945 -0.3174 -0.2492
  680MOL0     C89666  -0.694   8.136   8.727  1.0880  0.5309  0.7334
  680MOL0     C89667  -0.823   8.206   8.755 -0.7629  0.1779  0.2660
  680MOL0     C89668  -0.841   8.354   8.729 -0.4808 -0.6455  0.1470
  680MOL0     C89669  -0.824   8.384   8.584  0.3101 -0.5979  1.1254
  680MOL0     C89670  -0.865   8.521   8.550  0.6273 -0.0708  0.0839
  680MOL0     C89671  -0.817   8.637   8.637 -0.0067 -0.0493  0.6941
  680MOL0    Cl89672  -0.891   8.774   8.576 -0.1171  0.0235 -0.4824
  680MOL0     C89673  -0.306   8.058   8.563  0.6627 -0.2329 -0.4002
  680MOL0     C89674  -0.169   8.059   8.549  0.6858 -0.5881 -0.2139
  680MOL0     O89675   0.122   7.865   8.791  0.5106  0.0109 -0.3428
  680MOL0     C89676   0.388   7.848   8.701 -0.3635  0.6092 -0.6142
  680MOL0     C89677   0.512   7.833   8.639 -0.0669 -0.1054 -0.9449
  680MOL0     N89678   1.152   7.676   8.404 -0.4467 -0.6212  0.7793
  680MOL0     N89679   1.267   7.653   8.452  0.1007 -0.3872 -0.8950
  680MOL0     C89680   1.975   6.865   8.738  1.2584  0.3283 -0.0385
  680MOL0     C89681   2.036   6.786   8.842 -0.2795 -0.0329 -0.2380
  680MOL0     C89682   2.094   6.487   9.185 -0.0095 -0.3283  0.1888
  680MOL0     C89683   2.203   6.410   9.150 -0.2004 -1.0981  0.7555
  680MOL0     C89684   2.292   6.365   9.249  1.1514  0.9271 -0.8082
  680MOL0     C89685   2.265   6.393   9.390 -0.7101 -0.0105  1.3712
  680MOL0     O89686   2.351   6.366   9.497  0.0385  0.5886  0.4594
  680MOL0     C89687   2.350   6.225   9.522 -0.2545 -0.1541 -0.1236
  680MOL0     C89688   2.375   6.195   9.667 -0.2607 -0.2981  0.9058
  680MOL0     C89689   2.510   6.238   9.719 -1.4257 -0.0510  0.4264
  680MOL0     C89690   2.509   6.211   9.870 -0.8948 -0.3132 -0.3220
  680MOL0     C89691   2.499   6.063   9.898  0.0983  0.3106  0.3045
  680MOL0     C89692   2.502   5.946   9.925  0.7224 -0.2756  0.2625
  680MOL0     C89693   2.150   6.457   9.419 -0.1668  0.0637 -0.1396
  680MOL0     C89694   2.065   6.500   9.319 -0.0989  0.4437 -1.3733
  680MOL0     H89695   1.862   6.494   8.788 -1.0408 -0.5366 -2.9580
  680MOL0     H89696   1.750   6.643   8.635  0.0937  2.4539 -2.2949
  680MOL0     H89697   1.752   7.055   8.478 -1.6202 -2.4596 -0.8238
  680MOL0     H89698   1.887   7.049   8.579  0.3614 -2.5064  0.4620
  680MOL0     H89699   1.721   7.208   8.675  3.0435  0.1278  1.3886
  680MOL0     H89700   1.746   7.065   8.791  0.4053 -0.9092 -0.7510
  680MOL0     H89701   1.525   6.978   8.693  0.6547 -1.2212 -1.2169
  680MOL0     H89702   1.521   7.123   8.597 -1.2843 -1.9849  0.2265
  680MOL0     H89703   1.492   7.075   8.882  0.0786 -2.3019 -1.5586
  680MOL0     H89704   1.535   7.246   8.833 -0.1051  0.6532 -1.0357
  680MOL0     H89705   1.287   7.207   8.879  0.6781 -4.0423  0.7036
  680MOL0     H89706   1.288   7.098   8.738 -0.5783 -0.6562  0.5296
  680MOL0     H89707   1.190   7.308   8.683  0.6115  1.0552 -1.3061
  680MOL0     H89708   1.348   7.293   8.597 -0.1293  0.5558 -0.6513
  680MOL0     H89709   1.273   7.487   8.828 -0.0339 -1.4463  0.5985
  680MOL0     H89710   1.433   7.430   8.822 -2.5118 -3.0966  3.1204
  680MOL0     H89711   1.461   7.505   8.588 -0.0704 -0.8463 -1.0209
  680MOL0     H89712   1.421   7.637   8.688 -0.5950 -0.1341  0.5955
  680MOL0     H89713   1.074   7.488   8.654 -1.1282 -0.8397 -1.2106
  680MOL0     H89714   0.870   7.618   8.548  1.0722  0.8056  0.5002
  680MOL0     H89715   0.876   7.545   8.393  1.0785  0.3726  0.9619
  680MOL0     H89716   0.778   7.730   8.359  0.0005 -0.7769 -0.3885
  680MOL0     H89717   0.947   7.759   8.290 -1.2510 -2.7451 -0.8937
  680MOL0     H89718   1.002   7.889   8.504  0.6362  2.3939 -2.2107
  680MOL0     H89719   0.908   7.972   8.396 -1.1163 -1.4846 -0.6191
  680MOL0     H89720   0.791   7.986   8.629  0.7891 -0.3168  0.6673
  680MOL0     H89721   0.770   7.809   8.627 -4.2333  0.0057 -2.0194
  680MOL0     H89722   0.468   8.024   8.367  3.2642  0.4350  1.7450
  680MOL0     H89723   0.246   8.064   8.483  1.9476 -0.3740 -0.9608
  680MOL0     H89724  -0.096   7.768   8.692 -2.3339  0.1530  4.3652
  680MOL0     H89725  -0.324   7.750   8.702 -1.6108 -0.2379 -1.7826
  680MOL0     H89726  -0.505   7.955   8.839 -0.3236  1.5170 -0.7759
  680MOL0     H89727  -0.564   7.812   8.769  3.6821  0.0915  1.6051
  680MOL0     H89728  -0.743   7.969   8.856  0.5659  2.5297  0.6972
  680MOL0     H89729  -0.759   7.931   8.689  1.1295 -1.8893 -0.1245
  680MOL0     H89730  -0.668   8.149   8.622  0.9947 -0.9762  0.5043
  680MOL0     H89731  -0.616   8.188   8.782  1.7601  0.4322 -0.1178
  680MOL0     H89732  -0.890   8.142   8.698  0.1951 -0.5991 -0.0189
  680MOL0     H89733  -0.843   8.196   8.862  2.2619  0.3735  0.9566
  680MOL0     H89734  -0.760   8.404   8.783  0.9249 -0.5897 -1.9406
  680MOL0     H89735  -0.943   8.378   8.762 -0.5405 -0.5438 -0.1117
  680MOL0     H89736  -0.874   8.309   8.521 -0.8336 -0.6427  2.0443
  680MOL0     H89737  -0.718   8.377   8.561  0.1373  0.0756  0.0645
  680MOL0     H89738  -0.831   8.543   8.449  4.4157 -0.0026  1.2147
  680MOL0     H89739  -0.974   8.527   8.562  0.8217  1.8859  1.4891
  680MOL0     H89740  -0.707   8.641   8.635  0.2206 -3.4142  1.5957
  680MOL0     H89741  -0.843   8.629   8.743 -0.2266  2.8191  0.9395
  680MOL0     H89742  -0.369   8.126   8.507  1.7682 -1.7444 -3.7053
  680MOL0     H89743  -0.116   8.147   8.513 -0.5394  1.0015  1.6614
  680MOL0     H89744   0.367   7.810   8.800 -0.3947  0.7950 -0.5502
  680MOL0     H89745   0.578   7.778   8.705 -1.1221  4.9068  5.2278
  680MOL0     H89746   2.029   6.956   8.713  1.8358 -0.8453 -3.6109
  680MOL0     H89747   2.124   6.828   8.889  3.0929 -3.2277 -3.0179
  680MOL0     H89748   2.238   6.396   9.049 -0.1452 -0.3130  0.6564
  680MOL0     H89749   2.390   6.324   9.224  1.8706  1.8306  0.4030
  680MOL0     H89750   2.430   6.184   9.459 -1.2731  0.6447 -2.0426
  680MOL0     H89751   2.258   6.176   9.490  2.0564 -3.1336 -2.8100
  680MOL0     H89752   2.300   6.245   9.729 -1.9346 -0.8666 -0.6095
  680MOL0     H89753   2.356   6.087   9.672  1.3489 -0.9209 -2.9580
  680MOL0     H89754   2.534   6.344   9.719 -0.2188 -0.3088  0.6364
  680MOL0     H89755   2.591   6.182   9.671 -1.9908 -1.1094  0.6594
  680MOL0     H89756   2.589   6.248   9.935 -1.7427  1.9581 -0.4975
  680MOL0     H89757   2.420   6.258   9.911 -1.0623 -0.4740 -0.4959
  680MOL0     H89758   2.520   5.845   9.956  1.2478 -1.2050 -2.7683
  680MOL0     H89759   2.132   6.486   9.522  0.3940  1.2631 -0.3610
  680MOL0     H89760   1.980   6.554   9.359  1.5317  1.3748  1.1250
  681MOL0     O89761   3.938   3.716   3.434 -0.5493  0.5390 -0.3662
  681MOL0     C89762   4.037   3.780   3.457 -0.2212  0.2094 -1.2193
  681MOL0     O89763   4.077   3.815   3.581 -0.5048  0.3129 -0.9021
  681MOL0     C89764   3.984   3.811   3.686 -0.2412 -0.5659  0.4962
  681MOL0     C89765   3.990   3.708   3.772  0.0015 -0.0894  0.6564
  681MOL0     C89766   3.917   3.702   3.887  0.1592 -0.4555 -0.4848
  681MOL0     C89767   3.836   3.809   3.921 -0.0486  0.8481 -0.9280
  681MOL0     O89768   3.764   3.791   4.035  0.3049 -0.2604  0.5223
  681MOL0     C89769   3.836   3.826   4.159  0.1768 -0.2001  0.3485
  681MOL0     C89770   3.722   3.878   4.262  0.4373  0.2595  0.2057
  681MOL0     C89771   3.618   3.772   4.306  0.5648  0.0619  0.1647
  681MOL0     C89772   3.507   3.837   4.385 -0.2387 -0.0410  0.4094
  681MOL0     C89773   3.398   3.895   4.298  0.6885 -0.1482  0.3835
  681MOL0     C89774   3.305   3.774   4.240  0.0485 -0.2763 -0.3601
  681MOL0     C89775   3.188   3.838   4.158 -0.5665  0.7346 -0.3544
  681MOL0     C89776   3.082   3.739   4.107  0.6901  0.8239 -0.7143
  681MOL0     N89777   3.146   3.649   4.004 -0.1912 -1.3244  0.1794
  681MOL0     C89778   3.170   3.517   4.027 -1.0670 -0.3506  0.1130
  681MOL0     C89779   3.178   3.457   3.903 -0.2742 -0.2212 -0.5685
  681MOL0     C89780   3.196   3.313   3.860 -0.0357  0.0826  0.3842
  681MOL0     C89781   3.066   3.239   3.854  0.9803  0.3679  0.2500
  681MOL0     C89782   3.071   3.087   3.829  0.2372 -0.0487  0.6400
  681MOL0     C89783   2.937   3.024   3.762 -0.3458  0.4866 -0.4339
  681MOL0     O89784   2.850   3.028   3.873 -0.1728  0.0418 -0.2064
  681MOL0     C89785   2.719   2.979   3.865  0.5085  0.3536  0.9452
  681MOL0     C89786   2.670   2.909   3.757  0.3403  1.2286 -0.1272
  681MOL0     C89787   2.533   2.867   3.756  0.1244 -0.4278  1.0643
  681MOL0     C89788   2.444   2.909   3.855 -0.0464  0.8227 -0.5499
  681MOL0     C89789   2.302   2.865   3.849  0.1585 -0.3472  0.2715
  681MOL0     O89790   2.228   2.846   3.966  0.5561  0.2419 -0.2465
  681MOL0     C89791   2.119   2.762   3.951  0.6545 -0.1142  0.4553
  681MOL0     C89792   2.003   2.816   3.900 -0.4777 -0.5978 -0.0687
  681MOL0     C89793   1.884   2.745   3.882 -0.6141 -0.1866 -0.4706
  681MOL0     C89794   1.886   2.612   3.921  0.3850  0.7421 -0.3701
  681MOL0     O89795   1.767   2.554   3.899 -0.0963 -0.5320 -0.3949
  681MOL0     C89796   1.765   2.414   3.908  0.2486 -0.2979  0.2251
  681MOL0     C89797   1.619   2.358   3.909 -0.7737 -0.7433  0.8096
  681MOL0     C89798   1.545   2.377   3.771 -0.3497 -0.5269 -0.4192
  681MOL0     C89799   1.394   2.347   3.790  0.5772  0.0290  0.2569
  681MOL0     C89800   1.320   2.441   3.874  0.9765  0.6860 -0.2425
  681MOL0     C89801   1.169   2.455   3.826  0.1636  0.3621  0.3213
  681MOL0     C89802   1.074   2.327   3.839 -0.7886  0.0445  0.4097
  681MOL0     C89803   0.994   2.313   3.701  1.6506 -0.4037  0.1069
  681MOL0    Cl89804   0.860   2.443   3.680  0.0477  0.0124 -0.2568
  681MOL0     C89805   2.003   2.560   3.982 -0.3435 -0.0436  0.0945
  681MOL0     C89806   2.118   2.637   4.004 -0.6048  0.4216 -0.1370
  681MOL0     O89807   2.251   2.847   3.737 -1.2411 -0.4252  0.1550
  681MOL0     C89808   2.491   3.003   3.950 -0.4042 -0.0596 -0.6412
  681MOL0     C89809   2.628   3.039   3.953  0.9558  0.1399 -0.0695
  681MOL0     N89810   3.136   3.552   3.813 -1.5022  0.5398 -0.0997
  681MOL0     N89811   3.135   3.666   3.871  0.5681 -1.1654 -0.3091
  681MOL0     C89812   3.844   3.919   3.851 -0.1864 -0.6780 -0.3315
  681MOL0     C89813   3.916   3.928   3.733  0.0164  0.5317 -0.2717
  681MOL0     C89814   4.122   3.820   3.340  0.0598 -0.2329 -0.2918
  681MOL0     C89815   4.236   3.895   3.370 -0.8517 -0.4761 -0.4445
  681MOL0     C89816   4.334   3.922   3.262 -0.4139 -0.4816 -0.3229
  681MOL0     C89817   4.304   3.891   3.127  0.2237 -0.8891 -0.4549
  681MOL0     O89818   4.397   3.912   3.028  0.3639  0.3174 -0.3382
  681MOL0     C89819   4.359   3.891   2.887 -1.6403 -0.0705  0.2220
  681MOL0     C89820   4.474   3.926   2.786  0.4450 -0.7406 -0.0627
  681MOL0     C89821   4.559   3.814   2.739  0.0004  0.3421  0.3032
  681MOL0     C89822   4.701   3.863   2.704  0.3824  0.2572  0.0862
  681MOL0     C89823   4.774   3.908   2.823  0.4371 -0.7773 -0.2900
  681MOL0     C89824   4.828   3.956   2.921  0.2385  0.0493 -0.2197
  681MOL0     C89825   4.181   3.832   3.101  0.0108 -0.4341 -0.0646
  681MOL0     C89826   4.100   3.790   3.208  1.0352  0.3704  0.3814
  681MOL0     H89827   4.042   3.614   3.756 -0.5594 -0.1635 -0.8678
  681MOL0     H89828   3.923   3.621   3.959 -2.7366 -2.6057 -2.4261
  681MOL0     H89829   3.912   3.904   4.150 -0.2814  0.2106 -0.0214
  681MOL0     H89830   3.888   3.740   4.202 -3.2635 -2.3305  0.6807
  681MOL0     H89831   3.660   3.955   4.216 -0.9522  0.3703  2.1067
  681MOL0     H89832   3.756   3.924   4.355  1.0545  1.0855 -0.4219
  681MOL0     H89833   3.660   3.705   4.381  3.3377 -2.4062 -3.2209
  681MOL0     H89834   3.574   3.714   4.224  0.0524  1.7319 -0.8026
  681MOL0     H89835   3.459   3.758   4.444  0.8117 -2.3021 -1.5637
  681MOL0     H89836   3.541   3.910   4.459 -2.0909 -0.2429  1.5480
  681MOL0     H89837   3.445   3.944   4.211 -0.2141  1.9927  1.0439
  681MOL0     H89838   3.334   3.966   4.350 -1.0286 -1.5717  0.2828
  681MOL0     H89839   3.260   3.726   4.327  1.1160 -0.5573  0.0617
  681MOL0     H89840   3.356   3.698   4.180 -0.7509 -1.9613  1.0042
  681MOL0     H89841   3.137   3.896   4.235  0.4887  0.5360  0.5095
  681MOL0     H89842   3.227   3.891   4.071 -0.3887 -1.5509 -1.7536
  681MOL0     H89843   2.991   3.785   4.067  0.4576  1.4914  0.5134
  681MOL0     H89844   3.057   3.677   4.194  1.3306  2.6946  0.8732
  681MOL0     H89845   3.183   3.471   4.124  4.4562  2.1216  0.9140
  681MOL0     H89846   3.269   3.259   3.920 -1.8962 -0.9838  1.8148
  681MOL0     H89847   3.252   3.329   3.767 -0.5015  1.9025  0.3726
  681MOL0     H89848   3.002   3.295   3.785  1.0461  2.8006  2.0491
  681MOL0     H89849   3.012   3.255   3.947  1.3530  0.7965  0.3968
  681MOL0     H89850   3.156   3.074   3.761  0.1867  2.8933 -0.1066
  681MOL0     H89851   3.089   3.044   3.928  2.1184  3.8178  2.1614
  681MOL0     H89852   2.959   2.924   3.723  1.2833  0.2853  0.8762
  681MOL0     H89853   2.905   3.089   3.680 -1.2048  2.5057  1.4147
  681MOL0     H89854   2.741   2.885   3.679  2.4101  0.3737  1.8816
  681MOL0     H89855   2.511   2.803   3.671 -1.1032  1.9394 -0.5286
  681MOL0     H89856   2.013   2.922   3.877  0.7653 -0.0973  2.5001
  681MOL0     H89857   1.801   2.804   3.845  0.1693  2.0631  1.1318
  681MOL0     H89858   1.811   2.377   4.000  2.8166 -0.2258 -0.9557
  681MOL0     H89859   1.816   2.377   3.819  0.7976 -0.6988  0.6985
  681MOL0     H89860   1.574   2.416   3.990  1.7280 -0.7304  2.2604
  681MOL0     H89861   1.618   2.253   3.939 -2.8347 -1.7015 -2.0620
  681MOL0     H89862   1.591   2.303   3.706 -0.5773  0.5377 -1.8406
  681MOL0     H89863   1.582   2.476   3.741  1.1738 -1.0859 -0.4335
  681MOL0     H89864   1.354   2.359   3.689 -2.0322 -1.3939  1.0171
  681MOL0     H89865   1.379   2.241   3.816 -3.4380  0.6714  1.1944
  681MOL0     H89866   1.364   2.540   3.883 -1.4788  1.7421  1.0529
  681MOL0     H89867   1.319   2.399   3.976 -1.7600  2.2415  0.4872
  681MOL0     H89868   1.171   2.480   3.719 -1.9650 -0.5755 -0.0021
  681MOL0     H89869   1.122   2.535   3.885  1.3236 -0.9809  3.2321
  681MOL0     H89870   1.132   2.235   3.851 -1.9564 -0.5611  1.6234
  681MOL0     H89871   1.023   2.347   3.933  1.3056  1.8442  1.2394
  681MOL0     H89872   0.944   2.220   3.673  2.2059 -0.3863 -1.0326
  681MOL0     H89873   1.070   2.321   3.622  2.5644  1.0881  1.0799
  681MOL0     H89874   2.009   2.460   4.023  0.9945  0.2691  0.7181
  681MOL0     H89875   2.205   2.606   4.063 -0.6357 -1.6079 -1.0559
  681MOL0     H89876   2.419   3.044   4.019  3.1157  2.2781  2.0385
  681MOL0     H89877   2.660   3.102   4.036  0.9996  1.3736 -1.0008
  681MOL0     H89878   3.783   4.002   3.883  1.8383  0.6358  0.3219
  681MOL0     H89879   3.933   4.025   3.687 -1.3682 -0.3405 -2.8425
  681MOL0     H89880   4.263   3.926   3.471 -0.9002  0.3736 -0.6826
  681MOL0     H89881   4.428   3.970   3.287 -0.9030  0.1678  0.3285
  681MOL0     H89882   4.279   3.964   2.872 -0.6016  1.7391  2.7518
  681MOL0     H89883   4.324   3.791   2.859 -1.0081 -0.4401  0.7300
  681MOL0     H89884   4.428   3.968   2.696 -0.1167  0.4750  0.7664
  681MOL0     H89885   4.530   4.009   2.830  0.6966 -0.2422 -1.2868
  681MOL0     H89886   4.508   3.768   2.654 -2.3499 -0.0587  1.8292
  681MOL0     H89887   4.568   3.737   2.816 -1.7664 -0.7964 -0.5783
  681MOL0     H89888   4.761   3.783   2.662  0.5169  0.4151 -0.0243
  681MOL0     H89889   4.698   3.947   2.633  0.8965  0.0465 -0.1833
  681MOL0     H89890   4.880   3.971   3.014  0.2967  1.3316 -0.4413
  681MOL0     H89891   4.142   3.795   3.007  5.2253 -0.7784 -2.4262
  681MOL0     H89892   4.020   3.720   3.187  1.7359 -0.5487  0.7467
  682MOL0     O89893   9.834   3.824   8.436 -0.7116  0.5389  0.0847
  682MOL0     C89894   9.747   3.860   8.353  0.7869  0.3969 -1.2203
  682MOL0     O89895   9.757   3.841   8.209 -0.1810  0.0484  0.1091
  682MOL0     C89896   9.864   3.791   8.143 -0.3572 -0.1883 -0.0801
  682MOL0     C89897   9.972   3.734   8.206 -0.0676  0.5425  0.0096
  682MOL0     C89898  10.081   3.704   8.129  0.5849  0.1239 -0.4567
  682MOL0     C89899  10.088   3.717   7.988  0.2039  0.0950  0.5043
  682MOL0     O89900  10.208   3.676   7.927 -0.4348 -0.1198  0.3205
  682MOL0     C89901  10.232   3.706   7.791 -0.3967  0.0224  0.8304
  682MOL0     C89902  10.388   3.726   7.782  0.3603 -0.2705  0.2026
  682MOL0     C89903  10.461   3.594   7.743  1.6384 -0.3100 -0.0863
  682MOL0     C89904  10.606   3.614   7.702  0.1982 -0.5698 -0.4573
  682MOL0     C89905  10.614   3.619   7.552  0.7379  0.1748 -1.1467
  682MOL0     C89906  10.756   3.651   7.493  0.3991 -0.0652 -0.6577
  682MOL0     C89907  10.760   3.693   7.344 -0.0390 -0.1198  0.0854
  682MOL0     C89908  10.903   3.707   7.297  0.1062  1.4394  0.1263
  682MOL0     N89909  10.963   3.577   7.255 -0.1564 -0.0821  0.0640
  682MOL0     C89910  11.040   3.500   7.346  0.2547  0.4458  0.8570
  682MOL0     C89911  11.099   3.403   7.266  0.4133 -0.2296 -0.2582
  682MOL0     C89912  11.197   3.294   7.306 -1.0607 -0.9582  0.3476
  682MOL0     C89913  11.299   3.335   7.417 -1.3191 -0.5638 -0.3836
  682MOL0     C89914  11.369   3.474   7.400 -0.0980 -0.9146 -0.3620
  682MOL0     C89915  11.433   3.495   7.265  0.1777 -0.7051 -0.2578
  682MOL0     O89916  11.501   3.618   7.258  0.4191  0.4145  0.3249
  682MOL0     C89917  11.443   3.725   7.215  0.1574  0.5014 -1.1089
  682MOL0     C89918  11.303   3.729   7.203  0.1356  0.4949  0.0645
  682MOL0     C89919  11.240   3.841   7.151  0.1020  0.7306  0.4260
  682MOL0     C89920  11.315   3.952   7.111 -0.4363 -0.3800  0.0110
  682MOL0     C89921  11.245   4.071   7.035  1.0968  1.2559 -1.1548
  682MOL0     O89922  11.111   4.045   6.986  0.1771 -0.3205 -0.5841
  682MOL0     C89923  11.037   4.137   6.905  0.8419 -0.5603 -0.3496
  682MOL0     C89924  10.901   4.114   6.895  1.1832  0.1220 -0.4767
  682MOL0     C89925  10.825   4.195   6.808  0.1888  0.4524 -0.6518
  682MOL0     C89926  10.877   4.295   6.728  0.5979 -0.7467 -0.0556
  682MOL0     O89927  10.810   4.373   6.639  1.0206  1.2570 -0.1146
  682MOL0     C89928  10.671   4.334   6.607  0.7698 -0.9847  0.0167
  682MOL0     C89929  10.602   4.433   6.519  0.0856  0.1745  0.6346
  682MOL0     C89930  10.675   4.431   6.380 -0.0670  0.5188 -0.0822
  682MOL0     C89931  10.597   4.499   6.271  0.4376  0.5043  0.8927
  682MOL0     C89932  10.682   4.550   6.149 -0.0893 -0.9868 -0.0291
  682MOL0     C89933  10.593   4.537   6.020 -0.7694  0.8911 -0.0770
  682MOL0     C89934  10.674   4.578   5.901 -0.3265 -0.1616  0.0968
  682MOL0     C89935  10.579   4.607   5.773 -0.2602 -0.1568 -0.7596
  682MOL0    Cl89936  10.503   4.762   5.813 -0.3426 -0.3044  0.2432
  682MOL0     C89937  11.014   4.318   6.737  0.0024  0.8164 -0.3538
  682MOL0     C89938  11.090   4.231   6.819 -0.8378 -0.1011  0.3776
  682MOL0     O89939  11.304   4.174   7.020 -0.4324  0.2299 -0.5433
  682MOL0     C89940  11.457   3.947   7.116  0.0762 -0.1062  0.3516
  682MOL0     C89941  11.516   3.837   7.167 -0.5043  1.3932  0.1642
  682MOL0     N89942  11.056   3.420   7.137  0.3034  0.0111 -0.2508
  682MOL0     N89943  10.982   3.528   7.127  0.6019 -0.6217 -0.5295
  682MOL0     C89944   9.965   3.756   7.924 -0.2682  0.8410 -0.1863
  682MOL0     C89945   9.861   3.795   8.002 -0.0943  0.8511 -0.4492
  682MOL0     C89946   9.628   3.925   8.412  0.4577 -0.1999  0.4662
  682MOL0     C89947   9.517   3.938   8.329 -0.6584 -0.3402 -0.2613
  682MOL0     C89948   9.402   4.005   8.376  0.2334  0.2704 -0.4183
  682MOL0     C89949   9.386   4.034   8.511 -0.1509 -0.9104 -0.4900
  682MOL0     O89950   9.280   4.099   8.564  0.0423 -0.2048  0.0096
  682MOL0     C89951   9.190   4.177   8.487  0.1036 -0.1539 -0.0362
  682MOL0     C89952   9.129   4.302   8.562  0.0342 -1.2552  0.2271
  682MOL0     C89953   9.018   4.268   8.660 -0.2050 -0.0980 -1.2625
  682MOL0     C89954   8.989   4.395   8.743  0.9388 -0.4867 -0.8721
  682MOL0     C89955   8.929   4.499   8.661  0.5507 -0.7220 -0.4876
  682MOL0     C89956   8.898   4.599   8.591  0.8118 -0.2201 -0.3293
  682MOL0     C89957   9.487   4.002   8.601  0.0406 -0.0751  0.5442
  682MOL0     C89958   9.612   3.960   8.552 -1.0358 -0.2874  1.6707
  682MOL0     H89959   9.993   3.715   8.310 -0.8182  0.0327  0.0834
  682MOL0     H89960  10.168   3.664   8.181  1.0177 -1.4053 -2.2637
  682MOL0     H89961  10.181   3.802   7.776  0.8125  0.3683 -1.5867
  682MOL0     H89962  10.190   3.636   7.718  0.6671 -0.2779  0.4863
  682MOL0     H89963  10.440   3.750   7.875  0.3219 -3.1349  1.0836
  682MOL0     H89964  10.409   3.801   7.706 -0.3971  0.9262  1.1347
  682MOL0     H89965  10.408   3.534   7.669 -0.2506 -1.8990  2.3774
  682MOL0     H89966  10.463   3.532   7.833  2.0504  1.4073  1.1448
  682MOL0     H89967  10.658   3.697   7.752  2.2377 -2.0318 -0.0316
  682MOL0     H89968  10.656   3.521   7.728 -0.4461 -0.7083  0.3365
  682MOL0     H89969  10.544   3.693   7.512 -1.4759 -1.9675 -1.4641
  682MOL0     H89970  10.580   3.517   7.533  0.9975 -1.4662  5.0149
  682MOL0     H89971  10.817   3.562   7.512 -2.8583 -2.4004 -0.3375
  682MOL0     H89972  10.801   3.728   7.556  1.1894 -2.1495  1.4758
  682MOL0     H89973  10.715   3.616   7.281  1.1635  0.9996 -2.2478
  682MOL0     H89974  10.721   3.793   7.323 -0.7380 -0.2464  0.7607
  682MOL0     H89975  10.963   3.743   7.382 -2.2524  1.7627  1.7481
  682MOL0     H89976  10.913   3.778   7.214  0.6767 -1.3167 -2.3111
  682MOL0     H89977  11.057   3.514   7.452 -2.4672  4.1326  0.9949
  682MOL0     H89978  11.251   3.258   7.218  0.8971 -0.3223  1.2164
  682MOL0     H89979  11.144   3.205   7.341  1.1998 -1.9980  1.3457
  682MOL0     H89980  11.373   3.256   7.433 -1.3094 -0.3180  0.8419
  682MOL0     H89981  11.252   3.344   7.515  4.1539  1.9509  2.4005
  682MOL0     H89982  11.286   3.543   7.414 -1.0167 -2.2517  1.1927
  682MOL0     H89983  11.442   3.494   7.479  0.5124 -1.7973 -0.6768
  682MOL0     H89984  11.356   3.482   7.188  1.0004  3.5176 -2.0834
  682MOL0     H89985  11.509   3.419   7.245  1.6752  1.0331 -1.5484
  682MOL0     H89986  11.244   3.641   7.225  1.8215 -0.9177 -0.7889
  682MOL0     H89987  11.132   3.850   7.155 -0.1415 -1.5888  0.1732
  682MOL0     H89988  10.852   4.048   6.966  0.2365 -0.1887 -1.3867
  682MOL0     H89989  10.720   4.168   6.819  0.3820  0.7985  3.2246
  682MOL0     H89990  10.613   4.333   6.700 -0.7685  3.5092 -0.6207
  682MOL0     H89991  10.665   4.233   6.566  1.2780 -0.5749 -1.1196
  682MOL0     H89992  10.603   4.537   6.551 -0.6783  0.0132  1.2140
  682MOL0     H89993  10.495   4.419   6.501 -0.2144  2.6873  0.1898
  682MOL0     H89994  10.670   4.326   6.349 -1.0763  0.4564  0.2444
  682MOL0     H89995  10.782   4.450   6.384  0.8529 -3.6284  3.2570
  682MOL0     H89996  10.519   4.430   6.238  0.8731  0.4192  0.0315
  682MOL0     H89997  10.546   4.581   6.322 -0.3485 -1.7867  4.1032
  682MOL0     H89998  10.775   4.493   6.157  1.5030  1.4668  0.0736
  682MOL0     H89999  10.712   4.654   6.164 -0.5796 -0.3470 -2.9425
  682MOL0     H90000  10.511   4.609   6.018  0.6130  2.8732  3.7306
  682MOL0     H90001  10.557   4.436   6.001  0.8733  0.6085 -2.0082
  682MOL0     H90002  10.731   4.672   5.908 -0.3852 -0.2738  3.8533
  682MOL0     H90003  10.746   4.500   5.874 -1.0334  0.0619 -2.7680
  682MOL0     H90004  10.505   4.527   5.774  1.2616 -1.6151  1.1780
  682MOL0     H90005  10.642   4.610   5.684 -0.3810  0.5938 -0.8310
  682MOL0     H90006  11.044   4.388   6.660  0.0724  0.3217 -0.7869
  682MOL0     H90007  11.197   4.245   6.812 -0.9963  0.5606 -1.1830
  682MOL0     H90008  11.509   4.034   7.077 -0.7534 -0.4652 -1.7054
  682MOL0     H90009  11.619   3.830   7.200 -1.0255  0.7214  1.7209
  682MOL0     H90010   9.964   3.767   7.816  0.0980  0.6607 -0.2073
  682MOL0     H90011   9.772   3.849   7.968 -0.1871  1.1476  0.2372
  682MOL0     H90012   9.525   3.905   8.226 -0.4111 -0.6186 -0.1533
  682MOL0     H90013   9.329   4.018   8.297  1.1021 -0.2168 -1.3233
  682MOL0     H90014   9.104   4.126   8.443  0.5157  1.3453 -2.7964
  682MOL0     H90015   9.249   4.209   8.401 -0.1353  2.5620  0.7187
  682MOL0     H90016   9.209   4.364   8.604 -1.3133 -0.8540  2.3733
  682MOL0     H90017   9.085   4.377   8.497  2.2612  1.7669  1.9297
  682MOL0     H90018   9.058   4.180   8.711 -2.2014 -0.5531 -0.3752
  682MOL0     H90019   8.916   4.261   8.620 -0.6473  1.6454 -0.5081
  682MOL0     H90020   8.937   4.369   8.836 -2.2568 -2.1162 -2.9289
  682MOL0     H90021   9.085   4.432   8.779  0.6908  0.9020 -1.5551
  682MOL0     H90022   8.866   4.685   8.537  0.8593  0.4768  0.7095
  682MOL0     H90023   9.462   4.016   8.706 -3.8324 -1.0767 -0.0828
  682MOL0     H90024   9.704   3.933   8.604  1.3483 -0.3820 -2.1278
  683MOL0     O90025   0.624   2.410  10.147  0.4358  0.5400 -0.1002
  683MOL0     C90026   0.604   2.501  10.063 -0.0102 -0.2612 -0.8109
  683MOL0     O90027   0.694   2.591  10.024  1.1453 -0.4297 -0.1118
  683MOL0     C90028   0.819   2.590  10.067 -0.0650  0.0592 -0.6039
  683MOL0     C90029   0.878   2.709  10.129  0.3953 -0.1589  0.0977
  683MOL0     C90030   1.012   2.708  10.159  0.2698 -0.5866 -0.8147
  683MOL0     C90031   1.081   2.584  10.159  0.4218  0.4636  0.7603
  683MOL0     O90032   1.203   2.549  10.210 -0.3877 -0.2160  0.1716
  683MOL0     C90033   1.238   2.622  10.326  0.0297  0.3655  0.4510
  683MOL0     C90034   1.369   2.576  10.401 -0.0203 -0.0562  0.3390
  683MOL0     C90035   1.357   2.619  10.547 -0.0810 -1.4890  0.0068
  683MOL0     C90036   1.480   2.591  10.624 -0.4300 -0.7293 -0.3767
  683MOL0     C90037   1.564   2.719  10.670 -0.3152  0.6249  0.3513
  683MOL0     C90038   1.592   2.811  10.547 -0.1859 -0.5457 -0.4061
  683MOL0     C90039   1.681   2.935  10.563  0.1880 -0.8008 -0.0129
  683MOL0     C90040   1.717   2.992  10.429  0.5248 -0.6323  0.4284
  683MOL0     N90041   1.804   2.906  10.347 -0.2823  1.2763 -0.2854
  683MOL0     C90042   1.940   2.864  10.376  1.0125 -0.2208  0.1350
  683MOL0     C90043   1.977   2.789  10.275 -0.0784 -0.4106  0.3006
  683MOL0     C90044   2.102   2.718  10.243  0.0350 -0.0310  0.3165
  683MOL0     C90045   2.203   2.821  10.174 -1.1064  0.6168  0.0093
  683MOL0     C90046   2.218   2.792  10.013 -0.4976  0.2443  0.4158
  683MOL0     C90047   2.298   2.662   9.985 -0.0532  0.2080 -1.3741
  683MOL0     O90048   2.339   2.630   9.860  0.8174 -0.1583  0.7824
  683MOL0     C90049   2.438   2.710   9.799 -0.2420  0.6371  0.3149
  683MOL0     C90050   2.456   2.696   9.660 -1.2445  0.2553 -0.0996
  683MOL0     C90051   2.554   2.773   9.588 -0.6475  0.1402  0.8780
  683MOL0     C90052   2.629   2.873   9.648  0.0889 -0.0225  1.0163
  683MOL0     C90053   2.719   2.957   9.575 -0.6111 -0.6064  0.5952
  683MOL0     O90054   2.732   2.936   9.445 -0.7716 -0.2381 -0.3937
  683MOL0     C90055   2.816   3.014   9.371 -0.3459 -0.4957  0.4152
  683MOL0     C90056   2.915   2.950   9.293  0.1551  0.7313  0.8610
  683MOL0     C90057   3.013   3.027   9.230  0.2953 -0.8960 -0.5671
  683MOL0     C90058   3.011   3.170   9.224  1.1665 -0.1113  0.9246
  683MOL0     O90059   3.097   3.252   9.147  0.4750  0.5083  1.0585
  683MOL0     C90060   3.241   3.222   9.107  0.8747 -0.3030 -0.0657
  683MOL0     C90061   3.316   3.335   9.032 -0.0352 -0.1920  0.9547
  683MOL0     C90062   3.252   3.355   8.885 -0.5553 -0.2154  0.4950
  683MOL0     C90063   3.309   3.249   8.790  0.0776 -0.2159  0.4654
  683MOL0     C90064   3.276   3.272   8.642 -0.1013  0.2530  0.2057
  683MOL0     C90065   3.121   3.253   8.620  0.3425  0.4954  0.3445
  683MOL0     C90066   3.082   3.110   8.594  0.0815  0.8521  0.0667
  683MOL0     C90067   2.986   3.081   8.476  0.2621 -0.2686  1.2079
  683MOL0    Cl90068   2.937   2.908   8.465 -0.0935 -0.3065 -0.0021
  683MOL0     C90069   2.897   3.224   9.282 -0.3919  0.0649 -0.2188
  683MOL0     C90070   2.798   3.150   9.353  0.8331 -0.0436  0.8576
  683MOL0     O90071   2.772   3.055   9.637 -0.5103  0.3444 -0.0046
  683MOL0     C90072   2.620   2.881   9.788 -0.2245  0.4379 -0.1715
  683MOL0     C90073   2.516   2.803   9.861 -0.4945  0.0998 -0.0089
  683MOL0     N90074   1.874   2.792  10.181  0.6432 -0.2613 -0.2733
  683MOL0     N90075   1.772   2.864  10.226  0.1164 -0.8460  0.7909
  683MOL0     C90076   1.029   2.466  10.101  0.0727 -0.2253 -0.6116
  683MOL0     C90077   0.901   2.476  10.047 -0.1250  0.5678 -0.7242
  683MOL0     C90078   0.463   2.514  10.006 -0.1139  0.2112 -0.4405
  683MOL0     C90079   0.373   2.426  10.059  0.2109 -0.6770  0.7874
  683MOL0     C90080   0.243   2.409  10.009  0.2758  0.1125  0.1366
  683MOL0     C90081   0.201   2.492   9.911 -0.2381 -0.7662  0.0859
  683MOL0     O90082   0.069   2.471   9.870  0.6846  0.7085 -0.4127
  683MOL0     C90083   0.000   2.569   9.795  0.3308 -0.0086  0.1872
  683MOL0     C90084  -0.018   2.703   9.875 -0.2789 -0.1580 -0.0274
  683MOL0     C90085  -0.129   2.786   9.804  1.0972 -0.0612  0.5574
  683MOL0     C90086  -0.155   2.927   9.869  0.2979 -0.0089  0.2601
  683MOL0     C90087  -0.202   2.901  10.005 -0.1550  0.7599 -0.2874
  683MOL0     C90088  -0.238   2.897  10.123 -0.5511  0.6805  0.7797
  683MOL0     C90089   0.284   2.595   9.864 -0.0711 -0.3674 -0.3130
  683MOL0     C90090   0.420   2.604   9.909  0.9258  1.1156 -0.0443
  683MOL0     H90091   0.825   2.804  10.127  1.5357  0.5093  0.4361
  683MOL0     H90092   1.049   2.803  10.197 -1.8313 -0.0297  0.0257
  683MOL0     H90093   1.164   2.621  10.406 -1.0245  0.3234 -0.4919
  683MOL0     H90094   1.252   2.726  10.294  0.6809  0.1122 -0.1200
  683MOL0     H90095   1.456   2.621  10.353  1.1291 -2.3292  0.1788
  683MOL0     H90096   1.380   2.468  10.394  0.4725  0.0128 -0.0736
  683MOL0     H90097   1.273   2.566  10.592 -1.3268  0.4691  0.0983
  683MOL0     H90098   1.323   2.723  10.552 -0.4023 -1.5558 -0.6672
  683MOL0     H90099   1.453   2.527  10.709 -3.7215  1.9986  0.8177
  683MOL0     H90100   1.561   2.539  10.571  1.0882  3.1499 -2.2442
  683MOL0     H90101   1.658   2.679  10.708  0.0877  0.1982 -1.0339
  683MOL0     H90102   1.513   2.765  10.755 -1.4483 -0.3042  0.1975
  683MOL0     H90103   1.499   2.838  10.496  1.2511  3.4877 -1.2349
  683MOL0     H90104   1.658   2.743  10.494  0.0224 -0.7076  0.0506
  683MOL0     H90105   1.633   3.011  10.627  2.1480  0.3617  0.1539
  683MOL0     H90106   1.773   2.913  10.618  1.5229 -3.3106 -2.9710
  683MOL0     H90107   1.764   3.091  10.435 -1.6355  0.3475  3.2255
  683MOL0     H90108   1.627   3.017  10.372  0.8992  0.8660  0.4561
  683MOL0     H90109   1.991   2.883  10.470 -0.0519 -2.4195  1.2261
  683MOL0     H90110   2.069   2.630  10.188 -3.9359 -0.9082  3.6591
  683MOL0     H90111   2.153   2.682  10.333 -2.2959 -4.4026  0.1516
  683MOL0     H90112   2.298   2.814  10.228 -0.5954  1.1568 -0.8005
  683MOL0     H90113   2.171   2.924  10.191 -0.5222  0.9626 -0.8669
  683MOL0     H90114   2.117   2.769   9.975 -0.7396 -0.1927  1.3070
  683MOL0     H90115   2.256   2.872   9.949  0.1458  0.1472  0.6701
  683MOL0     H90116   2.227   2.583  10.011  0.4054  0.4775  0.9265
  683MOL0     H90117   2.382   2.657  10.056  0.3697  0.9098 -1.8152
  683MOL0     H90118   2.406   2.614   9.611 -0.5054  2.5182 -5.3427
  683MOL0     H90119   2.575   2.749   9.485 -0.1835  3.0250  0.2220
  683MOL0     H90120   2.917   2.842   9.290 -0.5983  0.7144  0.4702
  683MOL0     H90121   3.101   2.984   9.183  2.1504  2.4386 -0.4590
  683MOL0     H90122   3.240   3.136   9.040 -1.3513 -0.6834  0.3504
  683MOL0     H90123   3.296   3.191   9.196 -1.8174  2.1136  2.6889
  683MOL0     H90124   3.423   3.314   9.018  0.6744  3.8097 -1.0757
  683MOL0     H90125   3.311   3.436   9.073 -0.1493  1.0507 -1.9138
  683MOL0     H90126   3.277   3.452   8.839  1.8245 -1.5911 -1.3782
  683MOL0     H90127   3.143   3.347   8.883 -0.4489 -2.7786 -2.3098
  683MOL0     H90128   3.417   3.247   8.807 -0.3459  0.8115  4.2992
  683MOL0     H90129   3.278   3.150   8.825  0.1449  0.1814  1.6847
  683MOL0     H90130   3.324   3.201   8.574 -2.7798 -0.8074 -0.6828
  683MOL0     H90131   3.302   3.377   8.623  0.6293  0.1759  0.7426
  683MOL0     H90132   3.095   3.314   8.533  1.9402 -0.4103 -0.8257
  683MOL0     H90133   3.070   3.317   8.693 -0.9570  2.0122 -1.7585
  683MOL0     H90134   3.173   3.056   8.567  0.7810  1.3600  1.3691
  683MOL0     H90135   3.041   3.071   8.687 -3.0266 -1.0489 -1.8884
  683MOL0     H90136   3.031   3.113   8.382 -0.1695 -1.0227  0.7347
  683MOL0     H90137   2.894   3.135   8.495  1.5549  2.0505  1.2003
  683MOL0     H90138   2.892   3.331   9.265 -0.7105 -0.2064 -2.0450
  683MOL0     H90139   2.708   3.190   9.397 -0.0532  0.2087 -1.0655
  683MOL0     H90140   2.682   2.952   9.841  2.8805 -2.6830  0.7956
  683MOL0     H90141   2.504   2.834   9.965  0.3239 -1.0312  0.4441
  683MOL0     H90142   1.091   2.377  10.092 -1.6705 -1.3500 -2.2978
  683MOL0     H90143   0.857   2.393   9.993 -1.4205  3.1123 -3.9357
  683MOL0     H90144   0.404   2.357  10.136  2.6778 -1.3482 -0.6896
  683MOL0     H90145   0.171   2.337  10.048 -0.4132  0.6242 -0.1634
  683MOL0     H90146  -0.103   2.536   9.780  0.0927  0.1926  1.3267
  683MOL0     H90147   0.038   2.592   9.695 -0.6722  3.2566  0.4412
  683MOL0     H90148  -0.052   2.676   9.975 -2.3167  0.6775 -0.4475
  683MOL0     H90149   0.081   2.751   9.876  0.6746 -1.9073 -1.8273
  683MOL0     H90150  -0.221   2.730   9.821 -0.8111  2.4171 -1.0363
  683MOL0     H90151  -0.111   2.787   9.696  1.1507  0.1992  0.5670
  683MOL0     H90152  -0.062   2.984   9.875 -0.0934  0.9530 -2.0384
  683MOL0     H90153  -0.224   2.984   9.807 -0.3478 -0.1578  0.8266
  683MOL0     H90154  -0.266   2.921  10.224 -2.8869  0.5515  0.2366
  683MOL0     H90155   0.264   2.666   9.784  1.8673  0.9902  0.3283
  683MOL0     H90156   0.496   2.670   9.868  0.6671  0.5082 -1.5987
  684MOL0     O90157  10.983  11.390   3.995 -0.2397  0.5491 -0.0313
  684MOL0     C90158  11.052  11.485   3.954  1.0172  0.0540  0.4601
  684MOL0     O90159  11.194  11.491   3.980  0.7132  0.4466  0.1441
  684MOL0     C90160  11.264  11.406   3.910 -1.5848 -0.3540 -0.9312
  684MOL0     C90161  11.400  11.387   3.946 -0.2526 -0.5241  0.0771
  684MOL0     C90162  11.488  11.299   3.871  0.1268 -0.7551 -0.6283
  684MOL0     C90163  11.429  11.211   3.771 -0.2722 -0.4052  0.2712
  684MOL0     O90164  11.483  11.104   3.699 -0.6859 -0.1270  0.1449
  684MOL0     C90165  11.623  11.082   3.716 -0.2501  0.3954 -0.3329
  684MOL0     C90166  11.641  11.004   3.850  0.1500  0.3015 -0.3323
  684MOL0     C90167  11.776  10.941   3.851  0.5096 -0.1470 -0.3612
  684MOL0     C90168  11.811  10.858   3.972 -0.2572  0.5125 -0.2480
  684MOL0     C90169  11.949  10.798   3.955 -0.3381 -0.1143 -0.2479
  684MOL0     C90170  12.079  10.887   3.978  0.3791  0.0259 -0.7206
  684MOL0     C90171  12.203  10.816   3.944  0.7742  0.0650  0.2326
  684MOL0     C90172  12.320  10.892   4.005  0.7754  0.1169 -0.5730
  684MOL0     N90173  12.350  11.018   3.952 -0.4260 -0.1177 -1.0752
  684MOL0     C90174  12.384  11.127   4.028  0.4872 -0.7325  0.3722
  684MOL0     C90175  12.419  11.225   3.932 -0.0851  0.1404 -0.4768
  684MOL0     C90176  12.438  11.369   3.956  0.6857 -1.6701  0.4369
  684MOL0     C90177  12.315  11.454   3.994 -0.3753 -0.6454 -0.3892
  684MOL0     C90178  12.217  11.482   3.878 -0.1080 -0.0729 -0.3429
  684MOL0     C90179  12.107  11.381   3.853 -0.3565  0.0967 -1.4297
  684MOL0     O90180  12.006  11.408   3.751 -0.1599 -0.5648 -0.6909
  684MOL0     C90181  11.902  11.487   3.789  0.6037 -0.7311  0.6294
  684MOL0     C90182  11.889  11.566   3.910 -0.0086 -0.2666 -0.2865
  684MOL0     C90183  11.766  11.638   3.922  0.2317 -0.0127 -0.1047
  684MOL0     C90184  11.656  11.617   3.834 -0.2423  0.6135  1.1394
  684MOL0     C90185  11.532  11.699   3.844  0.0948 -0.0758  0.4196
  684MOL0     O90186  11.541  11.809   3.921  0.0367 -1.4331 -0.5319
  684MOL0     C90187  11.439  11.895   3.915 -0.1819 -0.8882  1.0931
  684MOL0     C90188  11.427  11.993   3.811 -0.1799  0.4137 -0.1339
  684MOL0     C90189  11.317  12.082   3.828 -1.0062  0.2586  1.1902
  684MOL0     C90190  11.233  12.092   3.939 -0.8921  0.5526  0.1456
  684MOL0     O90191  11.137  12.193   3.929  0.1710 -0.0387 -0.1605
  684MOL0     C90192  11.008  12.174   4.003 -1.0781  0.2451 -0.3001
  684MOL0     C90193  10.997  12.272   4.120 -0.3407 -0.9496  0.8304
  684MOL0     C90194  10.870  12.280   4.203 -0.1182  0.2869 -0.3344
  684MOL0     C90195  10.860  12.418   4.289  0.7591 -0.1745  0.3016
  684MOL0     C90196  10.725  12.411   4.366  0.1060  0.7290 -0.0893
  684MOL0     C90197  10.684  12.535   4.439 -0.2520 -1.5583 -0.1790
  684MOL0     C90198  10.711  12.540   4.592  0.4755 -0.7325 -0.7308
  684MOL0     C90199  10.645  12.654   4.670 -0.2328 -0.4133  0.1756
  684MOL0    Cl90200  10.709  12.657   4.831 -0.0063 -0.3679 -0.1912
  684MOL0     C90201  11.245  11.989   4.027  0.2288  0.4764 -0.5830
  684MOL0     C90202  11.355  11.896   4.025 -0.0139  0.1286  0.4464
  684MOL0     O90203  11.427  11.668   3.774  0.4766 -0.1401 -0.3996
  684MOL0     C90204  11.663  11.523   3.735 -0.7807  0.2785  0.2331
  684MOL0     C90205  11.796  11.472   3.710  0.0991  0.0428 -0.5398
  684MOL0     N90206  12.408  11.168   3.808  0.1220 -0.6984 -0.1193
  684MOL0     N90207  12.357  11.052   3.827  0.2261 -0.4696 -0.1558
  684MOL0     C90208  11.296  11.230   3.741  0.3077  1.0908 -0.0108
  684MOL0     C90209  11.217  11.331   3.803 -1.0654  1.0831  0.0745
  684MOL0     C90210  10.984  11.589   3.869 -0.1034  0.4095 -0.1336
  684MOL0     C90211  10.847  11.573   3.837  0.2472  0.7704  0.2803
  684MOL0     C90212  10.782  11.665   3.749  0.4393  0.1627  0.1491
  684MOL0     C90213  10.849  11.760   3.680 -0.5022  0.6635  0.4259
  684MOL0     O90214  10.793  11.851   3.599  0.4779 -0.2486 -0.6001
  684MOL0     C90215  10.682  11.814   3.512  0.7288 -0.6163 -0.1497
  684MOL0     C90216  10.726  11.730   3.393  0.1566  0.1516 -0.6743
  684MOL0     C90217  10.842  11.787   3.309  0.7307 -0.8894  0.2765
  684MOL0     C90218  10.923  11.683   3.230  0.8316  0.8556 -0.4592
  684MOL0     C90219  10.846  11.625   3.116  0.1286  0.9807  0.3988
  684MOL0     C90220  10.771  11.587   3.026  0.0288  0.2064 -0.8977
  684MOL0     C90221  10.978  11.782   3.711 -0.0996  0.2616 -0.4113
  684MOL0     C90222  11.047  11.702   3.807  0.4387 -0.2284 -0.6437
  684MOL0     H90223  11.452  11.449   4.018  2.8923 -0.8504 -1.7044
  684MOL0     H90224  11.594  11.290   3.892  0.9337  5.0443 -0.3457
  684MOL0     H90225  11.684  11.172   3.714 -0.4710  0.5719  0.5624
  684MOL0     H90226  11.651  11.017   3.632  2.2508  0.2280  0.5416
  684MOL0     H90227  11.559  10.931   3.857 -3.0933  3.6188 -0.7171
  684MOL0     H90228  11.633  11.072   3.936 -2.2307 -2.6721  2.0330
  684MOL0     H90229  11.851  11.015   3.822 -0.3436 -0.1816 -2.9637
  684MOL0     H90230  11.775  10.870   3.767 -1.4473  0.5986 -1.0268
  684MOL0     H90231  11.804  10.919   4.064 -1.6011 -0.0894  0.0696
  684MOL0     H90232  11.736  10.779   3.973 -1.0322  1.2166  1.4059
  684MOL0     H90233  11.945  10.767   3.850 -0.3295 -1.5037  0.1364
  684MOL0     H90234  11.954  10.706   4.014 -2.6234  0.2486  0.6237
  684MOL0     H90235  12.090  10.922   4.081 -3.2622 -2.2080  0.6204
  684MOL0     H90236  12.072  10.967   3.903 -0.1402 -0.7410 -1.5105
  684MOL0     H90237  12.208  10.718   3.992  2.4991  0.0238  0.0250
  684MOL0     H90238  12.200  10.808   3.835 -2.3485  0.0424  0.2178
  684MOL0     H90239  12.408  10.828   3.999 -1.3252 -2.9687 -0.4497
  684MOL0     H90240  12.308  10.903   4.113 -1.3163 -1.7191 -0.5526
  684MOL0     H90241  12.374  11.143   4.135 -0.0063 -0.5877  0.3080
  684MOL0     H90242  12.482  11.418   3.869 -1.3399  1.4329  0.9821
  684MOL0     H90243  12.509  11.379   4.038  0.4797 -1.2740  0.5704
  684MOL0     H90244  12.355  11.553   4.019 -1.9590 -0.2739  0.8173
  684MOL0     H90245  12.263  11.414   4.081  2.7645  0.2551  2.1210
  684MOL0     H90246  12.171  11.581   3.887 -2.5806 -1.2680  1.4397
  684MOL0     H90247  12.270  11.486   3.782 -1.7925 -0.0232 -1.3072
  684MOL0     H90248  12.048  11.365   3.944 -1.2403  3.8978 -1.1853
  684MOL0     H90249  12.159  11.286   3.835  0.9639  0.6911 -0.9204
  684MOL0     H90250  11.975  11.577   3.976  0.7799  0.0696 -1.3517
  684MOL0     H90251  11.770  11.716   3.998  2.2057  0.3012 -0.4700
  684MOL0     H90252  11.487  11.968   3.724 -1.1488 -2.5578 -0.0633
  684MOL0     H90253  11.319  12.160   3.752  2.6233  2.4505  3.2409
  684MOL0     H90254  10.985  12.071   4.034 -0.3548 -0.2195 -1.2485
  684MOL0     H90255  10.927  12.190   3.931 -0.5610  2.4106 -0.4615
  684MOL0     H90256  11.012  12.371   4.077  1.8255 -1.4322  0.3726
  684MOL0     H90257  11.091  12.261   4.175  0.0613  0.9485  0.5852
  684MOL0     H90258  10.872  12.195   4.273  4.3325  0.7918  0.4634
  684MOL0     H90259  10.784  12.252   4.141 -1.2666 -1.8573  2.0230
  684MOL0     H90260  10.949  12.418   4.352  1.1404 -2.4734 -0.1726
  684MOL0     H90261  10.872  12.496   4.213 -1.3468 -0.8546 -0.8155
  684MOL0     H90262  10.721  12.327   4.437  0.0077  0.7101 -0.1176
  684MOL0     H90263  10.647  12.387   4.294 -1.1973 -0.1121  1.5363
  684MOL0     H90264  10.577  12.545   4.420 -0.4297 -3.6231 -0.4290
  684MOL0     H90265  10.736  12.621   4.396  0.8507 -0.7644  2.4718
  684MOL0     H90266  10.678  12.448   4.641  2.4824 -0.0879  2.1536
  684MOL0     H90267  10.820  12.539   4.605  0.8267 -1.8439 -3.2281
  684MOL0     H90268  10.538  12.633   4.677 -0.2476 -1.0134 -1.4128
  684MOL0     H90269  10.668  12.748   4.619  1.7980 -0.0347  1.6502
  684MOL0     H90270  11.174  11.970   4.107  1.6703 -1.8892  0.2496
  684MOL0     H90271  11.360  11.812   4.094 -2.3411 -3.1968 -3.0476
  684MOL0     H90272  11.574  11.494   3.680 -0.6509  0.4587 -0.0723
  684MOL0     H90273  11.822  11.425   3.616  2.0691  2.9407 -1.5689
  684MOL0     H90274  11.243  11.164   3.673 -2.6476  4.0709 -0.8932
  684MOL0     H90275  11.116  11.331   3.763 -2.5133 -1.2492  3.2913
  684MOL0     H90276  10.779  11.493   3.867 -1.1598  2.7134  2.6472
  684MOL0     H90277  10.675  11.663   3.734  0.5166  3.2259 -1.6917
  684MOL0     H90278  10.644  11.908   3.471  0.2274  1.1958  4.0148
  684MOL0     H90279  10.600  11.758   3.559  1.0397 -1.2591 -0.3498
  684MOL0     H90280  10.761  11.634   3.432 -0.8505 -0.7845 -1.9670
  684MOL0     H90281  10.643  11.708   3.325  0.4274 -1.0140 -0.6449
  684MOL0     H90282  10.908  11.844   3.376 -0.1874  2.3995 -1.3829
  684MOL0     H90283  10.807  11.866   3.241  2.2752  1.1948  1.7657
  684MOL0     H90284  11.014  11.730   3.193  2.4810  0.6948  3.0170
  684MOL0     H90285  10.941  11.593   3.288 -5.3484 -2.9110 -3.3023
  684MOL0     H90286  10.701  11.556   2.951  1.4165 -2.1550 -1.3276
  684MOL0     H90287  11.044  11.858   3.672  0.8207  0.7386  1.9034
  684MOL0     H90288  11.155  11.701   3.824  0.4483 -2.2604 -0.5871
  685MOL0     O90289   2.476  10.659   3.750 -0.3089  0.1167 -0.2683
  685MOL0     C90290   2.478  10.672   3.869  1.3824 -0.0621 -0.9506
  685MOL0     O90291   2.374  10.644   3.956  0.0556 -0.0586  0.1706
  685MOL0     C90292   2.255  10.620   3.900  0.3656 -0.1721 -0.1750
  685MOL0     C90293   2.221  10.498   3.829 -0.0503  0.6560  0.6084
  685MOL0     C90294   2.097  10.492   3.764  0.9078 -0.0540 -0.0121
  685MOL0     C90295   2.006  10.596   3.761 -0.5584 -0.6011  0.2718
  685MOL0     O90296   1.883  10.563   3.705 -0.0684  0.3337  0.8016
  685MOL0     C90297   1.772  10.645   3.704 -0.1593  0.2007 -0.0388
  685MOL0     C90298   1.659  10.573   3.635 -0.1201  0.2204 -0.2554
  685MOL0     C90299   1.695  10.548   3.492  0.8088 -0.1801 -0.3732
  685MOL0     C90300   1.674  10.685   3.417  0.1148 -0.7784  0.1998
  685MOL0     C90301   1.701  10.678   3.270  0.0913  0.6063  0.0820
  685MOL0     C90302   1.847  10.648   3.211 -0.5950  0.3155 -0.3385
  685MOL0     C90303   1.841  10.633   3.057  0.2238  0.8044  0.2615
  685MOL0     C90304   1.859  10.770   2.992 -1.0115 -0.0427  0.7145
  685MOL0     N90305   1.801  10.774   2.857 -0.4727 -0.1456 -0.8388
  685MOL0     C90306   1.840  10.850   2.755  0.5004  1.0880 -0.2100
  685MOL0     C90307   1.754  10.836   2.660 -0.2299 -0.3396  0.0868
  685MOL0     C90308   1.747  10.906   2.523 -0.8841  0.4183  1.1138
  685MOL0     C90309   1.788  11.052   2.529  0.7970 -0.2960 -0.3248
  685MOL0     C90310   1.941  11.078   2.500 -0.1638 -0.5792 -0.1570
  685MOL0     C90311   1.986  11.046   2.361 -1.2822  0.0322 -0.4624
  685MOL0     O90312   2.116  11.119   2.337  0.7257  0.4239 -1.0670
  685MOL0     C90313   2.179  11.100   2.220 -0.3266  0.1652 -0.3764
  685MOL0     C90314   2.114  11.046   2.108  0.7813 -0.4903 -0.2636
  685MOL0     C90315   2.181  11.025   1.993 -0.0360 -0.0205  0.1021
  685MOL0     C90316   2.324  11.049   1.988  0.3392 -0.5270  0.3688
  685MOL0     C90317   2.399  11.006   1.868 -0.8515 -0.6450 -0.5310
  685MOL0     O90318   2.347  10.900   1.789  0.3123  0.0355 -0.0590
  685MOL0     C90319   2.412  10.887   1.666  0.6300 -0.4659 -0.1492
  685MOL0     C90320   2.457  10.767   1.624 -0.8781 -0.1377  0.4641
  685MOL0     C90321   2.520  10.754   1.503  0.2737  0.0222  0.0988
  685MOL0     C90322   2.555  10.869   1.429  0.3750 -0.1036  0.6244
  685MOL0     O90323   2.617  10.844   1.308  0.3196  0.0850  0.3257
  685MOL0     C90324   2.706  10.951   1.257  0.5452 -0.7496  0.5100
  685MOL0     C90325   2.706  10.934   1.101  0.4013  0.9470  0.3285
  685MOL0     C90326   2.785  10.818   1.054  0.4695 -0.2687  0.2283
  685MOL0     C90327   2.781  10.799   0.900 -0.3169  0.4657  0.0122
  685MOL0     C90328   2.825  10.660   0.852  0.4225  1.2466 -0.0667
  685MOL0     C90329   2.939  10.583   0.937  0.0254 -1.1872 -0.2092
  685MOL0     C90330   3.072  10.664   0.931 -0.4056 -0.3996 -0.8722
  685MOL0     C90331   3.190  10.569   0.947  0.6249  0.5502  2.0250
  685MOL0    Cl90332   3.336  10.668   0.958  0.3901  0.2007  0.3763
  685MOL0     C90333   2.510  10.998   1.477 -0.0927 -1.0261 -1.1003
  685MOL0     C90334   2.443  11.004   1.592 -0.5074 -0.7017  1.2083
  685MOL0     O90335   2.524  11.038   1.866 -0.7553  0.2106 -0.0810
  685MOL0     C90336   2.394  11.118   2.095  0.2612  0.9211  0.2020
  685MOL0     C90337   2.319  11.128   2.210  0.5554  0.1611  0.7073
  685MOL0     N90338   1.658  10.736   2.689 -0.3495 -0.6701  0.1345
  685MOL0     N90339   1.683  10.719   2.821 -0.5606  0.3201 -0.2203
  685MOL0     C90340   2.029  10.710   3.843 -0.5022  0.4180 -0.0764
  685MOL0     C90341   2.156  10.724   3.905  0.0334  0.0410  0.5428
  685MOL0     C90342   2.599  10.725   3.936 -0.4905 -0.8371 -0.2799
  685MOL0     C90343   2.679  10.812   3.865 -0.4098 -0.1034 -0.6741
  685MOL0     C90344   2.806  10.854   3.921  0.5912 -0.3022 -1.1453
  685MOL0     C90345   2.843  10.823   4.050 -0.1263 -0.3413 -0.1692
  685MOL0     O90346   2.951  10.872   4.116 -0.1728 -0.7004 -0.4724
  685MOL0     C90347   3.048  10.962   4.065  0.5326  0.2640  0.3245
  685MOL0     C90348   3.146  11.007   4.180 -0.2707  0.8217  0.3231
  685MOL0     C90349   3.263  11.087   4.126 -0.0036  0.3086  0.0503
  685MOL0     C90350   3.242  11.231   4.130 -0.8923  0.1690  1.0232
  685MOL0     C90351   3.319  11.298   4.022  0.3993 -0.3960  1.2349
  685MOL0     C90352   3.392  11.374   3.950 -0.2528  0.3286  0.2034
  685MOL0     C90353   2.751  10.749   4.122 -0.1772 -0.2664  0.1506
  685MOL0     C90354   2.637  10.697   4.072 -0.3370  0.3490  0.0421
  685MOL0     H90355   2.296  10.421   3.811  0.4136  0.8325  1.6969
  685MOL0     H90356   2.065  10.401   3.715 -2.6240  0.1539  1.6023
  685MOL0     H90357   1.786  10.739   3.652 -2.0170  0.0647 -0.8604
  685MOL0     H90358   1.755  10.687   3.804  1.4194  3.7610 -1.1271
  685MOL0     H90359   1.569  10.635   3.643  0.0398  0.8805 -2.7395
  685MOL0     H90360   1.640  10.481   3.692  0.0037  0.4280  0.1286
  685MOL0     H90361   1.618  10.474   3.468 -2.2275  0.3999  5.7305
  685MOL0     H90362   1.797  10.513   3.473  0.3821 -3.3359  2.2709
  685MOL0     H90363   1.574  10.727   3.427 -0.3883 -1.3293 -2.1354
  685MOL0     H90364   1.748  10.757   3.454  1.0711 -1.3791 -0.5045
  685MOL0     H90365   1.663  10.766   3.218 -1.4659  0.5681  1.0905
  685MOL0     H90366   1.632  10.599   3.238  1.3808 -0.3497 -0.4286
  685MOL0     H90367   1.874  10.550   3.249 -0.7942  0.7424  0.9314
  685MOL0     H90368   1.925  10.722   3.230 -0.9354  0.8674 -1.0205
  685MOL0     H90369   1.921  10.570   3.018 -1.9380 -1.1406 -1.3355
  685MOL0     H90370   1.743  10.584   3.048 -0.2163  1.1419  2.5118
  685MOL0     H90371   1.964  10.800   2.980 -1.5966  1.0543 -3.1709
  685MOL0     H90372   1.810  10.844   3.056 -0.3612 -0.8581  2.1952
  685MOL0     H90373   1.940  10.892   2.765  2.1546 -2.9676  3.7485
  685MOL0     H90374   1.640  10.906   2.502 -1.2520 -2.2143  2.5569
  685MOL0     H90375   1.806  10.860   2.443 -2.1197  3.2124 -1.6070
  685MOL0     H90376   1.750  11.096   2.622 -0.3716 -0.0091 -0.9180
  685MOL0     H90377   1.737  11.099   2.444  2.7707  0.8440 -0.9361
  685MOL0     H90378   1.947  11.187   2.494  1.1078 -0.6424 -0.3719
  685MOL0     H90379   2.005  11.043   2.582  1.8500  0.1296 -1.3561
  685MOL0     H90380   1.925  11.083   2.278 -0.3160 -0.4709 -1.4250
  685MOL0     H90381   2.006  10.939   2.355 -2.6359 -0.2824  0.3071
  685MOL0     H90382   2.010  11.015   2.108 -0.3274  2.4150  2.9697
  685MOL0     H90383   2.128  10.976   1.912 -2.4271  0.1189  1.4815
  685MOL0     H90384   2.441  10.681   1.688 -0.3537 -1.9677 -1.7156
  685MOL0     H90385   2.541  10.656   1.461 -0.3295  0.8875 -2.3636
  685MOL0     H90386   2.812  10.942   1.280  0.6962  1.6172  1.0256
  685MOL0     H90387   2.679  11.056   1.273  3.4853  0.2405 -0.3077
  685MOL0     H90388   2.754  11.023   1.061  2.8485  0.4074  1.8289
  685MOL0     H90389   2.603  10.927   1.065  1.0643  1.3022 -1.7514
  685MOL0     H90390   2.743  10.729   1.102 -1.6308  0.1835 -0.6612
  685MOL0     H90391   2.891  10.837   1.076  0.2256  2.6858 -0.7892
  685MOL0     H90392   2.684  10.817   0.853  0.9743  1.0219 -2.6414
  685MOL0     H90393   2.860  10.858   0.852 -1.4275  0.7921 -1.4842
  685MOL0     H90394   2.858  10.658   0.748  3.8278 -0.2254  0.9055
  685MOL0     H90395   2.742  10.593   0.878  0.3632  1.0390 -0.7815
  685MOL0     H90396   2.961  10.494   0.877  0.7158  0.6855 -2.9732
  685MOL0     H90397   2.908  10.550   1.036 -0.5346 -2.4268 -0.7774
  685MOL0     H90398   3.091  10.719   0.838 -4.6336  0.5562 -1.3720
  685MOL0     H90399   3.072  10.744   1.005  0.8676  0.8870 -2.1916
  685MOL0     H90400   3.198  10.499   0.863 -2.4015  0.3606  1.7866
  685MOL0     H90401   3.184  10.504   1.035 -0.7576 -2.5143 -0.1513
  685MOL0     H90402   2.514  11.089   1.418 -1.0971  0.5854  1.2023
  685MOL0     H90403   2.398  11.102   1.607  0.3892  0.0040 -0.4440
  685MOL0     H90404   2.499  11.144   2.092  0.7694 -0.7336  1.7252
  685MOL0     H90405   2.379  11.149   2.298  1.4482 -3.8506  1.2367
  685MOL0     H90406   1.948  10.783   3.838  1.1986  2.4443  0.6825
  685MOL0     H90407   2.182  10.825   3.933 -0.3632  1.1383 -2.6828
  685MOL0     H90408   2.650  10.842   3.765 -2.4448  0.5177  0.0532
  685MOL0     H90409   2.859  10.917   3.850  0.5404  0.9733 -0.0892
  685MOL0     H90410   2.993  11.046   4.023 -2.1835 -0.3162  2.4035
  685MOL0     H90411   3.096  10.907   3.983 -1.7044 -1.5990  0.1577
  685MOL0     H90412   3.100  11.065   4.261  0.9867  0.4967  1.3040
  685MOL0     H90413   3.190  10.921   4.231 -0.9578  0.3925  0.2152
  685MOL0     H90414   3.298  11.051   4.029 -1.6461 -0.5371 -0.2703
  685MOL0     H90415   3.346  11.065   4.194  0.3828 -1.3391 -0.9064
  685MOL0     H90416   3.135  11.240   4.110 -0.8724  1.8823  1.5141
  685MOL0     H90417   3.266  11.273   4.228  2.5414 -3.3086  1.9410
  685MOL0     H90418   3.446  11.446   3.892  0.7194 -2.0461 -2.0347
  685MOL0     H90419   2.771  10.713   4.222 -0.5068 -2.0649 -0.3826
  685MOL0     H90420   2.576  10.635   4.139  1.9683 -0.0762  1.8671
  686MOL0     O90421  10.884   8.897  10.770 -0.6486 -0.1953 -1.2479
  686MOL0     C90422  10.852   9.012  10.731 -0.1224  0.6661  1.0061
  686MOL0     O90423  10.925   9.131  10.755  0.3704 -0.3075  0.1291
  686MOL0     C90424  11.014   9.142  10.860  0.5495 -1.1548 -0.2040
  686MOL0     C90425  11.110   9.047  10.895 -0.0793 -0.1293 -0.4444
  686MOL0     C90426  11.193   9.083  10.996 -0.2234  0.3223  0.3625
  686MOL0     C90427  11.191   9.211  11.045 -0.2023  0.1144  0.2496
  686MOL0     O90428  11.288   9.255  11.136 -0.3424  0.2214  0.1084
  686MOL0     C90429  11.323   9.164  11.242  1.4743  0.7329  0.1851
  686MOL0     C90430  11.407   9.207  11.362  0.1199 -0.2445  1.5375
  686MOL0     C90431  11.351   9.319  11.449 -0.9617 -0.1454  0.9777
  686MOL0     C90432  11.417   9.284  11.586  0.3869 -0.0043 -0.1115
  686MOL0     C90433  11.366   9.379  11.700 -0.5130 -0.5451 -0.1993
  686MOL0     C90434  11.453   9.396  11.834  0.1375 -0.0244 -0.4004
  686MOL0     C90435  11.476   9.264  11.908 -0.0826 -1.0140  1.1523
  686MOL0     C90436  11.344   9.190  11.947  0.4332  0.0651 -0.7160
  686MOL0     N90437  11.366   9.060  12.014  0.5806  0.2127  0.2653
  686MOL0     C90438  11.345   8.938  11.954  0.7068 -0.0496 -0.5686
  686MOL0     C90439  11.321   8.852  12.056 -1.4034 -0.4543 -1.7216
  686MOL0     C90440  11.292   8.693  12.065  0.8134 -0.0431  0.2178
  686MOL0     C90441  11.150   8.675  12.119  0.6185  0.5127 -0.2853
  686MOL0     C90442  11.038   8.711  12.023 -0.2902 -0.0802  0.0654
  686MOL0     C90443  10.910   8.627  12.056  0.1300  0.2815  0.5109
  686MOL0     O90444  10.789   8.706  12.066  0.2163  0.0530  0.4195
  686MOL0     C90445  10.770   8.788  12.172  0.2013 -0.3259  0.9164
  686MOL0     C90446  10.856   8.795  12.288  0.0325  0.0450  0.6741
  686MOL0     C90447  10.839   8.889  12.385  0.4326 -0.4425 -0.2598
  686MOL0     C90448  10.727   8.983  12.381 -0.6094 -1.0364  0.2239
  686MOL0     C90449  10.709   9.090  12.477  0.2609  0.2644  0.9062
  686MOL0     O90450  10.583   9.155  12.464  0.6273 -0.7477 -0.4732
  686MOL0     C90451  10.556   9.261  12.544  0.1849  0.2876 -0.4131
  686MOL0     C90452  10.427   9.282  12.598  0.0919 -0.0001  0.3329
  686MOL0     C90453  10.397   9.406  12.646 -0.1278  0.5666  0.0703
  686MOL0     C90454  10.496   9.508  12.644  0.4891  0.5482 -0.2147
  686MOL0     O90455  10.481   9.638  12.694 -0.1465 -0.2031  0.5624
  686MOL0     C90456  10.376   9.663  12.777  0.5062  0.1463 -0.2031
  686MOL0     C90457  10.373   9.795  12.848  0.3498 -0.4931 -1.1960
  686MOL0     C90458  10.498   9.815  12.930  0.9001  1.0224  0.9271
  686MOL0     C90459  10.490   9.937  13.021  0.2791 -0.0631  0.2056
  686MOL0     C90460  10.608   9.966  13.112 -0.1397  0.4019  0.7258
  686MOL0     C90461  10.571  10.090  13.188 -0.0862  0.5063  0.4123
  686MOL0     C90462  10.669  10.112  13.299  0.0551 -0.9412  0.5496
  686MOL0     C90463  10.618  10.217  13.398  0.4047 -0.5522  0.3289
  686MOL0    Cl90464  10.732  10.238  13.532  0.0377 -0.7575  0.1734
  686MOL0     C90465  10.626   9.487  12.595  0.1974 -1.3092  0.5809
  686MOL0     C90466  10.654   9.361  12.542  0.1762  0.9425  0.5808
  686MOL0     O90467  10.792   9.103  12.569  0.4339  0.3345 -0.0940
  686MOL0     C90468  10.642   8.966  12.281  0.2295  0.0449  0.4711
  686MOL0     C90469  10.656   8.874  12.178 -0.5421 -0.2859  0.5311
  686MOL0     N90470  11.347   8.923  12.177  0.1234  0.2789  0.0272
  686MOL0     N90471  11.357   9.044  12.148 -0.1663  0.6071  0.0335
  686MOL0     C90472  11.091   9.308  11.018 -1.3157  1.3935 -0.5708
  686MOL0     C90473  10.995   9.262  10.928 -0.0155 -0.4189  0.1242
  686MOL0     C90474  10.753   9.014  10.619 -0.0048 -0.1686 -0.2355
  686MOL0     C90475  10.692   9.128  10.574  0.2414 -0.3275  0.2988
  686MOL0     C90476  10.603   9.125  10.467 -0.3503  0.3949 -0.1651
  686MOL0     C90477  10.599   9.011  10.387 -0.6838  0.9004 -0.1556
  686MOL0     O90478  10.525   9.023  10.269  0.3388 -0.9215 -0.0706
  686MOL0     C90479  10.520   8.908  10.180 -0.0640  0.0568 -0.3854
  686MOL0     C90480  10.651   8.882  10.099  1.3125 -0.1079  0.4379
  686MOL0     C90481  10.640   8.754  10.008  1.5260  0.8321  0.9513
  686MOL0     C90482  10.775   8.728   9.938  0.0214 -0.3493 -0.3613
  686MOL0     C90483  10.841   8.834   9.854 -0.5738 -0.4184 -0.2675
  686MOL0     C90484  10.889   8.918   9.781  0.7443 -0.1650 -0.7039
  686MOL0     C90485  10.667   8.892  10.429 -0.0744 -0.7415  0.3123
  686MOL0     C90486  10.736   8.892  10.555  0.3771 -0.9946  0.7439
  686MOL0     H90487  11.117   8.947  10.853 -1.8010 -0.2197 -0.6042
  686MOL0     H90488  11.265   9.009  11.026  1.4913  2.0300  0.6618
  686MOL0     H90489  11.369   9.072  11.207 -1.5625 -2.5789  3.8925
  686MOL0     H90490  11.226   9.140  11.287 -0.2327  2.0860 -2.5172
  686MOL0     H90491  11.495   9.249  11.313 -0.9650  0.7853  0.4153
  686MOL0     H90492  11.448   9.124  11.421 -0.1646 -1.2504  0.3692
  686MOL0     H90493  11.242   9.321  11.440 -0.9719 -3.3411 -1.7743
  686MOL0     H90494  11.396   9.411  11.411  0.7547 -1.4540 -0.3324
  686MOL0     H90495  11.402   9.179  11.613 -1.6092 -0.4218 -2.4681
  686MOL0     H90496  11.522   9.315  11.577  0.8439 -1.6220 -0.5642
  686MOL0     H90497  11.262   9.352  11.724 -0.7701 -0.9306 -1.6604
  686MOL0     H90498  11.357   9.481  11.663  3.5030  0.0111 -0.0495
  686MOL0     H90499  11.408   9.460  11.910 -1.4692 -2.8323  1.2026
  686MOL0     H90500  11.540   9.445  11.790 -0.8396  0.5464 -1.8015
  686MOL0     H90501  11.532   9.186  11.856 -0.0093  0.1116 -0.5122
  686MOL0     H90502  11.538   9.289  11.995  1.2967  2.9842 -0.7360
  686MOL0     H90503  11.296   9.175  11.850 -0.8877 -2.4783  0.2308
  686MOL0     H90504  11.272   9.238  12.014  1.6770 -3.0096  3.2190
  686MOL0     H90505  11.352   8.905  11.851  1.3772 -1.6433 -0.0501
  686MOL0     H90506  11.364   8.655  12.139 -0.8467 -0.0458  1.8986
  686MOL0     H90507  11.310   8.630  11.977  2.2607 -3.2791  2.6258
  686MOL0     H90508  11.142   8.722  12.217 -0.9138 -0.6040  0.1645
  686MOL0     H90509  11.151   8.567  12.136 -1.3300  0.3696 -0.8654
  686MOL0     H90510  11.024   8.819  12.021  1.4115  0.1649 -0.9800
  686MOL0     H90511  11.070   8.681  11.923 -1.0555 -1.1560  0.1334
  686MOL0     H90512  10.912   8.575  12.152 -0.6688  0.9210  0.8888
  686MOL0     H90513  10.901   8.549  11.981 -1.0189 -0.3783  1.3033
  686MOL0     H90514  10.923   8.710  12.298  0.8874  0.5578 -0.4975
  686MOL0     H90515  10.894   8.876  12.478  0.1800  0.7523  0.0716
  686MOL0     H90516  10.359   9.200  12.582  0.6920 -0.1969 -1.5028
  686MOL0     H90517  10.305   9.424  12.701  1.8339 -0.6053  4.0873
  686MOL0     H90518  10.374   9.588  12.856 -0.3746  4.4204  4.3161
  686MOL0     H90519  10.282   9.664  12.721  0.0092  2.2032  0.5631
  686MOL0     H90520  10.280   9.798  12.905  0.6358 -2.5560 -0.5330
  686MOL0     H90521  10.373   9.870  12.769 -2.5050  1.9741  0.9130
  686MOL0     H90522  10.584   9.836  12.865 -0.5078  1.6504 -0.8071
  686MOL0     H90523  10.506   9.727  12.995  1.5237  0.0251 -0.4330
  686MOL0     H90524  10.473  10.022  12.954 -1.2903  0.1507  0.8391
  686MOL0     H90525  10.398   9.925  13.078  0.2350 -1.3958 -0.1059
  686MOL0     H90526  10.702   9.978  13.056  0.8047 -4.6378  0.7712
  686MOL0     H90527  10.614   9.876  13.174  1.0766 -0.5201 -0.6582
  686MOL0     H90528  10.473  10.079  13.233 -0.0812 -0.2187  0.2522
  686MOL0     H90529  10.574  10.178  13.123  2.6101 -0.3695 -0.8138
  686MOL0     H90530  10.666  10.018  13.356 -2.1624 -0.9719  0.4807
  686MOL0     H90531  10.766  10.139  13.257 -0.7140  3.9525  1.3191
  686MOL0     H90532  10.522  10.180  13.435 -0.5095 -1.2688 -2.4978
  686MOL0     H90533  10.600  10.314  13.350 -0.0131  0.0844  1.7285
  686MOL0     H90534  10.688   9.576  12.599 -1.3427 -0.2323  1.7664
  686MOL0     H90535  10.745   9.351  12.484 -0.8187 -2.3117 -0.6234
  686MOL0     H90536  10.570   9.046  12.270  2.5559  2.1181 -0.7904
  686MOL0     H90537  10.582   8.870  12.099  1.5946 -2.2125 -1.5377
  686MOL0     H90538  11.093   9.405  11.065  0.2644 -0.2703  3.2268
  686MOL0     H90539  10.919   9.334  10.898 -1.1660 -0.8582  1.8239
  686MOL0     H90540  10.707   9.226  10.619 -2.0030  0.7050 -1.0040
  686MOL0     H90541  10.546   9.212  10.435  0.6961  1.8121  1.6377
  686MOL0     H90542  10.431   8.935  10.122  0.5882 -1.8462 -2.4211
  686MOL0     H90543  10.484   8.820  10.234 -1.6329  0.7355 -0.2627
  686MOL0     H90544  10.678   8.961  10.028 -2.7164 -0.3619 -1.6839
  686MOL0     H90545  10.732   8.855  10.168  0.2509 -1.3967  1.2100
  686MOL0     H90546  10.559   8.774   9.937  2.8755 -0.3283 -1.0292
  686MOL0     H90547  10.605   8.674  10.073 -0.7776  0.9028 -0.1219
  686MOL0     H90548  10.844   8.697  10.017 -0.5857  1.9650  1.2050
  686MOL0     H90549  10.742   8.646   9.875 -0.2087 -1.1459  0.7579
  686MOL0     H90550  10.922   9.003   9.724 -0.5470  1.3812  0.7459
  686MOL0     H90551  10.663   8.796  10.380  1.0835  0.1522 -1.6377
  686MOL0     H90552  10.785   8.798  10.578 -2.1568 -2.6532 -0.1905
  687MOL0     O90553  10.897  10.744   7.077 -0.0883 -0.3814 -0.4646
  687MOL0     C90554  10.801  10.697   7.131 -0.1023  0.4508  0.4044
  687MOL0     O90555  10.774  10.703   7.261  0.7958  0.7309  0.6698
  687MOL0     C90556  10.833  10.788   7.344 -1.0748 -0.0237  0.0231
  687MOL0     C90557  10.968  10.801   7.369 -0.0039  1.0761  0.0182
  687MOL0     C90558  11.013  10.864   7.483 -0.2498  0.1317  0.3515
  687MOL0     C90559  10.915  10.931   7.564 -0.8983  0.2828 -0.4147
  687MOL0     O90560  10.972  10.994   7.668  0.2055 -0.5906  0.4179
  687MOL0     C90561  10.918  11.123   7.704  0.7824 -0.3547 -0.1163
  687MOL0     C90562  10.983  11.141   7.848  0.4750  0.4527  0.0521
  687MOL0     C90563  11.141  11.169   7.843  0.2666  0.5472  0.1544
  687MOL0     C90564  11.201  11.201   7.983 -1.0018 -0.7271 -0.1404
  687MOL0     C90565  11.349  11.255   7.972 -1.1231  1.2450 -0.8961
  687MOL0     C90566  11.418  11.247   8.105 -0.8585  0.2525 -0.5613
  687MOL0     C90567  11.569  11.252   8.088 -0.4643  1.1207  0.3658
  687MOL0     C90568  11.639  11.276   8.223 -0.0213 -0.2751 -0.0173
  687MOL0     N90569  11.780  11.299   8.199  0.7792  0.0222  0.3879
  687MOL0     C90570  11.844  11.423   8.197  0.4223 -0.1305  0.4521
  687MOL0     C90571  11.965  11.398   8.148 -0.3301  0.1311 -0.2865
  687MOL0     C90572  12.070  11.497   8.154  0.5966  0.1293 -0.4230
  687MOL0     C90573  12.141  11.533   8.022 -0.0337  0.4499 -1.0180
  687MOL0     C90574  12.207  11.419   7.942  0.2678  0.5073  0.7383
  687MOL0     C90575  12.326  11.459   7.847  0.0709 -0.0612 -0.3379
  687MOL0     O90576  12.288  11.539   7.727  0.5165 -0.8240 -0.1571
  687MOL0     C90577  12.386  11.534   7.632  0.5714 -1.2090 -0.1921
  687MOL0     C90578  12.349  11.482   7.508  0.3892  0.2857 -0.4948
  687MOL0     C90579  12.443  11.463   7.408 -0.0782  0.0662 -0.0187
  687MOL0     C90580  12.581  11.496   7.431 -0.4938  0.1955 -0.0422
  687MOL0     C90581  12.671  11.504   7.307  0.0425  0.3999 -0.0843
  687MOL0     O90582  12.800  11.536   7.332  0.0909  0.1844  1.0147
  687MOL0     C90583  12.888  11.531   7.227  0.3188 -0.1127  0.2237
  687MOL0     C90584  12.945  11.416   7.171 -0.2710  0.4532  0.3069
  687MOL0     C90585  13.051  11.424   7.085  0.2800  0.1821  0.4602
  687MOL0     C90586  13.111  11.539   7.049  0.5846  1.0674 -0.1059
  687MOL0     O90587  13.221  11.564   6.966  0.2067  0.0829 -0.6175
  687MOL0     C90588  13.263  11.453   6.883  0.0482  0.6499 -0.2024
  687MOL0     C90589  13.302  11.515   6.747  0.5007  0.9122  0.8482
  687MOL0     C90590  13.451  11.552   6.741  0.3092  0.1498 -0.4117
  687MOL0     C90591  13.469  11.642   6.619  0.4608 -0.5480 -0.0368
  687MOL0     C90592  13.607  11.704   6.620  0.1712 -0.0271 -0.0676
  687MOL0     C90593  13.645  11.745   6.476 -0.8517 -1.1131 -0.6532
  687MOL0     C90594  13.565  11.868   6.409 -1.0851 -0.1725  0.4752
  687MOL0     C90595  13.633  12.000   6.413 -1.2407  0.4520  0.3307
  687MOL0    Cl90596  13.664  12.050   6.570  0.2295 -0.2275  0.0502
  687MOL0     C90597  13.074  11.651   7.123 -0.2236 -0.1622 -0.3298
  687MOL0     C90598  12.965  11.645   7.207  1.2307 -0.5110  0.3255
  687MOL0     O90599  12.623  11.477   7.196 -0.1075 -0.0134  0.6430
  687MOL0     C90600  12.613  11.538   7.554 -0.1099  0.7985 -1.4414
  687MOL0     C90601  12.517  11.566   7.655 -1.1457 -0.7808 -0.0398
  687MOL0     N90602  11.965  11.269   8.111  0.2508  0.2748  0.3102
  687MOL0     N90603  11.858  11.206   8.152  0.4704 -0.0544  0.0262
  687MOL0     C90604  10.784  10.927   7.542 -0.0719  0.3529  0.9141
  687MOL0     C90605  10.741  10.852   7.437 -0.2504  0.3201 -0.3513
  687MOL0     C90606  10.716  10.597   7.051 -0.2185 -0.6654 -0.5184
  687MOL0     C90607  10.610  10.523   7.111  0.3512 -0.4263 -0.2070
  687MOL0     C90608  10.550  10.425   7.040  0.5474 -0.4835  0.7862
  687MOL0     C90609  10.593  10.390   6.912 -0.0863  0.6636  0.1199
  687MOL0     O90610  10.539  10.277   6.850  0.6912 -0.3366  1.1475
  687MOL0     C90611  10.406  10.254   6.823  0.2959 -0.6844  0.0309
  687MOL0     C90612  10.368  10.111   6.846  0.5012  0.0125 -0.8379
  687MOL0     C90613  10.225  10.082   6.803 -0.3626  0.7044 -0.6713
  687MOL0     C90614  10.147   9.971   6.873 -0.4481 -0.9626  0.1544
  687MOL0     C90615  10.060   9.918   6.772  0.2601  0.2474  0.3465
  687MOL0     C90616  10.000   9.879   6.674  0.4883  0.6720  0.0239
  687MOL0     C90617  10.690  10.467   6.852  1.0143  0.0963  0.5851
  687MOL0     C90618  10.755  10.573   6.918  0.2238  1.3513 -0.2122
  687MOL0     H90619  11.033  10.775   7.286  0.0786 -1.5271  0.8339
  687MOL0     H90620  11.117  10.881   7.509  0.3814 -0.4768 -1.5437
  687MOL0     H90621  10.811  11.116   7.727  0.8468 -2.3710 -0.2343
  687MOL0     H90622  10.952  11.197   7.631 -1.9236  0.5863 -0.5480
  687MOL0     H90623  10.969  11.050   7.907  1.1804  0.9623  1.0324
  687MOL0     H90624  10.934  11.219   7.907  0.5098  0.1163  0.5404
  687MOL0     H90625  11.155  11.261   7.785  0.6265 -0.2664 -1.0789
  687MOL0     H90626  11.192  11.081   7.802 -0.0679  0.9740 -1.2277
  687MOL0     H90627  11.145  11.276   8.039  2.2817 -0.0964  2.6339
  687MOL0     H90628  11.202  11.106   8.038  1.5639  0.1611  1.4968
  687MOL0     H90629  11.346  11.361   7.945 -0.1195  1.5126 -0.0493
  687MOL0     H90630  11.411  11.199   7.902 -1.1611  0.6753 -0.4837
  687MOL0     H90631  11.400  11.148   8.146 -1.6235  1.0418  1.0965
  687MOL0     H90632  11.377  11.326   8.168 -1.6436  2.4481 -3.5590
  687MOL0     H90633  11.616  11.170   8.033 -0.5566  1.0054  0.4603
  687MOL0     H90634  11.600  11.339   8.029 -1.3082 -0.4147 -2.5452
  687MOL0     H90635  11.631  11.191   8.292  0.4599  0.9259  1.5690
  687MOL0     H90636  11.604  11.363   8.279  3.4338  1.0034  0.3928
  687MOL0     H90637  11.814  11.519   8.238  1.1821  0.1363  0.4005
  687MOL0     H90638  12.140  11.470   8.234  1.0543 -1.6577 -1.3889
  687MOL0     H90639  12.027  11.593   8.185 -1.1472 -1.2385  1.6591
  687MOL0     H90640  12.218  11.600   8.060  0.1273 -0.5019  0.4633
  687MOL0     H90641  12.071  11.576   7.950 -0.4457 -0.5213 -1.2192
  687MOL0     H90642  12.248  11.350   8.017 -1.1447 -0.6536  0.4799
  687MOL0     H90643  12.128  11.368   7.888  0.4524  0.5096  0.4661
  687MOL0     H90644  12.381  11.366   7.829  0.4749  0.2898 -0.9529
  687MOL0     H90645  12.391  11.521   7.910 -1.1056  0.3276  0.5414
  687MOL0     H90646  12.245  11.459   7.488  0.5023  1.6236 -2.9671
  687MOL0     H90647  12.414  11.416   7.315  0.7616  1.1705 -0.8707
  687MOL0     H90648  12.915  11.321   7.215  1.0452  0.1129  0.5197
  687MOL0     H90649  13.098  11.331   7.053 -0.1526  0.3145 -0.5845
  687MOL0     H90650  13.186  11.379   6.860  0.3889 -0.2063  1.2472
  687MOL0     H90651  13.336  11.381   6.923 -0.6298 -1.0907 -1.9274
  687MOL0     H90652  13.237  11.600   6.721 -2.4515 -1.3024  0.3977
  687MOL0     H90653  13.285  11.446   6.664 -0.8786 -0.8339  2.4846
  687MOL0     H90654  13.513  11.461   6.739 -1.5656 -1.1740 -0.5949
  687MOL0     H90655  13.474  11.605   6.833 -0.6302 -1.1509  0.6102
  687MOL0     H90656  13.467  11.565   6.540 -2.6836 -0.3308 -0.2895
  687MOL0     H90657  13.380  11.705   6.611  0.7919 -0.2727 -2.6704
  687MOL0     H90658  13.681  11.640   6.669 -0.9715  0.2377  2.1472
  687MOL0     H90659  13.589  11.786   6.690 -1.5004  1.6934 -2.3463
  687MOL0     H90660  13.643  11.658   6.410 -1.1208 -1.9574  0.4358
  687MOL0     H90661  13.751  11.772   6.485 -1.2305 -0.1804  1.8743
  687MOL0     H90662  13.539  11.843   6.306  1.9902  1.6916 -0.8926
  687MOL0     H90663  13.467  11.879   6.456 -1.6964  1.6774 -1.1298
  687MOL0     H90664  13.568  12.072   6.361 -0.2580  0.4253 -0.9823
  687MOL0     H90665  13.722  11.996   6.351 -0.1982  1.8965  1.6570
  687MOL0     H90666  13.111  11.747   7.087 -0.7899  0.7004  1.2816
  687MOL0     H90667  12.943  11.735   7.263 -4.6834 -0.5320 -1.3674
  687MOL0     H90668  12.713  11.575   7.574  2.8824 -5.1749 -2.9608
  687MOL0     H90669  12.548  11.617   7.745  0.2608 -3.7843  1.3012
  687MOL0     H90670  10.706  10.977   7.600 -1.0362  0.5254 -0.4686
  687MOL0     H90671  10.633  10.858   7.424 -0.2456  2.2392  0.1751
  687MOL0     H90672  10.571  10.560   7.205  0.1100  1.3055 -0.9474
  687MOL0     H90673  10.477  10.362   7.089 -0.7293 -0.8770 -1.4707
  687MOL0     H90674  10.393  10.263   6.715  3.6196 -1.9797 -0.6047
  687MOL0     H90675  10.345  10.326   6.878 -1.2350 -3.1617  1.7518
  687MOL0     H90676  10.437  10.043   6.795  0.8506 -0.5003  0.2857
  687MOL0     H90677  10.383  10.079   6.949  2.4320 -1.5875 -1.5494
  687MOL0     H90678  10.228  10.066   6.695 -0.1131 -0.5207 -0.4928
  687MOL0     H90679  10.166  10.173   6.816 -0.1724  0.8473 -0.7851
  687MOL0     H90680  10.223   9.897   6.900  1.6568  0.2730 -1.9341
  687MOL0     H90681  10.084  10.004   6.956 -2.8481 -1.3027 -1.4380
  687MOL0     H90682   9.941   9.866   6.585 -1.4857  1.1824  1.1775
  687MOL0     H90683  10.722  10.445   6.750 -2.0369 -1.0912 -0.2099
  687MOL0     H90684  10.822  10.634   6.859 -0.7099  1.7073 -0.9283
  688MOL0     O90685   7.683   1.815   1.230 -0.0354 -0.1534  0.1004
  688MOL0     C90686   7.663   1.764   1.119 -0.0778  0.0361 -0.1937
  688MOL0     O90687   7.764   1.715   1.039 -0.0041 -0.1531  0.0553
  688MOL0     C90688   7.897   1.717   1.069 -0.6029  0.5174  0.3267
  688MOL0     C90689   7.989   1.795   0.991  0.3125  0.0049 -0.3190
  688MOL0     C90690   8.117   1.830   1.043 -0.0833  0.0724  1.0254
  688MOL0     C90691   8.154   1.772   1.164 -0.2731 -0.2404  0.4251
  688MOL0     O90692   8.282   1.787   1.195 -0.0575  0.8671 -0.0505
  688MOL0     C90693   8.335   1.754   1.324  0.1380 -0.5099  1.0808
  688MOL0     C90694   8.482   1.767   1.333  0.5224  0.2973 -1.0729
  688MOL0     C90695   8.553   1.678   1.238  0.0481  0.4370  0.1070
  688MOL0     C90696   8.707   1.687   1.269  0.0398  0.3109  0.8388
  688MOL0     C90697   8.796   1.614   1.172 -0.2773  0.3762 -0.5105
  688MOL0     C90698   8.801   1.693   1.042  0.0509 -0.3381  0.4672
  688MOL0     C90699   8.888   1.620   0.941 -0.1304 -0.6672  0.9155
  688MOL0     C90700   8.870   1.655   0.790  0.2920  0.5493  0.3934
  688MOL0     N90701   8.963   1.565   0.726 -0.0828 -0.3286  1.0355
  688MOL0     C90702   8.965   1.428   0.707 -0.2755  1.0015  0.7922
  688MOL0     C90703   9.084   1.401   0.644  0.1108 -0.0238 -0.3582
  688MOL0     C90704   9.126   1.255   0.633 -0.2193  0.0637 -0.1639
  688MOL0     C90705   9.160   1.188   0.761 -0.2988  0.3737  0.3397
  688MOL0     C90706   9.040   1.103   0.811  0.0570  0.5026 -0.4184
  688MOL0     C90707   9.050   1.065   0.960  0.2784  0.2640  0.0201
  688MOL0     O90708   9.164   0.994   0.993  0.2869  0.5826  0.2371
  688MOL0     C90709   9.141   0.879   1.064  0.7388  0.0475  0.0419
  688MOL0     C90710   9.105   0.872   1.204  0.5216 -0.0521 -0.1684
  688MOL0     C90711   9.070   0.753   1.266 -0.1386  0.3968  0.2292
  688MOL0     C90712   9.058   0.639   1.190 -0.1709 -0.2246 -0.6483
  688MOL0     C90713   9.019   0.507   1.262 -0.8204 -1.0773  0.5682
  688MOL0     O90714   9.057   0.399   1.197  0.6122  0.6501 -0.4544
  688MOL0     C90715   9.118   0.286   1.252 -0.5152  0.7435 -0.6484
  688MOL0     C90716   9.063   0.231   1.371  0.1800 -0.4258  0.3825
  688MOL0     C90717   9.128   0.128   1.434 -0.1228 -0.1306 -0.0909
  688MOL0     C90718   9.249   0.078   1.384 -0.9415  0.7716  0.6961
  688MOL0     O90719   9.313  -0.014   1.468  0.4187  0.3662  0.2066
  688MOL0     C90720   9.445  -0.064   1.443  0.0973  0.7868 -1.7185
  688MOL0     C90721   9.448  -0.158   1.322 -0.1125  0.1745 -0.1015
  688MOL0     C90722   9.594  -0.170   1.274  0.6755  0.2932  0.4844
  688MOL0     C90723   9.623  -0.310   1.211 -0.4902 -0.4452 -0.3152
  688MOL0     C90724   9.764  -0.327   1.171  0.2702 -1.3434 -0.0065
  688MOL0     C90725   9.871  -0.250   1.254  0.2974 -1.3807  0.0724
  688MOL0     C90726  10.017  -0.262   1.207 -0.0042 -0.3018  0.1015
  688MOL0     C90727  10.117  -0.209   1.301  0.1650 -0.2065  0.3945
  688MOL0    Cl90728  10.266  -0.181   1.212 -0.5552  0.2403 -0.2811
  688MOL0     C90729   9.308   0.142   1.267 -0.1285  0.3518  1.1846
  688MOL0     C90730   9.240   0.246   1.202 -0.0298  0.6092  1.3299
  688MOL0     O90731   8.961   0.508   1.366  0.4612 -0.1961 -0.6145
  688MOL0     C90732   9.097   0.642   1.054  0.7966 -0.2223 -0.3745
  688MOL0     C90733   9.122   0.763   0.991 -1.2688  0.4398 -0.4759
  688MOL0     N90734   9.162   1.517   0.638  0.0891 -0.1206  0.8659
  688MOL0     N90735   9.082   1.614   0.673 -0.3297  0.6965  0.1404
  688MOL0     C90736   8.071   1.678   1.236  0.9559 -0.2993 -0.5795
  688MOL0     C90737   7.946   1.650   1.181 -0.2204  0.8887 -1.3463
  688MOL0     C90738   7.521   1.765   1.067 -0.2002  0.1596  0.0920
  688MOL0     C90739   7.485   1.707   0.946 -0.0413 -0.2451 -0.2034
  688MOL0     C90740   7.354   1.724   0.900  0.4765 -0.4056  0.3255
  688MOL0     C90741   7.256   1.798   0.963 -0.0777 -0.6291  0.2693
  688MOL0     O90742   7.120   1.805   0.937  0.2351  0.3324 -0.0808
  688MOL0     C90743   7.071   1.732   0.821 -0.5143  0.0358 -0.4392
  688MOL0     C90744   6.943   1.812   0.764 -0.9913 -0.1294 -0.5112
  688MOL0     C90745   6.891   1.722   0.656  0.5819  0.6814  0.4761
  688MOL0     C90746   6.746   1.748   0.607 -0.3692  0.2063 -0.1808
  688MOL0     C90747   6.653   1.784   0.715 -0.4149 -0.2091 -0.1347
  688MOL0     C90748   6.593   1.792   0.823 -0.5672 -0.1513 -0.2762
  688MOL0     C90749   7.293   1.855   1.085  0.7706  0.4662 -0.2535
  688MOL0     C90750   7.425   1.845   1.125  1.7228 -0.3495 -0.3294
  688MOL0     H90751   7.955   1.841   0.900  0.9869 -1.1297 -1.1790
  688MOL0     H90752   8.191   1.889   0.991 -0.6885  0.3541  0.4766
  688MOL0     H90753   8.322   1.647   1.344 -0.1729 -0.9514 -1.1706
  688MOL0     H90754   8.287   1.816   1.400  1.6105  1.2079  0.6788
  688MOL0     H90755   8.507   1.731   1.433  1.5120 -0.8770 -1.7149
  688MOL0     H90756   8.516   1.870   1.326  0.6381  0.2207 -1.6993
  688MOL0     H90757   8.523   1.725   1.144 -3.6569 -0.2760  0.7603
  688MOL0     H90758   8.514   1.576   1.243  1.4758 -0.2897 -2.1132
  688MOL0     H90759   8.735   1.793   1.270 -0.1781  0.3818 -0.0720
  688MOL0     H90760   8.725   1.644   1.368 -0.3047 -2.3223 -0.1829
  688MOL0     H90761   8.763   1.510   1.162  0.8246 -0.3255  2.2694
  688MOL0     H90762   8.898   1.599   1.208  0.1287 -1.6372 -2.3167
  688MOL0     H90763   8.840   1.795   1.054 -0.9907 -0.0392  1.5030
  688MOL0     H90764   8.693   1.699   1.024  0.1336 -1.1522 -0.3848
  688MOL0     H90765   8.989   1.662   0.951 -1.2869  2.9214 -0.6627
  688MOL0     H90766   8.877   1.514   0.964 -0.1148 -1.4414 -2.1619
  688MOL0     H90767   8.898   1.757   0.762  4.6434 -1.2542 -3.0328
  688MOL0     H90768   8.767   1.630   0.766  0.7833 -1.1411 -0.0683
  688MOL0     H90769   8.878   1.365   0.724  0.3782 -0.0869  0.2281
  688MOL0     H90770   9.213   1.244   0.569 -1.2875  0.4233 -1.7227
  688MOL0     H90771   9.040   1.204   0.587 -0.5391  0.1499  0.3243
  688MOL0     H90772   9.179   1.270   0.831  2.4824  1.7442 -1.8170
  688MOL0     H90773   9.253   1.130   0.759  1.0985  2.5235  0.1612
  688MOL0     H90774   8.952   1.164   0.789  1.0033  0.9577 -3.4017
  688MOL0     H90775   9.033   1.008   0.758 -0.1725  0.6330 -0.6274
  688MOL0     H90776   8.963   1.002   0.979  2.3485 -2.4319  1.1482
  688MOL0     H90777   9.034   1.155   1.021 -6.8890  1.6734 -2.8326
  688MOL0     H90778   9.091   0.961   1.264 -0.4027 -0.4411  0.2026
  688MOL0     H90779   9.037   0.745   1.369 -2.3571 -0.9656 -0.5097
  688MOL0     H90780   8.965   0.265   1.403  1.3859  2.4148  1.3305
  688MOL0     H90781   9.080   0.076   1.516 -0.8072 -2.8487 -2.0955
  688MOL0     H90782   9.472  -0.120   1.532  0.8309 -0.1303 -2.4959
  688MOL0     H90783   9.518   0.017   1.436  1.3742 -0.3464 -1.8983
  688MOL0     H90784   9.386  -0.123   1.239 -0.1988  0.6160  0.1434
  688MOL0     H90785   9.416  -0.258   1.354 -0.4256  0.2492 -0.1737
  688MOL0     H90786   9.661  -0.136   1.354  1.5314 -1.7885  0.7127
  688MOL0     H90787   9.595  -0.100   1.190  2.1070 -1.1600 -0.7766
  688MOL0     H90788   9.590  -0.389   1.279  0.2105  0.0660  0.6431
  688MOL0     H90789   9.558  -0.319   1.124 -1.1995  1.9291 -0.0941
  688MOL0     H90790   9.789  -0.282   1.075  0.9204 -0.4556  0.5670
  688MOL0     H90791   9.779  -0.435   1.178  0.5444 -1.2349  1.5019
  688MOL0     H90792   9.874  -0.271   1.362 -0.9493 -0.2165  0.3710
  688MOL0     H90793   9.849  -0.144   1.235  0.5436 -1.3896 -0.2679
  688MOL0     H90794  10.019  -0.371   1.191 -1.3787  0.0057 -2.8205
  688MOL0     H90795  10.031  -0.207   1.114 -0.8961  2.5795  1.5437
  688MOL0     H90796  10.141  -0.284   1.377  0.6053 -3.2553 -2.5253
  688MOL0     H90797  10.068  -0.124   1.349 -1.3133 -1.9358  2.1669
  688MOL0     H90798   9.406   0.125   1.225 -0.7070  3.1760 -1.6789
  688MOL0     H90799   9.294   0.299   1.125 -0.5828 -2.3609 -1.3084
  688MOL0     H90800   9.089   0.547   1.002  3.1638 -0.3784 -0.5553
  688MOL0     H90801   9.149   0.770   0.886  3.0485  0.6032  0.4441
  688MOL0     H90802   8.108   1.631   1.326 -1.1965 -0.9048  0.0473
  688MOL0     H90803   7.882   1.583   1.237 -0.1749  0.3094 -1.9748
  688MOL0     H90804   7.549   1.642   0.887 -0.5743  0.0062 -1.0866
  688MOL0     H90805   7.340   1.670   0.807  0.4838  1.4598 -0.8199
  688MOL0     H90806   7.055   1.625   0.837 -1.3217 -0.0401 -1.6987
  688MOL0     H90807   7.145   1.742   0.742 -2.7142  1.1871 -2.4682
  688MOL0     H90808   6.868   1.839   0.838 -0.7878 -0.8198 -0.0491
  688MOL0     H90809   6.979   1.903   0.714  1.3274 -0.8701 -0.3325
  688MOL0     H90810   6.881   1.616   0.683 -2.0009  0.6844 -0.1227
  688MOL0     H90811   6.953   1.728   0.566 -1.0149 -1.1996 -0.8504
  688MOL0     H90812   6.764   1.828   0.534  3.5542 -0.3294 -0.0227
  688MOL0     H90813   6.711   1.672   0.536  2.2909 -0.6067 -0.7118
  688MOL0     H90814   6.527   1.792   0.906  0.7898 -3.0183  0.9257
  688MOL0     H90815   7.215   1.911   1.136  0.9365  1.4166 -1.0235
  688MOL0     H90816   7.463   1.892   1.215 -1.0685 -1.1623  1.4291
  689MOL0     O90817   0.675   8.224   2.940 -0.0313  0.5947 -0.2585
  689MOL0     C90818   0.781   8.277   2.972 -0.2002  0.4220 -0.2771
  689MOL0     O90819   0.827   8.389   2.931 -0.2028 -0.0196 -0.8929
  689MOL0     C90820   0.765   8.487   2.854  0.0980  0.6435  0.5064
  689MOL0     C90821   0.853   8.565   2.786 -0.6174 -0.3085 -0.0882
  689MOL0     C90822   0.809   8.677   2.715  0.3945  0.3124  0.0066
  689MOL0     C90823   0.674   8.702   2.679 -0.5486  0.2749 -0.3884
  689MOL0     O90824   0.636   8.812   2.604 -0.0900 -0.2511 -0.8478
  689MOL0     C90825   0.743   8.911   2.563  0.1018  0.6702  0.4807
  689MOL0     C90826   0.669   9.028   2.481  0.2424 -0.5439  0.0457
  689MOL0     C90827   0.676   9.161   2.565 -0.1739 -0.5198  0.8662
  689MOL0     C90828   0.594   9.148   2.687 -0.2668  0.7395 -1.0134
  689MOL0     C90829   0.597   9.282   2.763 -0.2640  0.4857 -0.1295
  689MOL0     C90830   0.471   9.300   2.837  0.3568  0.8078  0.3078
  689MOL0     C90831   0.478   9.421   2.932  0.3863  0.4652 -0.4621
  689MOL0     C90832   0.482   9.563   2.866  0.0165  0.4305 -0.1216
  689MOL0     N90833   0.486   9.686   2.950  1.2861  0.6136 -0.2107
  689MOL0     C90834   0.545   9.695   3.074 -0.2400  0.3242 -0.7949
  689MOL0     C90835   0.554   9.822   3.098 -0.4352 -0.3290  1.2081
  689MOL0     C90836   0.593   9.883   3.222 -0.7265 -0.2809  0.1739
  689MOL0     C90837   0.743   9.904   3.211  0.4514  0.3169  0.1898
  689MOL0     C90838   0.792  10.003   3.326 -1.0790 -0.3182 -0.3629
  689MOL0     C90839   0.785  10.152   3.296 -0.3264 -0.6352 -0.6592
  689MOL0     O90840   0.818  10.219   3.414 -0.1211  0.4055  0.2042
  689MOL0     C90841   0.817  10.356   3.415 -0.5591  0.9306  0.6224
  689MOL0     C90842   0.869  10.421   3.524 -0.4782  0.3855  0.1627
  689MOL0     C90843   0.902  10.555   3.514  0.0970  0.1000  1.1490
  689MOL0     C90844   0.875  10.636   3.400 -0.7124 -1.5416 -0.1176
  689MOL0     C90845   0.900  10.785   3.405  0.8257  0.0683 -0.0408
  689MOL0     O90846   0.844  10.863   3.303 -0.2018  0.1938  0.5297
  689MOL0     C90847   0.813  10.998   3.323 -0.6548  1.2363  0.1483
  689MOL0     C90848   0.819  11.082   3.431  0.8149  0.1742 -0.4342
  689MOL0     C90849   0.778  11.217   3.414 -0.0874  0.8233  0.5942
  689MOL0     C90850   0.723  11.262   3.288 -0.5377 -0.5094  0.6366
  689MOL0     O90851   0.676  11.390   3.262  1.0712  0.1923 -0.1944
  689MOL0     C90852   0.710  11.497   3.356 -0.4180  0.6268  0.0158
  689MOL0     C90853   0.673  11.633   3.303  0.4641  0.4072 -0.4115
  689MOL0     C90854   0.724  11.666   3.160 -0.1335 -0.2396 -1.1516
  689MOL0     C90855   0.674  11.798   3.103 -0.0543 -0.7947  0.4596
  689MOL0     C90856   0.739  11.807   2.963 -0.1738 -0.3366  0.5703
  689MOL0     C90857   0.654  11.737   2.857  0.2246  0.8666 -0.8696
  689MOL0     C90858   0.742  11.710   2.731 -0.0029 -0.1898  0.1424
  689MOL0     C90859   0.651  11.676   2.612  0.1452 -0.4069 -0.7707
  689MOL0    Cl90860   0.731  11.568   2.483  0.0943 -0.6872  0.3512
  689MOL0     C90861   0.728  11.178   3.180 -1.0361 -0.2155  0.3713
  689MOL0     C90862   0.772  11.049   3.195 -0.6679 -0.0281 -0.4489
  689MOL0     O90863   0.956  10.832   3.502 -0.4736  0.5262 -0.0320
  689MOL0     C90864   0.797  10.579   3.300  0.6124  0.6142 -0.5398
  689MOL0     C90865   0.775  10.439   3.304  0.7504 -0.0927  0.3842
  689MOL0     N90866   0.522   9.889   2.980 -0.6324 -0.0843 -0.2936
  689MOL0     N90867   0.473   9.809   2.891  0.6805 -0.2110 -0.1718
  689MOL0     C90868   0.588   8.609   2.728 -0.0665 -0.2388 -0.6658
  689MOL0     C90869   0.629   8.510   2.826  0.5236 -0.4112 -0.0996
  689MOL0     C90870   0.864   8.192   3.060 -0.3261 -0.3158 -0.2076
  689MOL0     C90871   0.822   8.086   3.141 -0.6415  0.5903 -0.0493
  689MOL0     C90872   0.919   8.024   3.226  0.4714  0.6852  0.5087
  689MOL0     C90873   1.056   8.053   3.230  0.8822 -0.6780 -0.2453
  689MOL0     O90874   1.154   7.989   3.299 -0.8953 -0.4837  0.2777
  689MOL0     C90875   1.138   7.874   3.379  0.7466 -0.0576  0.2353
  689MOL0     C90876   1.123   7.760   3.283 -0.5472  0.6981  0.0159
  689MOL0     C90877   1.082   7.637   3.358  0.6210  0.3953 -0.3806
  689MOL0     C90878   1.084   7.509   3.266 -0.7515  0.0200 -0.0311
  689MOL0     C90879   1.195   7.410   3.288 -0.2447 -0.5300  0.5141
  689MOL0     C90880   1.285   7.331   3.306 -0.2831  0.3953 -0.1976
  689MOL0     C90881   1.091   8.163   3.150 -0.1685 -0.9125  0.0987
  689MOL0     C90882   0.999   8.225   3.069  0.1256 -0.3585 -0.6239
  689MOL0     H90883   0.960   8.549   2.777  0.0392  2.5436  1.3639
  689MOL0     H90884   0.893   8.734   2.678 -1.2815  2.7740 -0.2599
  689MOL0     H90885   0.807   8.854   2.496 -3.1185 -0.6937 -1.6717
  689MOL0     H90886   0.807   8.960   2.637  0.6807 -0.7322  0.9358
  689MOL0     H90887   0.569   8.997   2.451  0.0597  2.8574 -3.5527
  689MOL0     H90888   0.729   9.042   2.391  2.2182  3.4462  1.7304
  689MOL0     H90889   0.659   9.249   2.502  1.6572  0.3470  1.5232
  689MOL0     H90890   0.776   9.180   2.606 -0.9816  4.0427  1.2738
  689MOL0     H90891   0.491   9.121   2.661 -0.9428  2.5327 -0.3634
  689MOL0     H90892   0.632   9.069   2.753 -0.2416  0.1401 -1.7266
  689MOL0     H90893   0.610   9.368   2.697 -3.9557  0.7677 -0.6739
  689MOL0     H90894   0.686   9.273   2.826 -0.2300 -1.6156 -0.4132
  689MOL0     H90895   0.444   9.210   2.892  0.3383  1.6566  1.7679
  689MOL0     H90896   0.392   9.310   2.762 -1.4837 -1.5569  1.8132
  689MOL0     H90897   0.381   9.420   2.984  0.0149 -2.1236 -1.0624
  689MOL0     H90898   0.564   9.403   2.997 -1.3563  0.8190  2.0983
  689MOL0     H90899   0.408   9.565   2.786 -1.5165 -1.0808  1.1862
  689MOL0     H90900   0.577   9.571   2.812  0.4063  0.7813  0.5964
  689MOL0     H90901   0.571   9.620   3.148  0.2673  0.2416 -1.0577
  689MOL0     H90902   0.572   9.831   3.315  1.7139 -0.3134  0.7744
  689MOL0     H90903   0.539   9.978   3.229 -0.3221  0.0506 -0.9746
  689MOL0     H90904   0.766   9.953   3.116 -1.6586 -0.3199 -0.7123
  689MOL0     H90905   0.802   9.813   3.217  0.3900  0.2467 -0.2462
  689MOL0     H90906   0.741   9.979   3.420  1.3352 -0.6898  0.9398
  689MOL0     H90907   0.898   9.979   3.342 -0.9387  0.0062 -0.8103
  689MOL0     H90908   0.691  10.190   3.255  1.6779  4.6966 -1.1452
  689MOL0     H90909   0.845  10.182   3.210  1.2291  0.2554  0.6682
  689MOL0     H90910   0.890  10.377   3.620 -0.5483  1.4337  0.6716
  689MOL0     H90911   0.942  10.618   3.592 -0.0703  0.2612  1.1041
  689MOL0     H90912   0.852  11.047   3.528  2.4491 -1.7889 -1.6217
  689MOL0     H90913   0.781  11.281   3.501  0.8794 -1.4774  2.3528
  689MOL0     H90914   0.814  11.478   3.385  0.3121  0.2956 -2.5847
  689MOL0     H90915   0.658  11.482   3.451 -0.0466  1.2145  0.3216
  689MOL0     H90916   0.705  11.703   3.381  1.4987 -0.9224  0.3937
  689MOL0     H90917   0.563  11.636   3.303  0.2742 -0.3281 -4.9122
  689MOL0     H90918   0.700  11.579   3.098 -1.1104 -1.0240  0.2727
  689MOL0     H90919   0.833  11.669   3.165 -0.0222 -1.6723 -2.0184
  689MOL0     H90920   0.565  11.787   3.093 -0.7719  4.3317  0.1226
  689MOL0     H90921   0.686  11.887   3.165 -1.9827 -0.2429  0.1262
  689MOL0     H90922   0.839  11.764   2.973 -1.2069 -2.9174  0.4079
  689MOL0     H90923   0.746  11.913   2.935 -2.9889 -0.0629  0.6547
  689MOL0     H90924   0.573  11.804   2.828 -0.6038 -1.0975 -3.4794
  689MOL0     H90925   0.621  11.637   2.889 -0.3117  0.5156 -2.4393
  689MOL0     H90926   0.797  11.800   2.701  1.9977  0.0525  3.8966
  689MOL0     H90927   0.810  11.626   2.746  0.1087 -0.5639 -2.1692
  689MOL0     H90928   0.626  11.772   2.567  0.9877  1.0058  1.5739
  689MOL0     H90929   0.556  11.637   2.650  1.1887 -1.5761  0.7933
  689MOL0     H90930   0.681  11.204   3.086  0.1964 -0.9167 -0.4617
  689MOL0     H90931   0.760  10.975   3.117 -0.3144 -1.0245  0.4140
  689MOL0     H90932   0.770  10.645   3.218  0.6649 -0.9989 -1.9167
  689MOL0     H90933   0.708  10.395   3.231  1.2812  0.0126 -0.1774
  689MOL0     H90934   0.484   8.614   2.697 -0.3657 -2.1739 -0.1282
  689MOL0     H90935   0.556   8.450   2.880  0.5820 -0.5917 -0.2217
  689MOL0     H90936   0.721   8.049   3.150 -0.0925 -0.4749  2.7270
  689MOL0     H90937   0.880   7.954   3.300  0.6756 -2.9291 -2.4972
  689MOL0     H90938   1.048   7.882   3.441  1.8769  2.8305  1.6935
  689MOL0     H90939   1.230   7.867   3.438  0.2714  1.7904  1.2494
  689MOL0     H90940   1.044   7.786   3.212 -2.2156  2.4768  2.3733
  689MOL0     H90941   1.218   7.744   3.232 -0.5189 -1.8432  0.7194
  689MOL0     H90942   0.980   7.651   3.395  0.7287 -2.3498  1.2075
  689MOL0     H90943   1.134   7.619   3.453 -0.6506 -0.4435  0.1918
  689MOL0     H90944   0.993   7.449   3.265 -0.8014  0.0820  0.6304
  689MOL0     H90945   1.093   7.544   3.163  0.7804 -4.4688 -1.6578
  689MOL0     H90946   1.357   7.255   3.330 -0.0375 -0.5007 -3.3664
  689MOL0     H90947   1.191   8.205   3.152  1.1887 -3.8179 -0.9375
  689MOL0     H90948   1.030   8.312   3.013 -1.6055  0.5902 -0.1792
  690MOL0     O90949   1.495   1.254   2.372  0.2151 -0.0414  0.1830
  690MOL0     C90950   1.601   1.210   2.334 -0.7788 -0.6109 -0.1739
  690MOL0     O90951   1.705   1.172   2.418  0.3829  0.6048 -0.1993
  690MOL0     C90952   1.715   1.242   2.537 -0.3246 -0.3272  0.3972
  690MOL0     C90953   1.724   1.383   2.531 -0.0841  1.0138  0.4629
  690MOL0     C90954   1.758   1.456   2.637 -1.2414 -0.2426  0.3605
  690MOL0     C90955   1.770   1.391   2.765  0.2169 -0.4101  0.5571
  690MOL0     O90956   1.796   1.457   2.878  0.5445 -0.5254  0.1682
  690MOL0     C90957   1.679   1.487   2.959 -1.4048  0.7117 -0.2166
  690MOL0     C90958   1.602   1.610   2.911 -0.2837  0.3459 -0.2140
  690MOL0     C90959   1.693   1.730   2.892  0.2146 -0.3955  0.5844
  690MOL0     C90960   1.757   1.787   3.029 -0.1493 -0.0589  0.6246
  690MOL0     C90961   1.826   1.920   3.006 -0.1244  0.2596  0.2361
  690MOL0     C90962   1.935   1.913   2.902  0.0586 -0.8458  0.2149
  690MOL0     C90963   2.034   2.028   2.911  0.9523  0.6652  0.0397
  690MOL0     C90964   2.109   2.031   2.781 -0.2631 -0.7184 -0.0121
  690MOL0     N90965   2.221   2.133   2.780  0.5099 -0.5529 -0.4722
  690MOL0     C90966   2.349   2.100   2.817 -0.3239 -0.8068 -0.5292
  690MOL0     C90967   2.410   2.217   2.820  0.0958  0.3104  0.4097
  690MOL0     C90968   2.561   2.235   2.829 -0.5614  0.1534  0.8738
  690MOL0     C90969   2.632   2.299   2.715  0.3832  0.6896  0.9201
  690MOL0     C90970   2.573   2.430   2.663 -0.0535  0.0013 -0.7049
  690MOL0     C90971   2.687   2.498   2.583  0.1002 -0.0993 -1.3878
  690MOL0     O90972   2.632   2.601   2.508 -0.0706 -0.6531 -0.0748
  690MOL0     C90973   2.713   2.690   2.447  0.7169 -0.7716  0.6348
  690MOL0     C90974   2.645   2.786   2.366 -0.2753  0.5165  0.2702
  690MOL0     C90975   2.716   2.893   2.307 -1.0407  0.5299  0.0697
  690MOL0     C90976   2.855   2.907   2.319 -1.0423 -0.8898 -0.7356
  690MOL0     C90977   2.926   3.017   2.243  0.4281 -1.0176  0.8541
  690MOL0     O90978   2.836   3.115   2.190  0.1244  0.0759  0.2395
  690MOL0     C90979   2.905   3.228   2.149 -0.9326 -0.3911  0.8890
  690MOL0     C90980   2.960   3.238   2.021  0.3910 -0.4231 -0.4767
  690MOL0     C90981   3.017   3.357   1.972 -0.0466  0.6450  0.8744
  690MOL0     C90982   3.021   3.467   2.054 -0.0117 -0.2204  0.0839
  690MOL0     O90983   3.081   3.585   2.007 -0.2223 -0.5572 -0.4773
  690MOL0     C90984   3.080   3.701   2.097 -0.1947  0.2813 -0.0912
  690MOL0     C90985   3.160   3.805   2.019  0.9392  0.6647  0.8214
  690MOL0     C90986   3.186   3.919   2.106  0.1206  0.3637 -0.0062
  690MOL0     C90987   3.161   4.052   2.030  0.4355  0.5018 -1.0027
  690MOL0     C90988   3.166   4.177   2.120  0.0723 -0.9846 -0.4626
  690MOL0     C90989   3.050   4.183   2.219 -1.4745 -0.7845  0.5987
  690MOL0     C90990   2.919   4.230   2.158 -1.3240 -0.0881 -0.0971
  690MOL0     C90991   2.818   4.250   2.270 -0.5641 -0.0574 -0.3205
  690MOL0    Cl90992   2.652   4.271   2.206  0.5710 -0.2377  0.4476
  690MOL0     C90993   2.966   3.457   2.184 -0.6356  0.0781 -0.5457
  690MOL0     C90994   2.912   3.340   2.232 -0.1305 -0.8958 -0.9339
  690MOL0     O90995   3.040   3.018   2.232 -0.0408  0.6858 -0.8376
  690MOL0     C90996   2.927   2.802   2.387 -0.0552  0.2261 -0.9561
  690MOL0     C90997   2.854   2.689   2.441 -0.6942  0.4327  0.0487
  690MOL0     N90998   2.317   2.316   2.783 -0.8951  0.1604  0.1210
  690MOL0     N90999   2.210   2.264   2.754 -0.5153 -0.0537 -0.0594
  690MOL0     C91000   1.740   1.252   2.773 -0.5302  0.2833  0.3829
  690MOL0     C91001   1.726   1.178   2.660 -0.3051 -0.6248  0.3103
  690MOL0     C91002   1.610   1.171   2.194  0.4327 -0.2405  0.2547
  690MOL0     C91003   1.732   1.123   2.154  0.0981  0.5472  0.1958
  690MOL0     C91004   1.750   1.072   2.024 -0.7673 -0.6332  0.3012
  690MOL0     C91005   1.647   1.080   1.931 -0.0480 -1.0657 -0.3604
  690MOL0     O91006   1.638   1.018   1.807  0.8110  0.0044  0.1626
  690MOL0     C91007   1.756   0.981   1.733  0.0069  0.3929 -0.4219
  690MOL0     C91008   1.746   0.986   1.585  1.0613  0.2688 -0.5210
  690MOL0     C91009   1.849   1.071   1.513  0.0453 -0.2418 -0.2236
  690MOL0     C91010   1.867   1.047   1.365  0.4026 -0.2237 -0.4211
  690MOL0     C91011   1.941   1.156   1.303  0.2738 -0.0268 -0.2968
  690MOL0     C91012   2.009   1.243   1.263 -0.5667  0.3703 -0.4567
  690MOL0     C91013   1.528   1.134   1.970  0.0645 -0.4724  0.2634
  690MOL0     C91014   1.511   1.181   2.094 -1.1906  0.0047 -0.7705
  690MOL0     H91015   1.713   1.423   2.431 -2.0312 -3.4219 -1.3817
  690MOL0     H91016   1.802   1.555   2.629  1.6179 -1.4160  0.2118
  690MOL0     H91017   1.704   1.503   3.064 -1.6784 -0.6550  0.0745
  690MOL0     H91018   1.615   1.399   2.965  2.3857 -2.3673 -1.0280
  690MOL0     H91019   1.520   1.630   2.981 -2.0222 -0.1725 -2.0111
  690MOL0     H91020   1.553   1.580   2.818  2.4109 -1.2731 -1.1939
  690MOL0     H91021   1.625   1.808   2.857 -0.0642  0.1017  2.1462
  690MOL0     H91022   1.775   1.710   2.821  1.9113  2.6316  1.5131
  690MOL0     H91023   1.665   1.790   3.090 -1.9379 -1.7457 -1.7754
  690MOL0     H91024   1.815   1.707   3.077 -0.7174 -0.6222  0.4009
  690MOL0     H91025   1.871   1.955   3.099  0.3607 -2.5183  1.1505
  690MOL0     H91026   1.750   1.994   2.982 -2.3202 -1.2821  2.0025
  690MOL0     H91027   1.885   1.910   2.805  2.4023 -3.2212 -1.0799
  690MOL0     H91028   1.996   1.822   2.914  3.8855  0.0420 -6.9658
  690MOL0     H91029   1.985   2.123   2.936  2.3897  0.8022  2.7420
  690MOL0     H91030   2.100   2.013   2.997 -0.2249  0.6617  0.9669
  690MOL0     H91031   2.041   2.056   2.699 -2.0393  1.3090  1.9625
  690MOL0     H91032   2.154   1.932   2.768 -1.0989 -1.1068 -0.0113
  690MOL0     H91033   2.383   2.000   2.841 -0.0652 -0.5766  0.0702
  690MOL0     H91034   2.600   2.135   2.848  1.1783  0.8286  1.1242
  690MOL0     H91035   2.574   2.301   2.915  1.3271 -0.1470  0.8604
  690MOL0     H91036   2.636   2.225   2.634  1.8012  1.6458  0.0774
  690MOL0     H91037   2.737   2.314   2.740  1.6797  0.8283 -3.6622
  690MOL0     H91038   2.492   2.397   2.597 -0.3105 -2.7250  0.8566
  690MOL0     H91039   2.535   2.506   2.732  0.6950  0.2198 -0.5241
  690MOL0     H91040   2.745   2.418   2.536  2.6280 -0.4133  1.9249
  690MOL0     H91041   2.758   2.537   2.655 -0.8694 -0.4363 -0.2113
  690MOL0     H91042   2.537   2.774   2.362 -0.2776  0.6354 -0.1836
  690MOL0     H91043   2.654   2.970   2.261 -1.5661 -1.0837 -2.1155
  690MOL0     H91044   2.956   3.153   1.954 -0.1845  0.2921 -1.3757
  690MOL0     H91045   3.054   3.337   1.872 -2.3549  0.7803 -0.0646
  690MOL0     H91046   3.127   3.691   2.195  2.5890  0.7023 -1.2932
  690MOL0     H91047   2.978   3.738   2.115  0.8884  1.8122  4.0170
  690MOL0     H91048   3.098   3.839   1.935 -0.0095  2.2078  2.1008
  690MOL0     H91049   3.251   3.753   1.988 -1.2384 -3.7172  0.8851
  690MOL0     H91050   3.288   3.907   2.144 -0.5175  0.0648  1.7095
  690MOL0     H91051   3.107   3.924   2.182  0.9821  3.2953  0.8511
  690MOL0     H91052   3.243   4.067   1.960  1.1384 -1.2125 -0.5782
  690MOL0     H91053   3.067   4.070   1.976  0.9593  4.1959 -0.9701
  690MOL0     H91054   3.169   4.266   2.057  2.5101 -1.8967 -1.7451
  690MOL0     H91055   3.261   4.176   2.175  0.8462  0.8345 -1.6631
  690MOL0     H91056   3.060   4.255   2.301 -0.3687 -0.3835  0.1319
  690MOL0     H91057   3.031   4.089   2.273 -4.0939  1.0865  3.2130
  690MOL0     H91058   2.933   4.319   2.096 -1.8356 -2.4270 -3.8760
  690MOL0     H91059   2.877   4.162   2.083 -0.1131  1.7207 -2.5411
  690MOL0     H91060   2.840   4.339   2.329  0.7012  1.4993 -2.9378
  690MOL0     H91061   2.806   4.168   2.342 -3.1858  0.8903  0.4413
  690MOL0     H91062   2.964   3.534   2.261  1.6541 -0.0748 -0.2445
  690MOL0     H91063   2.879   3.331   2.335  0.1553 -0.8193 -0.8335
  690MOL0     H91064   3.035   2.810   2.388 -0.0412  0.0540  0.0516
  690MOL0     H91065   2.914   2.610   2.485  0.0223  1.0372  0.1571
  690MOL0     H91066   1.757   1.200   2.867  1.1182 -0.6544 -0.3874
  690MOL0     H91067   1.732   1.070   2.667  3.8348 -0.5500  0.6473
  690MOL0     H91068   1.818   1.113   2.220 -0.6151 -4.8223  0.8135
  690MOL0     H91069   1.834   1.008   2.002 -0.6099 -1.1991  2.3478
  690MOL0     H91070   1.787   0.880   1.760 -0.3333  0.2258 -0.6519
  690MOL0     H91071   1.825   1.059   1.768 -0.8432 -0.1349  2.7018
  690MOL0     H91072   1.747   0.885   1.543 -1.5873 -1.4443  2.9992
  690MOL0     H91073   1.649   1.021   1.546  1.5331  0.8116 -1.2381
  690MOL0     H91074   1.946   1.053   1.561  1.0725  0.9348 -1.7501
  690MOL0     H91075   1.825   1.176   1.529 -1.0225 -0.9889  4.1568
  690MOL0     H91076   1.924   0.956   1.345  2.4500  1.4365 -2.7544
  690MOL0     H91077   1.772   1.033   1.313  2.2798 -1.5854 -3.7614
  690MOL0     H91078   2.084   1.316   1.239 -0.6273  0.4456 -0.4181
  690MOL0     H91079   1.444   1.131   1.902 -2.1133  1.4395  2.6303
  690MOL0     H91080   1.420   1.239   2.105 -1.5163 -0.3165 -1.6855
  691MOL0     O91081  11.153   4.133  10.326  0.1409  0.1570  0.4796
  691MOL0     C91082  11.039   4.115  10.289  0.4870  1.4844 -0.2213
  691MOL0     O91083  10.982   3.990  10.306 -0.1768 -0.2974  0.3868
  691MOL0     C91084  11.054   3.879  10.297  0.8098  0.9578  0.1904
  691MOL0     C91085  11.144   3.862  10.188 -0.5872 -0.2574  1.4671
  691MOL0     C91086  11.227   3.740  10.183  0.9821  0.0516  0.9984
  691MOL0     C91087  11.214   3.647  10.289  0.5672  1.0318 -1.1523
  691MOL0     O91088  11.285   3.531  10.301 -0.4942  0.1036  0.3169
  691MOL0     C91089  11.428   3.555  10.287  0.2651  0.5044  0.0169
  691MOL0     C91090  11.512   3.427  10.307  0.9680 -0.2766 -0.9690
  691MOL0     C91091  11.658   3.463  10.283 -0.5754  0.6486 -0.2914
  691MOL0     C91092  11.729   3.334  10.265 -0.1036  0.4768 -0.1903
  691MOL0     C91093  11.888   3.364  10.257  0.0936  0.6735  0.7058
  691MOL0     C91094  11.950   3.455  10.360 -0.1752  0.6728 -0.1462
  691MOL0     C91095  12.093   3.473  10.332  0.1863  0.2267 -0.4516
  691MOL0     C91096  12.152   3.577  10.419 -0.1490  0.7809  0.3612
  691MOL0     N91097  12.292   3.602  10.403 -0.0356  0.1898  0.4234
  691MOL0     C91098  12.344   3.686  10.304  0.4734 -0.9461  0.2564
  691MOL0     C91099  12.474   3.650  10.299  0.1694 -0.4897  1.0181
  691MOL0     C91100  12.591   3.726  10.237  0.4739 -0.1539  0.3484
  691MOL0     C91101  12.588   3.876  10.246 -0.0337 -0.4054 -0.1687
  691MOL0     C91102  12.606   3.929  10.375  0.2586  0.3159  0.3527
  691MOL0     C91103  12.542   4.065  10.391  0.4545 -0.9117 -0.5406
  691MOL0     O91104  12.399   4.056  10.414  0.4375 -0.4770 -0.7445
  691MOL0     C91105  12.340   4.160  10.476 -0.3947 -1.0142  0.5032
  691MOL0     C91106  12.228   4.135  10.549  0.3055  1.1415  0.5290
  691MOL0     C91107  12.155   4.227  10.618 -0.3882 -0.0681 -0.6235
  691MOL0     C91108  12.197   4.359  10.599 -0.2160 -0.1787 -0.8555
  691MOL0     C91109  12.112   4.465  10.659  0.3135 -0.4633  0.4108
  691MOL0     O91110  12.010   4.419  10.742  0.2700  0.0474 -0.1448
  691MOL0     C91111  11.912   4.509  10.782 -0.5357 -0.0293  0.2133
  691MOL0     C91112  11.789   4.451  10.787  0.8835 -0.0632  0.2456
  691MOL0     C91113  11.677   4.526  10.834 -0.7986  0.0366  0.1205
  691MOL0     C91114  11.693   4.656  10.877  0.0474 -0.9490 -0.4829
  691MOL0     O91115  11.585   4.733  10.936 -0.9902 -1.0446  0.3824
  691MOL0     C91116  11.448   4.698  10.901 -1.0023  0.7069  0.4600
  691MOL0     C91117  11.363   4.819  10.941  1.2815  0.4537  0.6657
  691MOL0     C91118  11.396   4.950  10.852 -0.3409  0.5412 -0.4620
  691MOL0     C91119  11.296   5.064  10.888  0.1959  0.7094  0.6051
  691MOL0     C91120  11.301   5.159  10.772  0.4791 -0.3889 -0.0517
  691MOL0     C91121  11.204   5.269  10.815 -0.6124 -0.1645  0.2443
  691MOL0     C91122  11.274   5.383  10.890 -0.6452 -0.7106 -0.3324
  691MOL0     C91123  11.203   5.526  10.909  0.5044  0.1307 -0.3290
  691MOL0    Cl91124  11.028   5.511  10.954  0.1377  0.2068  0.0932
  691MOL0     C91125  11.825   4.715  10.875 -0.5684 -0.1792 -1.1908
  691MOL0     C91126  11.936   4.634  10.841 -1.0753 -0.1367 -1.0652
  691MOL0     O91127  12.118   4.571  10.605  0.3517  0.6525 -0.0392
  691MOL0     C91128  12.311   4.396  10.526  0.8344 -0.4080 -0.4958
  691MOL0     C91129  12.373   4.294  10.470 -0.6497 -0.1223  0.0089
  691MOL0     N91130  12.487   3.537  10.377 -0.6955  0.1736 -0.7257
  691MOL0     N91131  12.378   3.509  10.438  0.2444  0.6879  0.3904
  691MOL0     C91132  11.112   3.661  10.387 -1.2723 -0.1181  0.4634
  691MOL0     C91133  11.032   3.775  10.389 -0.0037  0.5786  0.6210
  691MOL0     C91134  10.956   4.228  10.252 -0.2047 -0.9352  0.4441
  691MOL0     C91135  11.012   4.351  10.223  0.2465 -0.0984 -0.4769
  691MOL0     C91136  10.921   4.454  10.199  0.9835 -0.1600  0.6372
  691MOL0     C91137  10.784   4.442  10.190  0.1320  0.5126  0.5464
  691MOL0     O91138  10.703   4.547  10.164  0.0343 -0.6816  1.2784
  691MOL0     C91139  10.563   4.523  10.151  0.8018 -0.3943 -0.1498
  691MOL0     C91140  10.488   4.625  10.077  0.2634  0.1038 -0.7019
  691MOL0     C91141  10.334   4.624  10.060 -0.1939  0.2724 -0.3545
  691MOL0     C91142  10.292   4.730   9.958 -0.0619 -0.5640 -0.5029
  691MOL0     C91143  10.321   4.867   9.998  0.3603 -0.3115 -0.1856
  691MOL0     C91144  10.364   4.981  10.032  0.4560  0.4362  0.7047
  691MOL0     C91145  10.738   4.311  10.204  0.4962  0.1003 -0.5978
  691MOL0     C91146  10.823   4.208  10.230 -0.1104  0.8140 -0.3965
  691MOL0     H91147  11.160   3.930  10.105  0.8483 -2.7475 -0.4606
  691MOL0     H91148  11.304   3.733  10.106 -1.2233  2.1095 -1.5957
  691MOL0     H91149  11.459   3.640  10.350 -0.6364  0.7357  0.1542
  691MOL0     H91150  11.448   3.573  10.181  0.0642 -3.6670 -0.9062
  691MOL0     H91151  11.471   3.353  10.238 -5.0242  0.3650  1.3133
  691MOL0     H91152  11.494   3.409  10.413  0.1130  1.1091 -0.8492
  691MOL0     H91153  11.698   3.515  10.370  3.0978  1.4650 -2.2701
  691MOL0     H91154  11.671   3.540  10.206 -0.8070  2.2536  1.2159
  691MOL0     H91155  11.714   3.273  10.355  1.9617 -0.4626 -0.4370
  691MOL0     H91156  11.695   3.276  10.178 -2.6660  1.3069  0.1611
  691MOL0     H91157  11.915   3.387  10.154 -2.4817  1.3381  0.1208
  691MOL0     H91158  11.929   3.263  10.267 -2.0641 -0.5333 -1.5045
  691MOL0     H91159  11.929   3.407  10.455 -0.7719  0.0418 -0.5893
  691MOL0     H91160  11.906   3.555  10.369  1.0419  1.2269 -0.1213
  691MOL0     H91161  12.136   3.375  10.352 -0.9352 -0.6609 -2.1122
  691MOL0     H91162  12.103   3.499  10.226 -1.1620  2.5596 -0.0833
  691MOL0     H91163  12.138   3.532  10.518 -1.7935  1.3117  0.3968
  691MOL0     H91164  12.106   3.676  10.415 -0.8670  0.4291 -0.2649
  691MOL0     H91165  12.284   3.762  10.255 -0.1163 -1.9434 -0.6047
  691MOL0     H91166  12.602   3.706  10.130 -2.6230 -0.9042  0.0585
  691MOL0     H91167  12.677   3.679  10.286  1.3269  3.0384  2.2031
  691MOL0     H91168  12.489   3.907  10.211 -1.0119  0.2722  2.9422
  691MOL0     H91169  12.659   3.927  10.180 -0.2915  1.3819  0.8769
  691MOL0     H91170  12.574   3.854  10.448  1.2303  1.8647  2.4835
  691MOL0     H91171  12.713   3.933  10.397  1.2272 -0.3945 -3.5548
  691MOL0     H91172  12.554   4.114  10.294  1.9144 -2.7419 -1.3646
  691MOL0     H91173  12.589   4.132  10.463 -1.4844 -0.6040  0.5067
  691MOL0     H91174  12.190   4.034  10.557 -0.0625  0.9737 -2.4594
  691MOL0     H91175  12.070   4.189  10.675 -0.0705 -1.9137 -1.2954
  691MOL0     H91176  11.773   4.348  10.757 -4.9551  0.6007 -0.1586
  691MOL0     H91177  11.577   4.487  10.817 -1.2867  2.1604 -2.5031
  691MOL0     H91178  11.435   4.603  10.955 -0.8242  0.6968  0.4865
  691MOL0     H91179  11.432   4.682  10.794 -0.9729 -0.2587  0.5831
  691MOL0     H91180  11.369   4.844  11.048  0.3350 -1.0225  1.1052
  691MOL0     H91181  11.259   4.786  10.933  1.7165 -1.6151  2.4458
  691MOL0     H91182  11.403   4.917  10.747  0.6449  1.4605 -0.6979
  691MOL0     H91183  11.496   4.987  10.875  1.6528 -4.9524  1.3225
  691MOL0     H91184  11.202   5.009  10.891  0.3527  0.4433  0.7462
  691MOL0     H91185  11.315   5.102  10.989 -0.7444 -0.7246  1.3560
  691MOL0     H91186  11.263   5.115  10.679 -2.1144 -1.6618  1.4921
  691MOL0     H91187  11.404   5.186  10.750  1.2357 -2.8167  0.2132
  691MOL0     H91188  11.131   5.218  10.878  1.7082 -2.7159  1.0918
  691MOL0     H91189  11.167   5.303  10.718  2.6088 -3.5628 -2.4949
  691MOL0     H91190  11.293   5.353  10.993  1.2927  3.8349  0.9092
  691MOL0     H91191  11.365   5.400  10.833 -1.0206  0.1738 -0.6923
  691MOL0     H91192  11.195   5.584  10.817 -1.1510 -1.3289 -1.1590
  691MOL0     H91193  11.250   5.594  10.981 -0.6602 -1.8038  2.4157
  691MOL0     H91194  11.843   4.816  10.908  2.5782 -1.1184  0.3145
  691MOL0     H91195  12.035   4.675  10.857 -1.8828  1.3058  0.7450
  691MOL0     H91196  12.342   4.499  10.540 -1.6656  0.2724  0.7136
  691MOL0     H91197  12.474   4.316  10.437 -0.6573 -1.0748 -0.7184
  691MOL0     H91198  11.106   3.585  10.464 -1.5043 -0.9641 -0.3740
  691MOL0     H91199  10.965   3.783  10.475  0.8463 -4.3508  2.0691
  691MOL0     H91200  11.120   4.358  10.220  0.2344  0.6214  0.4630
  691MOL0     H91201  10.955   4.548  10.157  1.1405 -1.9470 -3.7880
  691MOL0     H91202  10.524   4.517  10.253  2.1083 -2.4162  0.2989
  691MOL0     H91203  10.533   4.428  10.106  0.9544 -0.4664 -0.1036
  691MOL0     H91204  10.519   4.707  10.142  2.0749 -1.5808  0.7012
  691MOL0     H91205  10.539   4.633   9.981  1.9150  2.4834  0.2858
  691MOL0     H91206  10.279   4.640  10.153  0.0028 -2.0935  0.2217
  691MOL0     H91207  10.300   4.528  10.021  2.6136 -1.1928  0.5685
  691MOL0     H91208  10.363   4.721   9.876  4.0832  2.7480  2.2497
  691MOL0     H91209  10.187   4.705   9.940 -0.2618 -0.0651 -0.0598
  691MOL0     H91210  10.400   5.075  10.068  0.6879 -0.1436  2.0516
  691MOL0     H91211  10.633   4.285  10.210  0.9485 -2.2904 -1.8101
  691MOL0     H91212  10.780   4.108  10.226 -0.3952  0.8960  0.4221
  692MOL0     O91213   5.351   2.789   3.064 -0.0031  0.6567  0.3556
  692MOL0     C91214   5.435   2.725   3.119 -0.4436 -0.4323 -0.4437
  692MOL0     O91215   5.439   2.588   3.135 -0.3902  0.2983 -0.5064
  692MOL0     C91216   5.324   2.511   3.112  0.1749 -0.3224 -0.1641
  692MOL0     C91217   5.239   2.474   3.215  0.4690 -0.8790  0.1421
  692MOL0     C91218   5.122   2.394   3.204 -0.8061 -1.0128 -0.1327
  692MOL0     C91219   5.101   2.335   3.078  0.7720  0.5070  0.3763
  692MOL0     O91220   5.007   2.249   3.041 -0.5409 -0.2514  0.3419
  692MOL0     C91221   4.912   2.218   3.134  0.7281 -0.0696 -0.3627
  692MOL0     C91222   4.801   2.128   3.078  0.0188 -0.1187 -0.3599
  692MOL0     C91223   4.676   2.215   3.019  0.1700 -0.1931 -0.9909
  692MOL0     C91224   4.597   2.301   3.121  0.7554  0.5972 -0.5383
  692MOL0     C91225   4.482   2.387   3.060 -0.1400  0.2409  0.1479
  692MOL0     C91226   4.385   2.439   3.169  0.7396  0.0484 -0.1445
  692MOL0     C91227   4.321   2.321   3.263  0.1931 -1.3493  0.7337
  692MOL0     C91228   4.208   2.376   3.357  0.5417 -0.0727 -0.2750
  692MOL0     N91229   4.129   2.281   3.442 -0.7188 -0.5659  1.0389
  692MOL0     C91230   4.161   2.147   3.466  0.3722 -0.9668  0.1817
  692MOL0     C91231   4.053   2.094   3.523 -0.4743  0.7460 -1.2445
  692MOL0     C91232   4.042   1.959   3.574 -0.6436  0.6530  0.5903
  692MOL0     C91233   3.953   1.943   3.698  0.0034  0.1335 -0.2668
  692MOL0     C91234   4.034   1.905   3.834  0.3301  0.2775  0.4714
  692MOL0     C91235   3.933   1.857   3.934 -0.3426  0.1287 -0.8416
  692MOL0     O91236   4.014   1.830   4.048  0.4841 -0.0804 -0.2341
  692MOL0     C91237   3.961   1.876   4.168 -0.3171 -0.5081 -0.3435
  692MOL0     C91238   4.048   1.940   4.258  0.5630  0.2069  0.8388
  692MOL0     C91239   3.990   1.985   4.375  0.5358 -0.5321  0.9510
  692MOL0     C91240   3.854   1.992   4.405  0.8384  0.0081 -0.0992
  692MOL0     C91241   3.792   2.051   4.533 -0.6868 -0.0831  1.4678
  692MOL0     O91242   3.652   2.037   4.561 -0.5665  0.0287  0.2809
  692MOL0     C91243   3.607   2.090   4.681 -0.4398 -0.3530  0.2863
  692MOL0     C91244   3.604   2.228   4.715 -0.3049  0.6096 -0.4063
  692MOL0     C91245   3.531   2.275   4.819  0.5442 -0.4316  0.0722
  692MOL0     C91246   3.462   2.200   4.905 -0.1322 -0.6104  0.9196
  692MOL0     O91247   3.386   2.267   4.999 -0.6006  0.4114  1.2090
  692MOL0     C91248   3.339   2.199   5.111 -0.6608 -0.0082  0.0536
  692MOL0     C91249   3.232   2.267   5.198 -0.4117 -0.4502  0.3860
  692MOL0     C91250   3.082   2.270   5.158 -0.3703  0.6356 -0.0416
  692MOL0     C91251   2.997   2.320   5.281  0.4384 -0.3425 -0.4769
  692MOL0     C91252   2.868   2.403   5.242  0.2234  0.0260 -0.5750
  692MOL0     C91253   2.739   2.315   5.218 -1.1561  0.2172  0.5019
  692MOL0     C91254   2.608   2.388   5.213  0.1542  0.3770  0.2341
  692MOL0     C91255   2.580   2.443   5.355  0.5811 -0.2608  0.4580
  692MOL0    Cl91256   2.561   2.295   5.463  0.2732  0.2772  0.2057
  692MOL0     C91257   3.464   2.057   4.881  0.8834  0.2830 -0.0138
  692MOL0     C91258   3.544   2.002   4.773  0.4532 -0.7576 -0.4840
  692MOL0     O91259   3.878   2.091   4.606 -0.2648  0.2777  0.5420
  692MOL0     C91260   3.771   1.920   4.320  0.3454  0.3025  0.5755
  692MOL0     C91261   3.822   1.864   4.199  0.6079 -0.2300  0.4587
  692MOL0     N91262   3.969   2.203   3.545 -0.6711  0.5889 -0.3731
  692MOL0     N91263   4.014   2.312   3.492 -0.2130  0.3105  0.1141
  692MOL0     C91264   5.185   2.366   2.969  0.7846 -0.1407 -0.1148
  692MOL0     C91265   5.290   2.458   2.985 -0.2570 -0.2787 -0.4505
  692MOL0     C91266   5.539   2.803   3.184  0.5716 -0.7183 -0.2893
  692MOL0     C91267   5.595   2.918   3.127  0.6019 -0.1725  0.4707
  692MOL0     C91268   5.688   2.994   3.196 -0.4370  0.6193 -0.4625
  692MOL0     C91269   5.712   2.975   3.335 -0.3900 -0.5975  0.1908
  692MOL0     O91270   5.787   3.058   3.417  0.0125 -0.1624 -0.4551
  692MOL0     C91271   5.914   3.001   3.439 -0.0379 -0.3922  0.1828
  692MOL0     C91272   6.011   3.109   3.493 -0.4300 -0.4439  0.6792
  692MOL0     C91273   6.021   3.240   3.397  0.1682  0.0414 -0.6870
  692MOL0     C91274   6.136   3.339   3.420  0.1990 -0.3197 -0.3250
  692MOL0     C91275   6.127   3.456   3.320 -0.4639 -0.2774  0.3441
  692MOL0     C91276   6.142   3.550   3.236  1.0656 -0.3398 -0.3864
  692MOL0     C91277   5.656   2.864   3.396  0.3500  1.0123  0.1052
  692MOL0     C91278   5.576   2.774   3.320  0.1065  0.8413 -0.5011
  692MOL0     H91279   5.266   2.520   3.310 -2.0240  0.0335  0.4942
  692MOL0     H91280   5.063   2.368   3.292  0.8162 -2.9818  0.4645
  692MOL0     H91281   4.853   2.303   3.172 -0.9895 -1.1835 -0.4436
  692MOL0     H91282   4.962   2.163   3.214  0.5697 -1.8311 -1.4376
  692MOL0     H91283   4.754   2.073   3.161 -2.2172  0.8976 -0.8866
  692MOL0     H91284   4.851   2.057   3.013  1.3961 -1.0475  1.6050
  692MOL0     H91285   4.602   2.141   2.986  1.7784 -2.4817  0.2707
  692MOL0     H91286   4.714   2.266   2.931 -0.4854  0.0778 -1.1251
  692MOL0     H91287   4.544   2.235   3.191  0.3692  0.9144 -0.5203
  692MOL0     H91288   4.656   2.373   3.179  0.0997 -0.7517  1.9861
  692MOL0     H91289   4.425   2.328   2.988  1.4408 -2.0813  0.6828
  692MOL0     H91290   4.517   2.474   3.005  0.0899 -0.3325 -0.6357
  692MOL0     H91291   4.300   2.496   3.132 -0.2352 -0.7299  0.8538
  692MOL0     H91292   4.442   2.512   3.228  3.3115 -0.1042 -2.2213
  692MOL0     H91293   4.276   2.247   3.196 -1.1190  2.2882 -2.7668
  692MOL0     H91294   4.405   2.288   3.325  1.3925 -3.7077 -1.9147
  692MOL0     H91295   4.141   2.426   3.286  1.4682 -0.2906 -1.3341
  692MOL0     H91296   4.254   2.455   3.418  1.5632  0.3032 -1.4707
  692MOL0     H91297   4.247   2.092   3.430 -1.6803 -3.2183 -1.5733
  692MOL0     H91298   4.134   1.904   3.594 -0.5383  0.5683 -0.0759
  692MOL0     H91299   3.995   1.911   3.487  3.3958 -1.6301 -0.5841
  692MOL0     H91300   3.888   1.857   3.677  1.3872 -1.4615  1.6370
  692MOL0     H91301   3.884   2.026   3.717 -2.4111 -1.2495 -2.2670
  692MOL0     H91302   4.109   1.828   3.815  1.6036  1.7256 -0.5887
  692MOL0     H91303   4.099   1.986   3.870  1.5556 -1.5948  2.7837
  692MOL0     H91304   3.911   1.758   3.894  1.2922  0.5967 -3.0328
  692MOL0     H91305   3.838   1.909   3.946 -0.6608 -0.3601 -1.1930
  692MOL0     H91306   4.154   1.948   4.234  0.1776  4.1408 -0.2035
  692MOL0     H91307   4.058   2.036   4.443  4.3271 -2.8105 -0.7628
  692MOL0     H91308   3.649   2.309   4.658 -0.7267  0.4471 -0.9714
  692MOL0     H91309   3.533   2.378   4.853  2.9928  0.9966 -3.7382
  692MOL0     H91310   3.423   2.179   5.178  0.6839  0.3221 -1.4681
  692MOL0     H91311   3.300   2.100   5.087 -1.6360 -0.2269  2.3231
  692MOL0     H91312   3.274   2.367   5.212  2.7088 -1.5330 -0.2616
  692MOL0     H91313   3.248   2.221   5.296  1.0384  2.1939  1.4697
  692MOL0     H91314   3.044   2.169   5.140 -2.4551  1.0445  1.6412
  692MOL0     H91315   3.059   2.322   5.065  1.2450 -0.9561 -1.3956
  692MOL0     H91316   2.961   2.242   5.350 -3.0299 -0.3542 -2.0677
  692MOL0     H91317   3.057   2.388   5.341 -0.5980 -0.4322  0.7219
  692MOL0     H91318   2.894   2.465   5.155 -2.3976  3.6351  0.9888
  692MOL0     H91319   2.848   2.471   5.325  2.6857 -1.8404  1.6958
  692MOL0     H91320   2.737   2.240   5.298  2.2034 -0.1647  0.3882
  692MOL0     H91321   2.756   2.269   5.121  1.1400 -1.4198  1.5848
  692MOL0     H91322   2.611   2.468   5.138  0.0034 -1.0040 -1.2879
  692MOL0     H91323   2.524   2.323   5.188 -1.5697  1.9098  1.6943
  692MOL0     H91324   2.488   2.500   5.337 -0.5894 -2.1239  0.2486
  692MOL0     H91325   2.655   2.515   5.389 -0.2473  0.6858  0.3319
  692MOL0     H91326   3.419   1.986   4.949  2.2761  1.1918  1.9657
  692MOL0     H91327   3.540   1.895   4.752 -0.9397 -0.7842 -0.1871
  692MOL0     H91328   3.666   1.909   4.345 -0.1283  1.5823 -0.6826
  692MOL0     H91329   3.756   1.811   4.131  0.8269 -1.6739  1.3249
  692MOL0     H91330   5.149   2.346   2.868 -0.6342 -0.1075  0.3587
  692MOL0     H91331   5.344   2.494   2.898 -1.2172  0.9617 -0.5609
  692MOL0     H91332   5.571   2.934   3.023  1.1107 -3.5207 -0.2723
  692MOL0     H91333   5.740   3.068   3.135  1.7363  0.3691  0.9948
  692MOL0     H91334   5.949   2.951   3.348 -1.3882 -1.9510  0.4697
  692MOL0     H91335   5.915   2.931   3.523  1.8012  0.0714  0.5837
  692MOL0     H91336   5.987   3.138   3.595 -0.6372  0.3126  0.4192
  692MOL0     H91337   6.109   3.059   3.485 -1.9115 -3.2546 -2.1750
  692MOL0     H91338   5.922   3.284   3.405 -0.4776 -1.6257  1.7111
  692MOL0     H91339   6.030   3.207   3.293 -0.5617 -0.9551 -0.4462
  692MOL0     H91340   6.122   3.365   3.525  1.0234 -1.3123  0.0471
  692MOL0     H91341   6.232   3.287   3.410  1.3676  1.5806  0.5769
  692MOL0     H91342   6.154   3.615   3.152 -3.7493 -0.7884 -1.7548
  692MOL0     H91343   5.671   2.854   3.503 -2.0660 -0.3276  0.3695
  692MOL0     H91344   5.541   2.677   3.355  1.7729 -0.4103 -2.0992
  693MOL0     O91345  11.329   5.596   1.339  0.6011  0.2475  0.7761
  693MOL0     C91346  11.324   5.590   1.461  0.3624 -0.4402 -0.5163
  693MOL0     O91347  11.351   5.483   1.536 -0.3999 -0.6153  0.7785
  693MOL0     C91348  11.363   5.359   1.475  0.1147 -0.2147  0.3228
  693MOL0     C91349  11.266   5.310   1.387  0.3732  0.6768  0.4708
  693MOL0     C91350  11.277   5.180   1.334  0.0523  0.3843 -0.1447
  693MOL0     C91351  11.381   5.091   1.382  1.0913 -0.3768  0.1711
  693MOL0     O91352  11.389   4.959   1.323 -0.2096  0.3328 -1.1843
  693MOL0     C91353  11.496   4.873   1.367 -0.0492 -0.2001  0.3705
  693MOL0     C91354  11.506   4.742   1.276  0.1370  0.0139 -1.0113
  693MOL0     C91355  11.373   4.665   1.278  0.7378  0.1639  0.2431
  693MOL0     C91356  11.372   4.537   1.190 -1.3283 -0.2479 -0.3615
  693MOL0     C91357  11.256   4.554   1.096  0.0854 -0.5388  0.7061
  693MOL0     C91358  11.258   4.424   1.005 -0.7909  0.8064  0.8131
  693MOL0     C91359  11.131   4.418   0.910  0.7779  0.4661  0.0367
  693MOL0     C91360  11.143   4.512   0.788  0.7080 -0.5598 -0.3973
  693MOL0     N91361  11.206   4.478   0.666 -0.1906  0.3541 -0.9715
  693MOL0     C91362  11.318   4.404   0.648  0.1218  0.0511 -0.5638
  693MOL0     C91363  11.340   4.408   0.514 -1.1226  0.2028 -0.6812
  693MOL0     C91364  11.455   4.329   0.458  0.8928  0.0061  0.1110
  693MOL0     C91365  11.493   4.200   0.536 -0.3998  0.7833 -0.1741
  693MOL0     C91366  11.513   4.086   0.433  0.4290  0.8315 -0.2480
  693MOL0     C91367  11.656   4.055   0.391 -1.0583 -0.0307  0.5810
  693MOL0     O91368  11.690   4.151   0.289 -0.2523 -0.1164  0.2047
  693MOL0     C91369  11.818   4.150   0.234  0.1149 -0.5917 -0.0561
  693MOL0     C91370  11.838   4.240   0.125  0.4171 -0.5285  1.1332
  693MOL0     C91371  11.957   4.235   0.050  0.0840  1.0151 -0.1923
  693MOL0     C91372  12.059   4.146   0.073  0.3316  0.3321 -0.4609
  693MOL0     C91373  12.179   4.157  -0.010 -0.9578  0.5011  0.3127
  693MOL0     O91374  12.174   4.245  -0.115  0.7759 -0.1422  0.3626
  693MOL0     C91375  12.280   4.283  -0.205 -0.2545 -1.0457  0.4549
  693MOL0     C91376  12.418   4.242  -0.208  0.2412 -0.4963  0.0924
  693MOL0     C91377  12.497   4.293  -0.305 -0.6050  0.2159 -0.3140
  693MOL0     C91378  12.454   4.373  -0.405 -0.2130  0.3391 -0.3977
  693MOL0     O91379  12.551   4.422  -0.488  0.2006  0.7937  0.4685
  693MOL0     C91380  12.527   4.412  -0.630  0.1379  0.1904 -0.1339
  693MOL0     C91381  12.659   4.453  -0.699  0.3971 -0.8775  0.2581
  693MOL0     C91382  12.801   4.377  -0.669 -0.2188  0.7614  0.6021
  693MOL0     C91383  12.913   4.470  -0.709 -0.0728 -0.7023  0.0424
  693MOL0     C91384  12.934   4.464  -0.860 -1.1845  0.4858 -0.6738
  693MOL0     C91385  13.015   4.349  -0.917  0.4139  1.0540 -0.2483
  693MOL0     C91386  12.940   4.220  -0.953  0.4663 -0.0645  1.1007
  693MOL0     C91387  12.882   4.235  -1.097  0.1154 -0.0184  0.2966
  693MOL0    Cl91388  13.013   4.213  -1.217  0.4300  0.1471  0.2568
  693MOL0     C91389  12.320   4.408  -0.412  0.5172 -0.0990 -0.0401
  693MOL0     C91390  12.241   4.362  -0.316  0.2525 -0.5080 -0.0796
  693MOL0     O91391  12.278   4.079   0.019 -0.4904 -0.4938  0.0371
  693MOL0     C91392  12.034   4.057   0.190 -0.0818  0.2909  0.0209
  693MOL0     C91393  11.908   4.045   0.257 -0.0745  0.0944 -0.2872
  693MOL0     N91394  11.238   4.473   0.445 -0.0197  0.0814  0.0457
  693MOL0     N91395  11.155   4.509   0.539  0.7115  0.3784 -0.1003
  693MOL0     C91396  11.474   5.147   1.467 -0.8044 -0.8935  0.1760
  693MOL0     C91397  11.471   5.277   1.510 -0.4508  0.1169 -0.0520
  693MOL0     C91398  11.315   5.720   1.542  0.1692  0.8748  0.3859
  693MOL0     C91399  11.351   5.724   1.680 -0.4138 -0.1098  0.0541
  693MOL0     C91400  11.333   5.843   1.753  1.0074  0.0687  0.1912
  693MOL0     C91401  11.295   5.960   1.694 -0.1233  0.4602  0.4421
  693MOL0     O91402  11.293   6.077   1.756 -0.5297 -0.5038 -0.1625
  693MOL0     C91403  11.383   6.112   1.862 -0.1452  0.3849 -0.2235
  693MOL0     C91404  11.389   6.264   1.892  0.1594 -0.2803  0.3888
  693MOL0     C91405  11.499   6.305   1.993 -0.1802 -0.0229  0.1603
  693MOL0     C91406  11.465   6.296   2.146  0.2621  0.3402  0.7790
  693MOL0     C91407  11.386   6.413   2.182 -0.0101  0.7935  0.1638
  693MOL0     C91408  11.334   6.517   2.217 -0.0443  1.0520 -0.5659
  693MOL0     C91409  11.262   5.965   1.559  0.5463  0.3356  0.6528
  693MOL0     C91410  11.270   5.843   1.485 -0.5070  0.0301 -0.2308
  693MOL0     H91411  11.182   5.366   1.347 -1.6310 -1.3535  1.5487
  693MOL0     H91412  11.205   5.157   1.256 -1.7576  2.0165  0.9595
  693MOL0     H91413  11.503   4.849   1.473  3.8536  3.1636  1.1006
  693MOL0     H91414  11.587   4.928   1.345  1.5384 -2.5924  0.5690
  693MOL0     H91415  11.582   4.678   1.320 -1.7383 -1.7288 -0.1442
  693MOL0     H91416  11.533   4.774   1.175 -3.3565 -0.2393 -2.1879
  693MOL0     H91417  11.289   4.734   1.263  0.2254 -0.0661  1.8986
  693MOL0     H91418  11.356   4.632   1.380  1.8917 -3.4186 -0.5771
  693MOL0     H91419  11.461   4.523   1.128 -1.5406  0.7970 -0.9188
  693MOL0     H91420  11.344   4.451   1.252 -2.5624 -1.1892 -2.1068
  693MOL0     H91421  11.263   4.648   1.041 -1.7291 -0.9181 -0.2438
  693MOL0     H91422  11.175   4.537   1.167  1.2444 -1.8213  1.7794
  693MOL0     H91423  11.278   4.336   1.067 -0.6853  0.7568  0.7096
  693MOL0     H91424  11.346   4.423   0.940 -0.5605  1.3042  1.1097
  693MOL0     H91425  11.114   4.315   0.879 -3.0341  1.4217 -1.6136
  693MOL0     H91426  11.046   4.451   0.971  2.2855  1.2323  1.8003
  693MOL0     H91427  11.199   4.601   0.817 -0.8067  0.4979 -0.5921
  693MOL0     H91428  11.042   4.541   0.758 -0.7080 -5.3567 -1.1302
  693MOL0     H91429  11.390   4.381   0.726  3.0621  1.6492 -2.5868
  693MOL0     H91430  11.549   4.384   0.466  0.9469 -0.2189  1.3603
  693MOL0     H91431  11.438   4.306   0.353  1.0670 -0.6711  0.2236
  693MOL0     H91432  11.417   4.169   0.608 -0.2198 -0.2513 -0.4076
  693MOL0     H91433  11.577   4.221   0.602 -0.1632  0.8180 -0.4826
  693MOL0     H91434  11.473   3.994   0.478 -0.4051  1.1670 -0.3001
  693MOL0     H91435  11.452   4.105   0.345  0.2643  0.7085 -0.1616
  693MOL0     H91436  11.668   3.953   0.352  0.0543  0.4114 -0.3109
  693MOL0     H91437  11.718   4.064   0.480  1.1271 -0.0642 -0.8559
  693MOL0     H91438  11.763   4.318   0.114 -1.6954 -1.8653  4.5757
  693MOL0     H91439  11.939   4.296  -0.038  0.0410  1.3265  0.0324
  693MOL0     H91440  12.465   4.188  -0.127  1.7270  0.5296 -0.0515
  693MOL0     H91441  12.603   4.270  -0.303 -0.6730 -0.5691 -2.7448
  693MOL0     H91442  12.451   4.485  -0.662  1.2804 -0.0336 -3.9112
  693MOL0     H91443  12.506   4.308  -0.658  2.8985 -1.2890  2.6757
  693MOL0     H91444  12.683   4.556  -0.670  3.5218 -1.1410 -0.9695
  693MOL0     H91445  12.639   4.439  -0.806 -0.0863  4.2992 -0.5956
  693MOL0     H91446  12.799   4.280  -0.720  2.1514  1.0584 -0.1572
  693MOL0     H91447  12.801   4.358  -0.561 -0.2030 -1.6635  0.2523
  693MOL0     H91448  12.876   4.568  -0.677 -1.2496 -0.3528 -2.1894
  693MOL0     H91449  13.002   4.450  -0.649  0.2907  0.1767 -0.1918
  693MOL0     H91450  12.995   4.551  -0.888  2.3706 -2.0560 -1.6659
  693MOL0     H91451  12.833   4.472  -0.901 -1.3309  3.0840  0.0028
  693MOL0     H91452  13.093   4.329  -0.842 -0.4089  2.9100  1.1905
  693MOL0     H91453  13.063   4.366  -1.014 -0.8752 -1.0470 -1.3318
  693MOL0     H91454  13.015   4.140  -0.956 -0.3390 -0.8346 -1.9891
  693MOL0     H91455  12.857   4.196  -0.885 -1.9402  0.6212 -1.3899
  693MOL0     H91456  12.845   4.338  -1.107  0.0854 -0.2711 -4.1099
  693MOL0     H91457  12.800   4.166  -1.118  0.4119 -0.0375 -0.8428
  693MOL0     H91458  12.279   4.468  -0.494  1.2434 -1.3009 -1.3174
  693MOL0     H91459  12.141   4.405  -0.310  1.3007  1.8592  1.9918
  693MOL0     H91460  12.116   3.989   0.213 -0.5721  0.2288  1.7023
  693MOL0     H91461  11.901   3.970   0.334  2.1244  0.9588  0.8495
  693MOL0     H91462  11.550   5.089   1.518 -0.3440  1.9203  2.9891
  693MOL0     H91463  11.550   5.313   1.575 -2.1543 -0.7628  2.6537
  693MOL0     H91464  11.396   5.639   1.730 -1.6648 -0.9380 -0.1563
  693MOL0     H91465  11.350   5.853   1.860  1.5704  1.5801 -0.0066
  693MOL0     H91466  11.487   6.084   1.841 -0.3780  0.3162 -1.3954
  693MOL0     H91467  11.362   6.068   1.959 -0.9680  2.4930  0.6242
  693MOL0     H91468  11.421   6.314   1.801  0.7479 -0.1650  0.6520
  693MOL0     H91469  11.294   6.308   1.924  0.4731  1.6266 -1.1500
  693MOL0     H91470  11.519   6.411   1.974 -1.9310 -0.2063 -3.5025
  693MOL0     H91471  11.596   6.262   1.967 -0.7611 -0.3750 -1.5174
  693MOL0     H91472  11.420   6.198   2.160 -0.5262  0.6682  0.5894
  693MOL0     H91473  11.553   6.298   2.212 -1.9911  0.9352  4.0024
  693MOL0     H91474  11.286   6.605   2.254  2.1810  1.9614  0.3046
  693MOL0     H91475  11.244   6.062   1.515  1.0328  1.0766  2.0377
  693MOL0     H91476  11.220   5.855   1.390 -0.5255  0.3101 -0.1854
  694MOL0     O91477   8.212  11.207   1.409 -0.0526  0.0930  0.0319
  694MOL0     C91478   8.148  11.223   1.306 -0.1135  0.2944 -1.3093
  694MOL0     O91479   8.049  11.137   1.262 -0.2865 -0.1042 -0.2431
  694MOL0     C91480   8.014  11.021   1.329  1.2929 -0.0833  0.6891
  694MOL0     C91481   7.875  10.986   1.322 -0.8217 -0.1670 -0.6631
  694MOL0     C91482   7.822  10.874   1.387  0.2432 -0.7123  0.2891
  694MOL0     C91483   7.912  10.788   1.450 -0.4765  0.7071 -0.0575
  694MOL0     O91484   7.880  10.676   1.521  0.3722  0.0135  0.5352
  694MOL0     C91485   7.747  10.621   1.527 -1.0952 -0.9727  0.9051
  694MOL0     C91486   7.730  10.519   1.636 -0.2079  0.8544 -0.4648
  694MOL0     C91487   7.598  10.457   1.639 -0.5377 -0.7370 -0.0393
  694MOL0     C91488   7.576  10.363   1.529  0.5510  0.3108  0.0887
  694MOL0     C91489   7.438  10.299   1.551  0.5279 -0.7102  0.0184
  694MOL0     C91490   7.414  10.171   1.473 -0.3736  0.3900 -0.0112
  694MOL0     C91491   7.274  10.095   1.490 -1.6886 -0.2596 -0.0690
  694MOL0     C91492   7.214  10.111   1.632  0.2183  0.3474 -0.0228
  694MOL0     N91493   7.099  10.021   1.626  0.0058 -1.0947 -0.6435
  694MOL0     C91494   6.979  10.058   1.557  0.2613 -0.3278 -0.6531
  694MOL0     C91495   6.906   9.947   1.565  0.5011  0.3436 -0.9960
  694MOL0     C91496   6.763   9.923   1.537 -0.0191 -0.5592  0.5526
  694MOL0     C91497   6.670   9.921   1.665 -0.8906  1.2650  0.7777
  694MOL0     C91498   6.523   9.878   1.625 -0.5298  1.3949  1.3067
  694MOL0     C91499   6.495   9.738   1.566 -0.0887  0.2747 -0.7162
  694MOL0     O91500   6.357   9.712   1.599  0.9965  0.1288  0.1087
  694MOL0     C91501   6.279   9.637   1.516 -0.0189 -0.8751  0.2966
  694MOL0     C91502   6.325   9.548   1.411  0.0057 -0.4811 -0.2746
  694MOL0     C91503   6.236   9.504   1.316  0.5348  0.2502 -0.2941
  694MOL0     C91504   6.096   9.524   1.337  0.1684 -0.7215  0.4175
  694MOL0     C91505   5.998   9.467   1.237 -0.1028 -0.9496  0.2121
  694MOL0     O91506   5.875   9.522   1.245 -1.1233 -0.2483 -0.0859
  694MOL0     C91507   5.793   9.536   1.134  0.0705 -0.3990 -0.1934
  694MOL0     C91508   5.654   9.546   1.157 -0.6993  0.6389  0.1350
  694MOL0     C91509   5.574   9.572   1.047 -0.4301  0.0712  0.0752
  694MOL0     C91510   5.627   9.588   0.918  0.3420 -0.3077 -0.3812
  694MOL0     O91511   5.549   9.602   0.805  0.4668  0.1222 -0.1141
  694MOL0     C91512   5.552   9.501   0.704 -1.4786  0.0818  0.9310
  694MOL0     C91513   5.568   9.572   0.570  0.1817  0.4484  0.0538
  694MOL0     C91514   5.705   9.635   0.554  0.5173  0.0019  0.1472
  694MOL0     C91515   5.743   9.693   0.420  0.1383 -0.2507  0.2073
  694MOL0     C91516   5.887   9.721   0.378  0.3977 -0.2154 -0.0215
  694MOL0     C91517   5.973   9.768   0.495  0.4250  0.3042  0.1866
  694MOL0     C91518   5.939   9.909   0.548 -0.2754 -0.5057  0.6140
  694MOL0     C91519   6.053   9.974   0.622  0.0343 -1.3920  0.1414
  694MOL0    Cl91520   6.132   9.862   0.734  0.4297 -0.2215 -0.3278
  694MOL0     C91521   5.761   9.582   0.897 -0.4299 -0.9585 -0.1132
  694MOL0     C91522   5.849   9.553   1.005  0.3273 -0.3142  0.1429
  694MOL0     O91523   6.033   9.374   1.157  0.8504 -0.3533 -0.1553
  694MOL0     C91524   6.054   9.606   1.442 -0.0664  0.1740  0.2301
  694MOL0     C91525   6.140   9.655   1.530 -0.2528 -0.1332  0.1379
  694MOL0     N91526   6.976   9.849   1.618 -1.2283 -0.4442  0.9546
  694MOL0     N91527   7.094   9.889   1.647  0.2413  0.4544  0.2786
  694MOL0     C91528   8.052  10.812   1.458  0.5837  0.1058 -0.8998
  694MOL0     C91529   8.100  10.934   1.405  0.0884  0.1829 -0.2099
  694MOL0     C91530   8.169  11.355   1.233  0.2263 -0.2867  0.2856
  694MOL0     C91531   8.132  11.363   1.097 -0.3510 -0.0536 -0.7929
  694MOL0     C91532   8.170  11.466   1.019 -0.3733 -0.0898  0.5943
  694MOL0     C91533   8.223  11.583   1.078 -0.1058 -0.5692 -0.4159
  694MOL0     O91534   8.278  11.689   1.014 -0.2275 -0.1811 -0.3647
  694MOL0     C91535   8.276  11.683   0.873  0.2397 -0.9025  0.3854
  694MOL0     C91536   8.364  11.798   0.815 -0.0805  0.3211 -0.3695
  694MOL0     C91537   8.365  11.795   0.663  0.5682 -0.5057 -0.0088
  694MOL0     C91538   8.436  11.924   0.622 -0.1463 -0.0988  0.0024
  694MOL0     C91539   8.500  11.917   0.492 -0.0865  0.3226  0.4487
  694MOL0     C91540   8.562  11.907   0.388 -0.8963 -0.0937 -0.2907
  694MOL0     C91541   8.257  11.580   1.220  0.6133 -0.3851 -0.0754
  694MOL0     C91542   8.232  11.467   1.294  0.8463  0.5577  0.2433
  694MOL0     H91543   7.822  11.069   1.277 -2.2225 -0.2839  0.6747
  694MOL0     H91544   7.713  10.868   1.383  0.2176 -0.1087 -0.1037
  694MOL0     H91545   7.726  10.574   1.431 -0.2301 -0.9446  0.6976
  694MOL0     H91546   7.676  10.703   1.540 -0.3134 -0.0318 -0.5143
  694MOL0     H91547   7.768  10.562   1.729  0.7927 -1.8316  0.4705
  694MOL0     H91548   7.804  10.440   1.618 -0.4698 -0.8925  4.5092
  694MOL0     H91549   7.519  10.532   1.633 -1.9611 -2.2385 -1.0917
  694MOL0     H91550   7.582  10.411   1.737  0.8396 -1.1074  0.0353
  694MOL0     H91551   7.587  10.410   1.431  3.0117  0.9826  0.6201
  694MOL0     H91552   7.652  10.286   1.541 -1.6548 -1.8810  0.8131
  694MOL0     H91553   7.350  10.362   1.534  1.7272  1.5591  1.7216
  694MOL0     H91554   7.440  10.269   1.656 -1.4342 -1.8413 -0.2092
  694MOL0     H91555   7.480  10.095   1.517  3.7778  0.8599 -4.5481
  694MOL0     H91556   7.447  10.188   1.370  0.3789  2.0897  0.4802
  694MOL0     H91557   7.208  10.122   1.407 -0.4345 -1.0872 -1.3716
  694MOL0     H91558   7.292   9.990   1.468  1.5963  0.2045 -0.0735
  694MOL0     H91559   7.188  10.215   1.652 -3.4348 -0.6032  1.0322
  694MOL0     H91560   7.283  10.080   1.711  1.3539  0.3933 -0.9682
  694MOL0     H91561   6.932  10.152   1.531 -0.6031 -0.4112  0.5230
  694MOL0     H91562   6.754   9.823   1.495 -2.5215  0.6031 -2.0189
  694MOL0     H91563   6.717   9.995   1.469 -2.1370 -1.7433  0.6492
  694MOL0     H91564   6.666  10.023   1.704  2.1033  3.0691 -2.9724
  694MOL0     H91565   6.721   9.854   1.736  0.0479 -0.1239 -1.1312
  694MOL0     H91566   6.473   9.866   1.721  0.0881 -0.0040  1.4798
  694MOL0     H91567   6.484   9.953   1.556 -1.0682  1.7793  2.0166
  694MOL0     H91568   6.563   9.664   1.609  0.0179  0.2414 -0.9374
  694MOL0     H91569   6.517   9.747   1.459  0.2246  0.4947 -0.6355
  694MOL0     H91570   6.431   9.531   1.399  0.1691 -0.4909  0.9824
  694MOL0     H91571   6.266   9.433   1.240  3.4792  1.2984 -0.2152
  694MOL0     H91572   5.616   9.523   1.256 -1.1019 -2.2552 -0.6163
  694MOL0     H91573   5.466   9.557   1.051 -0.6867  1.0031 -2.0001
  694MOL0     H91574   5.464   9.435   0.702 -1.2852 -0.1785  0.7960
  694MOL0     H91575   5.642   9.446   0.733 -0.1558  2.3788  1.4334
  694MOL0     H91576   5.490   9.649   0.568 -1.1969 -0.8983  0.3190
  694MOL0     H91577   5.555   9.491   0.499  1.9815  0.5350 -0.4224
  694MOL0     H91578   5.779   9.555   0.567 -1.9224 -2.3486  0.4452
  694MOL0     H91579   5.714   9.715   0.627 -3.3867  3.0824 -2.3216
  694MOL0     H91580   5.706   9.616   0.351 -0.7378  0.1032  0.2631
  694MOL0     H91581   5.677   9.777   0.397  1.6362  0.7334 -0.6751
  694MOL0     H91582   5.888   9.783   0.288  1.1234 -1.5561 -0.9670
  694MOL0     H91583   5.921   9.622   0.348  1.7200 -0.1405  1.1195
  694MOL0     H91584   6.075   9.769   0.455 -0.1478  0.9076 -1.3101
  694MOL0     H91585   5.972   9.695   0.577 -0.0670  0.1310  0.0304
  694MOL0     H91586   5.910   9.977   0.467  0.6102 -1.1180 -0.2368
  694MOL0     H91587   5.859   9.893   0.621 -1.2490 -0.6960 -0.4655
  694MOL0     H91588   6.016  10.065   0.672  2.0901 -0.5702  0.2604
  694MOL0     H91589   6.111  10.020   0.542 -1.1502  3.0089  1.5242
  694MOL0     H91590   5.799   9.588   0.796 -2.4463  0.9575 -0.8256
  694MOL0     H91591   5.953   9.539   0.976 -0.1471 -0.4943 -1.5945
  694MOL0     H91592   5.952   9.644   1.445 -0.2148 -0.2824  1.6788
  694MOL0     H91593   6.101   9.712   1.613 -2.1910 -0.9070 -0.2006
  694MOL0     H91594   8.129  10.778   1.527 -1.0609  2.5052  2.4169
  694MOL0     H91595   8.202  10.958   1.434  0.4339 -2.2920  0.9046
  694MOL0     H91596   8.088  11.279   1.044  0.3186 -2.8999  2.8231
  694MOL0     H91597   8.143  11.470   0.913  0.1002  1.8169  0.5136
  694MOL0     H91598   8.173  11.703   0.840  0.0678  2.8880  2.6766
  694MOL0     H91599   8.320  11.586   0.845  0.4242 -0.4953 -0.7900
  694MOL0     H91600   8.331  11.899   0.842  1.0922  1.1742 -1.9532
  694MOL0     H91601   8.467  11.782   0.849  0.0505  1.1685 -0.3344
  694MOL0     H91602   8.263  11.793   0.624  0.9516 -0.0964 -1.0586
  694MOL0     H91603   8.414  11.702   0.633  1.1711  0.1310 -1.0677
  694MOL0     H91604   8.361  12.003   0.615  0.4683  0.6366  1.3965
  694MOL0     H91605   8.511  11.961   0.692 -0.2986  0.9656 -0.3835
  694MOL0     H91606   8.602  11.888   0.290 -0.5605  1.6502 -0.5396
  694MOL0     H91607   8.295  11.663   1.278 -0.2508 -2.1475  3.2680
  694MOL0     H91608   8.262  11.460   1.398 -0.8170  1.0423  0.7921
  695MOL0     O91609   8.887   5.699   9.308 -0.1968  0.1400  0.1343
  695MOL0     C91610   8.776   5.698   9.251 -0.3641 -0.6707  0.7298
  695MOL0     O91611   8.755   5.757   9.126 -0.2223 -0.1526  0.0323
  695MOL0     C91612   8.854   5.826   9.072  0.3836  0.0521 -0.8219
  695MOL0     C91613   8.861   5.961   9.080 -0.6512 -0.5767  0.3827
  695MOL0     C91614   8.973   6.026   9.023 -0.0730 -0.0517 -0.1912
  695MOL0     C91615   9.078   5.957   8.966 -1.3005 -0.3562 -0.1093
  695MOL0     O91616   9.185   6.005   8.891 -0.5034 -0.3198  0.1594
  695MOL0     C91617   9.232   6.138   8.937  0.2008 -0.2173 -0.5859
  695MOL0     C91618   9.370   6.176   8.856  0.1372  0.0224  0.2759
  695MOL0     C91619   9.486   6.081   8.889 -0.1035 -0.8240 -0.6565
  695MOL0     C91620   9.559   6.117   9.009 -0.4155  0.9233 -0.4032
  695MOL0     C91621   9.647   5.988   9.053  0.6377 -0.1084 -0.4320
  695MOL0     C91622   9.727   6.019   9.193  0.2048 -0.3321  0.6552
  695MOL0     C91623   9.847   5.924   9.226  0.3509 -0.9722  0.2418
  695MOL0     C91624   9.804   5.769   9.234 -0.5445 -0.6110  0.4712
  695MOL0     N91625   9.928   5.699   9.242  0.3008 -0.1582  0.0595
  695MOL0     C91626   9.997   5.685   9.356 -0.8057 -0.1617  0.2770
  695MOL0     C91627  10.113   5.624   9.328  0.4555  0.6070 -0.0718
  695MOL0     C91628  10.218   5.594   9.425 -0.5498 -0.0854  0.1621
  695MOL0     C91629  10.337   5.511   9.376 -0.1524  1.1743 -0.8132
  695MOL0     C91630  10.465   5.501   9.472  0.0140 -0.5448  0.4007
  695MOL0     C91631  10.549   5.385   9.444 -0.1028 -0.2601 -0.0354
  695MOL0     O91632  10.656   5.393   9.538 -0.0781 -0.1721 -0.2245
  695MOL0     C91633  10.762   5.298   9.514  0.1143  0.1027 -0.2811
  695MOL0     C91634  10.880   5.325   9.583 -0.0584  0.2645 -0.0128
  695MOL0     C91635  10.990   5.247   9.569  0.3991 -0.6315 -0.3538
  695MOL0     C91636  10.991   5.139   9.483  0.7784 -0.2064 -1.1384
  695MOL0     C91637  11.118   5.062   9.452  1.2353 -0.4984 -0.4008
  695MOL0     O91638  11.115   4.953   9.367  0.2244  0.1821  0.3994
  695MOL0     C91639  11.231   4.880   9.346  0.0213 -1.4234  0.6285
  695MOL0     C91640  11.216   4.745   9.308 -0.9294  0.0178  0.5818
  695MOL0     C91641  11.330   4.666   9.298 -0.1173  0.0112  1.8737
  695MOL0     C91642  11.455   4.725   9.302 -0.2702 -0.6515 -0.8674
  695MOL0     O91643  11.573   4.660   9.288  0.2777  0.3546 -0.5484
  695MOL0     C91644  11.590   4.558   9.191 -0.7730 -0.2659 -0.1560
  695MOL0     C91645  11.734   4.500   9.228  0.4741 -0.0557 -1.3460
  695MOL0     C91646  11.749   4.376   9.139 -0.0860 -0.8168 -0.3063
  695MOL0     C91647  11.884   4.306   9.172  0.2420 -0.6499  0.0781
  695MOL0     C91648  11.937   4.188   9.078  0.7904 -1.0240 -0.0845
  695MOL0     C91649  11.828   4.079   9.047 -0.6135  0.6754  0.2679
  695MOL0     C91650  11.831   3.987   9.175 -0.0317  0.2325 -0.3162
  695MOL0     C91651  11.909   3.856   9.191  0.3277  0.0227  0.5456
  695MOL0    Cl91652  12.080   3.876   9.241 -0.1012 -0.3651  0.5605
  695MOL0     C91653  11.465   4.859   9.322 -0.1715  0.1035 -1.2117
  695MOL0     C91654  11.355   4.939   9.347 -0.4599  0.5254  0.4692
  695MOL0     O91655  11.212   5.105   9.508 -0.5404 -0.6741  0.1605
  695MOL0     C91656  10.870   5.106   9.418 -0.3825  0.1122 -0.0067
  695MOL0     C91657  10.759   5.185   9.429 -0.4183 -0.9888 -0.0539
  695MOL0     N91658  10.109   5.591   9.194 -0.1762  0.0891 -0.9843
  695MOL0     N91659   9.995   5.632   9.147 -0.4449  0.2616  0.3175
  695MOL0     C91660   9.065   5.819   8.957  0.9472 -1.0432  0.9246
  695MOL0     C91661   8.955   5.753   9.014 -0.0216 -0.6545  0.5637
  695MOL0     C91662   8.677   5.615   9.312  0.4143  0.7911 -0.1032
  695MOL0     C91663   8.564   5.586   9.244  0.9071  0.0081 -0.2063
  695MOL0     C91664   8.459   5.508   9.294  0.7221 -0.6694 -0.0944
  695MOL0     C91665   8.471   5.459   9.424  0.2622  0.1372  0.1069
  695MOL0     O91666   8.377   5.383   9.489 -0.0127  0.1381  0.6869
  695MOL0     C91667   8.247   5.433   9.468  0.4043 -0.1495 -0.0666
  695MOL0     C91668   8.159   5.382   9.587 -0.2903 -0.9548 -0.3253
  695MOL0     C91669   8.103   5.241   9.572  0.0966 -0.1547 -0.5283
  695MOL0     C91670   8.216   5.136   9.585  0.5747  1.3956  0.2605
  695MOL0     C91671   8.170   4.990   9.581 -0.6029  0.8538 -0.2692
  695MOL0     C91672   8.136   4.879   9.593  0.0848 -0.1156  0.5013
  695MOL0     C91673   8.594   5.469   9.490  0.0978  0.8157  0.7595
  695MOL0     C91674   8.692   5.543   9.428 -0.0217  0.4289 -0.3447
  695MOL0     H91675   8.771   6.007   9.120  0.0005  0.5205  0.6320
  695MOL0     H91676   8.970   6.134   9.039 -2.4705  0.0398 -0.8749
  695MOL0     H91677   9.246   6.132   9.046  3.5536  1.7212 -0.7690
  695MOL0     H91678   9.157   6.213   8.911 -2.5125 -3.0457 -1.5353
  695MOL0     H91679   9.386   6.282   8.880 -5.1529  1.5025 -1.3433
  695MOL0     H91680   9.337   6.169   8.752  0.2235 -2.5940  0.3699
  695MOL0     H91681   9.559   6.072   8.808 -0.8024 -1.9153 -1.1977
  695MOL0     H91682   9.446   5.982   8.913 -1.6891  0.1397  0.9791
  695MOL0     H91683   9.620   6.207   8.999 -0.4106  0.7663 -2.2015
  695MOL0     H91684   9.487   6.136   9.088 -0.0914 -0.3067  0.2222
  695MOL0     H91685   9.716   5.960   8.973 -0.5153  1.3588 -2.0291
  695MOL0     H91686   9.582   5.905   9.080  0.2523 -0.2566 -1.7469
  695MOL0     H91687   9.650   6.010   9.270  0.4398 -1.6828  0.7693
  695MOL0     H91688   9.767   6.120   9.189  1.2196 -0.7078 -2.9209
  695MOL0     H91689   9.917   5.920   9.143 -0.6991 -2.3071 -0.6362
  695MOL0     H91690   9.896   5.950   9.320  0.7010 -0.4091 -0.0932
  695MOL0     H91691   9.748   5.733   9.147  0.0282 -1.1270  0.3096
  695MOL0     H91692   9.738   5.748   9.319 -3.6107 -1.1592 -1.8732
  695MOL0     H91693   9.981   5.731   9.453  0.4914  3.0218 -0.8700
  695MOL0     H91694  10.186   5.541   9.515  1.5908 -0.4559  0.7491
  695MOL0     H91695  10.257   5.685   9.471 -2.6244  1.0239 -0.1364
  695MOL0     H91696  10.383   5.538   9.281  0.1308 -1.8354 -1.6334
  695MOL0     H91697  10.304   5.408   9.361  2.7595 -0.5604  2.8321
  695MOL0     H91698  10.530   5.589   9.463 -1.8402  0.8232 -0.3752
  695MOL0     H91699  10.434   5.506   9.577 -2.3827  5.1619 -0.1678
  695MOL0     H91700  10.590   5.389   9.343  0.2869 -3.9385 -0.1747
  695MOL0     H91701  10.487   5.297   9.462  0.9360 -0.9352  0.3826
  695MOL0     H91702  10.878   5.406   9.656  0.0361 -0.1571  0.4617
  695MOL0     H91703  11.067   5.290   9.633  0.6415 -1.0813 -0.3434
  695MOL0     H91704  11.122   4.693   9.290 -0.3738 -0.4719 -1.0169
  695MOL0     H91705  11.323   4.557   9.298  3.2976 -0.3724 -0.4981
  695MOL0     H91706  11.607   4.610   9.096 -1.8800  1.7133  0.6782
  695MOL0     H91707  11.516   4.478   9.191  0.2965 -1.2941  0.2287
  695MOL0     H91708  11.752   4.470   9.331  0.1265 -2.9777 -2.0604
  695MOL0     H91709  11.819   4.565   9.205  0.1971  0.8273  0.0197
  695MOL0     H91710  11.735   4.406   9.035 -1.1974 -1.0980 -0.2501
  695MOL0     H91711  11.667   4.304   9.148 -0.0603 -0.6552  1.7863
  695MOL0     H91712  11.960   4.384   9.167 -0.7952  0.7276  3.2484
  695MOL0     H91713  11.883   4.276   9.278 -2.3160 -0.9141  0.0461
  695MOL0     H91714  12.023   4.138   9.123  1.4685  0.6707  0.6275
  695MOL0     H91715  11.979   4.229   8.986 -0.0061  0.7980  0.3160
  695MOL0     H91716  11.863   4.023   8.960 -2.5118  0.0511 -0.1599
  695MOL0     H91717  11.731   4.127   9.032  0.0808  1.7996 -0.7760
  695MOL0     H91718  11.862   4.045   9.262  1.0547 -1.0626  0.1936
  695MOL0     H91719  11.731   3.953   9.203  1.2450 -2.7904  1.0626
  695MOL0     H91720  11.922   3.807   9.094  5.5743 -0.8198  1.4074
  695MOL0     H91721  11.860   3.787   9.260  1.6637 -2.2716 -0.6943
  695MOL0     H91722  11.568   4.892   9.325 -0.9535  2.7644 -1.3932
  695MOL0     H91723  11.371   5.046   9.357  0.8876  0.4626 -0.6909
  695MOL0     H91724  10.850   5.013   9.365 -2.0017 -1.4787  3.1114
  695MOL0     H91725  10.664   5.159   9.384  0.7239 -1.2177 -2.4616
  695MOL0     H91726   9.133   5.773   8.886 -1.1040  0.1092 -1.9834
  695MOL0     H91727   8.945   5.645   9.014 -2.0194 -0.5461 -1.5762
  695MOL0     H91728   8.543   5.630   9.147 -0.8378  0.9950  0.5588
  695MOL0     H91729   8.371   5.484   9.236  1.0125 -2.1895  0.0467
  695MOL0     H91730   8.204   5.400   9.373  0.8427 -1.3501  0.1357
  695MOL0     H91731   8.240   5.542   9.472  0.7623 -0.1569  1.1344
  695MOL0     H91732   8.214   5.388   9.681  0.5152  2.1105 -0.8639
  695MOL0     H91733   8.069   5.445   9.581 -0.3681 -1.2081 -2.6139
  695MOL0     H91734   8.043   5.226   9.482 -2.0431 -0.7876  0.9195
  695MOL0     H91735   8.031   5.218   9.652  1.3126 -3.3236 -0.1832
  695MOL0     H91736   8.292   5.147   9.507  1.9352  1.7216  1.6001
  695MOL0     H91737   8.277   5.149   9.674 -2.3191 -0.7626  2.7850
  695MOL0     H91738   8.110   4.776   9.576  3.4661 -0.6812 -2.2595
  695MOL0     H91739   8.614   5.437   9.592 -0.6735  1.2817  1.0625
  695MOL0     H91740   8.789   5.550   9.476 -0.1896  1.2070 -0.1224
  696MOL0     O91741   0.294   9.161   7.940  0.9033  0.0905 -0.4891
  696MOL0     C91742   0.253   9.256   7.878 -0.2893 -0.1466  0.6466
  696MOL0     O91743   0.289   9.383   7.900 -0.4873 -0.3312  0.6370
  696MOL0     C91744   0.359   9.404   8.012  0.5405 -0.2384  0.2383
  696MOL0     C91745   0.297   9.452   8.125  0.9286 -0.8436 -0.6255
  696MOL0     C91746   0.375   9.459   8.245  0.0805  0.1455 -0.5331
  696MOL0     C91747   0.508   9.416   8.247  1.1652  0.1027  0.8370
  696MOL0     O91748   0.574   9.387   8.362 -0.3024  0.0732 -0.0468
  696MOL0     C91749   0.710   9.427   8.383 -0.4435  0.8203  0.3242
  696MOL0     C91750   0.753   9.386   8.525 -0.8840  0.2018  0.6869
  696MOL0     C91751   0.651   9.448   8.621 -0.3251  0.3240 -0.2800
  696MOL0     C91752   0.708   9.453   8.766  0.0324 -0.4086  0.7567
  696MOL0     C91753   0.676   9.586   8.838  0.3919  0.2264 -0.1939
  696MOL0     C91754   0.763   9.699   8.790  0.0229 -0.2526  0.7512
  696MOL0     C91755   0.911   9.681   8.821 -1.1742  0.1225 -0.0235
  696MOL0     C91756   0.958   9.777   8.931 -0.3439  0.6649 -0.3052
  696MOL0     N91757   1.105   9.765   8.948  0.5755 -0.6872 -0.0382
  696MOL0     C91758   1.185   9.679   9.007 -0.9881  1.0475  0.4693
  696MOL0     C91759   1.309   9.719   8.968 -0.0202 -0.0130 -0.6000
  696MOL0     C91760   1.443   9.653   9.003  0.0562 -0.7149  0.6656
  696MOL0     C91761   1.554   9.682   8.899 -0.2105  0.8211  0.4955
  696MOL0     C91762   1.687   9.617   8.943 -0.1683 -0.1034 -0.1865
  696MOL0     C91763   1.678   9.465   8.974 -0.3076 -0.7075  0.7151
  696MOL0     O91764   1.807   9.403   9.000  0.8498 -0.7737  0.3732
  696MOL0     C91765   1.847   9.435   9.128  0.1460  0.1712 -0.5426
  696MOL0     C91766   1.820   9.339   9.224 -0.1593 -0.8234 -0.0609
  696MOL0     C91767   1.867   9.353   9.363 -0.1823  0.0381  1.0350
  696MOL0     C91768   1.946   9.458   9.397 -0.0326  0.7258  0.2548
  696MOL0     C91769   2.004   9.488   9.536 -0.1433  0.0763  0.6145
  696MOL0     O91770   2.086   9.591   9.547  0.1844 -0.4376 -0.6731
  696MOL0     C91771   2.186   9.586   9.644  0.6574 -0.0215  0.3651
  696MOL0     C91772   2.316   9.573   9.612 -0.0549  0.1688 -0.4611
  696MOL0     C91773   2.415   9.576   9.705 -0.6849  0.5527  0.1387
  696MOL0     C91774   2.390   9.608   9.836 -0.5792 -0.4547 -0.6275
  696MOL0     O91775   2.490   9.623   9.939  0.0308  0.1004  0.1453
  696MOL0     C91776   2.580   9.734   9.928 -0.0936  0.3323  0.0452
  696MOL0     C91777   2.579   9.820  10.057  0.4434  0.2252  0.3464
  696MOL0     C91778   2.669   9.933  10.021  0.0403  0.1230  0.2548
  696MOL0     C91779   2.707  10.018  10.151  0.0931  0.2526 -0.1834
  696MOL0     C91780   2.819  10.127  10.134  0.1473 -0.1965 -0.0887
  696MOL0     C91781   2.888  10.175  10.258 -0.3231  0.5213  1.0925
  696MOL0     C91782   2.994  10.278  10.213  0.5634 -0.1560 -0.1330
  696MOL0     C91783   3.082  10.309  10.337 -0.0921 -0.0544  1.2430
  696MOL0    Cl91784   3.000  10.351  10.493  0.4390 -0.0402 -0.3297
  696MOL0     C91785   2.255   9.622   9.871 -0.3705 -0.0474 -0.6549
  696MOL0     C91786   2.155   9.611   9.778  0.4765  0.2464  0.0221
  696MOL0     O91787   1.982   9.401   9.615 -0.8335 -0.0743  0.4372
  696MOL0     C91788   1.975   9.553   9.298  0.5565 -0.3139  0.0483
  696MOL0     C91789   1.930   9.543   9.164  0.8269 -0.0210 -0.8416
  696MOL0     N91790   1.295   9.827   8.883 -0.6740  0.1834  0.1600
  696MOL0     N91791   1.174   9.856   8.872  0.7361 -0.6039 -0.0251
  696MOL0     C91792   0.562   9.366   8.128 -0.2316  0.1705 -0.5717
  696MOL0     C91793   0.491   9.374   8.005 -0.2294  0.4978  0.2231
  696MOL0     C91794   0.152   9.234   7.763  0.2200  0.0353 -0.1744
  696MOL0     C91795   0.110   9.108   7.733  0.2068  0.6336 -1.5476
  696MOL0     C91796   0.007   9.082   7.643 -0.9316  0.2838  0.4918
  696MOL0     C91797  -0.044   9.186   7.566  0.7535 -0.1058 -0.1239
  696MOL0     O91798  -0.150   9.144   7.483  0.1101  0.5998 -0.1587
  696MOL0     C91799  -0.214   9.242   7.402  0.3085 -0.2423  0.3090
  696MOL0     C91800  -0.344   9.187   7.354  0.0978 -0.3555  0.3101
  696MOL0     C91801  -0.394   9.260   7.225  1.1762 -0.5787  0.7442
  696MOL0     C91802  -0.538   9.218   7.168 -0.1215  0.2690 -0.5123
  696MOL0     C91803  -0.557   9.297   7.048  0.8996 -0.5302  0.4298
  696MOL0     C91804  -0.563   9.359   6.945  0.3482 -1.3466  0.7330
  696MOL0     C91805   0.005   9.323   7.589 -0.0983  0.4252  0.4587
  696MOL0     C91806   0.109   9.341   7.685  0.8204 -0.7560 -0.0519
  696MOL0     H91807   0.191   9.475   8.128  1.2319  0.5873  0.6838
  696MOL0     H91808   0.327   9.484   8.339  1.3513  0.6651 -0.0060
  696MOL0     H91809   0.724   9.533   8.361  1.1492  0.0420 -3.1389
  696MOL0     H91810   0.775   9.368   8.318  0.2432  4.4850 -2.6438
  696MOL0     H91811   0.853   9.430   8.528 -0.2378 -1.1718  0.1520
  696MOL0     H91812   0.771   9.281   8.551  4.9504  1.3026  2.5074
  696MOL0     H91813   0.563   9.383   8.611  1.0027 -1.3588 -1.6725
  696MOL0     H91814   0.618   9.548   8.590  0.5319  1.8164  3.1747
  696MOL0     H91815   0.651   9.378   8.823  2.6212 -0.2078  3.8562
  696MOL0     H91816   0.814   9.427   8.772 -0.0138 -1.1000 -0.8669
  696MOL0     H91817   0.697   9.577   8.945  1.0098  0.7488 -0.2622
  696MOL0     H91818   0.571   9.612   8.822  0.0821 -0.8190  0.0766
  696MOL0     H91819   0.732   9.790   8.842  1.7328  0.2823  0.9105
  696MOL0     H91820   0.747   9.714   8.683  0.8527 -0.0392  0.6503
  696MOL0     H91821   0.933   9.583   8.864  1.4786 -0.9920 -3.3918
  696MOL0     H91822   0.968   9.691   8.728 -2.2047  1.5837 -0.5366
  696MOL0     H91823   0.897   9.764   9.022 -1.5421  1.5544 -0.9519
  696MOL0     H91824   0.938   9.881   8.904  0.7735  1.1016  0.4656
  696MOL0     H91825   1.167   9.594   9.072  0.2157  0.0006 -0.4976
  696MOL0     H91826   1.425   9.545   9.009  1.1948 -0.8939  0.9760
  696MOL0     H91827   1.467   9.678   9.107 -0.6935 -3.1948  1.5191
  696MOL0     H91828   1.578   9.788   8.894  2.6336  0.3300  1.6742
  696MOL0     H91829   1.515   9.646   8.803 -1.6446  2.5754  0.3811
  696MOL0     H91830   1.751   9.629   8.855  0.2265  0.4180  0.1674
  696MOL0     H91831   1.726   9.674   9.028  1.3610  3.3140 -2.9015
  696MOL0     H91832   1.619   9.417   8.895  1.6434 -0.7895 -0.7747
  696MOL0     H91833   1.621   9.464   9.067 -1.8597  4.0624  0.0868
  696MOL0     H91834   1.755   9.257   9.195 -1.5855  0.6944 -1.3657
  696MOL0     H91835   1.833   9.286   9.442 -2.6814  0.8582  0.7584
  696MOL0     H91836   2.339   9.558   9.506  0.7948  1.8138 -0.5537
  696MOL0     H91837   2.521   9.575   9.679 -0.5674 -1.1633  0.5682
  696MOL0     H91838   2.554   9.803   9.847  1.4649 -0.0339 -0.8078
  696MOL0     H91839   2.677   9.687   9.909 -1.3826 -2.9339  0.7645
  696MOL0     H91840   2.607   9.760  10.144  0.0316 -3.7807 -2.0391
  696MOL0     H91841   2.480   9.864  10.074  0.6085  0.9203 -0.4679
  696MOL0     H91842   2.624   9.994   9.943 -0.5996  1.6778  1.7762
  696MOL0     H91843   2.768   9.895   9.993  0.9863  2.9589 -0.5473
  696MOL0     H91844   2.622  10.062  10.205 -1.1623 -0.4501 -1.4969
  696MOL0     H91845   2.745   9.940  10.218 -0.0256 -0.8422 -1.3470
  696MOL0     H91846   2.783  10.215  10.080 -0.5772  1.1810  2.5010
  696MOL0     H91847   2.901  10.080  10.079 -1.9691 -1.1171 -2.6764
  696MOL0     H91848   2.926  10.094  10.321 -1.1098  0.0978  1.0333
  696MOL0     H91849   2.816  10.233  10.317 -1.5017  0.5558 -0.3290
  696MOL0     H91850   3.058  10.226  10.141 -1.0133 -2.5364  0.0844
  696MOL0     H91851   2.940  10.365  10.175  2.0768  0.4933 -0.8734
  696MOL0     H91852   3.147  10.391  10.308 -0.4397 -0.0743  0.3762
  696MOL0     H91853   3.133  10.213  10.352 -3.7643 -2.2236  1.2160
  696MOL0     H91854   2.245   9.636   9.978  0.9619 -1.3377 -0.3156
  696MOL0     H91855   2.055   9.647   9.799 -0.0552  0.5697 -2.6463
  696MOL0     H91856   2.029   9.644   9.322  0.7354 -0.4797  0.2811
  696MOL0     H91857   1.962   9.607   9.083 -1.5082  0.1766 -1.6917
  696MOL0     H91858   0.649   9.302   8.130 -1.1017 -1.6167  6.3265
  696MOL0     H91859   0.539   9.348   7.911 -0.3016  4.0844 -0.9720
  696MOL0     H91860   0.149   9.022   7.788 -0.2041  1.8999  0.8643
  696MOL0     H91861  -0.022   8.978   7.628  1.9584 -0.7247  1.3363
  696MOL0     H91862  -0.153   9.260   7.313 -0.4491 -3.2015 -0.9161
  696MOL0     H91863  -0.239   9.336   7.452  0.6455 -0.2579  0.5119
  696MOL0     H91864  -0.317   9.085   7.325 -1.9676 -1.4197  1.8998
  696MOL0     H91865  -0.419   9.187   7.433  1.0795 -1.2543  1.2665
  696MOL0     H91866  -0.319   9.233   7.150  1.1380  1.5869 -0.1552
  696MOL0     H91867  -0.395   9.369   7.238 -0.2449 -0.0621 -2.6015
  696MOL0     H91868  -0.531   9.112   7.143 -2.2114 -1.1805  3.9688
  696MOL0     H91869  -0.613   9.224   7.248  1.9355  3.6160  1.3989
  696MOL0     H91870  -0.566   9.428   6.863  1.7460  0.7583  2.3607
  696MOL0     H91871  -0.037   9.400   7.525 -0.0859  1.3524  1.5455
  696MOL0     H91872   0.138   9.442   7.710 -1.0016 -0.7409  2.3879
  697MOL0     O91873   0.457   5.429   4.342 -0.3560 -0.1907 -0.1270
  697MOL0     C91874   0.383   5.387   4.258  0.2851 -0.3995  0.4255
  697MOL0     O91875   0.269   5.307   4.290 -0.1181  0.0633  0.8124
  697MOL0     C91876   0.211   5.277   4.415 -0.1236 -0.4973  0.9348
  697MOL0     C91877   0.231   5.366   4.529  0.6533 -0.5144  0.0838
  697MOL0     C91878   0.182   5.328   4.653  0.1541  0.6478 -0.3153
  697MOL0     C91879   0.099   5.218   4.672  0.1061 -0.2795 -0.0483
  697MOL0     O91880   0.055   5.184   4.792 -0.1398 -0.1766  0.6206
  697MOL0     C91881   0.039   5.275   4.897 -0.7222 -0.4699  0.0480
  697MOL0     C91882  -0.086   5.258   4.970  0.3154  0.4058  0.2308
  697MOL0     C91883  -0.106   5.355   5.083 -0.0075 -0.0513  0.0901
  697MOL0     C91884  -0.231   5.309   5.163  0.0412 -0.4890 -0.0455
  697MOL0     C91885  -0.230   5.390   5.292 -0.1012  0.2739  0.4376
  697MOL0     C91886  -0.354   5.360   5.391 -0.4157  0.2999 -0.5780
  697MOL0     C91887  -0.489   5.396   5.326 -0.2459  0.6277 -0.1636
  697MOL0     C91888  -0.561   5.283   5.261  0.3041 -0.0071  0.3247
  697MOL0     N91889  -0.708   5.310   5.261 -0.0948 -0.4491 -0.0379
  697MOL0     C91890  -0.793   5.278   5.164  0.6369  0.4575 -0.2888
  697MOL0     C91891  -0.915   5.272   5.228 -0.0074 -0.0146 -0.1279
  697MOL0     C91892  -1.048   5.218   5.166 -0.3807  0.3364 -0.3072
  697MOL0     C91893  -1.189   5.255   5.228 -0.4041  0.1548 -0.1504
  697MOL0     C91894  -1.297   5.205   5.130 -0.7335 -0.3042 -0.5871
  697MOL0     C91895  -1.450   5.226   5.168 -1.3402  0.4601  0.2721
  697MOL0     O91896  -1.484   5.363   5.124 -0.4505 -0.0309  1.4492
  697MOL0     C91897  -1.602   5.414   5.157 -0.6003  0.4813 -0.4382
  697MOL0     C91898  -1.615   5.489   5.275  0.1218  1.3558  0.4752
  697MOL0     C91899  -1.741   5.532   5.313 -0.5630 -0.9472  0.2898
  697MOL0     C91900  -1.855   5.516   5.230  0.4337 -0.6480  0.3986
  697MOL0     C91901  -1.981   5.574   5.263  0.8142 -0.7788 -0.0684
  697MOL0     O91902  -2.075   5.580   5.156 -0.3435  0.1590 -0.4194
  697MOL0     C91903  -2.206   5.607   5.173 -0.1641  0.8122 -0.8461
  697MOL0     C91904  -2.244   5.737   5.149 -0.7725  0.1114 -0.6084
  697MOL0     C91905  -2.377   5.783   5.139 -0.1023 -0.5192 -0.2798
  697MOL0     C91906  -2.480   5.690   5.149 -0.2937 -0.9686 -0.4372
  697MOL0     O91907  -2.603   5.730   5.107  0.0278  0.3155  1.3694
  697MOL0     C91908  -2.711   5.640   5.105 -0.4859 -0.7560 -1.0776
  697MOL0     C91909  -2.769   5.596   5.239 -1.0092  1.1761  0.4256
  697MOL0     C91910  -2.843   5.459   5.251  0.3749  0.1352 -0.4482
  697MOL0     C91911  -2.979   5.456   5.181 -0.5331  0.0270  0.7912
  697MOL0     C91912  -3.071   5.562   5.240  0.3608 -0.3650 -0.3052
  697MOL0     C91913  -3.192   5.599   5.151 -1.0264 -0.0169 -0.2010
  697MOL0     C91914  -3.289   5.685   5.220  0.7060  0.3640 -0.3236
  697MOL0     C91915  -3.357   5.793   5.130  0.3606  0.6493  1.2065
  697MOL0    Cl91916  -3.388   5.744   4.949  0.5232  0.1938  0.3310
  697MOL0     C91917  -2.441   5.558   5.178 -0.0342 -0.3145  0.5845
  697MOL0     C91918  -2.306   5.513   5.184 -0.1797  0.0695  0.3984
  697MOL0     O91919  -2.003   5.603   5.386 -0.0184  0.6035  0.8011
  697MOL0     C91920  -1.839   5.446   5.112 -1.0115 -0.1353 -1.0446
  697MOL0     C91921  -1.713   5.394   5.077  0.0922 -0.5877  0.5908
  697MOL0     N91922  -0.890   5.300   5.362  0.4203 -0.1847 -0.3909
  697MOL0     N91923  -0.763   5.331   5.379 -0.5496  0.4644  0.3150
  697MOL0     C91924   0.070   5.140   4.560  1.1939 -0.1291  0.1719
  697MOL0     C91925   0.125   5.168   4.429  0.0771 -0.6953 -0.4330
  697MOL0     C91926   0.412   5.414   4.113  0.5164  0.3775  0.5571
  697MOL0     C91927   0.368   5.344   4.004  0.7806 -0.3096 -0.4003
  697MOL0     C91928   0.434   5.362   3.878  0.4591  0.3149 -0.1144
  697MOL0     C91929   0.526   5.464   3.855  0.0564  0.2124 -1.1927
  697MOL0     O91930   0.576   5.468   3.730  0.7888  0.0155  0.1958
  697MOL0     C91931   0.631   5.595   3.678 -0.1100  0.5222 -0.2508
  697MOL0     C91932   0.785   5.603   3.684 -0.0354 -0.3709 -0.1796
  697MOL0     C91933   0.830   5.738   3.645  0.4921 -0.4859  0.6664
  697MOL0     C91934   0.984   5.744   3.616  0.1368  0.1467  0.0401
  697MOL0     C91935   1.073   5.701   3.729 -0.6593  0.1706  0.1593
  697MOL0     C91936   1.159   5.675   3.810 -0.7142 -0.5172  0.3554
  697MOL0     C91937   0.548   5.546   3.966 -0.3310  0.0185  0.2315
  697MOL0     C91938   0.503   5.518   4.096  0.3111  0.4244  1.1525
  697MOL0     H91939   0.305   5.445   4.536  2.1842 -1.9791  1.3468
  697MOL0     H91940   0.215   5.392   4.734  0.4853  1.6298 -1.2176
  697MOL0     H91941   0.040   5.378   4.860 -2.5442 -0.7684 -0.9927
  697MOL0     H91942   0.128   5.259   4.958  1.6299 -1.1350 -3.2916
  697MOL0     H91943  -0.110   5.152   4.984 -0.8360  0.4517 -1.1405
  697MOL0     H91944  -0.161   5.269   4.891 -0.4444 -3.7915  0.0936
  697MOL0     H91945  -0.116   5.460   5.053 -0.8942  0.0268  0.6319
  697MOL0     H91946  -0.012   5.343   5.138  0.9835  0.1581 -1.4790
  697MOL0     H91947  -0.326   5.316   5.108  0.8798  0.9432 -1.4065
  697MOL0     H91948  -0.216   5.201   5.163 -1.1441 -0.7592 -2.7468
  697MOL0     H91949  -0.237   5.496   5.268 -4.4505 -0.2334 -1.5608
  697MOL0     H91950  -0.136   5.358   5.339 -0.7043 -1.7201  0.4114
  697MOL0     H91951  -0.350   5.414   5.486 -1.7159 -1.9629  0.8434
  697MOL0     H91952  -0.344   5.252   5.403 -1.3635 -0.2193 -3.6518
  697MOL0     H91953  -0.550   5.442   5.405  0.0933  2.1400 -0.7626
  697MOL0     H91954  -0.467   5.464   5.244  0.9893 -0.4186 -0.7291
  697MOL0     H91955  -0.537   5.189   5.310  2.6347 -0.0332 -0.7370
  697MOL0     H91956  -0.528   5.274   5.157 -0.9004  2.9155 -0.4249
  697MOL0     H91957  -0.781   5.242   5.062 -0.2533 -2.3670  0.5175
  697MOL0     H91958  -1.036   5.110   5.168 -1.2904  0.2083 -1.2933
  697MOL0     H91959  -1.056   5.247   5.061 -4.3738 -0.5439 -0.3792
  697MOL0     H91960  -1.198   5.361   5.255 -2.1927 -0.2226  0.9164
  697MOL0     H91961  -1.203   5.205   5.324  0.7331 -0.1046 -0.1074
  697MOL0     H91962  -1.263   5.247   5.035  2.0580 -0.1920  0.3555
  697MOL0     H91963  -1.272   5.099   5.119  1.2826  0.3614 -3.8159
  697MOL0     H91964  -1.453   5.215   5.277 -1.2578  0.3830  0.2678
  697MOL0     H91965  -1.515   5.155   5.115  0.3394 -0.9697  0.0162
  697MOL0     H91966  -1.527   5.510   5.335 -0.3875  1.7323  1.0914
  697MOL0     H91967  -1.756   5.589   5.404 -0.3218  0.6823 -0.6468
  697MOL0     H91968  -2.162   5.808   5.154  0.2237 -1.0843  2.9564
  697MOL0     H91969  -2.380   5.887   5.109  1.7746 -0.1019  0.8250
  697MOL0     H91970  -2.682   5.551   5.048 -0.7921 -1.8390  0.4051
  697MOL0     H91971  -2.788   5.690   5.044 -2.3599 -1.1399  0.8637
  697MOL0     H91972  -2.826   5.679   5.283 -1.5523  2.7020 -2.8773
  697MOL0     H91973  -2.682   5.576   5.303 -0.1411 -1.2126 -1.3569
  697MOL0     H91974  -2.871   5.430   5.353  0.3368 -1.2129 -0.8235
  697MOL0     H91975  -2.785   5.372   5.217  0.5088 -2.2370  4.9134
  697MOL0     H91976  -2.962   5.459   5.073 -0.7946  0.0010  0.7481
  697MOL0     H91977  -3.010   5.355   5.210 -0.5667 -0.0605  0.4480
  697MOL0     H91978  -3.020   5.656   5.260  2.4919 -1.5870  0.2334
  697MOL0     H91979  -3.115   5.518   5.330 -1.1972 -3.6545 -2.4745
  697MOL0     H91980  -3.247   5.508   5.126 -1.0585  0.2616 -1.1721
  697MOL0     H91981  -3.157   5.662   5.069  0.3095  1.0593  1.1317
  697MOL0     H91982  -3.359   5.617   5.268  1.0960  1.0564  1.3253
  697MOL0     H91983  -3.254   5.746   5.304 -0.5018 -0.8268  1.1068
  697MOL0     H91984  -3.300   5.886   5.139 -0.7246  1.2674  1.9222
  697MOL0     H91985  -3.455   5.819   5.170 -0.0975 -0.8066  1.0932
  697MOL0     H91986  -2.513   5.477   5.177  1.3504 -1.5889 -0.3425
  697MOL0     H91987  -2.287   5.407   5.189  2.2410  0.4889  2.1615
  697MOL0     H91988  -1.924   5.432   5.046 -1.0394 -0.9888 -0.8448
  697MOL0     H91989  -1.704   5.320   4.999  0.1002 -0.5253  0.5318
  697MOL0     H91990  -0.010   5.069   4.580  0.0410  1.3676  1.0750
  697MOL0     H91991   0.118   5.109   4.339  1.6329 -1.1450 -0.2956
  697MOL0     H91992   0.293   5.267   3.994  1.0388 -0.4508 -1.2925
  697MOL0     H91993   0.407   5.308   3.788 -3.2493  1.0859  0.3994
  697MOL0     H91994   0.589   5.684   3.727  2.3302  0.8213  1.4835
  697MOL0     H91995   0.596   5.589   3.575 -0.9963 -0.2795  0.0807
  697MOL0     H91996   0.826   5.587   3.784 -0.0128  2.6911  0.3992
  697MOL0     H91997   0.831   5.527   3.620 -2.8382  0.2517 -3.1962
  697MOL0     H91998   0.797   5.793   3.733 -0.1551  0.4838 -0.1649
  697MOL0     H91999   0.768   5.785   3.568 -0.0147  0.3845  1.5841
  697MOL0     H92000   1.017   5.687   3.529  3.0158 -2.1702  2.4429
  697MOL0     H92001   0.999   5.850   3.594 -2.5810 -0.0038 -3.3083
  697MOL0     H92002   1.238   5.659   3.880 -1.8955  1.2040  2.1862
  697MOL0     H92003   0.616   5.629   3.952  0.3393 -0.6179 -0.4223
  697MOL0     H92004   0.525   5.576   4.185  2.5645 -1.8518  2.2163
  698MOL0     O92005   0.191  10.217   9.524 -0.1860  0.3246  0.6321
  698MOL0     C92006   0.203  10.292   9.617 -0.5699 -0.8512 -0.4319
  698MOL0     O92007   0.324  10.339   9.672  0.3002 -0.0660 -0.8441
  698MOL0     C92008   0.436  10.267   9.661  0.4316  0.0297 -0.2555
  698MOL0     C92009   0.461  10.149   9.588  1.0211  0.2796  0.2546
  698MOL0     C92010   0.594  10.095   9.579 -0.4992 -0.2760 -0.6878
  698MOL0     C92011   0.701  10.163   9.645  0.0382 -0.1438  0.5183
  698MOL0     O92012   0.819  10.098   9.642 -0.0489  0.2666 -0.5864
  698MOL0     C92013   0.841   9.957   9.624  0.5988 -0.2222 -0.3906
  698MOL0     C92014   0.953   9.922   9.719  1.1704  0.0077  0.2284
  698MOL0     C92015   1.081  10.003   9.711  0.6126 -0.9926 -1.6193
  698MOL0     C92016   1.187   9.982   9.815  0.0148 -0.0233  0.2906
  698MOL0     C92017   1.230   9.830   9.820  0.1858 -0.5939 -0.2804
  698MOL0     C92018   1.330   9.795   9.916 -0.7616 -0.8922 -0.0012
  698MOL0     C92019   1.458   9.881   9.898  0.4480  0.1118  0.9632
  698MOL0     C92020   1.577   9.825   9.986 -0.3333  0.3934  0.0608
  698MOL0     N92021   1.580   9.876  10.125 -0.0368 -0.3828  0.3881
  698MOL0     C92022   1.660   9.983  10.160  1.0759  0.6834  0.7886
  698MOL0     C92023   1.628  10.012  10.292 -0.0854 -0.4330  0.3657
  698MOL0     C92024   1.692  10.120  10.378 -0.1899 -0.1235  0.3131
  698MOL0     C92025   1.786  10.074  10.483  1.0056  0.1352  0.3391
  698MOL0     C92026   1.841  10.174  10.570  1.0505 -0.5518 -0.3706
  698MOL0     C92027   1.948  10.119  10.664  0.2780  0.0992 -0.3560
  698MOL0     O92028   1.880  10.046  10.766  0.1320 -1.2645 -0.3036
  698MOL0     C92029   1.939   9.972  10.859  0.5243  0.7604  0.3866
  698MOL0     C92030   2.082   9.958  10.873 -0.0308 -0.2478 -0.5044
  698MOL0     C92031   2.123   9.901  10.998  0.8458 -0.0351  0.2860
  698MOL0     C92032   2.035   9.847  11.097 -1.0087  0.0568 -0.2438
  698MOL0     C92033   2.093   9.800  11.232  0.7741 -0.6225  0.8101
  698MOL0     O92034   1.993   9.752  11.319  0.0108  0.7389 -0.0414
  698MOL0     C92035   2.028   9.687  11.438 -0.1835 -0.0853 -0.3407
  698MOL0     C92036   2.152   9.610  11.451  0.7969  0.6482  0.2825
  698MOL0     C92037   2.193   9.567  11.577  0.1553  0.5207  0.6487
  698MOL0     C92038   2.114   9.589  11.690 -0.5838 -0.5821 -0.8963
  698MOL0     O92039   2.149   9.558  11.818  0.3458  0.1555  0.3332
  698MOL0     C92040   2.268   9.483  11.845 -0.8482 -1.1083 -0.4863
  698MOL0     C92041   2.307   9.482  11.994 -0.2936 -0.7449  0.5238
  698MOL0     C92042   2.351   9.634  12.032 -0.5557  0.1819  0.0587
  698MOL0     C92043   2.436   9.653  12.166  0.5591  0.5258 -0.8494
  698MOL0     C92044   2.549   9.753  12.158  0.3351  1.2745  0.0598
  698MOL0     C92045   2.665   9.711  12.068  0.1115  0.4724 -0.5506
  698MOL0     C92046   2.732   9.586  12.117 -0.5312  0.3643  0.3139
  698MOL0     C92047   2.879   9.595  12.070 -0.4467  0.0314 -0.2092
  698MOL0    Cl92048   2.872   9.591  11.893 -0.0975 -0.2025  0.1409
  698MOL0     C92049   1.993   9.655  11.676 -1.3398 -0.7923 -0.1995
  698MOL0     C92050   1.947   9.705  11.552 -0.0973 -1.2502  0.4866
  698MOL0     O92051   2.215   9.800  11.245 -0.4693 -0.0139 -0.6085
  698MOL0     C92052   1.905   9.840  11.068  0.6927 -0.7385 -0.2019
  698MOL0     C92053   1.852   9.912  10.959 -0.1425 -0.3077 -0.8050
  698MOL0     N92054   1.521   9.930  10.317  0.1336  0.2945 -0.8879
  698MOL0     N92055   1.499   9.846  10.220  0.5155 -0.2206 -1.0885
  698MOL0     C92056   0.667  10.269   9.722 -0.5733 -0.0664 -0.3329
  698MOL0     C92057   0.541  10.327   9.735  0.3530  0.0684  1.0455
  698MOL0     C92058   0.078  10.312   9.685 -0.4495  0.1561 -0.9217
  698MOL0     C92059   0.069  10.396   9.800  0.0229  0.1152  0.7212
  698MOL0     C92060  -0.054  10.435   9.860  0.4227 -0.6745  0.1307
  698MOL0     C92061  -0.183  10.386   9.808  0.2648  0.6121 -0.4058
  698MOL0     O92062  -0.297  10.427   9.865  0.1326 -0.0942 -0.0639
  698MOL0     C92063  -0.419  10.360   9.850  0.9439 -0.6106 -0.0153
  698MOL0     C92064  -0.494  10.423   9.729 -0.3981 -0.3684  0.4013
  698MOL0     C92065  -0.632  10.375   9.705  0.8305  0.0389  0.0736
  698MOL0     C92066  -0.721  10.375   9.835 -0.3279 -0.0891 -0.1947
  698MOL0     C92067  -0.710  10.499   9.906  0.7399  0.3256 -0.7384
  698MOL0     C92068  -0.693  10.603   9.958  0.2649 -0.4390  0.9884
  698MOL0     C92069  -0.167  10.281   9.716 -0.0675 -0.4600  0.7598
  698MOL0     C92070  -0.041  10.262   9.643  1.0402  0.4338 -0.6850
  698MOL0     H92071   0.386  10.089   9.538  1.6744  0.0676 -0.5174
  698MOL0     H92072   0.610  10.002   9.525  1.4483  0.6119 -1.7336
  698MOL0     H92073   0.872   9.949   9.520  0.9091  2.8546 -0.6157
  698MOL0     H92074   0.752   9.896   9.644  1.5108 -0.5986  3.1680
  698MOL0     H92075   0.989   9.821   9.695  0.2571 -0.9563  2.5815
  698MOL0     H92076   0.928   9.927   9.825  1.5622 -1.0447  0.3852
  698MOL0     H92077   1.046  10.106   9.714 -0.5794 -1.4108  0.0316
  698MOL0     H92078   1.140   9.989   9.619  2.0475 -0.6196 -0.7812
  698MOL0     H92079   1.267  10.050   9.785 -0.0545 -0.9572 -2.2586
  698MOL0     H92080   1.159  10.018   9.915 -1.8702  1.4055 -0.7003
  698MOL0     H92081   1.255   9.809   9.716 -0.6572 -0.9781 -0.4156
  698MOL0     H92082   1.142   9.770   9.846  0.3004 -1.2287 -1.2977
  698MOL0     H92083   1.357   9.689   9.919  0.5842 -0.5561  0.7003
  698MOL0     H92084   1.284   9.820  10.012 -2.1048 -1.4785 -0.4783
  698MOL0     H92085   1.483   9.868   9.792 -0.4923 -0.7717  0.8269
  698MOL0     H92086   1.447   9.989   9.911  0.2902  0.4988 -1.8268
  698MOL0     H92087   1.665   9.874   9.942 -0.7119  0.6458 -0.4203
  698MOL0     H92088   1.592   9.717   9.979 -2.5243  0.0977 -0.5755
  698MOL0     H92089   1.744  10.024  10.105  1.6438 -1.0018  0.3447
  698MOL0     H92090   1.602  10.163  10.423 -2.0190 -1.3553 -1.9140
  698MOL0     H92091   1.734  10.198  10.314 -3.7781  1.3774 -0.4404
  698MOL0     H92092   1.865  10.016  10.436 -0.0414 -1.5394  0.5674
  698MOL0     H92093   1.730  10.007  10.548  1.1090 -0.5015 -0.2212
  698MOL0     H92094   1.887  10.250  10.507 -1.0544  0.5518 -0.6714
  698MOL0     H92095   1.758  10.220  10.624  2.3886  2.1610 -0.4677
  698MOL0     H92096   1.998  10.210  10.698 -0.2513 -0.1009  1.0197
  698MOL0     H92097   2.028  10.054  10.625  2.3253  2.7734 -0.8925
  698MOL0     H92098   2.150  10.001  10.801 -2.4540 -0.5799 -3.1882
  698MOL0     H92099   2.230   9.889  11.011  0.4310 -1.8148  2.7272
  698MOL0     H92100   2.215   9.586  11.367  0.4046 -0.8748  0.4030
  698MOL0     H92101   2.296   9.533  11.588 -0.1529 -0.9531 -0.7495
  698MOL0     H92102   2.356   9.528  11.799  0.1906 -1.7311  0.8306
  698MOL0     H92103   2.251   9.383  11.804  0.5767 -2.4434  1.9506
  698MOL0     H92104   2.388   9.409  12.004  1.9717  1.2997 -1.5208
  698MOL0     H92105   2.218   9.459  12.053  0.6492 -0.2108  2.2232
  698MOL0     H92106   2.263   9.695  12.054 -0.2522 -0.2515  2.9318
  698MOL0     H92107   2.413   9.668  11.949 -1.6531 -6.5654 -4.3642
  698MOL0     H92108   2.372   9.686  12.248  3.7623  0.7653  1.7697
  698MOL0     H92109   2.469   9.552  12.193 -1.2241  0.4130  1.2071
  698MOL0     H92110   2.590   9.765  12.259 -0.7190  2.2430  0.3984
  698MOL0     H92111   2.509   9.848  12.121 -0.1550  1.0096 -0.0915
  698MOL0     H92112   2.738   9.792  12.059  1.4351 -0.4556  1.1328
  698MOL0     H92113   2.616   9.698  11.971 -1.9557  1.0392  0.3538
  698MOL0     H92114   2.725   9.575  12.225  2.0816 -1.6930  0.3731
  698MOL0     H92115   2.682   9.496  12.081 -2.4510  0.1233  3.2626
  698MOL0     H92116   2.935   9.507  12.101  3.4312  1.2633 -3.0299
  698MOL0     H92117   2.926   9.687  12.108 -1.6654 -0.9431  4.2855
  698MOL0     H92118   1.925   9.694  11.752  1.0012 -0.5385  1.9231
  698MOL0     H92119   1.855   9.761  11.562  1.6155  1.3892  3.2897
  698MOL0     H92120   1.835   9.795  11.138 -2.0778 -2.4449 -3.6987
  698MOL0     H92121   1.745   9.930  10.964 -0.0155  0.1741  2.5494
  698MOL0     H92122   0.753  10.316   9.767 -1.0407 -1.0583  1.7509
  698MOL0     H92123   0.522  10.418   9.791 -0.9604  2.1637 -2.4521
  698MOL0     H92124   0.160  10.435   9.846  1.1114 -1.6850  0.2070
  698MOL0     H92125  -0.052  10.504   9.943  4.6085 -0.6466  0.1768
  698MOL0     H92126  -0.477  10.365   9.943 -0.1446 -1.7058 -0.6048
  698MOL0     H92127  -0.396  10.256   9.825 -0.4245 -0.1963 -3.5919
  698MOL0     H92128  -0.489  10.532   9.739  1.3624 -0.0830 -2.5261
  698MOL0     H92129  -0.433  10.403   9.640 -3.1322  0.7763 -1.8522
  698MOL0     H92130  -0.621  10.276   9.660  1.0027 -0.1245  0.4750
  698MOL0     H92131  -0.684  10.435   9.629 -2.0350  1.7147  3.1106
  698MOL0     H92132  -0.823  10.354   9.801 -0.6404  0.5806  0.3057
  698MOL0     H92133  -0.690  10.292   9.898  0.8305 -0.0914 -0.7451
  698MOL0     H92134  -0.672  10.704   9.986  0.4907  0.4045 -1.8744
  698MOL0     H92135  -0.252  10.240   9.662 -1.2902 -1.1939  3.1120
  698MOL0     H92136  -0.048  10.186   9.566  0.7190 -1.0444  0.7367
  699MOL0     O92137   6.821   8.463   0.336 -0.6408 -0.6169  0.0515
  699MOL0     C92138   6.780   8.361   0.383 -0.2337  0.2578  0.0425
  699MOL0     O92139   6.654   8.310   0.372  0.1970 -0.3230  0.0510
  699MOL0     C92140   6.542   8.389   0.332  0.2489  0.3947  0.3481
  699MOL0     C92141   6.537   8.518   0.267 -0.1878  0.4529  0.0428
  699MOL0     C92142   6.425   8.561   0.197 -0.3210  0.4014 -0.6869
  699MOL0     C92143   6.308   8.483   0.232  1.1845 -0.2088  0.0170
  699MOL0     O92144   6.186   8.515   0.175  0.1406 -0.3987  0.0714
  699MOL0     C92145   6.138   8.642   0.205 -0.0515 -0.5191 -0.3333
  699MOL0     C92146   5.989   8.659   0.203  0.9959  0.0537 -1.0714
  699MOL0     C92147   5.936   8.647   0.059 -0.0937 -0.2405 -0.4122
  699MOL0     C92148   5.787   8.637   0.044  0.3863  0.1902  1.6128
  699MOL0     C92149   5.746   8.635  -0.104  0.2709 -0.0208 -0.2711
  699MOL0     C92150   5.787   8.503  -0.176 -0.0773  0.1661  0.4455
  699MOL0     C92151   5.699   8.472  -0.300  0.3060 -0.3066 -0.3297
  699MOL0     C92152   5.705   8.578  -0.421 -0.8094 -0.3686 -0.2156
  699MOL0     N92153   5.601   8.682  -0.404 -0.3566 -0.0975  0.0801
  699MOL0     C92154   5.463   8.664  -0.427 -0.6328 -0.3637  0.2187
  699MOL0     C92155   5.403   8.779  -0.392  0.2337 -0.5528  0.3130
  699MOL0     C92156   5.249   8.796  -0.397  0.6641  0.3076 -0.0141
  699MOL0     C92157   5.230   8.959  -0.412  0.1464  0.5006 -0.1421
  699MOL0     C92158   5.082   8.993  -0.395  0.1904  0.4735  1.2834
  699MOL0     C92159   4.995   8.924  -0.506 -0.0479  1.0422  0.7327
  699MOL0     O92160   4.865   8.974  -0.491 -0.1606 -0.2573 -0.2794
  699MOL0     C92161   4.772   8.928  -0.580 -0.3999 -0.2919  0.0130
  699MOL0     C92162   4.794   8.823  -0.675 -0.1923 -0.2026  0.1363
  699MOL0     C92163   4.694   8.783  -0.759  0.3930  0.0583  0.0028
  699MOL0     C92164   4.564   8.830  -0.756 -0.3123 -0.4979  0.3950
  699MOL0     C92165   4.458   8.785  -0.851  0.2250  0.0155  0.3639
  699MOL0     O92166   4.476   8.668  -0.920 -0.0507 -0.5183  0.1132
  699MOL0     C92167   4.375   8.629  -1.008  0.6773  0.2733 -0.7249
  699MOL0     C92168   4.335   8.707  -1.117 -0.1746 -0.2422  0.8460
  699MOL0     C92169   4.239   8.679  -1.208  0.4479 -0.2229 -0.3544
  699MOL0     C92170   4.166   8.562  -1.176 -0.0848 -0.6738 -0.0069
  699MOL0     O92171   4.054   8.526  -1.245  0.5006  0.3848 -0.4978
  699MOL0     C92172   3.933   8.575  -1.193 -0.2266  0.0260 -0.4758
  699MOL0     C92173   3.840   8.464  -1.205 -0.4173  0.7966 -0.5656
  699MOL0     C92174   3.696   8.518  -1.187 -0.2365 -0.0603 -1.1486
  699MOL0     C92175   3.668   8.562  -1.042  0.2171 -0.3982  1.0569
  699MOL0     C92176   3.524   8.616  -1.024  0.6942 -0.4257 -0.0001
  699MOL0     C92177   3.476   8.650  -0.880  0.0909  0.3306 -0.1003
  699MOL0     C92178   3.537   8.788  -0.838  0.1724 -0.5659 -0.3393
  699MOL0     C92179   3.432   8.901  -0.857  0.5707  0.2944  0.0648
  699MOL0    Cl92180   3.271   8.877  -0.770  0.4062  0.5174 -0.4543
  699MOL0     C92181   4.195   8.481  -1.073  0.1924  0.7370 -0.2347
  699MOL0     C92182   4.298   8.513  -0.986 -0.4769  1.5852  0.6890
  699MOL0     O92183   4.364   8.859  -0.870 -0.0284 -0.5038  0.0382
  699MOL0     C92184   4.539   8.926  -0.648  0.1350  0.1010 -0.0233
  699MOL0     C92185   4.639   8.972  -0.565  0.4214 -1.2210  0.8396
  699MOL0     N92186   5.495   8.861  -0.325 -0.2229 -0.0114  0.8386
  699MOL0     N92187   5.614   8.808  -0.334  0.5733 -0.6253 -0.9499
  699MOL0     C92188   6.305   8.366   0.298 -0.6027 -1.0781 -0.1363
  699MOL0     C92189   6.422   8.323   0.354 -0.7316  0.3157 -1.0776
  699MOL0     C92190   6.885   8.275   0.439  0.1713  0.3609 -0.0351
  699MOL0     C92191   7.012   8.313   0.486  0.8075 -0.3066 -0.0172
  699MOL0     C92192   7.098   8.216   0.549  0.3373  0.3614 -0.0681
  699MOL0     C92193   7.062   8.084   0.546  0.7526 -0.3547 -0.3650
  699MOL0     O92194   7.152   7.992   0.586 -0.2967 -0.9070  0.5176
  699MOL0     C92195   7.270   7.990   0.513  0.2116 -0.6510  0.1764
  699MOL0     C92196   7.391   7.947   0.604 -0.3973  0.9476 -0.0482
  699MOL0     C92197   7.528   7.928   0.530 -0.2968  0.8071 -0.5950
  699MOL0     C92198   7.634   7.846   0.605  0.0462 -0.5062 -0.3708
  699MOL0     C92199   7.745   7.821   0.517 -0.9730  0.0679 -0.4292
  699MOL0     C92200   7.838   7.801   0.448  0.4943  0.6357 -0.2420
  699MOL0     C92201   6.944   8.043   0.485 -0.6528 -0.2066 -0.4795
  699MOL0     C92202   6.855   8.137   0.433  0.0850 -0.8109 -0.6660
  699MOL0     H92203   6.630   8.561   0.232 -0.5785  0.2360 -1.3481
  699MOL0     H92204   6.416   8.654   0.143 -0.8317  0.4451 -0.5312
  699MOL0     H92205   6.187   8.707   0.132 -0.3975  1.0679  0.7863
  699MOL0     H92206   6.164   8.679   0.305 -2.8255 -0.8328  0.5839
  699MOL0     H92207   5.949   8.757   0.230 -2.7362 -0.4637 -3.9683
  699MOL0     H92208   5.947   8.591   0.278  1.9869 -0.6177 -1.1041
  699MOL0     H92209   5.975   8.558   0.010  1.7678  0.1147  0.3329
  699MOL0     H92210   5.960   8.733  -0.004 -2.3267 -0.8380 -2.2166
  699MOL0     H92211   5.741   8.543   0.078 -0.2859  0.4562  1.4668
  699MOL0     H92212   5.731   8.713   0.099 -5.2930 -1.1820 -1.4326
  699MOL0     H92213   5.786   8.726  -0.150  1.4449 -1.5992 -2.5532
  699MOL0     H92214   5.638   8.655  -0.102  0.0453 -0.8976  3.1611
  699MOL0     H92215   5.783   8.409  -0.120 -0.7144 -0.5045 -0.6712
  699MOL0     H92216   5.890   8.502  -0.211 -0.0980 -0.1168  0.3887
  699MOL0     H92217   5.719   8.375  -0.345 -0.0727 -1.2461  1.4142
  699MOL0     H92218   5.598   8.452  -0.261  0.6957  0.3730  1.0984
  699MOL0     H92219   5.695   8.523  -0.514  1.0220 -0.4031 -0.4141
  699MOL0     H92220   5.804   8.623  -0.425  0.6325 -3.3913 -1.1967
  699MOL0     H92221   5.422   8.576  -0.477 -0.6530 -0.4157  0.3260
  699MOL0     H92222   5.207   8.760  -0.302  3.3380 -3.6618 -0.0843
  699MOL0     H92223   5.207   8.740  -0.481  0.6428  1.7688 -1.0091
  699MOL0     H92224   5.253   8.989  -0.514 -2.2831 -2.2435 -1.6534
  699MOL0     H92225   5.287   9.009  -0.333 -0.6375  1.1378  0.0340
  699MOL0     H92226   5.039   8.967  -0.298 -0.7813  0.3853  0.8475
  699MOL0     H92227   5.074   9.102  -0.399  1.3913  0.5683  1.3722
  699MOL0     H92228   4.998   8.816  -0.485  1.8285  1.1095  0.9681
  699MOL0     H92229   5.035   8.940  -0.607  0.0456 -2.3788  0.1014
  699MOL0     H92230   4.890   8.774  -0.689 -0.7812 -1.0662 -1.0768
  699MOL0     H92231   4.719   8.720  -0.844  2.8417  2.3608 -1.1288
  699MOL0     H92232   4.396   8.794  -1.141 -1.9604  0.6307 -0.7387
  699MOL0     H92233   4.209   8.738  -1.293 -3.2683 -1.0138  0.2317
  699MOL0     H92234   3.891   8.661  -1.246 -1.1789 -0.5137 -0.6230
  699MOL0     H92235   3.952   8.603  -1.090  1.5790 -0.4542 -0.6451
  699MOL0     H92236   3.856   8.389  -1.127 -0.9742 -1.0239 -2.1285
  699MOL0     H92237   3.854   8.420  -1.303 -3.5297  0.4148 -0.9530
  699MOL0     H92238   3.625   8.438  -1.209  0.6416 -2.0459  2.4164
  699MOL0     H92239   3.682   8.606  -1.250 -1.8084 -0.5142 -1.4622
  699MOL0     H92240   3.709   8.484  -0.977 -0.5052 -1.7647 -0.0753
  699MOL0     H92241   3.724   8.652  -1.015 -0.4256 -0.0786  1.3443
  699MOL0     H92242   3.449   8.545  -1.060 -2.0315  3.8420 -3.6493
  699MOL0     H92243   3.517   8.709  -1.081  0.4931 -0.0057  0.6959
  699MOL0     H92244   3.504   8.571  -0.810  2.8417 -0.7778 -2.2660
  699MOL0     H92245   3.368   8.668  -0.879  0.2364  1.3782 -1.1025
  699MOL0     H92246   3.576   8.789  -0.736  1.4343 -1.0325 -0.8034
  699MOL0     H92247   3.626   8.802  -0.900 -0.0471 -3.4603 -1.4523
  699MOL0     H92248   3.404   8.905  -0.962  1.2702  0.9694 -0.1041
  699MOL0     H92249   3.480   8.996  -0.831 -2.0947  2.1268 -1.2780
  699MOL0     H92250   4.134   8.393  -1.055  1.8210  0.1443  3.1964
  699MOL0     H92251   4.326   8.455  -0.898 -2.1564  1.5025  1.2186
  699MOL0     H92252   4.446   8.980  -0.641  0.1223 -0.0495  1.0525
  699MOL0     H92253   4.611   9.035  -0.482  0.9693  0.0251  0.1056
  699MOL0     H92254   6.212   8.320   0.328  0.6818 -2.1813  2.5424
  699MOL0     H92255   6.415   8.235   0.417  0.1979  0.9232 -0.1015
  699MOL0     H92256   7.018   8.420   0.505 -4.1700 -0.0711  1.5023
  699MOL0     H92257   7.188   8.244   0.602  0.0164 -0.3882  0.8923
  699MOL0     H92258   7.288   8.084   0.460  0.6415 -1.4770 -1.2075
  699MOL0     H92259   7.256   7.909   0.440 -2.4398 -2.0005  2.0402
  699MOL0     H92260   7.403   8.023   0.682 -1.4439 -0.5168  1.6231
  699MOL0     H92261   7.361   7.850   0.644  0.0433 -0.4915 -2.9932
  699MOL0     H92262   7.563   8.030   0.511 -0.0320  0.4610 -2.1218
  699MOL0     H92263   7.519   7.884   0.430 -0.4296  2.5955 -1.3929
  699MOL0     H92264   7.662   7.904   0.693 -1.1239  0.7686 -0.7962
  699MOL0     H92265   7.588   7.753   0.640 -2.4740  1.5361  2.2503
  699MOL0     H92266   7.931   7.783   0.398  0.2224 -1.2183 -0.1530
  699MOL0     H92267   6.933   7.936   0.476 -2.1043 -0.1716  0.6319
  699MOL0     H92268   6.766   8.091   0.389  1.0955 -1.3875 -2.2004
  700MOL0     O92269   1.640   9.641  11.011  0.2401  0.4125  0.0897
  700MOL0     C92270   1.573   9.731  11.057 -0.4661  0.8175 -0.3414
  700MOL0     O92271   1.550   9.757  11.188 -0.0248 -0.2796 -0.3643
  700MOL0     C92272   1.591   9.673  11.288  0.0825  0.3848  0.6588
  700MOL0     C92273   1.574   9.723  11.421  0.2595  0.2801 -0.7547
  700MOL0     C92274   1.610   9.649  11.534  0.3519  0.3710 -0.1319
  700MOL0     C92275   1.638   9.514  11.516 -0.2303  0.0300  0.5943
  700MOL0     O92276   1.658   9.439  11.627 -0.3299 -0.1921 -0.8331
  700MOL0     C92277   1.748   9.323  11.615 -0.2053 -0.0846 -0.0756
  700MOL0     C92278   1.657   9.197  11.629  0.9677  0.4730  0.0064
  700MOL0     C92279   1.746   9.071  11.655  0.1521 -0.3834 -0.4678
  700MOL0     C92280   1.668   8.941  11.661  0.3590 -0.1484  0.7354
  700MOL0     C92281   1.760   8.826  11.716 -1.0422  0.3803 -0.2144
  700MOL0     C92282   1.871   8.784  11.620 -0.2814  0.3072 -0.5284
  700MOL0     C92283   2.007   8.727  11.668 -0.2834 -0.4262 -0.2400
  700MOL0     C92284   2.072   8.637  11.552  0.4041  0.3496  0.2672
  700MOL0     N92285   2.216   8.616  11.575 -0.9261  0.1916  0.4538
  700MOL0     C92286   2.310   8.718  11.568  0.1383  0.4640  0.2236
  700MOL0     C92287   2.406   8.674  11.645  0.1496  0.5737 -0.9633
  700MOL0     C92288   2.536   8.742  11.667 -1.4073 -0.3685  0.3247
  700MOL0     C92289   2.584   8.744  11.814 -0.2404  0.6090 -0.1863
  700MOL0     C92290   2.629   8.612  11.874 -1.0610  1.5069 -0.9786
  700MOL0     C92291   2.701   8.650  12.002 -0.8227 -0.9701  0.0655
  700MOL0     O92292   2.827   8.706  11.964  0.2069  0.7401 -0.1268
  700MOL0     C92293   2.944   8.629  11.938  0.1725 -0.9262  0.4172
  700MOL0     C92294   3.011   8.662  11.823  0.4212  0.6600 -0.8237
  700MOL0     C92295   3.123   8.589  11.800 -0.2034  0.6936 -0.1108
  700MOL0     C92296   3.156   8.461  11.854 -0.0523 -1.8702 -0.3952
  700MOL0     C92297   3.262   8.373  11.799  0.6290  0.4361 -1.3091
  700MOL0     O92298   3.313   8.273  11.881  0.9150 -0.6147  0.0874
  700MOL0     C92299   3.385   8.159  11.846 -0.2188 -0.6987  0.1942
  700MOL0     C92300   3.446   8.080  11.947  0.0562 -0.5833  0.3521
  700MOL0     C92301   3.527   7.977  11.909 -1.5036 -0.2699 -0.6202
  700MOL0     C92302   3.555   7.942  11.778 -0.5469  0.7625  0.3413
  700MOL0     O92303   3.633   7.825  11.755 -0.1917 -0.1064 -0.8220
  700MOL0     C92304   3.639   7.765  11.628  0.1902  0.4833 -0.4203
  700MOL0     C92305   3.701   7.842  11.512 -1.3008 -0.6570 -0.2977
  700MOL0     C92306   3.785   7.752  11.425 -1.1338  0.0537  1.1460
  700MOL0     C92307   3.741   7.629  11.361  0.6952 -0.5425  1.7660
  700MOL0     C92308   3.843   7.568  11.256 -0.4474  0.1719  0.1569
  700MOL0     C92309   3.850   7.633  11.118 -1.1747  0.0062 -0.8497
  700MOL0     C92310   3.964   7.567  11.026 -0.4157  0.6462  0.5622
  700MOL0     C92311   3.939   7.579  10.879  0.2546  0.0029 -0.2990
  700MOL0    Cl92312   4.083   7.524  10.807  0.0541  0.0743  0.4562
  700MOL0     C92313   3.499   8.023  11.675  0.3481  0.2746 -1.2592
  700MOL0     C92314   3.415   8.128  11.710 -1.1309  0.1906 -0.9463
  700MOL0     O92315   3.305   8.395  11.689  0.7464  0.0742  0.0988
  700MOL0     C92316   3.083   8.426  11.971 -0.3637 -0.6014  0.6702
  700MOL0     C92317   2.978   8.515  12.017 -0.1340 -0.2568  0.9862
  700MOL0     N92318   2.375   8.554  11.697  0.4560 -0.2007  0.0346
  700MOL0     N92319   2.261   8.517  11.653  0.4718 -0.0860 -0.7044
  700MOL0     C92320   1.639   9.462  11.391 -0.0333  0.3131 -1.4889
  700MOL0     C92321   1.623   9.540  11.273  0.1728 -0.4642 -0.3165
  700MOL0     C92322   1.500   9.797  10.956  0.6260  0.1316  0.2207
  700MOL0     C92323   1.530   9.791  10.814  0.0018 -0.8415  0.7041
  700MOL0     C92324   1.443   9.857  10.721  0.1373 -0.1854  0.0028
  700MOL0     C92325   1.343   9.943  10.773  0.4109  0.7703  0.6707
  700MOL0     O92326   1.244  10.003  10.702 -0.2269  0.0313 -0.3900
  700MOL0     C92327   1.279  10.058  10.575  0.3245  0.0803  0.1718
  700MOL0     C92328   1.226   9.983  10.445  0.5681 -0.4716 -0.0995
  700MOL0     C92329   1.067   9.976  10.444 -0.6738  0.1549 -0.3527
  700MOL0     C92330   1.013   9.893  10.321  0.0428 -0.3336 -0.2851
  700MOL0     C92331   1.098   9.771  10.300 -0.5325 -0.2378  1.2420
  700MOL0     C92332   1.176   9.677  10.282 -0.6403  0.3548 -0.7242
  700MOL0     C92333   1.311   9.945  10.904  0.6206  0.4376  1.0090
  700MOL0     C92334   1.384   9.869  10.993 -0.8395  0.5624  0.1233
  700MOL0     H92335   1.528   9.819  11.442  1.2567  1.0166 -1.8080
  700MOL0     H92336   1.606   9.696  11.632  1.4407 -0.5005  0.3625
  700MOL0     H92337   1.804   9.333  11.708 -2.7891  0.0540  1.5523
  700MOL0     H92338   1.809   9.329  11.524 -0.7210  2.3226 -0.3123
  700MOL0     H92339   1.588   9.182  11.545  1.3486  0.8308 -0.3749
  700MOL0     H92340   1.590   9.209  11.714  0.3493 -0.4409 -0.3270
  700MOL0     H92341   1.800   9.085  11.749 -0.0365 -2.1622 -0.0676
  700MOL0     H92342   1.808   9.055  11.566 -0.5767 -1.9118 -0.7281
  700MOL0     H92343   1.582   8.950  11.728 -0.1985  0.1841  0.0032
  700MOL0     H92344   1.629   8.919  11.560  0.9272  1.8130  0.0444
  700MOL0     H92345   1.701   8.737  11.737  0.0298 -0.6359 -1.3381
  700MOL0     H92346   1.816   8.852  11.806  1.7498 -0.5086 -1.5726
  700MOL0     H92347   1.899   8.874  11.564  1.1831  1.1745  1.4877
  700MOL0     H92348   1.828   8.701  11.563 -1.2056 -1.7125  2.8131
  700MOL0     H92349   2.073   8.813  11.679 -0.0954 -0.1388 -2.9933
  700MOL0     H92350   1.989   8.666  11.758 -3.3724 -0.1159 -0.5424
  700MOL0     H92351   2.073   8.699  11.462  0.2773  1.1773  0.8270
  700MOL0     H92352   2.014   8.544  11.558 -2.2618  1.9796  1.9708
  700MOL0     H92353   2.302   8.814  11.518 -2.2808 -0.1715 -0.7519
  700MOL0     H92354   2.545   8.842  11.623  2.4250 -0.1973  1.1288
  700MOL0     H92355   2.607   8.683  11.608 -1.4101  0.2210 -0.2963
  700MOL0     H92356   2.504   8.784  11.877 -0.9533  0.4129 -0.9567
  700MOL0     H92357   2.669   8.813  11.818  1.9229 -1.8528 -1.0475
  700MOL0     H92358   2.551   8.543  11.908  2.6332 -2.2142  0.9594
  700MOL0     H92359   2.702   8.568  11.805 -1.7226 -2.8272  0.7571
  700MOL0     H92360   2.708   8.569  12.075  2.9329  1.6341  2.9989
  700MOL0     H92361   2.640   8.730  12.046  1.6903  1.3920 -0.5123
  700MOL0     H92362   2.992   8.761  11.781  0.7536  1.7772  1.5161
  700MOL0     H92363   3.189   8.628  11.723  0.3606  3.1077  1.4951
  700MOL0     H92364   3.429   8.120  12.047 -1.2845  0.3664 -0.2337
  700MOL0     H92365   3.563   7.922  11.995 -0.8864  1.9701  0.6324
  700MOL0     H92366   3.535   7.735  11.607  0.2740  0.7657 -1.2605
  700MOL0     H92367   3.692   7.674  11.658  0.4844  0.5949 -0.5967
  700MOL0     H92368   3.767   7.916  11.558 -0.4235  0.2674 -2.8477
  700MOL0     H92369   3.624   7.894  11.455 -0.6180  1.4338  0.6089
  700MOL0     H92370   3.877   7.732  11.481 -0.4757 -1.4971 -0.3920
  700MOL0     H92371   3.826   7.815  11.344 -2.5812  0.4236  0.6753
  700MOL0     H92372   3.721   7.546  11.429  0.1723 -1.0886  0.9740
  700MOL0     H92373   3.650   7.654  11.306  0.9930  0.6920  1.8081
  700MOL0     H92374   3.835   7.459  11.252 -2.0329  0.2406  0.6330
  700MOL0     H92375   3.939   7.581  11.308 -0.9646 -0.2621  1.2677
  700MOL0     H92376   3.870   7.740  11.133  2.1594 -0.7870  1.4124
  700MOL0     H92377   3.752   7.620  11.073  0.0201  1.6422 -4.3332
  700MOL0     H92378   4.062   7.612  11.043 -0.1836  0.6804 -0.7702
  700MOL0     H92379   3.969   7.461  11.051 -2.3273  0.8226  1.8977
  700MOL0     H92380   3.927   7.683  10.846 -0.4260 -0.6054 -2.0561
  700MOL0     H92381   3.848   7.530  10.845  0.0823 -1.4126  1.9801
  700MOL0     H92382   3.524   8.004  11.571 -1.3336  1.4875 -1.9358
  700MOL0     H92383   3.388   8.182  11.619 -0.9576  0.9765 -0.5419
  700MOL0     H92384   3.108   8.343  12.036  0.8119  0.5570  1.7707
  700MOL0     H92385   2.926   8.493  12.110  0.4960 -0.1460  1.3682
  700MOL0     H92386   1.654   9.356  11.374 -0.5493  0.1153 -0.7206
  700MOL0     H92387   1.625   9.485  11.180 -1.4051 -0.6865 -0.2424
  700MOL0     H92388   1.617   9.731  10.789 -0.1721 -0.3579 -1.1793
  700MOL0     H92389   1.451   9.853  10.613 -1.8618  1.0299 -0.2399
  700MOL0     H92390   1.388  10.072  10.574  0.4027 -0.1189  2.1515
  700MOL0     H92391   1.236  10.158  10.567 -0.6576 -0.4577 -2.1941
  700MOL0     H92392   1.265  10.038  10.359  1.9803  0.8300  1.2973
  700MOL0     H92393   1.278   9.887  10.455 -0.1294 -0.9794 -1.1741
  700MOL0     H92394   1.033  10.079  10.430 -1.4350 -0.1878 -1.1245
  700MOL0     H92395   1.039   9.928  10.539  0.3190  0.6491  0.2033
  700MOL0     H92396   0.909   9.866  10.340  0.1947 -1.7228 -1.3149
  700MOL0     H92397   1.012   9.962  10.236 -0.7524 -2.4180 -2.0570
  700MOL0     H92398   1.252   9.604  10.264 -0.1297  1.1473 -1.9503
  700MOL0     H92399   1.232  10.013  10.935  0.0267 -0.0915  0.6914
  700MOL0     H92400   1.365   9.857  11.099  1.2836 -0.9606  0.3847
  701MOL0     O92401   4.495  10.046   9.279  0.7055  0.4600 -0.3292
  701MOL0     C92402   4.583  10.094   9.211  0.7277  0.4395 -0.4509
  701MOL0     O92403   4.709  10.104   9.243  0.2534 -0.5903 -0.4833
  701MOL0     C92404   4.752  10.129   9.370  0.1177 -0.6218  0.3550
  701MOL0     C92405   4.880  10.097   9.407 -0.4718  0.5954 -1.0095
  701MOL0     C92406   4.938  10.142   9.522  0.2047  0.2754 -0.3952
  701MOL0     C92407   4.860  10.197   9.628  0.1202 -1.1846 -0.0474
  701MOL0     O92408   4.901  10.247   9.746  0.0907  0.0399 -0.7325
  701MOL0     C92409   5.015  10.188   9.798  0.0043  1.0499 -0.3267
  701MOL0     C92410   5.014  10.197   9.952 -0.5346 -0.1334 -0.0665
  701MOL0     C92411   4.953  10.070  10.023  0.1340  0.6478 -0.3776
  701MOL0     C92412   4.958  10.101  10.168 -0.9228 -0.7670  0.2866
  701MOL0     C92413   4.872   9.995  10.244  0.7090 -0.0055  0.3268
  701MOL0     C92414   4.874  10.022  10.398  0.8399  0.2118  0.5035
  701MOL0     C92415   4.805   9.908  10.476  0.3392  0.1384  0.1178
  701MOL0     C92416   4.655   9.934  10.486 -0.8964  1.1628 -0.3196
  701MOL0     N92417   4.582   9.809  10.516 -0.5262  0.5002  1.6070
  701MOL0     C92418   4.507   9.780  10.625  0.1093 -1.1141 -0.3047
  701MOL0     C92419   4.433   9.670  10.590 -0.8862  0.0727  0.1054
  701MOL0     C92420   4.318   9.602  10.669 -0.4674 -0.2212  0.3897
  701MOL0     C92421   4.357   9.458  10.710  0.3756 -0.3279  0.8119
  701MOL0     C92422   4.480   9.450  10.795  0.4444 -0.4466 -0.4620
  701MOL0     C92423   4.523   9.309  10.805  0.2766 -0.0132  0.2138
  701MOL0     O92424   4.476   9.252  10.924  0.2827  0.2830 -0.0504
  701MOL0     C92425   4.550   9.266  11.036 -0.0776 -0.8124 -0.8900
  701MOL0     C92426   4.478   9.286  11.156  0.2866 -0.2777 -0.5099
  701MOL0     C92427   4.534   9.294  11.283 -0.6111  0.4526  0.0299
  701MOL0     C92428   4.671   9.264  11.303 -0.1936  0.6675  0.7156
  701MOL0     C92429   4.729   9.272  11.441 -0.9982 -0.3781  0.1445
  701MOL0     O92430   4.644   9.302  11.543 -0.1420 -0.5202  0.2732
  701MOL0     C92431   4.691   9.308  11.669 -0.2856 -0.3729  0.3582
  701MOL0     C92432   4.749   9.197  11.733 -0.0543  0.7090  0.1394
  701MOL0     C92433   4.757   9.189  11.874 -0.0527  0.4155  0.5333
  701MOL0     C92434   4.723   9.297  11.954 -1.2365  0.6169 -0.5970
  701MOL0     O92435   4.719   9.274  12.093  0.0810 -0.4415 -0.3603
  701MOL0     C92436   4.769   9.375  12.177 -0.0434  0.1936 -0.7908
  701MOL0     C92437   4.813   9.298  12.306  0.0291 -0.1394 -0.2368
  701MOL0     C92438   4.900   9.175  12.283 -0.2631  0.3257 -0.5414
  701MOL0     C92439   5.034   9.194  12.211  0.1073  0.1526 -0.0470
  701MOL0     C92440   5.154   9.089  12.232 -0.0757  0.3664 -0.1808
  701MOL0     C92441   5.242   9.140  12.345  0.1057 -0.1625  0.8258
  701MOL0     C92442   5.368   9.053  12.370 -0.8656  0.3583 -0.1887
  701MOL0     C92443   5.463   9.122  12.466  0.3777 -0.5959  0.2648
  701MOL0    Cl92444   5.604   9.195  12.379 -0.0625 -0.4046 -0.4354
  701MOL0     C92445   4.682   9.416  11.892  0.3153 -0.2460 -0.4967
  701MOL0     C92446   4.659   9.425  11.753 -0.0402  0.5815  0.8520
  701MOL0     O92447   4.855   9.260  11.455 -0.0831  0.4455  0.6384
  701MOL0     C92448   4.746   9.234  11.185  0.2000  0.0968  0.8094
  701MOL0     C92449   4.688   9.243  11.065 -0.3283  0.2695  0.2493
  701MOL0     N92450   4.468   9.632  10.461  0.3882 -0.9745 -0.0874
  701MOL0     N92451   4.551   9.719  10.412  0.1068  0.0735  0.3514
  701MOL0     C92452   4.721  10.228   9.601 -0.4516 -0.4928  0.3839
  701MOL0     C92453   4.678  10.198   9.469 -0.3037  0.4265 -0.2377
  701MOL0     C92454   4.554  10.145   9.082 -0.1340 -0.9025  0.6612
  701MOL0     C92455   4.423  10.156   9.034 -0.0959  0.2057 -0.0361
  701MOL0     C92456   4.401  10.186   8.901  0.6788 -0.5446 -0.4451
  701MOL0     C92457   4.504  10.243   8.828 -0.2510  0.1566 -0.7354
  701MOL0     O92458   4.492  10.285   8.699  0.0582 -0.6282  0.0521
  701MOL0     C92459   4.360  10.270   8.640  0.4718 -0.4732 -0.3369
  701MOL0     C92460   4.375  10.328   8.502  0.0292  0.5252  0.5777
  701MOL0     C92461   4.431  10.221   8.403  0.2452 -0.3332  0.4011
  701MOL0     C92462   4.438  10.281   8.271  0.6231  0.7417 -0.5443
  701MOL0     C92463   4.476  10.184   8.171 -0.0426  0.3367 -0.1386
  701MOL0     C92464   4.523  10.100   8.096 -0.0796 -1.2358  0.7221
  701MOL0     C92465   4.629  10.255   8.889  1.2729  0.1301  0.1438
  701MOL0     C92466   4.660  10.204   9.009  0.3914  0.0092 -0.2446
  701MOL0     H92467   4.933  10.032   9.338 -1.8698 -1.5857 -0.1329
  701MOL0     H92468   5.045  10.141   9.540  0.6854  1.7414 -2.8346
  701MOL0     H92469   5.101  10.241   9.755 -0.3957  1.8335 -0.1712
  701MOL0     H92470   5.018  10.087   9.756  0.4161  0.2456  1.5596
  701MOL0     H92471   4.965  10.286   9.993  2.0828  1.4403 -0.1530
  701MOL0     H92472   5.117  10.196   9.988 -0.7175 -2.2363  0.5430
  701MOL0     H92473   5.007   9.981   9.991  2.9495  1.7128  1.0023
  701MOL0     H92474   4.852  10.054   9.985  0.3027 -2.5634  0.2790
  701MOL0     H92475   5.062  10.105  10.203 -0.2649  1.6427 -1.6576
  701MOL0     H92476   4.921  10.202  10.189 -0.7670  0.3764 -4.0800
  701MOL0     H92477   4.892   9.889  10.227  0.8677  0.0451  0.2027
  701MOL0     H92478   4.772  10.018  10.207  1.3864  1.5738 -0.6051
  701MOL0     H92479   4.828  10.117  10.426  1.4334  1.4932 -2.4076
  701MOL0     H92480   4.976  10.015  10.436  0.4848  1.3674  1.7094
  701MOL0     H92481   4.840   9.812  10.436  3.7528  1.9138 -1.5767
  701MOL0     H92482   4.853   9.897  10.574 -1.8847 -0.2464  1.2264
  701MOL0     H92483   4.612   9.961  10.390  0.0358 -0.9104 -1.3766
  701MOL0     H92484   4.639  10.005  10.568 -1.1067 -0.2242  0.8821
  701MOL0     H92485   4.500   9.841  10.714  0.4087 -0.1700 -0.9108
  701MOL0     H92486   4.229   9.584  10.607  0.3565 -0.1859 -0.8431
  701MOL0     H92487   4.293   9.651  10.763 -0.5850 -4.2466  2.6782
  701MOL0     H92488   4.358   9.404  10.615 -0.1436  0.3978  0.3843
  701MOL0     H92489   4.273   9.408  10.759 -1.4478  1.1718 -0.6095
  701MOL0     H92490   4.559   9.514  10.754 -0.0031  1.7027  1.7256
  701MOL0     H92491   4.465   9.488  10.897 -2.2441  2.2493 -1.6969
  701MOL0     H92492   4.632   9.299  10.807  0.4812  1.8447  2.9290
  701MOL0     H92493   4.486   9.243  10.726 -0.4183 -0.7855  1.1567
  701MOL0     H92494   4.371   9.269  11.148  0.4606 -0.8524 -1.9883
  701MOL0     H92495   4.472   9.321  11.368 -0.9541 -2.1110  0.6952
  701MOL0     H92496   4.777   9.110  11.675 -0.8915  0.9748 -0.6909
  701MOL0     H92497   4.787   9.096  11.922  0.5078 -0.1025 -0.7676
  701MOL0     H92498   4.715   9.470  12.187  2.3592  1.4390  2.7472
  701MOL0     H92499   4.866   9.417  12.147  0.5339  1.2164  2.1444
  701MOL0     H92500   4.720   9.267  12.354 -0.8535  2.7826  0.1099
  701MOL0     H92501   4.855   9.365  12.382  2.3766  0.0626 -1.5954
  701MOL0     H92502   4.842   9.107  12.219 -1.3739  1.8948 -1.2852
  701MOL0     H92503   4.927   9.131  12.379  0.3667 -0.6340 -1.1479
  701MOL0     H92504   5.015   9.201  12.104 -0.7105 -2.7097 -0.1809
  701MOL0     H92505   5.074   9.289  12.246  1.1900 -0.1965 -0.2891
  701MOL0     H92506   5.216   9.068  12.145 -1.1465 -3.7012 -0.1659
  701MOL0     H92507   5.117   8.992  12.266 -1.5647  1.6612  2.2102
  701MOL0     H92508   5.168   9.129  12.426 -0.6371  2.4768  0.5823
  701MOL0     H92509   5.274   9.244  12.346 -0.7726  0.1216  2.3800
  701MOL0     H92510   5.340   8.953  12.406  1.2262 -1.1778 -2.4140
  701MOL0     H92511   5.429   9.031  12.282 -0.4338 -1.9364  0.5976
  701MOL0     H92512   5.500   9.037  12.524  2.9351 -0.1349 -0.5875
  701MOL0     H92513   5.417   9.190  12.538 -0.0986 -0.0104 -0.5835
  701MOL0     H92514   4.638   9.498  11.946  0.4556 -0.0948 -0.6130
  701MOL0     H92515   4.622   9.523  11.722 -2.8563  0.5709  3.6021
  701MOL0     H92516   4.852   9.212  11.201 -0.0062 -1.0077  0.7148
  701MOL0     H92517   4.735   9.213  10.972 -1.0938 -3.0892  0.8316
  701MOL0     H92518   4.670  10.289   9.675  1.8867  0.6810  1.1341
  701MOL0     H92519   4.581  10.241   9.444 -1.6538 -0.8210  2.4616
  701MOL0     H92520   4.340  10.128   9.099  0.6504  3.7369  2.7721
  701MOL0     H92521   4.302  10.193   8.858  0.7296  1.0028 -0.3414
  701MOL0     H92522   4.292  10.342   8.686  1.1186  0.7704 -1.2817
  701MOL0     H92523   4.317  10.169   8.643 -0.7014 -0.2950 -4.4414
  701MOL0     H92524   4.283  10.361   8.453  1.5466  2.2027 -1.3255
  701MOL0     H92525   4.431  10.422   8.502  1.0294 -0.0637  1.0790
  701MOL0     H92526   4.356  10.142   8.392 -2.2331  1.9636 -0.2505
  701MOL0     H92527   4.527  10.173   8.426  2.2709  0.9863 -4.0844
  701MOL0     H92528   4.349  10.336   8.240  1.0506  0.3733 -2.5352
  701MOL0     H92529   4.517  10.356   8.288  1.8971 -0.5873 -0.4469
  701MOL0     H92530   4.573  10.022   8.042 -0.8120 -1.2028 -0.0198
  701MOL0     H92531   4.704  10.310   8.831 -1.4710 -0.7193 -4.6903
  701MOL0     H92532   4.761  10.211   9.049 -0.1651  2.1001  0.9686
  702MOL0     O92533   6.291   9.229   0.846 -0.3385 -0.6922  0.6356
  702MOL0     C92534   6.282   9.353   0.859 -0.0821  0.8060  0.7487
  702MOL0     O92535   6.190   9.436   0.811  0.4006 -0.1617  0.3282
  702MOL0     C92536   6.088   9.362   0.750  0.6180 -0.7949  0.0340
  702MOL0     C92537   6.048   9.384   0.617  0.7498 -0.0929  0.2111
  702MOL0     C92538   5.933   9.324   0.571  1.1753 -0.5333  0.6419
  702MOL0     C92539   5.858   9.234   0.651  0.4183 -0.2183 -0.1305
  702MOL0     O92540   5.757   9.171   0.588  0.1500  0.7157  0.3932
  702MOL0     C92541   5.679   9.082   0.659 -0.6858 -0.7871 -0.3742
  702MOL0     C92542   5.573   9.030   0.560 -0.6272 -0.4319  0.1248
  702MOL0     C92543   5.462   9.123   0.538 -0.0205  0.1330  0.2411
  702MOL0     C92544   5.371   9.083   0.428  1.0267 -0.1337  0.6557
  702MOL0     C92545   5.246   9.180   0.433 -0.3824  0.0514  0.0524
  702MOL0     C92546   5.295   9.325   0.393  1.1877  0.5385 -0.4605
  702MOL0     C92547   5.177   9.401   0.339  0.8977 -0.3711  0.8077
  702MOL0     C92548   5.050   9.425   0.428 -0.1623  0.2070  0.0354
  702MOL0     N92549   5.062   9.546   0.510 -0.3390 -0.0754  0.0950
  702MOL0     C92550   5.162   9.564   0.611 -0.5503 -0.7111 -0.0233
  702MOL0     C92551   5.130   9.682   0.669 -1.4129 -0.3530 -1.5516
  702MOL0     C92552   5.208   9.721   0.792  0.5055  0.1911 -0.3636
  702MOL0     C92553   5.121   9.705   0.913 -0.5071 -0.3262 -0.6602
  702MOL0     C92554   5.091   9.561   0.956 -0.8767  0.0150  0.4118
  702MOL0     C92555   5.002   9.553   1.079 -0.0137  0.3268  0.6530
  702MOL0     O92556   5.049   9.631   1.187 -0.2444 -0.3797  0.4272
  702MOL0     C92557   5.157   9.591   1.267  0.2201 -0.2301 -0.6565
  702MOL0     C92558   5.213   9.683   1.353 -0.4691 -0.6305  0.6138
  702MOL0     C92559   5.326   9.657   1.436 -0.3424  1.1044 -0.1093
  702MOL0     C92560   5.370   9.519   1.443 -0.6545  0.3822  0.0648
  702MOL0     C92561   5.485   9.482   1.531 -0.0065  0.6072  0.7418
  702MOL0     O92562   5.527   9.351   1.528  0.2453 -0.2153 -1.0709
  702MOL0     C92563   5.645   9.330   1.598 -0.4249 -0.1337 -0.1703
  702MOL0     C92564   5.652   9.320   1.738 -0.1742  0.0148 -0.1914
  702MOL0     C92565   5.776   9.301   1.801  0.2730 -0.6286  0.4534
  702MOL0     C92566   5.898   9.315   1.733  0.4689  0.2353 -0.3745
  702MOL0     O92567   6.009   9.298   1.810 -0.5048  0.4699 -0.6296
  702MOL0     C92568   6.138   9.309   1.736 -1.0102  0.2876 -0.5025
  702MOL0     C92569   6.259   9.292   1.835  0.0148 -0.5805  0.0100
  702MOL0     C92570   6.378   9.381   1.796 -0.1358 -0.6572 -0.1466
  702MOL0     C92571   6.463   9.405   1.925 -0.4104  0.8199  0.0934
  702MOL0     C92572   6.557   9.522   1.892 -1.1778 -0.1047 -0.0488
  702MOL0     C92573   6.668   9.542   2.002  0.0501 -0.2015  0.3528
  702MOL0     C92574   6.764   9.653   1.967  1.4892  0.1130  0.1327
  702MOL0     C92575   6.870   9.607   1.874  0.1964  0.2620 -0.9251
  702MOL0    Cl92576   6.974   9.501   1.971 -0.2110 -0.1855 -0.1595
  702MOL0     C92577   5.891   9.338   1.595  0.9421 -0.6935 -0.0638
  702MOL0     C92578   5.767   9.348   1.531  0.2650 -0.6040  0.1250
  702MOL0     O92579   5.530   9.574   1.600  1.0474  0.1708 -0.9543
  702MOL0     C92580   5.304   9.430   1.369  0.0023  0.7478  0.0852
  702MOL0     C92581   5.209   9.463   1.276  0.3818  1.1574  0.5267
  702MOL0     N92582   5.031   9.741   0.590  0.5226 -0.2046  0.3501
  702MOL0     N92583   4.987   9.656   0.495 -0.3353  0.9469 -0.7797
  702MOL0     C92584   5.893   9.221   0.784  0.4294  0.3626 -0.2850
  702MOL0     C92585   6.002   9.290   0.832  0.5374 -0.1393 -0.3134
  702MOL0     C92586   6.408   9.424   0.906  0.0985  0.4401 -0.1750
  702MOL0     C92587   6.438   9.552   0.866 -0.4102 -0.1250 -0.2372
  702MOL0     C92588   6.554   9.628   0.908  0.3351  0.4189 -0.1588
  702MOL0     C92589   6.639   9.552   0.986 -0.8866 -0.1116 -0.2466
  702MOL0     O92590   6.753   9.617   1.019  0.0005 -0.2383 -0.3590
  702MOL0     C92591   6.785   9.614   1.158  0.4360  0.6030  1.0922
  702MOL0     C92592   6.888   9.719   1.189 -0.1779 -1.4026 -0.7669
  702MOL0     C92593   6.843   9.854   1.158 -0.5468  0.5174 -0.8727
  702MOL0     C92594   6.928   9.967   1.210 -0.1202 -0.3267 -0.2101
  702MOL0     C92595   6.854  10.097   1.208 -0.5236  0.0987  0.1938
  702MOL0     C92596   6.809  10.211   1.193  0.1112  0.2373 -0.3687
  702MOL0     C92597   6.623   9.418   1.020  0.4520  0.0082 -0.9488
  702MOL0     C92598   6.502   9.352   0.984  0.2285 -0.8434  0.1982
  702MOL0     H92599   6.091   9.450   0.542  3.4264 -0.0630  1.6279
  702MOL0     H92600   5.900   9.337   0.468  2.5580 -2.3650 -0.0955
  702MOL0     H92601   5.619   9.127   0.739 -0.5800 -0.7194 -0.3330
  702MOL0     H92602   5.739   9.005   0.707 -2.1081 -2.0419 -0.5321
  702MOL0     H92603   5.529   8.938   0.601  0.4834 -1.5440 -1.0707
  702MOL0     H92604   5.615   9.008   0.461  0.5236  0.4449  0.3948
  702MOL0     H92605   5.504   9.222   0.519 -0.4214  0.6534  1.8379
  702MOL0     H92606   5.406   9.131   0.632  1.0451  1.4310  0.8027
  702MOL0     H92607   5.419   9.091   0.330 -0.1557 -3.1886 -0.2690
  702MOL0     H92608   5.329   8.983   0.438 -1.4236  0.7337 -0.2174
  702MOL0     H92609   5.199   9.170   0.531  4.0849 -0.0532  2.4710
  702MOL0     H92610   5.170   9.150   0.361  0.3778  2.6999 -2.0118
  702MOL0     H92611   5.366   9.323   0.309  1.8763 -1.4150  0.1162
  702MOL0     H92612   5.337   9.380   0.478  1.6275 -0.7146  0.1606
  702MOL0     H92613   5.211   9.499   0.304 -0.3269  1.1314  3.4469
  702MOL0     H92614   5.137   9.352   0.250  0.0719  0.0748  0.9148
  702MOL0     H92615   5.039   9.340   0.496  3.1508 -0.5548 -0.2373
  702MOL0     H92616   4.961   9.422   0.365 -1.7453  0.5457  2.1424
  702MOL0     H92617   5.242   9.498   0.643  0.3957  1.5157  2.5484
  702MOL0     H92618   5.238   9.826   0.779  0.5764  0.1349 -0.6629
  702MOL0     H92619   5.305   9.672   0.809  2.1224  2.5106 -2.1870
  702MOL0     H92620   5.032   9.765   0.891  0.2027  2.2882  2.7514
  702MOL0     H92621   5.181   9.753   0.991 -0.0900  2.8062 -2.7276
  702MOL0     H92622   5.028   9.509   0.884  1.5482 -0.6230 -1.3758
  702MOL0     H92623   5.184   9.505   0.971 -0.4140  1.2983  3.0252
  702MOL0     H92624   5.002   9.448   1.110  1.6932 -0.0782 -0.5786
  702MOL0     H92625   4.905   9.595   1.051  0.2213 -0.4574 -1.4713
  702MOL0     H92626   5.148   9.770   1.344 -1.6938 -1.2630  2.5818
  702MOL0     H92627   5.382   9.735   1.486  1.2780 -0.3755  0.5022
  702MOL0     H92628   5.565   9.313   1.803 -0.9521 -0.5696 -1.2666
  702MOL0     H92629   5.784   9.301   1.909 -1.3949  3.6431  0.7975
  702MOL0     H92630   6.148   9.400   1.675  1.3741 -0.3223 -1.1179
  702MOL0     H92631   6.152   9.227   1.666 -0.4601  1.1730 -1.4467
  702MOL0     H92632   6.288   9.186   1.826 -2.8231 -1.3272 -1.3166
  702MOL0     H92633   6.239   9.327   1.936  1.8220  2.3002 -0.5245
  702MOL0     H92634   6.353   9.479   1.754  2.9546  1.0123  1.5493
  702MOL0     H92635   6.446   9.333   1.725 -0.5110  1.1498 -1.8426
  702MOL0     H92636   6.392   9.419   2.008  0.4700  4.2752  0.4039
  702MOL0     H92637   6.525   9.316   1.941 -2.4992 -0.5809  0.9369
  702MOL0     H92638   6.497   9.614   1.895 -1.5785 -0.2790 -1.6655
  702MOL0     H92639   6.593   9.509   1.789  2.5163 -0.7142  1.1844
  702MOL0     H92640   6.709   9.447   2.037 -1.1178 -2.1743 -3.2063
  702MOL0     H92641   6.616   9.580   2.091 -1.4682  0.3601 -0.7338
  702MOL0     H92642   6.705   9.739   1.934  2.1589  0.6989  0.4367
  702MOL0     H92643   6.817   9.692   2.054  0.7098  0.4272  0.4687
  702MOL0     H92644   6.916   9.702   1.846 -0.7578  0.3195 -2.4408
  702MOL0     H92645   6.831   9.553   1.787  1.4571  0.1959 -1.4669
  702MOL0     H92646   5.983   9.335   1.538  1.5784 -2.0437  0.9917
  702MOL0     H92647   5.771   9.356   1.423 -0.3111 -3.2341 -0.1445
  702MOL0     H92648   5.321   9.324   1.389 -1.8662  0.3216 -0.3620
  702MOL0     H92649   5.174   9.378   1.219  1.0308 -0.6149  2.6392
  702MOL0     H92650   5.846   9.170   0.867  1.8643 -1.1530 -0.3520
  702MOL0     H92651   6.027   9.285   0.937 -0.2073 -1.2990 -0.1827
  702MOL0     H92652   6.375   9.592   0.786 -0.5729 -0.7814 -0.4425
  702MOL0     H92653   6.584   9.728   0.880  0.8123  0.4650  0.5087
  702MOL0     H92654   6.842   9.521   1.171  0.6927  0.9041  2.3073
  702MOL0     H92655   6.698   9.627   1.224 -0.1291 -2.9007  1.2283
  702MOL0     H92656   6.897   9.722   1.298  2.4894  3.2590 -0.8241
  702MOL0     H92657   6.985   9.681   1.155  0.3195 -2.3755  1.5979
  702MOL0     H92658   6.740   9.854   1.195 -0.3623  2.0544 -0.3078
  702MOL0     H92659   6.843   9.872   1.050 -2.2699 -0.5031 -1.0899
  702MOL0     H92660   6.968   9.943   1.309  1.3681 -1.8022 -1.1165
  702MOL0     H92661   7.024   9.961   1.157  0.6996 -3.9196  1.4029
  702MOL0     H92662   6.772  10.310   1.176 -1.5367 -0.2123  0.3596
  702MOL0     H92663   6.703   9.361   1.067  0.7465  0.3000 -1.0898
  702MOL0     H92664   6.494   9.247   1.010  0.5871 -0.5823  1.4023
  703MOL0     O92665   7.195   8.028   3.494 -0.2634 -0.9546  0.3984
  703MOL0     C92666   7.106   8.095   3.455  0.5769  0.1102  0.2475
  703MOL0     O92667   7.109   8.188   3.363  1.2145 -0.1104 -0.9152
  703MOL0     C92668   7.232   8.245   3.340 -0.6643  0.7381  0.4812
  703MOL0     C92669   7.242   8.388   3.337 -0.3443 -0.4513 -0.3050
  703MOL0     C92670   7.363   8.456   3.322  0.7970 -0.1890  0.5370
  703MOL0     C92671   7.476   8.381   3.294 -1.0430 -0.2156 -0.4272
  703MOL0     O92672   7.609   8.430   3.283  0.0616 -0.2214  0.3913
  703MOL0     C92673   7.626   8.562   3.329 -0.3315 -0.6536  0.2321
  703MOL0     C92674   7.769   8.584   3.378 -0.1876  0.2080  0.2164
  703MOL0     C92675   7.802   8.491   3.490  1.0481 -0.1062  0.1076
  703MOL0     C92676   7.943   8.514   3.531  0.1388 -0.4563  0.0977
  703MOL0     C92677   7.984   8.445   3.657 -0.5840  0.6840 -0.4230
  703MOL0     C92678   8.126   8.493   3.698 -0.0510 -0.6474  0.0299
  703MOL0     C92679   8.155   8.426   3.827 -0.7466 -0.0762  0.3030
  703MOL0     C92680   8.289   8.477   3.895 -0.3118  0.5044  0.1351
  703MOL0     N92681   8.291   8.484   4.040  0.4109  0.1403 -0.5972
  703MOL0     C92682   8.242   8.385   4.125 -0.0344  0.9291 -0.7069
  703MOL0     C92683   8.237   8.441   4.250  0.0305  1.2811  0.2073
  703MOL0     C92684   8.183   8.383   4.379  0.3262  0.4773  0.4015
  703MOL0     C92685   8.036   8.413   4.399  0.3976 -0.6673 -0.1747
  703MOL0     C92686   8.001   8.553   4.371  0.6072  0.0691  0.3905
  703MOL0     C92687   7.852   8.551   4.358  0.0948 -0.4279 -0.0673
  703MOL0     O92688   7.836   8.694   4.371  0.4013  1.0491 -0.2072
  703MOL0     C92689   7.731   8.758   4.311 -0.3375 -0.1066  0.8088
  703MOL0     C92690   7.629   8.694   4.243 -0.6653  0.2586  0.9041
  703MOL0     C92691   7.517   8.762   4.206 -0.3392  1.1083  0.5102
  703MOL0     C92692   7.496   8.900   4.234 -0.4947 -0.3667 -0.0790
  703MOL0     C92693   7.368   8.973   4.197  0.1168  0.3768 -0.4870
  703MOL0     O92694   7.267   8.896   4.144  0.3658 -0.7911 -0.4677
  703MOL0     C92695   7.148   8.949   4.091  1.1765 -0.3821  0.2465
  703MOL0     C92696   7.129   9.076   4.030  0.2729 -1.1232 -0.2616
  703MOL0     C92697   7.017   9.113   3.972  0.4035  0.6204  0.4005
  703MOL0     C92698   6.909   9.023   3.963  0.1714 -0.8975 -0.2904
  703MOL0     O92699   6.789   9.055   3.906 -0.3718 -0.0089 -0.3537
  703MOL0     C92700   6.686   8.961   3.873 -0.6387  0.6858  0.2834
  703MOL0     C92701   6.561   9.034   3.819 -0.2306 -0.3768  0.8449
  703MOL0     C92702   6.454   8.939   3.776 -0.0959  0.6060  0.1946
  703MOL0     C92703   6.344   9.029   3.737 -0.3520 -0.3141  0.1395
  703MOL0     C92704   6.238   8.964   3.656  0.3421  0.0036 -0.0725
  703MOL0     C92705   6.118   9.045   3.590 -0.7219 -0.1086  0.7482
  703MOL0     C92706   6.152   9.133   3.458 -0.2360 -0.9026  0.0781
  703MOL0     C92707   6.253   9.075   3.361 -0.4761  0.1880  0.4135
  703MOL0    Cl92708   6.177   8.930   3.277  0.1096 -0.6269 -0.1564
  703MOL0     C92709   6.919   8.905   4.021 -0.4222  0.8519  0.2437
  703MOL0     C92710   7.036   8.863   4.079 -0.1383  0.0162  1.0390
  703MOL0     O92711   7.372   9.097   4.197  0.1578  0.1734  0.6169
  703MOL0     C92712   7.599   8.969   4.303  0.4075 -1.0590 -0.7728
  703MOL0     C92713   7.716   8.898   4.338  0.4953  1.4980  0.0826
  703MOL0     N92714   8.310   8.562   4.239 -0.3554 -0.1684  0.0617
  703MOL0     N92715   8.340   8.585   4.116 -0.3910 -0.1271  0.1344
  703MOL0     C92716   7.471   8.247   3.277  0.2025  0.1427  0.0916
  703MOL0     C92717   7.348   8.178   3.296 -0.5076 -0.7387  1.1299
  703MOL0     C92718   6.968   8.068   3.497  0.1315 -0.1438 -0.3926
  703MOL0     C92719   6.853   8.116   3.427  0.6244 -0.1950  0.3566
  703MOL0     C92720   6.723   8.056   3.442  0.2929 -0.5189 -0.0937
  703MOL0     C92721   6.708   7.955   3.540  0.1319  0.0760  0.8996
  703MOL0     O92722   6.590   7.881   3.563 -0.2711  0.5264  0.2715
  703MOL0     C92723   6.465   7.930   3.515 -0.5627  0.0880 -0.2540
  703MOL0     C92724   6.390   8.013   3.622 -0.2272 -0.0780  0.5981
  703MOL0     C92725   6.440   8.158   3.634 -0.4440  0.1616  0.9266
  703MOL0     C92726   6.328   8.258   3.582  0.2443 -0.3368 -0.3705
  703MOL0     C92727   6.293   8.228   3.447  0.9879  0.1557 -0.2193
  703MOL0     C92728   6.261   8.212   3.328  1.0172  0.0505 -0.6363
  703MOL0     C92729   6.819   7.912   3.617  0.9397 -0.1954 -0.0486
  703MOL0     C92730   6.947   7.976   3.605  0.7906 -0.1712 -0.1933
  703MOL0     H92731   7.151   8.448   3.345  0.4169  0.9537 -1.8176
  703MOL0     H92732   7.360   8.565   3.316 -0.5110 -0.2662 -0.7690
  703MOL0     H92733   7.555   8.575   3.411  0.0409 -0.5859  0.5467
  703MOL0     H92734   7.605   8.636   3.251  1.3817 -0.7676 -0.3821
  703MOL0     H92735   7.788   8.683   3.418 -0.8237 -0.2476  1.7037
  703MOL0     H92736   7.838   8.567   3.295 -0.7576  2.7379 -0.8675
  703MOL0     H92737   7.778   8.387   3.464 -0.5828 -0.5381  2.9587
  703MOL0     H92738   7.734   8.501   3.575  0.5996 -1.8832 -0.0057
  703MOL0     H92739   8.000   8.489   3.441  4.6459 -0.3379  2.5764
  703MOL0     H92740   7.972   8.619   3.538  2.6536 -0.4338 -5.2639
  703MOL0     H92741   7.994   8.337   3.641 -1.2048  0.7271 -1.1995
  703MOL0     H92742   7.920   8.466   3.743  0.1125  1.2321 -0.0233
  703MOL0     H92743   8.115   8.600   3.717 -1.5274 -0.9057  0.7850
  703MOL0     H92744   8.205   8.478   3.624  0.5278  1.2436  0.2006
  703MOL0     H92745   8.076   8.428   3.902  1.6978 -0.5050  3.0535
  703MOL0     H92746   8.180   8.323   3.800  3.8181  0.7279  0.5752
  703MOL0     H92747   8.313   8.574   3.851 -0.8603 -1.3106 -4.8199
  703MOL0     H92748   8.369   8.417   3.850 -2.5225 -0.0683 -3.4499
  703MOL0     H92749   8.217   8.286   4.087  1.8568  0.8618 -1.8696
  703MOL0     H92750   8.241   8.428   4.460  1.6499 -0.2802 -0.0962
  703MOL0     H92751   8.208   8.277   4.393 -0.5480  0.5882  3.7553
  703MOL0     H92752   8.013   8.393   4.504  3.9287 -1.4317  0.5770
  703MOL0     H92753   7.983   8.339   4.339  0.9900 -3.0138  2.0215
  703MOL0     H92754   8.019   8.613   4.461  1.1972 -1.5934  1.4075
  703MOL0     H92755   8.037   8.588   4.274  2.4870 -1.7490  0.3634
  703MOL0     H92756   7.805   8.502   4.444  1.3020 -2.7173 -0.6261
  703MOL0     H92757   7.821   8.514   4.260  3.1219 -0.3976 -1.1301
  703MOL0     H92758   7.641   8.588   4.224  0.4453  0.6137 -0.4985
  703MOL0     H92759   7.438   8.713   4.149  1.5123 -0.1961 -1.0720
  703MOL0     H92760   7.208   9.151   4.025 -1.2748  0.5190 -4.2305
  703MOL0     H92761   7.003   9.210   3.926 -0.3845  0.8239  1.0544
  703MOL0     H92762   6.656   8.904   3.961 -3.4090 -0.0311 -1.0321
  703MOL0     H92763   6.726   8.888   3.802 -0.9621  0.8341 -0.0535
  703MOL0     H92764   6.600   9.091   3.734 -1.6617 -1.0309 -0.2818
  703MOL0     H92765   6.525   9.104   3.896  1.1834  0.8987  0.3970
  703MOL0     H92766   6.427   8.874   3.860  0.6535 -0.0853 -0.0858
  703MOL0     H92767   6.494   8.874   3.697  0.0892  1.7736 -0.6998
  703MOL0     H92768   6.314   9.078   3.829  2.5285 -2.3229  2.3372
  703MOL0     H92769   6.385   9.110   3.676 -0.3162  1.6308  2.6062
  703MOL0     H92770   6.205   8.903   3.740  4.5136  2.4055  3.7819
  703MOL0     H92771   6.282   8.894   3.583 -1.1050  0.0730 -1.0457
  703MOL0     H92772   6.084   9.108   3.673 -0.8283  2.2012 -0.9343
  703MOL0     H92773   6.040   8.978   3.553 -0.0511  0.2074 -1.3643
  703MOL0     H92774   6.057   9.155   3.409  0.4301 -0.1372 -0.9134
  703MOL0     H92775   6.187   9.230   3.493 -1.5589 -1.3825  3.0554
  703MOL0     H92776   6.339   9.050   3.423 -1.6256 -2.1644  1.1623
  703MOL0     H92777   6.282   9.149   3.285 -2.0783  1.2022  0.7207
  703MOL0     H92778   6.833   8.839   4.027  0.6614 -0.5001  1.5995
  703MOL0     H92779   7.047   8.761   4.115 -2.1927  0.5498  3.4559
  703MOL0     H92780   7.589   9.071   4.340 -0.6677 -1.7712  1.0382
  703MOL0     H92781   7.792   8.933   4.407  0.4397 -2.0511  2.2014
  703MOL0     H92782   7.558   8.196   3.236 -0.5119 -0.8745 -0.2087
  703MOL0     H92783   7.334   8.071   3.284  1.1171 -1.2238  3.0026
  703MOL0     H92784   6.847   8.187   3.346 -5.3052 -1.1668 -0.5348
  703MOL0     H92785   6.637   8.088   3.384 -0.3534 -2.4051 -0.2532
  703MOL0     H92786   6.402   7.849   3.478 -1.1659  0.6768 -0.5297
  703MOL0     H92787   6.461   7.989   3.423 -2.5390  1.5264  0.6805
  703MOL0     H92788   6.283   8.015   3.599  0.3043  0.4637 -2.2246
  703MOL0     H92789   6.402   7.959   3.716 -1.0342  0.5461  1.0663
  703MOL0     H92790   6.541   8.182   3.598 -1.3427  0.4924 -1.4996
  703MOL0     H92791   6.469   8.182   3.738  1.3220  3.6761 -0.1815
  703MOL0     H92792   6.246   8.249   3.654  0.4090  0.8307 -0.0177
  703MOL0     H92793   6.365   8.361   3.587 -2.7185  0.7907  0.5217
  703MOL0     H92794   6.224   8.192   3.229  3.2663  0.4258 -1.6041
  703MOL0     H92795   6.812   7.843   3.700 -0.1122  1.0288  0.9361
  703MOL0     H92796   7.022   7.930   3.669 -0.3349  0.0302  1.3293
  704MOL0     O92797  11.045   2.031   4.234  0.0657 -0.5501  0.2081
  704MOL0     C92798  11.042   2.097   4.130 -0.1293  0.1511  0.1844
  704MOL0     O92799  10.976   2.216   4.111  0.2261  0.2931 -0.2734
  704MOL0     C92800  10.921   2.295   4.210 -0.2968  1.5896 -0.2347
  704MOL0     C92801  10.827   2.389   4.173  0.5700  0.4348 -0.4031
  704MOL0     C92802  10.758   2.463   4.263  0.0692 -0.4985 -0.3470
  704MOL0     C92803  10.782   2.448   4.401 -1.2498  1.1611  1.2790
  704MOL0     O92804  10.709   2.507   4.488  0.6675  0.0144  0.5870
  704MOL0     C92805  10.617   2.423   4.555 -0.2082  0.8852 -0.5398
  704MOL0     C92806  10.551   2.494   4.665 -0.5945  0.8714  0.6509
  704MOL0     C92807  10.413   2.544   4.615  0.2821  0.8200  1.3016
  704MOL0     C92808  10.327   2.615   4.718 -0.2630 -0.1321 -0.0113
  704MOL0     C92809  10.172   2.605   4.703 -0.4092 -0.1907 -0.3002
  704MOL0     C92810  10.136   2.461   4.752 -0.1195 -0.6298  0.6162
  704MOL0     C92811  10.006   2.399   4.707 -0.2886 -0.3468  0.6936
  704MOL0     C92812   9.948   2.307   4.811  0.1420 -0.6127  0.6019
  704MOL0     N92813   9.826   2.251   4.763  0.7322 -0.5278  0.6368
  704MOL0     C92814   9.807   2.125   4.711  0.4490 -0.2230 -0.4136
  704MOL0     C92815   9.671   2.104   4.708 -0.6309 -0.2459 -0.1003
  704MOL0     C92816   9.600   1.985   4.647  0.6982 -0.7039  0.1077
  704MOL0     C92817   9.634   1.969   4.503  0.7876 -0.5797  0.5470
  704MOL0     C92818   9.556   1.846   4.455  0.1360  0.2369  1.0906
  704MOL0     C92819   9.608   1.802   4.312 -0.5268  0.6782  0.6200
  704MOL0     O92820   9.532   1.703   4.233  0.1646  0.5576 -0.2382
  704MOL0     C92821   9.554   1.568   4.232 -0.3989  0.4709 -0.3247
  704MOL0     C92822   9.451   1.481   4.204 -0.9756  0.1614 -0.6828
  704MOL0     C92823   9.473   1.338   4.205 -0.2938 -0.7101  0.6012
  704MOL0     C92824   9.590   1.285   4.248 -0.1988 -0.1367  0.0587
  704MOL0     C92825   9.613   1.141   4.250  0.1888  0.6014  0.0982
  704MOL0     O92826   9.503   1.067   4.213  0.2521  0.8440 -0.3488
  704MOL0     C92827   9.512   0.931   4.221  0.5006  1.5836  0.0265
  704MOL0     C92828   9.424   0.855   4.138 -0.8871  0.6054 -0.4129
  704MOL0     C92829   9.435   0.709   4.127 -0.0020 -0.4112  0.6863
  704MOL0     C92830   9.521   0.641   4.214  0.4905  0.2021 -0.1953
  704MOL0     O92831   9.507   0.507   4.212 -0.0346 -0.2411  0.1625
  704MOL0     C92832   9.599   0.434   4.308  0.5103  0.2433 -0.5958
  704MOL0     C92833   9.569   0.287   4.302 -1.1186  0.3799  0.5859
  704MOL0     C92834   9.610   0.196   4.417  0.0007  0.6704  0.7419
  704MOL0     C92835   9.569   0.226   4.555 -0.2367 -0.0082  0.3677
  704MOL0     C92836   9.593   0.123   4.656  0.6581  0.6978  0.5269
  704MOL0     C92837   9.745   0.103   4.690 -0.1452 -0.2216  0.5304
  704MOL0     C92838   9.769  -0.032   4.778  0.1065  0.1908  0.3356
  704MOL0     C92839   9.913  -0.066   4.803  0.9298  0.1658  0.3543
  704MOL0    Cl92840   9.893  -0.233   4.877 -0.1344  0.2312 -0.2770
  704MOL0     C92841   9.585   0.721   4.319 -0.6297  1.3441 -0.2977
  704MOL0     C92842   9.581   0.858   4.311  0.4148 -0.2032 -0.3275
  704MOL0     O92843   9.720   1.102   4.284 -0.6375  0.6573  0.1105
  704MOL0     C92844   9.688   1.373   4.271 -1.6680  0.0436 -0.2147
  704MOL0     C92845   9.674   1.507   4.272  0.5709 -0.2286  0.2921
  704MOL0     N92846   9.611   2.213   4.767  0.5671 -0.0343  0.7337
  704MOL0     N92847   9.700   2.292   4.808 -0.2637 -0.1473  0.7616
  704MOL0     C92848  10.881   2.357   4.440  0.7459 -0.0543  0.6356
  704MOL0     C92849  10.954   2.274   4.350 -0.0777 -0.9957  0.5766
  704MOL0     C92850  11.127   2.048   4.025 -0.6535  0.4939 -1.0124
  704MOL0     C92851  11.113   2.102   3.903 -0.4988  0.1412  0.5166
  704MOL0     C92852  11.196   2.079   3.799  0.0352 -0.3844  0.0582
  704MOL0     C92853  11.305   1.989   3.812 -0.0077 -0.7897 -0.6402
  704MOL0     O92854  11.401   1.966   3.714  0.0618 -0.3474 -0.0546
  704MOL0     C92855  11.522   2.052   3.741 -0.4651  0.4228  0.2224
  704MOL0     C92856  11.494   2.203   3.740  0.9976 -0.2136 -0.2217
  704MOL0     C92857  11.443   2.256   3.604 -0.3366  0.3225 -0.9838
  704MOL0     C92858  11.420   2.406   3.601  0.6090  0.0210  0.9533
  704MOL0     C92859  11.339   2.442   3.720  0.4068  1.3562  0.4886
  704MOL0     C92860  11.268   2.475   3.815  0.2692  0.0216 -0.1680
  704MOL0     C92861  11.325   1.937   3.940  0.2352  0.1146 -0.0574
  704MOL0     C92862  11.234   1.959   4.047  0.1843  0.3394 -0.8432
  704MOL0     H92863  10.807   2.396   4.067  1.6784 -0.2531 -0.6756
  704MOL0     H92864  10.688   2.541   4.234 -0.2827 -0.8924 -0.5583
  704MOL0     H92865  10.676   2.356   4.618  2.2378  2.1568 -1.3798
  704MOL0     H92866  10.557   2.364   4.485 -3.6567  4.7791 -1.2351
  704MOL0     H92867  10.619   2.578   4.682 -1.4135  1.5649  0.6118
  704MOL0     H92868  10.543   2.418   4.744  3.3466  0.2078  0.6069
  704MOL0     H92869  10.365   2.453   4.578  2.2186  0.0625  0.5425
  704MOL0     H92870  10.422   2.616   4.534  1.1357 -0.8190 -0.1245
  704MOL0     H92871  10.355   2.584   4.819  2.2539 -2.9527 -1.4262
  704MOL0     H92872  10.357   2.721   4.720 -0.7554  0.0071  0.4421
  704MOL0     H92873  10.145   2.619   4.598 -3.8567  0.6265  0.5812
  704MOL0     H92874  10.114   2.690   4.738  1.2223  2.3897 -3.2519
  704MOL0     H92875  10.141   2.470   4.861  2.6264  1.6008  0.4147
  704MOL0     H92876  10.216   2.399   4.709  0.0033  1.9310 -3.3569
  704MOL0     H92877   9.945   2.487   4.684  2.3832  1.4266 -0.0920
  704MOL0     H92878  10.031   2.352   4.611  2.1723 -3.0568  2.5083
  704MOL0     H92879   9.929   2.359   4.906  0.2251 -0.3549  0.4772
  704MOL0     H92880  10.024   2.230   4.821  4.3571  2.7504 -2.0372
  704MOL0     H92881   9.876   2.051   4.673  0.0593 -0.7919 -0.0274
  704MOL0     H92882   9.492   1.999   4.651  0.2633 -2.5922 -2.4026
  704MOL0     H92883   9.623   1.897   4.707 -0.9664 -0.1232  1.7082
  704MOL0     H92884   9.742   1.950   4.503  0.8739 -0.2064  1.9890
  704MOL0     H92885   9.612   2.062   4.450  0.0735  0.6502  2.8797
  704MOL0     H92886   9.558   1.759   4.522 -0.8669 -0.4970  0.2086
  704MOL0     H92887   9.450   1.870   4.445 -0.6164 -2.6940  1.1640
  704MOL0     H92888   9.710   1.765   4.331  0.5077  1.4707 -2.7312
  704MOL0     H92889   9.601   1.888   4.245 -1.3803 -2.6037 -3.9750
  704MOL0     H92890   9.346   1.508   4.191 -0.8711  0.8170 -0.2131
  704MOL0     H92891   9.390   1.272   4.183 -1.1809  0.5393  0.0889
  704MOL0     H92892   9.355   0.899   4.068 -0.6097  2.5370  0.4671
  704MOL0     H92893   9.366   0.652   4.066  0.4482  0.9155 -1.1653
  704MOL0     H92894   9.571   0.466   4.409 -0.2288 -0.3160 -0.6112
  704MOL0     H92895   9.705   0.456   4.291  0.2088  4.0007  1.4782
  704MOL0     H92896   9.603   0.248   4.206 -2.4216  0.8955 -0.0967
  704MOL0     H92897   9.460   0.279   4.302 -1.1335  0.0700 -1.8028
  704MOL0     H92898   9.719   0.205   4.409 -0.0120 -0.4401 -1.5806
  704MOL0     H92899   9.568   0.101   4.383 -1.5742  0.5990  2.7257
  704MOL0     H92900   9.630   0.313   4.580 -1.0724  0.8082 -0.3732
  704MOL0     H92901   9.464   0.256   4.561 -0.7400 -1.3865 -0.9920
  704MOL0     H92902   9.551   0.029   4.619  1.2548 -0.8015  3.3605
  704MOL0     H92903   9.546   0.157   4.749  1.6591  4.8145 -0.2893
  704MOL0     H92904   9.769   0.195   4.744 -0.0338  2.4233 -3.5837
  704MOL0     H92905   9.813   0.105   4.604 -0.9569 -0.2833 -0.1256
  704MOL0     H92906   9.732  -0.029   4.880  1.9185 -2.3515  1.1710
  704MOL0     H92907   9.720  -0.113   4.722  0.6973 -1.3682  1.9767
  704MOL0     H92908   9.967  -0.010   4.880 -1.7812 -0.1285  2.6493
  704MOL0     H92909   9.962  -0.070   4.705 -2.1804 -1.8748 -1.2959
  704MOL0     H92910   9.643   0.679   4.400  0.6531 -0.1389 -1.9221
  704MOL0     H92911   9.623   0.915   4.393 -1.5861 -2.4022  2.4453
  704MOL0     H92912   9.784   1.329   4.296 -1.8371 -1.5388 -2.1464
  704MOL0     H92913   9.767   1.550   4.308  1.6882 -0.9066 -1.6289
  704MOL0     H92914  10.909   2.340   4.544  1.2906  1.6488  0.7915
  704MOL0     H92915  11.037   2.209   4.372  1.6786  0.6175 -0.8945
  704MOL0     H92916  11.033   2.175   3.888 -1.5483 -1.4680 -2.6263
  704MOL0     H92917  11.187   2.129   3.703 -1.4745 -0.9515 -0.1186
  704MOL0     H92918  11.589   2.027   3.658 -1.8198  1.6659 -1.3268
  704MOL0     H92919  11.581   2.037   3.832 -0.1888  0.1787  0.0064
  704MOL0     H92920  11.432   2.235   3.825 -0.2050  0.1524 -1.2094
  704MOL0     H92921  11.588   2.258   3.749  0.1448  1.0133  1.7202
  704MOL0     H92922  11.353   2.198   3.582  0.7869 -0.7756 -2.9521
  704MOL0     H92923  11.504   2.221   3.521  0.4805 -2.8694  0.8123
  704MOL0     H92924  11.515   2.461   3.598  0.3492  0.4453  0.1655
  704MOL0     H92925  11.378   2.434   3.504  1.1654 -2.5174 -0.1161
  704MOL0     H92926  11.223   2.521   3.900  2.1937 -0.8687  1.4076
  704MOL0     H92927  11.416   1.877   3.941  1.0394  1.2469 -1.6139
  704MOL0     H92928  11.236   1.914   4.145 -2.1296 -1.8538 -1.6814
  705MOL0     O92929   0.527   2.878   8.440 -0.3170  0.2075 -0.6204
  705MOL0     C92930   0.541   2.859   8.562  0.2056 -0.1477  0.0915
  705MOL0     O92931   0.441   2.885   8.657  0.7399 -0.2779  1.1988
  705MOL0     C92932   0.346   2.980   8.631  0.2830  0.8316  0.2071
  705MOL0     C92933   0.233   2.951   8.556 -0.6671 -0.1611 -0.4259
  705MOL0     C92934   0.142   3.053   8.536 -0.6108  0.1345 -0.7651
  705MOL0     C92935   0.163   3.181   8.582  0.8108 -0.5681  0.8105
  705MOL0     O92936   0.071   3.281   8.554 -0.0438 -0.1835  0.7323
  705MOL0     C92937   0.042   3.300   8.418 -0.5143 -0.2428  0.6284
  705MOL0     C92938  -0.053   3.430   8.405 -0.4610  0.9575  0.5587
  705MOL0     C92939  -0.193   3.391   8.449  0.3717 -0.9575 -0.0042
  705MOL0     C92940  -0.286   3.496   8.417 -0.7234 -0.7994 -0.0245
  705MOL0     C92941  -0.426   3.464   8.470 -0.2433 -0.8410  0.5477
  705MOL0     C92942  -0.452   3.429   8.621  0.1298 -0.2018  0.3498
  705MOL0     C92943  -0.600   3.427   8.640  0.1920  0.1822 -0.2040
  705MOL0     C92944  -0.641   3.360   8.772 -0.4190 -0.5269  0.4394
  705MOL0     N92945  -0.625   3.219   8.784 -0.1861  0.8170 -0.1524
  705MOL0     C92946  -0.669   3.142   8.895 -0.7904 -0.6776 -0.2948
  705MOL0     C92947  -0.613   3.018   8.867 -0.6030 -0.6563  0.1895
  705MOL0     C92948  -0.635   2.899   8.947  0.0925 -0.4491 -0.2104
  705MOL0     C92949  -0.774   2.876   9.023 -0.5299 -0.1689  0.2791
  705MOL0     C92950  -0.762   2.907   9.174  0.2035  0.2381 -0.3051
  705MOL0     C92951  -0.871   2.835   9.257 -0.4966  0.7918  0.1324
  705MOL0     O92952  -0.865   2.694   9.238 -0.4098  0.0787  0.0879
  705MOL0     C92953  -0.974   2.613   9.247  0.0456 -0.5201 -0.1705
  705MOL0     C92954  -1.102   2.675   9.269  0.6794  0.1459 -0.4030
  705MOL0     C92955  -1.219   2.600   9.274 -0.7818 -0.2771  0.4257
  705MOL0     C92956  -1.215   2.464   9.248 -0.5160  0.4399 -0.2302
  705MOL0     C92957  -1.334   2.378   9.261 -0.2098 -0.0887  0.8124
  705MOL0     O92958  -1.445   2.442   9.312 -0.8074  0.0809  0.0982
  705MOL0     C92959  -1.563   2.371   9.332 -1.1544  0.6036 -0.4755
  705MOL0     C92960  -1.609   2.381   9.462  0.1103  0.1539 -0.2325
  705MOL0     C92961  -1.738   2.331   9.483  1.0080  1.0454 -0.1117
  705MOL0     C92962  -1.813   2.261   9.386  0.8740 -1.2920 -0.1446
  705MOL0     O92963  -1.942   2.217   9.433 -0.5048 -0.1716 -0.1774
  705MOL0     C92964  -2.060   2.269   9.368 -0.5141  0.4315  0.5128
  705MOL0     C92965  -2.176   2.237   9.463  0.4557 -0.7180  0.5776
  705MOL0     C92966  -2.312   2.265   9.398  0.3914  0.6172 -0.1556
  705MOL0     C92967  -2.356   2.164   9.294  0.5425 -1.3389  0.8608
  705MOL0     C92968  -2.492   2.225   9.244  0.3742 -0.0332 -0.0245
  705MOL0     C92969  -2.593   2.138   9.166 -0.7662 -0.2278 -0.7522
  705MOL0     C92970  -2.638   2.010   9.235  0.4607 -0.0599 -0.7352
  705MOL0     C92971  -2.779   1.962   9.183  0.3094  0.5239 -0.5423
  705MOL0    Cl92972  -2.852   1.827   9.267 -0.1987  0.3402 -0.1254
  705MOL0     C92973  -1.767   2.257   9.261 -0.5946 -0.1197 -0.4962
  705MOL0     C92974  -1.642   2.309   9.224  0.7281  0.2836  0.1568
  705MOL0     O92975  -1.333   2.266   9.213 -0.3046 -0.5173 -0.2180
  705MOL0     C92976  -1.092   2.409   9.201 -0.0570 -0.2130 -0.1682
  705MOL0     C92977  -0.976   2.483   9.204 -0.6790 -0.2744  0.8556
  705MOL0     N92978  -0.543   3.024   8.742  0.5656  0.8731 -0.2403
  705MOL0     N92979  -0.559   3.136   8.697 -0.4341 -0.8444  0.8917
  705MOL0     C92980   0.272   3.217   8.654  0.0290  1.1445 -0.9295
  705MOL0     C92981   0.365   3.113   8.675  0.1840  0.4892 -0.4263
  705MOL0     C92982   0.668   2.784   8.598  0.2938  0.7132  0.8400
  705MOL0     C92983   0.664   2.687   8.709  1.0769 -0.2638  1.1497
  705MOL0     C92984   0.780   2.617   8.751  0.3962 -0.5216  0.0567
  705MOL0     C92985   0.898   2.633   8.674 -1.0660 -0.3827 -0.7071
  705MOL0     O92986   1.004   2.555   8.701 -0.2271 -0.0029  0.2070
  705MOL0     C92987   1.080   2.601   8.810 -0.0802  0.1865  0.3488
  705MOL0     C92988   1.176   2.478   8.856 -0.3782  0.0687 -0.3199
  705MOL0     C92989   1.279   2.531   8.960 -0.1057 -0.1290  0.1502
  705MOL0     C92990   1.362   2.412   9.034  0.0564 -0.9711 -0.3254
  705MOL0     C92991   1.369   2.435   9.182 -0.4309 -0.5210 -0.3192
  705MOL0     C92992   1.383   2.447   9.303 -0.3350  0.0819 -0.2100
  705MOL0     C92993   0.903   2.721   8.575  0.4886  0.6968  0.6538
  705MOL0     C92994   0.794   2.800   8.534  0.2000  0.2930  0.5958
  705MOL0     H92995   0.215   2.857   8.504  2.3764 -0.7305 -0.6201
  705MOL0     H92996   0.044   3.014   8.511 -0.2445 -3.4114  2.3978
  705MOL0     H92997  -0.003   3.216   8.365  0.6415  0.7400 -2.0859
  705MOL0     H92998   0.132   3.337   8.369 -0.6288  2.6604  2.3790
  705MOL0     H92999  -0.054   3.457   8.299 -1.0092 -3.0299 -0.6199
  705MOL0     H93000  -0.021   3.506   8.477  1.1613 -2.2088  3.4438
  705MOL0     H93001  -0.201   3.375   8.556 -1.4772  3.4175  0.7415
  705MOL0     H93002  -0.223   3.300   8.395  1.0929  0.2832 -2.7010
  705MOL0     H93003  -0.259   3.591   8.464 -2.2306 -1.1877  1.7812
  705MOL0     H93004  -0.279   3.519   8.311  1.2194 -2.6462 -0.3704
  705MOL0     H93005  -0.473   3.384   8.413 -1.3858  1.1936 -1.5354
  705MOL0     H93006  -0.478   3.557   8.443  2.9359  0.6078 -1.1076
  705MOL0     H93007  -0.418   3.507   8.690 -1.0732 -0.1256  0.8804
  705MOL0     H93008  -0.407   3.331   8.643 -0.3128 -0.8676 -1.5090
  705MOL0     H93009  -0.640   3.529   8.637  1.5781  0.7685  0.2609
  705MOL0     H93010  -0.643   3.363   8.563  1.9564 -2.9845  1.2533
  705MOL0     H93011  -0.749   3.369   8.790 -0.4994 -0.5935 -0.0056
  705MOL0     H93012  -0.589   3.411   8.853 -1.5996 -0.8165  1.4220
  705MOL0     H93013  -0.733   3.159   8.981 -0.0343  0.6534  0.0365
  705MOL0     H93014  -0.556   2.888   9.022 -2.8868 -0.3336  3.2256
  705MOL0     H93015  -0.623   2.818   8.874  1.5388 -2.8561  2.5217
  705MOL0     H93016  -0.785   2.768   9.014  1.5832 -0.4527  0.6534
  705MOL0     H93017  -0.854   2.937   8.979 -1.4641 -0.4050  1.5842
  705MOL0     H93018  -0.665   2.868   9.207  0.0389  0.9772  1.1166
  705MOL0     H93019  -0.780   3.010   9.206 -2.1257  0.7509 -2.8464
  705MOL0     H93020  -0.968   2.868   9.218 -1.0758 -1.2611 -0.2764
  705MOL0     H93021  -0.862   2.842   9.366 -1.9589  0.8499  0.2770
  705MOL0     H93022  -1.121   2.780   9.289  1.3967 -0.0722  1.6944
  705MOL0     H93023  -1.315   2.650   9.282 -1.9583 -1.8412 -2.4403
  705MOL0     H93024  -1.564   2.442   9.540 -0.4428 -1.0676  1.0841
  705MOL0     H93025  -1.785   2.337   9.580  0.4775 -0.5107 -0.2560
  705MOL0     H93026  -2.073   2.198   9.285  2.2952  0.0846  0.2606
  705MOL0     H93027  -2.063   2.369   9.323  0.3607 -0.1724 -0.9719
  705MOL0     H93028  -2.166   2.298   9.553 -3.9041  0.1790  0.6520
  705MOL0     H93029  -2.172   2.131   9.489  0.6698 -1.4635 -2.2211
  705MOL0     H93030  -2.317   2.366   9.357  0.3214 -0.6250 -3.5036
  705MOL0     H93031  -2.389   2.268   9.475  1.4001  1.0657  0.8583
  705MOL0     H93032  -2.274   2.170   9.221  2.1259  4.1479  2.6334
  705MOL0     H93033  -2.374   2.062   9.329 -1.0825 -1.2308  0.4156
  705MOL0     H93034  -2.468   2.314   9.185  1.6382 -0.3710 -0.0642
  705MOL0     H93035  -2.556   2.261   9.325  0.6468  0.1526  0.1088
  705MOL0     H93036  -2.549   2.109   9.070 -1.2297 -0.9952 -0.7466
  705MOL0     H93037  -2.683   2.197   9.147 -0.0384  1.7397  1.4491
  705MOL0     H93038  -2.566   1.929   9.217  1.7166  0.8132  0.1392
  705MOL0     H93039  -2.642   2.022   9.344 -2.5447 -2.7485 -0.4041
  705MOL0     H93040  -2.793   1.923   9.082  1.2373 -4.6700  1.0619
  705MOL0     H93041  -2.841   2.050   9.200  1.0270  1.0658 -0.6507
  705MOL0     H93042  -1.836   2.227   9.183  1.6910  1.8218 -3.4498
  705MOL0     H93043  -1.611   2.329   9.122  0.6996  0.1184  0.1161
  705MOL0     H93044  -1.075   2.304   9.182  1.1306 -0.3755  1.5498
  705MOL0     H93045  -0.885   2.437   9.166  0.2160  3.2430 -1.8102
  705MOL0     H93046   0.285   3.322   8.676  0.2357  0.7355  1.0476
  705MOL0     H93047   0.454   3.131   8.734 -2.4508  2.4073  3.4085
  705MOL0     H93048   0.573   2.679   8.768  0.9434  1.7823  1.3028
  705MOL0     H93049   0.773   2.545   8.832 -0.2444 -2.1555 -1.3892
  705MOL0     H93050   1.018   2.621   8.898 -2.1882  1.9850 -1.4183
  705MOL0     H93051   1.132   2.691   8.776  2.0071 -1.1975 -0.2971
  705MOL0     H93052   1.121   2.391   8.892  2.1267 -1.5762 -0.2309
  705MOL0     H93053   1.225   2.437   8.767 -2.8751 -0.4143 -1.5582
  705MOL0     H93054   1.225   2.586   9.038  0.1536 -4.3743  3.7389
  705MOL0     H93055   1.343   2.607   8.915 -1.6406  1.9104  1.2240
  705MOL0     H93056   1.303   2.320   9.029 -1.0295 -0.5546  2.7100
  705MOL0     H93057   1.466   2.412   8.999  0.4003  3.0773  0.2809
  705MOL0     H93058   1.398   2.450   9.409 -2.1956  0.2210  0.0695
  705MOL0     H93059   0.994   2.719   8.517 -0.5630 -3.4992 -1.2260
  705MOL0     H93060   0.801   2.873   8.454  1.0164 -0.0796  0.3116
  706MOL0     O93061   3.517   8.409   1.184 -0.4025 -0.6251 -0.0515
  706MOL0     C93062   3.525   8.518   1.127  0.2451 -0.7711 -0.0178
  706MOL0     O93063   3.478   8.544   0.997  0.2413  0.2710  0.2898
  706MOL0     C93064   3.362   8.472   0.970 -0.2622 -0.2140 -0.1982
  706MOL0     C93065   3.241   8.546   0.956 -0.4787 -0.9264 -0.5950
  706MOL0     C93066   3.111   8.499   0.924  0.0811  0.5325  0.1726
  706MOL0     C93067   3.103   8.365   0.902 -0.0727  0.6899  0.4877
  706MOL0     O93068   2.976   8.324   0.878 -0.6643  0.5455  0.6112
  706MOL0     C93069   2.947   8.186   0.893  0.1002  0.7793  0.2869
  706MOL0     C93070   2.916   8.123   0.763 -0.2842  0.0399 -0.5678
  706MOL0     C93071   2.788   8.193   0.702 -0.8769  0.3259  0.2924
  706MOL0     C93072   2.780   8.129   0.560  0.7820 -0.9512  0.1333
  706MOL0     C93073   2.705   8.233   0.463 -0.1050  0.2097  0.2357
  706MOL0     C93074   2.720   8.180   0.313 -0.3076 -0.7985  0.0536
  706MOL0     C93075   2.686   8.283   0.200  0.1281 -0.4453 -0.3627
  706MOL0     C93076   2.654   8.207   0.072  1.1729 -0.5409 -0.3587
  706MOL0     N93077   2.512   8.156   0.077 -0.3278 -1.1112 -0.6799
  706MOL0     C93078   2.395   8.209   0.135 -0.7355  0.0447 -0.1858
  706MOL0     C93079   2.311   8.100   0.124  0.2166 -0.0090 -0.1249
  706MOL0     C93080   2.167   8.112   0.143  1.2408 -0.5784 -0.1759
  706MOL0     C93081   2.101   8.238   0.064 -0.6486 -0.5635  0.4813
  706MOL0     C93082   2.090   8.221  -0.098  0.6883  0.1556 -0.0185
  706MOL0     C93083   2.011   8.090  -0.117 -0.7010  0.4305 -0.0416
  706MOL0     O93084   1.876   8.089  -0.054 -0.6922  0.4722 -0.0949
  706MOL0     C93085   1.811   7.969  -0.059 -0.4463 -0.5288  0.7495
  706MOL0     C93086   1.690   7.970   0.004  0.3056  0.3075 -1.1211
  706MOL0     C93087   1.628   7.839   0.028 -0.8210  0.0424 -0.3309
  706MOL0     C93088   1.668   7.725  -0.032 -0.7333 -0.3519 -0.1029
  706MOL0     C93089   1.591   7.597  -0.007 -0.3383 -0.1779  0.2896
  706MOL0     O93090   1.485   7.598   0.074  0.3641  0.6824 -0.3676
  706MOL0     C93091   1.467   7.497   0.162 -0.1855 -0.1992  0.0124
  706MOL0     C93092   1.561   7.470   0.252  0.1442 -0.3108  0.0537
  706MOL0     C93093   1.542   7.368   0.350 -0.2087 -0.0879  0.3383
  706MOL0     C93094   1.442   7.271   0.322  0.3397  0.4662  0.2340
  706MOL0     O93095   1.419   7.144   0.389 -0.2295 -0.2741  0.3354
  706MOL0     C93096   1.508   7.100   0.487 -0.6723 -0.3976  0.5781
  706MOL0     C93097   1.444   6.961   0.543  0.1535 -0.1718 -0.2763
  706MOL0     C93098   1.441   6.849   0.438  0.5871 -0.1381  0.1606
  706MOL0     C93099   1.402   6.718   0.500  0.4076  0.3216  0.1678
  706MOL0     C93100   1.367   6.623   0.387 -0.5225 -0.5891 -0.0715
  706MOL0     C93101   1.381   6.477   0.428  0.3852  0.4499  0.1196
  706MOL0     C93102   1.265   6.442   0.527 -0.2726  0.5579  1.4298
  706MOL0     C93103   1.249   6.285   0.565  0.5887 -0.1526  0.8712
  706MOL0    Cl93104   1.397   6.223   0.651  0.0738 -0.2577 -0.1710
  706MOL0     C93105   1.342   7.311   0.227  0.4956 -0.8740 -0.0251
  706MOL0     C93106   1.358   7.418   0.143  0.7282  0.2060  0.0195
  706MOL0     O93107   1.637   7.488  -0.041 -0.9622 -0.4780 -0.5008
  706MOL0     C93108   1.790   7.722  -0.099  0.0239  0.0649  0.5071
  706MOL0     C93109   1.856   7.845  -0.110 -0.5539 -1.3970  0.5719
  706MOL0     N93110   2.380   7.993   0.059  0.6202 -0.0575 -0.0993
  706MOL0     N93111   2.502   8.027   0.028  0.2741  0.3986 -0.5766
  706MOL0     C93112   3.218   8.294   0.901  0.2812 -0.4911  0.1571
  706MOL0     C93113   3.346   8.342   0.945 -0.3101 -0.6243  0.3996
  706MOL0     C93114   3.569   8.637   1.205 -0.4833  0.3114  0.2019
  706MOL0     C93115   3.627   8.746   1.136 -0.5013  0.1551 -0.6796
  706MOL0     C93116   3.666   8.860   1.210 -0.3204 -0.3785 -0.3482
  706MOL0     C93117   3.646   8.858   1.350 -0.6032  0.0353  1.7016
  706MOL0     O93118   3.694   8.970   1.408  0.1089  0.0168 -0.5674
  706MOL0     C93119   3.633   9.029   1.521  0.4747 -0.0738  0.8500
  706MOL0     C93120   3.716   9.043   1.649 -1.0669  0.3544 -0.7043
  706MOL0     C93121   3.731   8.910   1.730  0.2063  0.2627  0.4323
  706MOL0     C93122   3.811   8.928   1.863 -0.2166  0.1144 -0.1885
  706MOL0     C93123   3.815   8.796   1.923  0.4673  0.2809 -0.0777
  706MOL0     C93124   3.856   8.703   1.982 -0.9372  0.3260  0.2634
  706MOL0     C93125   3.590   8.753   1.418  0.8000 -0.8649  0.8222
  706MOL0     C93126   3.555   8.638   1.347  0.1499  0.3407 -0.4806
  706MOL0     H93127   3.247   8.649   0.991 -2.2557 -0.3046 -1.9586
  706MOL0     H93128   3.022   8.560   0.910  1.2353  1.6421 -3.7002
  706MOL0     H93129   2.854   8.183   0.951 -1.4177  0.1793 -2.0665
  706MOL0     H93130   3.016   8.120   0.946  0.5893 -1.1616 -2.5323
  706MOL0     H93131   2.893   8.017   0.765 -1.2511 -0.0384 -5.0382
  706MOL0     H93132   2.998   8.145   0.694 -1.4716 -1.6880 -2.6521
  706MOL0     H93133   2.787   8.302   0.694 -0.9510  0.3002 -0.0447
  706MOL0     H93134   2.695   8.186   0.758 -1.5583  1.5759 -0.6271
  706MOL0     H93135   2.883   8.115   0.526  0.7786 -1.3846  0.2910
  706MOL0     H93136   2.730   8.032   0.574  0.5424 -1.0631 -1.3768
  706MOL0     H93137   2.752   8.332   0.474  3.0284 -0.9902 -1.0760
  706MOL0     H93138   2.598   8.230   0.485 -0.3488  1.3234 -0.6597
  706MOL0     H93139   2.653   8.093   0.313 -1.1379 -0.1800  0.7972
  706MOL0     H93140   2.821   8.141   0.295  0.3520  0.8137  0.1729
  706MOL0     H93141   2.596   8.340   0.222  0.2677  1.1170 -3.3422
  706MOL0     H93142   2.770   8.353   0.192  0.2097 -0.2227  1.8192
  706MOL0     H93143   2.734   8.146   0.029 -4.0522 -6.1050 -3.7639
  706MOL0     H93144   2.645   8.287  -0.002  1.8279 -0.1121  0.0114
  706MOL0     H93145   2.373   8.304   0.182  2.1514  1.5282 -1.6070
  706MOL0     H93146   2.158   8.146   0.247 -2.5742  2.2103 -1.1778
  706MOL0     H93147   2.111   8.018   0.142 -1.6887  1.0132  1.0805
  706MOL0     H93148   2.150   8.333   0.090 -2.1839  0.2043  0.7321
  706MOL0     H93149   2.001   8.262   0.101 -0.4929  2.3194 -0.6845
  706MOL0     H93150   2.035   8.301  -0.148 -1.9943  0.9379  3.7820
  706MOL0     H93151   2.190   8.214  -0.142  0.2032 -0.7819 -1.0305
  706MOL0     H93152   2.079   8.015  -0.076 -0.6084  0.2633 -0.5001
  706MOL0     H93153   1.993   8.069  -0.222 -1.7082 -0.7085  0.3434
  706MOL0     H93154   1.661   8.061   0.056  1.3498 -0.8486  1.7102
  706MOL0     H93155   1.536   7.833   0.085 -0.2299 -3.4095  0.4478
  706MOL0     H93156   1.646   7.538   0.250  0.5539 -0.6832  2.3545
  706MOL0     H93157   1.632   7.349   0.407  1.9538 -0.0623 -2.8646
  706MOL0     H93158   1.524   7.185   0.555 -0.7170  1.3452 -1.4614
  706MOL0     H93159   1.603   7.081   0.435 -0.6801 -0.1177  0.4558
  706MOL0     H93160   1.344   6.976   0.585 -1.6614 -0.3640 -4.1449
  706MOL0     H93161   1.501   6.925   0.629  0.2462 -0.4322 -0.4487
  706MOL0     H93162   1.536   6.841   0.384  1.9699  0.3182  2.3588
  706MOL0     H93163   1.370   6.886   0.364 -1.8610 -1.9889  1.4329
  706MOL0     H93164   1.496   6.678   0.541  0.1315  2.2738  2.9539
  706MOL0     H93165   1.327   6.711   0.579 -1.9466 -1.3531 -2.0360
  706MOL0     H93166   1.422   6.633   0.293 -0.8974 -1.0426 -0.3400
  706MOL0     H93167   1.269   6.657   0.352  0.0014 -0.0433 -1.0377
  706MOL0     H93168   1.474   6.461   0.483  1.2574 -1.2763 -1.7444
  706MOL0     H93169   1.381   6.426   0.332 -1.3593  1.0990 -0.2670
  706MOL0     H93170   1.264   6.499   0.620  0.1473 -4.5416  4.9319
  706MOL0     H93171   1.169   6.453   0.476  0.0840  2.7981  1.1416
  706MOL0     H93172   1.248   6.224   0.474 -0.6278 -0.6603  1.2125
  706MOL0     H93173   1.161   6.265   0.625 -0.3354  1.3580  0.0759
  706MOL0     H93174   1.263   7.239   0.207  3.1236 -3.2988 -2.5615
  706MOL0     H93175   1.280   7.441   0.072 -0.8009  0.8195  1.8189
  706MOL0     H93176   1.840   7.632  -0.133  1.5911  1.1190 -0.1054
  706MOL0     H93177   1.951   7.855  -0.160  0.3371  2.3465  2.6239
  706MOL0     H93178   3.199   8.191   0.870 -1.0622 -0.8621  2.0577
  706MOL0     H93179   3.435   8.281   0.937  0.8755  0.8294  1.7696
  706MOL0     H93180   3.629   8.748   1.027  1.2602 -0.9684 -0.7072
  706MOL0     H93181   3.701   8.953   1.166 -0.3161 -0.2043  0.0255
  706MOL0     H93182   3.536   8.993   1.555 -0.6066  1.3709 -0.5684
  706MOL0     H93183   3.621   9.131   1.483  1.2826 -0.8891 -1.8169
  706MOL0     H93184   3.817   9.076   1.620 -0.4180  1.7881  2.6705
  706MOL0     H93185   3.670   9.117   1.715 -0.3531 -1.5390  2.0896
  706MOL0     H93186   3.775   8.827   1.674 -2.1270 -0.5759 -0.2750
  706MOL0     H93187   3.634   8.872   1.762  0.1978  0.4809  0.6721
  706MOL0     H93188   3.916   8.956   1.850  0.2154 -0.3012  2.0577
  706MOL0     H93189   3.766   8.996   1.935 -1.8588  0.1746 -1.2287
  706MOL0     H93190   3.896   8.620   2.037  1.2964  1.5872  0.6392
  706MOL0     H93191   3.573   8.763   1.525  1.1653  2.0260  0.6953
  706MOL0     H93192   3.500   8.553   1.386  0.4493 -2.1184 -4.7419
  707MOL0     O93193   9.827   6.505   0.340  0.5313 -0.0575 -0.3686
  707MOL0     C93194   9.894   6.463   0.240 -0.0871 -0.1403 -0.1591
  707MOL0     O93195   9.882   6.516   0.116 -0.5304 -0.4085  0.2959
  707MOL0     C93196   9.786   6.615   0.095  0.3769  0.4263 -0.1402
  707MOL0     C93197   9.657   6.594   0.121  0.9222 -1.1181 -0.1732
  707MOL0     C93198   9.556   6.688   0.094  0.2863  0.6169 -0.5095
  707MOL0     C93199   9.594   6.824   0.087  0.2012 -0.4038  0.9532
  707MOL0     O93200   9.506   6.924   0.081  0.2180 -0.5824 -0.3421
  707MOL0     C93201   9.383   6.916   0.156  0.6088  0.3320  0.4369
  707MOL0     C93202   9.291   7.024   0.105  0.4310 -0.4938  0.1038
  707MOL0     C93203   9.137   6.992   0.135 -0.7072 -0.1580  0.5254
  707MOL0     C93204   9.049   7.103   0.068 -0.4089 -0.2678 -0.6687
  707MOL0     C93205   8.920   7.042   0.049 -0.9221  0.0658 -0.3920
  707MOL0     C93206   8.814   7.134   0.007  0.0089 -1.2309 -0.5606
  707MOL0     C93207   8.826   7.185  -0.135  0.2313 -0.2180 -0.1733
  707MOL0     C93208   8.809   7.066  -0.230  0.3681  0.5076  0.0759
  707MOL0     N93209   8.733   7.087  -0.352 -1.1276 -0.2656 -0.1337
  707MOL0     C93210   8.599   7.086  -0.339 -0.5121 -0.2512 -0.1024
  707MOL0     C93211   8.547   7.130  -0.447 -0.7533  0.8981  0.0809
  707MOL0     C93212   8.403   7.148  -0.471  0.9065  0.0618  0.6015
  707MOL0     C93213   8.335   7.017  -0.468 -0.4348 -0.1273 -1.2996
  707MOL0     C93214   8.184   7.043  -0.480  0.4127  0.1304 -0.3711
  707MOL0     C93215   8.132   7.102  -0.617 -0.4600  0.5817  1.1303
  707MOL0     O93216   8.194   7.032  -0.733 -0.4630  0.1557 -0.5301
  707MOL0     C93217   8.125   7.014  -0.849  0.1595  0.0917  0.6761
  707MOL0     C93218   8.033   7.105  -0.897  0.6488  0.5121 -0.6034
  707MOL0     C93219   7.955   7.089  -1.006 -0.0002 -0.9062 -0.7285
  707MOL0     C93220   7.980   6.990  -1.101  0.0763  0.6056  0.1036
  707MOL0     C93221   7.903   6.975  -1.220  0.1787  0.3805 -0.2275
  707MOL0     O93222   7.803   7.067  -1.216  0.2182  0.3145 -0.0816
  707MOL0     C93223   7.719   7.079  -1.316 -0.3561 -0.3222 -0.1503
  707MOL0     C93224   7.614   6.989  -1.335 -0.5350 -0.1303  0.2775
  707MOL0     C93225   7.546   6.999  -1.451 -0.5246 -0.4698  0.7302
  707MOL0     C93226   7.562   7.115  -1.543 -0.4491  0.1481 -1.2443
  707MOL0     O93227   7.478   7.120  -1.651 -0.3627  1.4842 -0.0615
  707MOL0     C93228   7.530   7.046  -1.759 -0.2962 -0.1985  0.4635
  707MOL0     C93229   7.402   7.011  -1.826 -0.5913 -0.1067 -1.0309
  707MOL0     C93230   7.411   6.948  -1.965 -0.5427  0.5530  0.1322
  707MOL0     C93231   7.281   6.898  -2.017 -0.5767 -0.3610 -0.4752
  707MOL0     C93232   7.280   6.877  -2.172 -0.6141 -0.9451  0.3267
  707MOL0     C93233   7.135   6.872  -2.221 -0.5343 -0.5735  0.1292
  707MOL0     C93234   7.042   6.751  -2.182  0.1359 -1.0073 -0.2724
  707MOL0     C93235   7.037   6.647  -2.299  0.6175 -0.0827 -0.2170
  707MOL0    Cl93236   7.186   6.548  -2.301  0.3132 -0.1423 -0.3942
  707MOL0     C93237   7.661   7.210  -1.510 -0.6578 -0.0537  0.0087
  707MOL0     C93238   7.746   7.188  -1.392 -0.6399 -0.0908 -0.3965
  707MOL0     O93239   7.922   6.886  -1.302  0.3837 -0.4098  1.4558
  707MOL0     C93240   8.077   6.894  -1.057 -0.0360  0.4783 -0.3344
  707MOL0     C93241   8.137   6.900  -0.929 -0.3530  0.9616 -0.0936
  707MOL0     N93242   8.654   7.160  -0.532 -0.3803 -0.4606  1.0997
  707MOL0     N93243   8.771   7.139  -0.467  0.5445 -0.2133  0.3534
  707MOL0     C93244   9.736   6.852   0.068  0.1362  0.1820 -0.4102
  707MOL0     C93245   9.830   6.750   0.075  0.8056  0.6490  0.3549
  707MOL0     C93246   9.991   6.348   0.277 -0.2451 -0.8341  1.2656
  707MOL0     C93247  10.052   6.335   0.395 -0.3027  0.1118 -0.9516
  707MOL0     C93248  10.130   6.229   0.421  0.4895  0.7012 -0.0913
  707MOL0     C93249  10.152   6.130   0.323 -0.3441 -0.2619 -0.3481
  707MOL0     O93250  10.219   6.009   0.348  0.6197 -0.7494  0.4750
  707MOL0     C93251  10.238   5.964   0.475  0.7814 -0.7034  0.2147
  707MOL0     C93252  10.101   5.917   0.532 -0.3941 -0.4618 -0.6307
  707MOL0     C93253  10.110   5.833   0.666  0.5331  0.8134  0.3941
  707MOL0     C93254   9.959   5.804   0.704  0.1045 -0.7304  0.2833
  707MOL0     C93255   9.938   5.712   0.812  0.2828 -0.1203  0.4233
  707MOL0     C93256   9.923   5.633   0.907  0.3947 -0.9237 -0.2614
  707MOL0     C93257  10.111   6.157   0.197  0.1245 -0.0921  0.1093
  707MOL0     C93258  10.032   6.265   0.168 -0.4289 -0.2167  0.3174
  707MOL0     H93259   9.626   6.493   0.145  1.4638 -1.3862 -0.5772
  707MOL0     H93260   9.451   6.662   0.101  1.2287 -5.2597 -2.1126
  707MOL0     H93261   9.398   6.917   0.265 -3.1187  0.7705  1.0564
  707MOL0     H93262   9.326   6.826   0.135 -2.3986  2.4019 -0.9345
  707MOL0     H93263   9.290   7.028  -0.004 -2.8186  1.0694  0.0792
  707MOL0     H93264   9.313   7.120   0.153  0.5339 -0.4153 -0.1000
  707MOL0     H93265   9.120   6.986   0.243  4.1235  0.8148  1.5633
  707MOL0     H93266   9.115   6.894   0.092  1.0777 -0.9979  1.3966
  707MOL0     H93267   9.052   7.193   0.129  0.9824 -0.1502 -0.8786
  707MOL0     H93268   9.095   7.130  -0.027  1.4214  1.2513  0.5713
  707MOL0     H93269   8.890   6.995   0.143 -0.5115 -0.2024 -0.3912
  707MOL0     H93270   8.925   6.959  -0.021  1.8951  0.9477 -1.3672
  707MOL0     H93271   8.804   7.220   0.074  0.7538 -0.1093 -1.8267
  707MOL0     H93272   8.719   7.080   0.013 -0.8757  0.4126  4.2472
  707MOL0     H93273   8.758   7.269  -0.156  0.6906  0.1578 -0.1620
  707MOL0     H93274   8.921   7.234  -0.156 -2.0322  4.2617 -1.1541
  707MOL0     H93275   8.757   6.981  -0.184  0.6790  0.0994 -0.3148
  707MOL0     H93276   8.906   7.026  -0.264 -0.6465 -4.3097  1.9540
  707MOL0     H93277   8.550   7.043  -0.252  0.1126 -1.1036 -0.1544
  707MOL0     H93278   8.393   7.206  -0.564  1.3574  0.2456  0.6639
  707MOL0     H93279   8.364   7.219  -0.397  0.2867  1.2235 -0.7938
  707MOL0     H93280   8.344   6.964  -0.373  0.3188  1.6872 -0.2940
  707MOL0     H93281   8.379   6.953  -0.545 -0.2178  0.8307 -2.0076
  707MOL0     H93282   8.134   6.946  -0.471  0.8080 -0.5922 -4.3305
  707MOL0     H93283   8.146   7.114  -0.404 -0.0008  0.2270 -0.6641
  707MOL0     H93284   8.170   7.204  -0.621  5.0025 -1.1491 -0.6022
  707MOL0     H93285   8.023   7.103  -0.617 -0.5129 -0.9625 -0.3237
  707MOL0     H93286   8.001   7.192  -0.842  1.2400  0.6094 -0.4078
  707MOL0     H93287   7.873   7.160  -1.009 -0.4013 -1.4056 -2.4411
  707MOL0     H93288   7.582   6.915  -1.262 -1.7800  0.2483  0.1322
  707MOL0     H93289   7.473   6.924  -1.481 -1.9686  0.0997  2.6120
  707MOL0     H93290   7.588   6.954  -1.749  0.2301 -0.4183 -3.1091
  707MOL0     H93291   7.582   7.112  -1.829 -1.5206  0.4774  0.1624
  707MOL0     H93292   7.345   7.104  -1.831  0.3237  0.5712  0.4177
  707MOL0     H93293   7.352   6.932  -1.769 -0.5761  0.7968  0.2571
  707MOL0     H93294   7.471   6.857  -1.957 -2.7495 -0.9657  0.5816
  707MOL0     H93295   7.460   7.016  -2.035  1.1853 -0.0448  0.7218
  707MOL0     H93296   7.255   6.803  -1.970  1.1474  0.5518  2.5137
  707MOL0     H93297   7.207   6.974  -1.990 -0.1012  0.7469 -2.0961
  707MOL0     H93298   7.346   6.800  -2.212  1.3135  1.6834 -1.9798
  707MOL0     H93299   7.326   6.967  -2.213 -3.8509  0.1980 -1.1481
  707MOL0     H93300   7.148   6.892  -2.328  0.2515  0.7884  0.4625
  707MOL0     H93301   7.080   6.958  -2.185 -1.4627 -0.3226 -1.7503
  707MOL0     H93302   7.071   6.701  -2.089 -1.1206 -0.9243  0.1849
  707MOL0     H93303   6.944   6.799  -2.170  1.1444  0.4736  3.3867
  707MOL0     H93304   7.006   6.686  -2.396 -2.4759  0.8635  1.0117
  707MOL0     H93305   6.954   6.583  -2.266 -0.0010  2.0107  2.7135
  707MOL0     H93306   7.663   7.295  -1.577  0.4039 -1.5900 -2.0289
  707MOL0     H93307   7.832   7.249  -1.367 -2.1387  1.7531  0.6310
  707MOL0     H93308   8.102   6.818  -1.131  0.5146  2.3814 -2.1837
  707MOL0     H93309   8.199   6.816  -0.900 -3.8661 -1.5006  1.0183
  707MOL0     H93310   9.790   6.945   0.054  1.4467 -0.2208  1.4999
  707MOL0     H93311   9.935   6.774   0.056  1.2872 -1.0507  0.7084
  707MOL0     H93312  10.030   6.416   0.464  0.5455  1.2355 -1.9640
  707MOL0     H93313  10.169   6.209   0.520  2.6310  2.4660 -0.5181
  707MOL0     H93314  10.280   6.040   0.542  2.4741 -1.6141  0.2485
  707MOL0     H93315  10.307   5.878   0.480 -1.4836 -2.6596 -0.2728
  707MOL0     H93316  10.051   6.008   0.569 -0.1798 -1.7131  3.2063
  707MOL0     H93317  10.042   5.864   0.457 -0.3507 -0.0355 -0.9714
  707MOL0     H93318  10.157   5.893   0.744  1.0801 -0.7219  1.2889
  707MOL0     H93319  10.163   5.739   0.651 -0.7844  0.4832 -3.0163
  707MOL0     H93320   9.920   5.902   0.731  1.6681  0.0767 -0.2718
  707MOL0     H93321   9.906   5.760   0.619 -0.1057 -3.2056  1.5910
  707MOL0     H93322   9.911   5.572   0.994 -2.1128 -0.0591  0.0785
  707MOL0     H93323  10.144   6.088   0.120 -0.8391 -2.6058  1.8293
  707MOL0     H93324   9.994   6.283   0.068 -0.3954  0.1041  0.3612
  708MOL0     O93325   1.018   8.318  10.362  0.1516 -0.5051 -0.2078
  708MOL0     C93326   1.103   8.404  10.348 -0.2517 -0.4300  0.0842
  708MOL0     O93327   1.089   8.530  10.302  0.3394  0.5192 -0.9024
  708MOL0     C93328   0.968   8.571  10.268 -0.2748  0.7366 -0.6854
  708MOL0     C93329   0.909   8.664  10.350 -0.5479  0.7578  0.4601
  708MOL0     C93330   0.781   8.721  10.325  0.4045  0.7525  0.9579
  708MOL0     C93331   0.714   8.684  10.200 -0.8161  0.3181 -0.1909
  708MOL0     O93332   0.578   8.702  10.176 -0.4706  0.1974 -0.4225
  708MOL0     C93333   0.516   8.808  10.255 -0.9047 -0.8468 -0.6285
  708MOL0     C93334   0.383   8.836  10.184  0.2849 -0.8601 -0.3356
  708MOL0     C93335   0.388   8.867  10.032  0.5148  0.3227 -0.2428
  708MOL0     C93336   0.240   8.897   9.989 -0.0189 -0.8382 -0.1577
  708MOL0     C93337   0.219   8.918   9.842 -0.1662  0.3451  0.4251
  708MOL0     C93338   0.340   8.977   9.769  1.6158 -0.5771  0.1385
  708MOL0     C93339   0.290   9.023   9.630  0.5449 -0.3013 -0.2125
  708MOL0     C93340   0.281   8.896   9.536  1.0481 -0.2229  0.5076
  708MOL0     N93341   0.250   8.929   9.398 -0.1426 -0.5251 -0.2931
  708MOL0     C93342   0.125   8.957   9.343  0.3286 -0.5209 -0.2232
  708MOL0     C93343   0.141   8.999   9.218 -0.1244  0.4314 -0.1880
  708MOL0     C93344   0.024   9.042   9.122  0.6940  0.0198 -0.3887
  708MOL0     C93345   0.001   8.937   9.018  0.9689  0.4413  0.3958
  708MOL0     C93346  -0.114   8.968   8.922 -0.0043 -0.3277  0.6779
  708MOL0     C93347  -0.155   8.838   8.838 -0.0721  0.2681  0.3412
  708MOL0     O93348  -0.060   8.844   8.729 -0.2796  0.3642 -0.6882
  708MOL0     C93349  -0.017   8.728   8.662 -0.6663  0.3383  0.2560
  708MOL0     C93350   0.059   8.755   8.554 -0.3318  1.8144 -0.2816
  708MOL0     C93351   0.093   8.647   8.467  0.0328  0.4131 -0.4499
  708MOL0     C93352   0.032   8.518   8.478 -0.2914 -0.7055  0.1321
  708MOL0     C93353   0.084   8.406   8.398  0.3304 -0.7418 -0.0782
  708MOL0     O93354   0.107   8.428   8.267 -0.2068  0.0901 -0.4425
  708MOL0     C93355   0.138   8.322   8.185  0.7030  0.9091  0.0253
  708MOL0     C93356   0.050   8.217   8.166 -0.1864  0.3224 -0.1245
  708MOL0     C93357   0.072   8.114   8.073 -0.1226  0.1038  1.1099
  708MOL0     C93358   0.196   8.116   8.002  0.4998  0.1031  0.3431
  708MOL0     O93359   0.215   8.015   7.912 -0.0495  0.0169  0.8976
  708MOL0     C93360   0.325   8.033   7.818  0.6187  0.6893 -0.1131
  708MOL0     C93361   0.371   7.905   7.752 -0.6594  0.8412 -0.4305
  708MOL0     C93362   0.447   7.954   7.626 -0.5748 -0.3370  0.6364
  708MOL0     C93363   0.544   7.847   7.574  0.4204  0.5295  0.0004
  708MOL0     C93364   0.588   7.875   7.424 -0.2076 -1.0046 -0.3015
  708MOL0     C93365   0.673   7.770   7.362 -0.2246 -0.1201 -0.4889
  708MOL0     C93366   0.579   7.641   7.341 -0.5087 -0.0238 -0.4829
  708MOL0     C93367   0.661   7.546   7.243  0.0526 -0.1586  0.4945
  708MOL0    Cl93368   0.818   7.487   7.315 -0.0483 -0.1567 -0.2764
  708MOL0     C93369   0.287   8.214   8.023 -0.0694  0.8088  0.1073
  708MOL0     C93370   0.247   8.327   8.103  0.2596  0.1833 -0.4231
  708MOL0     O93371   0.108   8.301   8.451 -0.1811  0.6411 -0.1834
  708MOL0     C93372  -0.052   8.498   8.584  0.3866  0.8022 -0.2345
  708MOL0     C93373  -0.075   8.598   8.682 -0.1977 -0.0686 -0.2031
  708MOL0     N93374   0.276   8.999   9.190  0.1390  0.1875  0.4839
  708MOL0     N93375   0.335   8.961   9.301  0.0883 -0.0925  0.8065
  708MOL0     C93376   0.788   8.602  10.111  0.4971 -0.0061  0.0308
  708MOL0     C93377   0.908   8.534  10.149  0.7386  0.0724  0.1926
  708MOL0     C93378   1.249   8.361  10.361  0.3671 -0.9016  0.7821
  708MOL0     C93379   1.283   8.246  10.425 -1.3951  0.8103 -0.5308
  708MOL0     C93380   1.420   8.208  10.451  0.2873 -0.5502 -0.8357
  708MOL0     C93381   1.524   8.272  10.392  0.4456 -0.8047  0.9806
  708MOL0     O93382   1.660   8.241  10.406  0.4010 -0.0449  0.8919
  708MOL0     C93383   1.705   8.160  10.302 -0.3199 -0.4958 -0.0048
  708MOL0     C93384   1.831   8.077  10.341 -0.3465 -0.1773 -0.9121
  708MOL0     C93385   1.802   7.973  10.445  0.1921  0.4691  0.1078
  708MOL0     C93386   1.906   7.860  10.441 -0.4348 -0.0335 -0.5354
  708MOL0     C93387   1.866   7.775  10.554 -1.0773  0.2847 -0.1797
  708MOL0     C93388   1.815   7.689  10.628  0.6016 -0.4302  1.1442
  708MOL0     C93389   1.484   8.393  10.324  0.1628 -0.0279  0.0900
  708MOL0     C93390   1.353   8.438  10.312 -0.3041 -0.1185  0.2675
  708MOL0     H93391   0.956   8.679  10.447  0.9344 -0.9226  0.0532
  708MOL0     H93392   0.734   8.782  10.402 -0.0148  1.2085  0.3524
  708MOL0     H93393   0.572   8.902  10.252  0.1343 -1.2525  2.3302
  708MOL0     H93394   0.501   8.780  10.360  1.0722  2.9850  0.8537
  708MOL0     H93395   0.338   8.923  10.232  2.6847  1.0891 -1.4481
  708MOL0     H93396   0.324   8.746  10.203 -0.1503 -0.4313  0.3669
  708MOL0     H93397   0.435   8.793   9.967  0.6578  0.9610 -0.8926
  708MOL0     H93398   0.458   8.950  10.018 -0.8008  1.2650 -1.6608
  708MOL0     H93399   0.175   8.816  10.024  0.1399 -1.5795 -1.5311
  708MOL0     H93400   0.210   8.982  10.052  1.5875  0.9022 -1.6472
  708MOL0     H93401   0.132   8.984   9.841  0.9368  1.9040  1.3823
  708MOL0     H93402   0.196   8.819   9.802  0.1233  0.7965 -0.9132
  708MOL0     H93403   0.420   8.906   9.746 -0.3355 -3.0225  0.4449
  708MOL0     H93404   0.379   9.060   9.828 -0.7099  0.6927  0.0096
  708MOL0     H93405   0.196   9.077   9.642 -0.3030 -1.9167  0.8694
  708MOL0     H93406   0.361   9.095   9.589  0.1141 -0.5440 -1.4215
  708MOL0     H93407   0.185   8.850   9.562 -0.7210  2.7655 -0.2030
  708MOL0     H93408   0.368   8.831   9.549  0.6578 -1.3720 -2.1324
  708MOL0     H93409   0.025   8.956   9.386 -0.0547 -2.5252 -1.0222
  708MOL0     H93410   0.045   9.140   9.077  1.0699  0.5060  0.7935
  708MOL0     H93411  -0.072   9.042   9.174 -0.1139  0.4305 -1.8177
  708MOL0     H93412  -0.030   8.853   9.081  1.6384  0.6288  0.9845
  708MOL0     H93413   0.096   8.920   8.965  1.6157  1.5402  1.1683
  708MOL0     H93414  -0.194   9.018   8.977  1.3933  3.5817 -0.5407
  708MOL0     H93415  -0.090   9.052   8.857  0.1062 -0.3773  0.6515
  708MOL0     H93416  -0.256   8.834   8.796  0.6328 -3.1483 -1.4731
  708MOL0     H93417  -0.150   8.753   8.907  0.1987  0.0943  0.1132
  708MOL0     H93418   0.093   8.858   8.555  4.5622  0.5550  3.6744
  708MOL0     H93419   0.162   8.666   8.385 -0.2967  3.8476 -0.0871
  708MOL0     H93420  -0.033   8.195   8.233  0.9971 -1.8695  0.7310
  708MOL0     H93421   0.002   8.034   8.053 -1.1078  1.5169 -1.5502
  708MOL0     H93422   0.412   8.063   7.878 -1.7119 -1.8717  5.3205
  708MOL0     H93423   0.287   8.111   7.752 -2.0657  0.1910  0.7102
  708MOL0     H93424   0.294   7.837   7.715 -0.7462  0.7797 -0.1480
  708MOL0     H93425   0.432   7.850   7.825 -1.5358  0.5432  0.0851
  708MOL0     H93426   0.499   8.044   7.661 -3.7197  1.3848  1.2584
  708MOL0     H93427   0.381   7.976   7.541 -0.5636  0.4688  0.8273
  708MOL0     H93428   0.636   7.849   7.634  1.3139  0.4855 -1.3196
  708MOL0     H93429   0.499   7.748   7.577  0.0697  0.7121  1.3021
  708MOL0     H93430   0.651   7.965   7.426 -1.0571 -0.2077 -3.4826
  708MOL0     H93431   0.497   7.887   7.364  1.0044  2.5272 -1.7127
  708MOL0     H93432   0.761   7.742   7.420  0.0177 -1.2108 -1.3406
  708MOL0     H93433   0.707   7.811   7.267 -2.3932  0.1627 -1.2064
  708MOL0     H93434   0.549   7.597   7.436 -2.5632  2.2795  0.0292
  708MOL0     H93435   0.491   7.675   7.286  0.8222  1.7516 -1.6302
  708MOL0     H93436   0.686   7.605   7.154 -1.6565 -1.1734 -0.7246
  708MOL0     H93437   0.599   7.459   7.219 -2.1411  0.3305  3.7265
  708MOL0     H93438   0.375   8.237   7.963 -0.5421 -2.9042 -2.3423
  708MOL0     H93439   0.320   8.408   8.105  4.2722 -3.0201  3.3576
  708MOL0     H93440  -0.091   8.397   8.595 -0.6557  1.0209 -1.6119
  708MOL0     H93441  -0.147   8.570   8.758  1.3277  0.4834  1.5307
  708MOL0     H93442   0.734   8.573  10.021  2.0385  0.4713 -1.1082
  708MOL0     H93443   0.957   8.474  10.073  1.3743  1.4368 -0.5285
  708MOL0     H93444   1.202   8.181  10.456 -2.8688  1.9337 -1.8747
  708MOL0     H93445   1.437   8.124  10.517 -0.5317 -0.2539 -0.2334
  708MOL0     H93446   1.728   8.234  10.224 -0.2718  0.4575  0.8887
  708MOL0     H93447   1.625   8.094  10.270 -1.2922  0.6731 -0.0425
  708MOL0     H93448   1.872   8.042  10.246  1.2511 -0.2632 -0.2221
  708MOL0     H93449   1.893   8.156  10.383 -1.8091  0.9486 -0.8018
  708MOL0     H93450   1.703   7.929  10.432  0.6122 -1.4041  2.4200
  708MOL0     H93451   1.816   8.011  10.547  1.7666 -2.2835  1.0233
  708MOL0     H93452   1.918   7.808  10.346 -0.6761 -2.1594  0.5355
  708MOL0     H93453   2.003   7.907  10.459 -0.0955 -1.6676  2.4941
  708MOL0     H93454   1.771   7.612  10.687  0.2248 -0.2233  1.1339
  708MOL0     H93455   1.561   8.451  10.273 -0.8989  0.9761 -0.4081
  708MOL0     H93456   1.338   8.533  10.260 -0.1961 -0.3647 -0.2215
  709MOL0     O93457   2.365   9.730   1.700 -0.7232 -0.6078 -0.3836
  709MOL0     C93458   2.345   9.852   1.682 -0.1338 -0.3120 -0.5639
  709MOL0     O93459   2.242   9.899   1.596 -0.6227 -0.2919  0.3530
  709MOL0     C93460   2.156   9.813   1.527  1.2842 -0.2756 -0.2646
  709MOL0     C93461   2.143   9.672   1.530  0.4191  0.8257 -0.1227
  709MOL0     C93462   2.037   9.611   1.469  0.8477  0.4203 -0.2628
  709MOL0     C93463   1.944   9.677   1.397  0.1221 -0.0255  0.5052
  709MOL0     O93464   1.852   9.600   1.336  0.5731  0.7335  0.0446
  709MOL0     C93465   1.737   9.654   1.268 -1.1511  0.6900 -0.4325
  709MOL0     C93466   1.671   9.549   1.192  0.5378 -0.6013  0.3314
  709MOL0     C93467   1.701   9.554   1.049  0.0644  0.7050 -0.0126
  709MOL0     C93468   1.628   9.428   0.990  0.1019 -0.4820 -0.1803
  709MOL0     C93469   1.666   9.412   0.840  0.3623 -0.9858 -0.0169
  709MOL0     C93470   1.618   9.536   0.753 -0.4653  0.5416  0.0370
  709MOL0     C93471   1.654   9.529   0.607 -0.1471 -0.4296 -0.0955
  709MOL0     C93472   1.797   9.504   0.576  0.1385  0.4683  0.3700
  709MOL0     N93473   1.884   9.608   0.634 -0.3771 -0.3114 -0.0325
  709MOL0     C93474   1.969   9.601   0.742 -0.3809  0.2284 -0.2004
  709MOL0     C93475   2.012   9.728   0.757  0.3549  0.4131 -0.4162
  709MOL0     C93476   2.100   9.784   0.869  0.2370 -0.3976  0.9711
  709MOL0     C93477   2.129   9.693   0.993 -0.4236  0.6077 -0.3751
  709MOL0     C93478   2.242   9.750   1.090  0.8454  0.9960  0.4269
  709MOL0     C93479   2.290   9.652   1.200 -0.5263  0.3596  0.9737
  709MOL0     O93480   2.353   9.536   1.130 -0.0154  0.0977 -0.0988
  709MOL0     C93481   2.461   9.478   1.183 -0.3365 -0.1033 -0.6612
  709MOL0     C93482   2.508   9.505   1.314 -0.1321  0.3370  0.1977
  709MOL0     C93483   2.634   9.447   1.355  0.1464 -0.1237 -0.7496
  709MOL0     C93484   2.711   9.366   1.271 -0.0389 -0.5524  0.2455
  709MOL0     C93485   2.837   9.317   1.325  0.6109 -0.3716 -0.0239
  709MOL0     O93486   2.894   9.375   1.433  0.4568  0.4278  0.2697
  709MOL0     C93487   2.994   9.316   1.506  0.0255  1.5341 -0.3200
  709MOL0     C93488   3.084   9.406   1.560 -0.1708 -0.2884  0.2788
  709MOL0     C93489   3.195   9.357   1.640 -1.0225 -0.3891  0.3656
  709MOL0     C93490   3.214   9.225   1.656 -0.1135  0.8346  0.8232
  709MOL0     O93491   3.327   9.187   1.722 -0.1382  0.7941 -0.1708
  709MOL0     C93492   3.308   9.085   1.826  0.6012 -0.5187  0.2407
  709MOL0     C93493   3.425   9.081   1.925  1.0961 -0.3172  0.3986
  709MOL0     C93494   3.401   8.965   2.020  0.4863 -0.0239  1.5068
  709MOL0     C93495   3.534   8.939   2.105 -0.3735  0.0113  0.7906
  709MOL0     C93496   3.538   8.810   2.190  0.5101  0.2151 -0.2710
  709MOL0     C93497   3.435   8.817   2.310 -0.9059  0.0514  0.7689
  709MOL0     C93498   3.506   8.886   2.432 -1.1619  0.6845  0.0332
  709MOL0     C93499   3.587   8.791   2.525 -0.2507 -0.5565  0.2567
  709MOL0    Cl93500   3.487   8.678   2.607 -0.0966 -0.3628 -0.1412
  709MOL0     C93501   3.123   9.134   1.600  0.0345  0.5032  0.1430
  709MOL0     C93502   3.016   9.183   1.522 -0.2923 -0.6272 -0.3276
  709MOL0     O93503   2.881   9.213   1.274 -0.4559 -0.2507 -0.0797
  709MOL0     C93504   2.667   9.344   1.146 -0.2242 -0.3685  0.5947
  709MOL0     C93505   2.545   9.403   1.094 -0.0884 -0.0793 -0.0776
  709MOL0     N93506   1.965   9.803   0.652 -0.4275 -0.3820  0.4323
  709MOL0     N93507   1.888   9.733   0.580 -0.6137  0.5592 -0.5835
  709MOL0     C93508   1.949   9.817   1.393 -0.6076 -0.3324  0.8227
  709MOL0     C93509   2.052   9.886   1.457  0.9351 -0.5048 -0.3654
  709MOL0     C93510   2.434   9.947   1.756 -0.4190  0.2338  0.5457
  709MOL0     C93511   2.532   9.903   1.834 -0.7621 -0.4177  0.3489
  709MOL0     C93512   2.627   9.996   1.880  0.6351  0.2840  0.0749
  709MOL0     C93513   2.618  10.134   1.855  0.4377  0.2428 -0.3471
  709MOL0     O93514   2.727  10.213   1.905  0.2003 -0.3799 -0.0077
  709MOL0     C93515   2.738  10.361   1.887 -0.7498  1.3176  0.0301
  709MOL0     C93516   2.646  10.432   1.987 -0.5238 -0.4608  0.7997
  709MOL0     C93517   2.681  10.577   1.995  0.3648  0.9459  0.0467
  709MOL0     C93518   2.592  10.670   2.085 -0.6647 -0.3481  0.1989
  709MOL0     C93519   2.455  10.665   2.034 -0.3783  0.0707  0.3785
  709MOL0     C93520   2.336  10.670   2.001  1.0634  0.0615 -0.5890
  709MOL0     C93521   2.510  10.174   1.780  0.2759  0.1362  0.4812
  709MOL0     C93522   2.417  10.084   1.736  0.0824 -0.3890  0.1498
  709MOL0     H93523   2.199   9.596   1.583 -1.2630 -0.3338  0.0735
  709MOL0     H93524   2.020   9.504   1.476  1.7235  0.3166  0.4329
  709MOL0     H93525   1.760   9.752   1.226  0.8100  1.2290  1.6766
  709MOL0     H93526   1.665   9.674   1.348  1.1648 -2.2463  2.7360
  709MOL0     H93527   1.564   9.570   1.200  0.8014  0.3143  1.8089
  709MOL0     H93528   1.684   9.455   1.246  0.3056  0.2622  1.9471
  709MOL0     H93529   1.809   9.540   1.039 -0.1057 -1.9123  1.0619
  709MOL0     H93530   1.670   9.651   1.008 -0.8004  2.2940  3.9558
  709MOL0     H93531   1.656   9.337   1.043  3.1030 -0.3765 -1.4272
  709MOL0     H93532   1.518   9.428   0.984  0.1973  0.0135 -2.9060
  709MOL0     H93533   1.618   9.320   0.805 -2.3283  0.3385 -0.0682
  709MOL0     H93534   1.775   9.404   0.836  0.9882  4.1738 -1.8523
  709MOL0     H93535   1.670   9.620   0.801 -0.8151 -0.0154  1.4602
  709MOL0     H93536   1.510   9.555   0.764 -0.6811 -1.1449  1.3574
  709MOL0     H93537   1.594   9.445   0.570 -0.2827 -1.9457  3.2392
  709MOL0     H93538   1.625   9.619   0.553 -2.7378  1.1127  3.4887
  709MOL0     H93539   1.810   9.494   0.468 -2.2660 -2.6653  0.2382
  709MOL0     H93540   1.818   9.404   0.615 -2.6840 -0.1548  0.5335
  709MOL0     H93541   1.979   9.519   0.813 -2.1004  0.5823  0.5129
  709MOL0     H93542   2.054   9.878   0.901 -3.6674 -0.2769 -3.7738
  709MOL0     H93543   2.199   9.811   0.831 -0.8460  1.7820 -0.5055
  709MOL0     H93544   2.156   9.590   0.971  0.4920  0.6090  0.5864
  709MOL0     H93545   2.037   9.700   1.052  1.3165  2.2619  2.3664
  709MOL0     H93546   2.321   9.773   1.018 -0.4516  1.6293 -0.8530
  709MOL0     H93547   2.214   9.844   1.138 -0.6774  1.8466 -1.9434
  709MOL0     H93548   2.217   9.614   1.272 -0.1457  1.1455  1.7936
  709MOL0     H93549   2.372   9.707   1.247  0.1188  1.1676 -0.9880
  709MOL0     H93550   2.455   9.566   1.387 -0.8538 -2.3367  2.0636
  709MOL0     H93551   2.662   9.467   1.458 -3.8205 -3.3328  1.2568
  709MOL0     H93552   3.068   9.513   1.549 -0.5505 -0.1269  2.0474
  709MOL0     H93553   3.275   9.418   1.681  0.4373  2.1662 -5.1602
  709MOL0     H93554   3.295   8.986   1.783  0.5932  0.3845 -1.9442
  709MOL0     H93555   3.217   9.098   1.884 -0.7589 -4.6571 -0.6179
  709MOL0     H93556   3.426   9.161   2.000 -0.9859 -1.4199  1.6818
  709MOL0     H93557   3.512   9.067   1.860  1.8512  0.3904  1.2211
  709MOL0     H93558   3.376   8.876   1.961  0.7182  0.5703  0.4896
  709MOL0     H93559   3.326   9.001   2.091  1.1832  1.7695  1.3888
  709MOL0     H93560   3.610   8.933   2.027  2.3146  2.8255  2.9283
  709MOL0     H93561   3.581   9.024   2.156  0.1092  1.2547 -1.5726
  709MOL0     H93562   3.641   8.787   2.219  0.5899  0.2763 -0.5075
  709MOL0     H93563   3.505   8.730   2.123 -2.0686  1.7346 -0.9609
  709MOL0     H93564   3.403   8.714   2.328  0.8174 -0.4571  1.1780
  709MOL0     H93565   3.349   8.875   2.276  0.5959  2.6300  1.0684
  709MOL0     H93566   3.586   8.958   2.410  3.3486 -1.7638  5.6488
  709MOL0     H93567   3.438   8.939   2.500 -3.4859  0.2137 -1.8005
  709MOL0     H93568   3.644   8.850   2.599  2.6321 -1.8374 -0.7997
  709MOL0     H93569   3.665   8.735   2.474 -1.4714  0.3327 -2.8392
  709MOL0     H93570   3.132   9.026   1.607 -0.4556  0.4050 -0.5422
  709MOL0     H93571   2.951   9.108   1.478 -0.6056 -0.0003 -0.9602
  709MOL0     H93572   2.730   9.283   1.082  2.8397  1.5224  1.6118
  709MOL0     H93573   2.532   9.394   0.987  0.9460 -3.2004 -0.0338
  709MOL0     H93574   1.881   9.880   1.335  0.6541 -0.1865 -0.5759
  709MOL0     H93575   2.069   9.993   1.462  2.5961 -0.7730  0.2392
  709MOL0     H93576   2.549   9.798   1.856 -1.7178 -0.5911  0.3047
  709MOL0     H93577   2.709   9.960   1.942  1.8482 -1.6416 -2.4842
  709MOL0     H93578   2.710  10.393   1.786 -1.6739 -1.2463 -0.5801
  709MOL0     H93579   2.841  10.388   1.912  0.2587 -0.5889 -1.7790
  709MOL0     H93580   2.541  10.412   1.963  0.1213 -1.0370 -1.8342
  709MOL0     H93581   2.657  10.386   2.085  0.4216 -1.6061  0.1785
  709MOL0     H93582   2.693  10.602   1.890  4.3741 -2.1907 -0.4861
  709MOL0     H93583   2.783  10.582   2.034  1.8678  0.1637 -3.4121
  709MOL0     H93584   2.594  10.630   2.187  0.7626  2.9397  1.6292
  709MOL0     H93585   2.636  10.770   2.081  3.1196 -1.8894 -1.3235
  709MOL0     H93586   2.230  10.667   1.985  0.4739 -0.4925  2.7252
  709MOL0     H93587   2.508  10.277   1.745 -2.3649 -0.2648 -0.7490
  709MOL0     H93588   2.335  10.112   1.670  0.8420 -1.4266 -1.2871
  710MOL0     O93589   9.639   2.751   7.971  0.8096  0.1140  0.0679
  710MOL0     C93590   9.633   2.748   8.095  0.3001 -0.0301 -0.1964
  710MOL0     O93591   9.697   2.662   8.174  0.3073  0.6109  0.5815
  710MOL0     C93592   9.801   2.586   8.122 -0.0358 -0.5496 -0.7276
  710MOL0     C93593   9.830   2.458   8.170  0.0851 -0.0532  0.0051
  710MOL0     C93594   9.915   2.370   8.110  0.2730  0.2078  0.6668
  710MOL0     C93595   9.993   2.415   8.001  0.4650  0.5856  0.1806
  710MOL0     O93596  10.102   2.348   7.951 -0.1969  0.0881  0.3176
  710MOL0     C93597  10.086   2.234   7.872  0.4210 -0.7973  0.6006
  710MOL0     C93598  10.162   2.253   7.744 -0.3044 -0.1025 -0.3843
  710MOL0     C93599  10.130   2.144   7.641  0.0520  0.8223  0.4116
  710MOL0     C93600  10.221   2.146   7.523 -0.8439 -0.3802  0.0151
  710MOL0     C93601  10.235   2.289   7.460 -0.2240 -1.0945 -0.2879
  710MOL0     C93602  10.308   2.291   7.320  0.2310  0.1854 -0.8342
  710MOL0     C93603  10.314   2.439   7.255 -0.2012  0.1533 -0.4217
  710MOL0     C93604  10.337   2.434   7.100 -0.3030  0.7568 -0.2178
  710MOL0     N93605  10.213   2.405   7.024 -0.4032 -0.3667  0.3260
  710MOL0     C93606  10.121   2.506   6.994 -0.2771 -0.4678 -0.2916
  710MOL0     C93607  10.015   2.442   6.932  0.9971 -0.0546 -1.1055
  710MOL0     C93608   9.894   2.514   6.880  0.4727 -0.3863 -0.0344
  710MOL0     C93609   9.775   2.525   6.967  1.1607 -0.1183 -0.2829
  710MOL0     C93610   9.687   2.641   6.921 -0.1030 -0.0927  0.2966
  710MOL0     C93611   9.545   2.639   6.972  0.2563  0.2294  0.6739
  710MOL0     O93612   9.527   2.618   7.112  0.1329 -0.1771  0.0450
  710MOL0     C93613   9.407   2.659   7.173 -0.9525 -0.2760  0.4332
  710MOL0     C93614   9.292   2.716   7.107  0.0499 -0.3883  0.3241
  710MOL0     C93615   9.183   2.764   7.185  0.7437  0.2144  0.2675
  710MOL0     C93616   9.180   2.748   7.329 -0.0794 -0.1467  0.1643
  710MOL0     C93617   9.069   2.793   7.413  0.1958  0.0152 -0.2723
  710MOL0     O93618   9.041   2.718   7.523  0.7105 -0.1223 -0.1692
  710MOL0     C93619   8.915   2.723   7.576 -0.0355  1.1407 -0.5685
  710MOL0     C93620   8.838   2.834   7.612 -0.0522 -1.2365 -0.7601
  710MOL0     C93621   8.713   2.807   7.684 -0.3340 -0.4934 -0.0300
  710MOL0     C93622   8.663   2.682   7.705 -0.0624  0.6034 -0.4004
  710MOL0     O93623   8.536   2.661   7.760  0.0495  1.0803  0.0671
  710MOL0     C93624   8.427   2.728   7.689  0.1889 -0.1770  0.9079
  710MOL0     C93625   8.428   2.731   7.535 -0.6893 -0.3663 -1.2070
  710MOL0     C93626   8.306   2.791   7.485  0.2534 -0.0772 -0.1117
  710MOL0     C93627   8.316   2.944   7.485 -0.1863  0.4763 -0.0891
  710MOL0     C93628   8.187   3.015   7.445 -0.3292  0.3609  0.7755
  710MOL0     C93629   8.215   3.171   7.444 -0.2751  0.3857 -0.3063
  710MOL0     C93630   8.093   3.265   7.402 -0.7351 -0.1081  0.5358
  710MOL0     C93631   8.135   3.417   7.403  0.0331 -0.0621  0.7399
  710MOL0    Cl93632   8.178   3.474   7.572 -0.4327  0.2060 -0.0813
  710MOL0     C93633   8.731   2.573   7.652 -0.4086  0.4330  0.4591
  710MOL0     C93634   8.861   2.591   7.598  0.2340  0.2440 -0.3538
  710MOL0     O93635   8.995   2.883   7.364  0.1703 -0.0600 -0.9862
  710MOL0     C93636   9.291   2.698   7.388 -0.5166  0.5162  0.3291
  710MOL0     C93637   9.401   2.647   7.315 -0.4384 -0.2912  0.5096
  710MOL0     N93638  10.051   2.307   6.930 -0.3355 -0.3029 -0.9629
  710MOL0     N93639  10.170   2.291   6.975 -0.5638  0.3476  0.1490
  710MOL0     C93640   9.961   2.535   7.943  0.2136 -0.4756  0.0884
  710MOL0     C93641   9.871   2.624   8.011 -0.0639 -0.5684  0.3342
  710MOL0     C93642   9.535   2.833   8.155 -0.1671 -0.9063 -0.7534
  710MOL0     C93643   9.529   2.827   8.299 -0.3264 -0.1261 -0.6642
  710MOL0     C93644   9.445   2.919   8.371  0.3244 -0.4832  0.0773
  710MOL0     C93645   9.377   3.023   8.296  0.8205  0.5690  0.3036
  710MOL0     O93646   9.315   3.113   8.372 -0.1206  0.4305  0.0169
  710MOL0     C93647   9.223   3.201   8.318  0.2416 -0.7985 -0.1069
  710MOL0     C93648   9.140   3.277   8.436 -0.6043 -0.5818  0.3303
  710MOL0     C93649   9.043   3.374   8.367  0.2341 -0.7894  0.4035
  710MOL0     C93650   8.941   3.434   8.467  0.6750 -0.1384  0.6814
  710MOL0     C93651   8.860   3.333   8.530  0.4252 -0.2175  0.9018
  710MOL0     C93652   8.781   3.255   8.583  0.1837 -0.4694 -0.5136
  710MOL0     C93653   9.365   3.003   8.156 -0.0333 -1.1075  0.0957
  710MOL0     C93654   9.437   2.910   8.091 -0.2715  1.6326  0.8075
  710MOL0     H93655   9.787   2.439   8.268  1.3433 -0.8851  0.4151
  710MOL0     H93656   9.944   2.275   8.154  1.1491  0.9086  1.6429
  710MOL0     H93657   9.979   2.212   7.860  0.2833 -1.5155  2.7255
  710MOL0     H93658  10.132   2.146   7.918 -0.9246 -1.6476  0.3964
  710MOL0     H93659  10.270   2.251   7.761 -0.1590 -2.0572 -1.2648
  710MOL0     H93660  10.135   2.344   7.690 -0.1076 -1.4016 -2.8165
  710MOL0     H93661  10.028   2.140   7.603  0.4151 -0.8755 -0.5175
  710MOL0     H93662  10.143   2.052   7.698  0.6559 -0.1950 -1.2708
  710MOL0     H93663  10.325   2.121   7.547 -0.9723 -2.1687 -1.0358
  710MOL0     H93664  10.182   2.085   7.440 -1.0272  0.2642 -0.3771
  710MOL0     H93665  10.287   2.362   7.523  1.3855 -0.9026 -1.7852
  710MOL0     H93666  10.129   2.314   7.444 -0.0311 -1.1298 -1.7727
  710MOL0     H93667  10.249   2.233   7.248 -0.5674 -1.1715  0.8354
  710MOL0     H93668  10.415   2.273   7.324  0.5797  2.2695  0.9348
  710MOL0     H93669  10.231   2.506   7.281  1.3918  1.7224  0.9064
  710MOL0     H93670  10.395   2.488   7.309  0.1256 -0.4977 -0.3130
  710MOL0     H93671  10.399   2.345   7.084  1.4487  0.8350  4.4316
  710MOL0     H93672  10.387   2.519   7.054  2.0945 -1.5961 -2.3065
  710MOL0     H93673  10.138   2.613   7.001 -0.3169 -0.4383 -0.6625
  710MOL0     H93674   9.860   2.452   6.796 -2.5057  0.5597  0.3516
  710MOL0     H93675   9.922   2.612   6.842  2.0524 -1.0337 -0.6390
  710MOL0     H93676   9.809   2.536   7.070  1.8727 -0.3431 -0.4859
  710MOL0     H93677   9.716   2.433   6.969  0.8302  0.0636 -1.2888
  710MOL0     H93678   9.727   2.737   6.954 -1.2372  0.2411  0.7346
  710MOL0     H93679   9.678   2.647   6.812  0.2712 -0.1577  0.2587
  710MOL0     H93680   9.489   2.554   6.932 -1.9050  0.4440  2.9563
  710MOL0     H93681   9.505   2.732   6.931  3.9776  0.7580 -2.2436
  710MOL0     H93682   9.277   2.717   6.999 -1.6776  0.5374  0.5301
  710MOL0     H93683   9.095   2.813   7.146 -0.5090 -0.1486  2.5199
  710MOL0     H93684   8.880   2.932   7.596 -0.5386 -0.2900  2.8067
  710MOL0     H93685   8.659   2.895   7.717  2.6199  0.9168  1.4019
  710MOL0     H93686   8.430   2.830   7.729  2.4688 -0.3181  1.2552
  710MOL0     H93687   8.332   2.687   7.724  0.0336 -1.1428 -0.5226
  710MOL0     H93688   8.432   2.627   7.500 -2.0291 -0.5380 -0.9289
  710MOL0     H93689   8.519   2.784   7.507  0.0794 -1.5655 -1.0233
  710MOL0     H93690   8.217   2.767   7.544  0.2452  1.1041  0.3893
  710MOL0     H93691   8.285   2.762   7.382  1.8536  0.1648 -0.5321
  710MOL0     H93692   8.342   2.976   7.586 -3.4664  1.0293  0.6648
  710MOL0     H93693   8.395   2.974   7.415  0.5030  0.6770  0.7549
  710MOL0     H93694   8.113   2.989   7.521  0.0714  1.4209  1.5701
  710MOL0     H93695   8.155   2.981   7.346  1.2858 -0.7574  0.6081
  710MOL0     H93696   8.292   3.189   7.369  1.1400  1.3842  1.3071
  710MOL0     H93697   8.254   3.209   7.539 -2.9081  1.6888  0.3551
  710MOL0     H93698   8.056   3.233   7.305  1.1763  0.8025 -0.5522
  710MOL0     H93699   8.014   3.245   7.475 -0.2125 -0.1589  1.1024
  710MOL0     H93700   8.056   3.484   7.366  0.8049  1.0794  1.0759
  710MOL0     H93701   8.222   3.421   7.337 -0.3246 -0.3347  0.2509
  710MOL0     H93702   8.690   2.473   7.646  0.5980  0.1009 -1.6106
  710MOL0     H93703   8.925   2.511   7.563  1.2759  0.4893  0.9142
  710MOL0     H93704   9.292   2.696   7.496  2.7863 -0.8406  0.3701
  710MOL0     H93705   9.487   2.623   7.377  1.4944  0.9123 -1.5827
  710MOL0     H93706  10.018   2.564   7.856 -0.8260 -0.6130 -0.6634
  710MOL0     H93707   9.857   2.708   7.943  2.0572 -1.3316 -1.1400
  710MOL0     H93708   9.577   2.745   8.352 -2.0794 -1.3497 -0.8912
  710MOL0     H93709   9.443   2.908   8.479  0.0952 -0.4795  0.0754
  710MOL0     H93710   9.141   3.159   8.259 -0.2708  0.3477 -0.2491
  710MOL0     H93711   9.278   3.270   8.253 -0.3934 -2.4560 -2.5318
  710MOL0     H93712   9.090   3.191   8.483 -1.6557  1.0107  2.2464
  710MOL0     H93713   9.199   3.341   8.502 -1.5334  0.2915  0.3457
  710MOL0     H93714   8.977   3.314   8.304  1.0375 -2.3402  0.9875
  710MOL0     H93715   9.087   3.456   8.308 -1.4047 -0.0542  0.1607
  710MOL0     H93716   8.994   3.493   8.542  0.5082  1.5580 -0.4941
  710MOL0     H93717   8.875   3.506   8.419  2.3184 -0.3454 -2.1203
  710MOL0     H93718   8.723   3.179   8.631  1.7121 -2.4640 -1.6573
  710MOL0     H93719   9.296   3.059   8.094 -4.1944 -5.3141  0.3747
  710MOL0     H93720   9.416   2.901   7.985 -1.5649  2.5209  0.9573
  711MOL0     O93721  11.225   3.318   9.586  0.0723  0.4004 -0.4684
  711MOL0     C93722  11.227   3.309   9.462 -0.1347  0.3428 -0.5247
  711MOL0     O93723  11.293   3.205   9.405  0.6722  0.2970  1.0555
  711MOL0     C93724  11.384   3.122   9.464 -0.0336  0.2067  0.1467
  711MOL0     C93725  11.412   3.102   9.602 -0.1303  0.5912 -0.0885
  711MOL0     C93726  11.504   3.013   9.644  0.5832  0.8665 -0.8366
  711MOL0     C93727  11.565   2.924   9.558 -0.4241 -0.0847 -0.3711
  711MOL0     O93728  11.665   2.842   9.611  0.0616 -0.8473  0.2037
  711MOL0     C93729  11.761   2.793   9.522 -0.2906  0.3904 -0.3662
  711MOL0     C93730  11.888   2.792   9.610 -0.0464 -0.7183 -0.0080
  711MOL0     C93731  11.974   2.666   9.586  0.0289 -0.4733 -0.6691
  711MOL0     C93732  12.113   2.708   9.628 -0.8830 -0.0387 -0.1091
  711MOL0     C93733  12.211   2.589   9.618  1.0258  0.6236  0.8410
  711MOL0     C93734  12.340   2.645   9.683 -0.4365  0.8351 -0.9626
  711MOL0     C93735  12.451   2.530   9.657 -0.5295 -0.3498  0.0478
  711MOL0     C93736  12.582   2.579   9.727  0.3030 -0.0559 -0.3776
  711MOL0     N93737  12.673   2.468   9.734 -0.9250  0.0527  0.6716
  711MOL0     C93738  12.669   2.369   9.833 -0.4485  0.1456  0.1880
  711MOL0     C93739  12.759   2.273   9.795  0.3313 -0.0198 -0.3201
  711MOL0     C93740  12.813   2.163   9.886 -0.0166 -0.1443 -0.0031
  711MOL0     C93741  12.903   2.217   9.994  0.4879  0.4170  0.0613
  711MOL0     C93742  12.985   2.111  10.065 -0.3310  0.9481  0.2945
  711MOL0     C93743  13.083   2.181  10.159  0.0193 -0.1428  0.7741
  711MOL0     O93744  13.109   2.090  10.272 -0.7981  0.3511 -1.1032
  711MOL0     C93745  13.206   1.993  10.264 -0.6253  0.4041 -0.1053
  711MOL0     C93746  13.222   1.909  10.370 -0.2012  0.9441 -0.1569
  711MOL0     C93747  13.320   1.812  10.379 -0.3350  0.1346  0.8776
  711MOL0     C93748  13.409   1.790  10.274 -0.0507  0.3753  0.0433
  711MOL0     C93749  13.502   1.683  10.273 -0.9488 -0.1605 -0.6183
  711MOL0     O93750  13.616   1.688  10.189 -0.5708 -0.6626 -0.5805
  711MOL0     C93751  13.704   1.585  10.200 -0.7221  0.3056 -0.5053
  711MOL0     C93752  13.689   1.462  10.136 -0.7654 -0.8783  0.0776
  711MOL0     C93753  13.779   1.363  10.169 -0.1367 -0.3730 -0.2393
  711MOL0     C93754  13.892   1.395  10.255  0.4987  0.3225  0.6541
  711MOL0     O93755  13.983   1.288  10.281  0.2445 -0.4289 -0.0994
  711MOL0     C93756  13.941   1.155  10.276 -0.5464  0.3013  0.4227
  711MOL0     C93757  14.013   1.071  10.385 -0.8601 -0.3838 -0.2492
  711MOL0     C93758  14.159   1.096  10.374 -0.0063  0.0265 -0.0685
  711MOL0     C93759  14.236   1.013  10.481  0.6070  0.1762  1.2842
  711MOL0     C93760  14.381   1.044  10.471  0.0872  0.6041  0.4347
  711MOL0     C93761  14.488   0.932  10.503  1.0257  0.5987  0.7627
  711MOL0     C93762  14.502   0.824  10.401  0.8380  0.0801  0.3386
  711MOL0     C93763  14.644   0.748  10.388 -0.5602 -0.1402  0.0174
  711MOL0    Cl93764  14.667   0.682  10.555 -0.8063 -0.6743 -0.0633
  711MOL0     C93765  13.914   1.521  10.308 -0.4055  0.4707  0.4091
  711MOL0     C93766  13.814   1.611  10.286 -0.2609  0.5249  0.6234
  711MOL0     O93767  13.483   1.596  10.358  0.2241  0.3082 -0.4475
  711MOL0     C93768  13.412   1.892  10.168 -0.4363  0.9288 -0.3282
  711MOL0     C93769  13.303   1.985  10.161  0.7090  0.5845 -0.1389
  711MOL0     N93770  12.799   2.301   9.672  0.3002  0.1237 -0.7067
  711MOL0     N93771  12.744   2.412   9.629 -0.2385 -0.7373 -0.0642
  711MOL0     C93772  11.537   2.939   9.418  0.1558  0.7813 -0.3589
  711MOL0     C93773  11.451   3.041   9.376  0.3535  0.3875  0.0692
  711MOL0     C93774  11.156   3.420   9.391 -0.2081  0.7636  0.6853
  711MOL0     C93775  11.107   3.522   9.460 -0.1251 -0.4139 -0.4778
  711MOL0     C93776  11.045   3.628   9.397 -0.4346 -0.5066  0.8570
  711MOL0     C93777  11.039   3.642   9.264  0.7264  1.2810  0.0878
  711MOL0     O93778  10.996   3.754   9.199  0.4119  0.4483 -0.4152
  711MOL0     C93779  11.105   3.815   9.122  0.6470 -0.4162  0.8530
  711MOL0     C93780  11.041   3.931   9.046  0.6852 -0.2613 -0.8400
  711MOL0     C93781  10.926   3.877   8.952 -1.1779  0.9110  0.7732
  711MOL0     C93782  10.954   3.762   8.845  0.2753 -0.2775 -0.8028
  711MOL0     C93783  11.049   3.797   8.751 -0.2481 -0.5913 -0.4996
  711MOL0     C93784  11.130   3.818   8.668  0.0266  0.8085  0.3206
  711MOL0     C93785  11.088   3.536   9.188  0.3651 -0.4846  1.1985
  711MOL0     C93786  11.156   3.424   9.244  0.5355 -0.2644 -0.5398
  711MOL0     H93787  11.364   3.147   9.689  1.7769 -2.4465  2.7855
  711MOL0     H93788  11.527   3.000   9.749 -1.1115  5.0083  0.2143
  711MOL0     H93789  11.778   2.859   9.437 -0.7453  0.3274 -0.5065
  711MOL0     H93790  11.732   2.698   9.475  0.8533 -0.1138 -0.1111
  711MOL0     H93791  11.861   2.796   9.716 -3.0915 -4.6472 -0.4140
  711MOL0     H93792  11.953   2.878   9.591  2.4541 -2.2356  1.1690
  711MOL0     H93793  11.970   2.641   9.480 -1.2410  0.5533 -0.8924
  711MOL0     H93794  11.943   2.581   9.648  2.2991 -2.1149 -1.6661
  711MOL0     H93795  12.152   2.791   9.568  1.2046 -1.2583 -0.5518
  711MOL0     H93796  12.107   2.763   9.722 -2.8460  2.1400 -1.3968
  711MOL0     H93797  12.224   2.558   9.514 -1.0849 -1.4174  1.0955
  711MOL0     H93798  12.165   2.499   9.659 -2.1494  1.7755  0.0721
  711MOL0     H93799  12.329   2.652   9.791  0.8089 -3.8050 -0.3323
  711MOL0     H93800  12.368   2.742   9.641 -0.5874  1.8741  1.1950
  711MOL0     H93801  12.421   2.427   9.679 -1.0702  0.2545  2.3336
  711MOL0     H93802  12.477   2.528   9.551  1.6986 -0.8321  0.5586
  711MOL0     H93803  12.545   2.606   9.826 -2.1918 -3.1367 -0.3393
  711MOL0     H93804  12.636   2.663   9.682  0.8090 -1.1250 -1.8426
  711MOL0     H93805  12.626   2.361   9.933  0.2774  2.6199  0.7771
  711MOL0     H93806  12.866   2.091   9.822  1.4164 -0.5469  1.5604
  711MOL0     H93807  12.728   2.110   9.931  0.8740  0.3805  2.4453
  711MOL0     H93808  12.857   2.282  10.069  2.0933  3.6381 -1.5198
  711MOL0     H93809  12.976   2.284   9.947  1.7870 -1.8414 -1.3196
  711MOL0     H93810  12.914   2.065  10.134 -0.8725  3.4711  1.5509
  711MOL0     H93811  13.042   2.041  10.003 -1.6394 -0.1736  0.3077
  711MOL0     H93812  13.037   2.273  10.196 -0.9584 -0.1400 -0.3771
  711MOL0     H93813  13.170   2.213  10.101  1.5383 -5.0864 -0.1380
  711MOL0     H93814  13.153   1.902  10.453  1.1415 -2.8619  0.8430
  711MOL0     H93815  13.303   1.737  10.455 -0.8885  0.4715  1.0969
  711MOL0     H93816  13.602   1.446  10.073 -0.7175  0.9537 -0.5264
  711MOL0     H93817  13.775   1.262  10.131 -3.5722 -0.8634  1.0723
  711MOL0     H93818  13.973   1.120  10.177  1.1906  2.5205  0.1215
  711MOL0     H93819  13.834   1.136  10.291  0.1599 -2.1912  3.2583
  711MOL0     H93820  13.990   0.964  10.375  0.9150 -0.9640  1.3932
  711MOL0     H93821  13.986   1.099  10.487  3.2876  0.6094  0.7593
  711MOL0     H93822  14.189   1.199  10.396 -1.2396 -0.1456  2.8180
  711MOL0     H93823  14.194   1.070  10.273 -1.1889  0.4231 -0.5919
  711MOL0     H93824  14.199   1.027  10.583  2.0897  0.3124  1.8397
  711MOL0     H93825  14.225   0.906  10.462 -1.1819  0.5389  0.0027
  711MOL0     H93826  14.399   1.125  10.542 -1.1036  2.2635 -1.0524
  711MOL0     H93827  14.413   1.080  10.372  2.7906  1.9350  1.6984
  711MOL0     H93828  14.476   0.884  10.600 -0.1143 -3.5061 -1.2098
  711MOL0     H93829  14.582   0.989  10.505  0.0113  2.6385 -2.1706
  711MOL0     H93830  14.421   0.752  10.417  0.9683  0.0820  1.0520
  711MOL0     H93831  14.490   0.885  10.312  0.2872  0.2743  0.5459
  711MOL0     H93832  14.731   0.806  10.356  1.6816 -3.1974  0.2149
  711MOL0     H93833  14.646   0.672  10.310  0.9597 -2.1602  1.8999
  711MOL0     H93834  13.992   1.540  10.380 -1.8755 -0.4298  2.3410
  711MOL0     H93835  13.816   1.713  10.322 -2.1850  0.3591  1.3110
  711MOL0     H93836  13.453   1.870  10.070 -0.2239 -1.4304  0.2367
  711MOL0     H93837  13.296   2.053  10.077 -0.4489 -1.0996 -1.4790
  711MOL0     H93838  11.578   2.871   9.344 -2.2772  0.1624 -1.2384
  711MOL0     H93839  11.437   3.035   9.268 -0.1659  0.7950  0.1082
  711MOL0     H93840  11.113   3.534   9.567  2.4719  0.2933 -0.6524
  711MOL0     H93841  11.008   3.703   9.467  1.3903 -2.5068  4.2681
  711MOL0     H93842  11.151   3.748   9.050  0.1824  0.9136 -0.7457
  711MOL0     H93843  11.191   3.853   9.177  0.6216  3.2425 -1.2847
  711MOL0     H93844  10.995   3.994   9.122  1.0398 -2.6376  1.5213
  711MOL0     H93845  11.119   3.985   8.992  1.1533 -0.2180 -0.1457
  711MOL0     H93846  10.880   3.967   8.911 -2.2638 -0.6574 -1.6632
  711MOL0     H93847  10.852   3.840   9.023 -2.2330 -0.3164 -0.9209
  711MOL0     H93848  10.988   3.678   8.907 -0.3127 -0.3375 -0.5552
  711MOL0     H93849  10.859   3.740   8.794 -0.0951  2.5039 -1.4316
  711MOL0     H93850  11.201   3.815   8.588 -0.5810 -0.0386 -0.1964
  711MOL0     H93851  11.083   3.542   9.080  0.8339 -0.4341  1.1770
  711MOL0     H93852  11.186   3.340   9.182  1.0317 -0.5062  0.0151
  712MOL0     O93853   1.613   7.530   7.474 -0.2715  0.7109  0.8745
  712MOL0     C93854   1.516   7.504   7.553 -0.6302 -0.0318 -0.0970
  712MOL0     O93855   1.397   7.434   7.515 -0.2198  0.5180  0.2402
  712MOL0     C93856   1.383   7.388   7.385  0.2870 -0.1511  0.3504
  712MOL0     C93857   1.491   7.325   7.316 -1.1564  1.4312 -0.0853
  712MOL0     C93858   1.477   7.288   7.174 -0.2071 -0.8611 -0.5143
  712MOL0     C93859   1.358   7.330   7.106 -1.1809  0.6482 -0.0310
  712MOL0     O93860   1.332   7.303   6.975  0.0190 -0.3177  0.1736
  712MOL0     C93861   1.444   7.287   6.886  0.9167  0.0358  0.2460
  712MOL0     C93862   1.389   7.290   6.746 -0.0276  0.5095  0.2383
  712MOL0     C93863   1.502   7.259   6.642  0.2654  0.4212  0.2149
  712MOL0     C93864   1.436   7.242   6.501 -0.4559  0.8490  1.3093
  712MOL0     C93865   1.540   7.198   6.402 -0.5306 -0.8536 -0.2519
  712MOL0     C93866   1.490   7.163   6.271 -0.2469  0.1613  0.0999
  712MOL0     C93867   1.598   7.088   6.193 -0.4044  0.2814 -0.1433
  712MOL0     C93868   1.698   7.183   6.116  0.4819  0.5258 -0.5197
  712MOL0     N93869   1.782   7.106   6.031  0.4914  0.1445  0.8126
  712MOL0     C93870   1.752   7.056   5.912  0.3513 -0.1672  0.8494
  712MOL0     C93871   1.869   7.009   5.854  0.4877 -0.5375  0.6904
  712MOL0     C93872   1.888   6.915   5.735 -0.3136  0.2551  0.5234
  712MOL0     C93873   1.811   6.779   5.728  0.0744  0.0286 -0.8919
  712MOL0     C93874   1.845   6.683   5.850  0.5656  0.1060  0.0007
  712MOL0     C93875   1.735   6.563   5.858 -0.8160  0.4484 -0.4743
  712MOL0     O93876   1.736   6.498   5.992  1.0195 -0.1713 -0.2078
  712MOL0     C93877   1.640   6.531   6.082 -0.0366  0.9368 -0.5311
  712MOL0     C93878   1.620   6.442   6.187 -0.4508 -0.1009  1.1510
  712MOL0     C93879   1.524   6.457   6.281 -0.4626 -0.5004  0.4295
  712MOL0     C93880   1.446   6.576   6.287  1.3501  0.2325 -0.1663
  712MOL0     C93881   1.324   6.581   6.365 -0.3929 -0.0337  1.5806
  712MOL0     O93882   1.280   6.458   6.425 -0.0060  0.1654  0.6121
  712MOL0     C93883   1.161   6.439   6.485  0.3751  0.6546  0.7766
  712MOL0     C93884   1.101   6.310   6.455  0.4066  0.7950  0.0183
  712MOL0     C93885   0.985   6.257   6.505 -0.1883  0.3980 -0.6998
  712MOL0     C93886   0.915   6.337   6.591  0.3002  0.4984  0.5149
  712MOL0     O93887   0.794   6.302   6.639  0.0994  0.2361  0.0644
  712MOL0     C93888   0.734   6.165   6.618 -0.6141  0.1389  0.0898
  712MOL0     C93889   0.588   6.165   6.649 -0.0169  0.3089  0.1968
  712MOL0     C93890   0.497   6.258   6.561 -0.5612  0.7831  0.3841
  712MOL0     C93891   0.366   6.307   6.628 -0.1177 -0.1349  0.4501
  712MOL0     C93892   0.376   6.407   6.749  0.8577 -0.2088 -0.1404
  712MOL0     C93893   0.233   6.458   6.785  0.1624 -0.5618  0.9130
  712MOL0     C93894   0.173   6.566   6.692  0.3658  0.9237 -0.9755
  712MOL0     C93895   0.023   6.579   6.702  0.7484  0.6378 -0.3130
  712MOL0    Cl93896  -0.036   6.612   6.870 -0.0958  0.1832  0.0675
  712MOL0     C93897   0.949   6.466   6.605 -0.9090 -1.3322  0.1711
  712MOL0     C93898   1.078   6.519   6.560 -0.8319  0.0301  0.1821
  712MOL0     O93899   1.269   6.688   6.376 -0.5411 -0.9901  0.1444
  712MOL0     C93900   1.471   6.679   6.190 -0.7757  0.7028  0.7401
  712MOL0     C93901   1.561   6.650   6.079 -0.8902  0.1187  0.1312
  712MOL0     N93902   1.968   7.031   5.955 -0.2782 -0.7153  0.0259
  712MOL0     N93903   1.916   7.096   6.061  0.3225  0.2442  0.8707
  712MOL0     C93904   1.253   7.393   7.173  0.2068  0.4254 -0.3105
  712MOL0     C93905   1.266   7.426   7.313  0.5760  0.0470 -0.6463
  712MOL0     C93906   1.501   7.564   7.683 -0.4493 -0.7113 -0.3515
  712MOL0     C93907   1.387   7.546   7.770 -0.3590  0.2078  0.5753
  712MOL0     C93908   1.375   7.607   7.894 -0.4347 -0.3425  0.1667
  712MOL0     C93909   1.492   7.680   7.942  0.9346  0.4094  0.0969
  712MOL0     O93910   1.498   7.752   8.062 -0.2850  0.0343 -0.9709
  712MOL0     C93911   1.375   7.766   8.145 -0.2780  0.0187 -0.0436
  712MOL0     C93912   1.287   7.883   8.138  0.1773 -0.3681 -0.9412
  712MOL0     C93913   1.169   7.882   8.026  0.3057 -1.1275  0.6033
  712MOL0     C93914   1.065   7.987   8.053 -0.0624  1.4371  0.1672
  712MOL0     C93915   1.121   8.124   8.065  0.3201 -0.5484  0.1295
  712MOL0     C93916   1.157   8.243   8.072  0.6771  0.2064  0.4042
  712MOL0     C93917   1.595   7.695   7.859 -0.9167 -0.3820  0.3220
  712MOL0     C93918   1.608   7.641   7.740  0.1355  0.7900 -1.2281
  712MOL0     H93919   1.581   7.284   7.360 -0.9258  0.1464 -1.6310
  712MOL0     H93920   1.563   7.234   7.137  2.0565  0.5611  2.2603
  712MOL0     H93921   1.486   7.189   6.908 -2.6631 -1.8852 -0.6756
  712MOL0     H93922   1.525   7.358   6.905  2.9215 -2.6373  2.4212
  712MOL0     H93923   1.344   7.388   6.723  1.1437  0.9242 -0.3976
  712MOL0     H93924   1.315   7.210   6.739  0.0912  0.5007 -1.3875
  712MOL0     H93925   1.558   7.166   6.651  1.2390  0.3149 -4.5229
  712MOL0     H93926   1.573   7.342   6.647 -2.7480  3.2312 -0.3903
  712MOL0     H93927   1.347   7.178   6.500 -0.3710  0.6261 -1.8842
  712MOL0     H93928   1.394   7.334   6.459 -2.7750 -0.2235  1.1399
  712MOL0     H93929   1.592   7.120   6.459  0.8845  0.8578  0.9007
  712MOL0     H93930   1.625   7.266   6.391 -0.8215 -0.4792 -0.2204
  712MOL0     H93931   1.455   7.249   6.212 -2.1158 -0.3196  0.4275
  712MOL0     H93932   1.397   7.109   6.292 -1.6608  2.1044 -0.8244
  712MOL0     H93933   1.654   7.021   6.258 -0.7618 -1.8611 -1.9170
  712MOL0     H93934   1.542   7.019   6.129  1.1876 -0.6338 -0.6016
  712MOL0     H93935   1.756   7.228   6.197  2.5761 -0.5228 -1.3657
  712MOL0     H93936   1.654   7.270   6.066  1.1394  0.7597 -0.7021
  712MOL0     H93937   1.651   7.054   5.872  0.4400  1.8615  0.4702
  712MOL0     H93938   1.997   6.910   5.735 -0.1651  2.6602  0.9230
  712MOL0     H93939   1.854   6.965   5.643  0.9119  0.1335 -0.0114
  712MOL0     H93940   1.831   6.737   5.629  0.4011 -1.6768 -0.1324
  712MOL0     H93941   1.704   6.798   5.743 -0.7471 -4.7615  0.9103
  712MOL0     H93942   1.947   6.643   5.844  0.7972  0.8443 -1.1076
  712MOL0     H93943   1.837   6.735   5.946 -4.4450 -0.6728  0.3017
  712MOL0     H93944   1.758   6.482   5.788  3.2752  0.4288  0.6387
  712MOL0     H93945   1.635   6.602   5.836 -1.0624  0.1353  0.0738
  712MOL0     H93946   1.678   6.352   6.175  1.5893  1.3760 -1.1445
  712MOL0     H93947   1.521   6.376   6.354 -1.5656  0.9544  2.0566
  712MOL0     H93948   1.156   6.257   6.378  1.1626  0.8866  0.4858
  712MOL0     H93949   0.951   6.161   6.468 -0.2321  0.3613 -0.5618
  712MOL0     H93950   0.783   6.083   6.671 -2.8362 -1.1073  0.2972
  712MOL0     H93951   0.736   6.155   6.509 -0.2565  2.3752 -0.1774
  712MOL0     H93952   0.571   6.202   6.751 -1.4767  0.4767 -0.0834
  712MOL0     H93953   0.557   6.061   6.636 -1.0150  0.7015 -0.6862
  712MOL0     H93954   0.485   6.211   6.463  0.7763  1.8867 -0.3538
  712MOL0     H93955   0.557   6.346   6.535  2.4207 -1.9777 -3.0114
  712MOL0     H93956   0.298   6.354   6.557  0.7198  0.4818  0.0411
  712MOL0     H93957   0.307   6.218   6.652 -0.2877 -0.6044 -1.5639
  712MOL0     H93958   0.441   6.493   6.733  0.7377 -0.0594  0.1708
  712MOL0     H93959   0.418   6.356   6.837  3.3616  2.1411  0.1606
  712MOL0     H93960   0.230   6.487   6.891 -0.3231  1.5586  0.3518
  712MOL0     H93961   0.159   6.379   6.766 -1.1624  0.6190  1.0378
  712MOL0     H93962   0.221   6.658   6.727  1.0609 -0.3627  1.6915
  712MOL0     H93963   0.211   6.536   6.594  2.4153 -0.7327  0.2494
  712MOL0     H93964  -0.017   6.480   6.679 -1.0607  1.5246 -1.1834
  712MOL0     H93965  -0.025   6.651   6.635 -1.8319 -0.7976 -0.1347
  712MOL0     H93966   0.886   6.522   6.674 -1.1140  0.8215 -1.6483
  712MOL0     H93967   1.107   6.621   6.585 -1.3086  0.4311 -0.8582
  712MOL0     H93968   1.413   6.771   6.195  0.6102  1.6406  0.2983
  712MOL0     H93969   1.583   6.726   6.005 -0.8266 -0.3855 -0.3714
  712MOL0     H93970   1.161   7.400   7.117 -1.9195  2.6685  3.0899
  712MOL0     H93971   1.186   7.475   7.368 -3.2267 -0.8740 -4.7966
  712MOL0     H93972   1.293   7.501   7.737 -1.1292  0.5000  2.2424
  712MOL0     H93973   1.281   7.600   7.946 -1.0297  2.2453 -0.4399
  712MOL0     H93974   1.404   7.760   8.250  1.1630 -2.1791 -0.5165
  712MOL0     H93975   1.301   7.686   8.134 -1.8379  0.6818  3.8287
  712MOL0     H93976   1.234   7.893   8.233 -0.0869  0.7385 -1.1931
  712MOL0     H93977   1.345   7.974   8.127  0.4359 -0.1814  1.5277
  712MOL0     H93978   1.120   7.785   8.021 -2.4983  0.2510 -0.2658
  712MOL0     H93979   1.220   7.906   7.932 -3.1150 -0.7216 -1.3008
  712MOL0     H93980   0.993   7.963   7.974 -0.3366 -0.8682  1.0551
  712MOL0     H93981   1.016   7.966   8.148  3.1180  1.1886  1.8687
  712MOL0     H93982   1.184   8.346   8.076  0.5708  0.2003  1.7542
  712MOL0     H93983   1.680   7.742   7.907  0.1250 -2.1371  0.2648
  712MOL0     H93984   1.702   7.645   7.685  0.6296 -0.8836 -0.5882
  713MOL0     O93985   7.806   8.562   8.405 -0.0260 -0.0737 -0.8682
  713MOL0     C93986   7.750   8.472   8.338 -0.0099 -0.0827  0.4194
  713MOL0     O93987   7.745   8.335   8.357 -0.3711 -0.2685  0.0792
  713MOL0     C93988   7.822   8.283   8.462 -0.1554 -0.9331 -0.2888
  713MOL0     C93989   7.757   8.189   8.541 -0.5907  1.2772 -0.1936
  713MOL0     C93990   7.822   8.121   8.649 -0.1787 -0.2811  0.1848
  713MOL0     C93991   7.957   8.162   8.674  0.3497  0.7049 -0.6745
  713MOL0     O93992   8.017   8.109   8.785 -0.1074 -0.3616 -0.2211
  713MOL0     C93993   8.159   8.072   8.770 -0.0826 -0.2559  1.3286
  713MOL0     C93994   8.236   8.171   8.863 -0.2057  0.2948 -1.2150
  713MOL0     C93995   8.338   8.087   8.948 -1.0277  0.1347  0.8075
  713MOL0     C93996   8.408   8.185   9.041  0.5804 -0.5788  0.2770
  713MOL0     C93997   8.508   8.123   9.131  0.8621  0.7717 -0.3187
  713MOL0     C93998   8.555   8.226   9.229  0.2348  0.0483  0.1384
  713MOL0     C93999   8.654   8.174   9.340 -0.0149  0.5452 -0.6842
  713MOL0     C94000   8.798   8.210   9.315 -0.4256 -0.0686  0.3866
  713MOL0     N94001   8.806   8.363   9.318  0.5665 -0.3377 -0.7148
  713MOL0     C94002   8.800   8.435   9.431  0.3854 -0.0303 -0.5775
  713MOL0     C94003   8.818   8.559   9.408  0.3644 -0.8187 -1.0932
  713MOL0     C94004   8.792   8.671   9.509 -0.1232 -0.2665  0.0216
  713MOL0     C94005   8.689   8.773   9.457 -0.6774 -0.5114  0.3394
  713MOL0     C94006   8.682   8.896   9.548 -0.7946  0.4455  0.6839
  713MOL0     C94007   8.578   8.987   9.485 -0.3562  0.4129 -0.1501
  713MOL0     O94008   8.462   8.898   9.451  0.2246 -1.1050 -0.0174
  713MOL0     C94009   8.370   8.961   9.366  0.1236 -0.1286  0.1609
  713MOL0     C94010   8.377   9.094   9.298 -0.0725  0.9114 -0.0141
  713MOL0     C94011   8.276   9.139   9.218 -0.6562  0.5831 -0.7278
  713MOL0     C94012   8.162   9.058   9.204 -0.0637  0.0077 -0.0485
  713MOL0     C94013   8.040   9.100   9.118 -0.7470 -0.5431 -0.5544
  713MOL0     O94014   7.915   9.039   9.154  0.3791  0.2380  0.3707
  713MOL0     C94015   7.833   9.015   9.049 -0.3969 -0.2185 -1.0851
  713MOL0     C94016   7.863   8.935   8.937 -0.6217  0.0829 -0.5161
  713MOL0     C94017   7.770   8.889   8.846  0.6061 -0.4956  0.2695
  713MOL0     C94018   7.638   8.937   8.862  0.5394 -0.5272 -1.1953
  713MOL0     O94019   7.532   8.907   8.779 -0.8710 -0.3227 -0.2398
  713MOL0     C94020   7.564   8.836   8.659 -0.5949 -0.4484  0.3119
  713MOL0     C94021   7.444   8.823   8.568  0.5942 -0.0635 -1.2283
  713MOL0     C94022   7.496   8.800   8.426 -0.7164  0.6676 -0.3261
  713MOL0     C94023   7.391   8.805   8.313 -0.4706  0.7260 -0.0705
  713MOL0     C94024   7.288   8.693   8.329  0.2902  0.3085  0.2413
  713MOL0     C94025   7.166   8.713   8.233  0.3338  0.3494 -0.5855
  713MOL0     C94026   7.194   8.697   8.087 -0.1985  0.6980  0.4615
  713MOL0     C94027   7.150   8.557   8.034  0.3321  0.2245 -0.2193
  713MOL0    Cl94028   7.225   8.418   8.114  0.2192 -0.0578 -0.5629
  713MOL0     C94029   7.606   9.025   8.967  0.1796 -0.1671 -1.4253
  713MOL0     C94030   7.704   9.059   9.067  0.8432  0.3932  0.4724
  713MOL0     O94031   8.056   9.195   9.039 -0.1782  0.5178  0.3454
  713MOL0     C94032   8.151   8.945   9.274 -0.8958  0.3299 -0.5390
  713MOL0     C94033   8.253   8.895   9.350 -0.5005  0.0414  0.7831
  713MOL0     N94034   8.853   8.573   9.276  0.4345  0.3600 -0.0490
  713MOL0     N94035   8.847   8.455   9.225  0.2228  0.7015  0.0027
  713MOL0     C94036   8.022   8.260   8.597 -0.1542  0.4165  0.3240
  713MOL0     C94037   7.957   8.316   8.489 -0.5646  0.2971  0.2263
  713MOL0     C94038   7.680   8.511   8.213  0.6130  0.4378 -0.3350
  713MOL0     C94039   7.609   8.412   8.143 -0.2221 -0.1545 -0.1234
  713MOL0     C94040   7.543   8.446   8.025 -0.7143  0.6721 -0.3860
  713MOL0     C94041   7.552   8.576   7.964  0.4986 -0.5818 -0.3716
  713MOL0     O94042   7.515   8.615   7.841 -0.3083 -0.1879  1.0120
  713MOL0     C94043   7.502   8.508   7.741  0.6791  1.1080 -0.7480
  713MOL0     C94044   7.431   8.550   7.616  0.5877 -0.4353  0.3172
  713MOL0     C94045   7.277   8.550   7.650  0.3963  0.9026 -0.9066
  713MOL0     C94046   7.171   8.584   7.536  0.4235  0.3930 -1.0165
  713MOL0     C94047   7.181   8.713   7.468 -0.3026 -0.4479  0.6743
  713MOL0     C94048   7.195   8.825   7.422  0.7575  0.1559  0.0660
  713MOL0     C94049   7.620   8.680   8.038  0.5495 -0.0142 -0.1600
  713MOL0     C94050   7.682   8.641   8.167  0.8113 -0.9512 -0.0542
  713MOL0     H94051   7.659   8.156   8.510  0.3169 -4.2555  1.6728
  713MOL0     H94052   7.781   8.045   8.715  2.7361 -2.2402 -0.0465
  713MOL0     H94053   8.205   8.082   8.671  1.8165  2.5875  2.3550
  713MOL0     H94054   8.169   7.968   8.803 -1.8864 -0.7940  0.2908
  713MOL0     H94055   8.158   8.215   8.926 -1.2916 -1.8139 -0.9806
  713MOL0     H94056   8.281   8.255   8.811 -1.5776  1.4248 -0.6464
  713MOL0     H94057   8.412   8.032   8.889 -2.2418 -0.7963  0.1121
  713MOL0     H94058   8.282   8.010   9.002 -0.1254 -1.5679 -0.5705
  713MOL0     H94059   8.464   8.252   8.976 -1.2975  0.4814 -0.3223
  713MOL0     H94060   8.329   8.243   9.089 -1.7160 -2.4615 -0.9912
  713MOL0     H94061   8.585   8.087   9.062  0.8750  0.2715 -0.0437
  713MOL0     H94062   8.454   8.045   9.185  2.0687 -0.2261 -0.5034
  713MOL0     H94063   8.471   8.277   9.278 -1.5621 -2.5892 -0.0215
  713MOL0     H94064   8.604   8.294   9.159  0.7453 -1.8836 -1.4800
  713MOL0     H94065   8.626   8.224   9.433  0.6359 -1.8949  0.9125
  713MOL0     H94066   8.635   8.068   9.359 -6.1398  1.8269  3.2247
  713MOL0     H94067   8.836   8.180   9.217  2.5854  0.7076  1.2197
  713MOL0     H94068   8.869   8.171   9.388  0.6759  3.2956  1.3129
  713MOL0     H94069   8.778   8.390   9.527  1.4267 -0.3822 -0.4927
  713MOL0     H94070   8.889   8.718   9.530  1.5050 -1.9670 -3.0700
  713MOL0     H94071   8.749   8.639   9.605  3.4206 -1.1072  1.4947
  713MOL0     H94072   8.596   8.719   9.438 -0.4604 -0.1343 -2.0804
  713MOL0     H94073   8.714   8.802   9.355 -0.1919  0.0946  0.6234
  713MOL0     H94074   8.640   8.867   9.645  0.8012 -2.7754  0.5663
  713MOL0     H94075   8.778   8.946   9.557  0.2252 -0.5351 -3.0589
  713MOL0     H94076   8.626   9.025   9.394 -0.0385  0.1934 -0.0745
  713MOL0     H94077   8.543   9.069   9.549  1.5294  1.2281 -0.0883
  713MOL0     H94078   8.467   9.155   9.305  3.6939 -3.5676 -3.2915
  713MOL0     H94079   8.282   9.229   9.158  2.1386  0.5325 -0.6119
  713MOL0     H94080   7.964   8.902   8.917  0.1904  1.2147  1.3896
  713MOL0     H94081   7.801   8.814   8.775 -1.1403 -2.1813  1.2034
  713MOL0     H94082   7.620   8.743   8.672 -1.9590 -1.6358 -1.7341
  713MOL0     H94083   7.637   8.901   8.609 -0.0031 -2.2219 -1.2634
  713MOL0     H94084   7.380   8.912   8.576 -0.4189 -0.9367  1.9647
  713MOL0     H94085   7.386   8.737   8.603  1.3326  0.5322  1.7231
  713MOL0     H94086   7.544   8.701   8.432 -1.0197  0.3640 -2.1609
  713MOL0     H94087   7.572   8.877   8.409 -0.2121  0.1109 -0.6425
  713MOL0     H94088   7.344   8.901   8.335 -2.0913 -0.1390  0.4804
  713MOL0     H94089   7.429   8.792   8.211 -2.2666  2.2231 -1.0106
  713MOL0     H94090   7.262   8.702   8.435 -0.5836  1.0379 -0.0259
  713MOL0     H94091   7.316   8.588   8.321 -2.3634 -0.7816  3.2566
  713MOL0     H94092   7.142   8.819   8.240  4.0098  1.3496 -1.0464
  713MOL0     H94093   7.084   8.643   8.254  2.9734 -2.8573 -0.1527
  713MOL0     H94094   7.136   8.775   8.036 -0.7879  1.0157  1.5725
  713MOL0     H94095   7.290   8.727   8.045 -1.2152  1.7435 -1.2296
  713MOL0     H94096   7.182   8.560   7.929  1.9075  2.0855  0.2586
  713MOL0     H94097   7.040   8.559   8.042  0.4559  0.0676  2.2260
  713MOL0     H94098   7.507   9.069   8.970  1.4290  2.8757 -0.3035
  713MOL0     H94099   7.681   9.129   9.147  1.0070  0.6777  0.2716
  713MOL0     H94100   8.065   8.880   9.263 -0.2589 -0.2807 -2.2663
  713MOL0     H94101   8.245   8.795   9.390 -0.3803 -0.8619 -1.3399
  713MOL0     H94102   8.127   8.285   8.608 -0.2650  1.4777 -0.8069
  713MOL0     H94103   8.012   8.395   8.439 -2.6431  2.7188  1.5397
  713MOL0     H94104   7.594   8.307   8.167  2.3835 -1.1465 -2.2802
  713MOL0     H94105   7.487   8.366   7.979  2.1622 -2.3377  0.9058
  713MOL0     H94106   7.463   8.410   7.771 -1.2348  0.8586 -3.6220
  713MOL0     H94107   7.601   8.480   7.705 -0.4920 -0.8883 -2.7237
  713MOL0     H94108   7.456   8.654   7.594 -2.2554 -0.1214 -2.1371
  713MOL0     H94109   7.454   8.485   7.531  1.1418  0.6104 -0.3510
  713MOL0     H94110   7.265   8.624   7.730  0.2480 -0.5232  0.4263
  713MOL0     H94111   7.247   8.454   7.691  3.5692  0.9686  2.0019
  713MOL0     H94112   7.180   8.504   7.462  1.8525  2.3192 -3.0377
  713MOL0     H94113   7.085   8.576   7.603  2.6105  0.5410  2.0889
  713MOL0     H94114   7.205   8.928   7.393 -0.2314  0.4987  0.8999
  713MOL0     H94115   7.640   8.780   8.002 -1.0294 -0.0238 -1.1695
  713MOL0     H94116   7.722   8.730   8.215 -3.5824  0.3315  1.7243
  714MOL0     O94117   8.199   4.548   0.102  0.2065  0.0421  0.7873
  714MOL0     C94118   8.144   4.643   0.149  0.1787  0.2415  0.5261
  714MOL0     O94119   8.212   4.757   0.191  0.0196 -0.2907  0.7418
  714MOL0     C94120   8.345   4.738   0.210 -0.4374 -0.5140  0.1286
  714MOL0     C94121   8.388   4.733   0.345 -0.1481  0.0190  1.0201
  714MOL0     C94122   8.524   4.743   0.366  0.2717 -0.2737 -0.0368
  714MOL0     C94123   8.621   4.729   0.266 -0.7120 -0.4402  0.1166
  714MOL0     O94124   8.756   4.715   0.289  0.2222 -0.7058  0.1534
  714MOL0     C94125   8.847   4.708   0.179  0.0174 -0.2194  0.0265
  714MOL0     C94126   8.988   4.670   0.223 -0.3742 -0.0659 -0.9521
  714MOL0     C94127   9.048   4.774   0.325  0.3228  0.1617  0.9349
  714MOL0     C94128   9.186   4.742   0.366 -0.8444 -0.6277 -0.3684
  714MOL0     C94129   9.224   4.840   0.491  0.4677  0.6863  0.6942
  714MOL0     C94130   9.370   4.809   0.539 -0.1608 -0.8223  0.7795
  714MOL0     C94131   9.466   4.825   0.426 -0.3592  0.4534  0.3253
  714MOL0     C94132   9.598   4.865   0.487 -0.7066  0.0210  0.6690
  714MOL0     N94133   9.709   4.890   0.384 -0.0395  0.5363 -0.0062
  714MOL0     C94134   9.843   4.853   0.390 -0.2489 -0.6207 -0.6499
  714MOL0     C94135   9.892   4.893   0.270 -0.5682 -0.5819  0.4902
  714MOL0     C94136  10.035   4.856   0.241 -0.2882  0.5017 -0.4183
  714MOL0     C94137  10.074   4.830   0.093 -0.0787  0.3630  1.2447
  714MOL0     C94138   9.996   4.716   0.024  0.0832  0.2829  0.2664
  714MOL0     C94139  10.017   4.578   0.086 -0.0835 -0.0945 -0.0673
  714MOL0     O94140  10.160   4.540   0.073  0.3867  0.1424 -0.3347
  714MOL0     C94141  10.213   4.490  -0.047 -0.5849  0.5099  0.8723
  714MOL0     C94142  10.346   4.516  -0.083  0.1577  0.1527 -0.6646
  714MOL0     C94143  10.396   4.465  -0.204  0.0437  0.4219  0.1846
  714MOL0     C94144  10.321   4.396  -0.298 -0.0434 -0.3505  0.0626
  714MOL0     C94145  10.386   4.356  -0.431  0.0822 -0.5914  0.3701
  714MOL0     O94146  10.299   4.374  -0.532  1.3467 -0.0698 -0.5652
  714MOL0     C94147  10.332   4.359  -0.660  0.2824  0.5060 -0.5447
  714MOL0     C94148  10.458   4.349  -0.724 -0.8809 -0.1471 -0.5606
  714MOL0     C94149  10.467   4.339  -0.862 -0.1037 -0.6499  0.0445
  714MOL0     C94150  10.354   4.338  -0.949 -0.1192  0.2608 -0.3852
  714MOL0     O94151  10.379   4.307  -1.079 -0.2981  0.5590  0.3947
  714MOL0     C94152  10.262   4.283  -1.163  0.3021  1.1578  0.7709
  714MOL0     C94153  10.306   4.265  -1.308  0.3827 -0.2137 -0.5403
  714MOL0     C94154  10.189   4.253  -1.410 -0.6937 -0.5188 -0.0670
  714MOL0     C94155  10.099   4.135  -1.388  0.1217  0.3129 -0.2922
  714MOL0     C94156   9.984   4.143  -1.483 -0.3344 -0.7543  0.1857
  714MOL0     C94157   9.887   4.018  -1.478 -0.0742  0.1313  0.4315
  714MOL0     C94158   9.753   4.045  -1.554 -0.4961 -0.1213  0.1937
  714MOL0     C94159   9.643   3.940  -1.539 -0.1591 -1.4463  0.9710
  714MOL0    Cl94160   9.489   4.007  -1.573  0.2847  0.1189 -0.4381
  714MOL0     C94161  10.232   4.348  -0.878  0.3395  0.8005 -0.3400
  714MOL0     C94162  10.230   4.354  -0.746  0.7254 -0.3604 -0.7405
  714MOL0     O94163  10.511   4.329  -0.439 -0.1806 -0.9095  0.9134
  714MOL0     C94164  10.188   4.378  -0.272  0.5727  0.2756 -0.8848
  714MOL0     C94165  10.139   4.425  -0.148 -0.3027 -0.1563 -0.3715
  714MOL0     N94166   9.796   4.971   0.201 -0.3533  0.5502 -0.1920
  714MOL0     N94167   9.689   4.969   0.269  0.3433 -0.0706 -0.5287
  714MOL0     C94168   8.575   4.734   0.136  0.5989  0.4402  0.7623
  714MOL0     C94169   8.434   4.743   0.106  0.1875 -0.1607  0.6068
  714MOL0     C94170   7.991   4.638   0.181  0.3440  0.5339 -0.1499
  714MOL0     C94171   7.918   4.749   0.227  0.4820  0.2649  1.1903
  714MOL0     C94172   7.785   4.744   0.275 -0.1830  0.3700 -0.2656
  714MOL0     C94173   7.713   4.632   0.249 -0.8794 -0.4584  0.4751
  714MOL0     O94174   7.575   4.636   0.264  0.0121  0.6588  0.1280
  714MOL0     C94175   7.497   4.520   0.252  0.3108 -0.3255 -0.7970
  714MOL0     C94176   7.500   4.446   0.379 -0.2240  0.1078  0.1853
  714MOL0     C94177   7.387   4.343   0.392 -1.2392 -0.2936 -0.4146
  714MOL0     C94178   7.401   4.215   0.305 -0.5779 -0.2954 -0.0077
  714MOL0     C94179   7.492   4.118   0.367  0.5316 -0.0833  0.5856
  714MOL0     C94180   7.580   4.062   0.426  0.7216  0.2721 -0.9670
  714MOL0     C94181   7.786   4.520   0.205 -0.2026 -0.0334  0.1489
  714MOL0     C94182   7.919   4.519   0.165  0.4637 -0.1695 -1.3211
  714MOL0     H94183   8.310   4.744   0.420 -1.0630  2.4572 -0.1864
  714MOL0     H94184   8.555   4.755   0.469 -0.5262 -0.2052  0.2046
  714MOL0     H94185   8.851   4.808   0.135  1.8220  0.4124  1.4909
  714MOL0     H94186   8.808   4.638   0.104  1.7500  0.3176 -1.4659
  714MOL0     H94187   9.048   4.661   0.132  2.2836  0.9192  0.5955
  714MOL0     H94188   8.974   4.573   0.273 -0.5914  1.1391  1.4686
  714MOL0     H94189   8.985   4.776   0.415  0.9810 -0.7001  1.4322
  714MOL0     H94190   9.054   4.869   0.271  0.9485 -1.5489 -2.1892
  714MOL0     H94191   9.184   4.639   0.403  0.2868 -0.1594  1.0611
  714MOL0     H94192   9.259   4.738   0.284  0.1356 -1.6822  0.5235
  714MOL0     H94193   9.149   4.829   0.570  2.0101  0.1006  2.1465
  714MOL0     H94194   9.220   4.943   0.454 -1.9671 -0.8363 -4.1010
  714MOL0     H94195   9.387   4.705   0.569  2.7763 -0.0921  2.0690
  714MOL0     H94196   9.382   4.874   0.625 -0.6943 -2.4902  2.1712
  714MOL0     H94197   9.488   4.728   0.382  1.1485  0.6137  0.6961
  714MOL0     H94198   9.443   4.892   0.342  2.9270  1.2917 -0.0407
  714MOL0     H94199   9.620   4.791   0.564 -0.7121 -0.4486  0.2238
  714MOL0     H94200   9.590   4.962   0.538  2.9375  2.9963 -3.5838
  714MOL0     H94201   9.888   4.787   0.464  0.2118  4.6559  4.4720
  714MOL0     H94202  10.061   4.770   0.303 -1.8134  0.7931  0.6995
  714MOL0     H94203  10.093   4.944   0.271  0.3667 -0.1721  0.3170
  714MOL0     H94204  10.180   4.809   0.078  0.1688  2.3502 -0.1277
  714MOL0     H94205  10.057   4.922   0.036  2.8573  0.5596  0.5653
  714MOL0     H94206   9.890   4.742   0.023  0.1487  0.5494  0.1225
  714MOL0     H94207  10.033   4.699  -0.078 -2.7844  0.2906 -0.8919
  714MOL0     H94208   9.944   4.509   0.042 -1.8882  1.9522 -0.4330
  714MOL0     H94209   9.999   4.570   0.193  0.6402 -0.8346  0.0130
  714MOL0     H94210  10.423   4.568  -0.027 -0.6304  0.8082 -0.1754
  714MOL0     H94211  10.499   4.472  -0.234  0.7404  2.0151  2.6566
  714MOL0     H94212  10.551   4.335  -0.669 -0.5514  0.8593 -0.8422
  714MOL0     H94213  10.563   4.327  -0.911 -0.1068  0.5019 -0.2805
  714MOL0     H94214  10.177   4.350  -1.146 -0.0730  0.1108  3.3992
  714MOL0     H94215  10.220   4.185  -1.141 -0.1047  1.1209 -0.1407
  714MOL0     H94216  10.372   4.177  -1.312  1.8952  0.9236 -1.7189
  714MOL0     H94217  10.372   4.346  -1.339  0.0022 -0.2399 -1.4682
  714MOL0     H94218  10.246   4.256  -1.503  0.7427  2.7496  0.7718
  714MOL0     H94219  10.125   4.341  -1.394 -2.6905 -2.3328  3.0475
  714MOL0     H94220  10.157   4.043  -1.395  0.0143  0.3480 -2.5136
  714MOL0     H94221  10.056   4.133  -1.288 -1.4548 -0.5260 -0.9524
  714MOL0     H94222  10.012   4.156  -1.588 -1.0955  1.7243  0.2022
  714MOL0     H94223   9.923   4.232  -1.464 -2.7947 -1.9630 -1.5154
  714MOL0     H94224   9.856   3.986  -1.378  1.3281 -0.5979  0.6738
  714MOL0     H94225   9.945   3.933  -1.516  1.4173  0.0588  2.6625
  714MOL0     H94226   9.715   4.140  -1.515 -0.5993 -0.9382  2.2111
  714MOL0     H94227   9.785   4.043  -1.658  3.3493  0.3447  1.2349
  714MOL0     H94228   9.634   3.907  -1.435  2.6643  1.9308  2.4834
  714MOL0     H94229   9.671   3.855  -1.602 -0.8978 -1.3292  0.4716
  714MOL0     H94230  10.147   4.350  -0.945 -0.0909 -0.6519  0.1289
  714MOL0     H94231  10.125   4.351  -0.718  0.9595 -1.0710  0.0878
  714MOL0     H94232  10.127   4.330  -0.347 -1.5427  0.6161  0.5107
  714MOL0     H94233  10.035   4.404  -0.125 -0.7525 -0.4732 -2.4891
  714MOL0     H94234   8.634   4.745   0.046 -1.3190 -0.3593 -0.6479
  714MOL0     H94235   8.397   4.766   0.007 -3.9121  1.4349  2.2880
  714MOL0     H94236   7.975   4.840   0.245 -2.6333  2.5289  0.4028
  714MOL0     H94237   7.733   4.825   0.324 -0.0364  0.3304 -0.0421
  714MOL0     H94238   7.520   4.455   0.167  0.7933  0.0197 -0.9380
  714MOL0     H94239   7.392   4.549   0.242 -1.0847 -3.5991  2.2583
  714MOL0     H94240   7.598   4.406   0.407 -0.8953 -0.5829  1.6185
  714MOL0     H94241   7.486   4.521   0.457  1.0641  0.5439  0.0156
  714MOL0     H94242   7.294   4.401   0.383 -1.3747 -0.4028  0.2130
  714MOL0     H94243   7.373   4.320   0.498  0.4208  2.1409  0.4279
  714MOL0     H94244   7.305   4.164   0.296 -1.5237  0.8509  2.5366
  714MOL0     H94245   7.430   4.244   0.204 -3.9480  0.1188 -1.0101
  714MOL0     H94246   7.663   4.028   0.484 -1.4560 -1.3764  1.4375
  714MOL0     H94247   7.735   4.424   0.205  2.0883 -1.3345 -1.5878
  714MOL0     H94248   7.969   4.434   0.122 -2.5012 -2.0160 -1.4102
  715MOL0     O94249   4.253   3.045   3.974 -0.1677  0.4918  0.9685
  715MOL0     C94250   4.171   3.127   4.015 -0.3963  0.9649  0.7113
  715MOL0     O94251   4.052   3.088   4.076 -0.5482 -0.3626  0.5705
  715MOL0     C94252   4.033   2.958   4.119 -0.4730 -0.0146 -0.2393
  715MOL0     C94253   3.933   2.875   4.059 -0.1052  0.2883 -0.3305
  715MOL0     C94254   3.903   2.747   4.102 -0.8925  0.5434  0.0470
  715MOL0     C94255   3.969   2.684   4.209  0.4270 -0.0470  0.6207
  715MOL0     O94256   3.951   2.560   4.238 -0.0900  0.3083  0.1588
  715MOL0     C94257   3.867   2.474   4.157  0.0590  0.3081  0.1250
  715MOL0     C94258   3.944   2.423   4.042  0.7938 -0.7436 -0.2263
  715MOL0     C94259   3.862   2.330   3.943 -0.0792  0.6072  0.2057
  715MOL0     C94260   3.751   2.411   3.878 -0.2723  0.2354 -0.3916
  715MOL0     C94261   3.682   2.328   3.767 -0.2216  0.2860 -0.8702
  715MOL0     C94262   3.581   2.224   3.822  0.4131 -0.0489  0.4001
  715MOL0     C94263   3.484   2.190   3.706 -0.4005 -0.2672 -0.3080
  715MOL0     C94264   3.376   2.100   3.753  0.5440  0.8203  0.1471
  715MOL0     N94265   3.438   1.971   3.799  0.1027  0.3054  0.6624
  715MOL0     C94266   3.458   1.858   3.711 -0.3364  0.8730 -0.7457
  715MOL0     C94267   3.490   1.762   3.814  0.5991  0.3767 -0.3421
  715MOL0     C94268   3.523   1.614   3.797  0.9896  0.4092  0.1742
  715MOL0     C94269   3.398   1.531   3.811  0.4329 -0.1808 -0.1398
  715MOL0     C94270   3.415   1.375   3.804 -0.3760 -0.1123 -0.3112
  715MOL0     C94271   3.344   1.303   3.927  0.0469 -0.0439  0.6283
  715MOL0     O94272   3.200   1.325   3.910 -0.1912  0.5707 -0.3120
  715MOL0     C94273   3.117   1.233   3.857 -0.5101  0.0578  0.3483
  715MOL0     C94274   3.152   1.124   3.777 -0.3125  0.1695 -0.1870
  715MOL0     C94275   3.050   1.039   3.725  0.0584  0.7815  0.4116
  715MOL0     C94276   2.906   1.063   3.749 -0.2065 -0.3288 -0.2246
  715MOL0     C94277   2.796   0.971   3.707 -0.3517 -0.1018 -0.1023
  715MOL0     O94278   2.665   1.013   3.707 -0.0284  0.1423  0.2591
  715MOL0     C94279   2.573   0.910   3.702  0.2863 -0.6294  0.9479
  715MOL0     C94280   2.528   0.875   3.569 -0.6277  0.4423  0.0043
  715MOL0     C94281   2.428   0.782   3.552  0.1643  0.5688  0.1303
  715MOL0     C94282   2.361   0.725   3.658 -0.8238 -0.2864  0.7202
  715MOL0     O94283   2.271   0.633   3.630 -0.3192  0.3916  0.9421
  715MOL0     C94284   2.231   0.540   3.733  0.0971  0.3194  0.6144
  715MOL0     C94285   2.138   0.429   3.675 -0.0274  1.2106 -0.1174
  715MOL0     C94286   2.114   0.303   3.776  0.3391 -0.3776 -0.2075
  715MOL0     C94287   2.039   0.207   3.686 -0.6862  0.8929 -0.7276
  715MOL0     C94288   1.993   0.089   3.774  0.4393  0.1140 -0.1444
  715MOL0     C94289   1.919  -0.006   3.682 -0.3485  0.8922  0.4162
  715MOL0     C94290   1.872  -0.141   3.757  0.1721 -0.0321 -0.2088
  715MOL0     C94291   1.809  -0.227   3.649  0.2105 -0.1047 -0.1000
  715MOL0    Cl94292   1.726  -0.370   3.713  0.4295  0.2013  0.4871
  715MOL0     C94293   2.409   0.758   3.790  0.6780  0.5802 -0.5906
  715MOL0     C94294   2.510   0.854   3.810  0.1328 -0.8345  0.3691
  715MOL0     O94295   2.836   0.860   3.666  0.1198 -0.0943 -0.2119
  715MOL0     C94296   2.882   1.175   3.829  0.1700 -0.4495  0.3178
  715MOL0     C94297   2.989   1.257   3.884 -0.6193 -1.5711 -0.3906
  715MOL0     N94298   3.489   1.820   3.941 -0.1700  0.0199 -0.2891
  715MOL0     N94299   3.465   1.943   3.925 -0.6457  0.2659  0.4206
  715MOL0     C94300   4.055   2.775   4.281  0.3637  0.0705  0.4957
  715MOL0     C94301   4.097   2.904   4.239 -0.3739 -0.2750 -1.4237
  715MOL0     C94302   4.213   3.266   4.015  0.1430 -0.6149 -0.5158
  715MOL0     C94303   4.132   3.364   4.067 -0.3965 -0.6367 -0.7786
  715MOL0     C94304   4.161   3.500   4.037  0.3016  0.2873 -0.5926
  715MOL0     C94305   4.281   3.536   3.985 -0.0033  0.6557 -0.3275
  715MOL0     O94306   4.320   3.659   3.959  0.4307  0.2443 -0.0381
  715MOL0     C94307   4.239   3.771   4.007  0.5134 -0.5738  0.6057
  715MOL0     C94308   4.305   3.908   3.976  0.0160  0.0905  0.3655
  715MOL0     C94309   4.330   3.944   3.827 -0.4918 -0.6204 -1.0794
  715MOL0     C94310   4.357   4.100   3.810 -0.9180  0.9111 -0.1962
  715MOL0     C94311   4.233   4.170   3.803  0.2641 -0.3650 -0.4903
  715MOL0     C94312   4.124   4.219   3.806  0.3493  0.9782 -0.0085
  715MOL0     C94313   4.368   3.438   3.940  0.1208 -0.8040 -0.0103
  715MOL0     C94314   4.338   3.300   3.950  0.8437 -0.0498 -0.4564
  715MOL0     H94315   3.879   2.916   3.974 -3.0026  1.0458  1.7070
  715MOL0     H94316   3.824   2.700   4.043 -1.2433 -3.7206  3.4185
  715MOL0     H94317   3.776   2.519   4.116  0.5146  2.3085  1.1830
  715MOL0     H94318   3.841   2.387   4.218  3.7332  0.0560  1.5393
  715MOL0     H94319   4.040   2.386   4.081  0.3390  1.9167  4.0717
  715MOL0     H94320   3.969   2.515   3.989 -0.5955  0.6472  1.3793
  715MOL0     H94321   3.830   2.241   3.997 -0.1942  0.4712 -0.0843
  715MOL0     H94322   3.943   2.295   3.878 -1.0956 -3.3984  0.8897
  715MOL0     H94323   3.670   2.431   3.949  2.8307 -2.5781  4.5295
  715MOL0     H94324   3.785   2.500   3.825  0.5357  0.2716  0.1789
  715MOL0     H94325   3.763   2.295   3.702  3.9228  2.7834  2.4853
  715MOL0     H94326   3.629   2.408   3.714 -1.0715 -0.8646 -1.8036
  715MOL0     H94327   3.522   2.269   3.902 -0.7597  1.5077 -1.2792
  715MOL0     H94328   3.643   2.143   3.862  1.2978 -0.0101 -0.8457
  715MOL0     H94329   3.442   2.281   3.662  2.4324  2.7503  2.6378
  715MOL0     H94330   3.532   2.144   3.619  0.1770  1.7612 -1.1214
  715MOL0     H94331   3.329   2.078   3.657  4.0333  0.4187 -1.6373
  715MOL0     H94332   3.309   2.149   3.824 -0.7480  1.1130 -1.2347
  715MOL0     H94333   3.451   1.852   3.603 -1.0209  0.2745 -0.6719
  715MOL0     H94334   3.596   1.578   3.870  1.7476  0.2137 -0.6587
  715MOL0     H94335   3.555   1.586   3.696 -1.0365  0.4176 -0.5077
  715MOL0     H94336   3.327   1.569   3.736  1.4339 -0.0900 -1.0638
  715MOL0     H94337   3.356   1.550   3.910 -2.0575 -0.7962 -0.9889
  715MOL0     H94338   3.356   1.357   3.713 -1.0587  0.8414 -0.0703
  715MOL0     H94339   3.522   1.352   3.795 -0.2777  0.2122 -0.0174
  715MOL0     H94340   3.375   1.349   4.021 -1.2377 -0.2040  1.1431
  715MOL0     H94341   3.370   1.197   3.931  1.6807  0.2690 -0.5267
  715MOL0     H94342   3.256   1.099   3.761  0.5564  1.7107  2.4482
  715MOL0     H94343   3.078   0.955   3.662  2.0991 -0.2446  2.5439
  715MOL0     H94344   2.551   0.925   3.476 -2.3545  0.5120 -0.4130
  715MOL0     H94345   2.395   0.758   3.451  3.5077  2.1329 -1.5061
  715MOL0     H94346   2.169   0.598   3.802 -0.6420  0.5632 -0.2319
  715MOL0     H94347   2.316   0.496   3.785 -0.8441  0.4619  2.3518
  715MOL0     H94348   2.178   0.389   3.582 -0.0023 -0.8664  0.7276
  715MOL0     H94349   2.042   0.476   3.652 -0.2272  0.9225  0.1142
  715MOL0     H94350   2.051   0.336   3.860  1.3424 -1.7871  1.1640
  715MOL0     H94351   2.199   0.249   3.819  1.2646 -0.4782 -2.0624
  715MOL0     H94352   1.962   0.259   3.629  0.0409  0.6477 -1.9797
  715MOL0     H94353   2.100   0.171   3.603  1.8550  1.3792  0.8288
  715MOL0     H94354   1.928   0.116   3.858 -1.7555 -1.4838 -1.2151
  715MOL0     H94355   2.085   0.037   3.804  1.2065 -0.6719 -3.4791
  715MOL0     H94356   1.984  -0.028   3.597  1.3735  2.3637  1.2765
  715MOL0     H94357   1.829   0.046   3.646  0.6951  2.9474  0.6082
  715MOL0     H94358   1.951  -0.196   3.810  1.2825  0.6292 -1.1277
  715MOL0     H94359   1.786  -0.123   3.821 -0.2506  2.1281 -1.2817
  715MOL0     H94360   1.886  -0.270   3.584  0.7720  0.8970 -0.1100
  715MOL0     H94361   1.738  -0.180   3.581  3.2401  1.4813 -2.3997
  715MOL0     H94362   2.366   0.716   3.880  1.1693  2.5974  0.6280
  715MOL0     H94363   2.546   0.885   3.908 -1.7143 -1.5518  1.3337
  715MOL0     H94364   2.775   1.195   3.839  0.2835 -0.2311  1.1516
  715MOL0     H94365   2.966   1.342   3.947  1.5760  1.5125 -3.3889
  715MOL0     H94366   4.099   2.732   4.370 -1.2257 -1.9986  0.3631
  715MOL0     H94367   4.177   2.953   4.292  0.7303 -1.6399 -1.7883
  715MOL0     H94368   4.035   3.345   4.110  0.4130 -0.5798  1.1813
  715MOL0     H94369   4.091   3.570   4.081 -1.8445 -1.0234 -1.7831
  715MOL0     H94370   4.228   3.770   4.116 -0.9151 -3.8904  0.5287
  715MOL0     H94371   4.138   3.773   3.964  2.0927  1.0943 -3.5704
  715MOL0     H94372   4.243   3.987   4.019  0.3221  1.8071 -2.1050
  715MOL0     H94373   4.406   3.907   4.019  1.9597  2.4275 -3.5001
  715MOL0     H94374   4.236   3.926   3.773  1.4500  2.7649 -6.4124
  715MOL0     H94375   4.411   3.893   3.774  2.9361  1.2152  2.0175
  715MOL0     H94376   4.411   4.138   3.898  2.2483 -0.9695 -1.1398
  715MOL0     H94377   4.425   4.113   3.726  0.2707  1.1589  0.7645
  715MOL0     H94378   4.024   4.258   3.797  0.8257  3.2666  2.9145
  715MOL0     H94379   4.459   3.472   3.891  1.7809  0.5700  3.6730
  715MOL0     H94380   4.412   3.231   3.911  0.7367  1.7117 -4.1685
  716MOL0     O94381   8.719   8.052   8.481  0.6562 -0.9945 -1.0540
  716MOL0     C94382   8.657   8.134   8.406 -0.9466 -0.3241 -0.2748
  716MOL0     O94383   8.535   8.115   8.338 -0.5669 -0.4222  0.8904
  716MOL0     C94384   8.466   8.002   8.347  0.3939  0.0463  1.0850
  716MOL0     C94385   8.329   8.012   8.339 -0.3595  0.5000  0.0059
  716MOL0     C94386   8.240   7.908   8.352 -0.2674 -0.0162 -0.4353
  716MOL0     C94387   8.288   7.782   8.380  0.3139 -0.3653  0.6624
  716MOL0     O94388   8.205   7.675   8.400 -1.3218 -1.0910  0.3348
  716MOL0     C94389   8.066   7.675   8.340 -0.7035 -0.2376  0.0929
  716MOL0     C94390   7.971   7.728   8.438  0.6631 -0.6396  0.4158
  716MOL0     C94391   7.829   7.713   8.384 -0.3516 -0.6458  0.1918
  716MOL0     C94392   7.732   7.779   8.479  1.2953 -0.4304  0.3536
  716MOL0     C94393   7.600   7.789   8.424 -0.2532 -0.6702 -0.2334
  716MOL0     C94394   7.486   7.818   8.530  0.3968  0.2569 -0.8203
  716MOL0     C94395   7.351   7.820   8.454  0.0310 -0.6394  0.2396
  716MOL0     C94396   7.304   7.697   8.382 -0.1885 -0.6679  0.9491
  716MOL0     N94397   7.154   7.709   8.334  0.1606  0.4315 -0.2968
  716MOL0     C94398   7.097   7.824   8.301 -0.0073 -0.3594 -0.7003
  716MOL0     C94399   6.970   7.790   8.264 -0.7355  0.5814 -0.3623
  716MOL0     C94400   6.853   7.870   8.241 -0.0120  0.1353 -1.0312
  716MOL0     C94401   6.804   7.903   8.379  0.0523  0.1061 -0.4049
  716MOL0     C94402   6.672   7.975   8.369 -0.1421  0.5346  0.7364
  716MOL0     C94403   6.673   8.106   8.440  0.5614 -0.8504 -0.6966
  716MOL0     O94404   6.747   8.198   8.364  0.0319 -0.5131  0.0841
  716MOL0     C94405   6.884   8.218   8.411  0.3419 -0.2079  0.4105
  716MOL0     C94406   6.910   8.251   8.545  0.0809  0.9305 -0.1181
  716MOL0     C94407   7.040   8.260   8.595 -0.3467  0.7022  0.0685
  716MOL0     C94408   7.154   8.233   8.511 -0.0948  0.0446 -0.0991
  716MOL0     C94409   7.295   8.261   8.565 -0.2892 -0.4011  0.2198
  716MOL0     O94410   7.305   8.332   8.685 -0.7958 -0.0300 -0.5247
  716MOL0     C94411   7.412   8.391   8.740  0.1758 -0.7956  0.4174
  716MOL0     C94412   7.536   8.411   8.684  0.5738 -0.4895  0.4336
  716MOL0     C94413   7.638   8.470   8.741 -1.2644  0.2692 -0.0083
  716MOL0     C94414   7.629   8.516   8.877  0.5485 -0.1517 -0.3496
  716MOL0     O94415   7.735   8.571   8.941 -0.6826  0.6533  0.5729
  716MOL0     C94416   7.874   8.529   8.923  0.3276 -0.9008 -0.3981
  716MOL0     C94417   7.945   8.560   9.052  0.2306 -0.8124  0.3860
  716MOL0     C94418   8.094   8.551   9.022 -0.2959 -0.2555  0.2326
  716MOL0     C94419   8.173   8.568   9.143 -0.1513  0.2158  0.1227
  716MOL0     C94420   8.331   8.577   9.132 -0.6646  0.7472 -0.0951
  716MOL0     C94421   8.368   8.696   9.052 -0.0560  0.0294 -0.0192
  716MOL0     C94422   8.521   8.689   9.065  0.2438 -0.5287 -0.5786
  716MOL0     C94423   8.588   8.780   8.967 -1.3105 -0.0476 -0.8643
  716MOL0    Cl94424   8.768   8.776   9.001  0.3104  0.2626  0.2850
  716MOL0     C94425   7.509   8.491   8.945  0.0854  1.1139 -0.2179
  716MOL0     C94426   7.402   8.429   8.875 -0.3898 -0.8094  0.1594
  716MOL0     O94427   7.391   8.227   8.497 -0.6979 -0.0761  0.7404
  716MOL0     C94428   7.128   8.190   8.376 -0.1689 -0.1385  0.6737
  716MOL0     C94429   6.996   8.193   8.324  0.5175  0.4305 -1.1962
  716MOL0     N94430   6.961   7.650   8.266  0.7223  0.0539  0.3877
  716MOL0     N94431   7.069   7.603   8.306 -0.5519  0.0083 -0.5432
  716MOL0     C94432   8.430   7.759   8.371 -0.2273 -0.4565  0.3143
  716MOL0     C94433   8.512   7.869   8.362 -0.2804  0.6793  0.5818
  716MOL0     C94434   8.710   8.278   8.407  0.3739 -0.2798  0.4526
  716MOL0     C94435   8.662   8.377   8.316 -0.1262  0.1761  0.3868
  716MOL0     C94436   8.718   8.507   8.323 -0.2996  0.4645 -0.3349
  716MOL0     C94437   8.815   8.542   8.411 -1.3938 -0.7392  0.7451
  716MOL0     O94438   8.877   8.667   8.416 -0.2219  0.3366  0.1339
  716MOL0     C94439   8.841   8.771   8.334 -0.7272  0.3823  0.7054
  716MOL0     C94440   8.940   8.894   8.338 -0.9648  1.0526  0.4401
  716MOL0     C94441   8.872   9.021   8.281 -0.1557  0.7100  0.1658
  716MOL0     C94442   8.962   9.142   8.272 -0.9963  0.1978  0.8695
  716MOL0     C94443   9.046   9.161   8.390  0.4738  0.0468  0.2600
  716MOL0     C94444   9.111   9.185   8.486 -0.1327  0.1290 -1.0803
  716MOL0     C94445   8.867   8.446   8.496 -0.7643 -0.2531  0.3544
  716MOL0     C94446   8.821   8.314   8.493  0.1129 -0.0132 -0.0701
  716MOL0     H94447   8.286   8.111   8.329 -0.7884  0.3382  0.2456
  716MOL0     H94448   8.132   7.918   8.361 -0.4756 -1.4975 -0.9425
  716MOL0     H94449   8.053   7.569   8.316  1.8506 -0.7661  0.6941
  716MOL0     H94450   8.064   7.735   8.249  0.2113  1.6823  1.2586
  716MOL0     H94451   7.992   7.833   8.458 -0.5662 -0.3548  0.2956
  716MOL0     H94452   8.000   7.674   8.529 -0.4660 -2.5277 -0.2682
  716MOL0     H94453   7.800   7.608   8.370 -0.9393 -0.4726  0.0641
  716MOL0     H94454   7.817   7.757   8.284 -0.3820 -3.1325 -0.9815
  716MOL0     H94455   7.725   7.717   8.569 -0.1042 -1.3866 -0.3703
  716MOL0     H94456   7.769   7.877   8.507 -0.3246 -0.4474  2.8675
  716MOL0     H94457   7.586   7.702   8.360 -0.2355  1.2638 -3.0305
  716MOL0     H94458   7.605   7.873   8.354 -1.9688 -2.0619 -2.1537
  716MOL0     H94459   7.506   7.913   8.580  1.0346  1.2422 -2.8384
  716MOL0     H94460   7.481   7.740   8.606  0.5272 -1.3930 -2.4154
  716MOL0     H94461   7.279   7.873   8.516  1.9065  0.0894  1.9162
  716MOL0     H94462   7.369   7.887   8.370  0.8559 -2.3650 -1.0339
  716MOL0     H94463   7.307   7.610   8.448  0.2097  0.4224  2.3985
  716MOL0     H94464   7.362   7.673   8.292  0.4376 -0.4375  1.2876
  716MOL0     H94465   7.126   7.928   8.311  0.4807 -0.5945  0.5015
  716MOL0     H94466   6.787   7.811   8.176  0.6590  1.3709 -2.9290
  716MOL0     H94467   6.884   7.962   8.189  4.3527  0.5181  1.8219
  716MOL0     H94468   6.877   7.969   8.428  0.6091  0.2972 -1.4600
  716MOL0     H94469   6.796   7.813   8.441  2.9033  0.3008  0.4258
  716MOL0     H94470   6.631   7.982   8.268 -2.6139 -0.1283  1.6204
  716MOL0     H94471   6.602   7.906   8.417  0.4753  1.4796  3.1343
  716MOL0     H94472   6.717   8.096   8.539  0.6518  1.3017 -0.4709
  716MOL0     H94473   6.574   8.151   8.454  0.4207 -1.2782 -0.2760
  716MOL0     H94474   6.834   8.280   8.617  0.2750 -1.0777  0.9567
  716MOL0     H94475   7.050   8.305   8.693  0.1557  2.8587 -0.9345
  716MOL0     H94476   7.561   8.363   8.590 -1.0018 -1.8146  0.6537
  716MOL0     H94477   7.732   8.489   8.690 -1.2663  1.0883  0.2783
  716MOL0     H94478   7.899   8.590   8.836 -4.5397  0.7076 -0.9433
  716MOL0     H94479   7.881   8.425   8.888 -2.4643 -1.8190  1.4521
  716MOL0     H94480   7.914   8.494   9.133  2.5904 -1.8225  0.5515
  716MOL0     H94481   7.920   8.662   9.084 -0.3965 -0.7908 -0.1567
  716MOL0     H94482   8.123   8.617   8.940  0.0107  1.3866  1.5987
  716MOL0     H94483   8.108   8.450   8.985 -3.0839 -0.8007  0.4345
  716MOL0     H94484   8.131   8.653   9.198 -3.0946 -1.1751  0.1729
  716MOL0     H94485   8.152   8.477   9.200  1.2900 -1.4287 -1.8473
  716MOL0     H94486   8.372   8.492   9.077 -0.4703 -0.7679  2.2346
  716MOL0     H94487   8.369   8.583   9.234 -0.4843  2.0148 -0.2151
  716MOL0     H94488   8.324   8.787   9.094  0.4767  1.1661 -1.8454
  716MOL0     H94489   8.340   8.697   8.946  1.8581 -1.9454 -0.6266
  716MOL0     H94490   8.547   8.726   9.164 -0.0917 -4.1142  1.0067
  716MOL0     H94491   8.569   8.590   9.062  2.3270  0.4213 -0.5004
  716MOL0     H94492   8.548   8.879   8.988 -2.3410 -0.8845  1.4394
  716MOL0     H94493   8.579   8.765   8.859  2.2512  2.3730 -1.6758
  716MOL0     H94494   7.512   8.515   9.051  0.6371  0.8645 -0.1721
  716MOL0     H94495   7.303   8.416   8.918 -1.2916 -0.0101 -1.5523
  716MOL0     H94496   7.196   8.172   8.294 -2.6273 -1.5680 -1.1688
  716MOL0     H94497   6.982   8.159   8.222  0.5590 -3.9690  0.0794
  716MOL0     H94498   8.463   7.657   8.361 -1.0404 -0.6217 -0.9403
  716MOL0     H94499   8.619   7.849   8.361 -0.1570  1.3023  0.8108
  716MOL0     H94500   8.577   8.353   8.252  1.7102 -0.8750 -1.8189
  716MOL0     H94501   8.685   8.577   8.246 -0.1193 -1.3265 -2.1364
  716MOL0     H94502   8.736   8.801   8.347 -0.8870 -0.4313  1.3269
  716MOL0     H94503   8.852   8.741   8.229 -2.6829  2.7410 -0.2822
  716MOL0     H94504   8.967   8.915   8.442 -1.4537  3.2478  0.1646
  716MOL0     H94505   9.027   8.863   8.278 -0.0380 -0.7066  2.5499
  716MOL0     H94506   8.781   9.056   8.331 -2.7262 -1.6234 -2.5552
  716MOL0     H94507   8.819   8.987   8.192 -0.6800 -0.1145  0.7854
  716MOL0     H94508   9.027   9.114   8.188 -2.1168 -1.4562  0.5096
  716MOL0     H94509   8.901   9.228   8.244 -2.4767 -1.2959 -0.7337
  716MOL0     H94510   9.163   9.213   8.575 -1.0519  0.4479 -0.6298
  716MOL0     H94511   8.942   8.470   8.570  0.3920  0.5686 -1.0309
  716MOL0     H94512   8.842   8.247   8.576 -0.8211  0.7139  0.7861
  717MOL0     O94513   5.910   6.742   1.914 -0.1635  0.2182 -0.7689
  717MOL0     C94514   6.025   6.717   1.886 -0.0347 -0.5889  0.7389
  717MOL0     O94515   6.068   6.659   1.768  0.3600  1.2335  0.5298
  717MOL0     C94516   5.972   6.613   1.672  0.1391  0.4695 -0.3056
  717MOL0     C94517   5.875   6.523   1.705 -0.2569  0.8635  0.6624
  717MOL0     C94518   5.785   6.475   1.602 -0.8920  0.2889  0.1462
  717MOL0     C94519   5.806   6.512   1.469  0.9397 -0.2282 -0.2902
  717MOL0     O94520   5.729   6.475   1.359  0.1050  0.0179  0.0886
  717MOL0     C94521   5.639   6.357   1.369  0.0141  0.2385 -0.1925
  717MOL0     C94522   5.713   6.224   1.351 -0.3410 -0.6167 -0.2160
  717MOL0     C94523   5.831   6.209   1.256  0.1131  0.3894 -0.4849
  717MOL0     C94524   5.890   6.075   1.245  0.0646  0.3503 -0.3162
  717MOL0     C94525   5.998   6.066   1.137  0.0437 -0.0090 -0.0214
  717MOL0     C94526   6.024   5.918   1.082  0.6936 -0.0778  0.0647
  717MOL0     C94527   6.163   5.889   1.023  0.2798 -0.5308 -0.2983
  717MOL0     C94528   6.295   5.890   1.112 -0.8814  0.1231 -0.0183
  717MOL0     N94529   6.407   5.936   1.028  0.1407 -0.0028  0.5523
  717MOL0     C94530   6.508   5.864   0.969 -0.2647  0.0596 -0.4942
  717MOL0     C94531   6.594   5.956   0.914  0.0661  0.0763 -0.5220
  717MOL0     C94532   6.729   5.933   0.854  0.6689 -0.1375 -0.1822
  717MOL0     C94533   6.834   5.869   0.943  0.4280 -0.0060  0.0359
  717MOL0     C94534   6.977   5.865   0.878  0.2488  0.4438 -0.1233
  717MOL0     C94535   7.008   5.726   0.833  0.0079  0.8324  0.4062
  717MOL0     O94536   7.122   5.737   0.752 -0.1143  0.6081  0.2513
  717MOL0     C94537   7.227   5.805   0.805  0.9845  0.2452  0.3791
  717MOL0     C94538   7.287   5.912   0.729 -0.8368  0.2176 -0.8121
  717MOL0     C94539   7.418   5.946   0.764 -0.4365  0.3766 -0.0372
  717MOL0     C94540   7.491   5.869   0.850  0.1553  0.5869  0.3599
  717MOL0     C94541   7.638   5.890   0.878  0.5219  0.3931 -0.2860
  717MOL0     O94542   7.715   5.766   0.893 -0.0657 -0.1110 -0.6335
  717MOL0     C94543   7.849   5.767   0.874 -0.6448  0.1557  0.2721
  717MOL0     C94544   7.893   5.646   0.807 -0.4674  0.6791 -0.2338
  717MOL0     C94545   8.026   5.632   0.783 -0.7466  0.4840  1.2416
  717MOL0     C94546   8.122   5.730   0.824 -0.5598 -0.0471  0.0781
  717MOL0     O94547   8.262   5.739   0.803  0.3477  0.8780 -0.4588
  717MOL0     C94548   8.324   5.627   0.740 -0.6012 -0.0469 -0.1234
  717MOL0     C94549   8.471   5.659   0.706  0.2781  0.5940  0.6811
  717MOL0     C94550   8.562   5.545   0.684 -0.4152 -0.4090 -0.2992
  717MOL0     C94551   8.572   5.450   0.813  0.6989 -0.8443  0.3219
  717MOL0     C94552   8.693   5.364   0.813  0.8349 -0.7733  0.7453
  717MOL0     C94553   8.731   5.311   0.958 -0.0837  0.0133  0.8121
  717MOL0     C94554   8.855   5.214   0.964  0.0078 -0.4270 -0.6627
  717MOL0     C94555   8.817   5.083   0.889  0.2593 -0.2974 -0.4853
  717MOL0    Cl94556   8.957   4.973   0.853 -0.4042 -0.3795 -0.5311
  717MOL0     C94557   8.075   5.853   0.874  0.0946  0.7309 -0.1601
  717MOL0     C94558   7.941   5.871   0.909 -0.2698  0.3667 -0.0297
  717MOL0     O94559   7.680   6.003   0.887 -0.3619  0.5720  0.4675
  717MOL0     C94560   7.423   5.768   0.925 -0.2711 -0.2762  1.0687
  717MOL0     C94561   7.294   5.741   0.909  1.0181 -1.2137 -0.0184
  717MOL0     N94562   6.550   6.083   0.944  1.1264 -0.2260 -0.0384
  717MOL0     N94563   6.433   6.066   1.003 -0.1071 -0.1608 -1.5684
  717MOL0     C94564   5.909   6.594   1.440 -0.2930  0.5202 -0.7642
  717MOL0     C94565   5.989   6.650   1.540 -0.4944  0.3002 -0.4381
  717MOL0     C94566   6.124   6.751   1.992  0.1012  0.8199 -1.0195
  717MOL0     C94567   6.235   6.670   2.012 -0.7677  0.4230 -0.3663
  717MOL0     C94568   6.345   6.708   2.097  0.2508 -0.5829  0.3530
  717MOL0     C94569   6.335   6.825   2.181  0.4364  0.1102  0.5591
  717MOL0     O94570   6.419   6.864   2.281  0.4204  0.0088 -0.4403
  717MOL0     C94571   6.537   6.789   2.303 -0.0603  0.4273 -0.1134
  717MOL0     C94572   6.633   6.869   2.404  0.4129  0.7368  0.2395
  717MOL0     C94573   6.559   6.871   2.540  0.4172  0.2307  0.0311
  717MOL0     C94574   6.651   6.872   2.666  0.0824 -0.3170 -0.9738
  717MOL0     C94575   6.757   6.978   2.666  0.4068 -0.0723 -0.0845
  717MOL0     C94576   6.859   7.047   2.676  0.5825 -0.3007 -0.5198
  717MOL0     C94577   6.215   6.896   2.172 -0.0115 -0.2881 -0.1836
  717MOL0     C94578   6.117   6.873   2.066 -0.3632  0.1190  0.1198
  717MOL0     H94579   5.860   6.481   1.804 -1.8313  1.8954  0.9063
  717MOL0     H94580   5.705   6.410   1.634 -1.9496 -0.2039 -3.1430
  717MOL0     H94581   5.561   6.379   1.295 -0.4860  1.8669  0.7618
  717MOL0     H94582   5.575   6.352   1.457 -3.4376  0.0130 -2.5127
  717MOL0     H94583   5.646   6.140   1.329 -1.5998  0.0322  0.9855
  717MOL0     H94584   5.750   6.198   1.451  0.9954 -2.5119 -1.1507
  717MOL0     H94585   5.906   6.287   1.272 -1.6122  1.8307  0.9026
  717MOL0     H94586   5.782   6.222   1.159  2.1860 -3.4822 -2.2854
  717MOL0     H94587   5.933   6.037   1.338 -2.0698 -2.0287 -0.2058
  717MOL0     H94588   5.813   6.002   1.218  1.7547 -1.0848 -1.5086
  717MOL0     H94589   6.093   6.109   1.169  0.4008 -0.4891 -0.4103
  717MOL0     H94590   5.968   6.118   1.046 -1.8154 -1.1660 -0.1326
  717MOL0     H94591   5.956   5.886   1.003  1.9007 -0.4894 -0.8334
  717MOL0     H94592   6.000   5.849   1.164  0.8487  0.5799  0.6757
  717MOL0     H94593   6.154   5.792   0.972 -0.9265 -0.4358 -0.3058
  717MOL0     H94594   6.172   5.964   0.944 -0.7059  0.2435  0.2914
  717MOL0     H94595   6.308   5.792   1.159  0.4323  1.4817  2.6674
  717MOL0     H94596   6.285   5.970   1.185 -2.2663 -0.3813  0.3731
  717MOL0     H94597   6.535   5.760   0.986  1.1758  0.3412 -0.9573
  717MOL0     H94598   6.772   6.025   0.812  1.1735 -0.7321 -0.9977
  717MOL0     H94599   6.709   5.876   0.763 -0.8475  1.1563 -0.6979
  717MOL0     H94600   6.805   5.770   0.978  2.0871 -0.5655 -0.0928
  717MOL0     H94601   6.843   5.935   1.029  1.7685 -0.0050 -0.0807
  717MOL0     H94602   7.006   5.948   0.813 -0.1839  0.9236  0.2910
  717MOL0     H94603   7.048   5.885   0.959 -0.5812  0.4813  0.6043
  717MOL0     H94604   6.931   5.682   0.769  1.1770 -1.2154  0.3241
  717MOL0     H94605   7.019   5.658   0.918  1.6329 -1.2968 -1.3800
  717MOL0     H94606   7.227   5.957   0.651 -0.6474 -1.1336 -1.7715
  717MOL0     H94607   7.480   6.014   0.706  1.5830 -1.2048  0.1081
  717MOL0     H94608   7.825   5.571   0.769  1.0873 -0.1332 -1.5765
  717MOL0     H94609   8.057   5.542   0.732 -0.0773  2.9599 -3.1858
  717MOL0     H94610   8.274   5.608   0.645 -2.4544 -2.2606  1.2051
  717MOL0     H94611   8.327   5.535   0.799 -0.2688  0.6932  1.0518
  717MOL0     H94612   8.507   5.715   0.793 -2.1798  1.1295  1.4325
  717MOL0     H94613   8.467   5.729   0.622  1.3840 -2.0907 -1.7559
  717MOL0     H94614   8.660   5.585   0.655  1.0188 -4.6346 -2.0189
  717MOL0     H94615   8.521   5.489   0.600 -0.8568 -1.7438  0.7857
  717MOL0     H94616   8.562   5.497   0.912  1.2895  0.7445 -0.3413
  717MOL0     H94617   8.491   5.377   0.801  1.5563 -2.1884  2.2066
  717MOL0     H94618   8.779   5.421   0.775  1.9024 -1.0239  2.6653
  717MOL0     H94619   8.665   5.281   0.747 -1.3603  0.8188 -0.4286
  717MOL0     H94620   8.645   5.257   0.999  0.8870 -1.4743  0.9372
  717MOL0     H94621   8.745   5.395   1.027  0.5304  0.0452  0.6567
  717MOL0     H94622   8.947   5.241   0.912  0.4713 -2.8426 -1.2427
  717MOL0     H94623   8.886   5.190   1.067 -2.4142 -1.1791 -0.0544
  717MOL0     H94624   8.770   5.095   0.790  3.4566  0.8742 -2.0065
  717MOL0     H94625   8.745   5.027   0.949  0.7723  0.7983  1.2020
  717MOL0     H94626   8.155   5.923   0.895  1.8478 -0.6292 -1.8047
  717MOL0     H94627   7.907   5.961   0.960  1.3000  0.2217  1.3581
  717MOL0     H94628   7.481   5.722   1.004 -0.4260 -0.9743  0.7847
  717MOL0     H94629   7.233   5.671   0.966 -0.3381  0.0090  0.0957
  717MOL0     H94630   5.929   6.616   1.336 -0.0266  3.0620 -0.2439
  717MOL0     H94631   6.065   6.721   1.510 -1.3414  2.3727  2.0335
  717MOL0     H94632   6.244   6.569   1.972 -1.4428  0.4899 -0.7068
  717MOL0     H94633   6.427   6.637   2.107  2.1848  1.2116 -1.6285
  717MOL0     H94634   6.605   6.784   2.217 -1.0893  2.0690 -1.0765
  717MOL0     H94635   6.508   6.688   2.334  1.2802  0.2408  0.6313
  717MOL0     H94636   6.728   6.814   2.409  2.6547  4.3035  1.0140
  717MOL0     H94637   6.660   6.969   2.367  2.0927  0.0772 -0.4327
  717MOL0     H94638   6.492   6.785   2.554  0.5019  0.3648  1.4360
  717MOL0     H94639   6.490   6.956   2.542 -2.0708 -1.6630 -0.2362
  717MOL0     H94640   6.591   6.877   2.757  1.3787 -3.1300  0.1605
  717MOL0     H94641   6.701   6.774   2.665 -2.5987 -1.7750 -1.4635
  717MOL0     H94642   6.943   7.113   2.680 -0.1141  0.8693 -2.9973
  717MOL0     H94643   6.209   6.983   2.236 -6.4065 -2.4574  3.0354
  717MOL0     H94644   6.035   6.939   2.038  1.3406  0.8793 -3.6952
  718MOL0     O94645   2.449   5.171   3.025  0.8928  0.4486 -0.0200
  718MOL0     C94646   2.344   5.232   3.011 -0.5500 -0.1117 -0.0612
  718MOL0     O94647   2.333   5.360   2.961 -0.2910  0.7726 -0.1148
  718MOL0     C94648   2.445   5.430   2.921  1.1860 -0.2732 -0.2044
  718MOL0     C94649   2.512   5.512   3.017 -0.1865  0.6499  0.3305
  718MOL0     C94650   2.633   5.582   2.977 -0.0536 -0.3287 -0.4076
  718MOL0     C94651   2.672   5.594   2.843 -0.9219  0.3385  0.1894
  718MOL0     O94652   2.779   5.663   2.792  0.3830 -0.1964 -0.1059
  718MOL0     C94653   2.843   5.754   2.879 -1.2706 -0.0793 -0.2664
  718MOL0     C94654   2.935   5.839   2.789 -0.0943  0.2062 -1.1779
  718MOL0     C94655   3.072   5.774   2.745 -0.4189 -0.2732 -0.3209
  718MOL0     C94656   3.144   5.883   2.663 -0.7675 -0.4706 -0.1249
  718MOL0     C94657   3.291   5.848   2.615  0.5202  0.5679 -0.8031
  718MOL0     C94658   3.357   5.966   2.532  0.6264 -0.0408  0.6412
  718MOL0     C94659   3.306   6.003   2.397 -0.9796  0.2846 -0.1514
  718MOL0     C94660   3.354   5.903   2.295  1.0518 -0.3870  0.5063
  718MOL0     N94661   3.261   5.905   2.188  0.6904 -0.1619 -0.3393
  718MOL0     C94662   3.137   5.839   2.177  0.4841  0.9072  0.3876
  718MOL0     C94663   3.097   5.889   2.053 -0.8523 -0.6560  0.0882
  718MOL0     C94664   2.972   5.837   1.988 -0.1272 -0.2296 -0.6198
  718MOL0     C94665   2.977   5.685   1.958 -0.0571 -0.1103 -0.4661
  718MOL0     C94666   2.834   5.628   1.932 -0.9732 -0.3055  0.2849
  718MOL0     C94667   2.807   5.645   1.796  1.3614 -0.7418  0.9385
  718MOL0     O94668   2.690   5.563   1.772 -0.3039 -0.4306  0.4741
  718MOL0     C94669   2.613   5.593   1.662 -0.8646 -0.3268  0.2990
  718MOL0     C94670   2.658   5.664   1.545 -0.3441 -0.4983  0.9645
  718MOL0     C94671   2.561   5.687   1.439  0.3821  0.1815  0.5480
  718MOL0     C94672   2.434   5.624   1.455 -0.3273 -0.0604  0.9604
  718MOL0     C94673   2.332   5.659   1.349 -0.0923 -0.5229  0.4551
  718MOL0     O94674   2.349   5.768   1.267  0.2511  0.5085  0.0437
  718MOL0     C94675   2.238   5.780   1.176  0.4364  0.8987 -0.6102
  718MOL0     C94676   2.105   5.778   1.218 -0.3440 -0.5454  0.7165
  718MOL0     C94677   2.005   5.798   1.137  0.4855  0.2225  0.9523
  718MOL0     C94678   2.031   5.794   0.998  0.1441  0.3241  0.5415
  718MOL0     O94679   1.927   5.821   0.913  0.3611  0.6885 -0.2792
  718MOL0     C94680   1.912   5.725   0.801 -0.8875  0.1262  0.3012
  718MOL0     C94681   1.795   5.758   0.710  0.1440 -0.7381 -0.1755
  718MOL0     C94682   1.674   5.704   0.784 -0.3884  0.4888 -0.6492
  718MOL0     C94683   1.536   5.728   0.718 -0.0309 -0.8074  0.0528
  718MOL0     C94684   1.502   5.633   0.599 -0.7875  0.0352  0.7192
  718MOL0     C94685   1.370   5.666   0.531 -0.6163 -1.0414  0.3167
  718MOL0     C94686   1.311   5.554   0.447  0.2657  0.5774  0.2526
  718MOL0     C94687   1.397   5.510   0.331  0.2528 -0.4305 -0.0625
  718MOL0    Cl94688   1.388   5.634   0.209  0.3338 -0.3829  0.5518
  718MOL0     C94689   2.161   5.792   0.947 -0.8986 -0.0130 -0.0024
  718MOL0     C94690   2.263   5.776   1.039 -0.0764  0.2456 -0.4715
  718MOL0     O94691   2.254   5.570   1.321 -0.0968 -0.6610 -0.2134
  718MOL0     C94692   2.403   5.550   1.565  0.3930  0.1764 -0.8317
  718MOL0     C94693   2.492   5.543   1.672 -0.1869 -0.2358  0.2142
  718MOL0     N94694   3.186   5.977   1.991  0.2778  0.3296 -0.6942
  718MOL0     N94695   3.282   5.987   2.078  0.9202  0.1183 -0.6245
  718MOL0     C94696   2.594   5.519   2.757 -0.4594  0.2752  1.2327
  718MOL0     C94697   2.477   5.436   2.790  0.1631 -0.1263  0.0189
  718MOL0     C94698   2.218   5.168   3.061 -0.1750 -0.2244 -0.7136
  718MOL0     C94699   2.217   5.036   3.116  0.1296  0.4303  0.2488
  718MOL0     C94700   2.096   4.976   3.155 -1.1695  0.0924  0.0953
  718MOL0     C94701   1.976   5.038   3.155  0.1269 -0.3601  0.0516
  718MOL0     O94702   1.852   4.985   3.190 -0.9447  0.0076 -0.3766
  718MOL0     C94703   1.861   4.890   3.301  0.3643 -0.2103  0.7487
  718MOL0     C94704   1.891   4.960   3.430 -0.8385  0.2503 -0.0900
  718MOL0     C94705   1.812   4.919   3.548 -0.0933  0.1772 -0.7743
  718MOL0     C94706   1.859   4.983   3.681  0.0930  0.0181 -0.0011
  718MOL0     C94707   1.753   4.977   3.790  0.3185  0.2585  0.5173
  718MOL0     C94708   1.654   4.995   3.855  0.9786 -0.0923  1.2915
  718MOL0     C94709   1.972   5.171   3.093 -0.5356  0.8042 -0.2655
  718MOL0     C94710   2.090   5.228   3.040 -0.3345 -0.0683 -0.2062
  718MOL0     H94711   2.499   5.517   3.124  1.5492  3.2921  0.5292
  718MOL0     H94712   2.684   5.638   3.054 -0.5735  4.8694 -3.4186
  718MOL0     H94713   2.905   5.706   2.956  1.1959 -0.1667 -2.1608
  718MOL0     H94714   2.772   5.826   2.919 -0.5587  1.6664 -1.9859
  718MOL0     H94715   2.948   5.931   2.846 -0.7512  0.9163 -2.1408
  718MOL0     H94716   2.887   5.855   2.692 -0.0609 -0.6034 -1.3383
  718MOL0     H94717   3.059   5.686   2.681  2.3487 -0.7853 -0.3385
  718MOL0     H94718   3.137   5.737   2.824  0.1783 -1.1950 -1.2049
  718MOL0     H94719   3.087   5.903   2.572 -1.8876 -1.8068  0.2432
  718MOL0     H94720   3.141   5.970   2.730 -0.0705 -3.0774  3.6107
  718MOL0     H94721   3.290   5.756   2.556  1.0587  0.5501 -0.7895
  718MOL0     H94722   3.349   5.834   2.707 -0.1678  6.8051  1.0238
  718MOL0     H94723   3.464   5.946   2.517  0.4284  0.8394 -3.0280
  718MOL0     H94724   3.324   6.050   2.592 -1.8532 -1.4484  1.3746
  718MOL0     H94725   3.197   6.013   2.398 -0.8943  1.4199 -0.3218
  718MOL0     H94726   3.352   6.101   2.379  4.9924 -1.9833  0.5887
  718MOL0     H94727   3.369   5.811   2.352  1.5821 -2.2566 -2.4409
  718MOL0     H94728   3.451   5.935   2.255  1.5308 -2.1917  0.1371
  718MOL0     H94729   3.088   5.768   2.243  3.2321 -0.3405  1.2398
  718MOL0     H94730   2.954   5.891   1.894  0.9061  0.1672 -0.6035
  718MOL0     H94731   2.888   5.866   2.051  1.1515  1.5802  0.3008
  718MOL0     H94732   3.021   5.625   2.038 -2.1749 -0.1929  0.7156
  718MOL0     H94733   3.047   5.685   1.874 -1.2414  0.8306 -1.4811
  718MOL0     H94734   2.842   5.519   1.943  3.6440 -0.2432 -0.4678
  718MOL0     H94735   2.757   5.660   2.003  0.0970  2.9616  0.1164
  718MOL0     H94736   2.881   5.609   1.724 -1.5767 -1.9888 -1.7239
  718MOL0     H94737   2.797   5.753   1.780  1.9336 -0.4765  2.2615
  718MOL0     H94738   2.761   5.694   1.526 -0.7611  0.0367 -0.6712
  718MOL0     H94739   2.581   5.725   1.340 -2.3711  1.0774  0.2581
  718MOL0     H94740   2.067   5.776   1.320  1.4056 -1.5722  1.3971
  718MOL0     H94741   1.908   5.792   1.185 -0.8702 -2.0731 -1.7238
  718MOL0     H94742   1.896   5.625   0.841 -2.7098  0.5653  0.7452
  718MOL0     H94743   2.006   5.727   0.745 -0.0850 -0.6171  1.5617
  718MOL0     H94744   1.833   5.729   0.612  1.5319  0.9474 -0.1843
  718MOL0     H94745   1.789   5.867   0.711 -4.0435 -0.7803  2.2053
  718MOL0     H94746   1.677   5.740   0.887  0.9033 -0.3811 -0.3545
  718MOL0     H94747   1.686   5.596   0.800 -1.4410  0.5181  0.4809
  718MOL0     H94748   1.458   5.719   0.794 -1.3213 -1.5940 -1.3072
  718MOL0     H94749   1.543   5.834   0.691 -3.3047  1.0688  5.0737
  718MOL0     H94750   1.505   5.536   0.648  0.2818 -0.0054  0.5986
  718MOL0     H94751   1.582   5.641   0.524  1.0008 -4.5494  1.7876
  718MOL0     H94752   1.380   5.752   0.465  1.4710  0.1723  2.0949
  718MOL0     H94753   1.300   5.695   0.610 -1.3419 -3.6507  0.7330
  718MOL0     H94754   1.301   5.470   0.516  2.3661  2.9557  3.7663
  718MOL0     H94755   1.205   5.572   0.429 -0.1828 -0.2245  1.9517
  718MOL0     H94756   1.366   5.409   0.302  0.7035 -0.8930  1.0039
  718MOL0     H94757   1.502   5.510   0.360  0.3962  2.3318 -0.3705
  718MOL0     H94758   2.193   5.809   0.845 -0.3608  0.7583  0.2884
  718MOL0     H94759   2.362   5.762   0.997  1.1621 -0.8627  2.5604
  718MOL0     H94760   2.304   5.508   1.580  0.5522  0.3291  0.9093
  718MOL0     H94761   2.454   5.516   1.770 -1.4631 -0.4918 -0.3346
  718MOL0     H94762   2.625   5.520   2.653 -0.8153  0.8117  1.1328
  718MOL0     H94763   2.421   5.383   2.714  1.3720  1.3635 -2.0067
  718MOL0     H94764   2.304   4.972   3.125  0.0871  0.0884 -1.4151
  718MOL0     H94765   2.097   4.869   3.170  0.2567  0.3599  2.3899
  718MOL0     H94766   1.941   4.817   3.281  1.0029  0.2621  1.5414
  718MOL0     H94767   1.765   4.836   3.308  1.4498 -2.6974 -1.4253
  718MOL0     H94768   1.999   4.946   3.444 -1.2481 -1.6343  1.7092
  718MOL0     H94769   1.859   5.064   3.421  1.9878  1.1163 -1.0708
  718MOL0     H94770   1.811   4.810   3.551 -1.7502  0.1711  1.0384
  718MOL0     H94771   1.707   4.949   3.544 -0.1493  0.0728 -0.2264
  718MOL0     H94772   1.960   4.946   3.700  0.5453 -0.2419 -2.5309
  718MOL0     H94773   1.878   5.090   3.675 -1.9777  0.4762  0.7728
  718MOL0     H94774   1.574   5.017   3.923 -1.5750  0.2295 -1.6056
  718MOL0     H94775   1.882   5.230   3.080 -0.2259  1.5294  0.7742
  718MOL0     H94776   2.065   5.319   2.987  1.4197  0.3980 -0.3149
  719MOL0     O94777   9.259   8.961   5.626  0.2602 -0.3117 -1.0548
  719MOL0     C94778   9.247   9.065   5.696 -0.2750 -0.6634 -0.8768
  719MOL0     O94779   9.128   9.121   5.735 -0.7487  0.3010  0.4910
  719MOL0     C94780   9.010   9.055   5.707 -0.0979  0.4488 -0.4376
  719MOL0     C94781   8.906   9.144   5.692 -0.8371  0.4288  0.0192
  719MOL0     C94782   8.770   9.101   5.677 -0.3586 -1.2822 -0.6315
  719MOL0     C94783   8.747   8.963   5.683  0.4971  0.2914 -0.3151
  719MOL0     O94784   8.626   8.905   5.667  0.4968  0.1529  0.3635
  719MOL0     C94785   8.610   8.804   5.567 -0.1428  0.4390 -0.0202
  719MOL0     C94786   8.477   8.801   5.505  0.1453 -0.7252 -0.9042
  719MOL0     C94787   8.440   8.920   5.420  0.4719 -0.6216  1.4362
  719MOL0     C94788   8.499   8.911   5.273 -0.5715 -0.4753 -0.0855
  719MOL0     C94789   8.471   9.024   5.176 -0.5650 -0.0092  1.0612
  719MOL0     C94790   8.509   9.162   5.235 -0.2428 -0.7315  0.1934
  719MOL0     C94791   8.533   9.262   5.125  0.4815 -0.3905  0.4169
  719MOL0     C94792   8.598   9.390   5.198 -0.2828 -0.4944  0.9165
  719MOL0     N94793   8.746   9.381   5.205  0.1284  1.1170  0.7927
  719MOL0     C94794   8.819   9.293   5.279  0.6031 -0.4049 -0.3525
  719MOL0     C94795   8.945   9.349   5.276 -0.2650 -0.0678  1.0473
  719MOL0     C94796   9.059   9.291   5.357 -0.4155 -0.5273  0.2706
  719MOL0     C94797   9.190   9.385   5.359  0.4082 -0.3070 -0.5689
  719MOL0     C94798   9.297   9.326   5.453  0.3127  1.2147  0.0585
  719MOL0     C94799   9.409   9.431   5.480  0.5489  0.0397 -0.0998
  719MOL0     O94800   9.461   9.482   5.359 -1.8354  0.5755 -0.8944
  719MOL0     C94801   9.591   9.529   5.375 -0.0604  0.2183 -0.1336
  719MOL0     C94802   9.644   9.592   5.495 -0.1758  0.5077  0.0587
  719MOL0     C94803   9.776   9.650   5.499 -0.1694  0.6219 -0.7083
  719MOL0     C94804   9.858   9.639   5.386  0.7915 -0.1621  0.2489
  719MOL0     C94805   9.997   9.693   5.380 -0.2954 -0.3299  1.0263
  719MOL0     O94806  10.063   9.730   5.492  0.2841 -0.3189  0.7269
  719MOL0     C94807  10.188   9.781   5.492 -0.2977  0.0008  0.1267
  719MOL0     C94808  10.298   9.719   5.557  0.1698  1.1951 -0.8039
  719MOL0     C94809  10.426   9.772   5.553  0.2233  0.4046  0.0892
  719MOL0     C94810  10.445   9.898   5.497  0.1111  0.5144 -0.0926
  719MOL0     O94811  10.571   9.937   5.493 -0.0015 -0.0689  0.8782
  719MOL0     C94812  10.602  10.079   5.472  0.3081  0.0795 -0.5069
  719MOL0     C94813  10.753  10.088   5.510 -0.3671  1.0277 -0.9345
  719MOL0     C94814  10.796  10.062   5.656  1.0492 -0.1190 -0.4750
  719MOL0     C94815  10.783  10.181   5.758  0.3555  1.1185 -0.5401
  719MOL0     C94816  10.837  10.159   5.894 -0.1762  0.1290 -0.6052
  719MOL0     C94817  11.001  10.144   5.909  0.0063 -0.5201  0.3030
  719MOL0     C94818  11.074  10.275   5.891 -0.3513  0.9451 -0.0469
  719MOL0     C94819  11.196  10.285   5.980  0.3685 -0.0172 -0.9806
  719MOL0    Cl94820  11.284  10.137   5.929  0.2630 -0.0664 -0.5783
  719MOL0     C94821  10.341   9.968   5.438  0.1717 -0.3700 -1.1317
  719MOL0     C94822  10.220   9.904   5.421 -0.3014 -0.0895  0.8018
  719MOL0     O94823  10.050   9.702   5.273 -0.6134  0.4135  0.9181
  719MOL0     C94824   9.807   9.571   5.275  0.3673 -1.0497 -0.3124
  719MOL0     C94825   9.678   9.520   5.270  0.0653 -0.5012 -0.5582
  719MOL0     N94826   8.938   9.471   5.206  0.2962  1.2194  0.3243
  719MOL0     N94827   8.822   9.487   5.164  1.1746  0.0414  0.5338
  719MOL0     C94828   8.851   8.876   5.702 -0.3052  0.5263 -0.2437
  719MOL0     C94829   8.983   8.918   5.719  0.2339  0.6442 -0.4520
  719MOL0     C94830   9.371   9.137   5.745 -0.0291 -0.0678  0.8303
  719MOL0     C94831   9.358   9.245   5.832  0.1630 -0.1870  0.4149
  719MOL0     C94832   9.467   9.326   5.860  0.4585 -1.3968 -0.0083
  719MOL0     C94833   9.599   9.292   5.830  0.3712 -0.1847  0.1778
  719MOL0     O94834   9.708   9.364   5.883  0.1321  0.6180  0.1107
  719MOL0     C94835   9.795   9.435   5.793  0.4795  0.3306  1.0054
  719MOL0     C94836   9.921   9.475   5.862 -1.0011  0.0588 -0.0724
  719MOL0     C94837  10.026   9.582   5.812  0.6162 -0.3205 -0.3608
  719MOL0     C94838  10.162   9.588   5.892 -0.2237 -0.8102 -1.2342
  719MOL0     C94839  10.260   9.481   5.864  0.9336  1.4502 -0.3853
  719MOL0     C94840  10.345   9.400   5.835  0.4702 -0.7639 -0.7717
  719MOL0     C94841   9.622   9.170   5.761  0.5314 -0.2367 -0.3754
  719MOL0     C94842   9.505   9.094   5.723 -0.1741  0.4652 -0.8347
  719MOL0     H94843   8.940   9.245   5.674 -0.9881  0.7823  1.6184
  719MOL0     H94844   8.693   9.166   5.636  0.7365  0.8099  0.4803
  719MOL0     H94845   8.634   8.709   5.617 -0.1493  0.0977 -0.6549
  719MOL0     H94846   8.678   8.818   5.482 -1.4829  1.9982 -0.8946
  719MOL0     H94847   8.391   8.790   5.572 -3.5669  1.5717 -4.7949
  719MOL0     H94848   8.477   8.705   5.451  0.4058 -3.7498  3.8477
  719MOL0     H94849   8.454   9.014   5.475 -2.4141 -0.2188  1.5967
  719MOL0     H94850   8.331   8.915   5.415  0.3613 -1.6150  3.6038
  719MOL0     H94851   8.608   8.919   5.283 -0.2476 -2.8445 -1.0700
  719MOL0     H94852   8.488   8.808   5.237  2.2298 -0.1312 -2.3404
  719MOL0     H94853   8.368   9.031   5.141  0.3477  0.1886 -1.8681
  719MOL0     H94854   8.531   9.004   5.086 -0.2573 -3.0944  1.8492
  719MOL0     H94855   8.589   9.153   5.308 -0.4358 -2.9198  0.1926
  719MOL0     H94856   8.429   9.197   5.300 -2.9422 -1.1750 -2.6216
  719MOL0     H94857   8.596   9.227   5.043 -3.3462 -1.7895 -2.2170
  719MOL0     H94858   8.441   9.290   5.072 -0.5338 -0.5712  2.0147
  719MOL0     H94859   8.561   9.404   5.300  1.2960  2.2363  1.1874
  719MOL0     H94860   8.573   9.479   5.141 -0.3248 -1.5175 -0.7292
  719MOL0     H94861   8.804   9.205   5.341  3.4128 -0.6908  0.0533
  719MOL0     H94862   9.088   9.192   5.320 -0.4291  0.5143 -2.8256
  719MOL0     H94863   9.034   9.277   5.462  0.9041 -2.3672  0.3976
  719MOL0     H94864   9.150   9.479   5.397 -0.6428 -0.5410 -1.0560
  719MOL0     H94865   9.231   9.408   5.260  0.0943  0.8884 -0.4387
  719MOL0     H94866   9.248   9.305   5.548  0.3307  1.6694  0.1706
  719MOL0     H94867   9.341   9.235   5.410 -2.5793 -0.5234  0.4904
  719MOL0     H94868   9.481   9.399   5.556 -0.1070  1.8569  1.3738
  719MOL0     H94869   9.360   9.516   5.530  2.8361  0.5560  1.4158
  719MOL0     H94870   9.579   9.598   5.582 -0.8857 -0.5995 -0.3697
  719MOL0     H94871   9.824   9.698   5.583  0.0298  1.9293 -1.5390
  719MOL0     H94872  10.289   9.616   5.589 -2.6414  0.2015 -4.1130
  719MOL0     H94873  10.515   9.712   5.570 -0.6961 -1.0847 -0.2460
  719MOL0     H94874  10.545  10.148   5.535 -1.4369 -1.3296 -0.4720
  719MOL0     H94875  10.586  10.100   5.366  0.1974 -0.4889 -0.6097
  719MOL0     H94876  10.789  10.185   5.476  0.0147  0.2668 -2.8241
  719MOL0     H94877  10.806  10.012   5.451  0.9130  0.8873  0.3261
  719MOL0     H94878  10.896  10.018   5.666  0.5350 -2.0872 -3.0461
  719MOL0     H94879  10.737   9.979   5.697  2.6835 -1.7664 -1.3425
  719MOL0     H94880  10.838  10.270   5.725  0.1606  3.2734  4.0585
  719MOL0     H94881  10.677  10.209   5.763  0.0990  0.0369  0.6196
  719MOL0     H94882  10.783  10.067   5.919 -0.2247 -0.3001 -2.1748
  719MOL0     H94883  10.800  10.234   5.965 -4.1313 -2.2421  0.1323
  719MOL0     H94884  11.038  10.078   5.829  1.0379  2.1545 -1.5792
  719MOL0     H94885  11.010  10.097   6.007 -1.4987  0.4144  0.9336
  719MOL0     H94886  11.107  10.284   5.787  0.6936 -0.8703  0.0803
  719MOL0     H94887  11.009  10.360   5.910  1.4758  3.2610 -3.1515
  719MOL0     H94888  11.146  10.274   6.077  1.4222  0.7702 -0.3299
  719MOL0     H94889  11.251  10.379   5.987  1.7309 -0.9031  3.9131
  719MOL0     H94890  10.352  10.061   5.383  0.4261  0.5297  0.4076
  719MOL0     H94891  10.142   9.947   5.360 -0.1801 -0.0953  0.6415
  719MOL0     H94892   9.864   9.549   5.185 -2.7985  0.6480 -2.9561
  719MOL0     H94893   9.649   9.466   5.181 -0.6748 -2.0957  0.5887
  719MOL0     H94894   8.843   8.769   5.717  3.0355 -0.0192 -1.3739
  719MOL0     H94895   9.055   8.847   5.758 -0.5229  0.2975  0.3451
  719MOL0     H94896   9.258   9.273   5.861 -1.1213 -2.2272 -1.6765
  719MOL0     H94897   9.456   9.420   5.913 -1.2732 -1.1067 -0.8322
  719MOL0     H94898   9.755   9.524   5.745 -2.7072 -1.3299  0.3360
  719MOL0     H94899   9.811   9.374   5.703  0.9738  0.5105  0.9655
  719MOL0     H94900   9.878   9.519   5.952 -3.2524  0.6016 -1.3445
  719MOL0     H94901   9.969   9.384   5.899  1.0594  0.9709 -0.3198
  719MOL0     H94902   9.982   9.681   5.798  3.4165  1.1495  0.4644
  719MOL0     H94903  10.047   9.549   5.710  1.3002 -5.9148  1.2579
  719MOL0     H94904  10.199   9.688   5.872 -0.7939 -0.8257 -2.4429
  719MOL0     H94905  10.141   9.576   5.999  0.6634  0.8790 -0.8468
  719MOL0     H94906  10.431   9.339   5.815  2.8841  1.9072  0.6265
  719MOL0     H94907   9.719   9.133   5.731  1.7960  0.0688  2.9406
  719MOL0     H94908   9.524   9.008   5.659  0.1903  2.8575 -4.1956
  720MOL0     O94909  10.960   0.550   8.563  0.6437  0.1300  0.4957
  720MOL0     C94910  11.034   0.649   8.544  0.8101 -0.1349 -0.3508
  720MOL0     O94911  11.118   0.702   8.639  0.1099 -0.2797  0.4070
  720MOL0     C94912  11.145   0.618   8.746  1.1877 -0.0739  0.4591
  720MOL0     C94913  11.261   0.541   8.754 -0.8851  0.2479  0.1477
  720MOL0     C94914  11.274   0.463   8.872 -0.4059  0.0953  0.0878
  720MOL0     C94915  11.180   0.458   8.977 -1.3192 -0.2866  0.9516
  720MOL0     O94916  11.191   0.377   9.091 -0.1422 -0.1825 -0.0797
  720MOL0     C94917  11.297   0.286   9.106  0.4813 -0.6521  0.7244
  720MOL0     C94918  11.285   0.207   9.233 -0.1957  0.8477 -0.1578
  720MOL0     C94919  11.416   0.123   9.240 -0.5883  0.3156 -0.2319
  720MOL0     C94920  11.409   0.050   9.368 -1.2828  0.1442  0.4659
  720MOL0     C94921  11.538  -0.010   9.407 -0.6587  0.3461 -0.1789
  720MOL0     C94922  11.515  -0.087   9.537 -0.7058  0.8509  0.5382
  720MOL0     C94923  11.625  -0.070   9.645  0.8279  0.9226 -0.6718
  720MOL0     C94924  11.575  -0.135   9.772 -0.7335 -0.3821  0.7831
  720MOL0     N94925  11.684  -0.123   9.875  0.3012 -0.2116  0.3308
  720MOL0     C94926  11.711  -0.202   9.978  0.4453 -0.1061 -1.0109
  720MOL0     C94927  11.830  -0.158  10.026  0.0337  0.0018 -0.1654
  720MOL0     C94928  11.904  -0.204  10.147 -0.2045  0.6817 -0.1729
  720MOL0     C94929  12.017  -0.307  10.115  0.4666  0.5907 -0.0537
  720MOL0     C94930  12.108  -0.279   9.999  0.3033  0.2324 -0.2873
  720MOL0     C94931  12.254  -0.326  10.020 -0.0141  0.4825  0.7031
  720MOL0     O94932  12.294  -0.463   9.973  0.0533  0.4204  0.4447
  720MOL0     C94933  12.427  -0.493   9.943 -1.0276  0.2597 -0.2628
  720MOL0     C94934  12.471  -0.548   9.820 -0.1826 -1.0623 -0.0946
  720MOL0     C94935  12.609  -0.573   9.792  0.1762 -0.3710  0.1371
  720MOL0     C94936  12.711  -0.521   9.875 -0.7818  0.2847 -0.1963
  720MOL0     C94937  12.858  -0.527   9.848 -0.0634  0.5600 -0.1126
  720MOL0     O94938  12.939  -0.443   9.921 -0.4078  0.0450 -0.0067
  720MOL0     C94939  13.073  -0.433   9.893 -0.7496 -0.2003  0.8697
  720MOL0     C94940  13.126  -0.398   9.767 -0.1859 -0.2077  0.7588
  720MOL0     C94941  13.267  -0.390   9.743 -0.0402  0.5573  0.6565
  720MOL0     C94942  13.353  -0.399   9.846 -0.5590  0.1037  0.2058
  720MOL0     O94943  13.481  -0.389   9.814 -0.0468 -0.5322 -0.2357
  720MOL0     C94944  13.537  -0.267   9.849  1.0808 -1.0365  0.1781
  720MOL0     C94945  13.602  -0.182   9.724  0.7739  0.3409 -0.1841
  720MOL0     C94946  13.488  -0.118   9.643  1.0583 -1.1356  0.0393
  720MOL0     C94947  13.553  -0.007   9.546  0.1076  0.1930 -0.0379
  720MOL0     C94948  13.459   0.095   9.475 -0.0525  0.3751  0.8347
  720MOL0     C94949  13.514   0.194   9.369 -0.6019 -0.0831  1.2595
  720MOL0     C94950  13.397   0.277   9.314  0.0945  0.3124 -0.5523
  720MOL0     C94951  13.299   0.202   9.218 -0.4488 -0.3505  0.0312
  720MOL0    Cl94952  13.379   0.083   9.112 -0.3820  0.7611 -0.0845
  720MOL0     C94953  13.306  -0.410   9.974  0.3352  0.0843  0.0078
  720MOL0     C94954  13.168  -0.435  10.000 -0.2718 -0.2734  1.8813
  720MOL0     O94955  12.898  -0.614   9.777 -0.0782  0.3914  0.1660
  720MOL0     C94956  12.673  -0.481  10.005 -0.6458  0.2106  0.2816
  720MOL0     C94957  12.537  -0.457  10.027  0.2640 -0.5922 -0.8088
  720MOL0     N94958  11.862  -0.053   9.952 -0.2212  0.1221  0.3463
  720MOL0     N94959  11.778  -0.026   9.862  0.0038 -1.0261  0.3808
  720MOL0     C94960  11.072   0.535   8.960 -0.3011 -0.0030  0.5914
  720MOL0     C94961  11.051   0.612   8.847  0.8080 -0.7323 -0.2201
  720MOL0     C94962  11.014   0.717   8.414 -0.3605 -0.6510 -0.9027
  720MOL0     C94963  10.910   0.685   8.331 -0.1088 -0.2776 -0.5037
  720MOL0     C94964  10.885   0.758   8.213  0.8259  0.0134  0.2564
  720MOL0     C94965  10.969   0.866   8.179  0.0976 -0.3015 -0.7278
  720MOL0     O94966  10.949   0.929   8.059  0.1462 -0.4140  0.1125
  720MOL0     C94967  11.018   1.047   8.028 -0.2111 -0.2102  0.4055
  720MOL0     C94968  10.983   1.169   8.124  0.3523  0.0735  0.1926
  720MOL0     C94969  10.837   1.215   8.131  0.3929 -0.1830  0.3445
  720MOL0     C94970  10.800   1.317   8.241  0.2551  0.3850 -0.2196
  720MOL0     C94971  10.837   1.286   8.380 -0.4278  0.6473 -1.7232
  720MOL0     C94972  10.879   1.254   8.486 -0.0664  0.8189  0.3604
  720MOL0     C94973  11.079   0.898   8.268 -0.2287 -0.5295 -0.1048
  720MOL0     C94974  11.096   0.825   8.380 -0.0737 -0.9019 -0.5462
  720MOL0     H94975  11.329   0.533   8.670 -2.1087  0.0398 -0.8661
  720MOL0     H94976  11.367   0.407   8.873 -0.8098 -0.8238 -3.2813
  720MOL0     H94977  11.395   0.332   9.103  0.6675 -1.0691 -0.9277
  720MOL0     H94978  11.288   0.224   9.016  2.2919  2.5661 -1.8904
  720MOL0     H94979  11.200   0.137   9.227 -0.1182  0.7989 -0.7287
  720MOL0     H94980  11.284   0.283   9.311  4.1844 -0.5055  1.5237
  720MOL0     H94981  11.503   0.189   9.245 -0.2589 -0.1199 -0.1370
  720MOL0     H94982  11.434   0.051   9.160  2.2049  1.2343 -0.5199
  720MOL0     H94983  11.391   0.129   9.441 -3.2457  0.1530  0.0101
  720MOL0     H94984  11.329  -0.024   9.377 -0.8337 -0.1761  2.4128
  720MOL0     H94985  11.617   0.064   9.422  0.7762 -1.1972  0.2179
  720MOL0     H94986  11.577  -0.068   9.323  0.0698  1.1655 -0.4271
  720MOL0     H94987  11.489  -0.192   9.517 -0.9824  1.4693 -2.9707
  720MOL0     H94988  11.421  -0.053   9.581 -0.1943 -0.3218  2.7272
  720MOL0     H94989  11.722  -0.112   9.615  1.5570 -0.3922  3.0178
  720MOL0     H94990  11.638   0.037   9.665 -1.7067  0.7334  2.8560
  720MOL0     H94991  11.542  -0.237   9.752  2.1121 -1.7721  2.5198
  720MOL0     H94992  11.483  -0.088   9.807 -0.7002  1.6229 -1.5084
  720MOL0     H94993  11.639  -0.271  10.020 -0.0601  1.2255  0.3645
  720MOL0     H94994  11.837  -0.251  10.219  1.9805 -1.9277  0.2740
  720MOL0     H94995  11.954  -0.114  10.184  1.0728  0.5679 -1.5269
  720MOL0     H94996  11.987  -0.412  10.108 -0.9751  1.0140 -0.4487
  720MOL0     H94997  12.073  -0.309  10.209 -2.5925  2.0774  1.9728
  720MOL0     H94998  12.061  -0.328   9.914 -2.8873  1.0186  0.8759
  720MOL0     H94999  12.115  -0.171   9.981  2.3462  0.4276  1.2320
  720MOL0     H95000  12.276  -0.314  10.126  2.0197 -1.6016  0.5965
  720MOL0     H95001  12.321  -0.256   9.969 -0.1805  0.4096  0.3812
  720MOL0     H95002  12.386  -0.564   9.755 -0.5565 -2.2222  0.6525
  720MOL0     H95003  12.633  -0.630   9.703  2.6203  1.3544 -0.3766
  720MOL0     H95004  13.065  -0.398   9.678 -1.6698  0.3631  1.7338
  720MOL0     H95005  13.301  -0.378   9.641  0.6968  2.4668  1.0837
  720MOL0     H95006  13.611  -0.287   9.927 -1.2917  1.1183  3.2210
  720MOL0     H95007  13.465  -0.202   9.899  2.7490 -1.0776  2.8179
  720MOL0     H95008  13.667  -0.249   9.667  0.5359 -0.8847  0.9342
  720MOL0     H95009  13.657  -0.101   9.772 -1.9843  2.5547 -0.4681
  720MOL0     H95010  13.423  -0.065   9.713 -0.4561 -0.5972 -1.6854
  720MOL0     H95011  13.425  -0.191   9.591 -0.2711  0.4253 -0.6445
  720MOL0     H95012  13.624   0.049   9.607 -0.2483  1.5700 -0.8421
  720MOL0     H95013  13.615  -0.060   9.474 -1.8639 -4.6660  1.4368
  720MOL0     H95014  13.406   0.151   9.553 -0.2623  1.0259  0.2451
  720MOL0     H95015  13.377   0.044   9.425 -0.7196  3.0776 -1.0684
  720MOL0     H95016  13.556   0.120   9.300 -0.3883  2.3483 -1.3909
  720MOL0     H95017  13.585   0.265   9.411  0.5155  0.4737 -1.3393
  720MOL0     H95018  13.348   0.338   9.390 -0.1317  0.8036 -1.0910
  720MOL0     H95019  13.441   0.358   9.255  3.9155 -0.7045  0.6279
  720MOL0     H95020  13.259   0.285   9.159  1.4402 -1.0286 -2.3704
  720MOL0     H95021  13.215   0.149   9.265 -1.7614 -1.6024 -3.3757
  720MOL0     H95022  13.383  -0.436  10.046  0.9398 -0.8911 -0.9594
  720MOL0     H95023  13.129  -0.456  10.099  0.0429 -1.0084  1.8527
  720MOL0     H95024  12.746  -0.445  10.076 -2.3657 -0.7436  2.6540
  720MOL0     H95025  12.506  -0.423  10.125  2.5981 -1.9854  0.5102
  720MOL0     H95026  10.996   0.512   9.034 -0.6067 -4.7733 -0.8767
  720MOL0     H95027  10.961   0.672   8.834  0.6172 -1.3941 -2.1536
  720MOL0     H95028  10.864   0.590   8.353  2.0300 -1.5173 -1.0682
  720MOL0     H95029  10.800   0.742   8.147  0.5535 -0.3890  0.6986
  720MOL0     H95030  10.999   1.086   7.927 -0.7078  0.9971  0.9482
  720MOL0     H95031  11.126   1.027   8.036 -0.3636 -0.2434  3.8561
  720MOL0     H95032  11.019   1.146   8.224  1.1891  1.1949  0.1586
  720MOL0     H95033  11.038   1.256   8.089 -0.0189  0.7505  1.2624
  720MOL0     H95034  10.769   1.133   8.155  0.6882 -1.5584 -2.9855
  720MOL0     H95035  10.798   1.251   8.035  4.6992  0.0406 -1.5203
  720MOL0     H95036  10.849   1.407   8.203  3.8821 -0.9693  0.7887
  720MOL0     H95037  10.692   1.326   8.235  0.3847  1.2797 -1.7483
  720MOL0     H95038  10.909   1.215   8.581 -1.7104 -0.1887  0.4996
  720MOL0     H95039  11.152   0.974   8.243 -0.3946 -0.4315 -0.2934
  720MOL0     H95040  11.183   0.860   8.435 -0.0718  2.7247 -2.5195
  721MOL0     O95041  11.384   0.858   9.858 -0.0734  0.2144 -0.2571
  721MOL0     C95042  11.341   0.781   9.770 -0.8121  1.0171 -0.4637
  721MOL0     O95043  11.216   0.773   9.724  0.1202  0.5479  0.5319
  721MOL0     C95044  11.118   0.864   9.771 -0.4854  0.6144 -0.8315
  721MOL0     C95045  11.143   0.982   9.839  0.4782  0.4226 -1.2039
  721MOL0     C95046  11.042   1.051   9.891  0.0586 -0.3634 -0.4855
  721MOL0     C95047  10.909   1.005   9.884  0.0510 -0.3298 -0.3529
  721MOL0     O95048  10.798   1.061   9.944  0.1193 -0.7108 -0.0411
  721MOL0     C95049  10.827   1.163  10.046  0.5779  0.9819  0.2722
  721MOL0     C95050  10.715   1.184  10.150 -0.4915 -0.2527 -0.1113
  721MOL0     C95051  10.584   1.202  10.077 -0.2626 -0.1209 -0.2445
  721MOL0     C95052  10.489   1.244  10.187 -0.1167 -0.6160 -0.2631
  721MOL0     C95053  10.349   1.262  10.138 -0.5418  0.1847 -0.5263
  721MOL0     C95054  10.264   1.318  10.256 -0.3962  0.1549  0.8958
  721MOL0     C95055  10.126   1.347  10.190  0.1877 -0.0186 -0.1825
  721MOL0     C95056  10.038   1.386  10.303  0.3250  0.1740  0.7054
  721MOL0     N95057  10.085   1.505  10.382  0.0805  1.0848 -0.2631
  721MOL0     C95058  10.062   1.639  10.362  0.3504 -0.6271 -0.2391
  721MOL0     C95059  10.111   1.699  10.465  0.3720  0.6122  0.1153
  721MOL0     C95060  10.098   1.836  10.517  0.1097  0.1828 -0.4286
  721MOL0     C95061  10.189   1.941  10.450 -0.3686 -0.4186  0.3760
  721MOL0     C95062  10.138   1.972  10.309  0.1468 -0.3411 -0.3756
  721MOL0     C95063  10.150   2.122  10.273  0.3834 -0.3344  0.2684
  721MOL0     O95064  10.111   2.137  10.136  0.0768 -0.0568  1.0981
  721MOL0     C95065   9.987   2.186  10.108 -0.2499  0.4334 -0.5168
  721MOL0     C95066   9.880   2.205  10.196 -1.2184  0.2590  0.4864
  721MOL0     C95067   9.763   2.266  10.161 -0.2439  0.2465 -0.1249
  721MOL0     C95068   9.738   2.316  10.033  0.1703  0.5850  0.4986
  721MOL0     C95069   9.620   2.393   9.998  0.4681  0.8521  0.1557
  721MOL0     O95070   9.584   2.406   9.864 -0.1247  0.2142  0.0708
  721MOL0     C95071   9.461   2.465   9.834 -0.1380  0.9273  0.7313
  721MOL0     C95072   9.350   2.457   9.921  0.1753  0.2986  0.4122
  721MOL0     C95073   9.229   2.516   9.875 -0.0251 -0.2536  0.2732
  721MOL0     C95074   9.225   2.588   9.748 -0.1703 -0.5146  0.8617
  721MOL0     O95075   9.121   2.658   9.702  0.4971 -0.1793  0.2095
  721MOL0     C95076   9.068   2.628   9.570 -0.2175  0.1699  0.4337
  721MOL0     C95077   9.075   2.740   9.470  0.4611  0.0038  0.7156
  721MOL0     C95078   9.066   2.687   9.322 -0.2192 -0.6634  0.7118
  721MOL0     C95079   8.926   2.683   9.261 -0.2180 -0.0697 -0.6427
  721MOL0     C95080   8.939   2.658   9.109  0.2121 -0.5735 -0.4336
  721MOL0     C95081   8.802   2.646   9.037  0.2349  0.6036  0.3112
  721MOL0     C95082   8.814   2.542   8.922  0.1359 -0.4288  0.1020
  721MOL0     C95083   8.679   2.528   8.857 -0.2196  0.8931 -0.3662
  721MOL0    Cl95084   8.671   2.373   8.748  0.2067  0.0027 -0.2803
  721MOL0     C95085   9.339   2.586   9.664  0.2300 -0.3884 -0.2547
  721MOL0     C95086   9.457   2.534   9.714  0.2879  0.4973 -0.2568
  721MOL0     O95087   9.552   2.436  10.090 -0.2354 -0.5064 -0.4571
  721MOL0     C95088   9.847   2.291   9.942  0.4577 -1.1617 -0.2093
  721MOL0     C95089   9.969   2.230   9.980 -0.0886  0.2693 -0.7625
  721MOL0     N95090  10.170   1.605  10.547  0.3338  0.9044  0.0075
  721MOL0     N95091  10.146   1.492  10.503  0.3351  0.5437  0.2783
  721MOL0     C95092  10.881   0.889   9.802 -0.9878  0.1495 -0.3179
  721MOL0     C95093  10.987   0.823   9.743 -0.7247  0.8777 -0.4793
  721MOL0     C95094  11.449   0.686   9.724 -0.0135  0.6030 -0.2652
  721MOL0     C95095  11.584   0.682   9.787 -0.4786  0.4262 -0.2469
  721MOL0     C95096  11.684   0.593   9.740 -0.2520 -0.2685  0.2950
  721MOL0     C95097  11.670   0.521   9.624  0.0055 -0.3822 -0.6001
  721MOL0     O95098  11.769   0.437   9.573  0.3705  0.5497 -0.3015
  721MOL0     C95099  11.776   0.311   9.634 -0.0904 -0.5938  0.3055
  721MOL0     C95100  11.912   0.246   9.589  0.2947  0.1160  0.5541
  721MOL0     C95101  12.036   0.311   9.656 -0.6881  0.2947 -0.6684
  721MOL0     C95102  12.045   0.283   9.812  0.2621  0.2218  0.4985
  721MOL0     C95103  12.178   0.316   9.864 -0.8551 -0.4949  0.3079
  721MOL0     C95104  12.290   0.323   9.902  0.5876  0.8828 -0.1798
  721MOL0     C95105  11.550   0.517   9.569  1.0123 -0.0115  0.1888
  721MOL0     C95106  11.444   0.605   9.613  0.2282  0.2538 -0.2179
  721MOL0     H95107  11.239   1.024   9.867 -0.3003 -0.0507  2.9107
  721MOL0     H95108  11.068   1.120   9.970  0.3737  1.2519 -1.9355
  721MOL0     H95109  10.873   1.250   9.999  0.6888  0.1421 -1.2568
  721MOL0     H95110  10.907   1.117  10.105 -0.3798  0.6591  1.3423
  721MOL0     H95111  10.748   1.263  10.218  1.4458  0.3812 -1.7203
  721MOL0     H95112  10.711   1.097  10.217 -1.0306  1.5382  2.3480
  721MOL0     H95113  10.545   1.113  10.028 -0.2369 -1.0326  1.3300
  721MOL0     H95114  10.585   1.285  10.006  3.8858 -0.0201 -0.2908
  721MOL0     H95115  10.485   1.165  10.263 -0.8702 -0.4747 -0.1545
  721MOL0     H95116  10.520   1.338  10.233 -0.5548 -0.6628  0.1321
  721MOL0     H95117  10.309   1.164  10.112  1.7163 -0.8443 -0.3414
  721MOL0     H95118  10.341   1.326  10.050 -0.9162  1.1337  0.1648
  721MOL0     H95119  10.317   1.404  10.298 -0.8426  1.4254 -1.0248
  721MOL0     H95120  10.260   1.237  10.330 -2.9863 -0.1228  0.5268
  721MOL0     H95121  10.140   1.432  10.123  4.3505 -0.0277  0.3828
  721MOL0     H95122  10.097   1.253  10.141 -0.2527  0.6389 -1.2091
  721MOL0     H95123  10.039   1.303  10.374  0.0604 -1.3388 -0.9881
  721MOL0     H95124   9.936   1.395  10.266  1.0946 -0.7445 -1.7921
  721MOL0     H95125  10.006   1.696  10.289  4.3184  1.3648 -2.0748
  721MOL0     H95126  10.112   1.829  10.625 -0.4589  0.2778 -0.3467
  721MOL0     H95127   9.992   1.858  10.505 -0.3353 -1.0804  0.8760
  721MOL0     H95128  10.294   1.911  10.457 -0.8295 -2.5637 -0.9118
  721MOL0     H95129  10.183   2.028  10.516 -2.1165 -2.3380  2.9725
  721MOL0     H95130  10.205   1.914  10.244  0.0967 -1.5765  0.6186
  721MOL0     H95131  10.031   1.949  10.300 -0.0147  0.6133 -1.0749
  721MOL0     H95132  10.256   2.150  10.266 -0.0920  1.0707 -2.8979
  721MOL0     H95133  10.104   2.191  10.343  1.2911  1.5751 -0.9269
  721MOL0     H95134   9.906   2.183  10.299  2.8883  1.1815 -0.1888
  721MOL0     H95135   9.689   2.277  10.240 -3.2929 -1.6960 -2.5021
  721MOL0     H95136   9.337   2.398  10.011 -0.5284  1.6093  1.2077
  721MOL0     H95137   9.140   2.517   9.937  1.0220 -0.2911  1.8580
  721MOL0     H95138   8.965   2.592   9.564 -0.0018 -0.3505 -0.3321
  721MOL0     H95139   9.128   2.546   9.528 -1.4169 -0.8479  0.6475
  721MOL0     H95140   9.173   2.787   9.476  0.5952 -0.2097  0.2875
  721MOL0     H95141   8.995   2.812   9.490 -0.6943 -1.0438  0.0302
  721MOL0     H95142   9.108   2.588   9.306  0.3947 -0.5970  1.8292
  721MOL0     H95143   9.127   2.761   9.268  0.2546 -0.6472  1.2597
  721MOL0     H95144   8.861   2.609   9.310 -0.7603  0.7828 -0.0495
  721MOL0     H95145   8.882   2.781   9.278 -0.8228 -0.5943  1.0244
  721MOL0     H95146   8.992   2.562   9.109  0.7987 -0.2838  1.1173
  721MOL0     H95147   9.010   2.725   9.059  2.0888 -2.7813 -0.8937
  721MOL0     H95148   8.777   2.743   8.994  5.0072  2.9561  2.1014
  721MOL0     H95149   8.721   2.631   9.108 -2.5514  0.3206 -2.7140
  721MOL0     H95150   8.890   2.570   8.848 -1.0295 -2.4071 -1.9973
  721MOL0     H95151   8.844   2.454   8.980 -0.6450 -0.4069  0.5525
  721MOL0     H95152   8.647   2.618   8.803  1.7362  1.5493 -0.5076
  721MOL0     H95153   8.607   2.513   8.938 -3.1720  1.0803 -2.8020
  721MOL0     H95154   9.331   2.628   9.564 -2.1646  0.4046  0.1900
  721MOL0     H95155   9.549   2.538   9.657  0.9573  0.5332  0.7970
  721MOL0     H95156   9.862   2.348   9.851 -1.7837  0.2389  0.2319
  721MOL0     H95157  10.036   2.218   9.895  0.5988 -2.5511  0.0506
  721MOL0     H95158  10.777   0.859   9.791 -1.4448  1.6275 -0.2283
  721MOL0     H95159  10.959   0.736   9.684  0.2927 -0.5752  1.0757
  721MOL0     H95160  11.600   0.741   9.876  1.2177 -2.4656  1.5119
  721MOL0     H95161  11.779   0.591   9.792 -1.5699  0.0018  2.8862
  721MOL0     H95162  11.689   0.253   9.601 -0.8087 -0.2715  1.5831
  721MOL0     H95163  11.760   0.320   9.741  0.3069  3.2018  0.1792
  721MOL0     H95164  11.899   0.146   9.634 -1.2589 -0.1286 -0.3787
  721MOL0     H95165  11.912   0.248   9.480  0.5503  0.3010  0.5572
  721MOL0     H95166  12.043   0.419   9.635 -1.3142  0.1970 -1.4096
  721MOL0     H95167  12.115   0.252   9.610 -1.7264  0.3089 -2.5499
  721MOL0     H95168  11.965   0.337   9.863 -2.4212 -1.0840 -2.0055
  721MOL0     H95169  12.032   0.176   9.834  2.0818 -0.0485  0.3886
  721MOL0     H95170  12.387   0.329   9.946 -0.2299  0.0896  1.8602
  721MOL0     H95171  11.527   0.455   9.483  2.7627  1.9396 -1.8177
  721MOL0     H95172  11.351   0.610   9.558 -1.0656  0.7919  1.9305
  722MOL0     O95173   1.829   0.165   7.783 -0.2110 -0.3754 -0.3037
  722MOL0     C95174   1.805   0.186   7.665 -1.1104 -0.3115 -0.8710
  722MOL0     O95175   1.708   0.268   7.617 -0.4502 -0.5697  0.1176
  722MOL0     C95176   1.590   0.292   7.684  1.0842 -1.1592  0.3579
  722MOL0     C95177   1.545   0.233   7.804 -0.0517  0.7147 -1.2176
  722MOL0     C95178   1.435   0.279   7.881 -0.0489  0.5961  0.1970
  722MOL0     C95179   1.353   0.383   7.830  0.0248 -0.6193 -1.2001
  722MOL0     O95180   1.237   0.434   7.889 -0.0223  0.4459  0.3712
  722MOL0     C95181   1.168   0.363   7.991  0.7500 -0.6719  0.6725
  722MOL0     C95182   1.042   0.436   8.030 -0.2515 -0.1670 -0.8001
  722MOL0     C95183   0.933   0.433   7.928  0.3926  0.3034  0.5252
  722MOL0     C95184   0.804   0.487   7.989 -0.2918  0.7166 -0.7084
  722MOL0     C95185   0.711   0.508   7.874 -0.2576  0.2432 -0.7590
  722MOL0     C95186   0.564   0.479   7.907  0.0567  0.3500 -0.4448
  722MOL0     C95187   0.506   0.621   7.909  0.7237 -0.2463 -0.1580
  722MOL0     C95188   0.359   0.629   7.942  0.1043 -0.0148 -0.4325
  722MOL0     N95189   0.323   0.534   8.045 -0.1331  0.8562  0.5721
  722MOL0     C95190   0.222   0.438   8.047 -0.0531  0.2952 -0.4270
  722MOL0     C95191   0.233   0.376   8.161 -0.3090 -0.2449 -0.5371
  722MOL0     C95192   0.143   0.266   8.205 -0.9424  0.1091  0.4490
  722MOL0     C95193   0.007   0.314   8.263  0.2885  0.4132 -0.0651
  722MOL0     C95194  -0.060   0.189   8.311 -0.4902  1.0795  0.3988
  722MOL0     C95195  -0.183   0.213   8.389  0.1211  0.1695  0.5655
  722MOL0     O95196  -0.289   0.282   8.326 -0.2957  1.2858  0.2776
  722MOL0     C95197  -0.400   0.208   8.300  0.4655  0.1661 -0.4210
  722MOL0     C95198  -0.405   0.089   8.226  0.2857  0.7422  0.2299
  722MOL0     C95199  -0.527   0.023   8.218 -0.1344  0.1083  0.0555
  722MOL0     C95200  -0.647   0.073   8.274  0.4936 -0.0117  0.7415
  722MOL0     C95201  -0.777   0.004   8.250  0.7511 -0.2783  0.1549
  722MOL0     O95202  -0.879   0.058   8.318 -0.2795  0.6049  0.1870
  722MOL0     C95203  -1.002  -0.006   8.294 -0.4248 -0.4948  0.5720
  722MOL0     C95204  -1.134   0.101   8.169 -0.4160 -0.7196 -0.3780
  722MOL0     C95205  -1.337   0.039   8.158  0.9098  0.1274 -0.3669
  722MOL0     C95206  -1.404  -0.123   8.273 -0.3761  1.0302 -1.2870
  722MOL0     O95207  -1.531  -0.161   8.297  0.4751 -0.1634 -0.1151
  722MOL0     C95208  -1.627  -0.114   8.197 -0.1065 -0.7830  0.0137
  722MOL0     C95209  -1.689  -0.230   8.128 -0.3817 -0.2183  0.7282
  722MOL0     C95210  -1.808  -0.194   8.040  0.0517 -0.4509 -0.0057
  722MOL0     C95211  -1.794  -0.077   7.939 -1.2008 -1.0860 -0.1322
  722MOL0     C95212  -1.667  -0.110   7.852 -0.1943  0.7823 -0.2541
  722MOL0     C95213  -1.661  -0.027   7.733 -0.3771 -0.5876  0.5891
  722MOL0     C95214  -1.782  -0.015   7.633 -0.8777 -1.0886 -0.5284
  722MOL0     C95215  -1.838  -0.149   7.598 -0.4811  0.3992  0.8386
  722MOL0    Cl95216  -1.914  -0.159   7.430 -0.3604 -0.3815  0.1352
  722MOL0     C95217  -1.266  -0.226   8.393 -0.3389  0.0326  0.1460
  722MOL0     C95218  -1.068  -0.161   8.404 -0.9280  1.2932  0.6369
  722MOL0     O95219  -0.781  -0.074   8.156 -0.9964 -0.1134  0.5053
  722MOL0     C95220  -0.626   0.192   8.354  0.1465  0.4685 -0.0991
  722MOL0     C95221  -0.509   0.258   8.365 -0.2158 -1.0740 -0.8310
  722MOL0     N95222   0.333   0.433   8.231 -0.4630 -0.5125 -1.1559
  722MOL0     N95223   0.398   0.517   8.156  0.2153  0.0932  0.0841
  722MOL0     C95224   1.384   0.433   7.707 -0.5242 -0.2605  0.9878
  722MOL0     C95225   1.502   0.388   7.627 -0.9027 -0.0472  0.4878
  722MOL0     C95226   1.902   0.134   7.566  0.6718 -0.4252  0.3574
  722MOL0     C95227   2.025   0.077   7.606  0.0206 -0.2504  0.4357
  722MOL0     C95228   2.105   0.020   7.515 -0.0798  0.2236 -0.2511
  722MOL0     C95229   2.076   0.015   7.387  0.9681 -1.0163  0.5912
  722MOL0     O95230   2.163  -0.048   7.304 -0.9004 -0.2538  0.6496
  722MOL0     C95231   2.200   0.019   7.177 -1.0374 -0.6520  0.7974
  722MOL0     C95232   2.239   0.169   7.201  0.7496  0.4870  0.1667
  722MOL0     C95233   2.349   0.189   7.298 -0.5564 -0.1933  0.3357
  722MOL0     C95234   2.359   0.338   7.342  0.4123  0.4933 -0.1757
  722MOL0     C95235   2.354   0.424   7.223  0.2997  0.4251  0.2545
  722MOL0     C95236   2.357   0.504   7.134  0.2772 -0.1457 -0.1640
  722MOL0     C95237   1.947   0.061   7.335  0.3598 -0.0728  0.5439
  722MOL0     C95238   1.870   0.121   7.429 -0.1234  0.1620 -0.0419
  722MOL0     H95239   1.613   0.157   7.844 -0.4436 -0.0913 -2.0472
  722MOL0     H95240   1.422   0.236   7.980  4.0300  0.5113  0.8647
  722MOL0     H95241   1.218   0.348   8.087 -2.7972 -4.3071  2.2335
  722MOL0     H95242   1.156   0.260   7.957 -0.5080  0.4754 -2.8524
  722MOL0     H95243   1.071   0.537   8.061 -0.3732 -0.6762  1.1541
  722MOL0     H95244   1.012   0.382   8.121  0.0532 -2.2571 -1.8832
  722MOL0     H95245   0.923   0.331   7.889  0.2754  0.3388  0.4612
  722MOL0     H95246   0.949   0.497   7.841 -4.0978  1.8890  0.5735
  722MOL0     H95247   0.756   0.424   8.065  1.1688  1.1385  0.5993
  722MOL0     H95248   0.823   0.586   8.029  1.3502  0.6810 -1.3224
  722MOL0     H95249   0.733   0.442   7.790 -1.9435 -1.3657  0.0231
  722MOL0     H95250   0.726   0.611   7.839 -1.2816  1.1346  1.2666
  722MOL0     H95251   0.551   0.423   8.000 -0.0536 -0.9860 -1.2236
  722MOL0     H95252   0.517   0.421   7.827 -1.1555 -0.1009  0.5639
  722MOL0     H95253   0.561   0.680   7.983  1.8120  0.3655 -1.4081
  722MOL0     H95254   0.524   0.679   7.818  1.5936  0.7762  0.6504
  722MOL0     H95255   0.295   0.605   7.857  0.5238  0.3708 -0.8625
  722MOL0     H95256   0.334   0.731   7.974 -2.5957 -0.9043  0.6317
  722MOL0     H95257   0.148   0.408   7.973 -1.2208  1.3558  0.2767
  722MOL0     H95258   0.200   0.200   8.270 -0.3492 -1.1959 -1.2952
  722MOL0     H95259   0.122   0.201   8.119  0.8846  0.5941 -0.4126
  722MOL0     H95260  -0.051   0.351   8.178 -0.2945 -0.6402 -0.1543
  722MOL0     H95261   0.017   0.395   8.335 -0.2121  1.1403 -0.8010
  722MOL0     H95262  -0.080   0.119   8.229 -0.6468  1.3239  0.2299
  722MOL0     H95263  -0.000   0.135   8.386 -4.4151 -1.4430  2.0685
  722MOL0     H95264  -0.139   0.264   8.475 -3.4133  1.2621  1.9164
  722MOL0     H95265  -0.227   0.126   8.440 -3.0004  0.3007 -1.6014
  722MOL0     H95266  -0.322   0.040   8.176  1.0593  0.4121  1.7828
  722MOL0     H95267  -0.537  -0.071   8.164  2.2564 -0.9870  1.3916
  722MOL0     H95268  -1.109   0.199   8.130 -1.8952 -0.0883  0.1499
  722MOL0     H95269  -1.401   0.107   8.103  3.1605  1.6809 -1.2083
  722MOL0     H95270  -1.573  -0.058   8.120 -0.0871 -0.7287  0.0664
  722MOL0     H95271  -1.711  -0.053   8.232  0.4614 -0.2807  0.5101
  722MOL0     H95272  -1.722  -0.286   8.217  1.9119 -1.3491  0.9324
  722MOL0     H95273  -1.613  -0.286   8.073 -0.2148 -1.1700  1.8795
  722MOL0     H95274  -1.895  -0.183   8.105  0.5062 -2.2454  0.9839
  722MOL0     H95275  -1.825  -0.280   7.974  1.3138 -1.4161  0.8803
  722MOL0     H95276  -1.876  -0.067   7.868  0.0213  1.9235 -1.2831
  722MOL0     H95277  -1.783   0.022   7.986  0.1503 -0.3114 -1.9878
  722MOL0     H95278  -1.670  -0.212   7.812  1.5666  1.6161 -2.8068
  722MOL0     H95279  -1.576  -0.099   7.913  0.0799 -1.6048 -0.1545
  722MOL0     H95280  -1.581  -0.070   7.672  1.5579  0.9228  1.8948
  722MOL0     H95281  -1.628   0.071   7.770 -2.3286 -0.1149  1.1576
  722MOL0     H95282  -1.859   0.047   7.680 -0.9696 -1.4807 -0.1610
  722MOL0     H95283  -1.754   0.047   7.547 -5.2457  0.4411 -1.0831
  722MOL0     H95284  -1.921  -0.171   7.665 -0.7883 -2.6410 -0.3913
  722MOL0     H95285  -1.754  -0.217   7.611 -0.0206  0.8354  0.2412
  722MOL0     H95286  -1.299  -0.310   8.454 -1.4821  1.4339  1.5589
  722MOL0     H95287  -0.992  -0.200   8.471 -0.2023  3.6336  1.2842
  722MOL0     H95288  -0.717   0.225   8.402 -0.8295 -1.3165 -0.6359
  722MOL0     H95289  -0.499   0.357   8.407  0.9738 -2.7140  3.2014
  722MOL0     H95290   1.329   0.517   7.665  0.2448 -1.1227 -1.9956
  722MOL0     H95291   1.532   0.428   7.530  0.9888 -0.2297  0.9603
  722MOL0     H95292   2.052   0.095   7.710 -0.4502 -0.1812  0.5447
  722MOL0     H95293   2.196  -0.026   7.552  1.3342  3.0898  0.1109
  722MOL0     H95294   2.124   0.012   7.098  1.6546 -0.7796 -1.9886
  722MOL0     H95295   2.287  -0.021   7.124 -2.0070 -1.5220 -0.2055
  722MOL0     H95296   2.265   0.207   7.102  1.0629  1.3919  0.5882
  722MOL0     H95297   2.147   0.224   7.222 -1.1945 -1.4620 -2.4944
  722MOL0     H95298   2.445   0.156   7.258  0.1998  0.7070  1.3552
  722MOL0     H95299   2.333   0.130   7.389 -0.0908  0.5691  0.9210
  722MOL0     H95300   2.277   0.355   7.412 -0.8578 -1.5871 -1.0771
  722MOL0     H95301   2.452   0.353   7.397 -1.2879  1.8357  2.5461
  722MOL0     H95302   2.359   0.573   7.052  1.5893  1.4390  1.1186
  722MOL0     H95303   1.927   0.045   7.229  0.1704 -1.4747  0.7659
  722MOL0     H95304   1.772   0.159   7.402 -1.2202 -1.6766  1.1345
  723MOL0     O95305   7.906   6.784   5.466 -0.1601  0.2495  0.7004
  723MOL0     C95306   7.834   6.880   5.435  0.5570  1.2757  0.7541
  723MOL0     O95307   7.704   6.865   5.417 -0.6885  0.3285  0.5256
  723MOL0     C95308   7.636   6.773   5.503 -0.4559  0.2566 -1.1007
  723MOL0     C95309   7.503   6.751   5.478  0.2577  0.8604  0.3975
  723MOL0     C95310   7.437   6.647   5.551  0.6749  0.4073 -0.1528
  723MOL0     C95311   7.499   6.571   5.649  0.2103  0.7751 -0.4242
  723MOL0     O95312   7.440   6.477   5.738  0.2164  0.5692 -0.5082
  723MOL0     C95313   7.302   6.452   5.723  0.0419  0.5524 -0.6504
  723MOL0     C95314   7.269   6.359   5.601 -0.9164  0.0640 -0.4485
  723MOL0     C95315   7.298   6.217   5.616  0.3550 -0.5543  0.2575
  723MOL0     C95316   7.189   6.128   5.541  0.8599  0.0097 -0.9093
  723MOL0     C95317   7.200   5.975   5.577 -0.0638 -0.4326 -0.3684
  723MOL0     C95318   7.081   5.900   5.515 -0.5579  0.1840  0.0495
  723MOL0     C95319   7.048   5.766   5.584  0.2291  0.0037 -0.4885
  723MOL0     C95320   7.159   5.665   5.576 -0.5881  0.5647 -0.0775
  723MOL0     N95321   7.197   5.634   5.437  0.2963 -0.0219  0.9159
  723MOL0     C95322   7.116   5.574   5.337 -0.3389  0.1033 -0.0284
  723MOL0     C95323   7.204   5.560   5.236  0.3371  0.5583  0.1859
  723MOL0     C95324   7.183   5.481   5.111  0.4448  0.6853 -0.1696
  723MOL0     C95325   7.075   5.545   5.029  0.6630  0.0996 -0.3185
  723MOL0     C95326   7.097   5.682   4.966  1.2888 -0.0462  1.0326
  723MOL0     C95327   6.976   5.749   4.897  0.7754  0.1173  0.0515
  723MOL0     O95328   6.879   5.781   5.002  0.2999 -0.7174 -0.4872
  723MOL0     C95329   6.843   5.917   5.010 -0.4577  0.0563  0.6214
  723MOL0     C95330   6.827   6.001   4.904  0.3631 -0.2376 -0.2599
  723MOL0     C95331   6.811   6.141   4.928 -0.4106  0.5858 -0.0496
  723MOL0     C95332   6.793   6.194   5.057 -0.7188  0.1271 -0.4059
  723MOL0     C95333   6.762   6.341   5.078 -0.7343 -0.1672  0.9820
  723MOL0     O95334   6.681   6.377   5.183  0.4957  0.3596  0.5332
  723MOL0     C95335   6.619   6.498   5.179 -0.5326 -0.2019  0.5083
  723MOL0     C95336   6.615   6.589   5.293  0.4778  0.6007  0.8233
  723MOL0     C95337   6.564   6.715   5.284  0.0313 -0.2143  0.0724
  723MOL0     C95338   6.473   6.754   5.174  0.5095  1.1387 -0.4119
  723MOL0     O95339   6.391   6.863   5.165 -0.2801 -0.0627 -0.6404
  723MOL0     C95340   6.397   6.938   5.287 -0.3769  0.7963 -0.0073
  723MOL0     C95341   6.510   7.046   5.272 -0.0308  0.3501  0.1083
  723MOL0     C95342   6.487   7.136   5.148 -0.3028  0.3063  0.1157
  723MOL0     C95343   6.606   7.232   5.124 -0.9115  0.9749 -0.0716
  723MOL0     C95344   6.606   7.304   4.990  0.4250  1.0602  0.2097
  723MOL0     C95345   6.736   7.374   4.968  0.7694 -1.0733  0.4181
  723MOL0     C95346   6.760   7.392   4.814 -0.0859  0.2904 -0.8966
  723MOL0     C95347   6.871   7.501   4.784  0.5838 -0.1372  0.6128
  723MOL0    Cl95348   7.027   7.460   4.868 -0.4736  0.3062  0.0995
  723MOL0     C95349   6.483   6.669   5.061  0.0673 -0.9770  0.1194
  723MOL0     C95350   6.544   6.542   5.064 -0.0700  0.3099 -1.0106
  723MOL0     O95351   6.803   6.417   4.989  0.1152  0.6494 -0.5451
  723MOL0     C95352   6.793   6.103   5.162 -1.8126  0.2353 -0.4456
  723MOL0     C95353   6.824   5.968   5.143 -0.0658  0.2274 -0.9003
  723MOL0     N95354   7.327   5.602   5.265 -0.0668 -0.5381 -0.0372
  723MOL0     N95355   7.325   5.638   5.385  0.3935 -0.1158  0.0710
  723MOL0     C95356   7.629   6.597   5.670 -0.0079 -0.1282 -1.2429
  723MOL0     C95357   7.692   6.706   5.611  0.5985 -0.4051 -0.6539
  723MOL0     C95358   7.892   7.011   5.423  1.1059 -0.4261  0.8197
  723MOL0     C95359   8.021   7.047   5.468  0.0649  1.0660  0.4158
  723MOL0     C95360   8.077   7.170   5.450 -0.2989  0.2919 -0.0333
  723MOL0     C95361   7.994   7.273   5.402  0.3133  0.0937  0.0845
  723MOL0     O95362   8.059   7.397   5.400  1.1358  0.6927 -1.0760
  723MOL0     C95363   7.981   7.514   5.370  0.1266  0.0885  0.1508
  723MOL0     C95364   8.050   7.647   5.413 -0.1747 -0.3277 -0.5095
  723MOL0     C95365   7.980   7.771   5.354 -0.0206  0.6514  0.7433
  723MOL0     C95366   7.866   7.802   5.445  0.9892 -0.0944  0.5418
  723MOL0     C95367   7.755   7.875   5.380  0.0210  0.6484 -0.6076
  723MOL0     C95368   7.671   7.931   5.320  0.3791  0.3861 -0.6719
  723MOL0     C95369   7.868   7.244   5.346 -0.6362 -0.0650 -1.3188
  723MOL0     C95370   7.826   7.112   5.351  0.0830 -0.4724  0.9077
  723MOL0     H95371   7.454   6.814   5.405  0.1209 -1.5226 -1.7059
  723MOL0     H95372   7.329   6.634   5.546  0.7389 -0.0355 -0.3730
  723MOL0     H95373   7.245   6.544   5.706  1.0184  1.1287 -0.8825
  723MOL0     H95374   7.254   6.409   5.812 -0.5367 -2.0226 -2.0953
  723MOL0     H95375   7.338   6.386   5.521 -0.2767 -0.3600 -0.0502
  723MOL0     H95376   7.168   6.378   5.566 -1.1607  1.5733  0.9523
  723MOL0     H95377   7.282   6.195   5.722  3.4966 -0.2990  0.8764
  723MOL0     H95378   7.402   6.188   5.597  1.8771  4.0146  0.3105
  723MOL0     H95379   7.086   6.161   5.554  1.4452  1.5411  0.2526
  723MOL0     H95380   7.204   6.136   5.433 -1.8494  0.2434 -1.3399
  723MOL0     H95381   7.195   5.958   5.685 -3.3932  1.1415 -0.1290
  723MOL0     H95382   7.292   5.937   5.533 -1.3049 -2.2495 -1.5605
  723MOL0     H95383   7.104   5.879   5.410  0.2147 -3.6288  0.7955
  723MOL0     H95384   6.994   5.964   5.527  1.3301  2.3820  3.8297
  723MOL0     H95385   7.043   5.789   5.691  0.6440  0.2032 -0.5084
  723MOL0     H95386   6.954   5.722   5.551  1.1430 -0.7245 -2.2553
  723MOL0     H95387   7.134   5.573   5.630  0.6598 -0.0442 -0.4872
  723MOL0     H95388   7.248   5.715   5.616  0.3131 -0.6086 -0.5388
  723MOL0     H95389   7.012   5.543   5.340 -0.3081 -0.2524 -1.5308
  723MOL0     H95390   7.149   5.381   5.138 -0.9615  0.0711 -3.6740
  723MOL0     H95391   7.275   5.478   5.052  0.5443  1.7371 -0.0831
  723MOL0     H95392   6.989   5.564   5.095  1.4354 -1.3199  1.1658
  723MOL0     H95393   7.039   5.486   4.944 -3.5190  1.4968  0.2406
  723MOL0     H95394   7.139   5.757   5.034 -0.9473  0.8806  1.5022
  723MOL0     H95395   7.179   5.673   4.894  0.2575  1.9205 -0.4944
  723MOL0     H95396   6.934   5.678   4.825 -0.2968 -0.6165  1.3336
  723MOL0     H95397   7.020   5.828   4.836  2.7340 -1.8681 -1.2844
  723MOL0     H95398   6.828   5.967   4.801  2.9765 -4.4068  0.9164
  723MOL0     H95399   6.787   6.203   4.843 -0.1665 -2.1041 -2.2277
  723MOL0     H95400   6.661   6.552   5.384 -0.0514 -1.0135  0.4671
  723MOL0     H95401   6.578   6.783   5.368  2.0744  0.0142 -0.4131
  723MOL0     H95402   6.417   6.875   5.374 -5.3434 -0.3551  0.5541
  723MOL0     H95403   6.300   6.979   5.316 -1.4215 -1.8746  0.5635
  723MOL0     H95404   6.606   6.993   5.265  0.4002  1.2361 -1.1399
  723MOL0     H95405   6.529   7.108   5.359  3.0798  0.9895 -0.8801
  723MOL0     H95406   6.398   7.195   5.172  1.0270  0.8408  4.6703
  723MOL0     H95407   6.466   7.084   5.054  2.1295  0.0555 -0.3498
  723MOL0     H95408   6.593   7.305   5.205 -1.7244 -0.3886  1.0673
  723MOL0     H95409   6.700   7.181   5.150 -1.5388  0.3745  1.0898
  723MOL0     H95410   6.514   7.362   4.988 -0.2748 -0.0153 -2.2811
  723MOL0     H95411   6.606   7.229   4.910  1.3186  0.1919  1.0019
  723MOL0     H95412   6.822   7.321   5.010  1.8719 -0.6894 -1.2499
  723MOL0     H95413   6.723   7.473   5.012 -0.6613 -1.2292  0.3745
  723MOL0     H95414   6.777   7.290   4.777 -1.5582 -1.2095  2.1798
  723MOL0     H95415   6.667   7.429   4.770 -0.4728  1.8054  1.0683
  723MOL0     H95416   6.845   7.601   4.821  0.4079 -0.7522  2.2286
  723MOL0     H95417   6.880   7.512   4.676 -0.1957 -0.5157  0.5035
  723MOL0     H95418   6.425   6.691   4.973 -0.8391  0.1852  0.9739
  723MOL0     H95419   6.522   6.469   4.986  0.0329 -0.4031 -0.3855
  723MOL0     H95420   6.776   6.133   5.264  1.9570  3.6601 -0.5632
  723MOL0     H95421   6.816   5.901   5.228 -1.9183  0.8658 -0.5303
  723MOL0     H95422   7.684   6.546   5.748 -2.1506 -1.2587 -0.3914
  723MOL0     H95423   7.789   6.723   5.657  0.2520  1.2272 -0.4897
  723MOL0     H95424   8.081   6.965   5.506  1.2023  2.0510  0.8115
  723MOL0     H95425   8.182   7.176   5.475  0.3977 -2.9003 -1.6505
  723MOL0     H95426   7.882   7.501   5.415  0.3278 -1.7886  0.1164
  723MOL0     H95427   7.951   7.525   5.265 -0.8362 -0.9022  0.3012
  723MOL0     H95428   8.051   7.655   5.522  2.3292  1.6962 -0.5866
  723MOL0     H95429   8.155   7.660   5.385  0.1238  2.3141  1.4183
  723MOL0     H95430   7.942   7.746   5.254 -1.3555  0.8448  1.1809
  723MOL0     H95431   8.054   7.851   5.355 -0.6883  1.2943  0.1840
  723MOL0     H95432   7.823   7.712   5.491  2.1782 -0.5913  0.7049
  723MOL0     H95433   7.897   7.864   5.529 -0.7619  1.8535 -0.1712
  723MOL0     H95434   7.598   7.991   5.269  0.5851 -0.8039 -2.4510
  723MOL0     H95435   7.819   7.329   5.299 -0.5382  0.0256 -1.2549
  723MOL0     H95436   7.729   7.091   5.306  1.8055 -1.1388 -2.9708
  724MOL0     O95437   0.198   4.826   4.582  0.1036 -0.2534  0.1558
  724MOL0     C95438   0.210   4.783   4.468 -0.8648  0.0684 -0.0560
  724MOL0     O95439   0.140   4.686   4.409 -0.0572  0.5256 -0.4413
  724MOL0     C95440   0.046   4.632   4.489 -0.3608 -0.0388  0.1298
  724MOL0     C95441  -0.066   4.705   4.517  0.8817  0.1444  0.7976
  724MOL0     C95442  -0.185   4.657   4.580  0.2419 -0.3767 -0.7615
  724MOL0     C95443  -0.184   4.529   4.610 -0.9641  0.2465 -0.9298
  724MOL0     O95444  -0.283   4.476   4.684 -0.1737 -0.5192 -0.3361
  724MOL0     C95445  -0.413   4.439   4.632 -0.7925  0.4121  0.0413
  724MOL0     C95446  -0.514   4.554   4.627 -0.4370 -0.9589 -0.0100
  724MOL0     C95447  -0.639   4.540   4.547  1.1149  0.4165 -1.0826
  724MOL0     C95448  -0.724   4.416   4.570 -0.7917  0.5044 -0.7514
  724MOL0     C95449  -0.838   4.402   4.467 -0.2503  0.0745  1.5157
  724MOL0     C95450  -0.788   4.381   4.323 -0.3311  0.4200  0.8457
  724MOL0     C95451  -0.800   4.232   4.279  0.7096 -0.7621 -0.2875
  724MOL0     C95452  -0.694   4.143   4.334 -0.7151 -0.2296 -0.0789
  724MOL0     N95453  -0.690   4.010   4.298  0.2107 -0.0865  0.6367
  724MOL0     C95454  -0.677   3.906   4.386 -0.0661 -0.1962 -0.8280
  724MOL0     C95455  -0.665   3.793   4.305 -0.1455  0.3482  0.8458
  724MOL0     C95456  -0.661   3.649   4.347  0.7868  0.1367  0.0081
  724MOL0     C95457  -0.533   3.596   4.302 -0.1325  0.7805 -0.3547
  724MOL0     C95458  -0.513   3.450   4.336  0.9883  0.4555 -0.9119
  724MOL0     C95459  -0.629   3.360   4.279  0.7293  0.0464  0.0256
  724MOL0     O95460  -0.624   3.226   4.328  0.3601  0.2722 -0.2085
  724MOL0     C95461  -0.581   3.132   4.241 -0.1120  0.3398  0.6099
  724MOL0     C95462  -0.455   3.080   4.260  0.0657  0.2080  0.6394
  724MOL0     C95463  -0.406   2.968   4.179  0.4829  0.7185 -0.7411
  724MOL0     C95464  -0.484   2.922   4.064 -0.6699  0.6172 -0.1842
  724MOL0     C95465  -0.440   2.809   3.977 -0.0737 -0.2698  0.1539
  724MOL0     O95466  -0.505   2.798   3.852  0.0430 -0.5840 -0.1381
  724MOL0     C95467  -0.488   2.691   3.775  0.0704  0.8222 -0.6532
  724MOL0     C95468  -0.519   2.567   3.825 -0.1151 -0.1422  0.9674
  724MOL0     C95469  -0.529   2.456   3.739 -0.2837  0.3038 -0.0572
  724MOL0     C95470  -0.496   2.463   3.606 -0.8893  0.8638 -0.4836
  724MOL0     O95471  -0.505   2.349   3.540  0.3802  0.2782  0.2987
  724MOL0     C95472  -0.417   2.321   3.432  0.3077  0.3736 -0.4258
  724MOL0     C95473  -0.455   2.185   3.370 -0.2837 -0.1421  0.7264
  724MOL0     C95474  -0.370   2.157   3.235  0.5290 -0.1138 -0.7092
  724MOL0     C95475  -0.220   2.144   3.248 -0.7314  0.1840  0.1826
  724MOL0     C95476  -0.172   2.025   3.321 -0.7345 -0.1294  0.3291
  724MOL0     C95477  -0.029   1.991   3.303  0.5614  0.2067 -0.2663
  724MOL0     C95478   0.027   1.939   3.166 -0.2380  0.1508 -0.3585
  724MOL0     C95479  -0.023   1.795   3.132 -0.2626 -0.0304 -1.4332
  724MOL0    Cl95480   0.088   1.722   3.028 -0.2176  0.2190  0.3790
  724MOL0     C95481  -0.463   2.589   3.556  0.1169 -1.0569  0.0381
  724MOL0     C95482  -0.457   2.700   3.638  1.0716 -0.2054  0.3625
  724MOL0     O95483  -0.359   2.728   4.021  0.0878 -0.9212  0.1270
  724MOL0     C95484  -0.618   2.975   4.059 -0.0813  0.9948  0.6169
  724MOL0     C95485  -0.663   3.083   4.138  0.4092  0.4592  0.2270
  724MOL0     N95486  -0.663   3.843   4.171 -0.3750  0.4116 -0.5971
  724MOL0     N95487  -0.682   3.969   4.173 -0.5318 -0.1488  0.1406
  724MOL0     C95488  -0.081   4.442   4.569 -0.3327  0.2472  0.5290
  724MOL0     C95489   0.027   4.503   4.512 -0.8496  0.2564  0.2052
  724MOL0     C95490   0.300   4.846   4.384 -0.6300 -0.3448  0.3535
  724MOL0     C95491   0.389   4.954   4.426  0.3243  0.3302  0.5075
  724MOL0     C95492   0.462   5.029   4.336 -0.5720 -0.4956  0.0629
  724MOL0     C95493   0.476   4.992   4.200 -0.3764 -0.0583  0.2935
  724MOL0     O95494   0.545   5.076   4.102  0.3832  0.0164 -1.0852
  724MOL0     C95495   0.650   5.158   4.141  0.1110  0.1827  0.3133
  724MOL0     C95496   0.778   5.071   4.163  0.0715 -0.2327  0.8093
  724MOL0     C95497   0.885   5.156   4.215 -0.4176  0.2519  1.3945
  724MOL0     C95498   1.020   5.082   4.227  0.4770  0.6423 -0.0611
  724MOL0     C95499   1.080   5.079   4.096  0.1809 -0.5016 -0.4255
  724MOL0     C95500   1.118   5.063   3.986  0.0237 -0.1394  0.3617
  724MOL0     C95501   0.408   4.883   4.160  1.0521  0.9155 -0.8466
  724MOL0     C95502   0.317   4.817   4.249  0.3361  0.5741  0.3960
  724MOL0     H95503  -0.059   4.808   4.482 -0.7636  0.1642  0.4461
  724MOL0     H95504  -0.257   4.729   4.617  0.6130  0.1736 -1.1067
  724MOL0     H95505  -0.444   4.359   4.699  2.3413 -0.5543  0.4864
  724MOL0     H95506  -0.400   4.397   4.532  0.9221  0.2054  0.3245
  724MOL0     H95507  -0.468   4.646   4.590 -0.6422  0.5791  3.1139
  724MOL0     H95508  -0.531   4.571   4.734  2.7958  1.4421  0.2607
  724MOL0     H95509  -0.603   4.542   4.444  1.3251  0.3870 -1.0094
  724MOL0     H95510  -0.702   4.627   4.565 -0.7046 -0.7439 -1.5377
  724MOL0     H95511  -0.658   4.329   4.560  0.3250  0.9784  1.7426
  724MOL0     H95512  -0.758   4.417   4.674  0.6319  4.1357 -0.1933
  724MOL0     H95513  -0.898   4.493   4.459 -0.9583 -0.4292  0.9890
  724MOL0     H95514  -0.907   4.324   4.501  1.9568 -1.5519  2.5021
  724MOL0     H95515  -0.685   4.415   4.309 -0.5753  1.9714  2.4816
  724MOL0     H95516  -0.861   4.433   4.260 -0.0674  0.2715  0.4137
  724MOL0     H95517  -0.894   4.187   4.312 -0.6334 -1.0321 -3.9765
  724MOL0     H95518  -0.798   4.219   4.170 -1.7524 -2.7447 -0.1703
  724MOL0     H95519  -0.697   4.151   4.443 -1.3003  0.6117 -0.1501
  724MOL0     H95520  -0.597   4.183   4.303 -1.1159  0.1530 -0.8628
  724MOL0     H95521  -0.682   3.909   4.494  1.7570  0.4142 -0.7351
  724MOL0     H95522  -0.748   3.603   4.300 -0.3701  1.4174  0.8195
  724MOL0     H95523  -0.679   3.634   4.454 -0.5155 -0.3660 -0.2681
  724MOL0     H95524  -0.449   3.661   4.325  0.1087  1.0647 -1.9384
  724MOL0     H95525  -0.546   3.604   4.194 -2.4325  0.9774 -0.1173
  724MOL0     H95526  -0.417   3.421   4.292  1.3029  1.5436 -0.9721
  724MOL0     H95527  -0.487   3.439   4.441 -0.0878  1.5118 -0.5053
  724MOL0     H95528  -0.642   3.372   4.171 -2.3007  1.4954  0.4314
  724MOL0     H95529  -0.729   3.396   4.308  0.4909 -2.3365  2.6067
  724MOL0     H95530  -0.400   3.106   4.350 -2.9064  1.2493  2.2871
  724MOL0     H95531  -0.312   2.920   4.201  0.7917  1.8420  0.5431
  724MOL0     H95532  -0.568   2.557   3.922  1.1155 -0.7319  1.5541
  724MOL0     H95533  -0.570   2.359   3.763 -1.0800  0.7097  0.2595
  724MOL0     H95534  -0.314   2.313   3.466 -0.4661 -0.2344  1.9892
  724MOL0     H95535  -0.429   2.400   3.357 -1.6688  1.1630  0.6397
  724MOL0     H95536  -0.560   2.188   3.342 -1.1492  0.5364  3.6946
  724MOL0     H95537  -0.456   2.113   3.452 -0.7684  0.5278  1.3206
  724MOL0     H95538  -0.382   2.227   3.152  0.6288  1.5209  0.6135
  724MOL0     H95539  -0.405   2.059   3.199 -0.8127 -0.0594  0.4004
  724MOL0     H95540  -0.194   2.137   3.142 -0.9952  0.3490  0.1058
  724MOL0     H95541  -0.176   2.238   3.282 -1.3735  1.1479 -1.4875
  724MOL0     H95542  -0.235   1.943   3.287 -1.7348  0.9778 -0.5987
  724MOL0     H95543  -0.196   2.042   3.426  0.7282 -1.2506  0.8698
  724MOL0     H95544  -0.001   1.923   3.383  0.1047  1.5733  1.1112
  724MOL0     H95545   0.020   2.084   3.334 -1.1166  1.1828 -0.3723
  724MOL0     H95546  -0.004   2.005   3.085 -0.3700  0.3598 -0.1370
  724MOL0     H95547   0.136   1.944   3.161 -0.0146 -3.5587 -3.1802
  724MOL0     H95548  -0.123   1.809   3.092 -1.1509  0.1630  0.7386
  724MOL0     H95549  -0.043   1.734   3.221  1.8371  0.2366 -0.7019
  724MOL0     H95550  -0.453   2.617   3.452 -1.1615  2.0734  0.6527
  724MOL0     H95551  -0.438   2.799   3.597 -0.1577 -0.0027  0.2440
  724MOL0     H95552  -0.682   2.926   3.986 -0.0588 -2.8533  2.8989
  724MOL0     H95553  -0.766   3.115   4.123 -0.8707 -1.7062  3.4212
  724MOL0     H95554  -0.088   4.336   4.594  0.3545 -0.0009 -0.3080
  724MOL0     H95555   0.103   4.429   4.488  0.1244  0.6150  2.0437
  724MOL0     H95556   0.405   4.968   4.532 -1.2858  0.9345  0.6836
  724MOL0     H95557   0.507   5.117   4.382  0.6693 -1.3014  0.4472
  724MOL0     H95558   0.631   5.207   4.237  1.8273 -1.4752  1.5512
  724MOL0     H95559   0.670   5.240   4.071 -3.6301  0.7725 -0.2825
  724MOL0     H95560   0.753   4.988   4.231  1.2508 -0.4564  0.9941
  724MOL0     H95561   0.802   5.028   4.066 -0.9420  1.0717 -0.0531
  724MOL0     H95562   0.853   5.201   4.310  1.0612 -2.3283  3.2617
  724MOL0     H95563   0.916   5.234   4.145  0.0564 -0.0068  1.3125
  724MOL0     H95564   1.072   5.125   4.313  0.0276 -0.3775  0.7375
  724MOL0     H95565   0.984   4.983   4.256 -1.2805  1.6198  1.3727
  724MOL0     H95566   1.156   5.038   3.889  0.7775  1.6163  0.1608
  724MOL0     H95567   0.400   4.853   4.056  2.7937 -1.7816 -0.2962
  724MOL0     H95568   0.254   4.739   4.208 -2.2969  2.4635  0.5464
  725MOL0     O95569   3.353   2.176   7.826 -0.3046 -0.2059  0.0453
  725MOL0     C95570   3.401   2.124   7.725 -0.2089  0.6350  0.4334
  725MOL0     O95571   3.359   2.002   7.678  0.7544  0.9076 -0.2021
  725MOL0     C95572   3.222   1.969   7.657  0.6834 -0.0944  0.2473
  725MOL0     C95573   3.121   2.066   7.666  0.6869 -0.4939 -0.4105
  725MOL0     C95574   2.985   2.029   7.643  1.0229  0.2115  0.7335
  725MOL0     C95575   2.958   1.894   7.621  0.4484  1.2958 -1.3691
  725MOL0     O95576   2.829   1.848   7.599 -0.3482 -0.2607  0.9321
  725MOL0     C95577   2.713   1.912   7.659  0.3998 -0.4884 -0.2911
  725MOL0     C95578   2.607   1.807   7.661  0.1591 -1.3827 -1.0100
  725MOL0     C95579   2.621   1.716   7.779 -0.2539  0.9609 -0.4667
  725MOL0     C95580   2.637   1.787   7.921 -0.8550  0.1184 -0.7348
  725MOL0     C95581   2.595   1.679   8.023 -0.1064  0.1299 -0.7238
  725MOL0     C95582   2.691   1.562   8.026 -0.6914 -0.3889 -0.2507
  725MOL0     C95583   2.832   1.605   8.067 -0.6086 -0.4142 -0.3833
  725MOL0     C95584   2.935   1.501   8.068 -0.5833 -0.1579  0.8097
  725MOL0     N95585   2.906   1.404   8.171  0.6084 -0.3044  0.1946
  725MOL0     C95586   2.907   1.406   8.312 -0.0041  0.6110 -0.4855
  725MOL0     C95587   2.885   1.278   8.348 -0.0644  0.0981  0.0322
  725MOL0     C95588   2.905   1.223   8.479 -0.7246  0.5638  0.3419
  725MOL0     C95589   3.047   1.161   8.486 -0.2706 -0.0271  0.2188
  725MOL0     C95590   3.145   1.238   8.579  0.2656  0.2626  0.0709
  725MOL0     C95591   3.283   1.174   8.577  0.0737  0.3013  0.4594
  725MOL0     O95592   3.370   1.253   8.656  0.0697  0.5632 -0.7193
  725MOL0     C95593   3.496   1.189   8.689 -0.7406 -0.3070  0.5835
  725MOL0     C95594   3.588   1.254   8.779  1.1474  0.4078  0.0157
  725MOL0     C95595   3.706   1.204   8.824  0.4189 -0.6186  1.0902
  725MOL0     C95596   3.747   1.082   8.771 -0.2676 -0.0721 -0.9779
  725MOL0     C95597   3.889   1.033   8.789  0.4975  0.6198  0.7077
  725MOL0     O95598   3.916   0.898   8.796 -0.5248  0.1814  0.7299
  725MOL0     C95599   4.046   0.860   8.805 -0.0794  0.1636  0.7804
  725MOL0     C95600   4.134   0.878   8.695  0.1107 -0.5509  0.1619
  725MOL0     C95601   4.269   0.840   8.694 -0.1415  0.1435 -0.4505
  725MOL0     C95602   4.326   0.788   8.813 -0.0679  0.5271  0.1253
  725MOL0     O95603   4.453   0.751   8.824 -0.4231  0.3383 -0.3374
  725MOL0     C95604   4.523   0.749   8.946  0.1211 -0.2810 -0.4274
  725MOL0     C95605   4.677   0.750   8.921  0.3002  0.0034 -0.8000
  725MOL0     C95606   4.761   0.710   9.046  1.0383 -0.4589 -0.3074
  725MOL0     C95607   4.897   0.769   9.022  0.4740 -0.4607  0.2095
  725MOL0     C95608   4.977   0.711   8.903 -0.0660 -0.2625  0.6128
  725MOL0     C95609   5.020   0.570   8.924 -0.5167  0.4189  0.7327
  725MOL0     C95610   5.143   0.548   8.849 -0.0556 -0.2357  0.7146
  725MOL0     C95611   5.167   0.407   8.804 -0.4902  0.8038 -0.5154
  725MOL0    Cl95612   5.193   0.308   8.947  0.1036 -0.2897 -0.1213
  725MOL0     C95613   4.235   0.776   8.923  0.9707  0.5797 -0.4529
  725MOL0     C95614   4.099   0.804   8.922 -0.0274  0.9154 -0.3832
  725MOL0     O95615   3.971   1.121   8.811  0.7042 -0.5205 -0.2260
  725MOL0     C95616   3.655   1.010   8.681 -0.0791 -0.2032  0.3598
  725MOL0     C95617   3.527   1.062   8.645  0.4716  0.2365 -0.0797
  725MOL0     N95618   2.845   1.201   8.235  0.2067 -0.2115  0.1395
  725MOL0     N95619   2.863   1.280   8.131  0.0050 -0.3447 -0.1300
  725MOL0     C95620   3.056   1.795   7.620  0.1293  1.6434  0.1782
  725MOL0     C95621   3.186   1.835   7.639 -0.1985  0.2998  0.9857
  725MOL0     C95622   3.528   2.178   7.680  0.4384  0.9164 -0.5837
  725MOL0     C95623   3.567   2.310   7.712 -0.0798  0.7782 -0.4700
  725MOL0     C95624   3.689   2.361   7.691 -0.4957  0.3288  0.1830
  725MOL0     C95625   3.790   2.275   7.641 -0.5752 -0.0035  0.4689
  725MOL0     O95626   3.922   2.322   7.624 -0.0345  0.5210  0.2262
  725MOL0     C95627   3.978   2.393   7.730 -0.3909  0.0325 -1.1503
  725MOL0     C95628   4.130   2.423   7.705 -0.5329 -0.3058 -0.6453
  725MOL0     C95629   4.201   2.291   7.711  0.1707 -0.1010 -0.0032
  725MOL0     C95630   4.344   2.287   7.648  0.4548 -0.3211 -0.4934
  725MOL0     C95631   4.447   2.351   7.733  0.6147 -1.4335  0.2794
  725MOL0     C95632   4.523   2.407   7.807  0.2962  0.3763 -0.8436
  725MOL0     C95633   3.757   2.141   7.610  0.0610  0.1424  0.7806
  725MOL0     C95634   3.631   2.090   7.634  0.0925  0.0735  0.9875
  725MOL0     H95635   3.143   2.171   7.683  0.9043 -0.6803  0.5187
  725MOL0     H95636   2.903   2.096   7.665  1.9856  0.1891  5.3844
  725MOL0     H95637   2.673   1.989   7.593 -0.0596 -1.7930 -1.5823
  725MOL0     H95638   2.732   1.967   7.752 -0.5539  2.5209 -1.7472
  725MOL0     H95639   2.591   1.746   7.572 -1.2067 -2.2548 -0.1956
  725MOL0     H95640   2.513   1.862   7.671 -0.7283 -2.1501 -4.0184
  725MOL0     H95641   2.702   1.644   7.764 -2.4294 -1.9094  0.8120
  725MOL0     H95642   2.527   1.661   7.773 -1.3589  2.7055 -0.0164
  725MOL0     H95643   2.737   1.830   7.936 -0.5750  0.3532 -2.9851
  725MOL0     H95644   2.567   1.870   7.938 -2.9524 -1.5703 -0.7318
  725MOL0     H95645   2.495   1.641   8.000 -0.1780  0.7134 -1.3890
  725MOL0     H95646   2.592   1.725   8.122  0.5994 -0.8435 -0.2243
  725MOL0     H95647   2.687   1.514   7.928 -0.5586 -2.7088  0.8131
  725MOL0     H95648   2.661   1.482   8.095  2.6667 -1.5617  0.0151
  725MOL0     H95649   2.874   1.677   7.996 -0.8303  1.1726  1.0109
  725MOL0     H95650   2.831   1.666   8.158  1.5034 -1.3741  0.3615
  725MOL0     H95651   3.031   1.551   8.084  0.0019  0.9798 -4.4200
  725MOL0     H95652   2.952   1.459   7.969  1.0972  0.1477  0.9399
  725MOL0     H95653   2.929   1.495   8.371  0.1093  0.2213  0.0638
  725MOL0     H95654   2.834   1.140   8.481 -0.6761  0.4205 -1.7648
  725MOL0     H95655   2.879   1.285   8.566  3.1821  1.3367  1.1486
  725MOL0     H95656   3.091   1.146   8.387 -0.2646 -4.1131  0.6584
  725MOL0     H95657   3.039   1.057   8.519 -0.8456 -0.5692 -1.5599
  725MOL0     H95658   3.137   1.344   8.554 -3.1873  0.3650  1.0252
  725MOL0     H95659   3.116   1.229   8.684  0.4284  0.8839  0.1719
  725MOL0     H95660   3.314   1.181   8.472 -2.2103  2.4560 -0.2087
  725MOL0     H95661   3.273   1.076   8.624 -0.2794  0.6438  1.1175
  725MOL0     H95662   3.537   1.341   8.818  1.0633 -0.6015  2.3126
  725MOL0     H95663   3.770   1.259   8.892 -1.2495  4.0168 -0.6851
  725MOL0     H95664   4.086   0.915   8.605 -2.2972  0.3562  1.7324
  725MOL0     H95665   4.323   0.860   8.602 -0.0021  3.2272  0.2011
  725MOL0     H95666   4.503   0.649   8.987 -0.2517 -0.7809 -1.7646
  725MOL0     H95667   4.495   0.821   9.023 -0.7878 -2.0654  0.9888
  725MOL0     H95668   4.695   0.854   8.894 -0.1927  0.9685  2.2506
  725MOL0     H95669   4.700   0.677   8.842 -2.6571 -2.7533  0.6737
  725MOL0     H95670   4.775   0.602   9.037  1.8878 -0.4608  0.8090
  725MOL0     H95671   4.717   0.732   9.144  1.0992 -1.9206  0.0624
  725MOL0     H95672   4.895   0.878   9.013  1.5847 -0.6409 -4.0313
  725MOL0     H95673   4.952   0.744   9.113  1.0992 -2.6829 -0.7196
  725MOL0     H95674   5.067   0.772   8.908 -2.0056  3.1178 -1.4804
  725MOL0     H95675   4.926   0.724   8.807 -0.0976 -2.5829  0.2520
  725MOL0     H95676   4.942   0.497   8.899 -0.3808  0.9881 -1.5424
  725MOL0     H95677   5.049   0.551   9.028  0.0613 -2.9935  0.0794
  725MOL0     H95678   5.152   0.604   8.755 -2.0536 -0.4220  0.3698
  725MOL0     H95679   5.225   0.577   8.916  0.7921  1.0916 -0.8235
  725MOL0     H95680   5.256   0.401   8.740  0.6859 -1.1761  1.2093
  725MOL0     H95681   5.088   0.358   8.746 -1.1976  0.9391  0.3183
  725MOL0     H95682   4.285   0.740   9.013 -1.4549 -1.1342  0.3109
  725MOL0     H95683   4.049   0.787   9.017 -2.2323 -1.9473 -1.8796
  725MOL0     H95684   3.681   0.913   8.639  0.9203  0.7647 -1.4032
  725MOL0     H95685   3.455   0.995   8.597  2.2226 -2.9615  1.4327
  725MOL0     H95686   3.025   1.692   7.608  2.6833  0.8355 -0.0138
  725MOL0     H95687   3.267   1.762   7.630 -0.4949  0.1553 -0.6841
  725MOL0     H95688   3.491   2.382   7.741  2.7225  4.1340 -0.8315
  725MOL0     H95689   3.715   2.460   7.725  0.4888  2.5238 -5.8003
  725MOL0     H95690   3.960   2.329   7.816  1.8088  1.1747  0.2548
  725MOL0     H95691   3.930   2.487   7.759 -1.0067 -0.8513  0.8618
  725MOL0     H95692   4.132   2.474   7.608  2.1492 -0.6784 -0.8781
  725MOL0     H95693   4.170   2.493   7.779  0.6573 -0.6572 -0.9249
  725MOL0     H95694   4.144   2.222   7.649 -2.1667  2.1614 -0.5321
  725MOL0     H95695   4.218   2.255   7.813 -1.2333  1.8925  1.0018
  725MOL0     H95696   4.375   2.184   7.630  1.6720  0.0282 -0.4651
  725MOL0     H95697   4.334   2.326   7.546 -1.7978  1.3261  0.2688
  725MOL0     H95698   4.576   2.471   7.874 -1.3191  0.2655  0.6130
  725MOL0     H95699   3.830   2.068   7.576  0.0376  0.3102  0.3539
  725MOL0     H95700   3.619   1.983   7.617  0.5380 -0.0781  1.5797
  726MOL0     O95701   3.997   5.206   6.581  0.3122  0.0495  0.8058
  726MOL0     C95702   3.876   5.214   6.547 -0.9243 -0.6637 -0.6398
  726MOL0     O95703   3.814   5.327   6.492 -0.4002  0.1240  0.3479
  726MOL0     C95704   3.903   5.427   6.471 -0.5058 -0.4524  0.6355
  726MOL0     C95705   3.907   5.543   6.556 -0.1668  0.3413  0.1266
  726MOL0     C95706   4.005   5.639   6.531 -0.5580  0.3960 -0.9362
  726MOL0     C95707   4.087   5.634   6.420  1.1820 -0.4959  0.3954
  726MOL0     O95708   4.178   5.726   6.388  0.4994  0.7209  0.2257
  726MOL0     C95709   4.131   5.867   6.383  0.6821 -0.2209  0.3660
  726MOL0     C95710   4.185   5.948   6.494 -0.7532 -1.0530  0.1929
  726MOL0     C95711   4.341   5.989   6.480 -0.2848 -0.2119 -0.3096
  726MOL0     C95712   4.374   6.110   6.576  0.1064  0.5236  0.4936
  726MOL0     C95713   4.485   6.201   6.525  0.5901 -0.0599  0.6672
  726MOL0     C95714   4.493   6.327   6.607  0.2097 -0.1689 -0.0459
  726MOL0     C95715   4.394   6.438   6.576 -0.1107 -0.3667  0.4114
  726MOL0     C95716   4.278   6.452   6.678 -0.2502 -0.5722  1.0237
  726MOL0     N95717   4.159   6.505   6.618  0.4540  0.1078  0.7430
  726MOL0     C95718   4.155   6.601   6.515  0.1291  0.3465  0.5035
  726MOL0     C95719   4.022   6.617   6.498 -0.4709  0.4989  0.1995
  726MOL0     C95720   3.970   6.720   6.398  0.1252 -0.3104  0.3674
  726MOL0     C95721   3.886   6.826   6.474 -0.0567  1.2373  0.6594
  726MOL0     C95722   3.736   6.795   6.498  0.8570  0.4111  0.2907
  726MOL0     C95723   3.660   6.903   6.575  0.8502 -0.8279  1.1514
  726MOL0     O95724   3.639   7.007   6.482  0.2727 -0.2738 -0.4358
  726MOL0     C95725   3.556   7.105   6.523  0.0813 -0.3469  0.1133
  726MOL0     C95726   3.514   7.183   6.410 -0.5149  0.5252  0.3666
  726MOL0     C95727   3.445   7.299   6.426  0.3541 -0.5043  0.1020
  726MOL0     C95728   3.402   7.345   6.549  0.1863 -0.4143 -0.7697
  726MOL0     C95729   3.317   7.466   6.567 -0.8354 -0.2405  0.2879
  726MOL0     O95730   3.322   7.520   6.691  0.2333 -0.6234  0.3993
  726MOL0     C95731   3.268   7.645   6.719 -0.2995  0.1922  0.0360
  726MOL0     C95732   3.128   7.665   6.736  1.0209 -0.2806  0.2122
  726MOL0     C95733   3.087   7.798   6.749  0.3930 -0.2977  0.5802
  726MOL0     C95734   3.171   7.903   6.724  0.1893 -0.0364  0.7663
  726MOL0     O95735   3.115   8.024   6.734 -0.3051  0.2956 -0.0131
  726MOL0     C95736   3.188   8.132   6.790 -0.3758  0.2108  0.8144
  726MOL0     C95737   3.089   8.238   6.839  1.1472  0.0892  0.6450
  726MOL0     C95738   3.160   8.352   6.909 -0.2994  0.8828  0.3390
  726MOL0     C95739   3.051   8.442   6.975  0.3617  0.3526  0.7513
  726MOL0     C95740   3.120   8.571   7.013  0.7576 -0.0610  0.3159
  726MOL0     C95741   3.028   8.664   7.088  0.5858 -0.6260 -0.1543
  726MOL0     C95742   3.072   8.804   7.110 -0.1001 -0.1553  0.4487
  726MOL0     C95743   2.982   8.893   7.187 -0.2344 -0.3288  0.7308
  726MOL0    Cl95744   3.064   9.051   7.209  0.3004 -0.1025 -0.3045
  726MOL0     C95745   3.302   7.885   6.695 -0.3518  0.1817  0.6932
  726MOL0     C95746   3.350   7.752   6.692  0.4309 -0.2411  0.1101
  726MOL0     O95747   3.266   7.514   6.468  0.0867  0.1236 -0.3233
  726MOL0     C95748   3.446   7.272   6.658 -0.1638  0.7591  0.4172
  726MOL0     C95749   3.519   7.151   6.643 -0.3743 -0.8558 -1.2851
  726MOL0     N95750   3.954   6.536   6.589  0.1129  0.4917  0.1465
  726MOL0     N95751   4.034   6.455   6.639 -0.3480 -0.0746 -0.9434
  726MOL0     C95752   4.073   5.529   6.328 -0.5379 -0.4718  0.0819
  726MOL0     C95753   3.983   5.424   6.353  1.5122 -0.0054  0.3187
  726MOL0     C95754   3.800   5.107   6.599 -0.2331  0.4047 -0.7836
  726MOL0     C95755   3.659   5.113   6.584 -0.1662  0.1438  0.0959
  726MOL0     C95756   3.576   5.022   6.650 -1.0753  0.3598 -0.4375
  726MOL0     C95757   3.636   4.915   6.727 -1.2912  0.2713  0.8584
  726MOL0     O95758   3.550   4.823   6.776  0.8256 -0.0952  0.6198
  726MOL0     C95759   3.584   4.717   6.855 -0.7577 -0.1851 -0.1117
  726MOL0     C95760   3.453   4.640   6.879 -0.4204 -0.4107 -0.7986
  726MOL0     C95761   3.431   4.587   7.020  1.2204  0.2998 -0.0356
  726MOL0     C95762   3.544   4.510   7.086  0.5758 -0.3370 -0.0954
  726MOL0     C95763   3.625   4.436   6.987  1.3640  0.4541 -0.3879
  726MOL0     C95764   3.673   4.382   6.891  0.0883  0.2378 -0.1927
  726MOL0     C95765   3.770   4.909   6.746  0.2628 -0.0860  0.3580
  726MOL0     C95766   3.858   5.004   6.678  1.1448  0.2903 -0.0330
  726MOL0     H95767   3.834   5.562   6.633 -2.1404 -1.1917 -1.2509
  726MOL0     H95768   4.015   5.710   6.613  0.2332 -2.4665  1.6275
  726MOL0     H95769   4.022   5.874   6.381  0.6225 -1.0247 -1.4279
  726MOL0     H95770   4.157   5.905   6.283 -1.3452  0.1096 -0.0757
  726MOL0     H95771   4.180   5.893   6.588  0.3689 -0.5099  0.5866
  726MOL0     H95772   4.126   6.040   6.500  0.7343 -0.1347  1.3840
  726MOL0     H95773   4.358   6.030   6.380 -1.9446  3.3093  0.6937
  726MOL0     H95774   4.395   5.898   6.509 -0.8498 -0.8982 -1.3535
  726MOL0     H95775   4.283   6.171   6.576  0.1671  0.6598 -1.2179
  726MOL0     H95776   4.386   6.074   6.678 -1.9970  1.3118  1.0689
  726MOL0     H95777   4.470   6.226   6.420 -1.0261  1.0409  1.1227
  726MOL0     H95778   4.574   6.140   6.540  1.0984  0.1222 -1.2904
  726MOL0     H95779   4.596   6.364   6.608 -0.5746  2.1771  1.2350
  726MOL0     H95780   4.472   6.306   6.713  0.3215 -1.2352 -0.2197
  726MOL0     H95781   4.447   6.532   6.592  1.7153 -1.7009  2.9338
  726MOL0     H95782   4.347   6.427   6.478 -0.1446 -0.6788  0.4613
  726MOL0     H95783   4.307   6.517   6.761  1.2283  1.0106 -0.6236
  726MOL0     H95784   4.268   6.350   6.716  2.6493 -0.3110  2.8027
  726MOL0     H95785   4.242   6.647   6.468  0.8813 -1.3520  0.1734
  726MOL0     H95786   3.932   6.681   6.303  1.6641  0.6500 -0.7048
  726MOL0     H95787   4.064   6.766   6.367  0.8426 -1.7272  0.3645
  726MOL0     H95788   3.881   6.915   6.410  1.8414 -0.3352 -1.9132
  726MOL0     H95789   3.940   6.857   6.563  4.0984  0.7652 -1.4446
  726MOL0     H95790   3.675   6.773   6.409  0.1854 -2.3358  1.3138
  726MOL0     H95791   3.731   6.699   6.550  0.5507 -0.6612 -1.6100
  726MOL0     H95792   3.719   6.945   6.657  2.0203  0.6615 -0.3723
  726MOL0     H95793   3.564   6.857   6.600 -0.3403 -0.6784 -2.4616
  726MOL0     H95794   3.548   7.147   6.313  1.6333  3.5841 -0.1642
  726MOL0     H95795   3.406   7.365   6.350  2.2660  2.4643  1.5174
  726MOL0     H95796   3.061   7.581   6.729 -0.6796  0.7053  3.1672
  726MOL0     H95797   2.982   7.823   6.762 -0.0744 -2.4038  1.3018
  726MOL0     H95798   3.251   8.177   6.713 -4.8208  1.3847 -2.5413
  726MOL0     H95799   3.249   8.095   6.873  1.9689 -1.4975 -1.5296
  726MOL0     H95800   3.018   8.187   6.905  1.6060 -0.1010  0.9983
  726MOL0     H95801   3.039   8.293   6.759  2.5031  0.2001 -0.1499
  726MOL0     H95802   3.212   8.409   6.831  0.5269 -2.1874 -1.5448
  726MOL0     H95803   3.230   8.324   6.989 -1.1607 -0.0600  0.7761
  726MOL0     H95804   2.969   8.461   6.905  0.2169 -0.3742  0.7156
  726MOL0     H95805   3.005   8.390   7.061 -1.5602  1.3352  0.3812
  726MOL0     H95806   3.164   8.624   6.929 -2.7624  0.3639 -1.4601
  726MOL0     H95807   3.203   8.543   7.078 -0.0538  2.3851  2.5788
  726MOL0     H95808   3.002   8.617   7.183 -2.4307 -2.5943 -1.7939
  726MOL0     H95809   2.933   8.664   7.034  0.7280 -1.1105 -0.4074
  726MOL0     H95810   3.168   8.799   7.162  2.2331  1.5982 -3.2262
  726MOL0     H95811   3.084   8.849   7.011 -2.0223  0.7121  0.5678
  726MOL0     H95812   2.944   8.844   7.278 -0.7869 -1.5262 -0.1217
  726MOL0     H95813   2.891   8.918   7.133 -0.9008  2.4366  2.8865
  726MOL0     H95814   3.370   7.967   6.678  0.3405 -0.7936 -1.7637
  726MOL0     H95815   3.456   7.733   6.676  0.3442  0.6788 -1.8746
  726MOL0     H95816   3.422   7.306   6.758  2.5737 -1.8536  2.1303
  726MOL0     H95817   3.554   7.099   6.732  0.3004  0.6905 -0.5979
  726MOL0     H95818   4.135   5.525   6.240 -0.7407 -3.7806 -0.0425
  726MOL0     H95819   3.972   5.336   6.290 -0.7899  1.6959 -1.8773
  726MOL0     H95820   3.617   5.196   6.528  1.3245  0.9805  0.1994
  726MOL0     H95821   3.469   5.024   6.638 -1.0696  1.2239 -0.4563
  726MOL0     H95822   3.617   4.759   6.950  0.6542  1.0441 -1.1133
  726MOL0     H95823   3.666   4.662   6.808 -1.8584 -0.7159 -1.4923
  726MOL0     H95824   3.364   4.700   6.858 -1.2783 -1.5527 -0.4770
  726MOL0     H95825   3.457   4.559   6.806  1.3202 -1.7231  0.6762
  726MOL0     H95826   3.334   4.536   7.015 -0.7823  3.9377 -2.2524
  726MOL0     H95827   3.409   4.669   7.088 -4.2663 -0.1907 -0.7927
  726MOL0     H95828   3.604   4.589   7.133  0.7852  0.6936 -2.0017
  726MOL0     H95829   3.505   4.452   7.170 -0.0041 -0.6318 -0.5605
  726MOL0     H95830   3.711   4.318   6.813 -2.2867 -1.1900 -0.2580
  726MOL0     H95831   3.811   4.830   6.808  3.8507 -0.6356 -2.3787
  726MOL0     H95832   3.964   5.005   6.701  1.4166  2.8252 -1.0502
  727MOL0     O95833  10.054   6.945   9.475  0.1983 -0.5865  0.5605
  727MOL0     C95834  10.039   6.907   9.355 -0.2320 -0.4747 -0.1918
  727MOL0     O95835  10.133   6.854   9.280 -0.1411 -0.0006  0.1910
  727MOL0     C95836  10.245   6.821   9.339 -0.2984  0.0717 -0.4300
  727MOL0     C95837  10.364   6.867   9.285 -0.4004  0.9903 -0.2824
  727MOL0     C95838  10.489   6.828   9.338  1.3262  0.4323 -0.3677
  727MOL0     C95839  10.492   6.751   9.448 -0.0845 -0.3460 -0.3895
  727MOL0     O95840  10.599   6.714   9.525  0.1946 -0.1423  0.0798
  727MOL0     C95841  10.728   6.719   9.459  0.8242  0.6715 -0.8344
  727MOL0     C95842  10.830   6.610   9.527  0.5012 -0.2810 -0.4682
  727MOL0     C95843  10.752   6.476   9.527  0.5321 -0.5701 -0.3067
  727MOL0     C95844  10.850   6.370   9.582 -0.6792  0.3837 -1.1207
  727MOL0     C95845  10.768   6.231   9.591 -0.8962  0.1840 -0.0842
  727MOL0     C95846  10.857   6.127   9.663  0.1951 -1.2441  0.1275
  727MOL0     C95847  10.968   6.073   9.576 -0.5155  0.1468  0.3120
  727MOL0     C95848  11.040   5.968   9.666  0.3881 -0.0413 -0.0468
  727MOL0     N95849  11.174   5.950   9.615  0.0827 -0.7549 -1.1002
  727MOL0     C95850  11.209   5.939   9.482  0.0647  0.3755 -0.3098
  727MOL0     C95851  11.340   5.920   9.480 -1.0311  0.0385 -0.4121
  727MOL0     C95852  11.439   5.908   9.360  0.0567  0.0742  0.0424
  727MOL0     C95853  11.482   5.765   9.339 -0.0246 -0.3390 -0.2874
  727MOL0     C95854  11.600   5.738   9.429 -0.8869 -0.5183 -0.9378
  727MOL0     C95855  11.635   5.597   9.428  0.5229  0.0303  0.1688
  727MOL0     O95856  11.686   5.546   9.551 -0.2216 -0.3323 -0.4340
  727MOL0     C95857  11.817   5.489   9.549  0.3198 -0.4571 -0.2882
  727MOL0     C95858  11.925   5.555   9.606 -0.0948  0.4064 -0.0430
  727MOL0     C95859  12.047   5.488   9.616 -0.9210  1.0449 -0.2695
  727MOL0     C95860  12.074   5.359   9.561  0.6144 -0.3276  0.3429
  727MOL0     C95861  12.196   5.288   9.590  0.5113  0.3000  0.0624
  727MOL0     O95862  12.316   5.365   9.617 -0.5617  0.0882  0.7010
  727MOL0     C95863  12.431   5.294   9.625 -0.4827  0.4539 -0.3967
  727MOL0     C95864  12.463   5.202   9.729 -0.7413  0.3716  0.1635
  727MOL0     C95865  12.584   5.127   9.717 -0.5787  0.5567 -0.0005
  727MOL0     C95866  12.662   5.140   9.606  0.6501 -0.3979 -0.2558
  727MOL0     O95867  12.771   5.057   9.611  0.0088 -0.5199 -0.4978
  727MOL0     C95868  12.831   5.013   9.495 -0.2732 -0.3354 -0.1788
  727MOL0     C95869  12.917   4.892   9.519  0.3000 -0.4025  0.4539
  727MOL0     C95870  12.827   4.777   9.554 -0.4328  0.1339  0.2095
  727MOL0     C95871  12.903   4.637   9.554 -0.8707 -1.5883 -0.0402
  727MOL0     C95872  12.817   4.509   9.554  0.7061 -0.2570  0.3483
  727MOL0     C95873  12.709   4.522   9.670 -0.4747 -0.5400 -0.1387
  727MOL0     C95874  12.632   4.389   9.675 -0.5059 -0.3787  0.5871
  727MOL0     C95875  12.504   4.414   9.760  0.6176 -0.0366  0.0501
  727MOL0    Cl95876  12.522   4.448   9.928 -0.2675  0.1243 -0.1772
  727MOL0     C95877  12.626   5.234   9.512 -0.6180  1.0681  0.3963
  727MOL0     C95878  12.510   5.306   9.518 -0.3858 -0.6223  0.3235
  727MOL0     O95879  12.189   5.174   9.578 -0.9661 -0.9567  0.2983
  727MOL0     C95880  11.973   5.305   9.491 -0.3711 -0.6420  0.3147
  727MOL0     C95881  11.847   5.364   9.489  0.3984  0.3170  0.5773
  727MOL0     N95882  11.377   5.921   9.614 -0.0608  0.6769  0.3273
  727MOL0     N95883  11.277   5.933   9.693  0.4315  0.4321  0.3795
  727MOL0     C95884  10.372   6.714   9.517 -0.5785  0.4273 -0.2221
  727MOL0     C95885  10.253   6.745   9.454 -0.1938 -0.2628 -0.3865
  727MOL0     C95886   9.911   6.942   9.293  0.6731  0.8984  0.7015
  727MOL0     C95887   9.866   6.857   9.192 -0.6319  0.6942 -0.4577
  727MOL0     C95888   9.747   6.890   9.124 -0.7940  0.4987 -0.1853
  727MOL0     C95889   9.661   6.990   9.170 -0.4872  0.0911 -0.4416
  727MOL0     O95890   9.548   7.008   9.098 -1.3682  1.2775 -0.8812
  727MOL0     C95891   9.436   7.086   9.151  0.1594 -0.0916 -0.7259
  727MOL0     C95892   9.323   7.069   9.049 -0.8749  0.6027 -0.1418
  727MOL0     C95893   9.303   6.926   8.991  0.6445  1.0278  0.0751
  727MOL0     C95894   9.165   6.902   8.925  0.0950  0.6925 -0.7629
  727MOL0     C95895   9.054   6.904   9.009 -0.1155  1.6794 -0.0851
  727MOL0     C95896   8.964   6.899   9.090 -0.5289 -0.9295 -0.6391
  727MOL0     C95897   9.704   7.078   9.271 -0.3399  0.1484 -0.1603
  727MOL0     C95898   9.823   7.049   9.337  0.6885 -0.8811 -0.4018
  727MOL0     H95899  10.364   6.929   9.196  0.3562  0.7977 -0.4240
  727MOL0     H95900  10.578   6.848   9.279 -0.8380  0.1218 -4.0223
  727MOL0     H95901  10.774   6.817   9.475  0.6491  0.7110 -0.5572
  727MOL0     H95902  10.723   6.704   9.351 -0.4103  2.1913 -1.0164
  727MOL0     H95903  10.861   6.646   9.625  0.2821  2.6807 -1.3957
  727MOL0     H95904  10.925   6.607   9.473  1.4039 -0.2471  1.0690
  727MOL0     H95905  10.705   6.447   9.433  1.8167 -0.4334 -1.0223
  727MOL0     H95906  10.668   6.498   9.594  2.8908  3.9405  1.6772
  727MOL0     H95907  10.937   6.351   9.518  0.7120 -4.7388  1.6607
  727MOL0     H95908  10.883   6.402   9.681 -2.3219 -1.4960  0.1180
  727MOL0     H95909  10.724   6.193   9.498 -0.8129  1.3343 -0.6087
  727MOL0     H95910  10.685   6.250   9.659 -0.8646  0.5480 -0.1448
  727MOL0     H95911  10.788   6.055   9.709 -0.8666  0.3967  1.2196
  727MOL0     H95912  10.909   6.170   9.749  0.5775  0.4074 -0.9021
  727MOL0     H95913  10.925   6.033   9.483  2.3627 -1.5532 -0.4163
  727MOL0     H95914  11.045   6.148   9.556 -1.0197  0.0165 -2.7113
  727MOL0     H95915  10.988   5.872   9.663 -2.6071  1.2909  3.0078
  727MOL0     H95916  11.030   6.005   9.768  1.5669 -1.9844  0.8172
  727MOL0     H95917  11.147   5.948   9.393  0.0380 -1.9980 -0.5919
  727MOL0     H95918  11.529   5.969   9.369  0.1895  0.4709 -2.9638
  727MOL0     H95919  11.406   5.928   9.257 -0.4419 -1.7548 -0.2005
  727MOL0     H95920  11.506   5.747   9.234  1.2583 -3.3070  0.4150
  727MOL0     H95921  11.407   5.693   9.373 -0.4524  0.0986 -0.2932
  727MOL0     H95922  11.686   5.796   9.393 -0.9834 -0.7638 -1.5753
  727MOL0     H95923  11.591   5.781   9.529  3.7672 -0.2632 -0.4065
  727MOL0     H95924  11.700   5.584   9.341 -0.6344 -1.1510 -0.5687
  727MOL0     H95925  11.547   5.536   9.404 -1.3599  2.7524 -0.2387
  727MOL0     H95926  11.929   5.657   9.641 -0.4663 -0.3375  2.3264
  727MOL0     H95927  12.129   5.529   9.674  1.0040 -1.4577 -1.0891
  727MOL0     H95928  12.400   5.207   9.817 -3.0133  4.3396 -1.3850
  727MOL0     H95929  12.618   5.053   9.789 -1.2664 -0.8489 -1.0568
  727MOL0     H95930  12.904   5.085   9.456 -0.2783 -1.1888 -1.8310
  727MOL0     H95931  12.758   4.990   9.417  0.8383 -2.5078 -0.6420
  727MOL0     H95932  12.993   4.919   9.593  1.2156  0.0617 -0.6353
  727MOL0     H95933  12.972   4.866   9.428  2.4686 -2.8490  2.3110
  727MOL0     H95934  12.737   4.772   9.492 -0.0321 -0.8772 -0.3321
  727MOL0     H95935  12.802   4.792   9.659 -1.0833 -1.2406  0.2676
  727MOL0     H95936  12.965   4.634   9.464 -0.4547  1.7252 -0.0042
  727MOL0     H95937  12.975   4.638   9.637 -2.2441  5.0621  1.6792
  727MOL0     H95938  12.875   4.422   9.582  1.2236 -1.2342 -3.2411
  727MOL0     H95939  12.760   4.504   9.460 -0.3705  0.5346  0.9389
  727MOL0     H95940  12.639   4.597   9.630  0.6288 -0.6706 -2.5157
  727MOL0     H95941  12.748   4.548   9.769 -0.5092  2.5602 -0.8300
  727MOL0     H95942  12.602   4.369   9.572 -2.5293 -0.3236  1.1307
  727MOL0     H95943  12.693   4.310   9.718 -1.4447 -1.7433 -0.5108
  727MOL0     H95944  12.433   4.331   9.750  0.0883  0.1213  2.1977
  727MOL0     H95945  12.451   4.501   9.719  0.8084  1.8184  3.3954
  727MOL0     H95946  12.680   5.256   9.420  0.8315  0.1343  1.0023
  727MOL0     H95947  12.476   5.361   9.431  0.9266  0.2357  0.3128
  727MOL0     H95948  11.984   5.213   9.434  0.7852 -1.0332  1.1330
  727MOL0     H95949  11.761   5.313   9.448  0.0583  0.7182  0.7859
  727MOL0     H95950  10.379   6.646   9.601  0.8301 -1.6400 -1.9181
  727MOL0     H95951  10.164   6.735   9.515  0.6537  0.2434  0.9834
  727MOL0     H95952   9.916   6.764   9.166 -0.1790  1.3920 -2.2154
  727MOL0     H95953   9.702   6.823   9.052  3.2096  0.5266 -3.0392
  727MOL0     H95954   9.457   7.193   9.156 -0.5056 -0.0004  2.6443
  727MOL0     H95955   9.410   7.055   9.253  0.7725 -1.2661 -0.9131
  727MOL0     H95956   9.231   7.113   9.089  0.3403  4.1439 -0.8917
  727MOL0     H95957   9.357   7.117   8.957  1.0703 -3.5046 -1.8407
  727MOL0     H95958   9.312   6.848   9.067 -2.9507  1.2247  0.8611
  727MOL0     H95959   9.379   6.917   8.912  0.2437 -1.1300 -0.1404
  727MOL0     H95960   9.147   6.974   8.845  5.0529  2.2954 -0.8363
  727MOL0     H95961   9.169   6.798   8.893  1.8990  0.1063  1.1109
  727MOL0     H95962   8.905   6.887   9.179  1.1763 -1.0317  0.5180
  727MOL0     H95963   9.630   7.148   9.310 -1.6960 -2.5063  2.3819
  727MOL0     H95964   9.849   7.107   9.425 -1.0762 -0.0761 -0.3681
  728MOL0     O95965   6.479   9.940   0.240 -0.2302  0.1300 -0.5946
  728MOL0     C95966   6.388   9.870   0.285 -0.2668 -1.0923  0.6398
  728MOL0     O95967   6.255   9.885   0.257 -0.0878  0.1233 -0.7182
  728MOL0     C95968   6.213   9.980   0.165 -0.8603 -0.5205 -0.9605
  728MOL0     C95969   6.151  10.099   0.208  0.1607  1.0755 -0.9722
  728MOL0     C95970   6.099  10.196   0.121  0.1601 -0.2031  0.8487
  728MOL0     C95971   6.116  10.177  -0.020  0.3660  0.2484 -0.8867
  728MOL0     O95972   6.081  10.285  -0.093  0.4779 -0.6532  0.1074
  728MOL0     C95973   6.134  10.297  -0.225 -0.4229  0.4838  0.4010
  728MOL0     C95974   6.137  10.443  -0.261 -0.9715  0.0621  0.5158
  728MOL0     C95975   6.216  10.472  -0.397 -0.0101  0.0540  0.3850
  728MOL0     C95976   6.363  10.470  -0.396  0.2294 -1.4444 -0.0050
  728MOL0     C95977   6.433  10.454  -0.533  0.8316 -0.4291  0.1654
  728MOL0     C95978   6.421  10.586  -0.612  0.1079  0.9231 -0.1387
  728MOL0     C95979   6.493  10.598  -0.749 -0.0421 -0.6010 -0.2081
  728MOL0     C95980   6.432  10.489  -0.836 -0.4096 -1.0158  0.1287
  728MOL0     N95981   6.476  10.509  -0.969  0.8860 -0.7200 -0.1604
  728MOL0     C95982   6.398  10.530  -1.073  0.1233 -0.6027  0.7532
  728MOL0     C95983   6.482  10.547  -1.180  0.2855  1.4190  0.3951
  728MOL0     C95984   6.458  10.583  -1.325 -0.2436 -0.2827  0.6942
  728MOL0     C95985   6.378  10.712  -1.344 -0.1380  1.0850 -1.1999
  728MOL0     C95986   6.307  10.723  -1.482 -0.2431  0.1630 -0.3598
  728MOL0     C95987   6.338  10.850  -1.553 -0.0712 -0.3309 -0.3889
  728MOL0     O95988   6.476  10.838  -1.581 -0.5047  0.0276 -0.1783
  728MOL0     C95989   6.536  10.901  -1.688  1.1169  0.1482  1.2200
  728MOL0     C95990   6.671  10.872  -1.714  0.7017  0.2299  0.2126
  728MOL0     C95991   6.749  10.933  -1.813  0.0818 -0.3909  0.2712
  728MOL0     C95992   6.689  11.041  -1.886 -0.6253  0.7884  0.2731
  728MOL0     C95993   6.764  11.119  -1.985 -0.3169  0.2443  0.1628
  728MOL0     O95994   6.883  11.075  -2.022 -0.5793 -0.6129 -0.2974
  728MOL0     C95995   6.941  11.143  -2.128 -0.6265  0.4598  0.7554
  728MOL0     C95996   6.879  11.141  -2.258 -0.2930 -0.5428 -1.2136
  728MOL0     C95997   6.943  11.205  -2.363 -0.6580 -0.4768  0.9337
  728MOL0     C95998   7.075  11.264  -2.348  0.2200 -1.3900 -0.7631
  728MOL0     O95999   7.146  11.317  -2.451 -0.0432 -0.1134  0.0519
  728MOL0     C96000   7.089  11.421  -2.534  0.5296  0.2592  0.7491
  728MOL0     C96001   7.160  11.416  -2.675 -0.5886  0.4882 -0.0602
  728MOL0     C96002   7.090  11.458  -2.798  0.3631 -0.2195  0.0040
  728MOL0     C96003   7.142  11.400  -2.930 -0.3202 -0.2038 -0.2767
  728MOL0     C96004   7.086  11.493  -3.042  0.0963  0.7062  0.7146
  728MOL0     C96005   7.146  11.455  -3.171  0.0724  0.5626  0.8428
  728MOL0     C96006   7.073  11.521  -3.286  0.4852 -0.7585  0.1694
  728MOL0     C96007   7.108  11.439  -3.413  1.0970 -0.0912 -0.4045
  728MOL0    Cl96008   7.285  11.437  -3.448 -0.3591 -0.1680  0.2218
  728MOL0     C96009   7.132  11.267  -2.224 -0.9344 -1.1538  0.3054
  728MOL0     C96010   7.066  11.208  -2.114 -0.1238  0.9310 -0.3120
  728MOL0     O96011   6.721  11.233  -2.005 -0.0705 -0.3107  0.2761
  728MOL0     C96012   6.546  11.069  -1.861  0.4595  0.5060  0.0490
  728MOL0     C96013   6.480  11.000  -1.761  0.0103 -0.6766  0.2270
  728MOL0     N96014   6.606  10.519  -1.135 -0.6499 -0.1442  0.2217
  728MOL0     N96015   6.606  10.480  -1.011 -0.6289  1.0271 -0.1454
  728MOL0     C96016   6.178  10.061  -0.065  0.8479  0.7510  0.5861
  728MOL0     C96017   6.217   9.961   0.024 -0.5141 -0.4479 -0.0937
  728MOL0     C96018   6.424   9.750   0.374  0.1576 -1.0726 -0.7600
  728MOL0     C96019   6.339   9.640   0.366 -0.6797 -0.6502  0.0718
  728MOL0     C96020   6.368   9.521   0.434  1.0410  0.1892 -0.0968
  728MOL0     C96021   6.482   9.507   0.508 -1.1128 -0.5046  0.5857
  728MOL0     O96022   6.524   9.383   0.555  0.2006  0.7927  0.7136
  728MOL0     C96023   6.430   9.273   0.575 -0.6927 -0.4206  0.6218
  728MOL0     C96024   6.451   9.185   0.449  0.0857  0.4896  0.5169
  728MOL0     C96025   6.373   9.052   0.444  0.5942  0.4981 -1.5509
  728MOL0     C96026   6.392   8.960   0.574 -0.6125 -0.5600  0.6031
  728MOL0     C96027   6.328   8.834   0.552 -0.2969  0.0155 -0.0749
  728MOL0     C96028   6.286   8.723   0.548  0.2068  0.4515 -0.8980
  728MOL0     C96029   6.567   9.613   0.516  0.0599 -0.2552  0.5598
  728MOL0     C96030   6.537   9.736   0.452 -0.3253  0.6342  0.2536
  728MOL0     H96031   6.148  10.113   0.315  1.0064  4.1485 -1.2599
  728MOL0     H96032   6.045  10.281   0.160 -1.9122 -1.5308  1.0434
  728MOL0     H96033   6.074  10.241  -0.298  1.2475  1.2670 -1.6697
  728MOL0     H96034   6.238  10.264  -0.232  0.3643  3.0584 -1.7419
  728MOL0     H96035   6.172  10.507  -0.179 -1.7307 -0.2587  1.1103
  728MOL0     H96036   6.033  10.465  -0.285 -0.4310 -0.7712 -3.0944
  728MOL0     H96037   6.173  10.567  -0.431 -1.3640 -0.9680 -0.8787
  728MOL0     H96038   6.193  10.394  -0.469  1.1631  1.6150 -1.8149
  728MOL0     H96039   6.408  10.551  -0.338  2.2218 -1.9173 -0.7983
  728MOL0     H96040   6.398  10.384  -0.339 -4.0394 -2.9198  0.7909
  728MOL0     H96041   6.395  10.365  -0.584  1.6601 -0.2589 -0.7876
  728MOL0     H96042   6.541  10.441  -0.521  0.7987 -2.0532 -0.9500
  728MOL0     H96043   6.460  10.672  -0.557  1.6420  0.5099 -0.5174
  728MOL0     H96044   6.312  10.593  -0.624 -0.2276 -1.1716  1.0887
  728MOL0     H96045   6.472  10.700  -0.780  3.0999  1.0061  2.4191
  728MOL0     H96046   6.600  10.576  -0.750  0.2190  0.5036  0.9119
  728MOL0     H96047   6.323  10.490  -0.828 -0.6706  1.2096 -2.3194
  728MOL0     H96048   6.472  10.394  -0.799  0.7803 -0.1306  1.2428
  728MOL0     H96049   6.292  10.550  -1.062  0.4064 -0.4802  4.4978
  728MOL0     H96050   6.396  10.502  -1.364 -0.9098  0.7802 -0.5748
  728MOL0     H96051   6.553  10.585  -1.380 -1.3757  3.4184 -1.5485
  728MOL0     H96052   6.446  10.798  -1.334  0.3890  0.6693 -1.1186
  728MOL0     H96053   6.309  10.721  -1.260 -1.0847 -2.6070 -1.4089
  728MOL0     H96054   6.346  10.642  -1.544 -1.4492 -2.9380  2.6336
  728MOL0     H96055   6.198  10.721  -1.476 -0.2835  2.6678  1.2469
  728MOL0     H96056   6.313  10.941  -1.496  0.5585  1.7633 -3.2266
  728MOL0     H96057   6.276  10.851  -1.643 -1.7543  0.1997  0.7145
  728MOL0     H96058   6.721  10.799  -1.650 -0.8598 -2.4004 -1.3932
  728MOL0     H96059   6.856  10.915  -1.820  0.6732  2.4868  0.7251
  728MOL0     H96060   6.788  11.085  -2.272  1.1066 -3.2222 -0.3200
  728MOL0     H96061   6.897  11.205  -2.461 -2.7279 -2.4287  1.8167
  728MOL0     H96062   7.118  11.523  -2.509 -2.1004  1.4277 -0.5208
  728MOL0     H96063   6.983  11.403  -2.553  0.9594 -2.3956  0.4618
  728MOL0     H96064   7.187  11.316  -2.709 -2.2100  0.2827 -0.8289
  728MOL0     H96065   7.251  11.476  -2.666 -1.1916  1.0760  4.0938
  728MOL0     H96066   7.097  11.567  -2.796 -2.3291  0.0223 -0.2958
  728MOL0     H96067   6.984  11.432  -2.791 -0.5635  0.8881 -5.4340
  728MOL0     H96068   7.250  11.419  -2.930 -0.3766  0.2314  1.1152
  728MOL0     H96069   7.125  11.293  -2.943  1.0806 -0.2814 -1.7927
  728MOL0     H96070   7.117  11.597  -3.034 -0.4556  0.9411 -0.1100
  728MOL0     H96071   6.978  11.475  -3.049  0.0394  1.1644  0.3981
  728MOL0     H96072   7.121  11.348  -3.173  0.1256  0.5283 -2.0797
  728MOL0     H96073   7.252  11.482  -3.169 -0.4366  2.7358  2.1096
  728MOL0     H96074   6.964  11.524  -3.275  0.5703 -1.2380  1.2316
  728MOL0     H96075   7.110  11.624  -3.283  0.2090 -0.5791 -1.5923
  728MOL0     H96076   7.055  11.480  -3.499 -0.5438 -1.5149 -0.1379
  728MOL0     H96077   7.061  11.340  -3.413 -4.0781  2.0353 -0.2209
  728MOL0     H96078   7.226  11.316  -2.199 -2.3468  1.0732  1.5255
  728MOL0     H96079   7.101  11.240  -2.016 -0.9375  2.6725 -0.5433
  728MOL0     H96080   6.497  11.132  -1.934  0.0659 -2.0771 -2.0589
  728MOL0     H96081   6.375  11.026  -1.756 -0.5778 -2.6492 -0.6225
  728MOL0     H96082   6.183  10.034  -0.171  1.2069 -1.3251  1.0892
  728MOL0     H96083   6.260   9.868  -0.013  1.4472 -0.0825  1.1055
  728MOL0     H96084   6.248   9.641   0.307 -0.5106 -1.1645 -0.2023
  728MOL0     H96085   6.300   9.439   0.411  1.6719 -0.2598 -0.4029
  728MOL0     H96086   6.331   9.315   0.596 -0.2078  1.2667 -0.2292
  728MOL0     H96087   6.461   9.215   0.663 -0.0618  0.0148  0.6930
  728MOL0     H96088   6.455   9.232   0.351  3.3412  0.6637  0.6002
  728MOL0     H96089   6.552   9.142   0.451 -0.6913 -1.4256  0.1381
  728MOL0     H96090   6.396   8.999   0.351 -0.3231 -0.4909 -1.2374
  728MOL0     H96091   6.268   9.084   0.440 -1.4265 -4.6282  1.1595
  728MOL0     H96092   6.497   8.937   0.593 -0.2912 -0.2981 -0.7659
  728MOL0     H96093   6.362   9.005   0.669 -1.4571  0.9984 -0.3613
  728MOL0     H96094   6.230   8.632   0.551 -1.1161  1.1986  3.1013
  728MOL0     H96095   6.660   9.596   0.569  0.0403 -0.5917  0.4862
  728MOL0     H96096   6.597   9.820   0.483 -0.4042  0.2373  1.5699
  729MOL0     O96097   1.993   7.225   4.744  0.5528 -0.5036 -0.2576
  729MOL0     C96098   2.070   7.320   4.724 -0.1972 -0.1779  1.0998
  729MOL0     O96099   2.087   7.431   4.797 -0.6236  0.1732  0.4900
  729MOL0     C96100   2.045   7.432   4.933  0.5107 -0.3653  1.0439
  729MOL0     C96101   1.939   7.523   4.954 -0.3412  0.4525 -0.8603
  729MOL0     C96102   1.899   7.539   5.088 -0.5957 -0.2768  0.4257
  729MOL0     C96103   1.975   7.486   5.198 -0.0169  0.6536 -0.5257
  729MOL0     O96104   1.948   7.518   5.330 -0.3463 -0.2722 -0.1686
  729MOL0     C96105   1.878   7.634   5.369  0.4508 -0.8152 -0.0165
  729MOL0     C96106   1.882   7.684   5.518  0.3804  0.2107  0.2732
  729MOL0     C96107   2.022   7.705   5.559  0.6192 -0.3006 -0.4453
  729MOL0     C96108   2.047   7.747   5.714  0.7293  0.0112 -0.3153
  729MOL0     C96109   1.957   7.863   5.763 -0.3175 -0.4293 -0.8281
  729MOL0     C96110   1.968   7.994   5.670  0.4961 -0.2310 -0.9698
  729MOL0     C96111   1.971   8.126   5.749 -0.3293  0.0118  0.3375
  729MOL0     C96112   2.117   8.158   5.781  0.0278 -0.6880 -0.8246
  729MOL0     N96113   2.122   8.292   5.832  0.5056  1.0555  0.3798
  729MOL0     C96114   2.092   8.312   5.963 -0.1907 -0.6816  0.3919
  729MOL0     C96115   2.068   8.446   5.970  0.0639 -0.2894  0.3686
  729MOL0     C96116   2.019   8.511   6.091  0.8729  0.5277  0.8365
  729MOL0     C96117   2.116   8.600   6.167  0.4179 -0.1493  0.4833
  729MOL0     C96118   2.199   8.698   6.082 -0.4624 -0.1949 -0.3824
  729MOL0     C96119   2.120   8.823   6.038  1.1806  0.1052 -0.6317
  729MOL0     O96120   2.075   8.901   6.157  0.1321 -0.1115  0.0091
  729MOL0     C96121   2.144   9.004   6.202 -0.1238  0.6448 -0.3391
  729MOL0     C96122   2.276   9.030   6.165 -0.1728  0.1577  1.0420
  729MOL0     C96123   2.336   9.150   6.213 -0.6409  0.3084 -0.5091
  729MOL0     C96124   2.266   9.242   6.291  0.4641 -0.2520  0.2435
  729MOL0     C96125   2.317   9.384   6.302  1.4128  1.1586 -0.8212
  729MOL0     O96126   2.400   9.434   6.210 -0.1643  0.3023 -0.0472
  729MOL0     C96127   2.451   9.557   6.238  0.0774  0.4935  0.7464
  729MOL0     C96128   2.581   9.571   6.272 -0.1215 -0.3171 -0.7905
  729MOL0     C96129   2.635   9.709   6.288 -0.6581  0.1562 -0.3277
  729MOL0     C96130   2.546   9.822   6.298  0.4243 -0.0500 -0.3153
  729MOL0     O96131   2.593   9.945   6.341  0.2943 -0.7397  0.2882
  729MOL0     C96132   2.730   9.967   6.367 -1.3748  0.2066 -0.5014
  729MOL0     C96133   2.746  10.110   6.398  0.1421  1.7560  0.7193
  729MOL0     C96134   2.898  10.136   6.421 -0.3135 -0.3760 -0.5644
  729MOL0     C96135   2.938  10.275   6.387 -0.1977  0.1257 -0.1416
  729MOL0     C96136   3.081  10.306   6.433 -0.0843  0.0745  0.1772
  729MOL0     C96137   3.110  10.463   6.412 -0.3756  0.5302  0.1723
  729MOL0     C96138   3.208  10.519   6.515  0.3804  0.2983 -0.1341
  729MOL0     C96139   3.352  10.452   6.497  0.4085 -0.3276 -0.2657
  729MOL0    Cl96140   3.411  10.505   6.338  0.0349  0.3671 -0.1755
  729MOL0     C96141   2.416   9.798   6.258  0.8850  0.0520 -0.0014
  729MOL0     C96142   2.373   9.670   6.224  0.9193 -1.1583 -0.0237
  729MOL0     O96143   2.285   9.439   6.408 -0.1565  0.9410  0.4960
  729MOL0     C96144   2.139   9.207   6.338 -0.0546  0.6923 -0.3336
  729MOL0     C96145   2.083   9.080   6.298 -0.3760  1.1302  0.2575
  729MOL0     N96146   2.071   8.502   5.843 -0.3609 -0.8123 -0.0473
  729MOL0     N96147   2.108   8.407   5.761 -0.1126  0.4038 -0.1329
  729MOL0     C96148   2.063   7.380   5.172  0.4317 -1.4530 -1.0332
  729MOL0     C96149   2.101   7.355   5.041  0.0968 -0.1646  0.7565
  729MOL0     C96150   2.158   7.321   4.605 -0.5232  1.3670  0.1572
  729MOL0     C96151   2.225   7.431   4.561 -0.8900 -1.0259  0.4397
  729MOL0     C96152   2.304   7.425   4.443  0.0748  0.0549  0.5478
  729MOL0     C96153   2.313   7.306   4.365  0.4604 -0.1264 -0.9791
  729MOL0     O96154   2.405   7.292   4.264 -0.1011 -0.0271  0.1157
  729MOL0     C96155   2.415   7.171   4.180 -0.6237 -0.7608  0.5183
  729MOL0     C96156   2.464   7.198   4.037 -0.5455  0.8713 -0.6042
  729MOL0     C96157   2.356   7.266   3.951  0.9217 -0.4084 -0.2688
  729MOL0     C96158   2.414   7.324   3.827  0.8458  0.0906 -0.6511
  729MOL0     C96159   2.322   7.304   3.720  0.0081  0.2235  0.8133
  729MOL0     C96160   2.261   7.303   3.615 -0.1394  0.9295 -0.1326
  729MOL0     C96161   2.249   7.197   4.420  0.2944  0.7177  0.1626
  729MOL0     C96162   2.170   7.204   4.537  0.0801 -0.5919 -0.5164
  729MOL0     H96163   1.902   7.573   4.865 -0.3158 -1.4550 -2.0097
  729MOL0     H96164   1.824   7.613   5.112 -1.5093 -1.1900  0.4579
  729MOL0     H96165   1.773   7.621   5.340  1.0978 -1.4996 -2.1921
  729MOL0     H96166   1.916   7.706   5.297 -1.2556  0.6070  0.4453
  729MOL0     H96167   1.838   7.612   5.588  0.5471  0.8759  1.0817
  729MOL0     H96168   1.825   7.778   5.511  0.4320  0.2309  0.1349
  729MOL0     H96169   2.066   7.777   5.489 -0.0774  0.6941  0.1032
  729MOL0     H96170   2.077   7.611   5.547  0.1284 -1.0038  2.1432
  729MOL0     H96171   2.011   7.657   5.766 -2.1718 -0.0636 -2.2231
  729MOL0     H96172   2.153   7.773   5.725  0.8397 -0.6634  0.3070
  729MOL0     H96173   1.985   7.869   5.869 -2.1184 -1.4478 -0.2383
  729MOL0     H96174   1.851   7.836   5.755 -0.4149  0.2634 -2.1767
  729MOL0     H96175   1.882   7.988   5.603 -0.0774  1.1538 -0.4039
  729MOL0     H96176   2.059   7.982   5.611  0.8252 -0.9497 -0.3356
  729MOL0     H96177   1.951   8.202   5.673  3.6202 -0.1316 -1.0760
  729MOL0     H96178   1.900   8.132   5.832 -0.3919 -1.2567  0.3840
  729MOL0     H96179   2.175   8.139   5.690 -1.0552 -0.0965 -1.6577
  729MOL0     H96180   2.141   8.088   5.862 -1.3937  1.3059  1.4786
  729MOL0     H96181   2.089   8.233   6.037 -1.8104 -2.6795 -1.6682
  729MOL0     H96182   1.966   8.438   6.153  0.3842  1.0477  1.0353
  729MOL0     H96183   1.939   8.577   6.057  0.9242  0.4382  0.5406
  729MOL0     H96184   2.185   8.538   6.225 -1.3961 -2.9222 -0.1619
  729MOL0     H96185   2.049   8.656   6.232  1.1999  2.1637 -0.5599
  729MOL0     H96186   2.286   8.725   6.143  0.0549 -1.2670 -0.6129
  729MOL0     H96187   2.242   8.643   5.998  3.7123 -1.9254  2.5079
  729MOL0     H96188   2.035   8.785   5.980  1.8388 -0.3352 -1.3397
  729MOL0     H96189   2.184   8.880   5.969  2.8929  0.3138  1.0536
  729MOL0     H96190   2.335   8.984   6.086 -0.6291  1.2428  0.0402
  729MOL0     H96191   2.430   9.178   6.166 -0.7215  0.5175 -0.5467
  729MOL0     H96192   2.652   9.495   6.244  1.8255  1.3603 -0.6390
  729MOL0     H96193   2.741   9.730   6.299 -1.4283  3.3965  2.8383
  729MOL0     H96194   2.801   9.938   6.289 -0.7034 -2.3017  0.9260
  729MOL0     H96195   2.759   9.906   6.454  2.7848 -0.4918 -2.1374
  729MOL0     H96196   2.680  10.151   6.475 -0.4811  0.5961  0.8260
  729MOL0     H96197   2.712  10.168   6.311 -0.8785  2.3963  1.5261
  729MOL0     H96198   2.962  10.073   6.359 -1.5582 -0.2624 -2.0050
  729MOL0     H96199   2.918  10.121   6.528 -0.8864 -1.9831 -0.6427
  729MOL0     H96200   2.933  10.310   6.283 -2.4284  1.6957  0.4178
  729MOL0     H96201   2.872  10.335   6.450 -0.5325 -0.3784 -0.0044
  729MOL0     H96202   3.154  10.245   6.380 -0.0515  1.2381 -1.1712
  729MOL0     H96203   3.093  10.283   6.539  0.6263  0.5713  0.2083
  729MOL0     H96204   3.026  10.529   6.434 -1.2973  0.0994 -1.8516
  729MOL0     H96205   3.136  10.492   6.310 -0.2359 -0.0491  0.0369
  729MOL0     H96206   3.212  10.626   6.493 -4.5867  0.1288 -3.6175
  729MOL0     H96207   3.172  10.501   6.617  0.0123  2.3116  0.1304
  729MOL0     H96208   3.353  10.343   6.511  3.1084 -0.2411  0.7192
  729MOL0     H96209   3.413  10.490   6.579 -1.4303  0.0342  0.9970
  729MOL0     H96210   2.348   9.881   6.270 -3.3122 -2.1901 -4.7004
  729MOL0     H96211   2.271   9.667   6.187  0.0493  1.3847  1.9125
  729MOL0     H96212   2.094   9.273   6.411  2.9268  3.1305 -0.4867
  729MOL0     H96213   1.989   9.045   6.339  0.1916 -0.3837  0.3096
  729MOL0     H96214   2.118   7.335   5.254 -2.7188  0.6575  2.5621
  729MOL0     H96215   2.188   7.295   5.015  0.5678 -0.8138  3.5601
  729MOL0     H96216   2.208   7.521   4.618 -0.5964  0.2605 -1.4203
  729MOL0     H96217   2.369   7.505   4.409 -0.5240  0.2117 -0.2704
  729MOL0     H96218   2.320   7.117   4.169 -1.4722  0.6989  0.4639
  729MOL0     H96219   2.492   7.108   4.225 -1.0585  0.6750  3.5233
  729MOL0     H96220   2.551   7.263   4.047  0.9144 -0.3549 -3.8131
  729MOL0     H96221   2.490   7.096   4.008 -1.8869  0.0978  0.7713
  729MOL0     H96222   2.318   7.351   4.009 -0.2974 -1.2985  0.2725
  729MOL0     H96223   2.281   7.192   3.923 -0.7588  1.9296 -2.3787
  729MOL0     H96224   2.434   7.430   3.843  1.6743 -0.0059 -0.9565
  729MOL0     H96225   2.509   7.271   3.817  0.6578 -1.0635  2.6021
  729MOL0     H96226   2.205   7.318   3.525  0.7354  0.4882 -0.7638
  729MOL0     H96227   2.256   7.101   4.369 -1.3976  0.3077  0.6490
  729MOL0     H96228   2.130   7.111   4.576  0.8789 -0.0638  1.6786
  730MOL0     O96229   2.308   9.548   8.602 -0.5564  0.0238  0.9935
  730MOL0     C96230   2.402   9.565   8.520  0.4893 -0.1340 -0.0012
  730MOL0     O96231   2.402   9.529   8.394 -0.6466 -0.2225 -0.0321
  730MOL0     C96232   2.288   9.497   8.331  0.1454  0.2898 -0.0160
  730MOL0     C96233   2.217   9.604   8.262  1.1834  0.3960  0.5695
  730MOL0     C96234   2.094   9.570   8.195 -0.7747  0.3815 -0.2699
  730MOL0     C96235   2.055   9.435   8.185 -0.0565 -0.4607  0.2788
  730MOL0     O96236   1.936   9.398   8.126  0.2013 -0.4810  0.6438
  730MOL0     C96237   1.945   9.300   8.026 -0.5075  0.2388  0.1240
  730MOL0     C96238   1.817   9.267   7.953  0.0460 -0.3297 -0.0183
  730MOL0     C96239   1.716   9.195   8.048 -0.4830 -0.2263  1.1050
  730MOL0     C96240   1.753   9.048   8.072  0.3310 -0.3900  0.2902
  730MOL0     C96241   1.632   8.969   8.146 -0.7054 -0.8390  0.2410
  730MOL0     C96242   1.614   9.028   8.284 -0.2597 -0.0251  0.1304
  730MOL0     C96243   1.559   8.926   8.382  0.1752  0.1035  0.4411
  730MOL0     C96244   1.420   8.872   8.337 -0.3031  0.0075 -0.3919
  730MOL0     N96245   1.382   8.774   8.443 -0.3483  0.0217 -0.0124
  730MOL0     C96246   1.276   8.784   8.530  0.6483  1.1709 -0.6388
  730MOL0     C96247   1.280   8.669   8.607  0.4045  0.3109  0.7960
  730MOL0     C96248   1.199   8.639   8.733 -0.1063 -0.3030 -0.3627
  730MOL0     C96249   1.112   8.760   8.785  1.3914  0.7109 -0.5196
  730MOL0     C96250   1.205   8.869   8.845 -0.0993 -0.4120  0.2001
  730MOL0     C96251   1.129   8.985   8.904 -0.2742  0.1474 -0.2251
  730MOL0     O96252   1.035   9.046   8.810  0.6251  0.2404  0.0226
  730MOL0     C96253   1.073   9.093   8.684  0.8622  0.0386 -0.1144
  730MOL0     C96254   1.204   9.118   8.648  0.4025  0.2807  0.4257
  730MOL0     C96255   1.216   9.166   8.520 -0.1671  0.1305  1.0098
  730MOL0     C96256   1.122   9.185   8.423  0.1021  0.1994 -0.6796
  730MOL0     C96257   1.170   9.218   8.288  1.0754 -0.1160  0.2314
  730MOL0     O96258   1.065   9.232   8.195  0.3204  0.6995  0.5002
  730MOL0     C96259   1.086   9.252   8.057  0.2961 -0.1916  0.1974
  730MOL0     C96260   1.206   9.279   7.986  0.1296  0.5628 -0.7695
  730MOL0     C96261   1.209   9.294   7.846 -0.7651  0.7457 -0.1285
  730MOL0     C96262   1.095   9.277   7.770 -0.8054  0.1643  0.3642
  730MOL0     O96263   1.121   9.272   7.634  0.0520 -0.7956 -0.2367
  730MOL0     C96264   1.018   9.302   7.540  1.2807 -0.0062 -0.9117
  730MOL0     C96265   1.092   9.337   7.417 -0.5776 -0.1833  0.1123
  730MOL0     C96266   1.029   9.385   7.283  0.9893 -0.6385  1.2425
  730MOL0     C96267   0.908   9.499   7.306 -0.9827 -0.0174 -0.6511
  730MOL0     C96268   0.888   9.570   7.178  0.0270  0.4231 -0.1689
  730MOL0     C96269   0.752   9.642   7.179 -0.4093 -0.2992  0.2558
  730MOL0     C96270   0.732   9.719   7.049 -0.3329 -0.1834 -0.4574
  730MOL0     C96271   0.603   9.807   7.056 -0.6097 -0.2169 -0.8605
  730MOL0    Cl96272   0.447   9.720   7.031  0.2331  0.6754  0.0053
  730MOL0     C96273   0.977   9.256   7.839  0.3620 -0.0406 -0.7779
  730MOL0     C96274   0.970   9.245   7.980  0.2028  0.3516  0.0096
  730MOL0     O96275   1.286   9.222   8.261  0.2658 -0.1013  0.1098
  730MOL0     C96276   0.994   9.143   8.459  0.7886  0.0948 -0.7672
  730MOL0     C96277   0.970   9.098   8.589 -0.9156 -0.7368  0.5651
  730MOL0     N96278   1.386   8.584   8.564  0.3756 -0.7143 -0.7881
  730MOL0     N96279   1.437   8.648   8.462 -0.3295 -0.3476 -0.2548
  730MOL0     C96280   2.126   9.338   8.256  0.7372  0.2941  1.0008
  730MOL0     C96281   2.235   9.370   8.342 -0.1032 -0.5865 -0.2461
  730MOL0     C96282   2.517   9.625   8.585 -0.4771  0.4060  0.4235
  730MOL0     C96283   2.649   9.582   8.556  0.0746 -0.3910  0.1549
  730MOL0     C96284   2.755   9.637   8.629  0.5244  0.1271  0.1282
  730MOL0     C96285   2.741   9.719   8.737  0.3353 -0.1583  0.1953
  730MOL0     O96286   2.858   9.767   8.795 -0.6218 -0.0756  0.2201
  730MOL0     C96287   2.838   9.807   8.938 -0.4939 -0.4745 -0.0018
  730MOL0     C96288   2.971   9.781   9.013  0.2849 -0.1370 -0.3234
  730MOL0     C96289   3.086   9.838   8.925  0.1679  0.7257  0.1310
  730MOL0     C96290   3.212   9.896   8.997  0.3274 -0.4278  0.5869
  730MOL0     C96291   3.200  10.000   9.090 -0.4584  0.1239 -0.4974
  730MOL0     C96292   3.181  10.086   9.174 -0.3553  0.4953 -0.7345
  730MOL0     C96293   2.611   9.750   8.768  0.8548 -0.0403  0.6541
  730MOL0     C96294   2.499   9.704   8.692 -0.7300 -0.5428 -0.6100
  730MOL0     H96295   2.245   9.708   8.254 -2.4615  1.4837 -0.0150
  730MOL0     H96296   2.020   9.635   8.149  0.7868  0.9625 -2.0645
  730MOL0     H96297   1.978   9.213   8.084 -3.0319  1.3115  3.5150
  730MOL0     H96298   2.034   9.325   7.968  1.0533 -3.1298  0.8137
  730MOL0     H96299   1.829   9.209   7.861  1.6298  0.7693 -0.5542
  730MOL0     H96300   1.780   9.365   7.921  1.4891  0.6627  1.1546
  730MOL0     H96301   1.620   9.200   7.994  1.0491 -1.0430 -1.9243
  730MOL0     H96302   1.711   9.250   8.142  3.1953 -0.3727  1.5333
  730MOL0     H96303   1.771   9.004   7.974 -0.0840 -2.0559  0.9266
  730MOL0     H96304   1.846   9.035   8.128  0.6270  0.8523  0.1144
  730MOL0     H96305   1.659   8.863   8.150  0.2091 -0.7447 -2.0749
  730MOL0     H96306   1.543   8.989   8.085 -1.0500  0.5083  1.1371
  730MOL0     H96307   1.543   9.109   8.268  0.3147  0.9764  2.2251
  730MOL0     H96308   1.709   9.065   8.324  0.6626 -0.8180 -1.2427
  730MOL0     H96309   1.615   8.833   8.385 -2.5754 -1.6768  0.1010
  730MOL0     H96310   1.551   8.976   8.480 -4.0273  1.9894 -0.6425
  730MOL0     H96311   1.431   8.819   8.242  2.1360 -0.1998 -0.0715
  730MOL0     H96312   1.347   8.952   8.320  0.1126  0.0100 -2.3807
  730MOL0     H96313   1.204   8.863   8.545  0.6569  0.9783  0.5276
  730MOL0     H96314   1.268   8.612   8.813 -2.7818  0.2032  2.2850
  730MOL0     H96315   1.137   8.554   8.705 -1.2063 -0.2022  1.6102
  730MOL0     H96316   1.047   8.734   8.869  1.4143  1.1754 -0.3547
  730MOL0     H96317   1.048   8.803   8.708 -2.8217 -0.2589  2.1074
  730MOL0     H96318   1.266   8.816   8.918  1.7094 -0.2562 -1.1095
  730MOL0     H96319   1.264   8.917   8.765  1.9024  2.2332  3.0168
  730MOL0     H96320   1.194   9.066   8.941 -0.7251  1.6250 -2.4806
  730MOL0     H96321   1.086   8.941   8.994 -0.8093 -0.1709 -0.6330
  730MOL0     H96322   1.285   9.114   8.721  0.3281  0.3467  0.5122
  730MOL0     H96323   1.315   9.194   8.485 -0.4653 -0.7940 -0.6451
  730MOL0     H96324   1.302   9.289   8.036 -1.4458  0.2365  2.5443
  730MOL0     H96325   1.298   9.325   7.793 -0.8538  1.3988  0.1015
  730MOL0     H96326   0.955   9.384   7.575  0.2051 -1.3962  0.5381
  730MOL0     H96327   0.954   9.216   7.522  1.9435 -0.3497 -1.6584
  730MOL0     H96328   1.163   9.260   7.385  0.0292  1.2368 -2.2561
  730MOL0     H96329   1.158   9.421   7.438  0.5868 -0.3041 -2.6567
  730MOL0     H96330   0.992   9.301   7.224 -0.3946  1.1676 -0.5990
  730MOL0     H96331   1.099   9.433   7.215 -2.1080 -1.5623 -2.9765
  730MOL0     H96332   0.824   9.449   7.354 -0.1543  1.1594  2.3153
  730MOL0     H96333   0.941   9.576   7.378 -2.2116  1.4643 -1.6135
  730MOL0     H96334   0.899   9.493   7.102 -2.1198 -0.4266  0.3084
  730MOL0     H96335   0.965   9.647   7.164  2.5770 -1.9905 -0.2953
  730MOL0     H96336   0.767   9.708   7.265  1.9973 -2.4431  1.6443
  730MOL0     H96337   0.664   9.579   7.192  0.5207 -1.7396 -0.1426
  730MOL0     H96338   0.822   9.781   7.048  0.4356 -1.2731 -0.6961
  730MOL0     H96339   0.715   9.644   6.972 -2.4663 -0.4078  0.1687
  730MOL0     H96340   0.625   9.888   6.986  3.5294 -0.6776 -0.3289
  730MOL0     H96341   0.590   9.846   7.157  2.6086 -0.2682 -0.3140
  730MOL0     H96342   0.888   9.245   7.777 -0.2948 -1.9363  0.4205
  730MOL0     H96343   0.875   9.214   8.023 -1.1103  2.1976 -1.4033
  730MOL0     H96344   0.914   9.160   8.389 -0.4781 -1.2805  0.2865
  730MOL0     H96345   0.864   9.087   8.609 -0.8787  0.8318  1.7150
  730MOL0     H96346   2.095   9.235   8.251 -0.8249  0.7770  0.0175
  730MOL0     H96347   2.281   9.289   8.399 -2.5961 -0.1455  2.6641
  730MOL0     H96348   2.668   9.507   8.479  0.7847  0.9226 -0.9874
  730MOL0     H96349   2.858   9.608   8.613  0.6571 -2.0508  3.9087
  730MOL0     H96350   2.750   9.760   8.983 -1.1552 -0.2276 -0.9906
  730MOL0     H96351   2.828   9.916   8.938  2.8988  0.0032  2.5563
  730MOL0     H96352   2.968   9.836   9.107  1.0788  2.3062 -1.6455
  730MOL0     H96353   2.982   9.672   9.024  1.0937 -0.3632 -2.8156
  730MOL0     H96354   3.050   9.912   8.853 -0.7629  2.1928  2.0443
  730MOL0     H96355   3.118   9.751   8.866 -1.2187  0.3740 -0.1439
  730MOL0     H96356   3.254   9.806   9.043  1.0694 -1.8386 -2.5722
  730MOL0     H96357   3.285   9.928   8.922 -0.7171 -0.2805 -0.3969
  730MOL0     H96358   3.175  10.160   9.252  1.7934 -0.0643  0.0331
  730MOL0     H96359   2.595   9.827   8.842  1.1443  0.9120 -0.2517
  730MOL0     H96360   2.409   9.738   8.741  0.5388  0.7383  0.9547
  731MOL0     O96361  10.164   6.581   5.619 -0.3765  0.9061  0.8859
  731MOL0     C96362  10.159   6.676   5.692  0.7923  0.3618 -0.0339
  731MOL0     O96363  10.050   6.755   5.712  0.4390  0.6946 -0.0073
  731MOL0     C96364   9.944   6.744   5.617 -0.3217  0.4843 -1.0213
  731MOL0     C96365   9.967   6.726   5.481  0.3132 -0.6601  0.2699
  731MOL0     C96366   9.863   6.684   5.395  0.0363  0.7070 -0.2916
  731MOL0     C96367   9.731   6.666   5.441  0.5459 -0.2207 -0.2366
  731MOL0     O96368   9.627   6.614   5.360 -0.3634 -0.3091 -0.4695
  731MOL0     C96369   9.653   6.506   5.262 -0.2284  0.1770  0.4564
  731MOL0     C96370   9.527   6.434   5.214  0.0474 -0.2042 -0.0562
  731MOL0     C96371   9.440   6.524   5.128 -0.0496  0.0882  0.2775
  731MOL0     C96372   9.302   6.460   5.097  0.3236  0.3224  0.5187
  731MOL0     C96373   9.200   6.561   5.061 -0.8988 -0.3152 -0.1200
  731MOL0     C96374   9.238   6.626   4.924 -0.1135  0.1027  0.6316
  731MOL0     C96375   9.212   6.531   4.810  0.1916  0.3326  0.4635
  731MOL0     C96376   9.071   6.478   4.794  0.0625  1.0648  0.2881
  731MOL0     N96377   8.980   6.596   4.754 -0.3533  0.7119  0.2270
  731MOL0     C96378   8.971   6.637   4.618  0.5393  0.7365 -0.3868
  731MOL0     C96379   8.857   6.699   4.609 -1.2209 -1.0658 -0.4272
  731MOL0     C96380   8.801   6.741   4.486  0.2120  0.1006  1.1698
  731MOL0     C96381   8.678   6.821   4.494 -0.5356  0.5761  0.1903
  731MOL0     C96382   8.550   6.735   4.504  0.7490 -0.0725 -0.0519
  731MOL0     C96383   8.523   6.655   4.379 -0.8192 -0.2402 -0.5424
  731MOL0     O96384   8.467   6.745   4.278 -0.1375  0.6699  0.0784
  731MOL0     C96385   8.331   6.752   4.262  0.2109  0.3121  0.1154
  731MOL0     C96386   8.239   6.731   4.359  0.0980 -0.5110 -0.3475
  731MOL0     C96387   8.102   6.754   4.322  0.4860 -0.8759 -0.6590
  731MOL0     C96388   8.052   6.783   4.195 -0.7031  0.2734 -1.1457
  731MOL0     C96389   7.911   6.781   4.160  0.4416  0.3879  0.6622
  731MOL0     O96390   7.818   6.722   4.238  0.2263 -0.0059  0.1347
  731MOL0     C96391   7.690   6.739   4.197  0.8021  0.8201  0.3177
  731MOL0     C96392   7.636   6.702   4.074  0.2910 -0.5616  0.2486
  731MOL0     C96393   7.497   6.699   4.055 -0.8693 -0.3598  0.1257
  731MOL0     C96394   7.403   6.735   4.155 -0.9328 -0.2925 -0.1368
  731MOL0     O96395   7.271   6.740   4.129  0.0647 -0.3247 -0.0871
  731MOL0     C96396   7.218   6.676   4.015 -0.8190 -1.3720 -0.6143
  731MOL0     C96397   7.068   6.681   4.015 -0.4003  0.7684 -0.5039
  731MOL0     C96398   7.012   6.816   3.990  0.7740  0.1207 -0.5273
  731MOL0     C96399   6.856   6.817   3.981  0.1447  0.5546 -0.4083
  731MOL0     C96400   6.788   6.955   3.988  0.8042  1.0040 -0.2496
  731MOL0     C96401   6.638   6.934   3.950 -0.7495  0.1443 -0.0867
  731MOL0     C96402   6.580   7.077   3.945 -0.5228 -0.2645 -0.0213
  731MOL0     C96403   6.585   7.167   4.068 -0.5860 -0.1955 -0.3077
  731MOL0    Cl96404   6.486   7.314   4.051 -0.3900  0.3762 -0.0914
  731MOL0     C96405   7.457   6.779   4.278 -0.2654  0.1699 -0.7831
  731MOL0     C96406   7.601   6.783   4.301 -0.3508 -0.1386 -0.5897
  731MOL0     O96407   7.887   6.832   4.048  0.1497 -0.5220 -0.7740
  731MOL0     C96408   8.154   6.802   4.103 -0.1860  0.2613  0.7679
  731MOL0     C96409   8.294   6.797   4.136  0.1113 -0.2800 -0.6096
  731MOL0     N96410   8.806   6.704   4.740  0.2758 -0.0379  0.3155
  731MOL0     N96411   8.874   6.648   4.826 -0.4939  0.3267 -0.0757
  731MOL0     C96412   9.708   6.707   5.575  0.8148 -0.8635 -0.3655
  731MOL0     C96413   9.810   6.732   5.659 -0.4853 -1.6489  0.9151
  731MOL0     C96414  10.274   6.717   5.771 -0.9697  0.2097  1.1565
  731MOL0     C96415  10.406   6.677   5.723  0.8235 -0.8701 -0.4766
  731MOL0     C96416  10.526   6.721   5.793 -0.2592 -0.4466  0.1117
  731MOL0     C96417  10.508   6.794   5.917  0.9173  0.5179 -0.5317
  731MOL0     O96418  10.614   6.822   5.995 -0.3220 -0.5929  0.5111
  731MOL0     C96419  10.593   6.886   6.122 -0.3904 -0.7283 -0.8197
  731MOL0     C96420  10.714   6.864   6.221  0.0264 -0.2350 -0.7146
  731MOL0     C96421  10.853   6.925   6.180  0.3156 -0.7695  0.5140
  731MOL0     C96422  10.867   7.064   6.121  0.0081 -0.5015 -0.6094
  731MOL0     C96423  11.004   7.094   6.103 -0.4283  0.2281 -0.0513
  731MOL0     C96424  11.120   7.123   6.065 -0.3318 -0.3939  0.2269
  731MOL0     C96425  10.376   6.829   5.950  0.6086 -0.5585 -0.2259
  731MOL0     C96426  10.263   6.796   5.884 -0.2402  0.5010 -0.4691
  731MOL0     H96427  10.068   6.744   5.444  1.2511 -0.5980  2.6705
  731MOL0     H96428   9.895   6.665   5.293 -0.5969 -1.8255 -0.1036
  731MOL0     H96429   9.709   6.431   5.318  0.2306  1.1529  1.3632
  731MOL0     H96430   9.715   6.546   5.182 -0.6013 -0.0599  0.0432
  731MOL0     H96431   9.471   6.396   5.300  1.1944 -1.4187  0.1842
  731MOL0     H96432   9.554   6.352   5.148  1.0914 -2.0905  2.5466
  731MOL0     H96433   9.499   6.550   5.040 -1.5319  1.4227 -0.3677
  731MOL0     H96434   9.423   6.623   5.172  0.5604  2.1302 -3.6405
  731MOL0     H96435   9.306   6.382   5.021  1.5743  2.1607 -1.4010
  731MOL0     H96436   9.260   6.432   5.194  1.6432  2.1970  1.7211
  731MOL0     H96437   9.206   6.639   5.137 -2.2902  1.1532 -1.4491
  731MOL0     H96438   9.097   6.522   5.065 -0.3021 -1.8908  2.1619
  731MOL0     H96439   9.344   6.651   4.916 -0.3558  0.7594 -0.8480
  731MOL0     H96440   9.181   6.715   4.898  2.2274  0.9696 -2.0698
  731MOL0     H96441   9.232   6.587   4.719 -1.2905 -2.2065 -1.5621
  731MOL0     H96442   9.275   6.442   4.807 -1.7128 -1.0577 -0.7534
  731MOL0     H96443   9.026   6.429   4.881 -2.1898  1.3661 -0.6360
  731MOL0     H96444   9.070   6.403   4.714  0.6927 -0.1564  1.3883
  731MOL0     H96445   9.030   6.599   4.535  2.3286 -2.4403  2.0955
  731MOL0     H96446   8.786   6.661   4.412 -0.4830  0.5530  0.8102
  731MOL0     H96447   8.877   6.805   4.440  2.7880 -1.4272  3.0450
  731MOL0     H96448   8.667   6.883   4.405 -2.1777  1.2669  0.8231
  731MOL0     H96449   8.692   6.890   4.578  0.5604  2.5509 -1.5279
  731MOL0     H96450   8.562   6.666   4.588  0.9145 -0.7573 -0.6199
  731MOL0     H96451   8.465   6.795   4.536  1.0657  0.3693 -0.0389
  731MOL0     H96452   8.454   6.574   4.406  0.7307 -2.0130 -1.6808
  731MOL0     H96453   8.608   6.609   4.329 -1.5436  0.1377 -2.1777
  731MOL0     H96454   8.279   6.705   4.456  3.1957  0.2760 -1.3142
  731MOL0     H96455   8.030   6.730   4.399  1.7280 -1.1998  0.4430
  731MOL0     H96456   7.695   6.656   3.995  1.1332 -0.0513  0.5666
  731MOL0     H96457   7.465   6.667   3.957  0.9794 -0.1967 -0.5729
  731MOL0     H96458   7.260   6.575   4.024  1.9778 -0.1369  1.2643
  731MOL0     H96459   7.244   6.725   3.921  0.8758  1.4283  1.1878
  731MOL0     H96460   7.030   6.644   4.111 -0.3853  0.8922 -0.4483
  731MOL0     H96461   7.050   6.614   3.931  0.7039  1.2815 -1.1805
  731MOL0     H96462   7.052   6.867   3.902 -1.0314  3.4884  0.4161
  731MOL0     H96463   7.040   6.883   4.072 -2.8341 -0.6730  1.5822
  731MOL0     H96464   6.835   6.769   3.884  1.5172  0.8227 -0.8523
  731MOL0     H96465   6.814   6.754   4.060 -0.3379 -1.0613 -1.8867
  731MOL0     H96466   6.842   7.010   3.911  1.9220  0.1089 -0.1443
  731MOL0     H96467   6.792   7.005   4.086 -3.5324  0.2410  0.5060
  731MOL0     H96468   6.596   6.869   4.027  4.4046 -2.5515  0.9582
  731MOL0     H96469   6.635   6.881   3.854  2.6619  1.0999 -0.8594
  731MOL0     H96470   6.625   7.141   3.868 -0.6656  0.1829  0.2696
  731MOL0     H96471   6.476   7.050   3.927 -0.5005  0.0477 -0.6541
  731MOL0     H96472   6.688   7.187   4.096  0.0320 -1.3165 -1.6520
  731MOL0     H96473   6.546   7.111   4.153 -0.2633  1.9305  1.3179
  731MOL0     H96474   7.393   6.810   4.361  1.1927  0.5086  0.2518
  731MOL0     H96475   7.623   6.809   4.404 -1.7890  1.1911 -0.5772
  731MOL0     H96476   8.125   6.833   4.003 -1.0596  0.6359  1.1282
  731MOL0     H96477   8.363   6.826   4.058  1.3664 -0.0768  0.5305
  731MOL0     H96478   9.609   6.713   5.617  2.0522  1.0719  2.6133
  731MOL0     H96479   9.802   6.755   5.765  0.2294 -0.2336  0.6953
  731MOL0     H96480  10.414   6.621   5.631 -2.5463 -0.3034 -1.2590
  731MOL0     H96481  10.628   6.700   5.762 -0.3236 -0.9967  0.2597
  731MOL0     H96482  10.501   6.840   6.159 -1.4388 -0.1686 -2.6109
  731MOL0     H96483  10.583   6.994   6.105  0.9085 -0.9781 -3.7743
  731MOL0     H96484  10.696   6.911   6.318  2.4172  0.2382 -0.4580
  731MOL0     H96485  10.718   6.756   6.241 -0.2358  0.0154  0.8304
  731MOL0     H96486  10.892   6.864   6.098  2.6166 -1.6500  2.1507
  731MOL0     H96487  10.917   6.916   6.269 -0.7783  1.2983  1.5700
  731MOL0     H96488  10.820   7.055   6.023 -0.0302  3.6585 -1.1529
  731MOL0     H96489  10.833   7.140   6.192  0.3989 -1.8637  1.1304
  731MOL0     H96490  11.219   7.146   6.030 -0.2636  1.5428  1.5391
  731MOL0     H96491  10.355   6.871   6.048  1.8933 -0.2812 -0.0384
  731MOL0     H96492  10.170   6.837   5.921  0.8969  2.6456  0.1815
  732MOL0     O96493   6.083   4.232   8.742  0.3902 -0.2330  0.5614
  732MOL0     C96494   6.084   4.357   8.736  0.4837  0.8865  0.2812
  732MOL0     O96495   5.986   4.442   8.692 -0.3463  1.0170 -0.6831
  732MOL0     C96496   5.860   4.412   8.678  0.5593 -0.3629  0.3798
  732MOL0     C96497   5.782   4.395   8.784 -0.1127  0.2758  0.2545
  732MOL0     C96498   5.644   4.379   8.759  0.8784  0.0691 -0.9157
  732MOL0     C96499   5.593   4.375   8.633 -0.3212 -0.5010 -0.2196
  732MOL0     O96500   5.456   4.364   8.611 -0.3038 -0.4891 -0.0517
  732MOL0     C96501   5.370   4.455   8.690 -0.3880  0.7011 -0.2653
  732MOL0     C96502   5.227   4.491   8.633 -1.4512 -0.8213 -0.2892
  732MOL0     C96503   5.125   4.514   8.736 -0.2599  0.4245 -1.0428
  732MOL0     C96504   4.983   4.506   8.685 -0.3779 -0.5871 -0.2910
  732MOL0     C96505   4.868   4.542   8.785 -0.6083  0.2906 -1.0181
  732MOL0     C96506   4.844   4.688   8.822 -0.0053 -0.4528 -1.0153
  732MOL0     C96507   4.718   4.718   8.905 -0.9491  1.4784  0.2630
  732MOL0     C96508   4.670   4.610   9.002 -0.5949  0.8051  0.2979
  732MOL0     N96509   4.760   4.596   9.124  0.5242  0.3912 -0.2182
  732MOL0     C96510   4.782   4.698   9.217 -0.4472 -0.3324  0.3279
  732MOL0     C96511   4.896   4.666   9.272  0.0848 -0.8537  0.4233
  732MOL0     C96512   4.979   4.729   9.382 -0.4208  0.6576  0.1265
  732MOL0     C96513   4.940   4.673   9.513 -1.0536 -0.0834 -1.1873
  732MOL0     C96514   5.047   4.702   9.612  0.4356  0.7428 -0.1355
  732MOL0     C96515   5.031   4.601   9.725 -0.7048  0.7927  0.3304
  732MOL0     O96516   5.132   4.625   9.825 -0.0187  0.2253  0.2912
  732MOL0     C96517   5.096   4.617   9.954  0.2114 -0.2734 -0.1546
  732MOL0     C96518   5.042   4.730  10.015  0.6168  0.0677 -0.3986
  732MOL0     C96519   5.010   4.715  10.156 -0.0900 -0.1869 -0.8645
  732MOL0     C96520   5.033   4.597  10.229 -0.2387 -0.1622  0.3655
  732MOL0     C96521   4.953   4.584  10.351  1.0847  0.4251  0.2792
  732MOL0     O96522   4.924   4.695  10.422  0.4369  0.2863 -0.4260
  732MOL0     C96523   4.845   4.679  10.530 -0.2717 -0.3616  0.3284
  732MOL0     C96524   4.902   4.664  10.653  0.2245  0.0623 -0.3349
  732MOL0     C96525   4.821   4.626  10.763  0.5813 -0.2027 -0.2862
  732MOL0     C96526   4.684   4.606  10.747  0.4783 -0.0864 -0.2520
  732MOL0     O96527   4.596   4.565  10.849 -0.1708  0.9539  0.1897
  732MOL0     C96528   4.636   4.576  10.984  0.0431 -0.1241 -0.2915
  732MOL0     C96529   4.687   4.453  11.056  0.5509 -0.1805  0.9818
  732MOL0     C96530   4.741   4.472  11.200 -0.2103  0.1952 -0.9304
  732MOL0     C96531   4.635   4.486  11.304 -0.4570  0.5665 -0.7684
  732MOL0     C96532   4.698   4.522  11.439 -0.2162 -0.4137 -0.7687
  732MOL0     C96533   4.768   4.403  11.521  0.1381 -0.6595  0.0858
  732MOL0     C96534   4.798   4.454  11.665  0.1364  0.8075 -0.6068
  732MOL0     C96535   4.774   4.336  11.761 -0.6832  0.2401  0.9733
  732MOL0    Cl96536   4.613   4.257  11.742  0.2688  0.2503 -0.5094
  732MOL0     C96537   4.622   4.631  10.619 -0.1436 -0.3834 -0.2590
  732MOL0     C96538   4.703   4.667  10.510  0.7458 -0.0426  0.4347
  732MOL0     O96539   4.916   4.470  10.377  0.2540  0.1649  0.8406
  732MOL0     C96540   5.110   4.496  10.163  0.4743 -0.3480  0.2964
  732MOL0     C96541   5.131   4.505  10.022  0.1518  0.4349  0.3359
  732MOL0     N96542   4.938   4.543   9.216  0.3214  1.0316 -0.1866
  732MOL0     N96543   4.853   4.503   9.127 -0.4857 -0.2478  0.4337
  732MOL0     C96544   5.687   4.380   8.526  0.5984 -0.5954 -0.0489
  732MOL0     C96545   5.816   4.408   8.546  0.0347  1.2141 -0.5121
  732MOL0     C96546   6.217   4.413   8.774  0.4505 -0.3771 -0.2288
  732MOL0     C96547   6.299   4.332   8.856 -0.4024 -0.1581 -0.1755
  732MOL0     C96548   6.430   4.372   8.878 -0.4946  0.6389 -0.4677
  732MOL0     C96549   6.472   4.497   8.838  0.3556  0.0102  0.4815
  732MOL0     O96550   6.569   4.569   8.899  0.7212 -0.3810  0.4468
  732MOL0     C96551   6.704   4.521   8.886  0.8758 -0.3544 -0.8253
  732MOL0     C96552   6.798   4.634   8.928 -0.1616 -0.3769  0.0340
  732MOL0     C96553   6.777   4.776   8.882 -0.5736 -0.7424  1.0378
  732MOL0     C96554   6.901   4.867   8.894  0.0909  0.1404 -0.3371
  732MOL0     C96555   7.031   4.833   8.829  0.2200 -0.3099 -1.4787
  732MOL0     C96556   7.134   4.794   8.782 -0.1339  0.1681  0.2544
  732MOL0     C96557   6.396   4.575   8.746 -0.2774 -0.8988  0.1247
  732MOL0     C96558   6.266   4.529   8.715 -0.2330 -0.0161  0.4104
  732MOL0     H96559   5.813   4.398   8.889  0.2009  0.2958  0.1642
  732MOL0     H96560   5.579   4.382   8.847 -2.8478 -1.3355 -3.3496
  732MOL0     H96561   5.429   4.546   8.702  3.4663 -1.6265  0.0910
  732MOL0     H96562   5.352   4.416   8.790  1.4283 -0.5498 -0.3743
  732MOL0     H96563   5.198   4.414   8.561  0.8692 -2.1325  0.0804
  732MOL0     H96564   5.246   4.580   8.573  0.3763 -2.5554 -2.4138
  732MOL0     H96565   5.140   4.607   8.791 -0.1446  0.7177 -1.5582
  732MOL0     H96566   5.131   4.435   8.812 -0.4577  1.8199  0.4693
  732MOL0     H96567   4.970   4.574   8.599 -4.9165  0.6299  1.0694
  732MOL0     H96568   4.964   4.404   8.652  1.9250 -1.7001  1.5547
  732MOL0     H96569   4.878   4.487   8.878 -2.7733  0.3815 -0.6761
  732MOL0     H96570   4.772   4.506   8.747 -1.4701  3.0174 -1.6843
  732MOL0     H96571   4.827   4.737   8.726 -3.8454 -1.2746 -0.9396
  732MOL0     H96572   4.925   4.727   8.883 -3.1710  0.8005  2.8198
  732MOL0     H96573   4.751   4.802   8.967 -2.2206  2.8405 -0.8571
  732MOL0     H96574   4.631   4.756   8.851 -1.0167 -0.3348 -1.0088
  732MOL0     H96575   4.667   4.509   8.960  2.5445  0.7932 -0.1750
  732MOL0     H96576   4.567   4.622   9.036 -0.4534  2.5474  0.1583
  732MOL0     H96577   4.720   4.785   9.235  0.7864  0.4732  0.7643
  732MOL0     H96578   4.975   4.838   9.391  0.5223  0.7687 -0.7058
  732MOL0     H96579   5.079   4.691   9.362 -0.5419  0.1044  0.5209
  732MOL0     H96580   4.929   4.565   9.501  0.1524 -0.9702  3.6925
  732MOL0     H96581   4.843   4.719   9.534 -1.9849 -2.5152  0.2707
  732MOL0     H96582   5.151   4.693   9.578  0.5525 -0.2772  0.4370
  732MOL0     H96583   5.033   4.797   9.664  3.4655  0.2879  1.7756
  732MOL0     H96584   5.040   4.498   9.689  1.0550  1.5931 -1.7221
  732MOL0     H96585   4.936   4.629   9.773 -0.2849  1.8531  0.5816
  732MOL0     H96586   5.023   4.815   9.951  4.1268  1.0876 -0.3081
  732MOL0     H96587   4.947   4.790  10.203 -1.8232 -2.5425  0.7855
  732MOL0     H96588   5.006   4.685  10.674  0.1138 -0.9448  1.3793
  732MOL0     H96589   4.866   4.616  10.861  4.5113 -0.5873 -1.9406
  732MOL0     H96590   4.535   4.590  11.024  0.4885  3.6161 -0.0478
  732MOL0     H96591   4.676   4.674  11.015 -1.7886  0.5667  0.0383
  732MOL0     H96592   4.769   4.427  10.988 -0.7903  0.0321 -0.7855
  732MOL0     H96593   4.607   4.379  11.048 -1.3604  1.8486  0.2212
  732MOL0     H96594   4.819   4.547  11.213 -0.3777  0.5790 -1.9920
  732MOL0     H96595   4.801   4.382  11.212  2.4146  1.5018 -3.1084
  732MOL0     H96596   4.554   4.552  11.270 -0.2565 -0.6564 -3.9397
  732MOL0     H96597   4.589   4.386  11.306 -2.5795  1.3608 -3.6518
  732MOL0     H96598   4.619   4.561  11.504  0.5404 -2.3876  1.4803
  732MOL0     H96599   4.769   4.604  11.427 -0.2047 -0.2331  0.4174
  732MOL0     H96600   4.869   4.389  11.479  0.8779 -0.1019  1.5977
  732MOL0     H96601   4.708   4.312  11.520 -1.1728  0.1732 -1.5777
  732MOL0     H96602   4.900   4.493  11.671  0.3357  0.6201 -2.2603
  732MOL0     H96603   4.741   4.544  11.690  1.2590  0.6794  2.9375
  732MOL0     H96604   4.787   4.364  11.866  4.8741 -0.6173  0.7832
  732MOL0     H96605   4.850   4.261  11.740  1.4401  2.0791  1.6915
  732MOL0     H96606   4.515   4.636  10.606 -0.5424 -2.3524  1.6377
  732MOL0     H96607   4.671   4.682  10.407  2.5524 -0.3364 -0.2192
  732MOL0     H96608   5.143   4.409  10.218 -1.1447 -0.6110  0.9001
  732MOL0     H96609   5.184   4.429   9.964  3.7720  4.1457 -1.7344
  732MOL0     H96610   5.643   4.368   8.427 -3.8701  1.0399  1.4463
  732MOL0     H96611   5.889   4.423   8.466  1.0047  3.4631  0.7058
  732MOL0     H96612   6.259   4.244   8.905 -1.2683 -1.7254 -3.4452
  732MOL0     H96613   6.496   4.314   8.941 -2.8338  1.7641  3.3487
  732MOL0     H96614   6.723   4.497   8.781 -1.1527  2.0060 -1.8203
  732MOL0     H96615   6.704   4.435   8.953 -2.6321 -0.4279 -0.7412
  732MOL0     H96616   6.815   4.624   9.035 -2.3189  1.6770  0.6584
  732MOL0     H96617   6.889   4.611   8.871  1.0537 -2.0077  2.4965
  732MOL0     H96618   6.692   4.818   8.937 -2.1510 -0.2967 -1.5961
  732MOL0     H96619   6.755   4.776   8.775  0.0560  0.4648  0.8947
  732MOL0     H96620   6.887   4.961   8.841  0.5388 -0.3456 -1.3461
  732MOL0     H96621   6.911   4.889   9.001 -1.9971  1.8563 -0.4201
  732MOL0     H96622   7.223   4.762   8.733  0.3605 -0.6167  1.6346
  732MOL0     H96623   6.441   4.667   8.712  1.2587 -0.3056  3.3838
  732MOL0     H96624   6.207   4.591   8.648  0.7093  2.8033  2.0370
  733MOL0     O96625   5.905  11.212   0.543 -0.4064  0.1277 -1.2975
  733MOL0     C96626   5.871  11.188   0.428 -0.2923 -0.4363 -0.6994
  733MOL0     O96627   5.816  11.068   0.391 -0.3439 -0.4803  0.6496
  733MOL0     C96628   5.817  10.950   0.464  0.1623  0.0819  0.2621
  733MOL0     C96629   5.875  10.930   0.589 -0.4795 -0.3087  0.2269
  733MOL0     C96630   5.858  10.803   0.649 -1.2344  0.4019  0.1126
  733MOL0     C96631   5.788  10.697   0.591 -0.4988 -0.7041 -0.0415
  733MOL0     O96632   5.780  10.585   0.656  0.6745 -0.1066 -0.0439
  733MOL0     C96633   5.803  10.475   0.574 -0.5400 -0.3034  0.0453
  733MOL0     C96634   5.877  10.372   0.661 -1.1523 -0.4175 -0.6276
  733MOL0     C96635   5.991  10.423   0.753  0.0568 -0.0670 -0.2389
  733MOL0     C96636   5.993  10.324   0.875 -0.4190  0.5648 -0.1993
  733MOL0     C96637   6.087  10.387   0.986 -0.5414 -0.0549  0.2217
  733MOL0     C96638   6.002  10.443   1.098 -0.9274 -0.2881  0.4682
  733MOL0     C96639   6.076  10.533   1.203 -0.7129  0.0836  0.6215
  733MOL0     C96640   6.165  10.466   1.302  0.2905 -0.4132  1.2635
  733MOL0     N96641   6.286  10.545   1.326 -0.3177 -0.0155 -0.2017
  733MOL0     C96642   6.286  10.640   1.426 -1.0907  0.4357 -0.2464
  733MOL0     C96643   6.404  10.702   1.415  0.1575 -0.4361  0.2286
  733MOL0     C96644   6.446  10.797   1.515  0.4613 -0.2324  1.2736
  733MOL0     C96645   6.542  10.907   1.459  0.3823 -0.9303 -0.6487
  733MOL0     C96646   6.691  10.858   1.427 -0.0777  1.0833 -1.0726
  733MOL0     C96647   6.757  10.806   1.559  0.6636 -0.9632 -0.2308
  733MOL0     O96648   6.786  10.912   1.653  0.0596 -0.3256  0.7864
  733MOL0     C96649   6.909  10.958   1.679  0.9986 -0.7171  0.5735
  733MOL0     C96650   6.911  11.056   1.772 -0.1557 -0.1640  0.4427
  733MOL0     C96651   7.030  11.125   1.806  0.0101  0.2154 -0.1416
  733MOL0     C96652   7.150  11.096   1.742 -0.0880 -0.4131 -0.2745
  733MOL0     C96653   7.279  11.168   1.777  0.9629  0.1056  0.6806
  733MOL0     O96654   7.269  11.275   1.858  0.1345  0.1518 -0.6659
  733MOL0     C96655   7.379  11.347   1.884  1.2334 -0.2793  0.3154
  733MOL0     C96656   7.486  11.297   1.951  0.0643  0.1605  0.0840
  733MOL0     C96657   7.589  11.381   1.968  0.3621 -0.2176  0.0088
  733MOL0     C96658   7.589  11.517   1.923  0.1193  0.1105 -0.0366
  733MOL0     O96659   7.701  11.593   1.930  0.3118 -0.3176  0.7130
  733MOL0     C96660   7.740  11.617   2.064  0.7499 -0.3856  0.2935
  733MOL0     C96661   7.883  11.668   2.095  0.3093  0.8211  0.7854
  733MOL0     C96662   7.977  11.549   2.064  0.4543 -0.4105  0.0471
  733MOL0     C96663   8.123  11.561   2.102 -0.2892  0.5352 -0.2944
  733MOL0     C96664   8.142  11.626   2.239  0.7993 -0.0342 -0.0909
  733MOL0     C96665   8.279  11.624   2.291  0.1168 -0.6602  0.1865
  733MOL0     C96666   8.378  11.710   2.222  0.1686 -0.3717  0.0613
  733MOL0     C96667   8.510  11.714   2.303  0.0535  0.6472 -0.5224
  733MOL0    Cl96668   8.631  11.821   2.211  0.1616 -0.5246 -0.0858
  733MOL0     C96669   7.481  11.573   1.861 -0.1539  0.2528  0.4601
  733MOL0     C96670   7.369  11.484   1.839  0.3948 -0.5480 -0.6924
  733MOL0     O96671   7.380  11.118   1.734 -1.1226  0.0803 -0.6864
  733MOL0     C96672   7.148  10.982   1.658 -0.3678 -0.9359 -0.5001
  733MOL0     C96673   7.028  10.918   1.627 -0.1067 -0.5377  0.1039
  733MOL0     N96674   6.469  10.654   1.308  0.3547  0.2245 -0.1128
  733MOL0     N96675   6.398  10.562   1.248 -0.7655  0.0162  0.2698
  733MOL0     C96676   5.719  10.730   0.475  1.3392 -0.4589 -0.5428
  733MOL0     C96677   5.724  10.858   0.417  0.6030 -0.2484  0.1686
  733MOL0     C96678   5.884  11.293   0.325  0.5106 -1.0067  0.2657
  733MOL0     C96679   5.934  11.418   0.363  0.3081 -0.5815 -0.5578
  733MOL0     C96680   5.951  11.524   0.276  0.5281  0.4567  0.1000
  733MOL0     C96681   5.915  11.510   0.140 -0.0841  0.5038 -0.5792
  733MOL0     O96682   5.943  11.604   0.038 -0.4686  0.3305 -0.0227
  733MOL0     C96683   6.023  11.716   0.080 -0.1992  0.7620 -0.0674
  733MOL0     C96684   6.042  11.804  -0.052 -0.2699  0.3821 -0.5669
  733MOL0     C96685   5.914  11.862  -0.088 -0.1356 -0.0015 -0.2728
  733MOL0     C96686   5.935  11.953  -0.207 -1.0203 -0.0861 -0.2386
  733MOL0     C96687   5.992  12.086  -0.172  0.1641  0.3047  0.2809
  733MOL0     C96688   6.036  12.195  -0.142 -0.5319  0.0390 -0.4146
  733MOL0     C96689   5.841  11.390   0.099  0.6293  0.0158  0.2074
  733MOL0     C96690   5.831  11.288   0.191  0.0952 -1.4928 -0.0969
  733MOL0     H96691   5.933  11.005   0.641 -1.1350  2.7822 -3.1156
  733MOL0     H96692   5.915  10.790   0.741  1.4195 -0.9302 -1.5955
  733MOL0     H96693   5.868  10.493   0.488  1.4704 -1.5874  1.2090
  733MOL0     H96694   5.718  10.419   0.532  0.4418 -2.1017  0.3513
  733MOL0     H96695   5.929  10.304   0.593  4.3721  2.8429 -0.3090
  733MOL0     H96696   5.802  10.314   0.717 -0.1915 -1.1228 -0.0206
  733MOL0     H96697   5.971  10.525   0.787 -2.1974 -1.1708  2.0986
  733MOL0     H96698   6.086  10.421   0.699 -0.6790 -0.2490 -1.5787
  733MOL0     H96699   5.897  10.301   0.922 -0.5737 -4.6871 -2.3826
  733MOL0     H96700   6.026  10.229   0.832  1.3570  0.8050  0.5515
  733MOL0     H96701   6.161  10.458   0.949 -1.7114 -0.0146 -2.2598
  733MOL0     H96702   6.154  10.308   1.021  0.2846  0.1189 -0.9212
  733MOL0     H96703   5.938  10.371   1.150  0.7076 -1.3023  1.1582
  733MOL0     H96704   5.933  10.508   1.043 -1.5431  0.7596  2.3768
  733MOL0     H96705   6.140  10.605   1.151  0.0824  0.7297  2.4024
  733MOL0     H96706   5.999  10.582   1.264 -1.4718  0.7455 -0.7979
  733MOL0     H96707   6.195  10.367   1.266  4.6450  1.0177  0.3674
  733MOL0     H96708   6.102  10.445   1.388 -0.7783 -0.4731  0.4961
  733MOL0     H96709   6.220  10.656   1.510  0.6356  2.1247  0.8866
  733MOL0     H96710   6.483  10.743   1.602  0.9038 -5.3137 -1.6741
  733MOL0     H96711   6.351  10.846   1.538 -0.8415 -1.9063 -0.2714
  733MOL0     H96712   6.553  10.992   1.528  1.5500 -2.3329  0.9849
  733MOL0     H96713   6.497  10.948   1.368 -0.9024 -3.5593 -1.2611
  733MOL0     H96714   6.693  10.786   1.344  0.3776 -1.8117  1.2981
  733MOL0     H96715   6.749  10.943   1.392 -0.0349  1.1675 -0.7984
  733MOL0     H96716   6.845  10.747   1.533  1.9345  1.1040 -0.8708
  733MOL0     H96717   6.688  10.733   1.602  1.4241 -1.4397  0.2079
  733MOL0     H96718   6.813  11.086   1.807 -0.7587  1.3377 -2.1678
  733MOL0     H96719   7.036  11.191   1.892  1.3732 -1.6999  1.3209
  733MOL0     H96720   7.483  11.191   1.972 -1.1816 -0.1743 -1.5616
  733MOL0     H96721   7.677  11.346   2.022  1.2103 -0.5884 -1.5538
  733MOL0     H96722   7.711  11.533   2.127  0.4581 -1.0396 -0.6908
  733MOL0     H96723   7.667  11.690   2.102  0.5787  0.5375 -1.6864
  733MOL0     H96724   7.889  11.690   2.202  2.1655 -1.0345  1.1116
  733MOL0     H96725   7.905  11.761   2.042 -0.4818  1.3236  1.3163
  733MOL0     H96726   7.975  11.519   1.959  1.6299 -1.3467  0.2665
  733MOL0     H96727   7.935  11.467   2.122 -1.4156  0.5373  0.0989
  733MOL0     H96728   8.181  11.469   2.112 -0.2715  0.4812 -0.8682
  733MOL0     H96729   8.178  11.619   2.027  1.1757 -1.6423 -1.0116
  733MOL0     H96730   8.071  11.575   2.305 -2.2496  0.0149 -3.0693
  733MOL0     H96731   8.121  11.733   2.227  0.4377  0.0788  1.3726
  733MOL0     H96732   8.332  11.529   2.281 -2.9217 -2.3914 -0.6051
  733MOL0     H96733   8.266  11.661   2.393  0.0674  3.2106 -1.0840
  733MOL0     H96734   8.398  11.664   2.125  3.5980 -0.1942  0.5605
  733MOL0     H96735   8.332  11.809   2.213 -0.2600 -0.7139 -2.2316
  733MOL0     H96736   8.558  11.616   2.297  0.5309  0.8886 -0.7415
  733MOL0     H96737   8.489  11.750   2.404  0.5785  1.1626 -0.5891
  733MOL0     H96738   7.487  11.670   1.813 -1.3469 -0.2618 -0.7681
  733MOL0     H96739   7.282  11.538   1.802 -0.7572 -0.4920  1.8594
  733MOL0     H96740   7.244  10.947   1.620  1.2812  2.6159 -0.0390
  733MOL0     H96741   7.030  10.834   1.559 -1.0823  0.1302 -0.7704
  733MOL0     H96742   5.656  10.654   0.430  1.8193 -0.4801 -1.1994
  733MOL0     H96743   5.663  10.886   0.332  0.3064 -1.0560  0.1072
  733MOL0     H96744   5.964  11.432   0.467  0.2103  1.6580 -0.7820
  733MOL0     H96745   5.998  11.616   0.309  1.5486  0.5733 -1.5738
  733MOL0     H96746   6.122  11.690   0.118 -0.0035  1.2872 -0.2112
  733MOL0     H96747   5.967  11.770   0.156  3.1113 -0.9177  3.9659
  733MOL0     H96748   6.110  11.888  -0.037  0.9709 -0.7200  0.2058
  733MOL0     H96749   6.079  11.741  -0.134  2.0142 -0.0328  0.7025
  733MOL0     H96750   5.863  11.910  -0.003  0.5357  1.1823 -0.5266
  733MOL0     H96751   5.850  11.780  -0.122  0.7968 -0.1595 -1.6903
  733MOL0     H96752   5.980  11.904  -0.295  2.0861  2.7852 -0.4421
  733MOL0     H96753   5.835  11.971  -0.247 -0.6305 -0.4894 -1.4511
  733MOL0     H96754   6.065  12.295  -0.114  0.5855 -0.6508  0.9929
  733MOL0     H96755   5.803  11.402  -0.002  0.1385 -0.0695  0.3768
  733MOL0     H96756   5.768  11.206   0.159  0.9562 -3.2811  2.4770
  734MOL0     O96757  10.635   7.353   8.776  0.8458  0.5447 -0.8762
  734MOL0     C96758  10.670   7.449   8.715 -0.8101 -1.6604  0.1447
  734MOL0     O96759  10.744   7.557   8.776  0.1484 -0.0832  0.3393
  734MOL0     C96760  10.746   7.562   8.915 -0.4725  0.2787  0.5164
  734MOL0     C96761  10.626   7.572   8.982  0.6202 -0.6545  0.2815
  734MOL0     C96762  10.633   7.611   9.121 -0.2591 -0.2405  0.2908
  734MOL0     C96763  10.753   7.636   9.190 -0.3805  0.5109 -0.5145
  734MOL0     O96764  10.760   7.663   9.329 -0.0036 -0.3803 -0.0987
  734MOL0     C96765  10.639   7.680   9.398  0.8783  0.4139  0.7461
  734MOL0     C96766  10.648   7.710   9.551 -0.8457 -0.4268  0.2895
  734MOL0     C96767  10.678   7.859   9.589 -0.2235  0.5363 -0.7819
  734MOL0     C96768  10.659   7.886   9.736 -0.6966 -0.4749  0.0055
  734MOL0     C96769  10.733   7.793   9.834  0.5682 -0.4308 -0.2057
  734MOL0     C96770  10.881   7.792   9.806 -0.8263 -0.1660  0.4720
  734MOL0     C96771  10.929   7.671   9.890  0.8009 -0.1371  0.5136
  734MOL0     C96772  11.073   7.638   9.873 -0.6750  0.1840  0.0228
  734MOL0     N96773  11.159   7.721   9.958  1.4676 -0.3182 -0.3133
  734MOL0     C96774  11.261   7.800   9.910 -0.2341  0.1562 -0.8285
  734MOL0     C96775  11.327   7.830  10.031  0.2847 -1.0397 -0.7153
  734MOL0     C96776  11.470   7.887  10.048 -0.9337  0.0571 -0.6035
  734MOL0     C96777  11.487   7.931  10.194 -0.5322 -0.1923  0.3532
  734MOL0     C96778  11.614   8.025  10.202 -0.1084 -0.0461  1.5981
  734MOL0     C96779  11.736   7.993  10.122 -0.2825 -0.2000  0.1191
  734MOL0     O96780  11.841   8.087  10.156 -0.3811  0.0241  0.9843
  734MOL0     C96781  11.970   8.088  10.093 -0.3290 -0.4272  0.3867
  734MOL0     C96782  12.073   8.139  10.170  0.0879 -0.4474 -1.0921
  734MOL0     C96783  12.207   8.132  10.116  0.1428  0.2069  0.5673
  734MOL0     C96784  12.234   8.088   9.985 -0.2388 -0.5269 -0.3592
  734MOL0     C96785  12.370   8.096   9.924 -0.2271 -0.1548  0.7716
  734MOL0     O96786  12.466   8.140  10.006  0.5065 -0.3408  0.7354
  734MOL0     C96787  12.597   8.156   9.964 -0.3711  0.6668 -0.0899
  734MOL0     C96788  12.662   8.051   9.888  0.1051 -0.1591  0.4616
  734MOL0     C96789  12.791   8.083   9.843 -0.2351 -0.3749 -0.3234
  734MOL0     C96790  12.868   8.201   9.879 -0.4969  0.6300  0.4746
  734MOL0     O96791  13.001   8.219   9.835  0.0097  0.6043 -0.0929
  734MOL0     C96792  13.088   8.315   9.896  0.1464 -0.0727  0.0239
  734MOL0     C96793  13.223   8.255   9.884  0.5783 -0.4302 -0.7446
  734MOL0     C96794  13.328   8.345   9.941 -0.6962 -0.2878 -0.1761
  734MOL0     C96795  13.466   8.264   9.949  0.6272 -0.0334  0.7007
  734MOL0     C96796  13.581   8.345  10.012 -0.4188 -0.1079  0.5208
  734MOL0     C96797  13.723   8.299   9.969  0.0602  0.6335 -0.8385
  734MOL0     C96798  13.832   8.412   9.992  0.7234 -0.3349 -0.8323
  734MOL0     C96799  13.965   8.366   9.925  0.2592 -0.4715  0.4123
  734MOL0    Cl96800  14.109   8.441  10.006  0.3088  0.0251  0.0574
  734MOL0     C96801  12.807   8.301   9.958  0.3655  0.8862  0.5955
  734MOL0     C96802  12.669   8.271   9.999  0.0402 -0.1625  0.8656
  734MOL0     O96803  12.379   8.071   9.800  0.4333 -0.4916  0.0744
  734MOL0     C96804  12.126   8.058   9.908  0.5860  0.2383 -0.0721
  734MOL0     C96805  11.993   8.054   9.961 -0.1526 -0.5450 -0.6581
  734MOL0     N96806  11.251   7.777  10.134  0.0011 -0.1858  0.5299
  734MOL0     N96807  11.141   7.715  10.095  0.8544 -0.4383  0.8599
  734MOL0     C96808  10.867   7.636   9.114  0.5578  0.4685  0.5867
  734MOL0     C96809  10.865   7.594   8.982 -0.1751  0.1963 -0.6068
  734MOL0     C96810  10.650   7.456   8.568 -1.0850 -0.6515  0.3693
  734MOL0     C96811  10.595   7.352   8.494 -1.3134  0.0164 -0.2824
  734MOL0     C96812  10.595   7.347   8.356 -0.4851  0.0303 -1.1950
  734MOL0     C96813  10.659   7.448   8.283 -0.2167  0.3488 -0.1145
  734MOL0     O96814  10.677   7.436   8.145  0.1029  0.9736  0.0602
  734MOL0     C96815  10.556   7.451   8.073 -0.1692 -0.3194 -0.7144
  734MOL0     C96816  10.539   7.356   7.951 -0.2831  0.3211 -0.1561
  734MOL0     C96817  10.544   7.208   7.981  0.5537  0.7824 -0.4165
  734MOL0     C96818  10.400   7.142   7.955  0.5716  0.9881 -0.7818
  734MOL0     C96819  10.311   7.162   8.071 -0.1199  0.2942 -0.9170
  734MOL0     C96820  10.237   7.194   8.161  0.5991  0.8008 -0.9333
  734MOL0     C96821  10.728   7.547   8.352 -0.4110  0.0291 -0.0670
  734MOL0     C96822  10.726   7.546   8.494 -0.4711 -0.6310  0.1870
  734MOL0     H96823  10.539   7.561   8.917  0.8306 -0.7500  0.0168
  734MOL0     H96824  10.539   7.630   9.173  0.8521  2.3752  1.5276
  734MOL0     H96825  10.587   7.585   9.390  1.2107  0.2493  0.5039
  734MOL0     H96826  10.587   7.763   9.349 -1.6246 -1.4530  0.0458
  734MOL0     H96827  10.728   7.646   9.590 -1.5875 -0.8085  1.1988
  734MOL0     H96828  10.549   7.682   9.587 -0.2855  0.6916  2.9189
  734MOL0     H96829  10.601   7.923   9.545 -2.2237 -1.3742 -0.2941
  734MOL0     H96830  10.777   7.883   9.551  1.7164 -4.6600  0.1440
  734MOL0     H96831  10.703   7.984   9.756  1.6021 -1.0194 -1.8734
  734MOL0     H96832  10.555   7.875   9.767 -0.8185  0.1819 -0.1553
  734MOL0     H96833  10.683   7.697   9.819 -0.8305  0.3005 -0.3698
  734MOL0     H96834  10.714   7.826   9.937 -0.1299  0.3411 -0.5708
  734MOL0     H96835  10.940   7.880   9.830  0.8810 -1.0918 -0.0966
  734MOL0     H96836  10.904   7.779   9.700  0.1551  1.1471  0.5091
  734MOL0     H96837  10.902   7.682   9.996 -0.1541  3.5025  0.0181
  734MOL0     H96838  10.877   7.579   9.862 -0.2615 -0.2709  2.6754
  734MOL0     H96839  11.103   7.649   9.768  1.5887 -2.3334  0.2853
  734MOL0     H96840  11.079   7.530   9.891 -4.1508 -0.9293 -3.9263
  734MOL0     H96841  11.303   7.817   9.811  2.6119  4.1495  0.7795
  734MOL0     H96842  11.485   7.973   9.982 -3.0991  0.9810  0.0386
  734MOL0     H96843  11.541   7.810  10.016 -0.8725  1.1521 -3.3700
  734MOL0     H96844  11.515   7.835  10.239 -1.0603 -0.3792  0.2815
  734MOL0     H96845  11.400   7.981  10.237 -0.4945  1.0972 -0.9919
  734MOL0     H96846  11.579   8.121  10.162  1.2851 -0.3907 -0.5995
  734MOL0     H96847  11.630   8.037  10.310  0.3099 -1.8012  1.7590
  734MOL0     H96848  11.710   8.000  10.015  0.5433 -1.5682 -0.2070
  734MOL0     H96849  11.756   7.887  10.141  2.1606  0.6471  2.9005
  734MOL0     H96850  12.046   8.187  10.263  0.3450  1.8176 -2.1359
  734MOL0     H96851  12.285   8.178  10.176  1.4523 -1.0204 -0.1396
  734MOL0     H96852  12.619   7.957   9.854  0.1367  0.8154 -2.6008
  734MOL0     H96853  12.838   8.006   9.782 -1.2379  0.3178 -2.0025
  734MOL0     H96854  13.065   8.334  10.001 -0.6311  2.2092 -0.5217
  734MOL0     H96855  13.084   8.413   9.849  0.5944  0.0151  0.1622
  734MOL0     H96856  13.240   8.243   9.776 -2.1197 -0.0997 -1.2829
  734MOL0     H96857  13.214   8.151   9.917 -4.1222 -0.7695 -2.3746
  734MOL0     H96858  13.302   8.369  10.045  0.7660  0.3776  0.0684
  734MOL0     H96859  13.334   8.433   9.876 -1.1370  0.1454  0.3567
  734MOL0     H96860  13.458   8.162   9.990  3.2563 -1.4121 -1.8522
  734MOL0     H96861  13.496   8.251   9.845 -0.3006  1.2961  0.2419
  734MOL0     H96862  13.572   8.352  10.120  3.2082  1.3085  0.8391
  734MOL0     H96863  13.569   8.448   9.975 -1.8775 -0.7557 -0.9669
  734MOL0     H96864  13.725   8.270   9.863 -3.0609  2.9060 -1.6710
  734MOL0     H96865  13.762   8.211  10.022  0.5901  1.3626 -0.0041
  734MOL0     H96866  13.792   8.507   9.955 -1.3475 -0.2577  1.3455
  734MOL0     H96867  13.853   8.421  10.099 -2.8940  0.8870 -0.0731
  734MOL0     H96868  13.954   8.389   9.819 -3.6480  1.8340  1.0986
  734MOL0     H96869  13.969   8.256   9.933 -0.4464 -0.8220 -2.8066
  734MOL0     H96870  12.864   8.393   9.969  1.3820  0.2228  1.1059
  734MOL0     H96871  12.630   8.335  10.078  0.2758 -0.0681  0.9064
  734MOL0     H96872  12.134   8.028   9.804 -0.4660  1.8301 -0.6475
  734MOL0     H96873  11.908   8.027   9.900  0.7765 -0.2576 -2.1204
  734MOL0     H96874  10.956   7.681   9.158  2.8496 -2.0730 -1.1529
  734MOL0     H96875  10.948   7.608   8.915  0.6828  0.1686  0.4180
  734MOL0     H96876  10.534   7.287   8.555 -0.2866  1.0277  1.9482
  734MOL0     H96877  10.526   7.275   8.313 -2.7310  2.2093 -1.5217
  734MOL0     H96878  10.549   7.557   8.045  1.4660  0.9528  3.0045
  734MOL0     H96879  10.478   7.439   8.149  0.7110  0.6657  0.3836
  734MOL0     H96880  10.448   7.386   7.899  0.3188  0.2050 -1.2976
  734MOL0     H96881  10.612   7.390   7.877  0.5201  1.0259  0.9239
  734MOL0     H96882  10.587   7.193   8.080 -0.6727  1.3615  0.2263
  734MOL0     H96883  10.614   7.159   7.913 -1.1761 -0.2485 -1.5345
  734MOL0     H96884  10.355   7.187   7.866  0.9191 -0.9726 -2.0031
  734MOL0     H96885  10.403   7.034   7.938  0.9298  1.3852 -3.6761
  734MOL0     H96886  10.176   7.227   8.242 -0.1863 -2.5569 -0.0188
  734MOL0     H96887  10.790   7.627   8.314 -0.9304  2.2567  3.3706
  734MOL0     H96888  10.778   7.623   8.551  0.6112  1.2262 -3.0297
  735MOL0     O96889   5.794   7.822   0.503 -0.2984 -0.3452 -0.7091
  735MOL0     C96890   5.689   7.776   0.528 -0.4242 -0.5654  0.8160
  735MOL0     O96891   5.672   7.658   0.605 -0.3273 -0.7289  0.5837
  735MOL0     C96892   5.787   7.603   0.656 -0.5092 -0.4149 -0.1892
  735MOL0     C96893   5.842   7.482   0.599 -0.0952  0.4344  0.3135
  735MOL0     C96894   5.951   7.407   0.660  0.9100 -0.0292 -0.9984
  735MOL0     C96895   6.011   7.473   0.775  0.8648  0.1714  0.3628
  735MOL0     O96896   6.120   7.410   0.828  0.0257 -0.6310  0.7897
  735MOL0     C96897   6.230   7.402   0.733 -0.1541  1.1644  0.0368
  735MOL0     C96898   6.275   7.543   0.691 -0.5700 -0.3420 -0.2528
  735MOL0     C96899   6.423   7.542   0.668 -0.5187 -0.2978 -0.3621
  735MOL0     C96900   6.477   7.684   0.661  0.6661 -0.2292 -0.6512
  735MOL0     C96901   6.521   7.734   0.806  0.1652 -0.9512  0.0190
  735MOL0     C96902   6.620   7.856   0.774  0.5462 -0.7392 -0.0471
  735MOL0     C96903   6.684   7.915   0.902 -0.8504 -0.3125 -0.3649
  735MOL0     C96904   6.765   8.043   0.860 -0.2989 -0.3976  0.2544
  735MOL0     N96905   6.679   8.161   0.860  0.5669  0.1359 -0.2099
  735MOL0     C96906   6.645   8.241   0.751 -0.4511  0.1075  0.6010
  735MOL0     C96907   6.567   8.344   0.802 -1.7725 -0.8630  0.2430
  735MOL0     C96908   6.527   8.457   0.718  0.3645 -0.1715  0.3555
  735MOL0     C96909   6.637   8.566   0.712  0.7830  0.4429 -1.1022
  735MOL0     C96910   6.636   8.654   0.581  0.6871  0.8790  0.6743
  735MOL0     C96911   6.721   8.782   0.593 -0.8710  0.7362  0.8583
  735MOL0     O96912   6.855   8.742   0.570 -0.4956  0.1219 -0.7383
  735MOL0     C96913   6.948   8.845   0.577  0.1958 -0.4042  0.1612
  735MOL0     C96914   6.914   8.967   0.641  0.0256  0.1916  1.0547
  735MOL0     C96915   7.011   9.073   0.656  0.7521 -0.1876  1.1854
  735MOL0     C96916   7.143   9.036   0.635 -0.2584 -0.0276 -0.4010
  735MOL0     C96917   7.244   9.146   0.655  0.1764  0.7948 -0.1669
  735MOL0     O96918   7.358   9.118   0.592  0.3631 -0.4535  1.3915
  735MOL0     C96919   7.473   9.187   0.619  0.4360  0.3787 -0.8618
  735MOL0     C96920   7.514   9.202   0.749  0.8476 -0.5925 -0.1513
  735MOL0     C96921   7.630   9.265   0.778 -0.5036 -0.2195 -0.0612
  735MOL0     C96922   7.712   9.314   0.680 -1.3122 -0.6901  0.4941
  735MOL0     O96923   7.841   9.367   0.690  0.0290  0.5891  0.4905
  735MOL0     C96924   7.932   9.333   0.800 -0.2157  0.8405  0.4856
  735MOL0     C96925   8.062   9.414   0.783 -0.0095 -0.0831 -0.8526
  735MOL0     C96926   8.139   9.413   0.913 -0.4719  0.3152  0.0332
  735MOL0     C96927   8.069   9.463   1.032  0.4128 -0.9577 -0.1565
  735MOL0     C96928   8.158   9.475   1.152 -0.2291 -0.6253 -0.4838
  735MOL0     C96929   8.062   9.494   1.275  0.3082 -1.0668  0.5120
  735MOL0     C96930   8.014   9.644   1.281  0.1122 -0.3675  0.3333
  735MOL0     C96931   8.120   9.732   1.355 -0.0009 -0.4363 -0.4052
  735MOL0    Cl96932   8.145   9.678   1.526  0.5212  0.3060  0.3856
  735MOL0     C96933   7.674   9.302   0.545 -0.3732  0.1930 -0.1630
  735MOL0     C96934   7.551   9.234   0.520  0.7765  0.6144  0.1831
  735MOL0     O96935   7.216   9.248   0.716  0.5474  0.6107 -0.5379
  735MOL0     C96936   7.172   8.909   0.586 -0.1422  0.8094 -0.5365
  735MOL0     C96937   7.076   8.813   0.559  0.3290 -0.1010  0.6446
  735MOL0     N96938   6.549   8.324   0.945  0.0559 -0.4395  0.5229
  735MOL0     N96939   6.613   8.208   0.972  0.5849 -0.6977 -0.1038
  735MOL0     C96940   5.956   7.592   0.823 -0.9694 -0.3534  0.0373
  735MOL0     C96941   5.848   7.652   0.773 -0.0500  0.2990 -0.3380
  735MOL0     C96942   5.566   7.846   0.483  0.1152 -0.9368 -0.3079
  735MOL0     C96943   5.562   7.937   0.375  0.2482 -0.4728  0.2941
  735MOL0     C96944   5.444   8.007   0.341  0.2991 -0.1573  0.8300
  735MOL0     C96945   5.323   7.996   0.414 -0.2893  0.6220  0.1176
  735MOL0     O96946   5.223   8.078   0.378  0.4530 -1.3158  0.0335
  735MOL0     C96947   5.086   8.021   0.364  0.4819  0.0563  0.5155
  735MOL0     C96948   5.052   8.026   0.219 -0.5851 -0.5210  0.7879
  735MOL0     C96949   4.921   7.960   0.199  0.4624  0.0783  0.0362
  735MOL0     C96950   4.920   7.846   0.101  0.9676  0.0362  0.5821
  735MOL0     C96951   4.779   7.807   0.067  0.2056 -0.1377 -0.0854
  735MOL0     C96952   4.667   7.793   0.040  0.9980 -0.0295 -0.5094
  735MOL0     C96953   5.329   7.906   0.522 -0.3734  0.0828  0.3792
  735MOL0     C96954   5.453   7.842   0.562  0.1673 -0.6351  0.3935
  735MOL0     H96955   5.784   7.438   0.519 -0.1868 -0.1339  0.6885
  735MOL0     H96956   5.981   7.313   0.615 -3.3385 -1.7277 -0.6858
  735MOL0     H96957   6.206   7.344   0.643 -2.3426  2.2316 -0.1208
  735MOL0     H96958   6.313   7.346   0.778 -0.5532 -2.1028 -2.8489
  735MOL0     H96959   6.268   7.614   0.775  1.5630 -0.9746  0.5080
  735MOL0     H96960   6.225   7.575   0.599 -0.0604  1.7808  0.1373
  735MOL0     H96961   6.450   7.493   0.574  2.9960  1.0480 -0.2001
  735MOL0     H96962   6.461   7.498   0.760  3.5723  1.0202 -1.2332
  735MOL0     H96963   6.565   7.675   0.596  1.3467 -0.4186  0.2626
  735MOL0     H96964   6.405   7.753   0.618  0.0857 -1.0543 -1.0115
  735MOL0     H96965   6.572   7.656   0.863  2.7497 -0.0549 -0.9426
  735MOL0     H96966   6.436   7.772   0.864  0.2452 -1.3508  0.4046
  735MOL0     H96967   6.558   7.932   0.728 -0.5163 -1.6436 -0.1502
  735MOL0     H96968   6.692   7.835   0.695  0.4682  1.5370 -0.7891
  735MOL0     H96969   6.601   7.928   0.973  0.1875  3.2315  0.4018
  735MOL0     H96970   6.742   7.837   0.952  1.3174  1.5300  0.1511
  735MOL0     H96971   6.804   8.027   0.759 -1.8971  0.8069 -0.6051
  735MOL0     H96972   6.846   8.062   0.930 -1.5508  1.0504  1.3721
  735MOL0     H96973   6.672   8.225   0.647 -0.5675 -2.3183  0.8775
  735MOL0     H96974   6.433   8.497   0.755 -1.4686 -1.0458 -2.9928
  735MOL0     H96975   6.499   8.417   0.620  1.4409  0.6324 -0.3052
  735MOL0     H96976   6.732   8.512   0.719  0.2255 -0.6041 -1.3964
  735MOL0     H96977   6.630   8.628   0.802  1.8800 -1.2330  0.2143
  735MOL0     H96978   6.688   8.597   0.503  0.7913  1.8975 -0.0090
  735MOL0     H96979   6.532   8.678   0.557 -0.0854 -2.1927  0.4925
  735MOL0     H96980   6.716   8.818   0.696 -2.7029  1.3101  0.6059
  735MOL0     H96981   6.689   8.860   0.523 -0.9627 -0.0064  0.0616
  735MOL0     H96982   6.816   8.988   0.682 -0.9536 -0.3018 -0.9146
  735MOL0     H96983   6.980   9.168   0.698  0.3383  1.6254 -2.7737
  735MOL0     H96984   7.447   9.156   0.820 -0.6003 -0.0014 -1.0863
  735MOL0     H96985   7.659   9.290   0.880  2.6988  2.0206 -1.3468
  735MOL0     H96986   7.956   9.227   0.798  0.8204  1.0183  1.7357
  735MOL0     H96987   7.877   9.369   0.888  0.6533  1.4105  0.8214
  735MOL0     H96988   8.034   9.518   0.765 -4.7904 -0.9432  0.2001
  735MOL0     H96989   8.124   9.376   0.701  0.9180 -1.0092  0.2459
  735MOL0     H96990   8.231   9.469   0.893  0.9280 -2.2320 -0.9762
  735MOL0     H96991   8.180   9.313   0.925 -1.3698 -0.1659 -0.7356
  735MOL0     H96992   8.005   9.552   1.020  1.8482  0.0466 -0.6132
  735MOL0     H96993   7.989   9.389   1.043  0.5098 -1.5806 -2.9546
  735MOL0     H96994   8.232   9.552   1.131 -2.5477  2.4385  1.5978
  735MOL0     H96995   8.204   9.376   1.153 -1.4049 -1.2301 -2.0132
  735MOL0     H96996   8.109   9.458   1.367 -2.2608 -2.1535  1.4872
  735MOL0     H96997   7.970   9.437   1.262 -1.1238  1.5664 -2.0393
  735MOL0     H96998   8.006   9.676   1.177 -0.2716 -5.1546 -1.3812
  735MOL0     H96999   7.913   9.637   1.322  0.5325 -6.1493  1.2670
  735MOL0     H97000   8.083   9.835   1.363  1.2262 -0.1073  1.4050
  735MOL0     H97001   8.217   9.740   1.305  2.8097 -0.1208  4.4552
  735MOL0     H97002   7.744   9.345   0.473 -0.1819 -0.8783 -0.6454
  735MOL0     H97003   7.511   9.231   0.419 -1.5061 -0.5689  1.0620
  735MOL0     H97004   7.274   8.872   0.575  0.1814  0.4954  2.5210
  735MOL0     H97005   7.102   8.724   0.503  2.2637  1.4848 -1.1366
  735MOL0     H97006   6.006   7.631   0.910 -0.5019 -3.9456  1.5620
  735MOL0     H97007   5.815   7.745   0.818  0.9739  0.4868  0.0617
  735MOL0     H97008   5.657   7.952   0.325  0.1067 -3.6331 -1.1412
  735MOL0     H97009   5.450   8.083   0.263 -0.4826 -2.8735 -2.0723
  735MOL0     H97010   5.013   8.082   0.417  0.0381 -0.2147  0.2252
  735MOL0     H97011   5.074   7.923   0.412 -3.8013  1.0643  1.9108
  735MOL0     H97012   5.056   8.124   0.170  2.3040  0.2851  2.3892
  735MOL0     H97013   5.124   7.961   0.170 -2.5502 -0.7050 -2.1196
  735MOL0     H97014   4.842   8.030   0.171  1.1581  1.7987  2.1593
  735MOL0     H97015   4.889   7.909   0.290  0.7453 -2.0906 -1.0051
  735MOL0     H97016   4.958   7.891   0.009 -1.9274  4.3017  1.1805
  735MOL0     H97017   4.979   7.762   0.141  0.3497 -0.9677 -0.5571
  735MOL0     H97018   4.564   7.790   0.009  0.5900  0.8812  0.6883
  735MOL0     H97019   5.240   7.913   0.585 -0.3558 -0.1030  0.4254
  735MOL0     H97020   5.463   7.792   0.658 -0.4785  0.8673  1.2806
  736MOL0     O97021   7.455   6.210  10.595 -0.7592  0.0752 -0.8006
  736MOL0     C97022   7.385   6.263  10.500 -1.1276 -0.6148 -0.1227
  736MOL0     O97023   7.416   6.351  10.407  0.1324  0.1461  0.3261
  736MOL0     C97024   7.553   6.384  10.395  0.0123 -0.1410 -0.1403
  736MOL0     C97025   7.649   6.420  10.491  0.3656 -1.1888  0.1025
  736MOL0     C97026   7.782   6.444  10.453  0.4364  0.0642  0.2243
  736MOL0     C97027   7.827   6.433  10.324  0.4667  0.2957 -1.1296
  736MOL0     O97028   7.956   6.469  10.280 -0.6001 -0.5599  0.1520
  736MOL0     C97029   8.052   6.541  10.363 -0.3594  0.5256  0.0092
  736MOL0     C97030   8.183   6.544  10.273 -0.6734 -0.1854  0.3657
  736MOL0     C97031   8.307   6.603  10.351  0.0814  0.1762  0.0993
  736MOL0     C97032   8.437   6.570  10.268 -1.0182 -0.8059 -0.6485
  736MOL0     C97033   8.558   6.602  10.364  0.0250  0.2982 -0.2752
  736MOL0     C97034   8.682   6.619  10.273  0.0706 -0.5189 -0.1855
  736MOL0     C97035   8.795   6.621  10.356  0.0018 -0.1741 -0.5229
  736MOL0     C97036   8.914   6.670  10.265 -0.6723 -0.1710 -0.2247
  736MOL0     N97037   9.054   6.654  10.316 -0.0826 -0.3614 -0.0768
  736MOL0     C97038   9.132   6.752  10.380  0.2546  0.0390  0.2356
  736MOL0     C97039   9.253   6.694  10.404 -1.1987  0.2653 -0.1216
  736MOL0     C97040   9.363   6.745  10.488  0.2218  0.1306  0.4304
  736MOL0     C97041   9.506   6.709  10.451  0.2309 -0.4077 -0.5125
  736MOL0     C97042   9.552   6.728  10.297  0.2525 -0.1987 -0.1486
  736MOL0     C97043   9.591   6.867  10.243 -0.1131  0.3209  0.2485
  736MOL0     O97044   9.486   6.967  10.268 -0.2562 -0.5720  0.3796
  736MOL0     C97045   9.379   6.962  10.184  0.6564  0.7200 -0.5551
  736MOL0     C97046   9.345   6.863  10.081 -0.2888 -0.7498 -0.6630
  736MOL0     C97047   9.229   6.869  10.012  0.2810  0.2019 -0.3064
  736MOL0     C97048   9.127   6.967  10.032  0.0713  0.3802  0.7456
  736MOL0     C97049   8.999   6.964   9.955  0.6873  0.2528 -0.6730
  736MOL0     O97050   8.924   7.075   9.942  0.2079  0.4107 -0.5787
  736MOL0     C97051   8.792   7.051   9.914 -0.5097  0.5584  0.1667
  736MOL0     C97052   8.706   6.966   9.988  0.0290 -0.4502  0.0923
  736MOL0     C97053   8.570   6.959   9.953 -0.7332 -0.1782 -0.1554
  736MOL0     C97054   8.524   7.014   9.833  0.4094  0.3370  1.2022
  736MOL0     O97055   8.398   6.993   9.770 -0.6577  0.4214 -0.9831
  736MOL0     C97056   8.290   6.996   9.864 -0.1895  0.2127 -0.2410
  736MOL0     C97057   8.158   7.036   9.802 -0.5580 -0.2332 -0.5026
  736MOL0     C97058   8.108   6.930   9.701 -0.6462  0.3482 -1.4238
  736MOL0     C97059   7.960   6.937   9.680 -0.7957  0.1025 -0.0844
  736MOL0     C97060   7.898   6.817   9.615 -0.7480 -0.5645  0.2691
  736MOL0     C97061   7.952   6.803   9.476  0.0726  1.4534  0.1665
  736MOL0     C97062   7.925   6.898   9.369  0.6339 -0.3455  0.4658
  736MOL0     C97063   7.773   6.908   9.331 -0.2210 -0.7704 -0.1650
  736MOL0    Cl97064   7.724   6.741   9.299  0.4278 -0.2733  0.4398
  736MOL0     C97065   8.613   7.091   9.757 -0.3117 -0.2450 -0.4116
  736MOL0     C97066   8.749   7.117   9.805 -0.1669  0.4755  0.9700
  736MOL0     O97067   8.975   6.851   9.903  0.1275 -0.8901  0.4225
  736MOL0     C97068   9.160   7.070  10.121  0.2569  0.8121  0.0505
  736MOL0     C97069   9.278   7.061  10.200 -0.6684 -0.1408 -0.5282
  736MOL0     N97070   9.238   6.561  10.354 -0.2606 -0.4972  0.3009
  736MOL0     N97071   9.123   6.543  10.297  0.3666  0.1897 -0.0347
  736MOL0     C97072   7.728   6.409  10.233 -0.4781  0.4409  0.6288
  736MOL0     C97073   7.598   6.386  10.264  0.0346 -1.2519 -1.0988
  736MOL0     C97074   7.240   6.228  10.507 -0.3819 -0.2438 -0.4401
  736MOL0     C97075   7.144   6.292  10.429  0.0970 -0.1478  1.0426
  736MOL0     C97076   7.005   6.263  10.450 -0.1136 -0.2797  0.4252
  736MOL0     C97077   6.960   6.175  10.546 -0.3768  0.6730  0.1716
  736MOL0     O97078   6.835   6.148  10.569 -0.5260  0.3950 -1.0639
  736MOL0     C97079   6.734   6.185  10.470  0.1382  0.0250 -0.0632
  736MOL0     C97080   6.738   6.089  10.352 -0.1894  0.4556 -1.1362
  736MOL0     C97081   6.607   6.116  10.278  0.0576 -0.0998  1.0409
  736MOL0     C97082   6.632   6.132  10.134  0.2152  0.7880  0.4361
  736MOL0     C97083   6.708   6.250  10.086 -1.1309  1.2872  0.5486
  736MOL0     C97084   6.777   6.337  10.040 -0.3341 -0.8131  0.7147
  736MOL0     C97085   7.055   6.108  10.619  0.2921  0.1972  0.0797
  736MOL0     C97086   7.190   6.141  10.611  0.1856 -1.2264  0.4154
  736MOL0     H97087   7.626   6.433  10.596  0.2662 -0.0641 -0.0506
  736MOL0     H97088   7.853   6.472  10.529  0.8917  1.2523 -0.6183
  736MOL0     H97089   8.086   6.510  10.462  1.9856 -1.0296 -1.1981
  736MOL0     H97090   8.003   6.638  10.377 -1.1941  0.1520 -0.2419
  736MOL0     H97091   8.164   6.585  10.174  2.6496 -0.6260 -0.5719
  736MOL0     H97092   8.213   6.442  10.247  3.6000  2.3110 -7.6181
  736MOL0     H97093   8.306   6.563  10.452 -0.7862  1.1063  0.4757
  736MOL0     H97094   8.289   6.711  10.355 -0.9343  0.1194 -1.9145
  736MOL0     H97095   8.446   6.464  10.239 -1.5872 -1.4573  1.3847
  736MOL0     H97096   8.436   6.631  10.177 -0.4081  1.6966  0.9377
  736MOL0     H97097   8.577   6.515  10.427  1.7095 -2.9870 -4.7603
  736MOL0     H97098   8.552   6.694  10.422  1.8146  2.0248 -2.6446
  736MOL0     H97099   8.671   6.710  10.214  4.0845 -0.6218 -1.3856
  736MOL0     H97100   8.697   6.540  10.199  2.4428  1.6455 -2.2013
  736MOL0     H97101   8.783   6.698  10.432 -1.6476  0.4241 -1.3339
  736MOL0     H97102   8.801   6.526  10.410  0.3516  0.7932  1.1915
  736MOL0     H97103   8.897   6.773  10.231  1.4115  0.1304 -0.4877
  736MOL0     H97104   8.909   6.611  10.174 -3.5601  0.5949 -0.6454
  736MOL0     H97105   9.095   6.845  10.423 -1.9663 -1.4416  1.7547
  736MOL0     H97106   9.339   6.707  10.588  2.1026  0.4756  1.0530
  736MOL0     H97107   9.351   6.853  10.490 -2.7716  0.0971 -3.2536
  736MOL0     H97108   9.522   6.607  10.489  1.4090 -0.5403 -1.3056
  736MOL0     H97109   9.575   6.771  10.509  1.7126  0.0059 -2.5997
  736MOL0     H97110   9.634   6.657  10.285 -0.6686 -1.3557  0.1835
  736MOL0     H97111   9.476   6.676  10.238  0.5512  0.2774 -0.9706
  736MOL0     H97112   9.601   6.860  10.134 -2.9069 -0.5876 -0.0174
  736MOL0     H97113   9.679   6.904  10.296 -0.8745  2.1097  0.3340
  736MOL0     H97114   9.411   6.782  10.051 -1.5005 -2.6430  1.5215
  736MOL0     H97115   9.206   6.784   9.950 -0.6722  0.5410 -0.4321
  736MOL0     H97116   8.732   6.913  10.079 -0.7502  1.4927  1.5283
  736MOL0     H97117   8.502   6.892  10.004 -0.9030 -0.8924 -1.2897
  736MOL0     H97118   8.308   7.064   9.947 -3.2140  2.0270 -0.9432
  736MOL0     H97119   8.279   6.901   9.917 -1.9570  0.5082 -0.0279
  736MOL0     H97120   8.175   7.135   9.758 -1.8873  1.5122  2.5705
  736MOL0     H97121   8.093   7.050   9.889  0.3442  0.2316  0.1225
  736MOL0     H97122   8.129   6.827   9.730  2.6602  1.1267 -0.7155
  736MOL0     H97123   8.151   6.937   9.601  2.2583  0.5860 -0.2339
  736MOL0     H97124   7.896   6.935   9.769 -3.6583  2.5074 -1.8856
  736MOL0     H97125   7.945   7.030   9.624  3.1751  0.4267 -0.9227
  736MOL0     H97126   7.789   6.814   9.600 -0.6019 -1.2274 -0.8288
  736MOL0     H97127   7.929   6.728   9.669 -1.3739 -2.8822 -2.8650
  736MOL0     H97128   7.923   6.701   9.447  1.0485  1.4871 -1.0412
  736MOL0     H97129   8.060   6.797   9.486 -0.1319  0.4027  2.4924
  736MOL0     H97130   7.982   6.990   9.382  0.1855 -0.0038  0.0858
  736MOL0     H97131   7.969   6.854   9.279  0.4005 -0.4700  0.4095
  736MOL0     H97132   7.755   6.964   9.238  1.4332  0.5042  0.2454
  736MOL0     H97133   7.717   6.950   9.415 -3.1372 -1.0100 -1.8527
  736MOL0     H97134   8.582   7.129   9.660  3.3698 -2.7648 -2.8110
  736MOL0     H97135   8.814   7.187   9.752  0.3665 -0.7922 -0.1028
  736MOL0     H97136   9.090   7.152  10.132 -1.5573 -0.8158  1.4741
  736MOL0     H97137   9.301   7.145  10.264 -0.5309 -0.6011  0.0317
  736MOL0     H97138   7.754   6.391  10.129 -1.4726 -0.0683  0.4605
  736MOL0     H97139   7.536   6.368  10.177 -0.2553 -0.7443 -1.0016
  736MOL0     H97140   7.168   6.372  10.359 -2.2470  0.9525  1.3937
  736MOL0     H97141   6.941   6.308  10.375  1.1293  1.0963  0.1336
  736MOL0     H97142   6.741   6.289  10.438 -4.4712 -0.0544 -1.9782
  736MOL0     H97143   6.640   6.187  10.525  1.3268 -0.8993  2.1409
  736MOL0     H97144   6.826   6.100  10.287  1.4894  0.1373  0.9493
  736MOL0     H97145   6.742   5.986  10.387  1.5603  0.4597 -1.2425
  736MOL0     H97146   6.547   6.199  10.317  1.0556  3.0132 -3.3177
  736MOL0     H97147   6.547   6.025  10.268 -1.7821  1.1758 -0.3115
  736MOL0     H97148   6.683   6.045  10.093 -1.0727 -0.1999  0.8488
  736MOL0     H97149   6.537   6.132  10.079  0.5375  2.6642 -0.2251
  736MOL0     H97150   6.819   6.420   9.987 -2.1908 -0.4421 -0.2772
  736MOL0     H97151   7.007   6.037  10.685 -1.0750  0.7106 -0.3403
  736MOL0     H97152   7.259   6.097  10.683  0.3345 -1.8186 -0.0769
  737MOL0     O97153  10.077   9.594  10.076  0.3608 -0.1210 -0.1342
  737MOL0     C97154  10.101   9.511   9.990 -0.1793 -0.1295 -0.0671
  737MOL0     O97155  10.144   9.534   9.860  0.4505 -0.1224 -1.0366
  737MOL0     C97156  10.170   9.659   9.826  0.0157 -0.5772  0.2729
  737MOL0     C97157  10.069   9.756   9.833 -0.1877 -0.1498 -0.5241
  737MOL0     C97158  10.096   9.889   9.800 -1.2993  0.1185 -1.0242
  737MOL0     C97159  10.224   9.918   9.740 -0.2378  0.0624  0.5548
  737MOL0     O97160  10.263  10.045   9.706  0.0063 -0.2318 -0.9211
  737MOL0     C97161  10.242  10.135   9.812  0.3922 -0.3606  0.3766
  737MOL0     C97162  10.285  10.267   9.770  0.8346  0.0175  0.1536
  737MOL0     C97163  10.258  10.376   9.871  1.0071 -0.1318  0.0093
  737MOL0     C97164  10.326  10.511   9.841 -0.1688 -0.5559  0.7545
  737MOL0     C97165  10.238  10.621   9.892  0.8034  0.6339  0.2809
  737MOL0     C97166  10.317  10.752   9.880  0.0802 -0.2888 -0.4126
  737MOL0     C97167  10.239  10.868   9.932 -0.4489  0.1810 -0.4068
  737MOL0     C97168  10.313  11.005   9.931  0.4646 -0.1954 -0.1939
  737MOL0     N97169  10.250  11.106  10.019 -0.0908 -0.2365 -0.2110
  737MOL0     C97170  10.171  11.215   9.982 -0.7360  0.3895  0.9839
  737MOL0     C97171  10.178  11.306  10.074  0.2683  0.1817  0.4710
  737MOL0     C97172  10.117  11.442  10.092 -0.1825  0.3858 -0.1342
  737MOL0     C97173   9.966  11.434  10.127 -0.3130  0.0516  0.9093
  737MOL0     C97174   9.910  11.575  10.135 -0.3550 -0.6899  0.1897
  737MOL0     C97175   9.758  11.567  10.158  0.5726  0.5197 -0.6963
  737MOL0     O97176   9.705  11.697  10.160 -0.2876  0.1544 -0.7630
  737MOL0     C97177   9.593  11.708  10.245  0.2480 -0.4659 -0.5164
  737MOL0     C97178   9.611  11.731  10.380 -0.4196  0.1820  0.3204
  737MOL0     C97179   9.501  11.756  10.456  0.0225 -0.4482 -0.3325
  737MOL0     C97180   9.364  11.759  10.407 -0.4941  0.3646 -0.3755
  737MOL0     C97181   9.252  11.783  10.494 -0.0861  0.9823 -0.5699
  737MOL0     O97182   9.283  11.834  10.613 -0.2610 -0.5345 -0.2194
  737MOL0     C97183   9.183  11.848  10.704 -0.1593 -0.5164 -0.1211
  737MOL0     C97184   9.211  11.811  10.838  0.3849 -0.2538 -0.2751
  737MOL0     C97185   9.114  11.827  10.941 -0.5833 -0.4248 -0.1928
  737MOL0     C97186   8.998  11.903  10.914 -0.2181  0.4741 -0.3800
  737MOL0     O97187   8.924  11.953  11.020 -0.3241  0.2874 -0.1080
  737MOL0     C97188   8.817  12.041  10.995 -0.4741  0.0410  0.0109
  737MOL0     C97189   8.740  12.070  11.121  0.0195  0.2511  0.0362
  737MOL0     C97190   8.598  12.104  11.086 -0.6896  0.1271 -0.5038
  737MOL0     C97191   8.540  12.176  11.202  1.3400  0.1897  0.0559
  737MOL0     C97192   8.425  12.279  11.164 -0.1385 -0.0930 -0.8928
  737MOL0     C97193   8.294  12.235  11.097  0.3106 -0.2663  0.5038
  737MOL0     C97194   8.217  12.357  11.049  0.1342  0.4778  0.4781
  737MOL0     C97195   8.078  12.308  11.002 -0.0016 -0.4189 -0.0291
  737MOL0    Cl97196   8.011  12.452  10.924  0.1365  0.2418  0.0701
  737MOL0     C97197   8.971  11.929  10.780  0.2983 -0.9987  0.8208
  737MOL0     C97198   9.057  11.899  10.675  0.2069 -0.7007  0.1994
  737MOL0     O97199   9.148  11.736  10.456 -0.4455 -0.4578  0.5585
  737MOL0     C97200   9.348  11.719  10.265 -0.7550 -0.1650 -1.1399
  737MOL0     C97201   9.461  11.699  10.190 -0.2561  0.5513  0.3555
  737MOL0     N97202  10.266  11.258  10.167 -0.6624  0.6871 -2.0446
  737MOL0     N97203  10.312  11.140  10.135  0.0938 -0.1895  0.5497
  737MOL0     C97204  10.315   9.817   9.711  0.1211 -0.7928 -0.2625
  737MOL0     C97205  10.292   9.692   9.766 -0.3809  0.7237 -1.3313
  737MOL0     C97206  10.083   9.380  10.034  0.1100  0.1938 -0.0862
  737MOL0     C97207  10.069   9.269   9.952 -0.2840 -0.3360  0.1833
  737MOL0     C97208  10.058   9.137   9.996 -0.3387  0.3124  0.2685
  737MOL0     C97209  10.036   9.114  10.141 -0.0504  0.4151 -0.3781
  737MOL0     O97210  10.023   8.993  10.195 -0.1143 -0.2385  0.4339
  737MOL0     C97211  10.055   8.882  10.112  0.1635 -0.0572 -1.0505
  737MOL0     C97212  10.101   8.760  10.192 -0.3702  0.3546  0.7016
  737MOL0     C97213  10.151   8.639  10.097 -0.1652 -0.1876 -0.5207
  737MOL0     C97214  10.190   8.505  10.168 -0.2195  0.4440  0.1703
  737MOL0     C97215  10.317   8.524  10.237  0.3459 -0.4848  0.3687
  737MOL0     C97216  10.422   8.519  10.296 -0.7180 -0.0322  0.7986
  737MOL0     C97217  10.051   9.221  10.231 -0.7066  0.1363  0.9423
  737MOL0     C97218  10.069   9.348  10.173  0.0274 -0.3528 -0.2452
  737MOL0     H97219   9.971   9.731   9.873 -0.4088  2.5405  0.8939
  737MOL0     H97220  10.016   9.960   9.815  0.9022  2.4580  0.3366
  737MOL0     H97221  10.268  10.105   9.914 -5.5941 -1.7260  1.8925
  737MOL0     H97222  10.134  10.144   9.825  0.0198  1.6911 -2.8821
  737MOL0     H97223  10.223  10.288   9.682 -0.6442 -4.2160 -0.0147
  737MOL0     H97224  10.391  10.267   9.744  1.0165 -1.6869  0.7895
  737MOL0     H97225  10.302  10.354   9.968  1.9540  1.6932  0.0490
  737MOL0     H97226  10.150  10.386   9.876  1.0424  0.9753 -0.7936
  737MOL0     H97227  10.432  10.514   9.871  0.7445 -1.3904 -2.1093
  737MOL0     H97228  10.335  10.535   9.735 -0.2836  0.8726  1.0430
  737MOL0     H97229  10.239  10.596   9.999  1.5749 -1.3056 -0.1360
  737MOL0     H97230  10.136  10.622   9.852  0.8303 -3.9138 -0.4743
  737MOL0     H97231  10.333  10.763   9.772 -0.3526  1.0985 -0.3497
  737MOL0     H97232  10.419  10.752   9.921  0.0868 -1.1937 -0.3896
  737MOL0     H97233  10.153  10.875   9.864  0.9524 -3.2746 -2.8384
  737MOL0     H97234  10.209  10.851  10.035 -4.8316  0.5264 -1.4319
  737MOL0     H97235  10.318  11.039   9.827 -0.0597 -0.8853 -0.4468
  737MOL0     H97236  10.409  10.978   9.975  1.6945 -4.0159 -4.4039
  737MOL0     H97237  10.125  11.212   9.883  1.2793  2.1962 -0.0944
  737MOL0     H97238  10.136  11.490   9.996 -0.4086 -3.6944 -2.4559
  737MOL0     H97239  10.161  11.497  10.176 -1.7910 -1.7375  2.2386
  737MOL0     H97240   9.951  11.385  10.224 -2.0144 -0.4287  0.4192
  737MOL0     H97241   9.916  11.373  10.052 -1.1248  0.6977  0.9142
  737MOL0     H97242   9.973  11.620  10.212 -0.2654  1.6371 -1.1566
  737MOL0     H97243   9.929  11.638  10.048 -0.9829  1.1507  1.3190
  737MOL0     H97244   9.741  11.514  10.253  1.2881 -1.5655 -1.6558
  737MOL0     H97245   9.709  11.509  10.079  1.6994  0.8637 -1.6628
  737MOL0     H97246   9.708  11.733  10.428 -0.9183 -1.0671  1.4535
  737MOL0     H97247   9.530  11.783  10.557  1.3053  1.2050 -1.0992
  737MOL0     H97248   9.315  11.786  10.854  1.8441  3.6220 -2.4164
  737MOL0     H97249   9.137  11.804  11.044 -6.3702 -2.0782  1.0776
  737MOL0     H97250   8.753  11.996  10.918 -0.6821  2.0076 -1.0090
  737MOL0     H97251   8.858  12.130  10.947  2.5011 -1.1074  0.2031
  737MOL0     H97252   8.795  12.149  11.174  1.2195 -1.6057  1.6889
  737MOL0     H97253   8.732  11.981  11.184 -1.2848 -1.3299 -2.2112
  737MOL0     H97254   8.546  12.009  11.072  0.3164 -0.3792 -0.8640
  737MOL0     H97255   8.594  12.174  11.003  0.5638  2.0523  0.9592
  737MOL0     H97256   8.499  12.097  11.265 -2.4908  2.2083  0.3665
  737MOL0     H97257   8.616  12.234  11.255  1.0060  1.8939 -1.2256
  737MOL0     H97258   8.471  12.341  11.086  3.2041 -2.5550 -1.0962
  737MOL0     H97259   8.396  12.330  11.256 -3.0880 -1.7915 -0.7699
  737MOL0     H97260   8.233  12.187  11.173 -1.7613 -0.6408 -1.2850
  737MOL0     H97261   8.315  12.168  11.012  1.6787 -0.6022  1.0808
  737MOL0     H97262   8.214  12.431  11.129 -0.3622  4.0242 -2.5378
  737MOL0     H97263   8.268  12.415  10.972  0.1546 -0.1354  0.0151
  737MOL0     H97264   8.009  12.281  11.082  0.2463  1.7188  0.9686
  737MOL0     H97265   8.072  12.227  10.929 -1.1475  0.6017 -1.1175
  737MOL0     H97266   8.889  11.991  10.746  1.3147 -1.5470 -3.1424
  737MOL0     H97267   9.040  11.937  10.575  1.0413 -0.3549  0.1764
  737MOL0     H97268   9.250  11.706  10.221 -1.3929  1.1853 -0.1927
  737MOL0     H97269   9.441  11.685  10.084  0.2525  0.7932  0.2219
  737MOL0     H97270  10.410   9.843   9.665  0.3710 -0.3806  0.4654
  737MOL0     H97271  10.365   9.612   9.760 -0.3526  0.6547 -0.2935
  737MOL0     H97272  10.077   9.285   9.845 -0.6387 -0.8877  0.0685
  737MOL0     H97273  10.073   9.068   9.915  0.7525  3.4547 -2.4498
  737MOL0     H97274  10.122   8.903  10.028 -1.9831 -0.1321 -2.8670
  737MOL0     H97275   9.964   8.853  10.058 -0.6528 -1.2126  0.8601
  737MOL0     H97276  10.183   8.800  10.251  0.7512  2.0643 -1.8330
  737MOL0     H97277  10.025   8.713  10.256 -0.7990 -3.3901 -2.2028
  737MOL0     H97278  10.231   8.688  10.040  0.7697 -0.0309  0.8663
  737MOL0     H97279  10.070   8.614  10.028 -2.0709  1.6455  0.9488
  737MOL0     H97280  10.116   8.462  10.236 -1.7196  1.6310 -0.6734
  737MOL0     H97281  10.189   8.430  10.088 -2.3487 -0.7840  1.2511
  737MOL0     H97282  10.517   8.534  10.343 -0.4092  1.4558 -0.2132
  737MOL0     H97283  10.059   9.209  10.339 -2.3244  1.4957  1.2585
  737MOL0     H97284  10.096   9.429  10.240 -2.7267  0.0383  0.5474
  738MOL0     O97285   2.732   0.719   0.027 -0.3632  0.0986  0.7131
  738MOL0     C97286   2.746   0.598   0.013 -0.3152  0.4347  0.3438
  738MOL0     O97287   2.820   0.520   0.088  0.2402  0.8497  0.6472
  738MOL0     C97288   2.865   0.573   0.206 -0.5438 -0.1253  0.1857
  738MOL0     C97289   2.991   0.635   0.201  0.1574 -0.6798  0.4086
  738MOL0     C97290   3.064   0.663   0.314  0.2287 -0.6750 -0.4934
  738MOL0     C97291   3.002   0.649   0.439  0.4025  0.2008  0.3651
  738MOL0     O97292   3.071   0.659   0.562  0.2873  0.2779  0.3357
  738MOL0     C97293   3.124   0.528   0.602  0.5213  0.2780 -0.0844
  738MOL0     C97294   3.185   0.536   0.741 -0.5030  0.8719  0.4425
  738MOL0     C97295   3.085   0.592   0.845 -0.3294 -0.8588 -0.8391
  738MOL0     C97296   3.146   0.639   0.984  0.1899  0.3022  0.7318
  738MOL0     C97297   3.198   0.513   1.057 -0.8559  0.2335 -0.2334
  738MOL0     C97298   3.284   0.537   1.180  0.8722 -0.0775 -0.1714
  738MOL0     C97299   3.419   0.605   1.137 -0.3972 -0.0370 -0.3641
  738MOL0     C97300   3.510   0.602   1.262  0.1484  0.4702 -0.0234
  738MOL0     N97301   3.548   0.460   1.291 -0.8005 -0.1487 -0.4170
  738MOL0     C97302   3.645   0.370   1.228  1.1549  1.0822 -0.4705
  738MOL0     C97303   3.629   0.263   1.302 -1.1586  0.0553  0.0655
  738MOL0     C97304   3.693   0.130   1.278 -0.7348 -0.5154 -0.5885
  738MOL0     C97305   3.846   0.130   1.289  0.1342  1.6808 -0.3978
  738MOL0     C97306   3.885  -0.021   1.265 -1.1597  0.7237 -0.1020
  738MOL0     C97307   3.836  -0.093   1.142  0.1463 -0.0359 -0.4679
  738MOL0     O97308   3.883  -0.017   1.025  0.7101 -0.3718  0.1990
  738MOL0     C97309   3.835  -0.024   0.907  0.0798  0.6924  0.1801
  738MOL0     C97310   3.919  -0.003   0.793  0.0299 -1.1618 -1.6366
  738MOL0     C97311   3.856  -0.001   0.665 -0.3634 -0.1483  0.5884
  738MOL0     C97312   3.720  -0.021   0.648  0.1456 -0.1997  0.9239
  738MOL0     C97313   3.662  -0.019   0.517  0.7033 -0.7529  0.5495
  738MOL0     O97314   3.530  -0.011   0.508 -0.5787 -0.0379  0.0738
  738MOL0     C97315   3.450  -0.015   0.387 -0.2078  0.2619  0.1486
  738MOL0     C97316   3.487   0.036   0.269  0.3792  0.3971 -0.4286
  738MOL0     C97317   3.402   0.033   0.151  0.5146  0.0417 -0.3679
  738MOL0     C97318   3.286  -0.044   0.161 -0.6322  0.3510 -0.1551
  738MOL0     O97319   3.208  -0.053   0.056  0.4112 -0.2212  0.4341
  738MOL0     C97320   3.245  -0.157  -0.030 -0.0614  0.2639  0.9066
  738MOL0     C97321   3.167  -0.288  -0.009  0.2717  0.1276 -0.7174
  738MOL0     C97322   3.195  -0.393  -0.116 -0.1142 -0.7044  0.3328
  738MOL0     C97323   3.133  -0.529  -0.079  0.4047 -1.3716  0.3408
  738MOL0     C97324   2.977  -0.536  -0.079  0.6848  0.6400 -0.6366
  738MOL0     C97325   2.907  -0.531  -0.219 -0.4367 -0.6939 -0.4575
  738MOL0     C97326   2.760  -0.532  -0.233 -1.0580  0.9862  0.0772
  738MOL0     C97327   2.716  -0.493  -0.382 -0.0563  0.5183 -0.1303
  738MOL0    Cl97328   2.729  -0.317  -0.414 -0.3648 -0.6359 -0.3745
  738MOL0     C97329   3.258  -0.109   0.277  0.6053 -1.2545 -1.3336
  738MOL0     C97330   3.337  -0.088   0.393 -0.6307 -0.1622  0.2775
  738MOL0     O97331   3.740  -0.028   0.424 -0.3198 -0.3466  0.3849
  738MOL0     C97332   3.644  -0.043   0.758 -0.0462 -0.5850 -0.8495
  738MOL0     C97333   3.698  -0.032   0.889  0.1278  0.7312  0.1848
  738MOL0     N97334   3.540   0.277   1.402  0.3691 -0.5255  0.5667
  738MOL0     N97335   3.490   0.395   1.402  0.3893 -0.2010 -0.0829
  738MOL0     C97336   2.874   0.597   0.441  0.3419 -0.7036 -0.5047
  738MOL0     C97337   2.806   0.552   0.325 -0.0565 -0.0887  0.1952
  738MOL0     C97338   2.683   0.534  -0.104  0.0813 -0.6252  0.6165
  738MOL0     C97339   2.667   0.396  -0.106 -0.1648 -0.1421 -0.6300
  738MOL0     C97340   2.587   0.332  -0.200 -0.0170 -0.6670  0.1465
  738MOL0     C97341   2.524   0.402  -0.301 -1.0071 -0.3344 -0.5538
  738MOL0     O97342   2.452   0.349  -0.398 -0.2015  0.1317  0.1566
  738MOL0     C97343   2.451   0.201  -0.423 -0.3064  0.4367 -0.4164
  738MOL0     C97344   2.365   0.152  -0.541 -0.1682  0.3561  0.7888
  738MOL0     C97345   2.220   0.148  -0.510  0.8490  0.6476 -0.5304
  738MOL0     C97346   2.134   0.142  -0.635  0.1723  0.2723 -0.0612
  738MOL0     C97347   1.982   0.144  -0.619 -0.6028 -1.0981 -0.1319
  738MOL0     C97348   1.861   0.148  -0.598 -0.7720  0.5699 -2.1093
  738MOL0     C97349   2.548   0.538  -0.315 -0.2451 -1.1938 -0.2792
  738MOL0     C97350   2.626   0.603  -0.208 -0.8974  0.1133  0.1119
  738MOL0     H97351   3.037   0.641   0.103  2.2102 -1.6862  1.2553
  738MOL0     H97352   3.167   0.695   0.303 -0.4282  1.1725 -1.6320
  738MOL0     H97353   3.187   0.480   0.527  0.1723 -0.5213  0.1217
  738MOL0     H97354   3.040   0.460   0.617  1.8330 -1.9799 -2.2110
  738MOL0     H97355   3.270   0.605   0.745 -0.2179  0.9220 -3.0017
  738MOL0     H97356   3.228   0.439   0.765 -0.0595  1.6388  3.1692
  738MOL0     H97357   3.004   0.521   0.864 -0.3354 -0.2568  1.8339
  738MOL0     H97358   3.033   0.680   0.806  4.2121  2.0973 -0.9958
  738MOL0     H97359   3.224   0.714   0.968  0.5337 -0.1241  0.3724
  738MOL0     H97360   3.067   0.680   1.047 -0.1266  0.0517  0.4981
  738MOL0     H97361   3.254   0.443   0.994 -0.6522 -1.0851  1.3573
  738MOL0     H97362   3.119   0.449   1.098  1.2431 -1.4841  1.3474
  738MOL0     H97363   3.291   0.445   1.238 -1.4598  1.5271  2.9341
  738MOL0     H97364   3.233   0.611   1.242  2.1612  0.1014  0.7044
  738MOL0     H97365   3.475   0.553   1.059 -0.8188  0.1767 -0.8127
  738MOL0     H97366   3.396   0.710   1.120 -2.5045  0.3612  3.5917
  738MOL0     H97367   3.459   0.656   1.342  3.7459  2.7372  1.0179
  738MOL0     H97368   3.604   0.658   1.250  0.3274 -0.1802 -2.2083
  738MOL0     H97369   3.708   0.394   1.144  1.4167  3.5010  0.3340
  738MOL0     H97370   3.653   0.102   1.180 -1.5787 -0.9061 -0.1404
  738MOL0     H97371   3.656   0.068   1.360  1.5462  0.8880  1.6727
  738MOL0     H97372   3.865   0.156   1.393 -0.3811  1.1678 -0.1691
  738MOL0     H97373   3.895   0.205   1.225  1.0616  1.7940  0.4181
  738MOL0     H97374   3.990  -0.050   1.268 -1.3089  0.1191 -0.5787
  738MOL0     H97375   3.840  -0.073   1.351  1.7917 -2.3532 -0.2137
  738MOL0     H97376   3.728  -0.101   1.151  0.0076  1.5194 -0.4034
  738MOL0     H97377   3.889  -0.189   1.141  0.3777  0.0872 -1.8971
  738MOL0     H97378   4.026   0.017   0.804 -0.5523  1.2263  0.5936
  738MOL0     H97379   3.910   0.009   0.571  0.9644  2.3110  1.5142
  738MOL0     H97380   3.572   0.104   0.265 -1.0317  2.2046 -2.4401
  738MOL0     H97381   3.431   0.083   0.059  1.3391 -2.3304 -1.4801
  738MOL0     H97382   3.352  -0.179  -0.025  0.1860  1.2080  0.2014
  738MOL0     H97383   3.232  -0.113  -0.130 -2.7398  2.5534  2.1027
  738MOL0     H97384   3.061  -0.262  -0.015  0.0837 -0.5872 -0.5518
  738MOL0     H97385   3.188  -0.339   0.085  0.8475 -4.1312 -2.9338
  738MOL0     H97386   3.304  -0.399  -0.122 -0.1081 -0.4945  0.2228
  738MOL0     H97387   3.160  -0.350  -0.210 -2.2966  2.5394  2.4235
  738MOL0     H97388   3.175  -0.610  -0.138 -0.5440 -1.2009 -0.5879
  738MOL0     H97389   3.160  -0.558   0.024  2.8596  0.4412  0.2957
  738MOL0     H97390   2.932  -0.471  -0.003  0.6239 -0.1104 -0.0142
  738MOL0     H97391   2.951  -0.633  -0.037  1.1616  1.2577  1.1680
  738MOL0     H97392   2.959  -0.615  -0.266  2.6130 -0.8581  2.8363
  738MOL0     H97393   2.938  -0.438  -0.268  0.5923 -1.2604 -0.9257
  738MOL0     H97394   2.733  -0.637  -0.219  0.2530  0.3880 -1.5464
  738MOL0     H97395   2.701  -0.478  -0.158 -1.0311  0.8619  0.1880
  738MOL0     H97396   2.614  -0.526  -0.406 -0.1799  1.6651 -1.2819
  738MOL0     H97397   2.779  -0.542  -0.457  0.5610 -1.0574  1.3394
  738MOL0     H97398   3.174  -0.178   0.283  1.6005 -2.4072 -0.2379
  738MOL0     H97399   3.318  -0.132   0.490 -0.8574  0.6607  0.6125
  738MOL0     H97400   3.540  -0.065   0.739 -0.8262  0.0223  2.2347
  738MOL0     H97401   3.622  -0.059   0.962 -0.7026  0.7291 -0.6430
  738MOL0     H97402   2.814   0.576   0.528  2.3162  2.7348  1.9624
  738MOL0     H97403   2.700   0.530   0.339 -0.6355  1.8990 -0.6760
  738MOL0     H97404   2.720   0.339  -0.029  2.8047  0.6341 -1.9413
  738MOL0     H97405   2.577   0.224  -0.192  2.4396 -0.9308  0.4533
  738MOL0     H97406   2.436   0.140  -0.334  2.4428  0.6715  0.3154
  738MOL0     H97407   2.553   0.166  -0.442 -0.7731 -1.2933  0.0705
  738MOL0     H97408   2.384   0.221  -0.623  2.5560 -1.9942 -0.7614
  738MOL0     H97409   2.398   0.053  -0.575 -1.0312 -0.1133  1.2647
  738MOL0     H97410   2.187   0.234  -0.449 -1.1592 -0.9297  0.7382
  738MOL0     H97411   2.217   0.053  -0.457  0.7268 -0.3728 -2.3052
  738MOL0     H97412   2.149   0.225  -0.704 -0.2112 -0.2510 -0.7892
  738MOL0     H97413   2.169   0.051  -0.684 -0.8491  0.1463 -0.5859
  738MOL0     H97414   1.758   0.153  -0.569  0.0276  3.1054  0.7735
  738MOL0     H97415   2.497   0.580  -0.401 -0.8856 -2.8768 -0.7589
  738MOL0     H97416   2.642   0.711  -0.201 -0.0222 -0.1038  2.0193
  739MOL0     O97417   6.881   9.804   3.397  0.2102 -0.2957 -0.1987
  739MOL0     C97418   6.999   9.805   3.435 -0.8328 -0.1146  0.1348
  739MOL0     O97419   7.111   9.861   3.367  0.7189  0.1712  0.0687
  739MOL0     C97420   7.072   9.944   3.258 -0.1408 -0.9133 -0.1305
  739MOL0     C97421   7.041   9.881   3.136 -0.1592 -0.4578 -0.4884
  739MOL0     C97422   6.968   9.963   3.037  0.0565 -0.5156 -0.6062
  739MOL0     C97423   6.947  10.102   3.068  0.9504  0.0879 -0.4914
  739MOL0     O97424   6.880  10.184   2.987  0.0054  0.7576 -0.2535
  739MOL0     C97425   6.751  10.219   3.025 -0.1293  0.1939  0.7054
  739MOL0     C97426   6.677  10.263   2.897  0.7780  0.1159 -0.0111
  739MOL0     C97427   6.655  10.416   2.895  0.6077 -0.6592  0.6030
  739MOL0     C97428   6.621  10.443   2.757 -1.2590  0.1609  0.5665
  739MOL0     C97429   6.603  10.597   2.748 -0.2723 -0.2600 -0.2724
  739MOL0     C97430   6.473  10.651   2.826  0.1151 -0.7853 -0.3376
  739MOL0     C97431   6.357  10.566   2.779  0.6029  0.0548 -0.1020
  739MOL0     C97432   6.221  10.595   2.834 -0.7269 -0.3589  1.2267
  739MOL0     N97433   6.162  10.734   2.803 -0.6215 -0.0351  0.1629
  739MOL0     C97434   6.189  10.845   2.876 -0.6344 -0.0319  1.0493
  739MOL0     C97435   6.126  10.942   2.802 -0.4934 -0.0712 -0.0500
  739MOL0     C97436   6.104  11.086   2.847 -0.3424  0.3550  0.3023
  739MOL0     C97437   6.230  11.169   2.808 -0.5505 -0.0272  0.2317
  739MOL0     C97438   6.262  11.192   2.659  0.2772  0.3318  0.1968
  739MOL0     C97439   6.142  11.225   2.560  0.8547  0.5361 -0.1609
  739MOL0     O97440   6.062  11.329   2.620 -0.6212 -0.1637 -0.3317
  739MOL0     C97441   6.101  11.456   2.590 -0.1909  0.2293  0.3245
  739MOL0     C97442   6.190  11.495   2.486  1.2464  0.0338 -0.1937
  739MOL0     C97443   6.222  11.625   2.462  0.3147  1.1473  0.5690
  739MOL0     C97444   6.158  11.724   2.544 -0.2630  1.2369 -1.0822
  739MOL0     C97445   6.177  11.872   2.507 -0.2183  0.2702 -0.3155
  739MOL0     O97446   6.128  11.965   2.592 -0.2745  0.4153 -0.7746
  739MOL0     C97447   6.126  12.097   2.560 -0.0891  0.5177 -0.8077
  739MOL0     C97448   6.009  12.168   2.598 -0.0321  0.3134 -0.2689
  739MOL0     C97449   6.000  12.297   2.597 -0.5836  0.4353  0.4831
  739MOL0     C97450   6.102  12.375   2.529 -0.5498  0.9275 -0.5793
  739MOL0     O97451   6.089  12.503   2.490  0.6316  0.2110 -0.8643
  739MOL0     C97452   5.978  12.583   2.528  0.0710 -1.4148  0.3397
  739MOL0     C97453   6.023  12.727   2.502 -0.7429 -0.0353  0.0421
  739MOL0     C97454   5.914  12.828   2.565  0.4021  1.0694 -0.0483
  739MOL0     C97455   5.891  12.951   2.484 -0.3449 -1.1559 -0.2724
  739MOL0     C97456   5.867  13.070   2.574  1.0941 -0.0203  0.5165
  739MOL0     C97457   5.812  13.192   2.505 -0.1516  0.0524  0.8669
  739MOL0     C97458   5.798  13.302   2.608 -0.1404 -0.1783 -0.2636
  739MOL0     C97459   5.716  13.434   2.561  0.1376 -0.1037 -0.4114
  739MOL0    Cl97460   5.716  13.543   2.706 -0.1674 -0.2750 -0.4307
  739MOL0     C97461   6.221  12.304   2.491 -0.2865 -0.0596 -0.0634
  739MOL0     C97462   6.236  12.169   2.509  0.0964 -0.6568  0.2824
  739MOL0     O97463   6.245  11.899   2.411  0.1704  0.0626  0.0330
  739MOL0     C97464   6.063  11.689   2.645  0.0976 -0.6412 -0.0345
  739MOL0     C97465   6.039  11.558   2.666  0.8974 -0.9065 -0.4948
  739MOL0     N97466   6.067  10.889   2.697  0.3822 -0.1650  1.4815
  739MOL0     N97467   6.079  10.764   2.695 -0.7293  0.7993 -0.4092
  739MOL0     C97468   7.002  10.166   3.184  0.9962  0.8512 -0.3778
  739MOL0     C97469   7.062  10.082   3.277 -0.4939  0.3557 -0.3940
  739MOL0     C97470   7.032   9.754   3.574  0.0435 -0.7097 -0.0132
  739MOL0     C97471   6.938   9.729   3.675  0.1728  0.0690  0.5475
  739MOL0     C97472   6.973   9.707   3.802  0.1127  1.2438  0.4521
  739MOL0     C97473   7.105   9.685   3.838 -0.8363 -1.0009 -0.8143
  739MOL0     O97474   7.146   9.650   3.967  0.2256  0.3153 -0.6984
  739MOL0     C97475   7.070   9.538   4.029 -0.2932  0.3983  0.4437
  739MOL0     C97476   7.126   9.502   4.164 -0.7632 -0.1738  0.0344
  739MOL0     C97477   7.276   9.492   4.174 -1.0784  0.0027  1.0901
  739MOL0     C97478   7.326   9.468   4.319  0.5069  0.2518  0.4691
  739MOL0     C97479   7.472   9.467   4.336 -0.7125  0.6991 -1.1460
  739MOL0     C97480   7.584   9.455   4.372  0.5631  0.4698 -0.6292
  739MOL0     C97481   7.201   9.716   3.746 -0.5560 -0.2072 -0.1149
  739MOL0     C97482   7.166   9.738   3.614 -0.5805 -0.6537  0.8164
  739MOL0     H97483   7.057   9.774   3.133 -0.7407 -0.5360 -0.8800
  739MOL0     H97484   6.931   9.927   2.941 -0.0991  2.4245 -1.7427
  739MOL0     H97485   6.750  10.310   3.086  2.4898  1.8892 -1.5823
  739MOL0     H97486   6.686  10.135   3.052  1.1886 -1.6013 -1.4038
  739MOL0     H97487   6.581  10.215   2.875  1.0020 -0.0021 -0.7746
  739MOL0     H97488   6.735  10.230   2.810 -0.9606 -0.7856 -0.8846
  739MOL0     H97489   6.745  10.476   2.911 -0.6454  2.4471 -2.7143
  739MOL0     H97490   6.578  10.451   2.964 -2.7241 -0.7634 -2.7600
  739MOL0     H97491   6.704  10.417   2.690 -0.0928  1.4561  1.4503
  739MOL0     H97492   6.538  10.382   2.721 -0.5155 -1.7294  1.9388
  739MOL0     H97493   6.597  10.612   2.640 -1.2778 -0.3514 -0.2356
  739MOL0     H97494   6.690  10.651   2.786 -1.6417  1.6853  0.2219
  739MOL0     H97495   6.472  10.753   2.785 -1.6818 -1.2736 -1.6059
  739MOL0     H97496   6.490  10.656   2.934 -0.2031  0.9104 -0.3379
  739MOL0     H97497   6.340  10.580   2.672 -3.2118 -0.3983  0.3094
  739MOL0     H97498   6.366  10.458   2.798 -1.7191 -0.0790  0.5013
  739MOL0     H97499   6.225  10.587   2.943 -0.0593 -0.6238  1.1844
  739MOL0     H97500   6.159  10.521   2.783  0.6237  0.4448 -1.8103
  739MOL0     H97501   6.251  10.845   2.965 -1.1670  1.9793  1.4820
  739MOL0     H97502   6.093  11.085   2.956 -1.2087 -2.9198  0.2800
  739MOL0     H97503   6.015  11.118   2.791 -0.8711  0.6317  1.2748
  739MOL0     H97504   6.314  11.113   2.850  0.2974 -0.7132 -2.1919
  739MOL0     H97505   6.219  11.263   2.863 -0.3101 -1.8955  3.7698
  739MOL0     H97506   6.342  11.267   2.658 -2.5855  3.7427 -1.9743
  739MOL0     H97507   6.308  11.101   2.620  2.5282  1.6368 -0.3889
  739MOL0     H97508   6.076  11.138   2.562  1.3298  0.1770  1.3392
  739MOL0     H97509   6.170  11.232   2.454 -1.7169 -1.5945 -1.0781
  739MOL0     H97510   6.231  11.412   2.429 -0.5631 -4.4681  4.2628
  739MOL0     H97511   6.288  11.650   2.380 -0.4878 -1.6397 -1.0879
  739MOL0     H97512   5.921  12.112   2.628  0.3899 -1.0940 -1.4811
  739MOL0     H97513   5.915  12.349   2.638 -2.2489  0.0136 -2.2041
  739MOL0     H97514   5.971  12.578   2.637 -0.9327  2.2099  0.5561
  739MOL0     H97515   5.886  12.560   2.474 -1.6855  4.1570  0.3224
  739MOL0     H97516   6.033  12.739   2.393 -2.6341  0.2409 -0.1500
  739MOL0     H97517   6.117  12.744   2.555 -2.6893 -0.2588  3.8955
  739MOL0     H97518   5.950  12.869   2.660  3.8895  1.2694 -1.2851
  739MOL0     H97519   5.824  12.775   2.594  1.6280 -1.3537 -0.4452
  739MOL0     H97520   5.975  12.971   2.416 -1.6271 -2.2991 -2.2892
  739MOL0     H97521   5.813  12.946   2.408  0.3510  1.0664 -1.2329
  739MOL0     H97522   5.965  13.091   2.618  1.6649 -2.1434  0.3693
  739MOL0     H97523   5.790  13.042   2.646  1.3780  0.7021  1.1208
  739MOL0     H97524   5.714  13.175   2.459  1.3726 -0.5607 -2.4526
  739MOL0     H97525   5.882  13.228   2.430 -2.7904  0.6174 -1.4843
  739MOL0     H97526   5.755  13.260   2.699 -1.7348 -0.0088 -0.9079
  739MOL0     H97527   5.899  13.336   2.632 -0.8676  2.0464 -0.0928
  739MOL0     H97528   5.608  13.420   2.544 -0.2784 -2.3630  2.9643
  739MOL0     H97529   5.763  13.483   2.475  0.1535  3.7415  1.5703
  739MOL0     H97530   6.305  12.349   2.440 -1.0887 -1.0378 -2.4065
  739MOL0     H97531   6.325  12.114   2.481 -0.8013 -1.6965 -0.6247
  739MOL0     H97532   6.007  11.757   2.708  1.1511  0.8131 -0.6152
  739MOL0     H97533   5.965  11.525   2.738  0.0093 -3.1276 -2.3071
  739MOL0     H97534   6.978  10.271   3.199 -0.6255  0.5217 -0.4509
  739MOL0     H97535   7.105  10.122   3.368 -0.6157 -1.8300  0.6849
  739MOL0     H97536   6.835   9.755   3.652 -0.4289  1.4719  4.1201
  739MOL0     H97537   6.901   9.697   3.882 -0.9567 -0.8045 -0.6675
  739MOL0     H97538   7.066   9.448   3.968 -5.6909 -2.5093  4.1925
  739MOL0     H97539   6.969   9.578   4.034  0.4041  3.6208 -4.5574
  739MOL0     H97540   7.080   9.574   4.233 -0.9192 -0.5959  0.3808
  739MOL0     H97541   7.076   9.406   4.182  1.8033 -1.9415 -1.5233
  739MOL0     H97542   7.314   9.590   4.144  1.7383 -0.0207  4.0520
  739MOL0     H97543   7.310   9.406   4.116 -1.6549  0.8389 -0.5286
  739MOL0     H97544   7.281   9.556   4.365 -0.7759 -0.8490  1.3875
  739MOL0     H97545   7.286   9.373   4.357  2.3348 -2.2221 -3.1669
  739MOL0     H97546   7.689   9.461   4.391  0.5003 -0.7725  0.2311
  739MOL0     H97547   7.308   9.715   3.768  0.0711  1.2270 -2.7747
  739MOL0     H97548   7.244   9.734   3.539  0.7006 -1.7000  2.1316
  740MOL0     O97549   4.138   8.957   5.507 -0.6866 -0.2830  0.6519
  740MOL0     C97550   4.261   8.954   5.526  0.0198  0.3555  0.3820
  740MOL0     O97551   4.354   9.037   5.470  0.0310 -0.2232  0.0407
  740MOL0     C97552   4.331   9.104   5.359 -0.3154 -0.2746  0.4615
  740MOL0     C97553   4.233   9.070   5.259 -0.2234 -0.9713  0.5668
  740MOL0     C97554   4.211   9.159   5.150 -0.8318 -0.0543  0.5074
  740MOL0     C97555   4.276   9.288   5.140  0.3123 -0.1868  0.1834
  740MOL0     O97556   4.244   9.376   5.037 -0.2440 -0.8717  0.8780
  740MOL0     C97557   4.260   9.320   4.906  0.0107  1.3487 -0.3294
  740MOL0     C97558   4.308   9.422   4.810 -0.0129 -0.1269  0.0143
  740MOL0     C97559   4.240   9.558   4.815  0.1632 -1.0073  0.4270
  740MOL0     C97560   4.298   9.656   4.696  0.3671  0.2995  0.8697
  740MOL0     C97561   4.196   9.774   4.685 -0.1866 -0.1452 -0.0647
  740MOL0     C97562   4.223   9.887   4.788 -0.0446 -0.3798 -0.4321
  740MOL0     C97563   4.142  10.008   4.731  0.0760  0.4694  0.5868
  740MOL0     C97564   4.178  10.133   4.805  0.7537 -0.2344  0.0105
  740MOL0     N97565   4.142  10.127   4.949 -0.3285 -0.2981 -0.0005
  740MOL0     C97566   4.012  10.150   5.002  0.4148  0.6286  0.3441
  740MOL0     C97567   4.028  10.156   5.135 -0.4649 -0.3927 -0.3574
  740MOL0     C97568   3.925  10.196   5.230 -0.3151  0.4053  0.7305
  740MOL0     C97569   3.998  10.246   5.364 -0.0657  0.7664 -0.3321
  740MOL0     C97570   3.892  10.279   5.469  0.1191 -0.1251  0.2282
  740MOL0     C97571   3.966  10.307   5.603 -0.9718 -0.6734 -0.9789
  740MOL0     O97572   3.866  10.348   5.705 -0.0444  0.9668 -0.3515
  740MOL0     C97573   3.907  10.365   5.834  0.3929 -0.0577 -0.1429
  740MOL0     C97574   3.817  10.315   5.930 -0.8176 -0.7108 -0.2530
  740MOL0     C97575   3.849  10.310   6.069 -0.8971 -0.2602  0.7261
  740MOL0     C97576   3.969  10.367   6.120 -0.0172  0.1965 -0.2260
  740MOL0     C97577   3.994  10.359   6.259 -0.6260  0.2705 -0.1825
  740MOL0     O97578   4.120  10.397   6.299 -0.6310  0.2056 -0.4306
  740MOL0     C97579   4.156  10.398   6.427 -0.4094  0.4678  0.1153
  740MOL0     C97580   4.171  10.275   6.491  0.1447  0.1230  0.6651
  740MOL0     C97581   4.231  10.271   6.617 -0.6585 -1.5854 -0.3094
  740MOL0     C97582   4.267  10.384   6.687  0.6652  0.0821  0.9548
  740MOL0     O97583   4.318  10.374   6.812  0.3130  0.1330  0.7229
  740MOL0     C97584   4.200  10.393   6.902  0.2617  0.3956 -0.5171
  740MOL0     C97585   4.249  10.454   7.032 -0.0880  0.1092 -0.3570
  740MOL0     C97586   4.317  10.341   7.102 -0.7444  0.6068  0.4408
  740MOL0     C97587   4.358  10.376   7.243 -0.4612 -0.6058  0.3474
  740MOL0     C97588   4.457  10.268   7.299 -0.2621 -0.2660  0.2628
  740MOL0     C97589   4.446  10.262   7.446  0.1470 -0.4596  0.2493
  740MOL0     C97590   4.557  10.169   7.504 -0.4853  0.2838 -0.0677
  740MOL0     C97591   4.536  10.119   7.648 -1.1724  0.1479 -0.0656
  740MOL0    Cl97592   4.452  10.230   7.759 -0.1105 -0.1648 -0.0196
  740MOL0     C97593   4.266  10.502   6.616  0.3016 -0.5941  0.3878
  740MOL0     C97594   4.223  10.511   6.485  0.7944 -0.9691 -0.0010
  740MOL0     O97595   3.902  10.332   6.329 -0.3801  0.1476 -0.4177
  740MOL0     C97596   4.058  10.416   6.022 -0.2476 -0.2058 -0.2577
  740MOL0     C97597   4.034  10.408   5.882  0.4007 -0.0440 -0.6127
  740MOL0     N97598   4.164  10.116   5.163  0.0461 -0.8018 -0.9682
  740MOL0     N97599   4.222  10.107   5.052 -0.6089 -0.8475 -0.4399
  740MOL0     C97600   4.371   9.323   5.242  0.2779  0.7678 -0.9919
  740MOL0     C97601   4.403   9.224   5.342 -0.4370  0.9541 -0.1809
  740MOL0     C97602   4.307   8.860   5.635 -0.7477 -0.9614  1.4906
  740MOL0     C97603   4.226   8.816   5.737  0.6867 -0.4993  0.3834
  740MOL0     C97604   4.287   8.747   5.841  0.0758  0.7253 -0.7792
  740MOL0     C97605   4.421   8.717   5.838 -0.4999 -0.5617 -0.7918
  740MOL0     O97606   4.471   8.648   5.943 -0.0744 -1.2288 -0.2623
  740MOL0     C97607   4.611   8.654   5.967  0.0127  0.6469 -0.0237
  740MOL0     C97608   4.631   8.569   6.094 -0.2260  0.3943  0.4068
  740MOL0     C97609   4.639   8.418   6.079  0.7077 -0.1606  0.5743
  740MOL0     C97610   4.605   8.341   6.207  0.2230  0.1683  0.2054
  740MOL0     C97611   4.598   8.200   6.177  0.8035  0.3431 -0.7261
  740MOL0     C97612   4.602   8.077   6.165  0.7811 -0.4967 -0.5088
  740MOL0     C97613   4.502   8.749   5.731  0.3343  0.2337  1.0726
  740MOL0     C97614   4.445   8.821   5.628  0.5837  0.3458  0.0828
  740MOL0     H97615   4.192   8.969   5.265  0.8373 -1.6877 -2.5394
  740MOL0     H97616   4.143   9.133   5.070 -2.8992 -1.6270  2.6164
  740MOL0     H97617   4.156   9.297   4.879 -0.0377  2.4775 -1.1659
  740MOL0     H97618   4.323   9.230   4.901  0.7408  1.8409 -0.1259
  740MOL0     H97619   4.296   9.379   4.710 -1.2535  2.8669 -1.2629
  740MOL0     H97620   4.416   9.433   4.818  0.0454 -1.0814  0.7387
  740MOL0     H97621   4.277   9.612   4.903  1.4421 -1.4473  0.1829
  740MOL0     H97622   4.132   9.548   4.822 -0.0661 -0.1619 -1.4439
  740MOL0     H97623   4.398   9.695   4.718  0.0107  3.1589 -1.8435
  740MOL0     H97624   4.308   9.607   4.599 -0.3425 -1.8192  1.8125
  740MOL0     H97625   4.090   9.745   4.688 -0.4714  0.8806  0.2810
  740MOL0     H97626   4.219   9.820   4.589  3.4031  2.2270  1.7394
  740MOL0     H97627   4.329   9.910   4.793  0.1280 -1.2267 -0.0044
  740MOL0     H97628   4.187   9.856   4.887 -0.3168 -0.1287 -0.4522
  740MOL0     H97629   4.169  10.024   4.626 -0.0229  2.6146  0.8475
  740MOL0     H97630   4.035   9.989   4.742  0.4185 -1.1110  1.6971
  740MOL0     H97631   4.141  10.223   4.755 -1.1740 -0.7345  0.4607
  740MOL0     H97632   4.286  10.145   4.806  1.0074 -2.0819  2.0538
  740MOL0     H97633   3.913  10.174   4.964  0.4434 -0.4188 -0.4286
  740MOL0     H97634   3.854  10.113   5.238  1.0622 -0.9620 -0.5820
  740MOL0     H97635   3.862  10.277   5.190 -1.1132  0.8775  2.7837
  740MOL0     H97636   4.067  10.331   5.361 -0.1218  1.0232  2.7055
  740MOL0     H97637   4.064  10.164   5.394 -0.3686 -0.1765 -2.0737
  740MOL0     H97638   3.841  10.369   5.433  0.1545 -0.2519 -0.1464
  740MOL0     H97639   3.814  10.203   5.462  0.3370 -0.2843 -0.5998
  740MOL0     H97640   4.041  10.385   5.588  0.7310 -2.1402 -0.3911
  740MOL0     H97641   4.017  10.221   5.646  0.3846  0.6665  0.1694
  740MOL0     H97642   3.727  10.270   5.891 -1.8115  1.9773 -1.2703
  740MOL0     H97643   3.788  10.264   6.147 -0.5912  1.1188  1.8144
  740MOL0     H97644   4.133  10.182   6.451  3.0189 -0.1250 -1.8971
  740MOL0     H97645   4.245  10.180   6.674 -3.4451  0.1060  3.5336
  740MOL0     H97646   4.143  10.302   6.921  0.3166  0.2745 -0.9353
  740MOL0     H97647   4.132  10.463   6.853  1.7452  1.3540 -1.2536
  740MOL0     H97648   4.158  10.469   7.090 -0.1221 -2.5454  0.3723
  740MOL0     H97649   4.304  10.549   7.025 -1.2726  0.9164  0.6805
  740MOL0     H97650   4.406  10.307   7.047 -0.9754 -1.6150  1.3389
  740MOL0     H97651   4.253  10.253   7.097  1.2687 -1.1331  2.5522
  740MOL0     H97652   4.405  10.475   7.249  2.9981 -1.9087 -2.1230
  740MOL0     H97653   4.268  10.376   7.304  0.6630 -3.5437  2.2082
  740MOL0     H97654   4.560  10.293   7.273 -0.3124 -0.0796  0.2394
  740MOL0     H97655   4.459  10.176   7.240 -0.6362  1.1871 -2.1285
  740MOL0     H97656   4.349  10.221   7.477  0.3614 -0.8449  0.4251
  740MOL0     H97657   4.456  10.355   7.503  1.2814 -0.4663  0.0934
  740MOL0     H97658   4.568  10.077   7.447 -2.5128 -1.5828  2.3140
  740MOL0     H97659   4.656  10.213   7.488  0.7033 -2.7171 -1.8638
  740MOL0     H97660   4.637  10.094   7.685 -0.8921 -0.4326 -1.1749
  740MOL0     H97661   4.477  10.027   7.636 -0.0943 -0.5217 -0.4169
  740MOL0     H97662   4.303  10.596   6.657  0.1990  0.3144 -1.4826
  740MOL0     H97663   4.231  10.596   6.419 -0.6190  0.6255  1.7564
  740MOL0     H97664   4.153  10.462   6.050 -1.2247  2.2469 -0.7351
  740MOL0     H97665   4.116  10.449   5.825 -0.0337  1.6245 -0.0766
  740MOL0     H97666   4.416   9.421   5.256 -0.1248  1.1282 -2.1106
  740MOL0     H97667   4.483   9.248   5.412  2.0757 -2.7149 -1.4716
  740MOL0     H97668   4.123   8.849   5.747  0.8395 -0.1506  0.8809
  740MOL0     H97669   4.222   8.734   5.927  0.7613  0.3496 -0.2983
  740MOL0     H97670   4.641   8.755   5.994  2.4284  0.6381 -2.2601
  740MOL0     H97671   4.674   8.616   5.886  0.9511  0.3744  0.8181
  740MOL0     H97672   4.728   8.607   6.128  0.7694 -0.6984 -1.0485
  740MOL0     H97673   4.542   8.603   6.147 -0.5755  2.2010 -1.2109
  740MOL0     H97674   4.745   8.401   6.055  1.6601  2.6857  2.2281
  740MOL0     H97675   4.573   8.384   5.999  0.0526  1.5551  0.3472
  740MOL0     H97676   4.687   8.355   6.278  0.5126  2.9769 -0.5472
  740MOL0     H97677   4.513   8.366   6.260 -1.0274 -0.8183 -1.4154
  740MOL0     H97678   4.608   7.971   6.177  1.4382 -0.1847  2.8459
  740MOL0     H97679   4.601   8.706   5.720 -1.0382 -2.7604 -1.0438
  740MOL0     H97680   4.504   8.841   5.539 -1.2252 -2.2736 -1.8640
  741MOL0     O97681   1.942   2.873  10.806 -0.3457  0.0604  0.3224
  741MOL0     C97682   2.037   2.797  10.809 -0.0615  0.3239  1.0314
  741MOL0     O97683   2.032   2.666  10.866 -0.4373 -0.0483 -0.5475
  741MOL0     C97684   1.907   2.641  10.923 -0.1498 -0.3424 -0.0562
  741MOL0     C97685   1.867   2.702  11.050  0.3265  0.0939  0.4250
  741MOL0     C97686   1.746   2.668  11.111  0.3925  0.6710  0.6671
  741MOL0     C97687   1.654   2.573  11.054  0.0178  0.2594  0.5883
  741MOL0     O97688   1.533   2.535  11.104  0.1741 -0.3577 -0.3072
  741MOL0     C97689   1.431   2.629  11.083 -0.2750 -0.1212 -0.5881
  741MOL0     C97690   1.306   2.560  11.107  0.5511 -0.8667 -0.9155
  741MOL0     C97691   1.256   2.461  11.001  0.6263  0.8724 -0.5087
  741MOL0     C97692   1.144   2.514  10.908 -0.3773  0.4240 -0.9857
  741MOL0     C97693   1.081   2.400  10.824  0.5891  0.1933 -0.6879
  741MOL0     C97694   0.995   2.456  10.704 -0.2663  0.9109 -0.0104
  741MOL0     C97695   0.946   2.348  10.602  0.1761  0.9154 -0.3268
  741MOL0     C97696   0.894   2.423  10.479 -0.6347 -0.0505  0.4118
  741MOL0     N97697   0.786   2.516  10.500  0.0825 -0.1898 -0.0927
  741MOL0     C97698   0.658   2.495  10.461 -0.9209  1.0059  0.1399
  741MOL0     C97699   0.590   2.608  10.485  0.4648  0.1244  0.7531
  741MOL0     C97700   0.444   2.645  10.463  0.7827  0.5355  0.4863
  741MOL0     C97701   0.429   2.701  10.323  1.0583  0.2895  0.4881
  741MOL0     C97702   0.286   2.758  10.297 -0.2956  0.0176 -0.2384
  741MOL0     C97703   0.178   2.647  10.318 -0.8655 -0.2265  0.0803
  741MOL0     O97704   0.052   2.725  10.307  0.7822  0.0673  0.5575
  741MOL0     C97705  -0.063   2.670  10.342 -0.3404 -0.3236 -0.6021
  741MOL0     C97706  -0.146   2.744  10.433  1.3286  0.6252  0.4867
  741MOL0     C97707  -0.267   2.698  10.486 -0.1186 -0.7895 -0.2903
  741MOL0     C97708  -0.319   2.577  10.442 -0.7133 -0.3812  0.2069
  741MOL0     C97709  -0.449   2.520  10.511  0.5246 -0.2688  0.7238
  741MOL0     O97710  -0.529   2.438  10.437  0.6475 -0.6801  0.4297
  741MOL0     C97711  -0.636   2.380  10.502 -0.6212 -0.5110 -0.5906
  741MOL0     C97712  -0.623   2.251  10.552  0.2602  0.1725  1.1072
  741MOL0     C97713  -0.736   2.180  10.593  0.8101  0.0150  0.2287
  741MOL0     C97714  -0.863   2.238  10.590 -0.5774  0.3124  0.6409
  741MOL0     O97715  -0.971   2.156  10.600  0.2450 -0.5167 -1.0902
  741MOL0     C97716  -0.985   2.089  10.723  0.0231 -1.1454 -0.6408
  741MOL0     C97717  -1.123   2.133  10.781  0.1770  0.7817  0.4634
  741MOL0     C97718  -1.161   2.281  10.800  0.1670  0.8431  0.5212
  741MOL0     C97719  -1.065   2.362  10.887  0.8166  0.8690  0.0785
  741MOL0     C97720  -1.109   2.507  10.895 -0.2903 -0.0307  0.3810
  741MOL0     C97721  -1.018   2.598  10.979 -0.1000 -1.2892  0.0778
  741MOL0     C97722  -1.002   2.564  11.131  0.1308 -0.6277 -0.5326
  741MOL0     C97723  -1.143   2.543  11.209 -0.2819 -0.7180  0.9649
  741MOL0    Cl97724  -1.117   2.462  11.369 -0.1595  0.3883 -0.4456
  741MOL0     C97725  -0.879   2.365  10.538  0.3755 -0.7083 -0.1570
  741MOL0     C97726  -0.767   2.439  10.502 -0.3020 -0.7153  0.1705
  741MOL0     O97727  -0.470   2.548  10.624 -0.0069 -0.4369 -0.1800
  741MOL0     C97728  -0.239   2.505  10.349  0.1699 -0.7201 -0.7764
  741MOL0     C97729  -0.109   2.542  10.302 -0.5070  0.5854  0.9016
  741MOL0     N97730   0.680   2.700  10.527 -0.6519  0.3558  0.1937
  741MOL0     N97731   0.799   2.646  10.543  0.5283 -0.1518  0.1241
  741MOL0     C97732   1.694   2.520  10.924 -0.0118 -0.0066  0.1535
  741MOL0     C97733   1.819   2.550  10.865  0.7893  0.3977  0.3457
  741MOL0     C97734   2.162   2.838  10.731 -0.0359  0.0260 -0.1061
  741MOL0     C97735   2.161   2.971  10.683 -0.5496  0.2635  0.0476
  741MOL0     C97736   2.261   3.011  10.596  0.5854 -0.2377 -0.4834
  741MOL0     C97737   2.353   2.918  10.549  1.0917 -0.7260 -0.6341
  741MOL0     O97738   2.452   2.955  10.459  0.1433  0.0894 -0.0571
  741MOL0     C97739   2.428   3.076  10.391  0.0914  0.4116  0.6503
  741MOL0     C97740   2.495   3.081  10.253 -0.9109  0.1539  0.2294
  741MOL0     C97741   2.655   3.065  10.257  0.6834  0.5500  0.3313
  741MOL0     C97742   2.735   3.197  10.261  0.1136 -0.3278  0.7701
  741MOL0     C97743   2.771   3.235  10.128 -0.4716 -0.1048 -0.2430
  741MOL0     C97744   2.794   3.286  10.021  0.3244  0.1481 -0.2105
  741MOL0     C97745   2.357   2.788  10.600 -0.1191 -0.7964 -0.0421
  741MOL0     C97746   2.259   2.745  10.692  0.0937 -0.7632 -0.3289
  741MOL0     H97747   1.937   2.771  11.096 -0.9949  2.4358 -0.9026
  741MOL0     H97748   1.730   2.719  11.205 -0.5312  2.3009 -0.3269
  741MOL0     H97749   1.421   2.650  10.976  0.2796  0.1159 -0.5974
  741MOL0     H97750   1.431   2.721  11.144 -0.4943 -0.7685  0.4097
  741MOL0     H97751   1.226   2.633  11.118  2.5876  1.2815  0.7615
  741MOL0     H97752   1.305   2.508  11.204 -3.2687 -1.6733 -1.2145
  741MOL0     H97753   1.224   2.366  11.044  1.7044  0.0347 -1.4783
  741MOL0     H97754   1.336   2.438  10.930  3.2856  2.4262  1.7890
  741MOL0     H97755   1.064   2.567  10.961  0.3726 -0.0984  0.7493
  741MOL0     H97756   1.186   2.586  10.837  0.2715  0.3467 -0.6845
  741MOL0     H97757   1.008   2.344  10.883 -0.8032  1.0287 -1.5564
  741MOL0     H97758   1.158   2.332  10.784  0.3417 -0.0674 -0.7247
  741MOL0     H97759   1.054   2.536  10.659  0.7660  1.1365  1.6496
  741MOL0     H97760   0.899   2.497  10.735 -1.9575 -0.9316 -2.4996
  741MOL0     H97761   1.015   2.273  10.563 -1.0194 -0.0599 -0.6339
  741MOL0     H97762   0.866   2.285  10.641 -1.3348  1.6485 -2.0588
  741MOL0     H97763   0.880   2.355  10.395 -0.8650  1.5089 -0.8451
  741MOL0     H97764   0.972   2.488  10.438 -1.3101 -0.0004 -0.8381
  741MOL0     H97765   0.606   2.413  10.413 -0.5701  1.5463 -1.2060
  741MOL0     H97766   0.421   2.726  10.533  2.5528  0.7601  0.8699
  741MOL0     H97767   0.384   2.555  10.480  1.4091 -0.2370 -1.1278
  741MOL0     H97768   0.439   2.626  10.244 -1.3411  0.3913  0.0267
  741MOL0     H97769   0.505   2.776  10.299  0.6774  0.4218 -0.3483
  741MOL0     H97770   0.266   2.842  10.363  1.8511 -0.6408  1.3745
  741MOL0     H97771   0.286   2.785  10.191  2.1545 -1.1283 -0.6081
  741MOL0     H97772   0.175   2.613  10.422  2.9976  1.0460  0.7856
  741MOL0     H97773   0.185   2.569  10.242 -0.0846 -0.4066  0.3365
  741MOL0     H97774  -0.110   2.843  10.458 -2.0710  1.5485  2.2272
  741MOL0     H97775  -0.323   2.754  10.560 -1.3683 -3.0847  0.5930
  741MOL0     H97776  -0.520   2.219  10.539 -0.1740  0.1960 -4.3447
  741MOL0     H97777  -0.723   2.075  10.619 -1.1599 -0.3495 -0.1197
  741MOL0     H97778  -0.900   2.112  10.788 -0.5733  0.6439 -0.4539
  741MOL0     H97779  -0.998   1.986  10.688 -0.0580 -1.1516 -0.5928
  741MOL0     H97780  -1.132   2.077  10.875 -1.7140  1.5779  0.8130
  741MOL0     H97781  -1.197   2.093  10.711  2.1815 -1.5923 -0.4115
  741MOL0     H97782  -1.259   2.279  10.848 -0.0749  2.7500  0.2092
  741MOL0     H97783  -1.171   2.328  10.702 -0.3672  0.8192  0.5631
  741MOL0     H97784  -1.077   2.316  10.985 -2.3467 -0.7935 -0.9203
  741MOL0     H97785  -0.966   2.348  10.842  1.8954  1.9138  2.0116
  741MOL0     H97786  -1.210   2.496  10.936 -0.5132 -0.3423 -0.2519
  741MOL0     H97787  -1.111   2.554  10.797  0.3140  0.0718  0.4133
  741MOL0     H97788  -1.061   2.697  10.961  1.6295 -0.7849 -1.5718
  741MOL0     H97789  -0.922   2.590  10.928 -0.6194  0.9377 -1.3820
  741MOL0     H97790  -0.949   2.470  11.147 -3.9881 -2.6421  3.0617
  741MOL0     H97791  -0.956   2.651  11.178  0.0422 -0.9598  0.1699
  741MOL0     H97792  -1.206   2.475  11.150  1.5382 -0.1518 -1.8393
  741MOL0     H97793  -1.185   2.644  11.208 -2.1535 -1.4484  0.1835
  741MOL0     H97794  -0.971   2.421  10.536  2.2784  2.9149  2.8955
  741MOL0     H97795  -0.772   2.539  10.459  3.9935  0.3411  1.6710
  741MOL0     H97796  -0.263   2.406  10.312 -0.3039 -1.0219  0.2941
  741MOL0     H97797  -0.059   2.481  10.228 -2.8097 -0.3568  0.0072
  741MOL0     H97798   1.638   2.443  10.871  0.4938  1.0993 -2.0629
  741MOL0     H97799   1.841   2.495  10.773  0.2060  2.9883 -1.4690
  741MOL0     H97800   2.087   3.036  10.729 -0.1042  2.1153 -1.6597
  741MOL0     H97801   2.267   3.118  10.576 -1.8645 -0.4071 -2.5976
  741MOL0     H97802   2.480   3.159  10.439  0.2583  2.2950 -2.5217
  741MOL0     H97803   2.323   3.095  10.369  0.2970  1.6532  0.6698
  741MOL0     H97804   2.462   3.005  10.182 -0.6087  1.1941 -1.0614
  741MOL0     H97805   2.465   3.172  10.200  1.0042 -1.3713 -3.9442
  741MOL0     H97806   2.694   3.013  10.169  1.1293  1.0586  0.2231
  741MOL0     H97807   2.678   3.020  10.353 -0.2972  0.5471  0.5725
  741MOL0     H97808   2.675   3.280  10.301 -3.7559 -1.9587 -1.1104
  741MOL0     H97809   2.825   3.178  10.320  0.2295 -2.8107 -0.0975
  741MOL0     H97810   2.792   3.336   9.926 -0.4781  1.8307  0.6480
  741MOL0     H97811   2.440   2.727  10.568  1.6870  0.1472  2.4627
  741MOL0     H97812   2.254   2.643  10.728  2.6731 -0.8759 -0.0909
  742MOL0     O97813   5.284   1.331   7.725 -0.5997  0.6905 -0.3175
  742MOL0     C97814   5.361   1.242   7.686 -0.3765  0.0531  0.1252
  742MOL0     O97815   5.460   1.190   7.763 -0.0767 -0.1050  0.9762
  742MOL0     C97816   5.469   1.241   7.888  0.0310  0.8251 -1.0535
  742MOL0     C97817   5.580   1.324   7.922  0.1523  0.0261 -0.4190
  742MOL0     C97818   5.596   1.381   8.051  0.1291 -0.4861  0.2572
  742MOL0     C97819   5.500   1.346   8.147 -0.2876 -0.0330  0.2399
  742MOL0     O97820   5.523   1.384   8.275 -0.4145 -0.8406 -0.2786
  742MOL0     C97821   5.439   1.351   8.377 -0.5448 -1.6234  0.1513
  742MOL0     C97822   5.497   1.417   8.506 -0.3045 -0.5056 -0.6022
  742MOL0     C97823   5.636   1.368   8.549 -0.0110  0.3293  0.1788
  742MOL0     C97824   5.635   1.218   8.598 -0.7572 -0.6679  0.0253
  742MOL0     C97825   5.766   1.158   8.568 -0.7881 -0.0107  0.1385
  742MOL0     C97826   5.877   1.247   8.626  0.2624  0.0140  0.7809
  742MOL0     C97827   5.875   1.228   8.771  0.4419 -0.0285  0.8292
  742MOL0     C97828   6.001   1.295   8.834 -1.0072 -0.3143 -0.1423
  742MOL0     N97829   6.034   1.257   8.973  1.3336  0.2381  0.1937
  742MOL0     C97830   5.967   1.301   9.086  0.5923  0.1891  1.3169
  742MOL0     C97831   6.037   1.238   9.191  0.3553 -0.8180  0.0551
  742MOL0     C97832   6.006   1.227   9.331  0.1088 -0.8894  1.1770
  742MOL0     C97833   5.919   1.115   9.370 -0.0093 -0.3115  0.3175
  742MOL0     C97834   5.972   0.968   9.332 -0.1621 -0.7624 -0.3416
  742MOL0     C97835   5.953   0.924   9.181  0.3211  0.6777 -1.1018
  742MOL0     O97836   5.970   0.783   9.175  0.1682  0.1979 -0.2456
  742MOL0     C97837   5.946   0.723   9.057 -1.0310 -0.6278 -0.4085
  742MOL0     C97838   5.981   0.589   9.045 -0.3636  0.0155  0.3690
  742MOL0     C97839   5.984   0.509   8.935 -0.4336  0.0620  0.7984
  742MOL0     C97840   5.921   0.560   8.819  0.2979 -0.1049  0.1249
  742MOL0     C97841   5.914   0.474   8.700  0.0968  0.5299  0.4504
  742MOL0     O97842   5.883   0.541   8.580 -0.1589  0.1503  0.5900
  742MOL0     C97843   5.892   0.476   8.459 -0.5310 -0.3353  0.8742
  742MOL0     C97844   5.785   0.390   8.423 -0.9907 -0.3646  0.5898
  742MOL0     C97845   5.794   0.330   8.298 -0.9729 -0.7444  0.3093
  742MOL0     C97846   5.906   0.343   8.213 -0.0388  1.4915 -0.7201
  742MOL0     O97847   5.961   0.265   8.118 -0.4495  0.5484 -0.2081
  742MOL0     C97848   5.907   0.128   8.095  0.1775  0.3982  0.7869
  742MOL0     C97849   6.024   0.025   8.069  0.5622  0.1132 -0.1909
  742MOL0     C97850   5.969  -0.117   8.056  0.7327 -0.0588  0.2440
  742MOL0     C97851   6.067  -0.216   8.011 -0.5502 -0.0622 -0.0033
  742MOL0     C97852   6.167  -0.266   8.116  0.5037 -0.6206 -0.7356
  742MOL0     C97853   6.105  -0.300   8.262  0.6654  0.0286 -0.2306
  742MOL0     C97854   6.205  -0.368   8.354  0.0320 -0.2367 -0.7816
  742MOL0     C97855   6.173  -0.367   8.504  0.4252  0.1252 -0.8479
  742MOL0    Cl97856   6.270  -0.486   8.607 -0.0324  0.0691  0.7913
  742MOL0     C97857   5.996   0.438   8.246 -0.0872  0.1960 -0.3156
  742MOL0     C97858   5.995   0.509   8.370 -0.8754 -0.9076  0.0993
  742MOL0     O97859   5.942   0.356   8.709  0.8096 -1.3133  0.4018
  742MOL0     C97860   5.883   0.696   8.831 -0.8655 -0.5000  0.1212
  742MOL0     C97861   5.903   0.779   8.942 -0.3311 -0.2213  0.0711
  742MOL0     N97862   6.160   1.189   9.139  0.3018  0.1195  0.5867
  742MOL0     N97863   6.148   1.202   9.014 -0.0498 -0.2675 -0.3122
  742MOL0     C97864   5.393   1.269   8.115  0.9394  0.6705  0.4843
  742MOL0     C97865   5.377   1.224   7.985 -0.3981 -0.4127 -0.2509
  742MOL0     C97866   5.332   1.189   7.549  0.9833 -0.0302  0.0134
  742MOL0     C97867   5.238   1.252   7.470  0.0611 -0.6217 -0.0589
  742MOL0     C97868   5.211   1.197   7.344 -0.1904 -0.4947 -0.0049
  742MOL0     C97869   5.278   1.082   7.300 -0.0085 -0.2958  0.1738
  742MOL0     O97870   5.258   1.025   7.173  0.6303 -0.2103  0.6781
  742MOL0     C97871   5.165   1.091   7.088 -0.3600  1.2991  0.7065
  742MOL0     C97872   5.161   1.024   6.959  0.1363  0.4688 -0.2231
  742MOL0     C97873   5.103   0.879   6.970 -0.5309 -0.2895  0.6416
  742MOL0     C97874   5.121   0.773   6.860 -0.0253 -0.2158  0.3580
  742MOL0     C97875   5.036   0.806   6.750 -0.0605  0.0548 -0.4660
  742MOL0     C97876   4.972   0.842   6.652 -0.6615  0.4025  1.0142
  742MOL0     C97877   5.371   1.023   7.385  0.9005  1.0500 -0.0435
  742MOL0     C97878   5.402   1.081   7.503  1.2394 -0.3898 -0.4103
  742MOL0     H97879   5.652   1.338   7.842  1.3798 -0.2995  0.5969
  742MOL0     H97880   5.687   1.436   8.077 -1.1620  0.5419  2.9992
  742MOL0     H97881   5.431   1.242   8.390  0.3459 -1.4127  3.1388
  742MOL0     H97882   5.337   1.385   8.357 -0.3903 -0.1940  1.6035
  742MOL0     H97883   5.442   1.398   8.599  2.6705  2.3467  1.9891
  742MOL0     H97884   5.505   1.525   8.498 -2.0125 -0.1339  1.6207
  742MOL0     H97885   5.669   1.442   8.623 -0.6634  1.2954 -0.4846
  742MOL0     H97886   5.706   1.387   8.468  4.1302  3.0351  3.9023
  742MOL0     H97887   5.609   1.205   8.704  0.7073  0.4245  0.5428
  742MOL0     H97888   5.579   1.151   8.532  0.3443  0.2686 -1.9648
  742MOL0     H97889   5.768   1.145   8.459 -0.9633 -0.1171  0.1486
  742MOL0     H97890   5.775   1.057   8.609 -0.3481 -0.7667 -1.6961
  742MOL0     H97891   5.877   1.354   8.608 -1.2005 -0.3734 -2.1112
  742MOL0     H97892   5.975   1.212   8.591 -0.6615 -2.0546  0.1094
  742MOL0     H97893   5.782   1.275   8.804 -1.2712 -2.4167 -0.3271
  742MOL0     H97894   5.882   1.124   8.804  0.3047 -0.1709  0.4178
  742MOL0     H97895   5.995   1.404   8.836  1.8940 -0.0841  1.2632
  742MOL0     H97896   6.090   1.270   8.777  0.0130  1.7680  0.4505
  742MOL0     H97897   5.866   1.340   9.093 -0.2705 -1.7326  0.5257
  742MOL0     H97898   5.961   1.320   9.368  2.3045  0.2126  1.2196
  742MOL0     H97899   6.098   1.221   9.390 -0.1334 -1.7569  1.4800
  742MOL0     H97900   5.818   1.133   9.330  0.1127 -0.6579 -0.1582
  742MOL0     H97901   5.906   1.108   9.478 -0.1167 -1.2164  0.2477
  742MOL0     H97902   6.077   0.971   9.361 -0.2218  1.6006 -0.1819
  742MOL0     H97903   5.914   0.909   9.404  0.1131  0.7363  1.1739
  742MOL0     H97904   6.026   0.968   9.113  0.5923  1.1332 -0.5197
  742MOL0     H97905   5.853   0.939   9.140 -0.2535 -2.4744 -1.1162
  742MOL0     H97906   6.033   0.539   9.126 -1.2271 -0.9337  0.3567
  742MOL0     H97907   6.027   0.410   8.927  0.1084  0.2924  0.8296
  742MOL0     H97908   5.701   0.370   8.489 -2.4959 -1.4747 -1.5270
  742MOL0     H97909   5.709   0.282   8.251  0.3691 -1.5770 -1.3954
  742MOL0     H97910   5.842   0.129   8.007  1.5508  1.5697 -0.2560
  742MOL0     H97911   5.846   0.100   8.182  1.1288 -2.9253  0.5248
  742MOL0     H97912   6.102   0.033   8.145  0.2545  1.2611  0.0143
  742MOL0     H97913   6.074   0.040   7.973 -0.0504 -1.2340 -0.7550
  742MOL0     H97914   5.878  -0.128   7.997  1.9509  2.5992 -2.4058
  742MOL0     H97915   5.944  -0.143   8.160  0.6557 -0.5497  0.1066
  742MOL0     H97916   6.005  -0.299   7.978  0.4238 -0.3774 -1.1326
  742MOL0     H97917   6.123  -0.184   7.922  0.2654 -0.3912  0.3766
  742MOL0     H97918   6.242  -0.188   8.138 -1.5880  1.7248 -1.4744
  742MOL0     H97919   6.217  -0.351   8.069  0.7867 -1.2607  0.6717
  742MOL0     H97920   6.013  -0.358   8.260  0.6327 -0.0447  1.5210
  742MOL0     H97921   6.078  -0.206   8.313 -1.3137  0.0038 -1.1523
  742MOL0     H97922   6.194  -0.467   8.309 -0.7288  0.1479 -1.4545
  742MOL0     H97923   6.309  -0.346   8.329 -0.0496 -0.1600 -1.0512
  742MOL0     H97924   6.067  -0.389   8.521  0.4806  1.2867  1.2171
  742MOL0     H97925   6.202  -0.268   8.539  1.4645 -1.1812  2.3694
  742MOL0     H97926   6.080   0.456   8.179 -1.3094  1.8832 -1.4734
  742MOL0     H97927   6.064   0.590   8.390  1.5794 -2.8734  0.0823
  742MOL0     H97928   5.843   0.736   8.738 -1.6532  2.1373  1.5068
  742MOL0     H97929   5.880   0.885   8.929  0.5106  0.4519  3.1800
  742MOL0     H97930   5.311   1.249   8.183  1.7057  3.3904  2.3823
  742MOL0     H97931   5.290   1.166   7.954  0.6639 -0.9649 -2.4184
  742MOL0     H97932   5.178   1.335   7.507  1.3472  0.2514  0.1250
  742MOL0     H97933   5.138   1.256   7.288  2.1672  3.2134  0.5319
  742MOL0     H97934   5.184   1.198   7.077 -3.3637  1.8422  0.0628
  742MOL0     H97935   5.073   1.100   7.146  1.5903  3.8446  3.7578
  742MOL0     H97936   5.083   1.071   6.898  0.7580  1.4828 -0.2757
  742MOL0     H97937   5.261   1.021   6.914  0.3209 -1.4210  0.2518
  742MOL0     H97938   4.995   0.883   6.985 -0.4326  1.4420  1.0646
  742MOL0     H97939   5.131   0.839   7.068 -3.3151 -1.5504  1.0285
  742MOL0     H97940   5.228   0.764   6.840 -0.3804  1.6564 -3.0933
  742MOL0     H97941   5.084   0.677   6.896 -1.1524  0.6318  1.5578
  742MOL0     H97942   4.917   0.875   6.566  0.3005  2.4612  1.1170
  742MOL0     H97943   5.426   0.932   7.368  2.5935  1.9389  0.4200
  742MOL0     H97944   5.475   1.022   7.558  0.1274 -3.9529 -2.4161
  743MOL0     O97945   6.761  10.256   2.073 -0.5043  0.7892 -0.8697
  743MOL0     C97946   6.662  10.244   2.147  0.9844 -0.4327  0.1143
  743MOL0     O97947   6.632  10.323   2.262 -0.1956  0.1616  0.3346
  743MOL0     C97948   6.718  10.416   2.306  0.5737 -0.8759 -0.5793
  743MOL0     C97949   6.687  10.557   2.298 -0.1588  0.4669  0.8012
  743MOL0     C97950   6.778  10.651   2.345 -1.2002 -0.0751  1.6279
  743MOL0     C97951   6.907  10.617   2.395 -0.5413  1.2456  0.4782
  743MOL0     O97952   7.006  10.695   2.451 -0.0912 -0.3103  0.5130
  743MOL0     C97953   6.970  10.831   2.439  1.4863  0.6501 -0.2735
  743MOL0     C97954   7.075  10.920   2.477 -0.1473 -0.1768 -0.0787
  743MOL0     C97955   7.037  11.065   2.508  0.1551 -0.4233 -0.0419
  743MOL0     C97956   7.152  11.134   2.586  1.1194 -0.4603  0.3426
  743MOL0     C97957   7.148  11.291   2.583 -0.1322  0.4477 -0.0023
  743MOL0     C97958   7.270  11.353   2.650 -0.3541 -0.6131 -0.5935
  743MOL0     C97959   7.251  11.504   2.686  0.4836 -0.0526 -0.6011
  743MOL0     C97960   7.385  11.574   2.716 -0.9066  0.5049  0.5869
  743MOL0     N97961   7.442  11.521   2.840  0.4354  0.0734 -0.3973
  743MOL0     C97962   7.546  11.432   2.852 -0.3292 -0.3416  0.1194
  743MOL0     C97963   7.536  11.410   2.984 -0.3131 -0.0706  0.7739
  743MOL0     C97964   7.622  11.315   3.057 -1.4181  0.1535 -0.1819
  743MOL0     C97965   7.769  11.364   3.059 -0.1018  0.0254 -0.3327
  743MOL0     C97966   7.796  11.493   3.142 -1.0833  0.1868 -0.1907
  743MOL0     C97967   7.739  11.625   3.079 -1.0962  0.5639 -0.9586
  743MOL0     O97968   7.805  11.736   3.140 -0.0847 -0.2321  0.4989
  743MOL0     C97969   7.729  11.842   3.152  0.7814 -0.7535  0.0069
  743MOL0     C97970   7.687  11.887   3.271  0.2692  0.6956 -0.7776
  743MOL0     C97971   7.604  11.998   3.290 -1.1631 -0.8137  0.8428
  743MOL0     C97972   7.561  12.068   3.175  1.2360  0.2926 -0.4760
  743MOL0     C97973   7.466  12.182   3.173 -0.1265  0.1238 -0.0278
  743MOL0     O97974   7.461  12.248   3.302  0.3492  0.1390  0.5578
  743MOL0     C97975   7.372  12.353   3.318 -0.7860  0.7191  0.3304
  743MOL0     C97976   7.411  12.466   3.392 -0.8268 -0.0384  0.8393
  743MOL0     C97977   7.319  12.571   3.408  0.8395 -0.1724 -0.5701
  743MOL0     C97978   7.184  12.563   3.353  0.4320  1.1757  0.2764
  743MOL0     O97979   7.085  12.655   3.368  0.2715  0.2598 -0.0615
  743MOL0     C97980   7.126  12.788   3.346 -0.8149 -1.2837 -0.5040
  743MOL0     C97981   7.123  12.840   3.208 -0.2086 -0.3476  0.4207
  743MOL0     C97982   6.988  12.918   3.193 -0.1036 -0.4955  0.3710
  743MOL0     C97983   6.936  12.925   3.053  0.5986  0.2186  0.5623
  743MOL0     C97984   6.816  13.016   3.025  0.4793 -0.0665  0.4256
  743MOL0     C97985   6.754  12.999   2.887 -0.1956  0.4080  0.4572
  743MOL0     C97986   6.723  13.130   2.818 -0.7712  0.2052  0.4197
  743MOL0     C97987   6.620  13.122   2.702 -0.0865 -0.3584  0.3201
  743MOL0    Cl97988   6.676  13.016   2.574 -0.0014  0.0883 -0.0635
  743MOL0     C97989   7.143  12.446   3.285  0.8074  0.3561 -0.0382
  743MOL0     C97990   7.241  12.335   3.278 -1.8163  0.0898 -0.5469
  743MOL0     O97991   7.404  12.212   3.072  0.0771 -0.2559 -0.5623
  743MOL0     C97992   7.605  12.023   3.047  0.1785  0.2537  0.5842
  743MOL0     C97993   7.687  11.905   3.043  0.0026 -0.8435  0.2020
  743MOL0     N97994   7.436  11.482   3.047 -0.1926 -0.0750 -0.1445
  743MOL0     N97995   7.383  11.552   2.960 -0.4262  1.3589 -1.0461
  743MOL0     C97996   6.935  10.481   2.395 -0.0263  0.9016  0.5925
  743MOL0     C97997   6.842  10.384   2.354 -0.1337  0.5310 -0.1293
  743MOL0     C97998   6.556  10.148   2.105  0.0488 -0.6236  0.0548
  743MOL0     C97999   6.424  10.174   2.136 -0.5838  0.3182  0.6296
  743MOL0     C98000   6.317  10.085   2.108 -0.7009 -0.6697  0.1917
  743MOL0     C98001   6.347   9.964   2.040  0.5848  0.2652  0.7841
  743MOL0     O98002   6.245   9.877   1.996  0.3363  0.2490 -0.1499
  743MOL0     C98003   6.225   9.767   2.077  0.6178  0.4727 -0.0868
  743MOL0     C98004   6.098   9.693   2.048 -0.2097 -0.4963 -0.1866
  743MOL0     C98005   5.984   9.785   2.093 -0.2463 -0.9032 -0.1228
  743MOL0     C98006   5.849   9.728   2.101  0.1462 -0.2595 -0.6144
  743MOL0     C98007   5.800   9.679   1.969  0.3987 -0.8983  0.1380
  743MOL0     C98008   5.752   9.658   1.853  0.0208  0.7909 -0.7730
  743MOL0     C98009   6.474   9.947   1.995 -0.8441 -1.2863 -0.5892
  743MOL0     C98010   6.583  10.033   2.034 -0.4832  0.7123  0.4127
  743MOL0     H98011   6.594  10.593   2.253 -0.0842 -1.8160 -1.4059
  743MOL0     H98012   6.754  10.755   2.325 -2.9695 -0.9860 -1.7897
  743MOL0     H98013   6.888  10.855   2.507  1.2143  1.0968 -0.7503
  743MOL0     H98014   6.935  10.852   2.337 -0.0803 -0.3896  0.0094
  743MOL0     H98015   7.149  10.927   2.397  1.1444 -1.1926  0.9896
  743MOL0     H98016   7.124  10.877   2.564 -1.3398 -0.1349  0.6341
  743MOL0     H98017   6.946  11.073   2.568 -1.4092  1.4933 -2.4653
  743MOL0     H98018   7.020  11.131   2.422 -2.8619  0.0298  0.7735
  743MOL0     H98019   7.154  11.104   2.691 -0.5528 -1.5405  0.0994
  743MOL0     H98020   7.243  11.107   2.531  0.3614 -1.6824 -0.3726
  743MOL0     H98021   7.064  11.329   2.642 -0.8581 -0.5972 -0.3137
  743MOL0     H98022   7.151  11.331   2.481 -1.5947  1.3230  0.2691
  743MOL0     H98023   7.354  11.357   2.580 -0.0805 -1.3846 -0.3120
  743MOL0     H98024   7.308  11.311   2.743 -1.0239  4.9332  2.6155
  743MOL0     H98025   7.193  11.565   2.618 -0.9447 -1.4224 -0.6812
  743MOL0     H98026   7.189  11.492   2.775  1.4571  1.8753  0.3903
  743MOL0     H98027   7.379  11.684   2.718  3.1291  0.8996  0.7425
  743MOL0     H98028   7.461  11.548   2.641 -0.9777  0.9935  0.3419
  743MOL0     H98029   7.606  11.377   2.780 -3.6599 -1.4804 -1.9972
  743MOL0     H98030   7.623  11.212   3.019  1.3276 -0.3634  1.0748
  743MOL0     H98031   7.592  11.310   3.162  3.4264 -0.5170  1.4207
  743MOL0     H98032   7.790  11.401   2.959 -2.1838 -0.1907 -0.9034
  743MOL0     H98033   7.832  11.278   3.085  0.3675  0.4480 -0.0537
  743MOL0     H98034   7.748  11.485   3.240 -2.4346  2.8895 -0.5395
  743MOL0     H98035   7.903  11.504   3.160 -1.3428 -0.7342  2.4073
  743MOL0     H98036   7.630  11.635   3.082 -1.2938  0.0621 -3.9920
  743MOL0     H98037   7.772  11.639   2.976 -0.5488  3.7151 -0.4763
  743MOL0     H98038   7.706  11.821   3.356  0.9030  1.5091 -0.2680
  743MOL0     H98039   7.578  12.031   3.389  4.2443  1.8718  1.7704
  743MOL0     H98040   7.511  12.472   3.435 -0.9133  0.2930  0.9993
  743MOL0     H98041   7.348  12.656   3.469 -0.2313 -0.4269  0.3370
  743MOL0     H98042   7.229  12.807   3.377 -0.9363  1.7816 -1.5930
  743MOL0     H98043   7.070  12.852   3.415 -0.3894 -1.0632 -0.3598
  743MOL0     H98044   7.131  12.747   3.150  1.8744  1.0592 -1.6849
  743MOL0     H98045   7.205  12.907   3.182  0.2629 -0.5408  1.3636
  743MOL0     H98046   6.993  13.018   3.236  1.0246 -0.0805 -0.6564
  743MOL0     H98047   6.912  12.862   3.248  0.3475 -0.5380  0.9612
  743MOL0     H98048   7.012  12.954   2.979 -2.1386  1.2727 -2.0761
  743MOL0     H98049   6.905  12.821   3.043 -2.3244  1.0048  0.5182
  743MOL0     H98050   6.838  13.123   3.040 -0.1533  0.0728  0.3857
  743MOL0     H98051   6.734  12.999   3.095 -2.3076 -2.2944 -3.0367
  743MOL0     H98052   6.669  12.931   2.877  0.9368 -0.8338 -1.3662
  743MOL0     H98053   6.818  12.935   2.825 -2.5279  1.0542 -2.8654
  743MOL0     H98054   6.703  13.211   2.889  0.5406  0.7576  0.1938
  743MOL0     H98055   6.816  13.179   2.788 -0.7501  0.9248  1.5927
  743MOL0     H98056   6.603  13.223   2.664  1.0446 -0.4312 -0.4278
  743MOL0     H98057   6.524  13.106   2.750 -1.8011  0.1925 -2.6690
  743MOL0     H98058   7.037  12.450   3.266  0.8282 -1.6004 -0.8319
  743MOL0     H98059   7.202  12.240   3.244 -2.0442  0.4082 -1.1849
  743MOL0     H98060   7.568  12.063   2.953 -2.7288 -1.9881  0.6387
  743MOL0     H98061   7.726  11.871   2.948 -1.2215  0.0169 -0.6368
  743MOL0     H98062   7.030  10.445   2.432  1.8779  2.8691 -1.9043
  743MOL0     H98063   6.865  10.278   2.356  3.2481  1.1267 -1.1156
  743MOL0     H98064   6.397  10.254   2.204 -2.2861  0.8095 -0.5685
  743MOL0     H98065   6.214  10.116   2.114 -0.5886 -0.4457  1.0791
  743MOL0     H98066   6.215   9.797   2.182 -3.5963 -1.1093  0.1574
  743MOL0     H98067   6.313   9.705   2.061  1.0767  1.4342 -1.5157
  743MOL0     H98068   6.092   9.671   1.941 -4.1548  1.6137 -0.5572
  743MOL0     H98069   6.089   9.602   2.108  1.2461 -0.4973  0.0729
  743MOL0     H98070   5.971   9.866   2.022  0.0561  2.5069  3.3667
  743MOL0     H98071   6.018   9.842   2.180  3.0033 -0.6489 -1.4054
  743MOL0     H98072   5.865   9.640   2.165 -1.0481 -0.9492 -1.2132
  743MOL0     H98073   5.764   9.789   2.132 -0.6295 -1.2793 -0.6593
  743MOL0     H98074   5.702   9.620   1.766 -1.3604 -1.8410  1.0211
  743MOL0     H98075   6.496   9.857   1.938 -0.9844 -3.2304  2.2109
  743MOL0     H98076   6.680  10.003   1.996 -1.9587 -3.0386 -0.9435
  744MOL0     O98077   6.059   9.347   3.052 -0.2613 -1.3306 -0.0933
  744MOL0     C98078   5.985   9.283   3.125  0.0730 -0.3856  0.2464
  744MOL0     O98079   5.937   9.166   3.090  0.7086  0.1906  0.8892
  744MOL0     C98080   5.939   9.129   2.954  0.1599 -1.0324  0.4963
  744MOL0     C98081   5.968   8.997   2.913  0.2871  0.3256 -0.3893
  744MOL0     C98082   5.998   8.961   2.778  1.5222 -0.6699  0.4154
  744MOL0     C98083   5.971   9.050   2.679 -0.0439  0.1981 -0.5006
  744MOL0     O98084   5.995   9.007   2.553  0.5409 -0.6555  0.8860
  744MOL0     C98085   5.930   9.082   2.444  0.7829 -0.2232  0.0475
  744MOL0     C98086   5.777   9.080   2.453 -0.4351 -0.1562  0.0844
  744MOL0     C98087   5.723   9.119   2.301  0.2869 -0.1565  0.5139
  744MOL0     C98088   5.573   9.112   2.304 -0.4831  0.6638 -0.1826
  744MOL0     C98089   5.503   9.162   2.178  0.1073 -0.9372  0.0630
  744MOL0     C98090   5.508   9.079   2.050 -0.0086 -1.2380  0.5031
  744MOL0     C98091   5.435   8.945   2.065  0.5351  0.3604 -0.2141
  744MOL0     C98092   5.420   8.878   1.929  0.9613  0.7240  0.2315
  744MOL0     N98093   5.325   8.934   1.831 -0.4477 -0.1692 -0.5347
  744MOL0     C98094   5.365   8.997   1.716  0.0287 -0.3571 -1.3503
  744MOL0     C98095   5.250   9.011   1.644  0.6697  0.3248 -0.8824
  744MOL0     C98096   5.243   9.067   1.508 -0.7233  0.8202  0.4187
  744MOL0     C98097   5.162   8.963   1.424 -0.3889 -0.9496  0.4307
  744MOL0     C98098   5.159   9.003   1.282 -0.0314  0.2679 -0.4501
  744MOL0     C98099   5.041   8.943   1.212  0.3757 -0.3185 -0.1475
  744MOL0     O98100   5.030   8.801   1.233  0.1526 -0.5005 -1.1683
  744MOL0     C98101   4.940   8.725   1.165 -0.6153  0.5447 -0.3081
  744MOL0     C98102   4.845   8.783   1.090 -0.4131 -0.3687  0.2915
  744MOL0     C98103   4.757   8.698   1.032 -0.0944  1.2873  0.3691
  744MOL0     C98104   4.751   8.550   1.039 -0.3303 -0.2279 -0.6540
  744MOL0     C98105   4.657   8.465   0.968 -0.6171  0.5616  0.1461
  744MOL0     O98106   4.557   8.539   0.903 -0.3469 -0.1644 -0.7742
  744MOL0     C98107   4.451   8.472   0.840  0.4953 -0.5092  0.0530
  744MOL0     C98108   4.412   8.522   0.717  0.8340 -1.1733  0.2431
  744MOL0     C98109   4.313   8.453   0.638 -0.1739  0.2751 -0.2889
  744MOL0     C98110   4.261   8.331   0.690  0.2229  0.2750  0.3474
  744MOL0     O98111   4.163   8.268   0.618  1.0605 -0.2645  0.1097
  744MOL0     C98112   4.062   8.181   0.675  0.9389  0.4556  0.2470
  744MOL0     C98113   4.016   8.076   0.573 -0.4437 -0.6587  0.0176
  744MOL0     C98114   3.927   7.973   0.635 -0.0117  0.5410  0.7738
  744MOL0     C98115   3.961   7.909   0.766  0.1548 -0.1351  0.1945
  744MOL0     C98116   3.854   7.797   0.798  0.1434 -0.1186 -0.1582
  744MOL0     C98117   3.845   7.739   0.940 -0.1306 -0.3422  1.4743
  744MOL0     C98118   3.955   7.620   0.974 -1.6112 -0.4936  0.4562
  744MOL0     C98119   3.925   7.576   1.115  0.4670 -0.6178 -0.7789
  744MOL0    Cl98120   3.915   7.721   1.239  0.1107  0.2754 -0.3443
  744MOL0     C98121   4.305   8.270   0.812 -0.3523 -0.2399  0.1071
  744MOL0     C98122   4.396   8.348   0.888  0.9042  0.0726 -0.2207
  744MOL0     O98123   4.673   8.343   0.979  1.1060  0.2072 -0.4205
  744MOL0     C98124   4.852   8.500   1.121 -0.2842 -0.3477 -0.5119
  744MOL0     C98125   4.952   8.589   1.177 -0.0566  0.3750  0.2840
  744MOL0     N98126   5.147   8.975   1.727  0.4681  1.0495 -0.7490
  744MOL0     N98127   5.194   8.913   1.833  0.2666 -0.0288  0.1099
  744MOL0     C98128   5.933   9.183   2.715  1.2489 -1.4672  0.1705
  744MOL0     C98129   5.909   9.218   2.845 -0.0863  0.6754  0.2789
  744MOL0     C98130   5.950   9.332   3.261 -0.1571  0.1409  0.5970
  744MOL0     C98131   5.833   9.270   3.314  0.1850  0.0899 -0.2731
  744MOL0     C98132   5.786   9.315   3.435 -0.7782 -1.0031  0.5193
  744MOL0     C98133   5.858   9.416   3.503 -0.0512 -0.2067  1.0486
  744MOL0     O98134   5.818   9.470   3.623 -0.4892  0.5591  0.5464
  744MOL0     C98135   5.705   9.421   3.701 -0.0991  0.0980 -0.3916
  744MOL0     C98136   5.635   9.509   3.808 -0.4556 -0.1900 -0.1097
  744MOL0     C98137   5.640   9.655   3.778 -0.5439  1.0568  0.1801
  744MOL0     C98138   5.677   9.737   3.903 -0.5553  0.6297  0.6122
  744MOL0     C98139   5.669   9.876   3.891 -1.0891 -1.2896  0.6328
  744MOL0     C98140   5.638   9.996   3.877  0.1794  0.3918 -0.6385
  744MOL0     C98141   5.970   9.471   3.456  0.5669 -0.1538  1.2773
  744MOL0     C98142   6.028   9.429   3.336 -0.0236 -0.2053  0.7966
  744MOL0     H98143   5.980   8.920   2.989 -0.3329  1.0352  0.4435
  744MOL0     H98144   6.043   8.866   2.749  2.1426 -0.3370  0.2682
  744MOL0     H98145   5.969   9.028   2.357  1.5188 -1.4486  1.0918
  744MOL0     H98146   5.964   9.186   2.445 -2.9743  1.2033  1.8701
  744MOL0     H98147   5.743   9.158   2.521  1.9106  0.8636  0.1946
  744MOL0     H98148   5.738   8.986   2.491 -1.8359  0.5904  0.5311
  744MOL0     H98149   5.774   9.048   2.235 -0.4831  0.2378 -0.5478
  744MOL0     H98150   5.752   9.223   2.279  0.9720 -0.4087  0.1882
  744MOL0     H98151   5.540   9.008   2.315 -0.8705  0.8502  0.5225
  744MOL0     H98152   5.538   9.166   2.393 -0.4102  0.1269  0.1819
  744MOL0     H98153   5.541   9.263   2.161 -0.4338 -0.0181  3.4435
  744MOL0     H98154   5.397   9.180   2.202  0.4725 -1.3017  2.1524
  744MOL0     H98155   5.610   9.064   2.015  0.2373 -1.4251  1.2991
  744MOL0     H98156   5.453   9.129   1.969 -1.3413  1.8148  3.0476
  744MOL0     H98157   5.491   8.879   2.132 -0.7893 -1.6870 -1.0399
  744MOL0     H98158   5.342   8.981   2.111  2.6972  5.2341  1.0195
  744MOL0     H98159   5.383   8.777   1.948  0.0703 -0.0647 -4.6139
  744MOL0     H98160   5.517   8.865   1.879  0.1062 -1.4295 -0.9957
  744MOL0     H98161   5.469   9.003   1.687  0.2916  1.6296 -0.1216
  744MOL0     H98162   5.346   9.064   1.471  0.3936 -2.0903  3.3074
  744MOL0     H98163   5.197   9.166   1.496 -0.6512  0.8409  0.2983
  744MOL0     H98164   5.062   8.959   1.467 -0.1891 -2.1360  0.8208
  744MOL0     H98165   5.203   8.862   1.429  1.5945 -0.2221  0.2189
  744MOL0     H98166   5.156   9.112   1.269  2.9190  0.2981 -1.6681
  744MOL0     H98167   5.252   8.961   1.241 -1.0150 -1.4174 -1.0452
  744MOL0     H98168   5.041   8.965   1.105 -1.6041  2.5221  0.3354
  744MOL0     H98169   4.955   8.991   1.260  0.2284 -2.8148  2.3322
  744MOL0     H98170   4.836   8.890   1.074 -0.9972 -0.4677 -0.0839
  744MOL0     H98171   4.672   8.743   0.981 -3.8554 -2.5121  2.6040
  744MOL0     H98172   4.460   8.611   0.676 -0.4832 -0.5451  0.0069
  744MOL0     H98173   4.271   8.493   0.545 -0.0174 -0.6146 -0.7524
  744MOL0     H98174   3.976   8.238   0.713  1.7216  1.0623  1.1606
  744MOL0     H98175   4.115   8.125   0.753  1.6667 -1.3843 -1.4619
  744MOL0     H98176   4.105   8.023   0.539  0.7163  0.5259  1.0830
  744MOL0     H98177   3.973   8.124   0.484 -1.4386  0.4935  1.0765
  744MOL0     H98178   3.918   7.896   0.558 -0.3500  1.8006 -0.5043
  744MOL0     H98179   3.829   8.011   0.665  0.6273  2.0140  1.0654
  744MOL0     H98180   4.059   7.862   0.755 -0.0413 -0.6878  0.7277
  744MOL0     H98181   3.969   7.984   0.844  1.8070  0.3792 -0.4367
  744MOL0     H98182   3.875   7.709   0.736  0.6447 -1.6542  2.0484
  744MOL0     H98183   3.754   7.832   0.772 -1.0981  0.2796  4.3468
  744MOL0     H98184   3.744   7.700   0.956 -1.0493  1.0341 -0.6214
  744MOL0     H98185   3.865   7.822   1.008  1.7549  2.8338 -2.5255
  744MOL0     H98186   3.929   7.540   0.904 -1.9131 -0.3515  0.4026
  744MOL0     H98187   4.055   7.665   0.964 -1.1282 -1.5359  0.4637
  744MOL0     H98188   3.991   7.493   1.145 -0.8386 -1.0969  0.9680
  744MOL0     H98189   3.821   7.542   1.119  0.8475 -1.8425 -0.6653
  744MOL0     H98190   4.274   8.171   0.841 -0.7645 -0.2642 -0.3961
  744MOL0     H98191   4.426   8.292   0.975  2.0879 -1.8694 -1.7897
  744MOL0     H98192   4.862   8.392   1.130 -3.3150 -0.8897 -1.9904
  744MOL0     H98193   5.035   8.537   1.223  0.0653 -0.5498 -0.9159
  744MOL0     H98194   5.916   9.260   2.641  0.3609  0.2461  2.0545
  744MOL0     H98195   5.873   9.318   2.867 -0.7583  0.6600 -0.6806
  744MOL0     H98196   5.773   9.196   3.263  0.7510 -0.4055 -0.2201
  744MOL0     H98197   5.694   9.271   3.472 -2.5112  1.6731 -0.3066
  744MOL0     H98198   5.735   9.331   3.756 -0.4446 -0.7647 -1.5521
  744MOL0     H98199   5.618   9.398   3.638  2.1337 -4.0391 -2.4465
  744MOL0     H98200   5.533   9.471   3.827 -0.6663  0.1764 -0.5010
  744MOL0     H98201   5.686   9.487   3.902 -2.8109 -3.2863  0.6516
  744MOL0     H98202   5.545   9.691   3.738  0.1703  0.8449 -1.8362
  744MOL0     H98203   5.707   9.675   3.694  1.3802 -3.3039  0.4257
  744MOL0     H98204   5.603   9.718   3.981 -0.2468 -0.5510  0.6329
  744MOL0     H98205   5.777   9.709   3.937  0.0468 -2.4874 -2.9913
  744MOL0     H98206   5.597  10.095   3.880 -1.3180 -0.2307  0.3170
  744MOL0     H98207   6.022   9.544   3.517  1.0292  0.6086  0.0151
  744MOL0     H98208   6.112   9.475   3.286  0.3981 -1.7463  0.0301
  745MOL0     O98209  10.840   9.662  10.930 -0.8066  0.5235  0.2566
  745MOL0     C98210  10.730   9.666  10.989  0.4597 -0.2048  0.6107
  745MOL0     O98211  10.699   9.765  11.072  0.4816 -1.2449  0.7117
  745MOL0     C98212  10.565   9.797  11.104  0.8632 -0.3038 -0.4990
  745MOL0     C98213  10.453   9.785  11.020  0.5773  0.1376 -0.6502
  745MOL0     C98214  10.322   9.815  11.075 -0.1595  0.3249  0.5175
  745MOL0     C98215  10.298   9.861  11.207  0.1829  0.2744 -0.1569
  745MOL0     O98216  10.178   9.906  11.256  0.2610 -0.4398 -0.1023
  745MOL0     C98217  10.060   9.894  11.173 -0.8751 -0.0262  0.3314
  745MOL0     C98218   9.943   9.972  11.229  0.0793 -0.5350 -0.2420
  745MOL0     C98219   9.909   9.960  11.377 -0.1844  0.7071 -0.5989
  745MOL0     C98220   9.901   9.810  11.427 -0.4809 -0.2847 -0.4344
  745MOL0     C98221   9.879   9.818  11.582  0.2826  0.3001  0.8878
  745MOL0     C98222   9.857   9.677  11.638  0.1401  0.0205 -0.0313
  745MOL0     C98223   9.886   9.672  11.782  0.4628 -0.7713 -0.3584
  745MOL0     C98224   9.827   9.552  11.858 -0.4610 -0.0866  0.3086
  745MOL0     N98225   9.898   9.425  11.808 -0.0848 -0.5158  0.3817
  745MOL0     C98226   9.849   9.295  11.812 -1.0330  0.3894 -0.1332
  745MOL0     C98227   9.948   9.219  11.763 -0.2572 -0.7510 -0.9831
  745MOL0     C98228   9.929   9.070  11.759  0.6242  0.6249 -0.1727
  745MOL0     C98229   9.890   9.023  11.615 -0.2840 -0.1932 -0.2213
  745MOL0     C98230   9.784   8.914  11.602  0.4080 -0.3771 -0.7304
  745MOL0     C98231   9.648   8.947  11.668 -0.0346  0.5537  0.2030
  745MOL0     O98232   9.576   9.023  11.572  0.0298 -0.0662 -0.2829
  745MOL0     C98233   9.482   9.110  11.613 -0.6630 -0.2675 -0.1423
  745MOL0     C98234   9.449   9.123  11.750  0.3883  0.3171  0.2065
  745MOL0     C98235   9.361   9.218  11.796  0.9732 -1.3583  0.3184
  745MOL0     C98236   9.307   9.317  11.706 -1.0409 -0.3493  0.3712
  745MOL0     C98237   9.207   9.418  11.758  0.1098 -0.9636  0.4154
  745MOL0     O98238   9.141   9.482  11.651 -0.8916 -0.0633  0.0795
  745MOL0     C98239   9.051   9.578  11.680  0.5487  1.0712 -0.4416
  745MOL0     C98240   9.077   9.701  11.627 -0.2376  0.0401 -0.2094
  745MOL0     C98241   8.992   9.808  11.660  0.3588  1.1743 -0.4996
  745MOL0     C98242   8.869   9.788  11.733  0.1428  0.2002  0.5481
  745MOL0     O98243   8.815   9.907  11.774  0.2293  0.2736  0.4837
  745MOL0     C98244   8.685   9.904  11.831  0.1416  0.0819  0.3586
  745MOL0     C98245   8.603  10.033  11.789  0.1908 -0.1537 -0.3420
  745MOL0     C98246   8.456   9.994  11.827 -0.6576 -0.8594 -0.4582
  745MOL0     C98247   8.346  10.106  11.824 -0.6759  0.5305  0.1916
  745MOL0     C98248   8.363  10.168  11.958 -0.5611 -0.3328 -1.8286
  745MOL0     C98249   8.275  10.293  11.980  0.3355  0.2061  0.5447
  745MOL0     C98250   8.311  10.361  12.114  0.2599  0.6063  0.2012
  745MOL0     C98251   8.280  10.499  12.117  0.7562 -0.9918 -1.4684
  745MOL0    Cl98252   8.341  10.576  12.267  0.0638 -0.3756 -0.6135
  745MOL0     C98253   8.845   9.656  11.779  0.6329 -0.3492  0.3142
  745MOL0     C98254   8.933   9.555  11.749 -0.0801  0.7025  0.2103
  745MOL0     O98255   9.179   9.425  11.873  0.4238  0.4073 -0.3217
  745MOL0     C98256   9.345   9.307  11.568 -0.5198 -0.4240 -0.1210
  745MOL0     C98257   9.425   9.207  11.523 -0.1719  0.2388  0.1415
  745MOL0     N98258  10.051   9.294  11.731  0.4072 -0.9803 -0.2145
  745MOL0     N98259  10.024   9.420  11.755  0.2575 -0.0959 -0.2291
  745MOL0     C98260  10.415   9.857  11.290  0.2100 -0.7207  0.2493
  745MOL0     C98261  10.538   9.832  11.236  0.2363  0.0253  1.0332
  745MOL0     C98262  10.639   9.559  10.963  0.4383  1.2277  0.3336
  745MOL0     C98263  10.603   9.474  11.072 -0.3590 -0.2903 -0.0664
  745MOL0     C98264  10.527   9.364  11.048  0.2959  0.1927 -0.2207
  745MOL0     C98265  10.496   9.316  10.918  0.6801 -0.8304  1.1177
  745MOL0     O98266  10.429   9.197  10.919 -0.4574 -0.3034 -0.2025
  745MOL0     C98267  10.412   9.127  10.791  1.1198  0.0067 -0.9932
  745MOL0     C98268  10.391   8.980  10.806  0.8840 -0.5928  0.0867
  745MOL0     C98269  10.319   8.917  10.687 -1.0189 -0.6457 -0.1094
  745MOL0     C98270  10.300   8.767  10.710 -0.2948 -0.7546  1.1552
  745MOL0     C98271  10.417   8.684  10.702  0.2524 -0.4105  0.1201
  745MOL0     C98272  10.513   8.616  10.696  0.2173 -0.5158 -0.4484
  745MOL0     C98273  10.539   9.395  10.805 -0.6873  0.5348  0.7372
  745MOL0     C98274  10.614   9.511  10.826  0.2892  0.2698  0.7423
  745MOL0     H98275  10.469   9.759  10.916 -1.0562  1.4320 -1.2622
  745MOL0     H98276  10.239   9.806  11.005  0.8855 -0.2981 -0.6941
  745MOL0     H98277  10.029   9.789  11.168 -0.2947 -0.1521 -2.5412
  745MOL0     H98278  10.085   9.928  11.072  1.7120  0.0928  0.9481
  745MOL0     H98279   9.864   9.940  11.161  0.6167 -1.8251 -0.2770
  745MOL0     H98280   9.969  10.078  11.219 -0.3337 -0.0756  2.6120
  745MOL0     H98281   9.817  10.007  11.415  0.6927 -0.7861  4.0110
  745MOL0     H98282   9.986  10.010  11.437 -0.5644  0.5535  0.0284
  745MOL0     H98283   9.814   9.758  11.386  0.0511 -0.6093 -1.1690
  745MOL0     H98284   9.994   9.753  11.415  0.9802  1.7385  0.7130
  745MOL0     H98285   9.788   9.876  11.601  0.3655  0.5815  0.4321
  745MOL0     H98286   9.970   9.867  11.616  1.7204  1.3665 -3.7265
  745MOL0     H98287   9.932   9.617  11.587 -0.1402 -0.6116  0.2869
  745MOL0     H98288   9.758   9.642  11.606  0.1216  2.2023 -2.7147
  745MOL0     H98289   9.992   9.689  11.804  0.0598 -0.6367  1.6945
  745MOL0     H98290   9.828   9.753  11.828  0.2964  0.4032 -2.5207
  745MOL0     H98291   9.719   9.537  11.859 -0.5110  0.1901 -0.1937
  745MOL0     H98292   9.866   9.552  11.960  1.9060 -1.3880 -0.5044
  745MOL0     H98293   9.757   9.266  11.861 -0.1436  1.1331  2.1168
  745MOL0     H98294   9.844   9.033  11.817  0.4854 -1.6233 -1.6685
  745MOL0     H98295  10.018   9.024  11.803 -1.3527 -0.1088  3.4366
  745MOL0     H98296   9.983   8.989  11.568 -1.1936 -0.0311 -2.2356
  745MOL0     H98297   9.850   9.108  11.559 -3.8970 -0.2516  1.9651
  745MOL0     H98298   9.760   8.891  11.498  1.8832 -2.2934 -0.7163
  745MOL0     H98299   9.825   8.828  11.655  2.1711  1.4961  1.1373
  745MOL0     H98300   9.660   8.998  11.764  3.0253 -0.0201  0.2197
  745MOL0     H98301   9.593   8.853  11.678  1.3085 -0.2095  0.6063
  745MOL0     H98302   9.484   9.066  11.835 -0.3069 -1.0070 -0.3623
  745MOL0     H98303   9.337   9.235  11.901  0.1197  0.4961 -0.1293
  745MOL0     H98304   9.173   9.712  11.577 -0.1567  0.8843  0.1192
  745MOL0     H98305   9.015   9.910  11.629  2.7995  1.1703  0.9955
  745MOL0     H98306   8.701   9.901  11.939  0.2198 -1.4395  0.3385
  745MOL0     H98307   8.631   9.812  11.806 -1.6006  1.1135  0.1630
  745MOL0     H98308   8.609  10.058  11.682  2.5866 -2.1696 -0.7956
  745MOL0     H98309   8.626  10.121  11.849 -2.7540 -1.2405  2.7072
  745MOL0     H98310   8.456   9.934  11.918 -2.5707 -0.0651  0.1195
  745MOL0     H98311   8.429   9.927  11.745 -0.0048 -1.0669 -0.5092
  745MOL0     H98312   8.384  10.171  11.745 -2.2853  0.4615 -0.6818
  745MOL0     H98313   8.241  10.080  11.810 -0.0412 -2.3341  0.0677
  745MOL0     H98314   8.467  10.201  11.972 -1.0305  0.8960 -1.0632
  745MOL0     H98315   8.343  10.095  12.038  1.0597  0.3623 -0.7323
  745MOL0     H98316   8.167  10.285  11.960  0.7152  2.7349 -3.6903
  745MOL0     H98317   8.303  10.365  11.902  1.4189 -0.4055  0.3553
  745MOL0     H98318   8.255  10.307  12.190 -0.5323  1.4094  0.1949
  745MOL0     H98319   8.416  10.340  12.137  0.0435  0.8893  1.5171
  745MOL0     H98320   8.171  10.504  12.112 -0.0976 -7.6968  0.7205
  745MOL0     H98321   8.317  10.550  12.027 -2.1160  0.0826 -2.1273
  745MOL0     H98322   8.766   9.638  11.851  3.1931 -2.2109  2.8620
  745MOL0     H98323   8.906   9.454  11.777 -0.3704  0.4178 -1.0550
  745MOL0     H98324   9.301   9.372  11.494 -2.6407 -0.7622  0.7764
  745MOL0     H98325   9.436   9.215  11.416 -4.2708 -1.5933 -0.6014
  745MOL0     H98326  10.399   9.882  11.394 -1.3119 -1.7907  0.3126
  745MOL0     H98327  10.624   9.832  11.302 -0.5085 -1.1772  2.0695
  745MOL0     H98328  10.632   9.512  11.170 -0.7068  4.0218 -1.4407
  745MOL0     H98329  10.503   9.309  11.138 -3.3155  0.0898 -1.0934
  745MOL0     H98330  10.490   9.149  10.716  1.1594 -2.8111 -1.9174
  745MOL0     H98331  10.323   9.167  10.740  1.2075  1.7195  0.1091
  745MOL0     H98332  10.485   8.925  10.816  0.7738 -0.4881  2.0877
  745MOL0     H98333  10.323   8.963  10.891 -0.7092 -0.1050 -1.0467
  745MOL0     H98334  10.377   8.943  10.598 -3.2713  1.1889 -1.1519
  745MOL0     H98335  10.223   8.969  10.690 -1.3633 -1.1620  3.9885
  745MOL0     H98336  10.255   8.736  10.804 -0.8421  0.2245  1.2188
  745MOL0     H98337  10.230   8.734  10.632 -0.9796 -1.2535  1.9669
  745MOL0     H98338  10.595   8.547  10.699 -0.1908 -0.9944  1.8621
  745MOL0     H98339  10.522   9.371  10.700 -0.0623  1.6091  0.3727
  745MOL0     H98340  10.653   9.575  10.748 -0.9136  1.2107  0.8806
  746MOL0     O98341   4.454   3.999   1.424  0.0216 -0.2615 -0.7185
  746MOL0     C98342   4.386   3.948   1.345 -0.5695  0.4421  0.9785
  746MOL0     O98343   4.431   3.835   1.270 -0.0056  0.1983 -1.0841
  746MOL0     C98344   4.566   3.792   1.269  0.4469  0.2819  0.1328
  746MOL0     C98345   4.616   3.670   1.311  0.3593 -0.0263  1.2657
  746MOL0     C98346   4.754   3.643   1.307 -0.0610 -0.2107 -0.0589
  746MOL0     C98347   4.846   3.735   1.258 -0.1470 -0.6147 -0.3925
  746MOL0     O98348   4.976   3.698   1.256 -0.9389 -0.4036  0.3680
  746MOL0     C98349   5.045   3.637   1.366  0.4459  0.1426 -0.6732
  746MOL0     C98350   5.197   3.631   1.321 -0.3170 -0.5265  0.3023
  746MOL0     C98351   5.246   3.782   1.303 -0.1604  0.5483  0.7542
  746MOL0     C98352   5.391   3.785   1.261 -0.1374  0.2966  0.5694
  746MOL0     C98353   5.449   3.919   1.293  0.1855  0.3370 -0.2918
  746MOL0     C98354   5.587   3.939   1.251 -0.5029 -0.1194 -0.0741
  746MOL0     C98355   5.626   4.087   1.268  0.8103 -0.7217  0.4967
  746MOL0     C98356   5.767   4.128   1.218 -0.1469 -0.1093  0.3738
  746MOL0     N98357   5.780   4.276   1.225  0.0374  0.6069  0.4376
  746MOL0     C98358   5.836   4.351   1.331 -1.0591 -0.7563 -0.2096
  746MOL0     C98359   5.820   4.481   1.295  0.2934 -0.5466 -0.0313
  746MOL0     C98360   5.865   4.604   1.373 -0.7293  0.5292  0.0968
  746MOL0     C98361   5.744   4.659   1.446  0.1611 -0.3991 -0.7894
  746MOL0     C98362   5.760   4.810   1.460 -0.0241 -0.0392 -0.0142
  746MOL0     C98363   5.670   4.872   1.572 -0.4854  0.0805  0.4045
  746MOL0     O98364   5.541   4.830   1.549  0.4409 -0.3937  0.5515
  746MOL0     C98365   5.432   4.908   1.579  0.5189  0.8574 -0.6341
  746MOL0     C98366   5.320   4.845   1.521 -0.2076  0.0032  0.2968
  746MOL0     C98367   5.194   4.904   1.519  0.2056 -0.3564  0.6019
  746MOL0     C98368   5.172   5.014   1.600 -0.5260  0.7483 -0.3868
  746MOL0     C98369   5.046   5.062   1.618  0.1786 -0.6143  1.0347
  746MOL0     O98370   5.032   5.164   1.710 -0.0963  0.2914 -1.0737
  746MOL0     C98371   4.914   5.227   1.744 -0.7308  0.7034  0.2013
  746MOL0     C98372   4.933   5.320   1.853  0.3759  0.4411  0.7087
  746MOL0     C98373   4.819   5.373   1.900 -0.3240 -0.4225 -0.0858
  746MOL0     C98374   4.694   5.361   1.851 -0.5126  0.1334  0.1957
  746MOL0     O98375   4.590   5.419   1.919 -0.9072 -0.0611 -0.7700
  746MOL0     C98376   4.462   5.405   1.866  1.3522 -0.9813 -0.2026
  746MOL0     C98377   4.373   5.479   1.971  0.4604 -0.7030  0.5209
  746MOL0     C98378   4.230   5.448   1.941 -0.2786  0.5606 -0.8577
  746MOL0     C98379   4.130   5.529   2.045  0.6878 -0.8239  0.0747
  746MOL0     C98380   3.994   5.457   2.062 -0.2007 -0.1443  0.8496
  746MOL0     C98381   3.926   5.430   1.926  0.9601 -0.3664  0.5111
  746MOL0     C98382   3.766   5.408   1.934  0.3879  0.0903  0.3030
  746MOL0     C98383   3.733   5.256   1.942 -0.5703 -0.4437 -0.6096
  746MOL0    Cl98384   3.564   5.234   1.934 -0.7261  0.2103  0.0150
  746MOL0     C98385   4.675   5.282   1.737  0.7273 -0.7518  0.2361
  746MOL0     C98386   4.786   5.221   1.673  0.1163 -0.7661  0.2885
  746MOL0     O98387   4.953   5.012   1.549 -0.4859  0.0042  0.0879
  746MOL0     C98388   5.282   5.079   1.663 -0.8049 -0.9667 -0.1965
  746MOL0     C98389   5.412   5.031   1.636  0.1995  0.1640 -0.4270
  746MOL0     N98390   5.760   4.477   1.167  0.7844 -0.1110 -0.7873
  746MOL0     N98391   5.744   4.356   1.125  0.0370  0.6171  0.6216
  746MOL0     C98392   4.805   3.856   1.220  0.6263 -0.0735 -0.4968
  746MOL0     C98393   4.664   3.884   1.222  0.3303 -0.1126 -0.3982
  746MOL0     C98394   4.257   4.001   1.313  0.5030 -0.0934  0.5119
  746MOL0     C98395   4.188   3.964   1.199 -0.0335 -0.0150 -0.2038
  746MOL0     C98396   4.061   4.017   1.178 -0.3478 -0.2044 -0.5301
  746MOL0     C98397   4.004   4.111   1.260  0.9305 -0.9568 -0.6083
  746MOL0     O98398   3.887   4.181   1.237  0.7790  0.4125 -0.4861
  746MOL0     C98399   3.804   4.149   1.124  0.2879 -0.5177 -0.1287
  746MOL0     C98400   3.827   4.243   1.016  0.2225  0.4969 -0.0626
  746MOL0     C98401   3.733   4.222   0.901 -0.1662 -0.5251  0.4148
  746MOL0     C98402   3.748   4.333   0.796 -0.0936 -0.7496  0.1254
  746MOL0     C98403   3.690   4.306   0.660  0.2464 -0.2826 -0.4738
  746MOL0     C98404   3.639   4.294   0.549  0.0964 -0.5718  0.2802
  746MOL0     C98405   4.072   4.151   1.376  0.4584  0.0600 -1.1478
  746MOL0     C98406   4.192   4.090   1.408 -0.5175 -0.2651  0.0890
  746MOL0     H98407   4.539   3.606   1.354 -1.6197  0.3819 -1.4373
  746MOL0     H98408   4.807   3.553   1.336  2.0853  0.7480 -0.8090
  746MOL0     H98409   5.013   3.536   1.395 -1.4976  1.7719  3.9135
  746MOL0     H98410   5.034   3.694   1.459  1.1826  1.8628 -1.6178
  746MOL0     H98411   5.214   3.579   1.226  0.3520  2.2161 -1.1576
  746MOL0     H98412   5.261   3.575   1.390 -1.9974 -2.9595  0.0523
  746MOL0     H98413   5.228   3.844   1.391 -1.5647  3.4088 -1.3837
  746MOL0     H98414   5.174   3.824   1.232 -2.0211  2.9745  3.8312
  746MOL0     H98415   5.431   3.706   1.326 -1.7239  1.9269  3.7767
  746MOL0     H98416   5.402   3.769   1.153  2.3077  2.3084  0.4227
  746MOL0     H98417   5.444   3.936   1.401 -0.9676 -0.8266 -0.1363
  746MOL0     H98418   5.386   3.993   1.243 -1.4031  1.1603  2.6688
  746MOL0     H98419   5.607   3.913   1.147  0.9507  0.6333 -0.0036
  746MOL0     H98420   5.658   3.883   1.312  2.1630  1.2479 -1.7504
  746MOL0     H98421   5.543   4.148   1.232  0.0332  0.5281  3.9936
  746MOL0     H98422   5.621   4.108   1.375 -1.1583  1.5231  0.0449
  746MOL0     H98423   5.793   4.103   1.115  0.6422  1.4585  0.1541
  746MOL0     H98424   5.846   4.085   1.281 -0.3615 -1.9635 -0.5720
  746MOL0     H98425   5.867   4.305   1.424 -3.4827 -0.2289  0.9500
  746MOL0     H98426   5.908   4.681   1.308  2.4797 -2.0069 -1.0852
  746MOL0     H98427   5.949   4.588   1.441 -2.2122  3.0886  2.7543
  746MOL0     H98428   5.741   4.629   1.552 -1.9884  1.7892 -0.1492
  746MOL0     H98429   5.646   4.644   1.401 -0.0524  3.7391 -2.1004
  746MOL0     H98430   5.868   4.829   1.468  0.1878 -1.2548  0.2048
  746MOL0     H98431   5.731   4.855   1.365 -2.0644 -0.3773  0.4118
  746MOL0     H98432   5.681   4.979   1.592 -0.5598 -0.4055  3.4892
  746MOL0     H98433   5.694   4.828   1.669  2.5471 -4.0256 -1.8507
  746MOL0     H98434   5.335   4.749   1.473 -1.6995 -1.7430  3.0245
  746MOL0     H98435   5.116   4.846   1.472  1.8315 -4.2361  2.3012
  746MOL0     H98436   5.030   5.343   1.896  0.3929 -2.3041  2.3383
  746MOL0     H98437   4.825   5.449   1.978 -0.0789 -0.0366 -0.4791
  746MOL0     H98438   4.432   5.303   1.844 -0.5481 -0.5387  0.0862
  746MOL0     H98439   4.466   5.452   1.767 -1.8413 -1.1598 -0.5110
  746MOL0     H98440   4.399   5.585   1.979  2.2608 -0.8645 -1.9343
  746MOL0     H98441   4.388   5.440   2.072 -3.9753 -2.3724  0.7537
  746MOL0     H98442   4.222   5.340   1.959  1.8707 -0.1587 -3.5835
  746MOL0     H98443   4.209   5.453   1.834 -0.1517 -1.0839 -0.9807
  746MOL0     H98444   4.170   5.533   2.147 -4.5784  1.7373  2.4291
  746MOL0     H98445   4.120   5.629   2.003  2.3717 -0.1619  1.1571
  746MOL0     H98446   3.928   5.526   2.115 -0.1168  1.4563 -1.0132
  746MOL0     H98447   4.006   5.367   2.124  2.7556  0.5840  1.4854
  746MOL0     H98448   3.961   5.344   1.869  2.1476 -0.4875  1.3852
  746MOL0     H98449   3.940   5.522   1.868 -0.9039 -0.3268  0.0503
  746MOL0     H98450   3.710   5.463   2.011 -0.4308  0.6044 -0.6268
  746MOL0     H98451   3.733   5.441   1.835  1.4591  0.6825  0.1368
  746MOL0     H98452   3.767   5.205   2.033  0.4785  0.7519 -0.3015
  746MOL0     H98453   3.780   5.202   1.859  0.0761  0.8453 -1.1055
  746MOL0     H98454   4.579   5.270   1.689  0.2504 -0.0229  0.9776
  746MOL0     H98455   4.759   5.176   1.578 -0.9861  0.6426 -0.0896
  746MOL0     H98456   5.270   5.181   1.700 -1.7835 -0.4285 -1.8398
  746MOL0     H98457   5.494   5.086   1.680 -1.7806  1.3251  2.0748
  746MOL0     H98458   4.879   3.925   1.182  0.3845 -0.4078 -1.6013
  746MOL0     H98459   4.626   3.981   1.191  1.5206  0.4819 -0.0629
  746MOL0     H98460   4.229   3.889   1.132  0.4990  1.8307 -2.0391
  746MOL0     H98461   4.023   3.982   1.082  1.7090 -0.4534 -1.3257
  746MOL0     H98462   3.696   4.146   1.142  0.0583 -0.9234 -1.4667
  746MOL0     H98463   3.822   4.047   1.087  2.3891 -0.4747  0.6396
  746MOL0     H98464   3.802   4.341   1.057 -1.7072  0.2620 -0.5674
  746MOL0     H98465   3.934   4.254   0.995  0.4215  0.9405  1.1210
  746MOL0     H98466   3.635   4.230   0.950  0.6070  2.2676  1.7103
  746MOL0     H98467   3.761   4.123   0.864 -0.5890 -1.1567  1.6946
  746MOL0     H98468   3.731   4.433   0.836  2.3636 -0.3165  0.2238
  746MOL0     H98469   3.856   4.343   0.780 -0.1989 -0.6126 -0.5037
  746MOL0     H98470   3.605   4.278   0.448  0.9989  0.5913 -0.2326
  746MOL0     H98471   4.022   4.226   1.436  1.8077  3.0583 -3.5191
  746MOL0     H98472   4.252   4.113   1.495  0.9406  0.5034 -1.0656
  747MOL0     O98473   4.098   1.757   0.041  0.6241  0.5101  0.4529
  747MOL0     C98474   4.028   1.842  -0.017 -0.0484  1.1940 -0.0573
  747MOL0     O98475   4.082   1.923  -0.107  0.2641 -0.3363  0.7432
  747MOL0     C98476   4.219   1.924  -0.126  0.1083  0.4390  0.5454
  747MOL0     C98477   4.294   2.008  -0.044  0.1533 -0.2757  0.0549
  747MOL0     C98478   4.430   2.004  -0.060  0.9055 -0.4907  0.5054
  747MOL0     C98479   4.495   1.914  -0.143  0.0828  0.0617  1.2310
  747MOL0     O98480   4.639   1.908  -0.142 -0.7812 -0.1056  1.1617
  747MOL0     C98481   4.704   2.028  -0.180 -0.3841 -0.3225  0.3828
  747MOL0     C98482   4.629   2.109  -0.285 -0.0071 -1.1878  1.5441
  747MOL0     C98483   4.712   2.239  -0.313 -1.1160 -0.4007  0.5081
  747MOL0     C98484   4.634   2.344  -0.391  0.1500  0.1355 -0.7694
  747MOL0     C98485   4.729   2.457  -0.441 -0.2107 -0.3876  0.5569
  747MOL0     C98486   4.787   2.533  -0.320  0.1280  0.4503  0.7598
  747MOL0     C98487   4.857   2.659  -0.358 -0.4140 -0.0397 -0.2868
  747MOL0     C98488   4.998   2.639  -0.410 -0.0555  0.3141  0.7043
  747MOL0     N98489   5.063   2.778  -0.410 -0.1465 -0.4278  0.4796
  747MOL0     C98490   5.068   2.868  -0.513 -0.0877 -0.4383  0.5513
  747MOL0     C98491   5.153   2.959  -0.478 -0.7800 -0.7385  0.0051
  747MOL0     C98492   5.206   3.070  -0.566 -0.0500 -0.7199  0.0070
  747MOL0     C98493   5.357   3.099  -0.544 -0.6708 -0.7751  0.1200
  747MOL0     C98494   5.444   2.976  -0.567  0.5479  0.1860  0.6818
  747MOL0     C98495   5.468   2.954  -0.719  0.2763  0.3103 -1.0785
  747MOL0     O98496   5.491   2.817  -0.735 -0.8572  0.1138  0.1041
  747MOL0     C98497   5.376   2.733  -0.748 -0.8351  0.3764 -0.0265
  747MOL0     C98498   5.260   2.776  -0.806  0.5646 -0.6877  0.4860
  747MOL0     C98499   5.157   2.691  -0.830  0.4719 -0.1592 -0.5087
  747MOL0     C98500   5.159   2.559  -0.796  0.4941  0.5065 -0.6728
  747MOL0     C98501   5.050   2.478  -0.810 -0.7544  0.7119  0.1359
  747MOL0     O98502   5.072   2.344  -0.837  0.7205 -0.6539 -0.4587
  747MOL0     C98503   4.975   2.261  -0.800  0.1784 -0.3577  0.3474
  747MOL0     C98504   4.856   2.254  -0.876  0.0922  0.9611 -0.4649
  747MOL0     C98505   4.760   2.157  -0.835  0.8906  0.5140 -0.0665
  747MOL0     C98506   4.780   2.078  -0.715  0.1726  0.1467  0.4201
  747MOL0     O98507   4.690   1.987  -0.663  0.4452 -0.6513  0.6158
  747MOL0     C98508   4.550   1.979  -0.721  0.2271 -0.1366  0.2526
  747MOL0     C98509   4.445   1.902  -0.643 -0.7509 -0.4874 -0.2863
  747MOL0     C98510   4.490   1.760  -0.618 -0.1676 -0.3453  0.0240
  747MOL0     C98511   4.375   1.671  -0.577 -0.0544 -0.5953 -0.1980
  747MOL0     C98512   4.426   1.526  -0.556  0.6537  0.0299  0.2337
  747MOL0     C98513   4.309   1.418  -0.530 -0.0756 -0.4750  0.5346
  747MOL0     C98514   4.237   1.433  -0.398  0.3821  0.3597 -0.1725
  747MOL0     C98515   4.159   1.304  -0.374 -0.0262  0.9075  0.0071
  747MOL0    Cl98516   4.051   1.312  -0.234  0.0301  0.2110 -0.1576
  747MOL0     C98517   4.899   2.087  -0.639  0.6620 -0.6846 -0.0730
  747MOL0     C98518   4.990   2.182  -0.684  0.2705  1.0937  0.1363
  747MOL0     O98519   4.940   2.534  -0.780  0.1010  0.1145  1.0147
  747MOL0     C98520   5.281   2.511  -0.736 -0.2879  0.6306  0.1715
  747MOL0     C98521   5.385   2.598  -0.711 -0.5548 -0.3671  0.4576
  747MOL0     N98522   5.196   2.938  -0.344  0.8835  0.2662 -0.1952
  747MOL0     N98523   5.133   2.828  -0.315  0.1204 -0.2487 -1.0095
  747MOL0     C98524   4.419   1.826  -0.225 -0.1031 -0.0072  0.8507
  747MOL0     C98525   4.278   1.838  -0.216  0.3343 -0.8458 -0.0784
  747MOL0     C98526   3.890   1.858   0.002  0.3905 -0.3818 -0.5649
  747MOL0     C98527   3.836   1.987   0.032 -0.5912  0.7614  0.0586
  747MOL0     C98528   3.705   1.993   0.071 -0.0925  0.5362 -0.3494
  747MOL0     C98529   3.627   1.875   0.093 -0.2354 -0.2480 -0.8216
  747MOL0     O98530   3.501   1.879   0.150 -0.0447 -0.1959  0.2037
  747MOL0     C98531   3.500   1.896   0.289  0.7179 -0.2112 -0.8699
  747MOL0     C98532   3.451   2.041   0.329  0.3084 -0.3129 -0.4143
  747MOL0     C98533   3.303   2.075   0.297 -0.6734 -0.0726 -0.2231
  747MOL0     C98534   3.268   2.217   0.329 -0.1551 -0.2674 -0.1832
  747MOL0     C98535   3.133   2.250   0.275 -0.2006 -0.5917 -0.2747
  747MOL0     C98536   3.018   2.257   0.223 -0.3825 -0.0731  0.4007
  747MOL0     C98537   3.681   1.752   0.068 -0.3675  0.6388 -0.9421
  747MOL0     C98538   3.817   1.747   0.024  0.3854  1.3405 -0.0446
  747MOL0     H98539   4.257   2.063   0.042  2.1118 -1.8437  2.0095
  747MOL0     H98540   4.484   2.068   0.009 -1.5385 -0.7227  2.7866
  747MOL0     H98541   4.801   2.005  -0.226 -0.3961  1.0135 -0.3690
  747MOL0     H98542   4.727   2.087  -0.091 -1.4855  0.5423  0.1102
  747MOL0     H98543   4.533   2.145  -0.246  1.0516  2.3563  1.2099
  747MOL0     H98544   4.613   2.049  -0.375  1.4820  0.5715  0.0279
  747MOL0     H98545   4.801   2.211  -0.371  0.3385  1.0672  1.9424
  747MOL0     H98546   4.741   2.278  -0.215  1.7543  0.0119 -0.3849
  747MOL0     H98547   4.584   2.296  -0.475 -1.0962 -0.5574  0.3308
  747MOL0     H98548   4.558   2.380  -0.321  0.9683 -1.8575  1.2871
  747MOL0     H98549   4.668   2.526  -0.500 -0.2601 -1.0424 -0.1877
  747MOL0     H98550   4.805   2.404  -0.500  0.8183  1.4047  0.2147
  747MOL0     H98551   4.868   2.476  -0.273 -0.2800  0.4997  1.5385
  747MOL0     H98552   4.701   2.555  -0.256 -0.3549 -0.4582  0.4384
  747MOL0     H98553   4.799   2.710  -0.435 -0.5416  1.3291  0.6759
  747MOL0     H98554   4.862   2.730  -0.275 -1.2487 -0.9592  0.5741
  747MOL0     H98555   4.978   2.608  -0.513  1.8692  2.6168 -0.4736
  747MOL0     H98556   5.050   2.568  -0.345 -2.6998 -1.2337  1.2754
  747MOL0     H98557   5.022   2.860  -0.612 -0.9219  0.9595  0.7968
  747MOL0     H98558   5.154   3.162  -0.537  0.2593 -0.9220  1.2457
  747MOL0     H98559   5.196   3.038  -0.670  3.6521 -2.6915  0.0907
  747MOL0     H98560   5.363   3.129  -0.439  1.0090  2.2142 -0.7042
  747MOL0     H98561   5.385   3.196  -0.587  0.0596 -1.9427 -2.2024
  747MOL0     H98562   5.543   2.991  -0.522  0.2394 -0.1248  1.4815
  747MOL0     H98563   5.400   2.888  -0.519 -0.2926 -1.5944 -3.0311
  747MOL0     H98564   5.557   3.013  -0.744 -0.4927  2.9081  1.6982
  747MOL0     H98565   5.388   2.999  -0.779 -0.4560 -1.3360 -1.3968
  747MOL0     H98566   5.243   2.880  -0.835 -0.3042 -1.2202 -1.0285
  747MOL0     H98567   5.072   2.731  -0.885  1.4260  1.1804 -1.0920
  747MOL0     H98568   4.847   2.329  -0.954 -1.7375 -0.0174 -1.2547
  747MOL0     H98569   4.664   2.148  -0.885  1.4822 -3.4450 -0.8629
  747MOL0     H98570   4.564   1.914  -0.808  1.2559  1.6862 -1.0088
  747MOL0     H98571   4.516   2.074  -0.763  1.7704  0.3726  0.0755
  747MOL0     H98572   4.349   1.910  -0.694 -1.9854 -2.0974  1.6796
  747MOL0     H98573   4.436   1.956  -0.548 -4.2610 -0.2402 -0.6296
  747MOL0     H98574   4.565   1.768  -0.538 -2.8313 -1.4237  2.8015
  747MOL0     H98575   4.539   1.724  -0.710  0.8029  1.6689 -0.2989
  747MOL0     H98576   4.334   1.711  -0.483 -2.5568  2.0257 -2.2110
  747MOL0     H98577   4.281   1.674  -0.632  0.1091 -1.3336 -0.5248
  747MOL0     H98578   4.500   1.533  -0.475  0.5492 -0.0434  0.3363
  747MOL0     H98579   4.476   1.500  -0.650 -1.1053 -1.1584 -0.4237
  747MOL0     H98580   4.369   1.328  -0.544  2.4431  1.1450  0.3293
  747MOL0     H98581   4.241   1.416  -0.616  3.7659 -4.1780 -2.8412
  747MOL0     H98582   4.316   1.446  -0.324  2.8644 -0.1911 -2.5804
  747MOL0     H98583   4.157   1.509  -0.398 -1.8372 -1.8433  0.0933
  747MOL0     H98584   4.225   1.218  -0.361  0.3817  1.3041  0.5965
  747MOL0     H98585   4.086   1.287  -0.454 -0.4822 -0.1790  0.6356
  747MOL0     H98586   4.925   2.026  -0.553  0.3209 -3.0687 -1.5812
  747MOL0     H98587   5.084   2.192  -0.631  0.5961  0.5637 -0.3413
  747MOL0     H98588   5.281   2.406  -0.709 -0.6166  0.8985  1.2353
  747MOL0     H98589   5.480   2.560  -0.676 -0.3026 -2.5707 -2.2870
  747MOL0     H98590   4.470   1.752  -0.285  2.3844  2.0549  0.2637
  747MOL0     H98591   4.202   1.779  -0.267 -0.0711 -0.3332 -0.0737
  747MOL0     H98592   3.899   2.072   0.007  3.1008 -1.9958 -0.8120
  747MOL0     H98593   3.660   2.090   0.093 -0.4371  0.3242 -0.1039
  747MOL0     H98594   3.605   1.887   0.315  0.2671 -1.8828  0.5201
  747MOL0     H98595   3.449   1.816   0.344 -1.1124  0.8331 -0.9496
  747MOL0     H98596   3.489   2.061   0.429  2.5728  2.0262 -1.6262
  747MOL0     H98597   3.512   2.111   0.272 -1.0736 -0.3904 -2.0593
  747MOL0     H98598   3.236   2.009   0.352 -1.5727  2.3608  1.7834
  747MOL0     H98599   3.286   2.065   0.189 -2.2742 -2.9183  0.2113
  747MOL0     H98600   3.258   2.219   0.438  4.6702  1.1335  0.4598
  747MOL0     H98601   3.347   2.280   0.288 -2.8325  3.0319 -0.7084
  747MOL0     H98602   2.920   2.256   0.180 -0.1962  0.7999 -0.0671
  747MOL0     H98603   3.621   1.662   0.075 -2.2205  1.8316 -0.8804
  747MOL0     H98604   3.857   1.649   0.001 -0.2552  0.4919  2.1992
  748MOL0     O98605   6.502   0.600   0.290 -0.3448 -0.3861  0.1409
  748MOL0     C98606   6.570   0.663   0.212 -0.4675  0.6312  0.1265
  748MOL0     O98607   6.554   0.801   0.177  0.3281  0.4280 -0.1411
  748MOL0     C98608   6.442   0.872   0.229  0.2838  0.6560 -0.0617
  748MOL0     C98609   6.463   0.999   0.281 -0.5409 -1.1028  1.0877
  748MOL0     C98610   6.363   1.078   0.349  0.0753  0.2504  0.6246
  748MOL0     C98611   6.228   1.031   0.354 -0.2872 -0.0787 -0.4910
  748MOL0     O98612   6.116   1.105   0.397 -0.9024 -0.6964 -1.0572
  748MOL0     C98613   6.148   1.236   0.452  0.3557 -0.2656 -0.5379
  748MOL0     C98614   6.165   1.347   0.353  0.2227  0.1043 -0.1880
  748MOL0     C98615   6.133   1.303   0.209  0.5532 -0.5346  0.6289
  748MOL0     C98616   6.184   1.407   0.102 -0.5038 -0.5133 -0.2266
  748MOL0     C98617   6.136   1.371  -0.031  0.0471 -0.3152  0.0199
  748MOL0     C98618   6.195   1.472  -0.135  0.0117 -0.8086  0.1424
  748MOL0     C98619   6.114   1.488  -0.268 -0.1083 -0.3514  0.2115
  748MOL0     C98620   6.119   1.364  -0.363 -0.1858  1.2021 -0.1024
  748MOL0     N98621   6.021   1.257  -0.325  0.1054 -0.3551  0.3211
  748MOL0     C98622   5.892   1.272  -0.278 -0.9968  0.2417  0.3428
  748MOL0     C98623   5.852   1.153  -0.233  0.4097 -0.7848  0.4725
  748MOL0     C98624   5.720   1.118  -0.172 -0.1200  0.5637 -0.0460
  748MOL0     C98625   5.626   1.063  -0.281  1.1102  0.6199 -0.3636
  748MOL0     C98626   5.494   1.023  -0.225 -0.0199  0.0964  0.4272
  748MOL0     C98627   5.385   0.980  -0.336 -1.3695 -0.5226 -0.1947
  748MOL0     O98628   5.434   0.875  -0.411 -0.0951 -0.0296 -0.2389
  748MOL0     C98629   5.420   0.751  -0.351  0.3298  0.0827 -0.0167
  748MOL0     C98630   5.539   0.682  -0.349 -0.2701  0.6303 -0.2499
  748MOL0     C98631   5.533   0.552  -0.298  0.1510  1.3380 -0.6067
  748MOL0     C98632   5.415   0.485  -0.262 -0.0303 -0.5983 -0.0613
  748MOL0     C98633   5.408   0.353  -0.202 -0.1039 -0.3473 -0.8779
  748MOL0     O98634   5.297   0.290  -0.193  0.4747 -0.2848  0.3972
  748MOL0     C98635   5.298   0.162  -0.139 -0.0565 -0.0988  0.5993
  748MOL0     C98636   5.318   0.058  -0.223  0.6450  0.4653  0.2865
  748MOL0     C98637   5.326  -0.072  -0.164  0.1318 -0.3730 -0.1472
  748MOL0     C98638   5.298  -0.090  -0.030  0.3925 -0.3958  0.3265
  748MOL0     O98639   5.311  -0.217   0.004  0.7297  0.2769 -0.7663
  748MOL0     C98640   5.359  -0.238   0.138  0.7215 -0.3510 -0.5288
  748MOL0     C98641   5.406  -0.381   0.178  0.2922  0.0584  1.1828
  748MOL0     C98642   5.299  -0.490   0.178  0.2915  0.0973  0.3230
  748MOL0     C98643   5.364  -0.622   0.232  0.4455  0.5445 -0.9384
  748MOL0     C98644   5.276  -0.749   0.215 -0.1190  0.2044 -0.0380
  748MOL0     C98645   5.160  -0.761   0.314 -0.4976 -0.7422 -0.6720
  748MOL0     C98646   5.062  -0.877   0.292 -0.5403 -0.3699 -0.2014
  748MOL0     C98647   4.965  -0.883   0.417  0.2927  0.0637  0.3066
  748MOL0    Cl98648   4.856  -0.738   0.426  0.3186 -0.0219  0.0490
  748MOL0     C98649   5.256   0.011   0.055  0.0208 -0.8298  0.3878
  748MOL0     C98650   5.256   0.140   0.001 -0.5860 -0.6802  0.4544
  748MOL0     O98651   5.521   0.303  -0.182 -0.1679  0.4391 -0.4924
  748MOL0     C98652   5.293   0.559  -0.281 -0.5599  0.9208 -0.6920
  748MOL0     C98653   5.297   0.691  -0.320 -0.2989 -0.0753  0.5922
  748MOL0     N98654   5.959   1.064  -0.247  0.4240  0.2263 -0.1110
  748MOL0     N98655   6.063   1.130  -0.300 -0.3353  0.3117  0.3243
  748MOL0     C98656   6.204   0.898   0.295 -0.5131 -0.3134  0.4064
  748MOL0     C98657   6.310   0.826   0.223  0.3969 -0.0017  0.3134
  748MOL0     C98658   6.674   0.597   0.129  0.4443  0.0980 -0.4660
  748MOL0     C98659   6.696   0.459   0.144 -0.7574 -0.7246 -0.4062
  748MOL0     C98660   6.809   0.398   0.085 -0.9801 -0.9023 -0.0494
  748MOL0     C98661   6.885   0.471   0.002 -0.5147  0.1331 -0.9066
  748MOL0     O98662   6.981   0.396  -0.060  0.0919  0.6611 -0.2312
  748MOL0     C98663   6.929   0.306  -0.173  0.1843  0.8636 -0.4199
  748MOL0     C98664   6.886   0.175  -0.113 -0.1547 -1.3894  0.2947
  748MOL0     C98665   6.904   0.061  -0.207 -0.0247  0.5500  0.1168
  748MOL0     C98666   6.878  -0.083  -0.144  0.5574  0.3561 -0.1118
  748MOL0     C98667   6.964  -0.179  -0.202  0.0572 -0.6744  0.2441
  748MOL0     C98668   7.018  -0.275  -0.254 -0.5418  0.1885  0.5937
  748MOL0     C98669   6.857   0.606  -0.038  0.3334  1.1170  0.7708
  748MOL0     C98670   6.756   0.663   0.037  0.3211 -0.1317 -0.8978
  748MOL0     H98671   6.561   1.044   0.270 -0.3354 -1.3966  1.6752
  748MOL0     H98672   6.383   1.181   0.378 -0.8652  1.3644 -2.2963
  748MOL0     H98673   6.239   1.245   0.511 -0.1142  1.1643  0.0319
  748MOL0     H98674   6.061   1.257   0.515  0.2743  2.0738 -1.3342
  748MOL0     H98675   6.271   1.373   0.347 -0.5292  3.2191 -2.1499
  748MOL0     H98676   6.117   1.441   0.382 -1.1578 -0.4273 -0.6499
  748MOL0     H98677   6.024   1.298   0.213  0.2657  1.7236 -1.5389
  748MOL0     H98678   6.190   1.212   0.192  0.2443 -0.6672  0.2902
  748MOL0     H98679   6.159   1.506   0.140  0.5819 -0.9147  1.6912
  748MOL0     H98680   6.291   1.416   0.079  0.2263  3.1350  3.4201
  748MOL0     H98681   6.028   1.386  -0.033  0.1274  3.1988  4.7951
  748MOL0     H98682   6.152   1.271  -0.073  1.1732 -0.0472 -0.2265
  748MOL0     H98683   6.295   1.438  -0.165 -0.6978 -2.0459 -0.9381
  748MOL0     H98684   6.204   1.565  -0.079  1.2917 -0.3374 -0.7823
  748MOL0     H98685   6.009   1.511  -0.251 -0.1525  0.0790 -0.6001
  748MOL0     H98686   6.164   1.571  -0.318  2.4678 -1.4269  0.7929
  748MOL0     H98687   6.218   1.316  -0.366 -2.3051 -3.9586  0.9752
  748MOL0     H98688   6.095   1.396  -0.465 -2.8133  2.5299  0.8364
  748MOL0     H98689   5.833   1.363  -0.271  2.1080  2.6163 -1.5916
  748MOL0     H98690   5.668   1.201  -0.124 -2.0010 -0.5838  0.0317
  748MOL0     H98691   5.740   1.037  -0.102  0.5006  0.3720 -0.4374
  748MOL0     H98692   5.665   0.972  -0.329  0.6339 -0.8646  1.9159
  748MOL0     H98693   5.596   1.135  -0.358 -2.2217 -0.9182 -0.7158
  748MOL0     H98694   5.509   0.938  -0.159  0.5875 -1.6814 -1.8546
  748MOL0     H98695   5.452   1.100  -0.160  1.0301  1.5503 -0.5717
  748MOL0     H98696   5.368   1.062  -0.407 -1.5086 -0.2926  0.0986
  748MOL0     H98697   5.293   0.963  -0.278 -1.4953  1.7852  0.4206
  748MOL0     H98698   5.632   0.732  -0.375 -0.5710  1.1706 -0.2924
  748MOL0     H98699   5.631   0.505  -0.305 -0.0171  1.1740 -4.3908
  748MOL0     H98700   5.337   0.079  -0.328  2.8326 -1.5091  0.1968
  748MOL0     H98701   5.347  -0.158  -0.226 -1.1771 -4.1967  4.1857
  748MOL0     H98702   5.273  -0.221   0.203 -0.3692 -2.1541 -1.4215
  748MOL0     H98703   5.440  -0.167   0.158  2.1678 -2.0384 -0.1017
  748MOL0     H98704   5.440  -0.383   0.282  2.0588 -2.3160  0.6371
  748MOL0     H98705   5.480  -0.409   0.103 -1.1541  3.4534 -1.8086
  748MOL0     H98706   5.261  -0.499   0.076  1.1794  1.5881 -0.1737
  748MOL0     H98707   5.219  -0.464   0.248  0.8131 -3.3708  2.4027
  748MOL0     H98708   5.442  -0.653   0.162  0.8735 -0.5687  0.0019
  748MOL0     H98709   5.393  -0.617   0.337  0.8300 -0.3600 -0.9923
  748MOL0     H98710   5.343  -0.835   0.224 -1.0037 -0.3305  2.1361
  748MOL0     H98711   5.232  -0.741   0.115 -1.9166  0.7670  0.7452
  748MOL0     H98712   5.099  -0.670   0.318  0.1189 -0.2609 -1.7413
  748MOL0     H98713   5.204  -0.781   0.412 -1.5044  0.4334  0.0520
  748MOL0     H98714   5.007  -0.866   0.198 -0.9171 -1.1066 -0.0756
  748MOL0     H98715   5.120  -0.970   0.288 -1.4003 -0.8950 -0.8320
  748MOL0     H98716   5.019  -0.898   0.510  3.0646 -1.4785 -1.4257
  748MOL0     H98717   4.901  -0.971   0.418 -2.3266  1.7753 -1.4220
  748MOL0     H98718   5.228  -0.008   0.159  1.7192 -1.0683  0.8232
  748MOL0     H98719   5.245   0.234   0.054 -0.7605 -1.3341  1.6135
  748MOL0     H98720   5.193   0.519  -0.271 -0.1459  0.1764  0.6852
  748MOL0     H98721   5.208   0.751  -0.336 -0.0696  0.1999  0.3523
  748MOL0     H98722   6.102   0.861   0.298 -0.5878 -0.0721  1.6731
  748MOL0     H98723   6.294   0.727   0.182  1.8855 -1.5740  3.1945
  748MOL0     H98724   6.638   0.387   0.202 -1.4874 -0.7152 -1.1127
  748MOL0     H98725   6.829   0.295   0.110 -3.7773 -1.4497  0.3051
  748MOL0     H98726   6.998   0.304  -0.258 -1.1914  3.4550 -1.7537
  748MOL0     H98727   6.839   0.350  -0.217 -1.3872 -1.3090  0.4549
  748MOL0     H98728   6.936   0.164  -0.016  0.1814  1.2877  0.5038
  748MOL0     H98729   6.779   0.191  -0.099 -0.1679  0.3458 -1.3410
  748MOL0     H98730   7.008   0.064  -0.240 -0.0755 -0.0977 -0.1204
  748MOL0     H98731   6.831   0.082  -0.286 -0.3282  1.9820  0.7349
  748MOL0     H98732   6.913  -0.071  -0.041  3.6016 -0.0765 -0.9959
  748MOL0     H98733   6.776  -0.122  -0.147  1.7139 -2.8734 -1.8470
  748MOL0     H98734   7.067  -0.365  -0.284 -1.7473 -0.6001  0.9157
  748MOL0     H98735   6.917   0.650  -0.118 -0.5509 -1.8788 -1.7559
  748MOL0     H98736   6.739   0.767   0.012 -1.3181 -0.2375 -0.3189
  749MOL0     O98737   1.123   6.246   5.471 -0.0623 -0.3651 -0.1915
  749MOL0     C98738   1.232   6.281   5.518 -0.2118 -0.6223  0.2867
  749MOL0     O98739   1.253   6.347   5.643  0.5498 -0.4133 -0.0484
  749MOL0     C98740   1.151   6.366   5.740  0.0932 -0.1039  0.4847
  749MOL0     C98741   1.016   6.324   5.741 -0.8466 -0.1472  0.3272
  749MOL0     C98742   0.935   6.343   5.851 -0.1836 -0.5967  0.1209
  749MOL0     C98743   0.981   6.412   5.965  0.9100 -0.5003  0.2991
  749MOL0     O98744   0.899   6.446   6.074  0.3650  0.3162  0.6894
  749MOL0     C98745   0.939   6.546   6.174  0.2353 -0.6176 -0.4505
  749MOL0     C98746   0.810   6.595   6.250  0.7478  0.0699 -0.5789
  749MOL0     C98747   0.839   6.695   6.363 -0.0226  0.5667 -0.6431
  749MOL0     C98748   0.721   6.682   6.472  0.5565 -0.0796 -0.5262
  749MOL0     C98749   0.754   6.773   6.585 -0.5334  0.1376 -0.5848
  749MOL0     C98750   0.660   6.768   6.713  0.5779 -0.0071  0.2384
  749MOL0     C98751   0.511   6.792   6.692  0.9931  0.0585  0.0118
  749MOL0     C98752   0.430   6.800   6.831  0.2914  1.0425 -0.0039
  749MOL0     N98753   0.481   6.900   6.923 -0.2306 -0.3697  0.2928
  749MOL0     C98754   0.501   6.897   7.064 -0.0660  1.1499 -0.1081
  749MOL0     C98755   0.561   7.009   7.094 -0.5888  0.0704 -0.1370
  749MOL0     C98756   0.614   7.053   7.230  0.2598 -0.4039 -1.3521
  749MOL0     C98757   0.500   7.103   7.320  0.1929 -0.1005 -1.0568
  749MOL0     C98758   0.432   7.228   7.245  0.4506 -0.0972  0.3949
  749MOL0     C98759   0.355   7.330   7.331 -0.5010  0.0346 -0.3089
  749MOL0     O98760   0.307   7.445   7.264  0.2608  0.7484 -0.3152
  749MOL0     C98761   0.248   7.545   7.327 -0.2344  0.1618  1.0704
  749MOL0     C98762   0.214   7.549   7.463 -0.9402  0.1398  0.2688
  749MOL0     C98763   0.156   7.665   7.510  0.7420 -0.7277 -0.7105
  749MOL0     C98764   0.125   7.781   7.432 -0.4882 -0.2424  0.9935
  749MOL0     C98765   0.065   7.900   7.500  0.1387 -0.1829 -0.2378
  749MOL0     O98766   0.044   7.898   7.629 -0.3229  1.2817 -0.4081
  749MOL0     C98767  -0.039   7.986   7.704 -0.2811  0.1347 -0.0394
  749MOL0     C98768  -0.045   8.126   7.680  0.5739  1.0925  0.8195
  749MOL0     C98769  -0.136   8.199   7.760  0.3085 -0.0168  0.6897
  749MOL0     C98770  -0.216   8.143   7.856 -0.2888 -0.0444 -0.4210
  749MOL0     O98771  -0.304   8.218   7.937 -0.6278 -0.3568 -0.0771
  749MOL0     C98772  -0.306   8.360   7.934 -0.7128 -0.0994 -0.0696
  749MOL0     C98773  -0.374   8.418   8.060  0.7713 -0.2613  0.8416
  749MOL0     C98774  -0.316   8.375   8.197  0.4653 -0.3762 -0.2293
  749MOL0     C98775  -0.397   8.444   8.311 -0.1511 -0.6361  0.0335
  749MOL0     C98776  -0.359   8.598   8.322  0.2628 -0.0961  0.1202
  749MOL0     C98777  -0.442   8.670   8.433 -0.1547 -0.6769  1.2054
  749MOL0     C98778  -0.397   8.823   8.476  0.3677  0.0082  0.1494
  749MOL0     C98779  -0.507   8.907   8.545  0.5793  0.0143  0.2765
  749MOL0    Cl98780  -0.517   8.837   8.708 -0.0684  0.0453 -0.4860
  749MOL0     C98781  -0.212   8.006   7.867 -0.5947  0.1837 -0.0757
  749MOL0     C98782  -0.123   7.925   7.794  0.0960  0.0904 -0.8331
  749MOL0     O98783   0.039   7.993   7.427 -0.5890 -0.5408 -0.4359
  749MOL0     C98784   0.153   7.778   7.286 -0.8770  0.8150 -0.6530
  749MOL0     C98785   0.215   7.657   7.241  0.6995  0.2074  0.2080
  749MOL0     N98786   0.580   7.084   6.976 -0.1811 -0.3782 -0.1092
  749MOL0     N98787   0.534   7.021   6.879  0.0544 -0.4978  0.1021
  749MOL0     C98788   1.119   6.436   5.969  0.3412  0.4875  0.6471
  749MOL0     C98789   1.201   6.409   5.861  0.2005 -0.0106 -0.6085
  749MOL0     C98790   1.356   6.229   5.457 -0.2436 -0.9290  0.5729
  749MOL0     C98791   1.352   6.147   5.347 -0.4956  0.2451 -0.3012
  749MOL0     C98792   1.466   6.077   5.301  0.3582  0.7343  0.1782
  749MOL0     C98793   1.599   6.100   5.359  0.3900 -0.5629  0.0530
  749MOL0     O98794   1.714   6.054   5.307  0.5345 -0.3809  0.2118
  749MOL0     C98795   1.830   6.057   5.385  0.6958  0.8337 -0.3719
  749MOL0     C98796   1.936   5.964   5.316  0.2341 -0.4301  0.1911
  749MOL0     C98797   2.061   5.982   5.393 -0.1952  0.0248 -0.3059
  749MOL0     C98798   2.189   5.961   5.304  0.8180 -0.3228 -0.0518
  749MOL0     C98799   2.213   6.091   5.234 -0.3710 -0.1016  0.2749
  749MOL0     C98800   2.250   6.197   5.188  0.4898 -0.6370  0.3836
  749MOL0     C98801   1.596   6.177   5.477 -0.2272  0.8019  0.2960
  749MOL0     C98802   1.479   6.244   5.518 -0.2197 -1.0720  0.1960
  749MOL0     H98803   0.986   6.277   5.647  0.0279  2.2584 -1.2422
  749MOL0     H98804   0.832   6.313   5.833 -1.6119  3.2690  1.0511
  749MOL0     H98805   0.982   6.633   6.124 -3.0114  2.0344  0.9900
  749MOL0     H98806   1.006   6.498   6.246  0.5879  1.6043  0.7901
  749MOL0     H98807   0.761   6.502   6.279  2.9737 -1.4056 -1.2290
  749MOL0     H98808   0.745   6.654   6.185  0.7682  0.3931 -0.3103
  749MOL0     H98809   0.832   6.793   6.315 -1.4967 -0.9946 -3.9084
  749MOL0     H98810   0.935   6.674   6.410 -0.4149 -1.4545 -0.6611
  749MOL0     H98811   0.628   6.724   6.431 -0.1942  1.2742  2.2981
  749MOL0     H98812   0.702   6.576   6.492  0.9146 -0.2308 -0.9864
  749MOL0     H98813   0.755   6.873   6.541 -4.0217  0.9401  0.7976
  749MOL0     H98814   0.855   6.750   6.621  0.6411  0.2571 -3.5010
  749MOL0     H98815   0.691   6.851   6.777 -1.1493  1.0111 -0.1706
  749MOL0     H98816   0.680   6.668   6.752  3.2306  0.6474  0.7308
  749MOL0     H98817   0.493   6.880   6.630 -2.5575  0.5075  1.4360
  749MOL0     H98818   0.467   6.705   6.643 -1.9773  1.2504  0.3414
  749MOL0     H98819   0.449   6.706   6.884  2.7664  1.6132  0.2383
  749MOL0     H98820   0.323   6.811   6.809 -0.4387  1.0947  2.9867
  749MOL0     H98821   0.465   6.816   7.127  2.2723  1.8547  2.2655
  749MOL0     H98822   0.689   7.131   7.217 -2.6772  3.1629  1.0985
  749MOL0     H98823   0.656   6.975   7.294  0.6018  1.9099  1.4540
  749MOL0     H98824   0.558   7.132   7.408  0.4948  0.2272 -1.3616
  749MOL0     H98825   0.427   7.029   7.352  0.5873  0.8401  2.4443
  749MOL0     H98826   0.509   7.285   7.192  1.5982 -1.4191  0.5856
  749MOL0     H98827   0.360   7.185   7.174  1.9920 -0.0125 -1.2954
  749MOL0     H98828   0.426   7.350   7.411 -2.2529  0.5259  1.1960
  749MOL0     H98829   0.270   7.282   7.381 -0.3206  0.9560  0.9234
  749MOL0     H98830   0.250   7.469   7.527  0.6250 -0.7738 -1.6558
  749MOL0     H98831   0.136   7.673   7.616  2.7533 -0.0452 -0.3409
  749MOL0     H98832   0.020   8.167   7.604  1.0427 -0.6731  0.2212
  749MOL0     H98833  -0.144   8.306   7.746 -1.6318 -0.3765 -1.6842
  749MOL0     H98834  -0.361   8.398   7.847  0.2064  0.5744 -0.3743
  749MOL0     H98835  -0.205   8.401   7.928 -0.1144 -1.1435  2.0271
  749MOL0     H98836  -0.475   8.376   8.049  0.2871  0.2864  2.8189
  749MOL0     H98837  -0.379   8.527   8.050 -1.7582 -0.3438  0.4372
  749MOL0     H98838  -0.211   8.404   8.200  1.1074 -2.5616  0.1848
  749MOL0     H98839  -0.320   8.267   8.216  1.3413 -1.0461 -3.2295
  749MOL0     H98840  -0.505   8.435   8.299 -0.2191  1.5237 -1.6964
  749MOL0     H98841  -0.364   8.401   8.406  1.6878  1.0602  0.2274
  749MOL0     H98842  -0.373   8.659   8.232  0.6543 -0.8822 -0.4845
  749MOL0     H98843  -0.257   8.584   8.360  0.1848 -4.0934 -0.6721
  749MOL0     H98844  -0.449   8.598   8.514 -0.5953 -0.9288  0.9468
  749MOL0     H98845  -0.540   8.684   8.387  0.2599  0.4916  0.6368
  749MOL0     H98846  -0.309   8.822   8.540  1.1401  1.3259 -0.8486
  749MOL0     H98847  -0.389   8.874   8.380 -3.4826 -0.9175 -0.8280
  749MOL0     H98848  -0.591   8.881   8.480  0.8238 -1.7409  0.5993
  749MOL0     H98849  -0.493   9.015   8.546  1.6927 -0.0921 -1.1294
  749MOL0     H98850  -0.288   7.960   7.930  0.4232  2.5016  3.1143
  749MOL0     H98851  -0.123   7.818   7.813 -0.4186  0.1565 -0.4537
  749MOL0     H98852   0.128   7.863   7.222 -4.1353  0.4845 -0.0328
  749MOL0     H98853   0.244   7.655   7.137 -1.0065  1.1291 -0.3248
  749MOL0     H98854   1.169   6.466   6.060  1.9451 -3.2476  1.1846
  749MOL0     H98855   1.309   6.424   5.861  0.1413  1.0917  2.2503
  749MOL0     H98856   1.260   6.136   5.290  0.2990 -1.2376 -1.3635
  749MOL0     H98857   1.460   6.022   5.208  2.7161  3.3921 -1.7142
  749MOL0     H98858   1.815   6.018   5.486  1.6993  0.0853 -0.4938
  749MOL0     H98859   1.872   6.158   5.395 -0.4699  1.3526 -0.5295
  749MOL0     H98860   1.916   5.857   5.322  1.9611 -0.8416 -0.5827
  749MOL0     H98861   1.943   5.991   5.210 -2.3220  2.9606  0.6953
  749MOL0     H98862   2.064   5.916   5.480 -1.7824  0.6809  0.2800
  749MOL0     H98863   2.071   6.085   5.429 -1.5164 -0.5762  1.9587
  749MOL0     H98864   2.274   5.948   5.372  2.4425  1.7246 -1.5596
  749MOL0     H98865   2.170   5.877   5.236  0.3908  0.8946 -1.4884
  749MOL0     H98866   2.294   6.288   5.154  1.4034 -1.4197 -0.6188
  749MOL0     H98867   1.690   6.192   5.529  1.3706 -1.0188 -1.8747
  749MOL0     H98868   1.481   6.309   5.605  0.7001  2.8480 -2.4868
  750MOL0     O98869   9.059   3.987   7.853 -0.2815  0.3442 -0.6860
  750MOL0     C98870   9.058   3.910   7.752  0.3176 -1.1068 -0.3020
  750MOL0     O98871   9.146   3.804   7.738  0.0034 -0.0608 -0.1002
  750MOL0     C98872   9.208   3.778   7.853 -0.1465 -0.2394  0.6578
  750MOL0     C98873   9.148   3.735   7.968  0.5410  0.3741 -0.6867
  750MOL0     C98874   9.217   3.693   8.082  0.4761 -0.0654  0.1381
  750MOL0     C98875   9.349   3.697   8.093 -0.3117  0.0454  0.0235
  750MOL0     O98876   9.412   3.672   8.213 -0.1088  0.3081  0.3399
  750MOL0     C98877   9.531   3.589   8.213  0.4821  0.3941 -0.4548
  750MOL0     C98878   9.575   3.545   8.349  0.2697 -0.3869 -0.1441
  750MOL0     C98879   9.483   3.444   8.430 -0.0882 -0.1211  0.5130
  750MOL0     C98880   9.555   3.382   8.559  0.0839  0.2757  0.3395
  750MOL0     C98881   9.636   3.480   8.643 -0.2560  0.6630  0.1731
  750MOL0     C98882   9.544   3.591   8.722 -0.0311 -0.2888  0.3998
  750MOL0     C98883   9.610   3.634   8.850  0.1262 -0.6436 -1.0280
  750MOL0     C98884   9.552   3.768   8.902  0.4031  0.1985 -0.3275
  750MOL0     N98885   9.572   3.802   9.047  0.0826 -0.3378 -0.7130
  750MOL0     C98886   9.475   3.820   9.140  0.4707 -0.7563 -0.8220
  750MOL0     C98887   9.543   3.831   9.260 -0.3022 -0.3368 -0.4962
  750MOL0     C98888   9.486   3.844   9.396 -0.6510  0.2343  0.0791
  750MOL0     C98889   9.413   3.979   9.414  0.6801  1.6116  0.3801
  750MOL0     C98890   9.487   4.102   9.458  0.2405 -1.2255 -0.7482
  750MOL0     C98891   9.399   4.190   9.544 -0.1652 -0.5943 -0.1962
  750MOL0     O98892   9.464   4.308   9.576 -0.3239 -1.4899 -0.5518
  750MOL0     C98893   9.463   4.366   9.698  0.2318  0.4618 -0.4282
  750MOL0     C98894   9.398   4.317   9.813  0.0388 -0.6855  0.8678
  750MOL0     C98895   9.389   4.391   9.930 -0.4852  1.1588 -0.6396
  750MOL0     C98896   9.460   4.510   9.953 -0.5088  0.0152  0.5367
  750MOL0     C98897   9.458   4.581  10.079 -0.1145 -0.5390 -0.4963
  750MOL0     O98898   9.499   4.717  10.079 -0.1554 -0.5619 -0.3158
  750MOL0     C98899   9.525   4.784  10.200  0.2174 -0.0652 -0.6127
  750MOL0     C98900   9.515   4.930  10.198 -0.0113  0.0262 -0.2768
  750MOL0     C98901   9.567   5.005  10.306  1.1450  0.5024  0.6107
  750MOL0     C98902   9.629   4.939  10.416 -0.4802 -0.3797  0.5523
  750MOL0     O98903   9.729   5.005  10.497  0.4628 -0.7120 -0.1866
  750MOL0     C98904   9.768   5.142  10.470 -0.0669 -0.1269  0.1292
  750MOL0     C98905   9.862   5.185  10.579  0.2928  0.1089  1.1114
  750MOL0     C98906   9.862   5.329  10.602 -0.4422 -0.1177  0.0915
  750MOL0     C98907   9.971   5.373  10.701  0.0176 -0.0887 -0.2934
  750MOL0     C98908   9.960   5.511  10.750  0.6807 -0.2010 -0.2944
  750MOL0     C98909  10.075   5.516  10.852  0.8243  0.0931  0.6358
  750MOL0     C98910  10.120   5.660  10.896  0.0840 -0.5160  0.2499
  750MOL0     C98911   9.997   5.729  10.970 -0.1653 -0.4544 -0.4955
  750MOL0    Cl98912   9.963   5.665  11.136 -0.2377  0.0821 -0.0515
  750MOL0     C98913   9.614   4.801  10.430 -0.4251 -0.3998  0.4974
  750MOL0     C98914   9.568   4.724  10.327 -0.5727 -0.9307  0.7096
  750MOL0     O98915   9.431   4.523  10.179  0.2536  0.4136 -0.6184
  750MOL0     C98916   9.527   4.560   9.834 -0.9222  0.3944 -0.0891
  750MOL0     C98917   9.525   4.493   9.712  1.2395 -0.5574  0.9542
  750MOL0     N98918   9.679   3.817   9.232 -0.0649  0.0621 -0.1022
  750MOL0     N98919   9.691   3.801   9.104 -1.5615  0.2065  0.7506
  750MOL0     C98920   9.416   3.743   7.985 -0.2453  0.0493 -1.1023
  750MOL0     C98921   9.350   3.792   7.868 -0.6306  0.6796 -0.2193
  750MOL0     C98922   8.952   3.942   7.658  1.5072  0.8208  0.4344
  750MOL0     C98923   8.885   4.067   7.660 -0.0351  1.4691  0.3542
  750MOL0     C98924   8.792   4.096   7.564  0.7708 -1.3288 -0.0102
  750MOL0     C98925   8.751   4.008   7.476 -0.7698  0.3645  0.1263
  750MOL0     O98926   8.640   4.054   7.406  0.0420  0.0226  0.7202
  750MOL0     C98927   8.558   3.949   7.354  0.4006  1.3580  0.5805
  750MOL0     C98928   8.433   3.992   7.278  0.0312  0.2366 -0.1211
  750MOL0     C98929   8.333   3.885   7.289  0.5347  0.5088 -0.1588
  750MOL0     C98930   8.203   3.913   7.205  0.0184 -0.0881 -0.1424
  750MOL0     C98931   8.105   4.000   7.273 -0.2830  0.0560 -0.0968
  750MOL0     C98932   8.037   4.055   7.362 -0.1811 -0.0377  0.4838
  750MOL0     C98933   8.810   3.882   7.469  0.2169  0.2723  0.5973
  750MOL0     C98934   8.916   3.849   7.555  0.2258 -0.0720  0.1755
  750MOL0     H98935   9.040   3.728   7.980  0.4086  1.1644 -1.3065
  750MOL0     H98936   9.159   3.658   8.166 -1.6302  3.3016  0.2697
  750MOL0     H98937   9.622   3.639   8.177  0.0644  0.9556 -0.7492
  750MOL0     H98938   9.524   3.503   8.146  3.1467 -1.2700  1.2242
  750MOL0     H98939   9.584   3.636   8.409 -1.0745 -1.3349  1.5791
  750MOL0     H98940   9.675   3.500   8.341 -0.3000 -2.1831  1.7658
  750MOL0     H98941   9.460   3.369   8.354  0.7157  0.0904  0.0525
  750MOL0     H98942   9.392   3.497   8.460 -0.5847 -0.0738 -0.9951
  750MOL0     H98943   9.484   3.339   8.629 -0.3944 -1.8236 -1.3215
  750MOL0     H98944   9.627   3.308   8.522  3.3359  1.7300  3.2628
  750MOL0     H98945   9.713   3.530   8.584  0.8364 -0.7860  0.3175
  750MOL0     H98946   9.682   3.414   8.718 -2.7656 -0.8653  0.4716
  750MOL0     H98947   9.450   3.539   8.745  1.5173 -3.0488  0.8856
  750MOL0     H98948   9.518   3.674   8.655 -1.0021 -1.2727 -0.4893
  750MOL0     H98949   9.598   3.563   8.932  0.7192  2.0920  1.6006
  750MOL0     H98950   9.719   3.646   8.850  0.3571 -1.3995  2.8923
  750MOL0     H98951   9.448   3.753   8.873  0.5123  2.4725 -2.1576
  750MOL0     H98952   9.586   3.853   8.842 -1.1885  0.5208 -0.8015
  750MOL0     H98953   9.368   3.818   9.119  0.0369 -1.5601  1.2779
  750MOL0     H98954   9.565   3.849   9.471 -0.7329 -0.3548  0.2102
  750MOL0     H98955   9.416   3.765   9.425  1.9829 -2.4655 -0.4261
  750MOL0     H98956   9.343   3.956   9.495  0.0668 -1.4865 -0.8899
  750MOL0     H98957   9.353   3.992   9.324  2.0619  0.0736 -0.8273
  750MOL0     H98958   9.569   4.069   9.523 -1.4626 -1.3630  1.4818
  750MOL0     H98959   9.522   4.159   9.372 -2.8599 -0.5872 -1.7080
  750MOL0     H98960   9.371   4.140   9.637  1.1186 -0.7414  0.1389
  750MOL0     H98961   9.311   4.206   9.481 -0.9908  0.8837  1.2670
  750MOL0     H98962   9.357   4.216   9.815  1.9722 -1.5267  0.1799
  750MOL0     H98963   9.351   4.334  10.015  2.8038  1.0051  0.8726
  750MOL0     H98964   9.476   4.977  10.108 -3.4794 -2.1548 -0.0689
  750MOL0     H98965   9.585   5.112  10.295  0.7881  0.5676  0.6466
  750MOL0     H98966   9.673   5.196  10.466 -1.2495 -1.9030  2.2210
  750MOL0     H98967   9.808   5.157  10.369  0.2542  1.2600  0.4413
  750MOL0     H98968   9.964   5.146  10.570  0.6100  1.0712  0.3342
  750MOL0     H98969   9.822   5.145  10.672  1.4375  0.7587  1.9022
  750MOL0     H98970   9.768   5.376  10.633 -0.8278 -0.5655 -0.3772
  750MOL0     H98971   9.875   5.375  10.504 -2.6462  0.5877  0.0527
  750MOL0     H98972   9.962   5.302  10.784  2.5711 -0.5337 -0.3184
  750MOL0     H98973  10.062   5.369  10.640 -0.4550 -0.3748 -0.9888
  750MOL0     H98974   9.875   5.541  10.812  3.3351  1.2001  3.0073
  750MOL0     H98975   9.990   5.575  10.667  0.9461  0.4077  0.2632
  750MOL0     H98976  10.165   5.487  10.797 -0.3133 -0.4256 -1.0192
  750MOL0     H98977  10.058   5.449  10.937  1.9504 -1.0025  0.0184
  750MOL0     H98978  10.195   5.656  10.977  0.2054 -0.9073  0.1202
  750MOL0     H98979  10.156   5.719  10.811 -0.9690 -0.0026  0.1514
  750MOL0     H98980   9.905   5.733  10.912 -0.6145 -2.7049 -0.0267
  750MOL0     H98981  10.037   5.830  10.986  0.5913 -0.6392 -1.1858
  750MOL0     H98982   9.659   4.758  10.518 -1.5014  3.3487  3.0993
  750MOL0     H98983   9.564   4.616  10.334  1.3452 -1.1370 -0.5879
  750MOL0     H98984   9.567   4.661   9.832  0.5808 -0.1573 -3.1634
  750MOL0     H98985   9.567   4.538   9.623 -3.2905  2.1624 -0.1290
  750MOL0     H98986   9.519   3.758   8.015 -0.4917 -1.1119  0.4751
  750MOL0     H98987   9.415   3.831   7.790 -2.3037  1.9547 -1.0569
  750MOL0     H98988   8.920   4.139   7.734  1.9252 -0.0842  1.0246
  750MOL0     H98989   8.743   4.192   7.570 -0.0750 -1.8324  1.4759
  750MOL0     H98990   8.528   3.885   7.437 -1.4041  3.6109  1.7746
  750MOL0     H98991   8.623   3.893   7.287 -0.2492 -2.6629  2.9546
  750MOL0     H98992   8.382   4.079   7.321 -3.0423 -2.1558  1.3764
  750MOL0     H98993   8.461   4.009   7.173  2.4171 -0.9822  0.2457
  750MOL0     H98994   8.315   3.858   7.394  1.9838 -1.3182 -0.3289
  750MOL0     H98995   8.377   3.796   7.244 -0.5559 -1.1686  1.9341
  750MOL0     H98996   8.227   3.972   7.117  0.5320  0.7915  0.5682
  750MOL0     H98997   8.159   3.823   7.161  0.8744 -0.7701  0.3589
  750MOL0     H98998   8.004   4.135   7.425 -0.2936  1.6722 -1.6494
  750MOL0     H98999   8.775   3.807   7.398  0.7313  1.0831 -0.5580
  750MOL0     H99000   8.960   3.751   7.538 -3.1927 -1.4821 -1.5290
  751MOL0     O99001   4.409   3.354  11.168 -0.7437  0.8664  0.2511
  751MOL0     C99002   4.501   3.437  11.169 -0.2324 -0.1301 -0.3457
  751MOL0     O99003   4.548   3.492  11.277  0.7327 -0.3590  0.8529
  751MOL0     C99004   4.525   3.441  11.406  1.1047 -0.5844  0.0528
  751MOL0     C99005   4.436   3.501  11.494  0.3566 -0.0457 -0.0349
  751MOL0     C99006   4.400   3.441  11.611  0.3825  0.7305 -0.5795
  751MOL0     C99007   4.459   3.312  11.647  0.4124 -0.2247  0.5485
  751MOL0     O99008   4.419   3.260  11.765  0.0919 -0.9009  0.7018
  751MOL0     C99009   4.467   3.330  11.884  0.0239  0.5758 -0.4616
  751MOL0     C99010   4.443   3.245  12.014  0.0085 -0.2771  0.4771
  751MOL0     C99011   4.298   3.190  12.013  0.0166 -0.9787  0.6194
  751MOL0     C99012   4.267   3.122  12.141 -0.4847 -0.5066 -0.0649
  751MOL0     C99013   4.119   3.076  12.151 -0.0576  0.2011 -0.6865
  751MOL0     C99014   4.097   2.943  12.071  0.4195 -0.1963  0.4845
  751MOL0     C99015   3.951   2.883  12.077 -0.5268 -0.3221  0.4571
  751MOL0     C99016   3.936   2.744  12.021  0.1908 -0.8419 -0.1188
  751MOL0     N99017   4.012   2.715  11.900  0.3503 -0.3105  0.1843
  751MOL0     C99018   4.134   2.657  11.888  0.5769 -0.0857 -1.5105
  751MOL0     C99019   4.175   2.654  11.763  0.1383 -0.7265  0.9477
  751MOL0     C99020   4.301   2.600  11.698  0.4738 -0.2622 -0.2395
  751MOL0     C99021   4.275   2.511  11.562 -0.1969  0.5151  0.1928
  751MOL0     C99022   4.195   2.372  11.583  0.6019  0.0758 -0.0662
  751MOL0     C99023   4.230   2.285  11.706  0.0932 -0.4753  0.4930
  751MOL0     O99024   4.155   2.344  11.821  0.8359 -0.2017  0.1871
  751MOL0     C99025   4.168   2.306  11.954 -0.0157 -0.6672 -0.2634
  751MOL0     C99026   4.079   2.347  12.053  0.0508  0.3355 -0.2830
  751MOL0     C99027   4.085   2.297  12.183  0.4102  0.5514  0.0552
  751MOL0     C99028   4.186   2.205  12.223  1.6023 -0.1953 -0.5611
  751MOL0     C99029   4.199   2.178  12.371 -0.5293 -0.4468 -0.2613
  751MOL0     O99030   4.305   2.096  12.406  0.2717 -0.5531 -0.2896
  751MOL0     C99031   4.323   2.025  12.524  0.1225 -0.1810  0.1056
  751MOL0     C99032   4.231   1.994  12.619 -0.0120  0.0855 -0.9701
  751MOL0     C99033   4.260   1.923  12.737  0.7592  0.0101 -0.3484
  751MOL0     C99034   4.392   1.877  12.754  0.6159 -0.9543 -1.3178
  751MOL0     O99035   4.420   1.802  12.870  0.7310 -0.2868  0.5075
  751MOL0     C99036   4.558   1.802  12.900  0.4680 -0.7941  0.6085
  751MOL0     C99037   4.554   1.766  13.051  0.4252  0.1449 -0.8449
  751MOL0     C99038   4.660   1.853  13.127  0.0748 -0.6093  0.2766
  751MOL0     C99039   4.589   1.989  13.167 -0.1492 -0.5234  0.0279
  751MOL0     C99040   4.688   2.094  13.191  0.6463 -0.6320  0.1055
  751MOL0     C99041   4.804   2.045  13.288  0.0983  0.2453  0.4328
  751MOL0     C99042   4.892   2.158  13.339 -0.5254 -0.0166  0.5214
  751MOL0     C99043   5.021   2.098  13.403  0.0491  0.3255 -0.1136
  751MOL0    Cl99044   5.093   2.220  13.501  0.0371  0.0020 -0.3076
  751MOL0     C99045   4.480   1.894  12.650 -0.6149 -0.7171  0.0026
  751MOL0     C99046   4.457   1.975  12.544  0.1430  0.0618  0.1369
  751MOL0     O99047   4.118   2.229  12.444 -0.0130  1.3078  0.5809
  751MOL0     C99048   4.280   2.159  12.127 -0.2215  0.0148  0.5419
  751MOL0     C99049   4.262   2.207  11.995 -0.3340  0.5352 -1.4416
  751MOL0     N99050   4.083   2.717  11.690  0.6608 -0.2306  0.7125
  751MOL0     N99051   3.983   2.754  11.770  0.0619  0.7397 -0.2822
  751MOL0     C99052   4.556   3.255  11.558 -0.3873  0.0207  0.0707
  751MOL0     C99053   4.592   3.323  11.449 -0.7387 -0.6471  0.7224
  751MOL0     C99054   4.552   3.489  11.041 -0.8930 -0.2463  0.4840
  751MOL0     C99055   4.508   3.446  10.911  0.4089 -0.6242 -0.2664
  751MOL0     C99056   4.551   3.488  10.790 -1.1166 -0.2634 -0.3961
  751MOL0     C99057   4.629   3.611  10.791  0.7166 -0.6942  0.3328
  751MOL0     O99058   4.683   3.678  10.687 -0.8472  0.0479  0.2551
  751MOL0     C99059   4.663   3.613  10.562  0.5913  1.1240 -0.3637
  751MOL0     C99060   4.730   3.678  10.439 -0.0053 -0.3173  0.4245
  751MOL0     C99061   4.691   3.622  10.304  0.0553 -0.4961  1.1577
  751MOL0     C99062   4.759   3.682  10.176 -0.1658 -0.3844  0.0801
  751MOL0     C99063   4.722   3.612  10.048 -0.3999 -0.9183 -0.1209
  751MOL0     C99064   4.724   3.571   9.931 -0.0286 -0.6595  0.3822
  751MOL0     C99065   4.680   3.656  10.915 -0.8843  0.3336  0.7686
  751MOL0     C99066   4.654   3.590  11.036 -0.5698  0.0556  0.2821
  751MOL0     H99067   4.378   3.585  11.457 -0.9900 -2.2898 -3.5175
  751MOL0     H99068   4.330   3.495  11.675 -0.4954 -1.4352  0.3909
  751MOL0     H99069   4.419   3.427  11.898 -0.5059  0.3561 -0.7082
  751MOL0     H99070   4.572   3.354  11.867 -0.7931  5.0596 -0.2365
  751MOL0     H99071   4.457   3.307  12.103 -0.8865 -0.4193  0.7275
  751MOL0     H99072   4.502   3.155  12.033 -2.9993 -1.6982  4.5507
  751MOL0     H99073   4.273   3.127  11.927  0.4286  1.9555 -1.8198
  751MOL0     H99074   4.232   3.276  12.022  0.6312 -0.0990 -2.3413
  751MOL0     H99075   4.328   3.031  12.145  1.8889  1.0481  1.0580
  751MOL0     H99076   4.285   3.186  12.227  2.5880 -1.1883 -0.0547
  751MOL0     H99077   4.054   3.158  12.120  0.0087 -0.2762 -2.1762
  751MOL0     H99078   4.095   3.068  12.258 -1.8606 -0.7404 -1.1217
  751MOL0     H99079   4.148   2.859  12.120 -4.8140 -3.0018  1.9734
  751MOL0     H99080   4.138   2.963  11.972  2.7142 -0.7611  1.2449
  751MOL0     H99081   3.938   2.901  12.185  4.2486  6.4840  0.5711
  751MOL0     H99082   3.883   2.952  12.027 -0.3459 -2.1536 -2.5543
  751MOL0     H99083   3.835   2.707  12.000  0.6024 -2.0891  0.0058
  751MOL0     H99084   3.976   2.670  12.092 -0.2818 -0.1929  0.8415
  751MOL0     H99085   4.187   2.622  11.975  1.1840  2.7443 -0.6451
  751MOL0     H99086   4.358   2.537  11.766  2.1571  0.0708 -1.2913
  751MOL0     H99087   4.358   2.687  11.665  0.3659  0.3836  1.1880
  751MOL0     H99088   4.368   2.489  11.509  0.2996 -0.4568  1.4215
  751MOL0     H99089   4.222   2.572  11.488 -1.0070  1.9006  1.8388
  751MOL0     H99090   4.089   2.397  11.589  0.3571 -0.8046 -0.5238
  751MOL0     H99091   4.203   2.317  11.488 -0.0011 -0.7358  0.3370
  751MOL0     H99092   4.339   2.282  11.715 -0.0036  1.0312  3.0836
  751MOL0     H99093   4.192   2.185  11.687 -2.1927  0.8376 -2.6436
  751MOL0     H99094   3.988   2.400  12.029 -0.3509 -0.2060  0.0178
  751MOL0     H99095   4.014   2.321  12.262 -1.0766 -1.4099 -0.6354
  751MOL0     H99096   4.129   2.031  12.616  0.2102  1.1555  1.9546
  751MOL0     H99097   4.185   1.895  12.811  3.6190 -0.6759  2.4985
  751MOL0     H99098   4.591   1.906  12.888  1.5694 -1.1462  0.4326
  751MOL0     H99099   4.613   1.734  12.834  0.3015 -1.7829  1.4650
  751MOL0     H99100   4.578   1.661  13.068  2.6004  0.6462 -0.5018
  751MOL0     H99101   4.458   1.793  13.097  0.6557 -2.4190  1.3715
  751MOL0     H99102   4.742   1.883  13.060  0.1690  2.5992  1.6370
  751MOL0     H99103   4.705   1.799  13.211  0.8224  1.2915  1.1527
  751MOL0     H99104   4.522   2.023  13.088 -1.2745  0.3785  1.3110
  751MOL0     H99105   4.525   1.975  13.256 -0.0566  0.0223  0.1856
  751MOL0     H99106   4.650   2.192  13.220  4.4038  1.5251 -1.5234
  751MOL0     H99107   4.731   2.122  13.094 -0.0693 -0.2424 -0.1075
  751MOL0     H99108   4.874   1.982  13.232 -0.0444 -0.1774  0.7317
  751MOL0     H99109   4.766   1.984  13.370  2.3806 -1.1972  0.5213
  751MOL0     H99110   4.917   2.228  13.260 -1.1398  1.7318  1.8170
  751MOL0     H99111   4.849   2.215  13.422 -0.5992 -1.3658  1.4560
  751MOL0     H99112   5.101   2.073  13.333 -1.7017 -0.7150 -1.8408
  751MOL0     H99113   4.989   2.009  13.458  0.5083 -1.7229 -2.8781
  751MOL0     H99114   4.586   1.872  12.646  0.0047  2.0204 -1.6835
  751MOL0     H99115   4.535   1.991  12.471 -2.2845 -0.3344 -2.7305
  751MOL0     H99116   4.363   2.091  12.144  1.2681  1.2567 -1.2705
  751MOL0     H99117   4.337   2.177  11.921  0.4202  0.2402 -0.5795
  751MOL0     H99118   4.622   3.183  11.605  1.3425  1.6542  0.2897
  751MOL0     H99119   4.659   3.279  11.375 -1.7971  1.0256 -1.3278
  751MOL0     H99120   4.433   3.368  10.909 -0.6572  0.2982  1.3688
  751MOL0     H99121   4.512   3.452  10.695 -0.3163  1.8967 -1.6087
  751MOL0     H99122   4.559   3.595  10.535  0.3765  1.2885  0.3347
  751MOL0     H99123   4.702   3.512  10.578 -0.2128  1.0546  1.3547
  751MOL0     H99124   4.699   3.783  10.445  1.6976  0.3040 -0.8999
  751MOL0     H99125   4.839   3.670  10.438  0.1161  0.9994  0.9994
  751MOL0     H99126   4.584   3.643  10.299  0.3359  1.1188  1.2372
  751MOL0     H99127   4.717   3.516  10.305  3.0872  0.0372 -2.2824
  751MOL0     H99128   4.753   3.790  10.164  0.3165 -0.0282  2.5786
  751MOL0     H99129   4.867   3.671  10.187 -0.1906  0.3180  1.1550
  751MOL0     H99130   4.760   3.551   9.833 -0.9002 -0.8328  0.0902
  751MOL0     H99131   4.762   3.727  10.920  0.4750 -1.2203  1.6150
  751MOL0     H99132   4.708   3.626  11.123  2.9862 -2.8217 -0.4891
  752MOL0     O99133   4.762   5.013   9.338 -0.1752 -0.3946 -0.1411
  752MOL0     C99134   4.778   5.098   9.429 -0.9051  0.1710 -0.7763
  752MOL0     O99135   4.850   5.208   9.433  0.6680 -0.1851  0.7147
  752MOL0     C99136   4.922   5.251   9.327 -0.6469  0.2718  0.0714
  752MOL0     C99137   5.010   5.164   9.246  0.1042 -0.0029  0.0908
  752MOL0     C99138   5.107   5.228   9.165  0.0073 -1.1503  0.1866
  752MOL0     C99139   5.111   5.370   9.154  0.4761  0.7090 -0.1574
  752MOL0     O99140   5.210   5.423   9.071  1.0470  0.3470  0.1113
  752MOL0     C99141   5.246   5.563   9.059  0.4856  0.0284  0.5916
  752MOL0     C99142   5.336   5.591   8.951 -0.0905  0.7200 -0.3413
  752MOL0     C99143   5.345   5.744   8.925  0.1278  0.8478 -0.5948
  752MOL0     C99144   5.384   5.763   8.781  0.2185  0.4365 -0.3094
  752MOL0     C99145   5.391   5.912   8.745 -0.0178  0.4979 -0.6415
  752MOL0     C99146   5.244   5.954   8.708  1.0527  0.1889 -0.5168
  752MOL0     C99147   5.213   6.097   8.670  0.1821 -0.6198 -1.0795
  752MOL0     C99148   5.258   6.192   8.782  0.2092 -0.2630  0.4206
  752MOL0     N99149   5.211   6.336   8.746 -0.1388 -0.6381 -0.1300
  752MOL0     C99150   5.174   6.442   8.837  0.2449 -0.3481  0.9333
  752MOL0     C99151   5.144   6.548   8.748  0.5832  0.1234  0.0071
  752MOL0     C99152   5.101   6.689   8.786 -1.0225 -0.0364 -0.5938
  752MOL0     C99153   4.943   6.691   8.784 -0.5981  1.2282  0.0389
  752MOL0     C99154   4.887   6.816   8.717 -0.2295 -0.3605 -0.4604
  752MOL0     C99155   4.899   6.803   8.563  0.1471 -0.3376 -0.2561
  752MOL0     O99156   4.872   6.927   8.492 -0.3912  0.0167 -0.0923
  752MOL0     C99157   4.963   7.034   8.480  0.4890  0.0265 -0.7199
  752MOL0     C99158   4.923   7.152   8.419  0.0154  0.2660 -0.3248
  752MOL0     C99159   5.012   7.265   8.415 -0.0158 -0.1392 -0.6003
  752MOL0     C99160   5.136   7.266   8.459 -0.1762  1.1866 -0.5820
  752MOL0     C99161   5.231   7.373   8.459 -1.2954 -1.2465 -0.0778
  752MOL0     O99162   5.349   7.330   8.403  0.3235  0.1369  0.5574
  752MOL0     C99163   5.448   7.427   8.373  0.6158 -0.1820 -0.1610
  752MOL0     C99164   5.417   7.544   8.298  0.8474 -0.1927 -0.7864
  752MOL0     C99165   5.513   7.648   8.293  0.1761 -0.5810 -0.0571
  752MOL0     C99166   5.635   7.642   8.368 -0.3088 -0.4199  0.3384
  752MOL0     O99167   5.730   7.745   8.360  0.2929 -0.3009 -0.2977
  752MOL0     C99168   5.786   7.746   8.226 -0.5265  0.4574  0.6193
  752MOL0     C99169   5.867   7.877   8.210 -0.6963 -0.3605  0.0392
  752MOL0     C99170   5.773   7.995   8.244  0.5991  0.6773 -0.1115
  752MOL0     C99171   5.851   8.120   8.194  0.0204 -0.5307 -0.2215
  752MOL0     C99172   5.761   8.243   8.196 -0.6463 -0.3623  0.6396
  752MOL0     C99173   5.742   8.282   8.349  0.0466 -0.7545 -0.9378
  752MOL0     C99174   5.869   8.345   8.415  2.0045  0.0188 -0.4693
  752MOL0     C99175   5.876   8.292   8.548  0.0534 -0.4116  0.6447
  752MOL0    Cl99176   5.745   8.374   8.649  0.2329 -0.0631 -0.0019
  752MOL0     C99177   5.648   7.541   8.464 -0.0549  0.1013  0.4493
  752MOL0     C99178   5.550   7.444   8.474  0.2856 -0.2306 -0.6026
  752MOL0     O99179   5.204   7.487   8.483 -0.3088 -0.0953  0.4062
  752MOL0     C99180   5.180   7.143   8.525  0.1920 -0.1923  0.8068
  752MOL0     C99181   5.090   7.039   8.538  0.7616  0.0607 -0.1422
  752MOL0     N99182   5.159   6.507   8.623  0.5484  0.2320 -0.2322
  752MOL0     N99183   5.193   6.385   8.619 -0.2708 -0.1613  0.1229
  752MOL0     C99184   5.026   5.452   9.226  0.0702  0.5323  0.5672
  752MOL0     C99185   4.934   5.389   9.317  0.2781  0.4756  0.5323
  752MOL0     C99186   4.717   5.054   9.557 -0.5121  0.3980 -1.0059
  752MOL0     C99187   4.626   4.951   9.570  0.2587  0.3999  0.6739
  752MOL0     C99188   4.583   4.901   9.696  0.1717 -0.2560 -0.6733
  752MOL0     C99189   4.628   4.957   9.816 -0.2818 -0.2953 -0.3777
  752MOL0     O99190   4.573   4.908   9.932 -0.8513 -0.0828 -0.7151
  752MOL0     C99191   4.599   4.985  10.048 -0.0082  0.2035 -0.5540
  752MOL0     C99192   4.514   4.908  10.149 -0.4455  0.0365  0.0151
  752MOL0     C99193   4.437   4.984  10.248  0.2246  0.1446 -0.2735
  752MOL0     C99194   4.513   5.097  10.321  1.0105 -0.7325  0.9601
  752MOL0     C99195   4.627   5.039  10.384  0.5994  0.4699 -0.9231
  752MOL0     C99196   4.726   4.990  10.437 -0.1254 -0.6095  0.0702
  752MOL0     C99197   4.723   5.061   9.810 -0.0290 -0.6173 -0.1603
  752MOL0     C99198   4.761   5.109   9.683  0.1330 -1.4368 -0.3876
  752MOL0     H99199   5.017   5.056   9.250 -2.5194 -0.2883 -0.9439
  752MOL0     H99200   5.175   5.167   9.107  0.4941 -0.0429 -0.4446
  752MOL0     H99201   5.303   5.600   9.145  2.0341 -0.4199 -0.2055
  752MOL0     H99202   5.154   5.616   9.033 -0.3625 -1.4915  0.3871
  752MOL0     H99203   5.303   5.548   8.856 -0.1028  1.1948 -0.5543
  752MOL0     H99204   5.435   5.545   8.959  0.1714  1.3590  0.1923
  752MOL0     H99205   5.435   5.783   8.973  1.2077  2.4766 -3.6250
  752MOL0     H99206   5.253   5.795   8.955 -0.0267  0.7292 -0.8558
  752MOL0     H99207   5.478   5.714   8.755  1.0291  2.2740 -0.9604
  752MOL0     H99208   5.304   5.723   8.717  2.2708 -1.6942 -1.7297
  752MOL0     H99209   5.449   5.921   8.652 -0.8784  1.7429 -1.0853
  752MOL0     H99210   5.432   5.980   8.820  1.2928  0.3098 -1.1658
  752MOL0     H99211   5.166   5.927   8.780 -0.9345 -1.1032 -2.9752
  752MOL0     H99212   5.212   5.891   8.623  0.2723 -0.3932  0.1838
  752MOL0     H99213   5.260   6.125   8.575  0.8853 -1.0198 -0.8579
  752MOL0     H99214   5.107   6.108   8.647  0.0842  3.1466  0.3701
  752MOL0     H99215   5.366   6.192   8.800  0.5126  0.9168 -1.1443
  752MOL0     H99216   5.196   6.170   8.869 -0.2709 -0.2646  0.0857
  752MOL0     H99217   5.180   6.427   8.945  1.5335  1.5671  1.1735
  752MOL0     H99218   5.154   6.756   8.717  0.8944 -0.1017  0.7286
  752MOL0     H99219   5.141   6.712   8.885 -0.3747 -1.0752 -0.6051
  752MOL0     H99220   4.908   6.676   8.887 -0.2450 -2.5070 -0.2648
  752MOL0     H99221   4.904   6.609   8.724  1.5497 -0.6167  0.9953
  752MOL0     H99222   4.784   6.826   8.754  1.4094 -1.0795  5.2610
  752MOL0     H99223   4.930   6.904   8.764 -0.5403  0.1239 -1.0772
  752MOL0     H99224   4.828   6.730   8.522  1.1474 -0.2124 -2.3733
  752MOL0     H99225   5.000   6.772   8.533  0.2152  0.0688 -0.4477
  752MOL0     H99226   4.826   7.158   8.370 -0.0170  3.0816 -0.0906
  752MOL0     H99227   4.968   7.351   8.364 -2.6312 -1.3682 -0.6016
  752MOL0     H99228   5.321   7.563   8.251  1.5765  0.0549 -2.2352
  752MOL0     H99229   5.492   7.735   8.233 -2.3156 -2.0085 -1.4186
  752MOL0     H99230   5.711   7.747   8.146  2.8226  1.9502 -2.8325
  752MOL0     H99231   5.858   7.667   8.204  2.0824  2.5975  0.8468
  752MOL0     H99232   5.899   7.876   8.105 -2.7379 -0.1837 -0.6460
  752MOL0     H99233   5.953   7.871   8.276 -0.0117  1.0271 -0.6892
  752MOL0     H99234   5.755   8.007   8.352 -1.4846 -0.3611 -0.3032
  752MOL0     H99235   5.678   7.988   8.191  1.8295  0.0952 -2.3330
  752MOL0     H99236   5.944   8.136   8.251  1.1269 -0.9641 -1.8418
  752MOL0     H99237   5.903   8.105   8.099  4.2145 -0.0733  1.7384
  752MOL0     H99238   5.668   8.238   8.139  1.4173 -0.4725 -3.0228
  752MOL0     H99239   5.811   8.321   8.139 -1.6606  0.2129  0.5230
  752MOL0     H99240   5.697   8.205   8.412 -1.1114  1.5477  1.2287
  752MOL0     H99241   5.659   8.353   8.347  0.3993 -0.3495 -2.6144
  752MOL0     H99242   5.969   8.316   8.380  1.3041 -2.8278 -0.3310
  752MOL0     H99243   5.847   8.452   8.424  1.5053 -0.2259  1.9464
  752MOL0     H99244   5.968   8.325   8.598  0.3532  3.1501 -1.8855
  752MOL0     H99245   5.879   8.183   8.554  3.2352 -0.4180  1.0806
  752MOL0     H99246   5.736   7.541   8.527  0.2582 -3.2413  0.2351
  752MOL0     H99247   5.546   7.381   8.562 -0.4476  1.1555  0.4043
  752MOL0     H99248   5.283   7.134   8.558  0.7680 -3.4593 -1.3961
  752MOL0     H99249   5.146   6.953   8.575 -0.6594  0.2724  2.7631
  752MOL0     H99250   5.037   5.560   9.222  0.8706  0.4206 -0.6308
  752MOL0     H99251   4.880   5.456   9.384 -1.1897  1.1452 -1.2374
  752MOL0     H99252   4.587   4.901   9.482 -0.7925  4.0163 -1.1261
  752MOL0     H99253   4.512   4.819   9.687  0.3213 -0.3186 -1.3318
  752MOL0     H99254   4.563   5.087  10.032  1.0609  0.9195  1.3028
  752MOL0     H99255   4.706   4.995  10.064  0.7830 -0.3674 -4.4910
  752MOL0     H99256   4.447   4.840  10.097  2.2956 -1.0548 -2.3622
  752MOL0     H99257   4.571   4.837  10.210  1.4058 -1.0416 -2.7664
  752MOL0     H99258   4.404   4.910  10.321 -1.0859 -0.9672 -1.9021
  752MOL0     H99259   4.346   5.020  10.198 -0.7277  1.5021  2.2722
  752MOL0     H99260   4.539   5.170  10.244 -3.5802 -0.9812 -1.1247
  752MOL0     H99261   4.445   5.151  10.388  0.6044  0.5953 -0.4516
  752MOL0     H99262   4.815   4.945  10.475  1.9478  0.4885 -3.0685
  752MOL0     H99263   4.780   5.099   9.894  0.5998  2.6622 -1.8947
  752MOL0     H99264   4.834   5.189   9.687  1.7197 -2.8811  2.1324
  753MOL0     O99265   7.956   3.714  10.061 -0.4478 -0.2694  0.2785
  753MOL0     C99266   7.894   3.776   9.978 -0.7134 -1.3276  1.3359
  753MOL0     O99267   7.765   3.829   9.986  0.6645  0.7377 -0.5025
  753MOL0     C99268   7.703   3.846  10.109 -0.7127 -0.0475 -0.4139
  753MOL0     C99269   7.764   3.839  10.240  0.4397 -0.9212  0.0038
  753MOL0     C99270   7.699   3.844  10.367  0.7577  0.3710  0.3240
  753MOL0     C99271   7.561   3.853  10.362  0.9244  0.1668  0.7900
  753MOL0     O99272   7.471   3.842  10.464 -0.8966 -0.1711 -0.4467
  753MOL0     C99273   7.525   3.825  10.599  1.0192 -1.5738 -0.4143
  753MOL0     C99274   7.412   3.814  10.710 -0.0411  0.2384  0.5657
  753MOL0     C99275   7.311   3.699  10.678  0.2230 -0.5961  0.4584
  753MOL0     C99276   7.373   3.560  10.675  0.4164 -1.0523  0.5766
  753MOL0     C99277   7.267   3.460  10.712 -0.6049 -0.1063 -0.4122
  753MOL0     C99278   7.317   3.318  10.681 -0.0595 -0.1475 -0.0088
  753MOL0     C99279   7.248   3.218  10.780 -0.2033 -1.2911 -0.0084
  753MOL0     C99280   7.097   3.230  10.786 -0.5634 -0.5934 -0.0855
  753MOL0     N99281   7.030   3.096  10.803 -0.6386  0.4471  0.0041
  753MOL0     C99282   7.060   3.000  10.892 -0.1740 -0.3811 -0.2017
  753MOL0     C99283   6.982   2.897  10.855 -0.2009 -0.0065 -0.9990
  753MOL0     C99284   6.988   2.761  10.923  0.5098 -0.5490 -0.0936
  753MOL0     C99285   7.015   2.651  10.819  0.7857 -0.2582  0.2172
  753MOL0     C99286   7.031   2.511  10.882  0.0532 -0.5829 -0.0227
  753MOL0     C99287   7.058   2.402  10.781  0.3137  0.1218  0.3900
  753MOL0     O99288   7.150   2.292  10.821  0.9865 -0.6968 -0.4872
  753MOL0     C99289   7.157   2.171  10.760 -0.2364  0.6404 -0.1040
  753MOL0     C99290   7.095   2.143  10.636  0.6677 -0.5897 -0.1730
  753MOL0     C99291   7.113   2.014  10.582 -0.0510 -0.6077  0.2326
  753MOL0     C99292   7.194   1.926  10.647  0.3938  1.2346 -0.2553
  753MOL0     C99293   7.206   1.787  10.597  0.4361 -0.5771  0.2059
  753MOL0     O99294   7.179   1.769  10.468 -0.2778  0.3686  0.1330
  753MOL0     C99295   7.133   1.650  10.418 -0.0164 -0.1029 -0.4134
  753MOL0     C99296   7.041   1.572  10.489 -0.0264 -0.0624 -0.5861
  753MOL0     C99297   7.003   1.455  10.437  0.3971 -0.2159  0.8315
  753MOL0     C99298   7.050   1.414  10.308 -0.1872 -0.2981 -0.5653
  753MOL0     O99299   7.021   1.298  10.237 -0.8036  0.0049 -0.7574
  753MOL0     C99300   7.019   1.170  10.318  0.1844 -0.2909 -0.2394
  753MOL0     C99301   6.993   1.059  10.218 -0.6853  0.9015  0.4649
  753MOL0     C99302   6.967   0.920  10.289 -0.9814  0.5718 -0.7290
  753MOL0     C99303   6.952   0.819  10.163 -0.4922  0.0214  0.1348
  753MOL0     C99304   6.884   0.683  10.202 -0.3153  0.5490 -0.3843
  753MOL0     C99305   6.951   0.613  10.317  0.1552  1.0417 -0.5005
  753MOL0     C99306   6.878   0.476  10.340 -0.1493  0.0451 -0.8610
  753MOL0     C99307   6.931   0.405  10.470  0.4292 -0.4641  0.4029
  753MOL0    Cl99308   7.106   0.408  10.486  0.2338 -0.2714 -0.4457
  753MOL0     C99309   7.143   1.494  10.241 -1.0060 -0.2471 -0.6085
  753MOL0     C99310   7.190   1.612  10.306 -0.4405  0.6985  0.8384
  753MOL0     O99311   7.233   1.704  10.683 -0.8361  0.3969  0.0337
  753MOL0     C99312   7.266   1.959  10.762  0.0556  0.1060 -0.5210
  753MOL0     C99313   7.241   2.077  10.820  0.1572 -0.3596 -0.0221
  753MOL0     N99314   6.907   2.939  10.748 -0.2197  0.5226 -0.5172
  753MOL0     N99315   6.931   3.059  10.715  0.2390 -0.6344  0.6799
  753MOL0     C99316   7.503   3.852  10.227 -0.3246  0.4315  0.6713
  753MOL0     C99317   7.567   3.860  10.108  0.2793  0.4969  0.6670
  753MOL0     C99318   7.958   3.811   9.851  0.9852 -0.4664 -0.0766
  753MOL0     C99319   7.891   3.825   9.732 -0.5276  0.2952  0.4760
  753MOL0     C99320   7.968   3.849   9.610  0.4338  0.1340  0.1314
  753MOL0     C99321   8.107   3.884   9.617  0.4978  0.2530  0.7416
  753MOL0     O99322   8.175   3.929   9.498  0.4857 -0.3949 -0.1028
  753MOL0     C99323   8.096   4.007   9.407  0.8452  0.4040  0.8395
  753MOL0     C99324   8.084   3.926   9.268  0.4630  0.2656  0.4256
  753MOL0     C99325   8.222   3.874   9.225 -0.0453 -0.3536 -0.0766
  753MOL0     C99326   8.233   3.880   9.069  0.5018  0.6700 -1.2654
  753MOL0     C99327   8.248   4.028   9.030 -0.6500  0.0643 -0.2007
  753MOL0     C99328   8.253   4.141   8.985 -0.3639  1.0397  0.1936
  753MOL0     C99329   8.173   3.878   9.745  0.3352 -0.0443  0.7625
  753MOL0     C99330   8.099   3.826   9.855 -0.1712 -0.0664  0.4540
  753MOL0     H99331   7.870   3.822  10.250  0.4537 -0.2869  1.1134
  753MOL0     H99332   7.737   3.833  10.467 -1.6533 -1.7966  1.0909
  753MOL0     H99333   7.564   3.922  10.631 -1.2125 -1.2710  1.6932
  753MOL0     H99334   7.603   3.747  10.602  3.8469  1.0690  1.7455
  753MOL0     H99335   7.356   3.908  10.713  0.4520  0.6023 -0.9681
  753MOL0     H99336   7.450   3.803  10.813  2.3191 -0.2344 -0.2858
  753MOL0     H99337   7.249   3.708  10.588 -0.5570  2.6637  1.2029
  753MOL0     H99338   7.246   3.707  10.765  4.1412  3.1618  3.4541
  753MOL0     H99339   7.408   3.534  10.575  1.5534 -0.4235  0.7889
  753MOL0     H99340   7.458   3.556  10.745 -0.5476  5.8633  2.9150
  753MOL0     H99341   7.172   3.478  10.661 -0.9281 -0.2525  0.1360
  753MOL0     H99342   7.255   3.471  10.820 -3.4097 -0.6651 -0.5875
  753MOL0     H99343   7.425   3.321  10.698 -0.2644  0.7899  1.2710
  753MOL0     H99344   7.297   3.296  10.576 -1.3917 -0.8613  0.3670
  753MOL0     H99345   7.288   3.120  10.751  3.3551 -0.0401  0.2999
  753MOL0     H99346   7.295   3.231  10.878  2.8196  0.3043 -1.5333
  753MOL0     H99347   7.060   3.283  10.698  2.2003  1.4940 -0.1257
  753MOL0     H99348   7.071   3.300  10.866  2.3054  0.3926  0.0928
  753MOL0     H99349   7.132   3.003  10.973 -0.1159  1.3432 -0.2982
  753MOL0     H99350   6.899   2.742  10.984 -0.4173 -0.2970 -1.3170
  753MOL0     H99351   7.057   2.768  11.008 -0.2715  2.7237  0.3980
  753MOL0     H99352   7.103   2.689  10.767 -0.5033  3.7442  0.6104
  753MOL0     H99353   6.934   2.669  10.747 -0.6196  1.5884  2.1137
  753MOL0     H99354   7.120   2.517  10.946  0.4974 -0.2263 -0.6665
  753MOL0     H99355   6.942   2.473  10.933 -0.6746  0.4015 -0.5165
  753MOL0     H99356   7.108   2.452  10.698 -1.5103  0.1458 -0.7553
  753MOL0     H99357   6.961   2.360  10.752  0.6254 -1.1091  1.0569
  753MOL0     H99358   7.038   2.214  10.578  1.1961 -0.0643 -0.0623
  753MOL0     H99359   7.058   1.976  10.497  1.3549 -1.7217 -0.2210
  753MOL0     H99360   6.989   1.610  10.576  1.0569  1.6110 -0.6198
  753MOL0     H99361   6.931   1.404  10.499  0.4148  1.4770  2.3438
  753MOL0     H99362   6.938   1.173  10.392  1.8309 -0.3542  1.6711
  753MOL0     H99363   7.111   1.152  10.374  1.1449 -0.5313 -1.8328
  753MOL0     H99364   7.078   1.056  10.149 -0.0281  1.0872  1.2494
  753MOL0     H99365   6.907   1.083  10.156  0.3592  0.2961 -1.3074
  753MOL0     H99366   6.877   0.925  10.352  0.3155 -0.4400  1.3284
  753MOL0     H99367   7.048   0.888  10.356 -2.0318 -1.2866 -0.2690
  753MOL0     H99368   6.895   0.861  10.080  0.7915 -0.5855 -1.1120
  753MOL0     H99369   7.051   0.800  10.120 -2.1244 -2.0028 -3.0745
  753MOL0     H99370   6.903   0.623  10.113 -0.2804 -0.3138  0.1994
  753MOL0     H99371   6.776   0.696  10.204 -0.5700 -0.7202 -2.3764
  753MOL0     H99372   6.922   0.672  10.405  0.3044  2.6694 -1.4999
  753MOL0     H99373   7.058   0.597  10.302  0.1150  1.3260 -1.1351
  753MOL0     H99374   6.773   0.500  10.356  0.8019  2.2783  3.8374
  753MOL0     H99375   6.897   0.404  10.259 -0.2740  2.7493 -3.4763
  753MOL0     H99376   6.905   0.299  10.472  3.7232 -1.3769  0.1707
  753MOL0     H99377   6.887   0.441  10.564  2.8683 -0.5995  1.6829
  753MOL0     H99378   7.184   1.461  10.147  1.3419 -1.0215  0.5985
  753MOL0     H99379   7.263   1.679  10.261 -0.2714  1.7797  2.5972
  753MOL0     H99380   7.333   1.887  10.808 -0.7667  1.7140  3.6637
  753MOL0     H99381   7.278   2.105  10.919  3.5675  2.2461 -1.7919
  753MOL0     H99382   7.395   3.862  10.231 -0.2383  1.1653  1.5305
  753MOL0     H99383   7.509   3.850  10.017 -0.0194 -1.7463  1.0486
  753MOL0     H99384   7.783   3.815   9.724 -0.5148  1.4149 -2.4827
  753MOL0     H99385   7.912   3.848   9.516  1.2900 -0.6263 -0.3914
  753MOL0     H99386   8.166   4.090   9.394  0.1654  0.8240 -0.2945
  753MOL0     H99387   8.001   4.044   9.447  0.6103  0.4542  0.2397
  753MOL0     H99388   8.022   3.839   9.287 -0.9987  1.9344  4.5729
  753MOL0     H99389   8.028   3.983   9.193  1.6445  0.9776  0.0426
  753MOL0     H99390   8.232   3.772   9.263 -0.0759 -1.0984 -1.9269
  753MOL0     H99391   8.296   3.943   9.266 -0.1575 -1.0030  1.2546
  753MOL0     H99392   8.315   3.815   9.042  0.0811 -1.6799  2.3901
  753MOL0     H99393   8.145   3.834   9.024  0.2283 -0.1853  0.0837
  753MOL0     H99394   8.272   4.239   8.945 -1.7666  0.3808 -2.2776
  753MOL0     H99395   8.276   3.910   9.750 -0.3987  2.6700  0.1267
  753MOL0     H99396   8.157   3.807   9.945 -3.0344 -2.3122  2.0257
  754MOL0     O99397   0.884   2.253   6.763 -0.4823  0.7220 -0.6648
  754MOL0     C99398   0.776   2.285   6.722 -0.1557 -0.5660  0.4413
  754MOL0     O99399   0.742   2.342   6.609  0.2235 -0.4922  0.0903
  754MOL0     C99400   0.837   2.424   6.534 -0.2488 -0.4006  0.1461
  754MOL0     C99401   0.959   2.474   6.588  0.1221 -0.0550 -1.0892
  754MOL0     C99402   1.055   2.540   6.510 -0.4368 -0.1574  0.8301
  754MOL0     C99403   1.042   2.540   6.373  0.1380 -1.0754 -0.8100
  754MOL0     O99404   1.154   2.593   6.302 -0.1748 -0.7820  0.3259
  754MOL0     C99405   1.165   2.580   6.160 -0.7877 -0.0697 -0.0984
  754MOL0     C99406   1.309   2.569   6.108 -0.3775 -0.7235  0.6761
  754MOL0     C99407   1.399   2.691   6.139  0.3303  0.9498  0.4497
  754MOL0     C99408   1.540   2.645   6.127  0.6287 -0.2917 -0.0353
  754MOL0     C99409   1.635   2.766   6.149  0.2320  1.2926  0.2351
  754MOL0     C99410   1.601   2.840   6.279 -0.0308 -0.0627  0.4094
  754MOL0     C99411   1.724   2.938   6.302 -0.7599  0.2885  0.5896
  754MOL0     C99412   1.707   3.076   6.228 -0.6812  0.4828  0.0314
  754MOL0     N99413   1.818   3.164   6.246  0.3183 -0.1019  0.5172
  754MOL0     C99414   1.861   3.219   6.370 -0.8041  0.0948 -0.0067
  754MOL0     C99415   1.977   3.282   6.337  0.5650 -0.5173 -1.3531
  754MOL0     C99416   2.067   3.357   6.431  0.1504 -1.2343  0.3066
  754MOL0     C99417   2.146   3.255   6.506  0.2449  0.1421  0.2159
  754MOL0     C99418   2.264   3.317   6.581  0.4091 -0.8848 -0.4431
  754MOL0     C99419   2.225   3.408   6.696  0.3003  0.7598 -0.1155
  754MOL0     O99420   2.341   3.451   6.775 -0.0390  0.3485 -0.1014
  754MOL0     C99421   2.405   3.361   6.861 -0.6677  0.0729  0.5785
  754MOL0     C99422   2.516   3.412   6.924  1.3304  0.2828 -1.0112
  754MOL0     C99423   2.594   3.317   7.007  0.0194 -0.8298  0.6901
  754MOL0     C99424   2.554   3.181   7.022 -1.2805 -0.0282 -0.3731
  754MOL0     C99425   2.641   3.076   7.090 -0.7758  0.2727  0.4790
  754MOL0     O99426   2.576   2.951   7.112  0.8791 -0.8842  0.8607
  754MOL0     C99427   2.643   2.847   7.166  0.7029 -0.4287 -0.1415
  754MOL0     C99428   2.564   2.768   7.257  0.3527  0.0208 -0.8431
  754MOL0     C99429   2.610   2.631   7.287  0.1842 -0.3422  0.4074
  754MOL0     C99430   2.742   2.604   7.263 -0.6151 -0.6310  0.8855
  754MOL0     O99431   2.795   2.498   7.332 -0.0733  0.7953  1.0100
  754MOL0     C99432   2.914   2.525   7.405 -0.3874  1.0369  0.0821
  754MOL0     C99433   2.940   2.426   7.526  0.6429  0.2284  0.2717
  754MOL0     C99434   3.049   2.473   7.628 -0.3952  0.4301 -0.3431
  754MOL0     C99435   3.185   2.481   7.566  0.3766  0.6171  0.2355
  754MOL0     C99436   3.263   2.594   7.623  0.6673 -0.6095 -0.5823
  754MOL0     C99437   3.380   2.638   7.527 -0.3878 -0.6528 -0.8201
  754MOL0     C99438   3.478   2.749   7.580 -0.4820 -0.1209 -0.3307
  754MOL0     C99439   3.579   2.786   7.477  0.1143  0.4807  0.2601
  754MOL0    Cl99440   3.708   2.660   7.472  0.2339  0.0443  0.1412
  754MOL0     C99441   2.815   2.689   7.180 -0.4086 -0.0998 -0.4589
  754MOL0     C99442   2.774   2.813   7.147  0.0486 -0.8555 -0.1028
  754MOL0     O99443   2.755   3.115   7.128 -0.4395  0.2829  0.9026
  754MOL0     C99444   2.433   3.143   6.960  0.0770 -0.7058  0.0010
  754MOL0     C99445   2.361   3.230   6.876  0.4914  0.4908  0.6239
  754MOL0     N99446   2.002   3.265   6.206  0.4429  0.3165  0.2987
  754MOL0     N99447   1.908   3.204   6.149 -0.4134  0.5320 -0.8967
  754MOL0     C99448   0.918   2.496   6.314 -0.6298  0.3082 -0.4069
  754MOL0     C99449   0.819   2.434   6.395 -0.0177 -0.1299  0.7773
  754MOL0     C99450   0.659   2.248   6.803 -0.2551 -0.2888 -0.4890
  754MOL0     C99451   0.677   2.207   6.938 -0.8450 -0.7772 -0.0711
  754MOL0     C99452   0.568   2.169   7.020  0.4305  0.6737  0.1629
  754MOL0     C99453   0.439   2.186   6.968 -0.2094 -0.0151 -0.6389
  754MOL0     O99454   0.336   2.144   7.047 -0.9652  0.8172 -0.3272
  754MOL0     C99455   0.238   2.065   6.990 -0.5091 -0.6915  0.7800
  754MOL0     C99456   0.303   1.937   6.924 -0.0249 -1.2890  0.5290
  754MOL0     C99457   0.193   1.856   6.849  0.1743 -0.2155  1.0676
  754MOL0     C99458   0.243   1.797   6.713 -0.5471  0.1376 -0.5872
  754MOL0     C99459   0.259   1.916   6.616 -0.5200 -0.1427  0.4485
  754MOL0     C99460   0.267   2.010   6.545  0.2244 -0.0403 -0.0866
  754MOL0     C99461   0.423   2.232   6.845 -0.3794  0.3690  0.7398
  754MOL0     C99462   0.529   2.268   6.757  0.4846  0.7799 -0.3458
  754MOL0     H99463   0.978   2.468   6.695 -0.0227  0.5859 -1.0231
  754MOL0     H99464   1.147   2.558   6.566  0.1533 -3.9234  1.3452
  754MOL0     H99465   1.114   2.658   6.103 -0.5307 -0.3757 -0.7654
  754MOL0     H99466   1.106   2.493   6.126 -4.9518  1.7552  1.7361
  754MOL0     H99467   1.307   2.547   6.001  1.3548 -0.9624  0.6541
  754MOL0     H99468   1.350   2.483   6.162 -0.7734 -1.7175 -0.5595
  754MOL0     H99469   1.385   2.714   6.245  1.5590  0.4946  0.7261
  754MOL0     H99470   1.390   2.768   6.062  0.9424 -2.6126 -3.5110
  754MOL0     H99471   1.557   2.565   6.199  2.1831 -0.2390 -0.3065
  754MOL0     H99472   1.551   2.614   6.023  0.2778  0.9675 -0.4737
  754MOL0     H99473   1.626   2.827   6.059  1.8964  1.1948 -0.0335
  754MOL0     H99474   1.735   2.723   6.162 -1.4366 -2.3721  2.5338
  754MOL0     H99475   1.597   2.771   6.363 -2.8089  2.0975  2.2576
  754MOL0     H99476   1.512   2.903   6.279  2.7030  4.2298  0.5683
  754MOL0     H99477   1.720   2.958   6.410 -0.7059 -3.1217  1.3164
  754MOL0     H99478   1.810   2.889   6.254 -2.8543 -5.6733  2.1006
  754MOL0     H99479   1.611   3.118   6.261 -0.2216  0.3074  1.7019
  754MOL0     H99480   1.706   3.056   6.121  1.4819 -4.4629  0.6787
  754MOL0     H99481   1.815   3.229   6.467  2.8463  2.5240  1.6929
  754MOL0     H99482   2.014   3.404   6.515  1.6407  1.5699 -0.2055
  754MOL0     H99483   2.137   3.418   6.374  2.0411 -3.5856 -0.0273
  754MOL0     H99484   2.177   3.170   6.444  2.5944  2.9388 -2.8484
  754MOL0     H99485   2.081   3.207   6.580 -0.6397  0.5886 -0.2571
  754MOL0     H99486   2.330   3.244   6.628 -1.0820 -0.5503  2.3578
  754MOL0     H99487   2.322   3.381   6.513  0.3670  2.0736  2.0984
  754MOL0     H99488   2.157   3.353   6.762  0.5030  0.6801  0.0263
  754MOL0     H99489   2.165   3.492   6.658 -2.3443 -1.2626 -0.7156
  754MOL0     H99490   2.533   3.519   6.916  0.2166  0.6627  1.0424
  754MOL0     H99491   2.682   3.351   7.060  0.1729 -2.3696  1.4912
  754MOL0     H99492   2.473   2.813   7.295  1.8253  1.7313  0.9127
  754MOL0     H99493   2.555   2.560   7.348 -1.0482  0.8206  0.6907
  754MOL0     H99494   2.921   2.630   7.434  2.7818  0.3487  2.3305
  754MOL0     H99495   2.992   2.511   7.330  1.6426 -1.0275  2.4021
  754MOL0     H99496   2.976   2.334   7.480 -0.3979 -0.9316  1.6907
  754MOL0     H99497   2.846   2.402   7.577  0.6192  2.7936  1.5842
  754MOL0     H99498   3.045   2.394   7.704  0.7699 -1.5543 -2.1916
  754MOL0     H99499   3.021   2.572   7.662 -1.0984  0.0472  0.2012
  754MOL0     H99500   3.237   2.388   7.589  0.0203  0.0086 -1.2640
  754MOL0     H99501   3.177   2.483   7.457 -2.6509 -1.7644  0.3010
  754MOL0     H99502   3.317   2.555   7.711 -0.7470  0.9874  1.0759
  754MOL0     H99503   3.221   2.684   7.668  2.0604  0.7952 -1.9758
  754MOL0     H99504   3.333   2.685   7.440 -1.7608  0.3535  0.4142
  754MOL0     H99505   3.435   2.551   7.490 -0.7864  0.1083 -3.4118
  754MOL0     H99506   3.420   2.841   7.589  0.7103  0.7354 -1.1053
  754MOL0     H99507   3.511   2.729   7.683  1.6299  0.7375 -0.7831
  754MOL0     H99508   3.618   2.883   7.507 -0.2498  0.1904  1.7839
  754MOL0     H99509   3.535   2.782   7.377 -2.4476 -1.1638  1.3203
  754MOL0     H99510   2.920   2.671   7.158  0.3755  1.4838  1.6984
  754MOL0     H99511   2.843   2.877   7.092 -0.0404 -0.6116  0.0702
  754MOL0     H99512   2.386   3.047   6.980 -1.0800 -0.2484 -0.3945
  754MOL0     H99513   2.269   3.202   6.825 -0.5910  3.0795  0.9827
  754MOL0     H99514   0.894   2.504   6.209  0.9221  3.6973 -0.6520
  754MOL0     H99515   0.737   2.382   6.347  0.8845 -0.5379 -0.3506
  754MOL0     H99516   0.772   2.195   6.989 -0.9341  0.3278  0.3927
  754MOL0     H99517   0.582   2.121   7.116  1.9310 -1.4558 -1.0440
  754MOL0     H99518   0.180   2.123   6.918 -1.0897  1.6969  3.0397
  754MOL0     H99519   0.173   2.029   7.070  0.7128  0.5529  2.4118
  754MOL0     H99520   0.375   1.973   6.849 -0.9460 -3.6873 -1.6522
  754MOL0     H99521   0.349   1.877   7.003 -0.9281 -0.6726  1.5488
  754MOL0     H99522   0.112   1.928   6.836  0.0482 -0.5017  0.2212
  754MOL0     H99523   0.156   1.779   6.916 -0.5564  1.8923  3.1972
  754MOL0     H99524   0.342   1.751   6.723 -0.3002  1.1021  2.0446
  754MOL0     H99525   0.170   1.728   6.672  1.3132  0.3304 -4.8073
  754MOL0     H99526   0.262   2.095   6.480  0.4763  0.8571  1.0316
  754MOL0     H99527   0.322   2.233   6.807 -0.8371 -0.6180  1.8632
  754MOL0     H99528   0.499   2.297   6.656  0.5986  3.8917  0.4126
  755MOL0     O99529   3.429   1.310   9.061  0.3297  0.1744  0.0321
  755MOL0     C99530   3.379   1.233   9.146 -0.2927 -0.0104  0.3454
  755MOL0     O99531   3.448   1.161   9.251  0.7097 -0.0014 -0.2950
  755MOL0     C99532   3.584   1.176   9.241 -0.0677  0.2234  0.1078
  755MOL0     C99533   3.660   1.109   9.136  0.6624  0.3870 -0.0382
  755MOL0     C99534   3.798   1.129   9.133  0.4927  0.0735  0.3974
  755MOL0     C99535   3.870   1.202   9.228  0.0349 -0.9683  1.0677
  755MOL0     O99536   4.010   1.206   9.236  0.1172  1.3577 -0.0122
  755MOL0     C99537   4.090   1.181   9.126 -0.3000  0.2340  0.1483
  755MOL0     C99538   4.239   1.183   9.161 -0.3966  0.6846 -0.1321
  755MOL0     C99539   4.278   1.068   9.262 -0.7499  0.5438  0.1125
  755MOL0     C99540   4.434   1.071   9.283  0.3085 -0.5722  0.3465
  755MOL0     C99541   4.479   0.948   9.364  0.5732  0.8498  0.1425
  755MOL0     C99542   4.633   0.947   9.359  0.7562 -0.8850 -0.6059
  755MOL0     C99543   4.693   0.828   9.436  0.2659 -0.0482  0.1340
  755MOL0     C99544   4.659   0.837   9.586  0.4881 -0.5764 -0.2593
  755MOL0     N99545   4.725   0.729   9.655  0.1351 -0.0764 -0.4931
  755MOL0     C99546   4.838   0.745   9.728 -0.0236 -0.2421  0.3816
  755MOL0     C99547   4.882   0.620   9.740  0.0294  0.7938 -0.4021
  755MOL0     C99548   5.012   0.580   9.806  0.5104  0.7667 -0.0361
  755MOL0     C99549   5.132   0.637   9.719  0.0264  0.1290 -1.2428
  755MOL0     C99550   5.263   0.626   9.795 -0.2201  1.0379  0.4205
  755MOL0     C99551   5.313   0.490   9.861  0.2342 -0.2668  0.2359
  755MOL0     O99552   5.439   0.494   9.910 -0.1083  0.1581 -0.3603
  755MOL0     C99553   5.497   0.377   9.957  0.7997  0.5624 -0.2382
  755MOL0     C99554   5.630   0.361   9.949  0.2618 -1.0592 -0.4337
  755MOL0     C99555   5.688   0.242   9.980  0.2861  0.2141 -0.4804
  755MOL0     C99556   5.616   0.136  10.038  0.1436 -1.0788 -0.2118
  755MOL0     C99557   5.691   0.017  10.090  0.4478  1.0335 -0.1580
  755MOL0     O99558   5.820  -0.016  10.059  0.8398 -0.3149  0.7752
  755MOL0     C99559   5.844  -0.144  10.052 -0.1770  0.9133 -0.4626
  755MOL0     C99560   5.978  -0.168  10.087  0.1790  0.1098 -0.2916
  755MOL0     C99561   6.008  -0.298  10.086 -0.1416  0.6366 -0.3885
  755MOL0     C99562   5.931  -0.403  10.056  0.6321  1.1812 -1.0861
  755MOL0     O99563   5.977  -0.537  10.047 -0.0883 -0.3214  0.0257
  755MOL0     C99564   6.047  -0.586  10.159  0.3952 -0.0086 -0.1228
  755MOL0     C99565   5.941  -0.614  10.277  0.9711 -0.2798  0.0282
  755MOL0     C99566   5.999  -0.689  10.395  0.9455  0.5206 -0.2416
  755MOL0     C99567   5.893  -0.729  10.505  0.7757 -0.6958  0.7338
  755MOL0     C99568   5.936  -0.757  10.647  0.4208  0.3083  0.4017
  755MOL0     C99569   5.826  -0.842  10.705 -0.2918 -0.3168  1.0726
  755MOL0     C99570   5.850  -0.866  10.847 -0.0462  0.2842 -0.1472
  755MOL0     C99571   5.754  -0.970  10.896 -0.3672  0.1843  0.4568
  755MOL0    Cl99572   5.805  -1.034  11.057 -0.1190  0.0028  0.1540
  755MOL0     C99573   5.803  -0.370  10.013  0.5193  0.6789 -0.7690
  755MOL0     C99574   5.755  -0.241  10.006 -0.3465  0.8108  0.2142
  755MOL0     O99575   5.627  -0.049  10.177 -1.0493  0.3315  0.0898
  755MOL0     C99576   5.478   0.145  10.041  0.3587 -0.1696 -0.7765
  755MOL0     C99577   5.421   0.262  10.002  0.3651 -1.1522  0.6218
  755MOL0     N99578   4.800   0.527   9.682 -0.1731  0.0272 -0.7228
  755MOL0     N99579   4.708   0.594   9.629  0.6390  0.5157  0.1728
  755MOL0     C99580   3.793   1.264   9.319 -0.5698  0.5265 -0.5069
  755MOL0     C99581   3.660   1.248   9.332  0.6625 -0.1123  1.0299
  755MOL0     C99582   3.229   1.198   9.134 -1.0283 -0.2301 -0.5674
  755MOL0     C99583   3.155   1.138   9.236 -0.0898  0.4891  0.8444
  755MOL0     C99584   3.018   1.113   9.218  0.6774  0.4484 -0.7555
  755MOL0     C99585   2.957   1.141   9.095  0.2407 -0.1310 -0.0959
  755MOL0     O99586   2.823   1.132   9.067 -0.8856 -0.8703  0.3304
  755MOL0     C99587   2.748   1.102   9.183 -0.4021  0.3578  0.0945
  755MOL0     C99588   2.609   1.075   9.125 -0.2305  0.9108  0.4491
  755MOL0     C99589   2.515   1.048   9.240 -0.1330  0.0754 -0.4468
  755MOL0     C99590   2.369   1.026   9.192  0.1877 -0.5735 -0.4730
  755MOL0     C99591   2.281   1.034   9.306  0.1030  0.0610  0.1839
  755MOL0     C99592   2.202   1.066   9.388  0.3765 -0.6080  0.6505
  755MOL0     C99593   3.032   1.190   8.990  0.0406  0.0724 -0.6036
  755MOL0     C99594   3.167   1.225   9.008 -0.4884 -0.4063  0.5041
  755MOL0     H99595   3.607   1.060   9.055 -1.9209  1.6414  0.7563
  755MOL0     H99596   3.853   1.078   9.054 -0.7175  1.2449 -1.2689
  755MOL0     H99597   4.056   1.238   9.039  0.4663 -1.0942 -1.0576
  755MOL0     H99598   4.072   1.078   9.095 -0.7308  0.3324  0.0562
  755MOL0     H99599   4.271   1.286   9.181 -2.2337  1.6226 -1.7776
  755MOL0     H99600   4.301   1.158   9.074  0.0369  0.4292  0.2469
  755MOL0     H99601   4.248   0.974   9.216  1.5167  0.4203 -1.2195
  755MOL0     H99602   4.231   1.075   9.361 -3.8989 -1.1858 -1.1062
  755MOL0     H99603   4.486   1.067   9.187 -0.2838  2.6325 -0.2364
  755MOL0     H99604   4.452   1.169   9.329 -0.9631  0.7990 -1.9176
  755MOL0     H99605   4.430   0.857   9.328  2.2137 -0.9990  2.3045
  755MOL0     H99606   4.444   0.963   9.467  0.3130  1.4257 -0.0258
  755MOL0     H99607   4.658   1.045   9.401  0.6532 -1.5862  1.1806
  755MOL0     H99608   4.664   0.936   9.255  1.9664 -1.9321 -0.1657
  755MOL0     H99609   4.660   0.732   9.395 -0.4853  0.4505 -0.4339
  755MOL0     H99610   4.801   0.830   9.417  0.5476 -0.0047  1.6123
  755MOL0     H99611   4.552   0.831   9.607  0.3958  0.5360 -0.3515
  755MOL0     H99612   4.696   0.928   9.635 -0.4649 -0.4042  0.1686
  755MOL0     H99613   4.895   0.833   9.754  1.4460 -1.2114  0.5982
  755MOL0     H99614   5.034   0.475   9.826  1.1700  1.2516  1.9755
  755MOL0     H99615   5.017   0.624   9.906  0.6852  0.1389  0.2356
  755MOL0     H99616   5.112   0.743   9.701  0.2084  0.1992 -1.0473
  755MOL0     H99617   5.132   0.580   9.626  2.8068  1.1648 -1.9568
  755MOL0     H99618   5.350   0.644   9.730 -0.4331 -0.5458 -0.3572
  755MOL0     H99619   5.259   0.700   9.876 -2.0233  1.2184  0.2087
  755MOL0     H99620   5.310   0.411   9.785  2.1358 -3.5918  3.2778
  755MOL0     H99621   5.246   0.458   9.941 -1.0442  1.4175 -0.0927
  755MOL0     H99622   5.691   0.447   9.922 -0.6700 -0.6806 -1.4298
  755MOL0     H99623   5.796   0.236   9.986  0.2153 -0.9917 -0.3067
  755MOL0     H99624   6.043  -0.084  10.106 -0.4619 -0.0949  3.4866
  755MOL0     H99625   6.113  -0.320  10.104  0.6845  5.3355  2.3904
  755MOL0     H99626   6.126  -0.520  10.194  0.9526 -0.2200 -0.9630
  755MOL0     H99627   6.103  -0.674  10.128  0.9985  0.6994 -1.0575
  755MOL0     H99628   5.863  -0.680  10.237 -0.0198  0.4639  0.6659
  755MOL0     H99629   5.899  -0.519  10.312 -0.5164 -0.0126 -2.2596
  755MOL0     H99630   6.076  -0.629  10.444  1.0507  0.6242 -0.5288
  755MOL0     H99631   6.046  -0.780  10.355  0.8192  1.4254 -2.5894
  755MOL0     H99632   5.817  -0.652  10.521 -1.4348 -2.3665 -1.0132
  755MOL0     H99633   5.826  -0.804  10.460  0.0695  0.9584 -1.1479
  755MOL0     H99634   5.946  -0.660  10.697  2.0685  0.5775 -0.3755
  755MOL0     H99635   6.033  -0.807  10.647  1.4988  2.2903  0.0480
  755MOL0     H99636   5.819  -0.932  10.645 -0.2344  1.6946 -2.1759
  755MOL0     H99637   5.735  -0.781  10.696 -0.0094  0.1596  1.3865
  755MOL0     H99638   5.950  -0.905  10.869  0.6112  1.7649 -0.4252
  755MOL0     H99639   5.836  -0.783  10.917  1.0660 -1.5148  2.3651
  755MOL0     H99640   5.748  -1.050  10.822  4.2563 -0.4521  0.4951
  755MOL0     H99641   5.655  -0.927  10.913  0.3224  2.0387  0.0211
  755MOL0     H99642   5.728  -0.447   9.997  1.0752  0.2749 -1.5136
  755MOL0     H99643   5.652  -0.222   9.977 -0.3552  3.4472  1.6888
  755MOL0     H99644   5.416   0.069  10.088 -0.1075 -2.6051 -4.8314
  755MOL0     H99645   5.313   0.274  10.010  0.3874  2.2952 -1.9390
  755MOL0     H99646   3.854   1.321   9.388  1.3826 -1.4276 -0.5138
  755MOL0     H99647   3.617   1.300   9.417 -0.3510  2.3719 -0.8394
  755MOL0     H99648   3.214   1.117   9.325 -1.4664 -2.5422  1.1751
  755MOL0     H99649   2.959   1.087   9.305  1.4611 -0.2495 -0.4062
  755MOL0     H99650   2.745   1.182   9.257 -1.1841  3.1801 -2.7739
  755MOL0     H99651   2.770   1.013   9.242  0.3141  0.8330  0.5544
  755MOL0     H99652   2.587   1.160   9.059 -1.4120  2.0047  2.1847
  755MOL0     H99653   2.608   0.986   9.060 -5.6332  1.3738 -0.6416
  755MOL0     H99654   2.524   1.137   9.303  0.0056  1.6008 -2.5149
  755MOL0     H99655   2.534   0.961   9.304  0.7644 -0.8535 -1.9237
  755MOL0     H99656   2.332   1.094   9.115  2.2506  0.2002 -0.8506
  755MOL0     H99657   2.362   0.932   9.137  1.5971  0.6236 -2.8876
  755MOL0     H99658   2.122   1.079   9.458 -2.2076 -5.2511 -0.9474
  755MOL0     H99659   2.991   1.192   8.890 -3.5855  1.2871  0.7467
  755MOL0     H99660   3.224   1.272   8.929 -1.6921 -0.1087 -0.2135
  756MOL0     O99661   3.888  10.806   6.727  0.2718 -0.3647 -0.4186
  756MOL0     C99662   3.904  10.715   6.642 -0.6875  0.0958  0.5257
  756MOL0     O99663   3.967  10.729   6.526 -0.0100  0.0048 -0.1576
  756MOL0     C99664   3.997  10.858   6.484 -0.7150  1.2785 -0.2842
  756MOL0     C99665   4.130  10.893   6.482 -0.0848 -0.3888 -0.3389
  756MOL0     C99666   4.172  11.026   6.462 -0.2915  0.0360  0.2377
  756MOL0     C99667   4.070  11.123   6.445 -0.2662  0.5373  0.4562
  756MOL0     O99668   4.097  11.256   6.432  0.3714  0.0431  0.3265
  756MOL0     C99669   4.228  11.310   6.459  0.0184  0.1762 -0.5621
  756MOL0     C99670   4.217  11.459   6.451 -0.0718  0.1376 -0.6225
  756MOL0     C99671   4.353  11.530   6.446  0.2798  0.0905 -0.5970
  756MOL0     C99672   4.331  11.675   6.414 -0.8272 -0.7171  0.1010
  756MOL0     C99673   4.319  11.707   6.262  0.2621  0.2707 -0.0135
  756MOL0     C99674   4.438  11.682   6.174 -0.5936  0.7183 -0.9883
  756MOL0     C99675   4.564  11.758   6.214  0.6344 -0.1540  1.6272
  756MOL0     C99676   4.677  11.737   6.110 -0.4597  1.3591 -0.3230
  756MOL0     N99677   4.763  11.614   6.143  0.3347  0.2170  0.1360
  756MOL0     C99678   4.826  11.592   6.261 -0.0079 -0.9440 -0.9583
  756MOL0     C99679   4.901  11.480   6.238  0.8498 -0.6146  0.0895
  756MOL0     C99680   5.002  11.421   6.324  0.4650 -0.3667  0.1334
  756MOL0     C99681   5.137  11.501   6.315 -0.4727 -0.3262 -0.6633
  756MOL0     C99682   5.256  11.436   6.386  0.8759  0.5099  0.5449
  756MOL0     C99683   5.374  11.527   6.394  0.5039 -0.3361  0.1637
  756MOL0     O99684   5.478  11.436   6.437  0.2364  0.0109 -0.1078
  756MOL0     C99685   5.602  11.477   6.473 -0.6085 -0.9072  0.4150
  756MOL0     C99686   5.692  11.369   6.483 -0.0436  0.0560 -0.4910
  756MOL0     C99687   5.830  11.401   6.496  0.0868 -0.1785 -0.1074
  756MOL0     C99688   5.883  11.534   6.504  0.3812  0.3358  0.4427
  756MOL0     C99689   6.023  11.549   6.509 -0.1291 -0.1743  0.4211
  756MOL0     O99690   6.058  11.688   6.505 -0.1408 -0.0851 -0.3501
  756MOL0     C99691   6.192  11.729   6.508 -0.4904  0.3902 -0.6950
  756MOL0     C99692   6.238  11.840   6.577 -0.3883  0.2736  0.6097
  756MOL0     C99693   6.371  11.877   6.571 -0.3695  0.0905  0.4873
  756MOL0     C99694   6.467  11.808   6.483 -0.0984 -0.0905 -0.2870
  756MOL0     O99695   6.598  11.855   6.469 -0.3146  0.1477 -0.5379
  756MOL0     C99696   6.700  11.758   6.439 -0.0937  0.9739  0.1891
  756MOL0     C99697   6.831  11.816   6.479  0.0629 -0.0814  1.2639
  756MOL0     C99698   6.866  11.823   6.626  0.9713  0.3175  0.4096
  756MOL0     C99699   6.765  11.887   6.712 -0.6993 -0.4414 -0.0228
  756MOL0     C99700   6.799  11.880   6.868 -0.0108  0.5405  0.1684
  756MOL0     C99701   6.733  11.993   6.948  0.5667  0.8195  0.6917
  756MOL0     C99702   6.765  11.987   7.097 -0.5362  0.1124  0.6485
  756MOL0     C99703   6.689  12.090   7.180  0.4209 -0.2714  0.3297
  756MOL0    Cl99704   6.732  12.260   7.156  0.3621 -0.1863 -0.0319
  756MOL0     C99705   6.416  11.694   6.420 -0.6594  0.0518  0.5793
  756MOL0     C99706   6.292  11.651   6.435 -0.3249 -0.3494 -0.3377
  756MOL0     O99707   6.100  11.459   6.539  0.0903  0.3042  0.1898
  756MOL0     C99708   5.783  11.638   6.493 -0.2917  0.0823 -0.1396
  756MOL0     C99709   5.647  11.610   6.464  0.0605 -0.4663  0.0925
  756MOL0     N99710   4.872  11.431   6.115 -0.1050 -0.2700  1.3270
  756MOL0     N99711   4.793  11.517   6.051  0.5888  0.3253  0.4576
  756MOL0     C99712   3.935  11.083   6.424 -0.1656  0.1086  0.4287
  756MOL0     C99713   3.900  10.955   6.446  0.2050  0.0061  0.2949
  756MOL0     C99714   3.863  10.588   6.683 -0.5941  0.5009 -0.1891
  756MOL0     C99715   3.812  10.567   6.816  0.1245  0.3254  0.6572
  756MOL0     C99716   3.778  10.446   6.868 -0.4124 -0.5356 -0.6703
  756MOL0     C99717   3.796  10.329   6.785  0.9332  0.5017  0.7721
  756MOL0     O99718   3.755  10.201   6.824  0.2006  0.7401  0.2834
  756MOL0     C99719   3.844  10.088   6.807  0.2065  0.7942  0.4884
  756MOL0     C99720   3.925  10.084   6.934  0.4082 -0.4984 -1.3912
  756MOL0     C99721   4.054   9.992   6.942 -1.3706  0.6990 -0.1964
  756MOL0     C99722   4.085   9.940   7.081  0.1481  0.6264 -1.0206
  756MOL0     C99723   4.078  10.048   7.184  0.6834 -0.7703 -0.2984
  756MOL0     C99724   4.062  10.140   7.264  0.0364  0.7604 -0.5000
  756MOL0     C99725   3.865  10.349   6.658  1.3393 -0.4602  0.2062
  756MOL0     C99726   3.878  10.482   6.596  0.6925  0.4618  0.0042
  756MOL0     H99727   4.205  10.821   6.515 -1.5071 -1.8521 -0.1442
  756MOL0     H99728   4.279  11.043   6.460 -0.2699  0.0658  1.2074
  756MOL0     H99729   4.294  11.273   6.380 -1.6487  1.0884 -2.4660
  756MOL0     H99730   4.270  11.284   6.557 -0.6652  2.8705  0.5234
  756MOL0     H99731   4.162  11.502   6.535  1.6076 -2.2636  1.8893
  756MOL0     H99732   4.159  11.474   6.360 -0.8185 -1.3918 -0.4376
  756MOL0     H99733   4.414  11.483   6.369  0.2590 -3.7191  1.4710
  756MOL0     H99734   4.397  11.523   6.546 -0.7698 -1.7236 -0.2131
  756MOL0     H99735   4.239  11.712   6.460  0.5088 -1.4414  3.5978
  756MOL0     H99736   4.419  11.721   6.460 -2.4693  0.8955  1.8079
  756MOL0     H99737   4.302  11.815   6.258 -3.0954 -0.1643 -0.3663
  756MOL0     H99738   4.239  11.652   6.211  1.5979 -1.4647 -0.3184
  756MOL0     H99739   4.410  11.704   6.070 -0.9095  4.7934 -0.2208
  756MOL0     H99740   4.442  11.574   6.190 -4.4455  0.8686  3.0222
  756MOL0     H99741   4.543  11.865   6.213 -0.1575 -0.2243 -1.7084
  756MOL0     H99742   4.601  11.730   6.313  2.0473 -3.1316  0.3815
  756MOL0     H99743   4.743  11.824   6.115 -0.0963  1.3684 -3.2210
  756MOL0     H99744   4.637  11.733   6.008  0.1936 -0.5252 -0.5345
  756MOL0     H99745   4.833  11.654   6.350  2.2700 -0.8123 -1.1903
  756MOL0     H99746   5.002  11.313   6.308  2.1178 -0.5779  1.2905
  756MOL0     H99747   4.964  11.427   6.427 -2.4773 -0.3326 -0.8695
  756MOL0     H99748   5.120  11.596   6.367 -0.9891 -0.4882 -0.5374
  756MOL0     H99749   5.161  11.521   6.210  1.5575 -1.3510 -0.4528
  756MOL0     H99750   5.214  11.396   6.479 -1.6900 -0.4878 -0.9216
  756MOL0     H99751   5.279  11.350   6.323 -0.6406  0.6703 -0.2917
  756MOL0     H99752   5.354  11.613   6.459 -0.6035  0.0745 -0.6839
  756MOL0     H99753   5.396  11.581   6.302  0.9656  0.1033  0.5285
  756MOL0     H99754   5.666  11.264   6.474  2.2013 -0.5435 -0.7136
  756MOL0     H99755   5.900  11.319   6.482  0.6319  0.6325 -2.5770
  756MOL0     H99756   6.159  11.891   6.631 -3.2018 -0.8719 -2.0886
  756MOL0     H99757   6.392  11.957   6.642  0.7296  0.3503 -0.0928
  756MOL0     H99758   6.706  11.737   6.331  1.2798  1.2493  0.1966
  756MOL0     H99759   6.685  11.669   6.501 -1.6302  0.7790 -0.4205
  756MOL0     H99760   6.842  11.918   6.440  0.1248 -0.6217 -0.2091
  756MOL0     H99761   6.907  11.752   6.433 -1.1116 -1.1543  0.7322
  756MOL0     H99762   6.960  11.875   6.642  1.3675 -0.1176 -0.4846
  756MOL0     H99763   6.888  11.721   6.660  5.3878  0.4908 -1.3155
  756MOL0     H99764   6.767  11.991   6.678  1.0321 -1.0024 -1.8069
  756MOL0     H99765   6.665  11.845   6.695 -0.3715 -0.8820 -0.9066
  756MOL0     H99766   6.908  11.888   6.880  0.4911  1.8204 -3.6630
  756MOL0     H99767   6.770  11.783   6.909  0.5788  0.1266 -0.3801
  756MOL0     H99768   6.625  11.977   6.935  1.0648 -0.3096 -3.5158
  756MOL0     H99769   6.759  12.088   6.902  1.0331  0.6633  0.6255
  756MOL0     H99770   6.737  11.891   7.141 -3.3560  0.8591  0.6881
  756MOL0     H99771   6.873  11.999   7.111 -0.3318 -0.6922 -0.1876
  756MOL0     H99772   6.698  12.059   7.284 -1.7520 -0.1082  0.6256
  756MOL0     H99773   6.582  12.077   7.158  0.6840 -1.6699 -0.2682
  756MOL0     H99774   6.476  11.638   6.349 -2.0394 -0.1192 -0.5030
  756MOL0     H99775   6.267  11.568   6.369 -1.0906  1.0553 -1.9162
  756MOL0     H99776   5.811  11.743   6.494  2.1913 -0.5262  0.2532
  756MOL0     H99777   5.580  11.694   6.451 -0.2039 -0.2144  2.5479
  756MOL0     H99778   3.866  11.164   6.401  1.0350  1.3686  1.1361
  756MOL0     H99779   3.795  10.925   6.449 -0.1718  0.7890 -2.3706
  756MOL0     H99780   3.815  10.650   6.886  1.3570  1.0015 -0.1618
  756MOL0     H99781   3.725  10.436   6.963 -0.5202  0.0918 -0.6607
  756MOL0     H99782   3.913  10.095   6.723 -0.9374  2.2634 -0.3795
  756MOL0     H99783   3.782   9.999   6.791  0.6690  0.6801 -0.7312
  756MOL0     H99784   3.944  10.186   6.969 -1.7427 -0.7116  0.6742
  756MOL0     H99785   3.858  10.044   7.010  1.8171 -0.7518 -0.2239
  756MOL0     H99786   4.147  10.040   6.909 -2.2561  1.3039 -1.9070
  756MOL0     H99787   4.033   9.906   6.878 -0.2772 -0.1381  0.5310
  756MOL0     H99788   4.026   9.856   7.116  0.9383  0.8529  0.9633
  756MOL0     H99789   4.189   9.906   7.075  1.0771  2.6978  1.3859
  756MOL0     H99790   4.023  10.186   7.352  1.0503  1.7162 -0.5367
  756MOL0     H99791   3.878  10.269   6.585 -1.3321  1.5877 -2.8071
  756MOL0     H99792   3.918  10.495   6.497  0.1203  2.8722  0.0344
  757MOL0     O99793   5.447   9.930   1.000 -0.0078 -0.8078 -0.4356
  757MOL0     C99794   5.497   9.985   1.094  0.1433  0.2817 -0.7751
  757MOL0     O99795   5.440  10.074   1.179  0.1934  0.7667 -0.0889
  757MOL0     C99796   5.303  10.097   1.178  0.0579 -0.2592  0.7241
  757MOL0     C99797   5.261  10.227   1.209 -0.2624 -0.5600 -0.3990
  757MOL0     C99798   5.132  10.268   1.196 -0.1254 -0.1581 -0.2537
  757MOL0     C99799   5.026  10.174   1.160 -0.7697 -0.9578 -0.1733
  757MOL0     O99800   4.894  10.197   1.139 -0.5980 -0.8132 -0.0752
  757MOL0     C99801   4.865  10.303   1.056  1.3079 -0.2706  0.5744
  757MOL0     C99802   4.744  10.271   0.969  0.3137  0.1716 -0.3980
  757MOL0     C99803   4.737  10.375   0.854 -0.0488 -0.6844  0.8950
  757MOL0     C99804   4.610  10.332   0.759 -0.2358  0.2479  0.7425
  757MOL0     C99805   4.637  10.217   0.646 -0.0763 -0.2603  0.3477
  757MOL0     C99806   4.773  10.217   0.575 -0.5597  0.1677 -0.2227
  757MOL0     C99807   4.857  10.088   0.591 -0.2878 -0.5528 -0.7683
  757MOL0     C99808   4.995  10.089   0.525  1.0920  0.5121  0.8313
  757MOL0     N99809   5.088  10.188   0.588 -0.5022  0.2184 -0.0918
  757MOL0     C99810   5.135  10.187   0.719 -0.5316 -0.6507 -0.1831
  757MOL0     C99811   5.237  10.277   0.729  0.0519  0.1927  0.5897
  757MOL0     C99812   5.318  10.290   0.852  0.7304  0.0050 -0.7980
  757MOL0     C99813   5.406  10.416   0.855  0.5922  0.4573 -0.3264
  757MOL0     C99814   5.492  10.427   0.990 -0.3595 -0.9239  0.4216
  757MOL0     C99815   5.571  10.554   0.982 -0.7306  0.8312 -0.7084
  757MOL0     O99816   5.635  10.572   1.111 -0.6255 -0.8706 -0.6863
  757MOL0     C99817   5.709  10.692   1.130  1.0512  0.1751  0.2054
  757MOL0     C99818   5.747  10.706   1.269  0.1428  0.1660  0.2765
  757MOL0     C99819   5.824  10.817   1.295 -0.4662  0.8058  0.3728
  757MOL0     C99820   5.857  10.913   1.202 -1.3692 -0.1101  0.2237
  757MOL0     C99821   5.948  11.025   1.234 -0.0617 -0.4994 -0.8585
  757MOL0     O99822   5.974  11.098   1.130 -0.6089 -0.3051 -1.2350
  757MOL0     C99823   6.056  11.206   1.155  0.0411 -0.3668  0.3441
  757MOL0     C99824   6.202  11.199   1.167 -0.0328  0.0960 -0.4078
  757MOL0     C99825   6.276  11.316   1.183  0.5129 -0.4408  0.1456
  757MOL0     C99826   6.220  11.446   1.194 -0.6077  0.0340  1.2105
  757MOL0     O99827   6.298  11.558   1.211 -0.6231 -0.1825 -1.1590
  757MOL0     C99828   6.271  11.655   1.117 -0.5414  0.7274  1.0471
  757MOL0     C99829   6.379  11.760   1.133 -0.4623 -0.2619 -0.3237
  757MOL0     C99830   6.381  11.863   1.020  0.1035 -0.9100 -0.4703
  757MOL0     C99831   6.401  11.807   0.879  0.1920 -0.4205  0.5422
  757MOL0     C99832   6.518  11.697   0.877 -0.2733 -0.7672 -0.3395
  757MOL0     C99833   6.586  11.701   0.740 -0.3673 -0.5600 -0.5756
  757MOL0     C99834   6.681  11.581   0.719 -0.6278  0.7507  0.3839
  757MOL0     C99835   6.676  11.530   0.570 -0.2079  0.2280  0.3333
  757MOL0    Cl99836   6.705  11.673   0.457  0.3664 -0.0836  0.0365
  757MOL0     C99837   6.084  11.454   1.189  0.1209  0.1429 -0.1658
  757MOL0     C99838   6.003  11.332   1.173  0.0554 -0.6343  0.0842
  757MOL0     O99839   5.991  11.053   1.343 -0.3773  0.0595  0.0402
  757MOL0     C99840   5.807  10.900   1.069  0.8941 -0.1534  0.3277
  757MOL0     C99841   5.738  10.787   1.028  0.3560 -0.0053  1.0301
  757MOL0     N99842   5.244  10.331   0.601  0.5604 -0.7881  0.4212
  757MOL0     N99843   5.154  10.282   0.520  0.3486 -0.2606 -0.2697
  757MOL0     C99844   5.073  10.041   1.126  0.4472 -0.6586  0.0980
  757MOL0     C99845   5.203  10.003   1.145 -0.2272 -0.7256  0.1808
  757MOL0     C99846   5.641   9.952   1.123 -0.2650  1.0193  0.3424
  757MOL0     C99847   5.736   9.909   1.029 -0.0956 -0.1160 -0.7147
  757MOL0     C99848   5.871   9.892   1.051  0.2567 -0.3305 -0.1381
  757MOL0     C99849   5.918   9.922   1.183  1.6642 -0.4633 -0.2177
  757MOL0     O99850   6.045   9.920   1.216  0.2655 -1.0282  0.3658
  757MOL0     C99851   6.142   9.918   1.107 -0.0618  0.5082 -0.0354
  757MOL0     C99852   6.277   9.962   1.175 -0.2680 -0.3345  0.8110
  757MOL0     C99853   6.406   9.958   1.091 -0.5343 -0.4882 -0.2858
  757MOL0     C99854   6.400  10.029   0.952  0.6335  0.7429  0.4428
  757MOL0     C99855   6.442  10.168   0.964  0.5051 -0.8575  0.8300
  757MOL0     C99856   6.455  10.290   0.983 -0.3604  0.6097 -0.3038
  757MOL0     C99857   5.826   9.979   1.283  0.1158 -1.5536 -0.2521
  757MOL0     C99858   5.683   9.993   1.252 -0.4921  0.5773 -0.3601
  757MOL0     H99859   5.337  10.297   1.243 -1.9173  1.2506 -0.2403
  757MOL0     H99860   5.108  10.371   1.219  1.5647 -0.1817  1.9053
  757MOL0     H99861   4.949  10.338   0.996 -1.0357 -1.8852 -4.1409
  757MOL0     H99862   4.833  10.386   1.119 -0.0646 -3.0463  3.8844
  757MOL0     H99863   4.658  10.288   1.034  1.2989  0.5654  0.8493
  757MOL0     H99864   4.735  10.166   0.940 -2.2563 -0.8097  3.2339
  757MOL0     H99865   4.830  10.390   0.799 -0.4961 -0.4750  0.1893
  757MOL0     H99866   4.722  10.476   0.892 -1.9569  0.3132 -2.2025
  757MOL0     H99867   4.521  10.306   0.816 -1.9934  3.0673 -0.4961
  757MOL0     H99868   4.583  10.406   0.682 -0.7754  0.3678  1.0419
  757MOL0     H99869   4.552  10.225   0.578 -0.2470  0.8451  0.6768
  757MOL0     H99870   4.621  10.113   0.676 -1.2349  0.3108  1.8257
  757MOL0     H99871   4.837  10.298   0.612  2.8109 -2.6779  0.7432
  757MOL0     H99872   4.770  10.231   0.466  0.3128 -2.1256 -0.6035
  757MOL0     H99873   4.869  10.071   0.698 -0.9660 -0.2395 -0.6343
  757MOL0     H99874   4.798  10.003   0.553  2.4576 -1.1330 -4.3350
  757MOL0     H99875   4.988  10.126   0.422  0.1155 -0.6913  0.4427
  757MOL0     H99876   5.033   9.986   0.524 -0.6497 -0.1830  1.6310
  757MOL0     H99877   5.116  10.112   0.796 -0.2048 -0.0720  0.4766
  757MOL0     H99878   5.391  10.209   0.860  0.1373 -0.6851 -2.1054
  757MOL0     H99879   5.253  10.292   0.940 -0.8160  1.3702 -1.9087
  757MOL0     H99880   5.343  10.505   0.847  0.4296  0.4492  0.7728
  757MOL0     H99881   5.477  10.405   0.772  3.3042 -0.8828  2.0047
  757MOL0     H99882   5.432  10.426   1.081  0.1107 -5.1907  0.8930
  757MOL0     H99883   5.556  10.338   0.998  0.0339 -0.6232  0.6447
  757MOL0     H99884   5.512  10.643   0.960  0.9752  2.0381 -0.4990
  757MOL0     H99885   5.646  10.536   0.905  2.6299  0.0802  2.4372
  757MOL0     H99886   5.715  10.637   1.346 -0.8868  0.4111  0.0957
  757MOL0     H99887   5.870  10.814   1.393  3.8266 -3.1649 -1.4044
  757MOL0     H99888   6.250  11.102   1.168  0.8847  0.5438  0.1734
  757MOL0     H99889   6.384  11.301   1.189  0.5903 -0.9093 -1.7265
  757MOL0     H99890   6.179  11.712   1.134  0.7620  3.3511 -0.1100
  757MOL0     H99891   6.263  11.621   1.014  2.5077 -0.8407  1.1938
  757MOL0     H99892   6.476  11.712   1.146 -1.4205 -1.7807  1.8489
  757MOL0     H99893   6.354  11.823   1.219  2.2317  2.4341 -1.3445
  757MOL0     H99894   6.461  11.936   1.039  1.6290 -2.6446  0.1059
  757MOL0     H99895   6.286  11.916   1.031  0.1543 -1.0540  0.7417
  757MOL0     H99896   6.311  11.781   0.824  0.6639 -1.0820  0.0680
  757MOL0     H99897   6.440  11.890   0.818 -2.9332  1.0530  0.3528
  757MOL0     H99898   6.469  11.599   0.882 -2.5047 -0.1304 -4.6922
  757MOL0     H99899   6.581  11.730   0.961 -2.0413  3.5231 -0.4272
  757MOL0     H99900   6.647  11.792   0.734  0.0281 -0.7856 -0.0839
  757MOL0     H99901   6.505  11.706   0.666 -1.0689 -2.3984  0.0106
  757MOL0     H99902   6.779  11.615   0.751  0.1079 -0.6803 -0.2614
  757MOL0     H99903   6.654  11.496   0.783 -1.4588  1.1579  0.5921
  757MOL0     H99904   6.584  11.476   0.546  0.5594 -0.4262 -1.2507
  757MOL0     H99905   6.754  11.455   0.564 -2.2642 -2.0519  0.6745
  757MOL0     H99906   6.036  11.546   1.220 -1.5610 -0.9056  0.5329
  757MOL0     H99907   5.896  11.344   1.169  0.2281  1.1394  0.3091
  757MOL0     H99908   5.836  10.972   0.992  2.0447  1.6769  2.3695
  757MOL0     H99909   5.696  10.780   0.928 -0.0390  1.2630  1.0960
  757MOL0     H99910   4.991   9.982   1.085  0.2835 -0.3170 -0.0676
  757MOL0     H99911   5.226   9.897   1.141 -1.0353 -0.9155  0.2904
  757MOL0     H99912   5.694   9.882   0.933  1.9343 -4.5017 -0.5991
  757MOL0     H99913   5.930   9.865   0.964  1.1091  0.8214  0.0636
  757MOL0     H99914   6.116   9.983   1.023  2.6617 -1.0157 -2.2470
  757MOL0     H99915   6.164   9.825   1.053  1.9364  2.1382 -2.2728
  757MOL0     H99916   6.258  10.066   1.204 -0.6144  0.4588 -1.9594
  757MOL0     H99917   6.292   9.910   1.270  1.5409  3.4274  2.7954
  757MOL0     H99918   6.418   9.852   1.065  2.3688 -0.2429 -0.2540
  757MOL0     H99919   6.493   9.983   1.152  0.6281 -0.1749 -2.0045
  757MOL0     H99920   6.459   9.988   0.870 -1.6732  0.9884 -1.4540
  757MOL0     H99921   6.312  10.036   0.887  0.0330  0.0831  1.1607
  757MOL0     H99922   6.471  10.395   0.996 -0.6846  0.4756  1.3603
  757MOL0     H99923   5.861  10.020   1.377 -1.4165  2.1850 -1.1606
  757MOL0     H99924   5.620  10.031   1.333  0.4684 -0.1042  0.7420
  758MOL0     O99925   7.231   3.687   1.545 -0.2329 -0.7276  0.0626
  758MOL0     C99926   7.258   3.657   1.420 -0.2075 -0.3136  0.7954
  758MOL0     O99927   7.190   3.564   1.347 -0.0292 -0.2303  0.0573
  758MOL0     C99928   7.087   3.499   1.394  0.0064  0.1847  0.3604
  758MOL0     C99929   7.106   3.407   1.504  0.6281 -0.1864 -0.1274
  758MOL0     C99930   7.004   3.344   1.574  0.7533  0.1542 -0.2914
  758MOL0     C99931   6.872   3.364   1.526  0.2049  0.2647  0.3764
  758MOL0     O99932   6.756   3.314   1.576  0.3726 -1.1130 -0.2342
  758MOL0     C99933   6.773   3.214   1.676  0.2857  1.0284  1.0909
  758MOL0     C99934   6.828   3.094   1.604 -0.3657  0.8559 -0.4354
  758MOL0     C99935   6.775   2.967   1.675  0.7238  0.2269 -0.5282
  758MOL0     C99936   6.638   2.925   1.622 -0.3624 -0.0081 -0.2819
  758MOL0     C99937   6.607   2.773   1.646 -0.4182  0.4730  0.3332
  758MOL0     C99938   6.477   2.728   1.587 -0.0233 -1.7311  0.6341
  758MOL0     C99939   6.479   2.735   1.430 -0.5367 -0.1662  0.7094
  758MOL0     C99940   6.343   2.678   1.371  0.6238  0.0218 -0.1540
  758MOL0     N99941   6.341   2.535   1.362 -0.5325 -0.1041 -0.4854
  758MOL0     C99942   6.416   2.464   1.269  0.0678  0.0614 -0.0404
  758MOL0     C99943   6.412   2.334   1.322 -0.9086 -0.3989 -0.0380
  758MOL0     C99944   6.467   2.202   1.261  0.4494 -1.1287  0.4378
  758MOL0     C99945   6.553   2.123   1.356  0.8233 -1.7345 -0.4666
  758MOL0     C99946   6.576   1.984   1.290 -0.5540  0.8546 -0.0661
  758MOL0     C99947   6.662   1.985   1.160 -0.9617 -0.4754  0.2025
  758MOL0     O99948   6.783   2.054   1.186  0.0574  0.1322 -0.1366
  758MOL0     C99949   6.865   1.995   1.278  0.0390 -0.0010 -0.8540
  758MOL0     C99950   6.889   2.052   1.399  0.1944  1.2653 -0.2006
  758MOL0     C99951   6.997   2.006   1.472 -0.1370 -0.0720 -0.2581
  758MOL0     C99952   7.066   1.897   1.441 -0.6803 -0.4866  0.2635
  758MOL0     C99953   7.182   1.850   1.521  0.9132  0.4445 -0.0317
  758MOL0     O99954   7.230   1.932   1.607 -0.4911 -0.1048  0.1445
  758MOL0     C99955   7.359   1.924   1.650  0.0873 -0.8864 -0.2696
  758MOL0     C99956   7.470   1.887   1.579 -0.2303 -0.5425  0.0068
  758MOL0     C99957   7.597   1.879   1.631 -0.5222  0.4775 -0.4340
  758MOL0     C99958   7.626   1.919   1.771  1.2085  0.6941 -0.3354
  758MOL0     O99959   7.749   1.918   1.832  0.1923  0.4255  0.2814
  758MOL0     C99960   7.761   1.916   1.972  1.3537  0.3239  0.7474
  758MOL0     C99961   7.757   2.054   2.041 -0.1233 -0.5768  0.0970
  758MOL0     C99962   7.876   2.137   1.981  0.2368 -0.7842  0.2196
  758MOL0     C99963   8.013   2.090   2.023 -0.1748 -0.5659 -0.1426
  758MOL0     C99964   8.124   2.192   1.991  0.4975 -0.7569  0.1114
  758MOL0     C99965   8.249   2.122   1.953  0.3662 -0.1686  0.6491
  758MOL0     C99966   8.376   2.195   1.988  0.3374 -0.2538  0.8233
  758MOL0     C99967   8.394   2.331   1.946 -0.1379 -0.8979  0.7191
  758MOL0    Cl99968   8.568   2.382   1.921 -0.2666  0.4196 -0.0439
  758MOL0     C99969   7.504   1.949   1.840 -0.6222 -0.0837 -0.4506
  758MOL0     C99970   7.377   1.952   1.785  0.5843  0.3532 -0.1336
  758MOL0     O99971   7.217   1.736   1.512 -0.8999  0.2401 -0.1693
  758MOL0     C99972   7.038   1.833   1.322 -0.2665  0.6721 -0.0715
  758MOL0     C99973   6.941   1.882   1.235  0.4049 -0.1106 -0.8629
  758MOL0     N99974   6.331   2.332   1.431 -0.0882 -0.1198 -0.2748
  758MOL0     N99975   6.293   2.453   1.453 -0.3844  0.7789  0.2364
  758MOL0     C99976   6.853   3.430   1.406 -0.1285 -0.9154 -0.6267
  758MOL0     C99977   6.959   3.499   1.336 -1.1155  0.0163 -0.1191
  758MOL0     C99978   7.376   3.732   1.361 -0.3426  0.1842 -0.6015
  758MOL0     C99979   7.432   3.705   1.229 -0.2127 -0.2265 -0.4534
  758MOL0     C99980   7.554   3.769   1.178  0.0745  0.3554 -0.2569
  758MOL0     C99981   7.614   3.872   1.255  0.2460 -0.2061  0.1849
  758MOL0     O99982   7.722   3.946   1.219  0.1283 -0.9346  0.1438
  758MOL0     C99983   7.809   3.909   1.106  0.5019  0.2408  0.3344
  758MOL0     C99984   7.957   3.883   1.155  0.3706  0.0271  0.0719
  758MOL0     C99985   8.024   3.779   1.065 -0.1436 -0.0623  0.0826
  758MOL0     C99986   8.131   3.679   1.125 -0.0637  0.1959  0.7707
  758MOL0     C99987   8.093   3.621   1.254  0.1142  0.3352 -0.9127
  758MOL0     C99988   8.018   3.578   1.343 -0.0619  0.7759 -0.9852
  758MOL0     C99989   7.548   3.903   1.375 -0.0091  0.0293 -0.1873
  758MOL0     C99990   7.437   3.831   1.431 -0.2517 -0.5066 -0.6107
  758MOL0     H99991   7.205   3.397   1.546  0.4134  0.3209  0.5180
  758MOL0     H99992   7.020   3.289   1.666 -2.3170  0.8922  0.8022
  758MOL0     H99993   6.676   3.188   1.720  0.9951  0.0649  2.1248
  758MOL0     H99994   6.833   3.247   1.761  0.5089  1.3507  0.8100
  758MOL0     H99995   6.937   3.090   1.605 -0.3932  0.0962  0.1977
  758MOL0     H99996   6.781   3.100   1.505  1.0111 -0.7054 -1.2365
  758MOL0     H99997   6.764   2.971   1.784 -0.4968 -2.2393 -0.4739
  758MOL0     H99998   6.854   2.892   1.662  0.6470  0.3234 -1.6247
  758MOL0     H99999   6.554   2.985   1.656  1.8687  2.9204  0.4753
  758MOL0     H    0   6.633   2.929   1.513  2.0905  0.0298 -0.4548
  758MOL0     H    1   6.584   2.770   1.753 -0.3158 -1.2940  0.3309
  758MOL0     H    2   6.690   2.715   1.607 -1.6417 -1.0305 -0.1273
  758MOL0     H    3   6.400   2.799   1.620 -1.4973 -2.3777 -1.1895
  758MOL0     H    4   6.457   2.627   1.624  2.6217 -3.9671 -3.3494
  758MOL0     H    5   6.484   2.841   1.403 -4.6238  0.0482  0.2634
  758MOL0     H    6   6.567   2.686   1.387 -0.3560  0.2986  0.5398
  758MOL0     H    7   6.327   2.707   1.266  1.7171 -2.2837 -1.0187
  758MOL0     H    8   6.262   2.717   1.434 -2.1116 -0.7496 -2.8802
  758MOL0     H    9   6.461   2.500   1.178 -0.4059  0.0390 -0.2894
  758MOL0     H   10   6.524   2.224   1.170  1.0804  0.3192  1.1474
  758MOL0     H   11   6.369   2.160   1.238 -1.2735  2.5126  0.4048
  758MOL0     H   12   6.493   2.104   1.446  0.1843 -2.1436 -0.9732
  758MOL0     H   13   6.651   2.171   1.363  0.3545 -0.8028 -0.0844
  758MOL0     H   14   6.632   1.923   1.361 -3.0990 -2.3634 -0.5700
  758MOL0     H   15   6.483   1.928   1.280  0.7520 -1.1135 -2.2776
  758MOL0     H   16   6.609   2.030   1.076 -0.8421  3.0379  1.8422
  758MOL0     H   17   6.693   1.887   1.122  1.6316  0.0587  0.7603
  758MOL0     H   18   6.846   2.144   1.437  0.9256  1.9743 -1.0288
  758MOL0     H   19   7.021   2.068   1.558  0.4430  1.5133 -1.5095
  758MOL0     H   20   7.456   1.867   1.473 -2.1693 -0.1090  0.1548
  758MOL0     H   21   7.688   1.855   1.575 -0.4762  0.7999 -0.4981
  758MOL0     H   22   7.853   1.861   1.993  1.0204 -0.3146  0.5371
  758MOL0     H   23   7.682   1.856   2.017  1.8482 -1.8997 -1.1691
  758MOL0     H   24   7.772   2.033   2.147 -0.1765 -3.6174 -0.4113
  758MOL0     H   25   7.656   2.094   2.033 -0.6942 -2.0840 -0.6403
  758MOL0     H   26   7.852   2.242   1.998 -1.8537 -0.3479 -4.0290
  758MOL0     H   27   7.881   2.122   1.873  0.6031  2.9120 -0.4137
  758MOL0     H   28   8.013   2.069   2.131  0.3957  1.7350  0.3679
  758MOL0     H   29   8.029   1.996   1.971 -1.3764 -0.5152 -0.6407
  758MOL0     H   30   8.134   2.250   2.084 -2.2358 -1.0243  0.6312
  758MOL0     H   31   8.092   2.266   1.917 -2.0074  0.2999  2.0976
  758MOL0     H   32   8.247   2.077   1.853 -3.8132  1.5990 -0.2989
  758MOL0     H   33   8.251   2.040   2.026  1.0245 -2.1883 -1.5376
  758MOL0     H   34   8.394   2.205   2.096  0.0759  0.7962  0.7826
  758MOL0     H   35   8.447   2.119   1.954  2.8184  1.5045  1.7284
  758MOL0     H   36   8.345   2.404   2.010  0.5412  1.0301 -0.8622
  758MOL0     H   37   8.342   2.343   1.850 -1.4818  2.4917  1.7574
  758MOL0     H   38   7.509   1.979   1.944 -2.2318 -1.9964  0.2463
  758MOL0     H   39   7.287   1.979   1.841 -2.0547 -2.5309 -2.5907
  758MOL0     H   40   7.085   1.738   1.299 -3.5269 -1.2818  0.5898
  758MOL0     H   41   6.911   1.840   1.139 -2.2989  3.3332 -1.7372
  758MOL0     H   42   6.757   3.433   1.357  0.6572 -1.5275 -2.2564
  758MOL0     H   43   6.947   3.551   1.241  3.3642 -1.4866 -1.7399
  758MOL0     H   44   7.382   3.632   1.165 -1.9578  1.2322 -0.8484
  758MOL0     H   45   7.573   3.769   1.071  0.4803  2.2097 -0.2221
  758MOL0     H   46   7.809   3.995   1.038 -1.3347  2.1792  2.6409
  758MOL0     H   47   7.765   3.820   1.058 -2.6761  1.2796  1.0992
  758MOL0     H   48   8.013   3.976   1.146  0.9286 -0.3240 -0.1879
  758MOL0     H   49   7.969   3.852   1.259 -0.8012 -1.1413 -0.1186
  758MOL0     H   50   8.053   3.823   0.969 -0.9237  0.6863  0.1803
  758MOL0     H   51   7.934   3.719   1.047 -1.1050  1.2772  0.2657
  758MOL0     H   52   8.147   3.597   1.055 -0.4669  0.3090  0.5422
  758MOL0     H   53   8.222   3.738   1.135 -1.7227  3.1013  0.0283
  758MOL0     H   54   7.951   3.564   1.425  1.7196 -0.0365  0.3798
  758MOL0     H   55   7.586   3.982   1.439  1.4644  0.2632 -1.2979
  758MOL0     H   56   7.406   3.855   1.532  1.6476 -1.5590  0.3020
  759MOL0     O   57   2.905   9.504   6.194 -0.4850  0.2533 -0.4220
  759MOL0     C   58   2.914   9.534   6.314 -0.1789  0.2254  0.6096
  759MOL0     O   59   2.863   9.466   6.425 -0.3925 -0.3289  0.3596
  759MOL0     C   60   2.817   9.331   6.416  0.7353  0.0679 -0.8700
  759MOL0     C   61   2.707   9.307   6.511 -0.5761 -0.2161 -1.2714
  759MOL0     C   62   2.658   9.177   6.504  0.9350  0.5666  0.0866
  759MOL0     C   63   2.690   9.076   6.407 -0.6474  0.1417 -0.8673
  759MOL0     O   64   2.613   8.961   6.398 -0.7697 -0.1500 -0.0010
  759MOL0     C   65   2.630   8.874   6.287 -0.4735 -0.3531 -0.7369
  759MOL0     C   66   2.545   8.757   6.329  0.0150  0.1220  0.7270
  759MOL0     C   67   2.563   8.645   6.227  0.2441  0.8401  0.2384
  759MOL0     C   68   2.488   8.523   6.290  0.6116  0.4103 -1.3542
  759MOL0     C   69   2.515   8.395   6.233  0.6117  0.2748  0.2273
  759MOL0     C   70   2.432   8.389   6.104  0.5121  0.0770 -0.0686
  759MOL0     C   71   2.491   8.293   6.000 -0.9324  0.0877 -0.3483
  759MOL0     C   72   2.510   8.155   6.061 -0.5708  0.5292 -0.6328
  759MOL0     N   73   2.397   8.083   6.131 -0.7733  0.4180  0.6750
  759MOL0     C   74   2.366   8.095   6.261 -0.3202  0.5048 -0.1174
  759MOL0     C   75   2.234   8.057   6.281 -0.0732  0.3466 -0.5977
  759MOL0     C   76   2.164   8.057   6.417  0.7296  0.3061 -0.2239
  759MOL0     C   77   2.169   8.179   6.502 -0.0859  0.0195  0.2739
  759MOL0     C   78   2.135   8.302   6.418  0.1203 -0.3974  0.1537
  759MOL0     C   79   2.122   8.421   6.513  0.8317 -0.9048 -0.0444
  759MOL0     O   80   2.017   8.416   6.614  0.8155  0.3789 -0.4913
  759MOL0     C   81   1.954   8.522   6.669  0.4008  0.0126  0.5182
  759MOL0     C   82   1.949   8.653   6.633 -0.4252  0.1038  1.0417
  759MOL0     C   83   1.866   8.752   6.688  0.3103  0.1882 -0.3733
  759MOL0     C   84   1.769   8.704   6.780 -0.5760 -0.0396  0.9838
  759MOL0     C   85   1.671   8.803   6.833 -0.1575 -0.7384 -0.2842
  759MOL0     O   86   1.562   8.757   6.906  0.9815 -0.3621  0.5286
  759MOL0     C   87   1.449   8.836   6.894  0.1870 -0.7642 -1.1258
  759MOL0     C   88   1.394   8.856   6.765  0.1574 -0.5536  0.7002
  759MOL0     C   89   1.288   8.950   6.761  0.9336  0.0533  0.3533
  759MOL0     C   90   1.228   9.002   6.878  0.1153 -0.4876  0.7919
  759MOL0     O   91   1.132   9.099   6.880  0.1384 -0.7420  0.4463
  759MOL0     C   92   0.998   9.046   6.924  0.0570 -0.3341  0.3721
  759MOL0     C   93   0.919   9.003   6.799  1.0534  0.5175  0.4042
  759MOL0     C   94   0.868   9.123   6.721  0.6609  0.0400 -0.6342
  759MOL0     C   95   0.809   9.080   6.584 -0.0054  0.4665  0.1562
  759MOL0     C   96   0.778   9.186   6.478  0.6295 -0.5149 -0.7727
  759MOL0     C   97   0.882   9.297   6.477 -0.1241 -0.3804 -0.1566
  759MOL0     C   98   0.844   9.422   6.385  0.4666 -0.0396 -0.2434
  759MOL0     C   99   0.846   9.400   6.231 -0.3515 -0.0508 -0.0530
  759MOL0    Cl  100   1.005   9.338   6.164 -0.0579  0.0822 -0.1367
  759MOL0     C  101   1.281   8.973   7.000 -0.0772 -0.2931 -0.5829
  759MOL0     C  102   1.400   8.902   7.009 -0.5853  0.2731  0.5447
  759MOL0     O  103   1.675   8.912   6.783  0.4885 -0.1552 -0.0727
  759MOL0     C  104   1.768   8.569   6.814 -0.3385  0.2694 -0.4621
  759MOL0     C  105   1.860   8.482   6.768  0.2974  0.2540  0.8988
  759MOL0     N  106   2.178   8.022   6.158 -0.7343  0.5178 -0.2871
  759MOL0     N  107   2.277   8.044   6.074 -0.7650 -0.3206 -0.5825
  759MOL0     C  108   2.797   9.099   6.330 -0.3753  0.1008  0.0207
  759MOL0     C  109   2.861   9.224   6.339  1.1352 -0.7127 -0.0356
  759MOL0     C  110   2.995   9.654   6.345  0.1275 -0.4567 -0.2848
  759MOL0     C  111   3.091   9.725   6.266  0.5155  0.1979  0.7560
  759MOL0     C  112   3.154   9.838   6.316  0.2882  1.2898  0.8407
  759MOL0     C  113   3.126   9.892   6.440  0.1783 -0.7972 -0.0927
  759MOL0     O  114   3.194  10.012   6.468  0.7705  1.5078 -0.4012
  759MOL0     C  115   3.247  10.034   6.596 -0.6073 -0.4530 -0.7778
  759MOL0     C  116   3.392   9.973   6.597  0.7693 -0.1824  0.3983
  759MOL0     C  117   3.474  10.042   6.490  0.2194 -0.2425  0.1146
  759MOL0     C  118   3.619  10.039   6.549  0.1157  0.0250  0.7162
  759MOL0     C  119   3.731  10.048   6.452  0.4380 -0.1748  0.2915
  759MOL0     C  120   3.832  10.044   6.383  1.1678 -0.4364  0.2092
  759MOL0     C  121   3.027   9.833   6.520  0.7265  0.6891 -0.1303
  759MOL0     C  122   2.966   9.714   6.470  0.3307  0.5372 -0.4348
  759MOL0     H  123   2.668   9.384   6.577 -0.9040 -0.8235 -0.7559
  759MOL0     H  124   2.578   9.157   6.575  2.0153  1.5683  1.6524
  759MOL0     H  125   2.731   8.858   6.248 -1.5720  0.5198 -4.2155
  759MOL0     H  126   2.575   8.930   6.212  0.1203  2.0406  0.5091
  759MOL0     H  127   2.441   8.789   6.331 -0.5068 -1.4358  0.1589
  759MOL0     H  128   2.576   8.732   6.431 -1.6050 -0.6358  1.0590
  759MOL0     H  129   2.671   8.626   6.228 -0.1799 -2.0208  1.5784
  759MOL0     H  130   2.538   8.674   6.125  1.0062  0.4492 -0.0625
  759MOL0     H  131   2.523   8.523   6.393  0.5323  1.2160 -1.3151
  759MOL0     H  132   2.381   8.544   6.288  0.7291  1.6847  1.5260
  759MOL0     H  133   2.494   8.317   6.307  2.4178 -1.4807 -1.0118
  759MOL0     H  134   2.620   8.376   6.209 -0.1390 -3.2396 -0.8282
  759MOL0     H  135   2.407   8.484   6.057 -0.6056  1.6330  3.3385
  759MOL0     H  136   2.332   8.350   6.126 -0.3967  1.6739 -1.1712
  759MOL0     H  137   2.427   8.292   5.911 -1.8449  1.5498  0.2537
  759MOL0     H  138   2.586   8.332   5.963 -0.1157 -0.7336  0.8074
  759MOL0     H  139   2.594   8.161   6.131 -2.6864 -0.2478  2.1305
  759MOL0     H  140   2.538   8.081   5.986 -1.3246 -1.5833  1.0825
  759MOL0     H  141   2.428   8.120   6.346 -2.6924  0.0511  1.8807
  759MOL0     H  142   2.202   7.976   6.480 -0.5536 -0.6792 -0.6892
  759MOL0     H  143   2.062   8.021   6.406  1.1906 -1.8513  1.7180
  759MOL0     H  144   2.270   8.191   6.541  0.6260 -0.4045 -1.3475
  759MOL0     H  145   2.095   8.176   6.583  0.2578  2.4108  0.7439
  759MOL0     H  146   2.213   8.323   6.345 -1.4007  0.8130 -1.2083
  759MOL0     H  147   2.044   8.288   6.358  0.1884  1.7445 -0.5268
  759MOL0     H  148   2.101   8.509   6.451  0.3444 -1.0234 -0.0520
  759MOL0     H  149   2.218   8.415   6.565  2.4389 -0.8252 -2.8034
  759MOL0     H  150   2.020   8.687   6.559 -3.1503 -0.0065 -1.8113
  759MOL0     H  151   1.874   8.854   6.652 -0.1863  0.6543  0.7675
  759MOL0     H  152   1.417   8.823   6.664  0.4513  0.7310  0.3401
  759MOL0     H  153   1.254   8.976   6.661 -0.2835 -3.0483 -0.1529
  759MOL0     H  154   0.941   9.124   6.975  0.5499 -1.0941  2.1710
  759MOL0     H  155   1.006   8.958   6.989 -3.4013 -1.9149 -1.1258
  759MOL0     H  156   0.846   8.925   6.823  3.5405 -1.0975  3.6009
  759MOL0     H  157   0.982   8.947   6.730  1.7378  0.6141  0.9405
  759MOL0     H  158   0.959   9.178   6.698  1.3004 -0.2386  1.0442
  759MOL0     H  159   0.793   9.178   6.779  3.6915  1.2667  2.4646
  759MOL0     H  160   0.892   9.018   6.547 -1.0862 -0.0728 -1.4710
  759MOL0     H  161   0.722   9.016   6.601 -1.2262  2.1694  0.6042
  759MOL0     H  162   0.685   9.230   6.516  0.9871  2.7657 -3.2528
  759MOL0     H  163   0.768   9.143   6.378 -0.9736 -1.2778 -0.3219
  759MOL0     H  164   0.974   9.255   6.435  0.8433  3.0145 -1.7452
  759MOL0     H  165   0.891   9.339   6.577 -0.6886 -0.7115  0.0390
  759MOL0     H  166   0.753   9.476   6.412  3.0510  4.4550  0.4475
  759MOL0     H  167   0.932   9.485   6.402  0.8541 -0.9068  1.1482
  759MOL0     H  168   0.838   9.501   6.190 -1.2748  0.0005  0.2153
  759MOL0     H  169   0.765   9.337   6.193  1.3975 -0.8233 -2.7584
  759MOL0     H  170   1.249   9.018   7.094 -0.6327 -1.3649 -0.2491
  759MOL0     H  171   1.454   8.889   7.102  1.0487  3.2555  0.1447
  759MOL0     H  172   1.700   8.537   6.893 -1.4212 -1.4898 -2.0321
  759MOL0     H  173   1.848   8.374   6.772 -0.3897  0.3477  1.5206
  759MOL0     H  174   2.855   9.026   6.274 -2.0939 -0.0315 -1.6514
  759MOL0     H  175   2.937   9.246   6.264 -0.3585 -0.6176 -1.5890
  759MOL0     H  176   3.123   9.694   6.166 -0.5082 -1.9200  1.0179
  759MOL0     H  177   3.235   9.893   6.269  2.6029 -1.5622  1.2739
  759MOL0     H  178   3.200   9.984   6.681  0.1891 -0.4313 -0.3127
  759MOL0     H  179   3.254  10.142   6.611 -1.0849 -0.3800 -1.0592
  759MOL0     H  180   3.445   9.990   6.691 -1.0369 -0.3661  1.5089
  759MOL0     H  181   3.387   9.866   6.573  0.6650 -0.2788  0.8515
  759MOL0     H  182   3.455  10.149   6.474  1.6102  0.1826  1.1324
  759MOL0     H  183   3.449   9.991   6.396  0.1262  1.2339 -0.7041
  759MOL0     H  184   3.625  10.111   6.630  0.0552  1.9850 -0.9316
  759MOL0     H  185   3.636   9.938   6.588 -1.8443 -0.4223  0.5489
  759MOL0     H  186   3.918  10.051   6.320  2.1626  2.2289  1.7233
  759MOL0     H  187   2.997   9.864   6.620  5.2396  0.9479  1.3834
  759MOL0     H  188   2.890   9.673   6.535  2.3883 -0.3879  1.5055
  760MOL0     O  189   7.435   7.360   5.494  0.0469  0.7296  1.0723
  760MOL0     C  190   7.553   7.364   5.489  0.4124  0.2992 -0.1762
  760MOL0     O  191   7.625   7.443   5.404  0.3920  0.3378 -0.2857
  760MOL0     C  192   7.553   7.514   5.304 -0.1200  0.1645 -0.2207
  760MOL0     C  193   7.478   7.624   5.333  0.2772  0.5170  0.4150
  760MOL0     C  194   7.415   7.696   5.230 -0.6859 -0.2564 -0.1577
  760MOL0     C  195   7.419   7.648   5.094  0.4637 -0.3313 -0.1458
  760MOL0     O  196   7.349   7.691   4.984 -0.3202 -0.2624 -0.7366
  760MOL0     C  197   7.246   7.792   5.003 -0.7587  0.4752  0.0524
  760MOL0     C  198   7.128   7.754   5.096 -0.3043 -0.6033  0.5067
  760MOL0     C  199   6.992   7.818   5.053 -0.4100 -0.0947 -0.6727
  760MOL0     C  200   6.891   7.799   5.167 -0.9714 -0.1023  0.7027
  760MOL0     C  201   6.784   7.898   5.171  0.9630 -1.1203 -0.1656
  760MOL0     C  202   6.676   7.885   5.062  0.6055  1.0975 -0.6592
  760MOL0     C  203   6.549   7.975   5.098 -0.9966 -0.1370 -0.6369
  760MOL0     C  204   6.471   7.925   5.216  0.2347 -0.4759  0.7143
  760MOL0     N  205   6.379   7.812   5.180  0.3520 -1.3373 -1.5521
  760MOL0     C  206   6.241   7.809   5.167 -0.0076 -0.0608 -0.7725
  760MOL0     C  207   6.206   7.680   5.154 -0.5671 -0.4554  1.0167
  760MOL0     C  208   6.059   7.650   5.166 -0.1923  0.4868 -0.2189
  760MOL0     C  209   6.015   7.498   5.140  0.4603 -0.2663 -0.0474
  760MOL0     C  210   6.048   7.462   4.987 -0.1519 -0.7840 -0.1250
  760MOL0     C  211   5.958   7.350   4.937 -0.1843  0.3707 -0.1206
  760MOL0     O  212   5.825   7.412   4.925  0.5955 -0.1511  0.4129
  760MOL0     C  213   5.722   7.335   4.865 -0.1034  0.2529  0.3302
  760MOL0     C  214   5.736   7.206   4.814 -0.1318 -0.8106 -1.2182
  760MOL0     C  215   5.620   7.137   4.768 -0.6822 -0.1609  0.6735
  760MOL0     C  216   5.495   7.201   4.753  0.3803  0.3851 -0.2161
  760MOL0     C  217   5.389   7.140   4.676 -0.5156  0.0647  0.1978
  760MOL0     O  218   5.354   7.012   4.718  0.1692 -0.3668 -0.0237
  760MOL0     C  219   5.258   6.938   4.648  0.4829  0.3677  0.2206
  760MOL0     C  220   5.217   6.815   4.708  0.3396 -0.0241  1.1151
  760MOL0     C  221   5.135   6.721   4.643 -0.0818  0.9165  0.0902
  760MOL0     C  222   5.082   6.738   4.517 -0.5766 -0.5022 -0.0956
  760MOL0     O  223   5.004   6.649   4.450  0.2423 -0.3135 -0.9666
  760MOL0     C  224   4.992   6.518   4.503 -0.3484 -0.4470  0.1025
  760MOL0     C  225   4.891   6.498   4.614 -0.0246  1.0227 -0.8555
  760MOL0     C  226   4.775   6.600   4.621  0.4447 -0.5195  1.5391
  760MOL0     C  227   4.692   6.595   4.752 -0.2552  0.3512  0.0969
  760MOL0     C  228   4.560   6.682   4.732  0.6150 -0.1693  0.6047
  760MOL0     C  229   4.581   6.838   4.726 -0.7146 -0.5049 -0.0650
  760MOL0     C  230   4.654   6.905   4.845  0.4878 -0.3039 -0.5040
  760MOL0     C  231   4.600   6.859   4.987 -0.4237 -0.3733 -0.1647
  760MOL0    Cl  232   4.610   7.000   5.101 -0.2961  0.0023 -0.0601
  760MOL0     C  233   5.109   6.863   4.452  0.0488  0.0522 -0.6398
  760MOL0     C  234   5.192   6.965   4.510  0.3361 -0.3223 -0.6787
  760MOL0     O  235   5.354   7.202   4.578  0.4298  0.0454 -0.1757
  760MOL0     C  236   5.487   7.333   4.786 -0.4431 -0.8184  0.4047
  760MOL0     C  237   5.593   7.399   4.851  0.1907  0.2465  0.1309
  760MOL0     N  238   6.315   7.605   5.147  1.2236  1.0132  0.5030
  760MOL0     N  239   6.417   7.691   5.159  0.1542  1.5418  0.2104
  760MOL0     C  240   7.510   7.543   5.068  0.4519 -0.2620 -0.1038
  760MOL0     C  241   7.564   7.468   5.173 -0.3090  0.9743  0.1127
  760MOL0     C  242   7.623   7.275   5.587  0.2938 -0.4864 -1.0354
  760MOL0     C  243   7.603   7.131   5.609 -0.7486 -0.3614  0.3133
  760MOL0     C  244   7.672   7.055   5.703  0.4701  0.5902  0.7199
  760MOL0     C  245   7.767   7.119   5.785  0.7511 -0.9124 -0.0386
  760MOL0     O  246   7.850   7.063   5.877 -0.2234 -0.3551 -0.2117
  760MOL0     C  247   7.866   6.927   5.881 -0.6553  0.0295  0.7730
  760MOL0     C  248   7.954   6.883   6.002  0.5975  0.4362 -0.3063
  760MOL0     C  249   7.924   6.946   6.138  0.6859 -0.3787 -0.2442
  760MOL0     C  250   7.958   7.089   6.174 -1.2471  0.4048 -0.0532
  760MOL0     C  251   8.101   7.092   6.206 -0.1833  0.1244 -0.1214
  760MOL0     C  252   8.223   7.095   6.229  0.7483  0.5479 -0.2570
  760MOL0     C  253   7.796   7.250   5.751 -0.2376 -0.3963  0.3064
  760MOL0     C  254   7.727   7.331   5.663 -0.0847  0.8041  0.2157
  760MOL0     H  255   7.449   7.653   5.433 -0.4902 -0.0974  0.3770
  760MOL0     H  256   7.361   7.784   5.263  2.6211  1.8719  0.1531
  760MOL0     H  257   7.207   7.816   4.903 -1.0126  1.8444  0.4613
  760MOL0     H  258   7.295   7.882   5.041 -0.2231  0.1014  0.2605
  760MOL0     H  259   7.154   7.770   5.201  0.3103 -0.0207  0.2722
  760MOL0     H  260   7.110   7.646   5.085 -1.9127 -0.3249  0.1982
  760MOL0     H  261   6.954   7.759   4.969  0.2823 -3.1493  0.9837
  760MOL0     H  262   7.006   7.925   5.035  1.6967  0.2000  2.0294
  760MOL0     H  263   6.854   7.696   5.161 -0.4873 -0.2806  0.7630
  760MOL0     H  264   6.950   7.819   5.257 -0.9892  0.3218  0.6214
  760MOL0     H  265   6.816   8.002   5.184 -2.6929 -0.1752  3.7001
  760MOL0     H  266   6.736   7.860   5.262 -1.2519  1.5819 -0.0471
  760MOL0     H  267   6.657   7.779   5.041 -0.6310  1.7041 -3.0252
  760MOL0     H  268   6.732   7.923   4.976  2.0054  0.1690 -0.1893
  760MOL0     H  269   6.604   8.068   5.117  0.7590 -1.4264  1.0792
  760MOL0     H  270   6.493   7.992   5.006  1.1582  1.1546 -1.7812
  760MOL0     H  271   6.404   8.006   5.247  0.9614  1.1900 -1.7624
  760MOL0     H  272   6.542   7.892   5.292  2.9038 -0.5052 -1.6329
  760MOL0     H  273   6.164   7.886   5.174  1.1318  1.1594 -1.3834
  760MOL0     H  274   6.003   7.717   5.100  1.3780  0.0352 -2.0883
  760MOL0     H  275   6.020   7.676   5.266 -1.5020  1.9645 -1.0601
  760MOL0     H  276   5.909   7.489   5.163  0.5369 -1.9490 -0.2669
  760MOL0     H  277   6.074   7.433   5.205  3.2534 -1.1386 -3.1625
  760MOL0     H  278   6.030   7.543   4.915 -2.8046 -1.9374 -0.8892
  760MOL0     H  279   6.154   7.438   4.977 -0.2301 -1.2831  0.2188
  760MOL0     H  280   5.968   7.272   5.013 -0.8933  0.9878  0.6252
  760MOL0     H  281   5.996   7.314   4.841 -0.3677 -0.7104  0.1955
  760MOL0     H  282   5.836   7.164   4.806  0.8472  1.0814  0.4611
  760MOL0     H  283   5.625   7.031   4.746 -0.5666 -0.6362  2.7782
  760MOL0     H  284   5.266   6.789   4.801  2.1805 -1.7849 -0.2659
  760MOL0     H  285   5.113   6.627   4.692 -1.3795 -0.1521 -2.3701
  760MOL0     H  286   5.093   6.484   4.526 -0.4994 -0.7424  0.3502
  760MOL0     H  287   4.962   6.454   4.419  0.0192 -0.3263 -0.1176
  760MOL0     H  288   4.940   6.491   4.712 -0.4814  0.3040 -0.6679
  760MOL0     H  289   4.853   6.396   4.603  0.2136  0.7796  0.3661
  760MOL0     H  290   4.702   6.586   4.540  0.2767  1.3323  1.3330
  760MOL0     H  291   4.827   6.696   4.615  2.3893 -1.6086 -1.9131
  760MOL0     H  292   4.664   6.490   4.761  0.2018  0.3798  2.1349
  760MOL0     H  293   4.750   6.626   4.839  1.0748 -4.2821  1.1183
  760MOL0     H  294   4.480   6.670   4.806 -1.0887  4.2175 -0.2478
  760MOL0     H  295   4.529   6.636   4.638 -0.3983  0.4604  0.6237
  760MOL0     H  296   4.485   6.889   4.708 -1.3778 -1.9358 -0.7754
  760MOL0     H  297   4.646   6.862   4.642 -0.4280 -1.9481 -0.2765
  760MOL0     H  298   4.763   6.894   4.838  0.4291  0.2323 -2.8458
  760MOL0     H  299   4.632   7.012   4.833 -1.1501 -0.3673  1.4239
  760MOL0     H  300   4.657   6.771   5.021 -3.4910 -2.8300 -0.8749
  760MOL0     H  301   4.495   6.831   4.988 -0.6543  0.4538 -1.0444
  760MOL0     H  302   5.065   6.902   4.361  3.2962  2.4814 -1.3483
  760MOL0     H  303   5.209   7.058   4.456 -0.7913  1.1462  1.3770
  760MOL0     H  304   5.396   7.389   4.765 -1.1722 -2.0100  0.3007
  760MOL0     H  305   5.586   7.495   4.901 -0.2302  1.9123 -2.8554
  760MOL0     H  306   7.545   7.521   4.968  1.2931  1.6172 -0.2678
  760MOL0     H  307   7.632   7.385   5.160 -1.6316 -0.2497  0.7415
  760MOL0     H  308   7.518   7.090   5.555 -0.9185  0.0031  0.3037
  760MOL0     H  309   7.639   6.952   5.712  0.9205 -0.0608 -3.2842
  760MOL0     H  310   7.895   6.883   5.785  0.4160 -0.6167  1.3776
  760MOL0     H  311   7.762   6.896   5.896 -1.3976  1.2366 -1.3901
  760MOL0     H  312   7.960   6.774   6.012  1.4808  0.6598  2.4697
  760MOL0     H  313   8.057   6.913   5.982  1.0497 -0.8380 -0.0310
  760MOL0     H  314   7.969   6.877   6.210 -0.4832 -1.8394 -0.8639
  760MOL0     H  315   7.817   6.947   6.157  0.8441  3.8972  1.6900
  760MOL0     H  316   7.941   7.170   6.103 -0.0305  0.6608 -0.0827
  760MOL0     H  317   7.912   7.127   6.266  1.0489 -0.4103  1.5387
  760MOL0     H  318   8.320   7.100   6.274 -0.3059 -2.6938  2.9236
  760MOL0     H  319   7.880   7.293   5.805 -0.1773 -2.3467  1.8726
  760MOL0     H  320   7.744   7.437   5.649 -1.2733  1.1724  1.4376
  761MOL0     O  321   2.360  10.953   5.954 -0.0161 -0.0664  0.9083
  761MOL0     C  322   2.333  10.832   5.931 -0.0784 -0.1892 -0.9604
  761MOL0     O  323   2.216  10.767   5.955  0.0004  0.5159 -0.0622
  761MOL0     C  324   2.108  10.827   6.017 -0.3392  0.4366 -0.1110
  761MOL0     C  325   2.119  10.926   6.110  1.1032  1.0414  0.4121
  761MOL0     C  326   2.004  10.969   6.182 -0.3130  0.1562 -0.5344
  761MOL0     C  327   1.879  10.911   6.161  0.6479 -0.8970 -0.1760
  761MOL0     O  328   1.772  10.971   6.234 -0.0583 -0.0051 -0.6036
  761MOL0     C  329   1.651  10.934   6.173  0.0971  0.0981 -0.5507
  761MOL0     C  330   1.551  11.039   6.208 -0.5643 -0.7922  0.0485
  761MOL0     C  331   1.592  11.183   6.211  0.0279  0.1472 -0.3223
  761MOL0     C  332   1.487  11.279   6.285 -0.8445 -0.1676  0.0444
  761MOL0     C  333   1.348  11.283   6.223 -0.1114  0.6383  0.4717
  761MOL0     C  334   1.346  11.324   6.075  0.8170 -0.0840 -0.1693
  761MOL0     C  335   1.205  11.328   6.016  0.0260 -0.0595 -0.0303
  761MOL0     C  336   1.218  11.359   5.868  0.5710  0.5769 -0.3160
  761MOL0     N  337   1.079  11.357   5.818  0.2266 -0.0381  0.1578
  761MOL0     C  338   1.019  11.454   5.740 -0.3128  0.4018  0.1337
  761MOL0     C  339   0.900  11.400   5.707 -0.3514 -0.0322 -0.4990
  761MOL0     C  340   0.788  11.464   5.631  0.9221 -1.0164  0.0373
  761MOL0     C  341   0.725  11.566   5.732  0.6604 -0.1947  0.7346
  761MOL0     C  342   0.592  11.632   5.697  0.2311  0.3585 -0.2370
  761MOL0     C  343   0.509  11.672   5.819  0.2977 -0.1368 -1.1225
  761MOL0     O  344   0.601  11.774   5.872  0.3506 -0.4146 -0.1041
  761MOL0     C  345   0.571  11.839   5.986 -0.0365  0.3289  0.0330
  761MOL0     C  346   0.664  11.928   6.035  0.4704 -0.3398 -0.5309
  761MOL0     C  347   0.633  12.012   6.139  0.8237 -0.4947 -0.1280
  761MOL0     C  348   0.517  12.006   6.215 -0.3698  0.7407  0.0207
  761MOL0     C  349   0.488  12.100   6.331  0.2197  1.4708  0.8376
  761MOL0     O  350   0.356  12.088   6.371  0.0122  0.3860  0.1083
  761MOL0     C  351   0.322  12.170   6.472  0.0487  0.0301  1.1937
  761MOL0     C  352   0.209  12.252   6.443  0.7712  0.4044 -0.1679
  761MOL0     C  353   0.160  12.319   6.555  0.7504  0.0330 -0.4923
  761MOL0     C  354   0.220  12.328   6.682 -0.4282 -0.6017  0.2745
  761MOL0     O  355   0.180  12.397   6.792  0.7878 -0.7357  1.2823
  761MOL0     C  356   0.036  12.407   6.815 -0.6006 -0.3573  0.1867
  761MOL0     C  357   0.008  12.481   6.950 -0.1755  0.4819 -0.4721
  761MOL0     C  358   0.058  12.395   7.063 -0.8185  0.2294  0.4093
  761MOL0     C  359   0.017  12.447   7.206  0.2664 -0.8183  0.0467
  761MOL0     C  360  -0.133  12.433   7.235  0.1291 -0.4049 -0.8573
  761MOL0     C  361  -0.196  12.289   7.218  0.1733 -0.1173  1.2215
  761MOL0     C  362  -0.343  12.270   7.257  0.1130  0.6556  0.0779
  761MOL0     C  363  -0.352  12.285   7.411  0.4602  0.0476 -0.3228
  761MOL0    Cl  364  -0.534  12.273   7.447  0.1884  0.0984 -0.0610
  761MOL0     C  365   0.330  12.243   6.702  0.5245  0.3840 -1.1576
  761MOL0     C  366   0.374  12.166   6.593 -1.0892  0.0696 -0.4498
  761MOL0     O  367   0.568  12.184   6.368 -0.3399 -0.4406  0.4156
  761MOL0     C  368   0.416  11.915   6.167  0.3083  0.2329  0.3116
  761MOL0     C  369   0.441  11.832   6.050 -0.1940 -0.4358  0.7652
  761MOL0     N  370   0.907  11.271   5.751  0.0376 -0.0801 -0.7811
  761MOL0     N  371   1.007  11.242   5.816 -0.6201  0.3458  0.5151
  761MOL0     C  372   1.872  10.800   6.067  0.1338  0.1850 -0.8250
  761MOL0     C  373   1.987  10.758   5.998  0.8773 -0.8927  0.1880
  761MOL0     C  374   2.443  10.765   5.852 -0.2287 -0.5991 -0.9432
  761MOL0     C  375   2.572  10.825   5.828  0.4519 -0.5146  0.3801
  761MOL0     C  376   2.674  10.771   5.764 -0.4951 -0.4098  0.9090
  761MOL0     C  377   2.654  10.644   5.710  0.5733  1.0138  0.1310
  761MOL0     O  378   2.744  10.573   5.624  0.1360  0.0411 -0.1323
  761MOL0     C  379   2.876  10.620   5.637 -0.0638  0.0091 -0.2250
  761MOL0     C  380   2.966  10.554   5.535 -0.3761  0.3928  1.4522
  761MOL0     C  381   2.938  10.595   5.388 -0.1116  0.2578 -0.3050
  761MOL0     C  382   3.052  10.535   5.308  0.2410 -0.3549  0.4938
  761MOL0     C  383   3.013  10.549   5.167 -0.0147  0.2104 -0.7099
  761MOL0     C  384   2.993  10.557   5.054  0.9919  0.5885 -0.0590
  761MOL0     C  385   2.528  10.578   5.722  0.5676 -0.2650  0.2404
  761MOL0     C  386   2.425  10.635   5.798 -0.9864  0.1112 -0.5109
  761MOL0     H  387   2.209  10.981   6.132 -0.6611  3.7826  1.3357
  761MOL0     H  388   2.014  11.047   6.257 -2.2311 -2.2013  2.4198
  761MOL0     H  389   1.614  10.839   6.214  2.3288 -0.8656 -0.6321
  761MOL0     H  390   1.649  10.931   6.063  0.8392  2.2829 -0.6768
  761MOL0     H  391   1.513  11.024   6.310 -1.0905 -1.2241 -0.2103
  761MOL0     H  392   1.469  11.018   6.140 -1.3754 -3.2441  1.6697
  761MOL0     H  393   1.616  11.220   6.111  0.0706  2.0017  0.3425
  761MOL0     H  394   1.686  11.190   6.266 -1.3115 -2.5259  2.6369
  761MOL0     H  395   1.478  11.249   6.389 -1.5333 -0.1630 -0.0127
  761MOL0     H  396   1.522  11.382   6.278 -3.9644  1.2132  2.6998
  761MOL0     H  397   1.283  11.340   6.289  1.1321 -0.6728  2.9761
  761MOL0     H  398   1.304  11.183   6.226 -0.5563  0.7576 -1.1827
  761MOL0     H  399   1.395  11.239   6.025 -2.4538 -2.1245 -0.2118
  761MOL0     H  400   1.405  11.415   6.065  0.7995  0.1201  1.2955
  761MOL0     H  401   1.157  11.231   6.031 -1.5416  0.6322 -0.3449
  761MOL0     H  402   1.143  11.410   6.054  0.3131  0.9344 -1.6245
  761MOL0     H  403   1.278  11.280   5.823 -0.6739 -1.2215  1.0408
  761MOL0     H  404   1.269  11.452   5.840 -0.2327  0.8834 -0.8009
  761MOL0     H  405   1.056  11.551   5.707 -0.3452 -0.0053 -1.1704
  761MOL0     H  406   0.720  11.390   5.588  1.0031  0.5731 -3.0465
  761MOL0     H  407   0.843  11.511   5.550  0.4407 -0.8685 -0.2069
  761MOL0     H  408   0.795  11.647   5.751  0.4468  0.4665 -1.1380
  761MOL0     H  409   0.718  11.520   5.831 -0.2311  1.2557  1.3834
  761MOL0     H  410   0.604  11.715   5.627 -0.5840  1.4257  0.8416
  761MOL0     H  411   0.529  11.555   5.650  1.2978 -0.1034 -0.9560
  761MOL0     H  412   0.517  11.590   5.891  3.1426  0.5710 -0.4957
  761MOL0     H  413   0.407  11.706   5.802 -0.7737 -1.7537  1.4741
  761MOL0     H  414   0.762  11.930   5.988  0.3198 -3.2511 -1.1640
  761MOL0     H  415   0.712  12.080   6.171 -0.4039  0.6587  0.5384
  761MOL0     H  416   0.178  12.246   6.340  0.0911 -0.3943  0.0677
  761MOL0     H  417   0.068  12.375   6.542  1.2684  0.8147 -0.9053
  761MOL0     H  418  -0.007  12.306   6.809 -1.1150 -0.0762 -1.4276
  761MOL0     H  419  -0.016  12.458   6.733 -0.7566 -0.4979  0.1948
  761MOL0     H  420  -0.100  12.489   6.969  0.0009  1.6045  0.1598
  761MOL0     H  421   0.050  12.582   6.956  0.0025  0.3320  1.3500
  761MOL0     H  422   0.167  12.409   7.066 -0.9115  1.6146 -1.0858
  761MOL0     H  423   0.036  12.289   7.048 -0.4887  0.1251  0.6534
  761MOL0     H  424   0.082  12.397   7.279 -0.5645 -3.3281 -0.8454
  761MOL0     H  425   0.030  12.556   7.211 -2.9683 -0.2911 -0.6673
  761MOL0     H  426  -0.187  12.508   7.177  0.0549  0.0414 -0.2253
  761MOL0     H  427  -0.144  12.464   7.339  0.9419  2.5706 -1.5783
  761MOL0     H  428  -0.142  12.209   7.270  2.9357  0.1864 -0.9079
  761MOL0     H  429  -0.195  12.266   7.111  0.2553 -3.6667  1.8668
  761MOL0     H  430  -0.412  12.342   7.213  0.1511  0.8370  0.3091
  761MOL0     H  431  -0.362  12.166   7.230 -0.0202  0.8612 -0.6393
  761MOL0     H  432  -0.318  12.381   7.452  0.7000  1.2706 -3.1152
  761MOL0     H  433  -0.289  12.219   7.470  3.4713  1.3616 -1.8590
  761MOL0     H  434   0.382  12.236   6.797  1.7280 -0.6064 -1.8555
  761MOL0     H  435   0.433  12.079   6.619  1.1111  0.5280 -3.3409
  761MOL0     H  436   0.320  11.911   6.217 -0.0487 -0.7285 -0.4255
  761MOL0     H  437   0.364  11.759   6.025  1.1120 -1.7730  0.5261
  761MOL0     H  438   1.778  10.746   6.059 -0.4070  0.6002  1.7681
  761MOL0     H  439   1.982  10.673   5.930  3.6810 -0.3759 -0.8071
  761MOL0     H  440   2.591  10.925   5.864 -0.1425  0.4912 -1.9363
  761MOL0     H  441   2.765  10.828   5.747 -0.0086 -0.9475  1.6187
  761MOL0     H  442   2.910  10.596   5.738  0.0738 -0.5216 -0.3961
  761MOL0     H  443   2.893  10.728   5.625 -0.6231 -0.0235 -1.4012
  761MOL0     H  444   3.071  10.572   5.559  0.6280 -0.4018 -1.8200
  761MOL0     H  445   2.957  10.445   5.533  0.1872  0.3501  1.0216
  761MOL0     H  446   2.926  10.703   5.379 -0.4733  0.1557 -1.0869
  761MOL0     H  447   2.845  10.543   5.362 -0.5820  0.2535  1.2583
  761MOL0     H  448   3.152  10.580   5.318 -0.8963  3.2749 -2.2101
  761MOL0     H  449   3.050  10.430   5.337 -1.1134 -0.1064  1.3846
  761MOL0     H  450   2.965  10.552   4.950 -1.0053 -0.4917  0.4821
  761MOL0     H  451   2.515  10.483   5.671  1.4678 -1.1512  1.6140
  761MOL0     H  452   2.335  10.578   5.819 -1.3956  1.6081  2.3778
  762MOL0     O  453   5.322   8.047   3.243  0.0805 -0.7824 -0.4249
  762MOL0     C  454   5.239   8.118   3.192  0.2303 -0.3856  0.4644
  762MOL0     O  455   5.113   8.069   3.156 -0.1895 -0.9387 -0.0960
  762MOL0     C  456   5.097   7.934   3.145  0.0596 -0.0312  0.3260
  762MOL0     C  457   4.977   7.890   3.199 -0.1485 -0.3061  1.2597
  762MOL0     C  458   4.944   7.749   3.184  0.0928 -0.9348 -0.6887
  762MOL0     C  459   5.032   7.664   3.119  0.2912  0.1569 -0.6710
  762MOL0     O  460   5.006   7.534   3.084 -0.2954 -0.7791 -0.0168
  762MOL0     C  461   4.895   7.471   3.149 -0.8246 -0.5209  0.2444
  762MOL0     C  462   4.919   7.323   3.115 -0.2533  0.5780 -0.4480
  762MOL0     C  463   4.821   7.239   3.174  0.1743 -0.1669 -1.0406
  762MOL0     C  464   4.820   7.231   3.328 -1.3567  0.4706 -0.6689
  762MOL0     C  465   4.952   7.187   3.382 -0.3780 -0.1506  0.1617
  762MOL0     C  466   4.950   7.165   3.534 -0.3443  0.3945  0.2473
  762MOL0     C  467   5.096   7.130   3.583  0.1755  0.2732  0.5113
  762MOL0     C  468   5.116   6.976   3.564  0.3670  0.2386  0.0954
  762MOL0     N  469   5.258   6.936   3.562  0.6943 -0.5794  1.1003
  762MOL0     C  470   5.341   6.937   3.447  0.7542 -0.7533 -0.7623
  762MOL0     C  471   5.467   6.957   3.497  0.1297  0.5714  0.1484
  762MOL0     C  472   5.596   6.975   3.416 -0.4258 -0.5421  0.2131
  762MOL0     C  473   5.627   7.129   3.387  0.1724 -0.1394  0.9747
  762MOL0     C  474   5.778   7.151   3.342  0.9707 -0.4421 -0.7034
  762MOL0     C  475   5.799   7.287   3.284 -0.3897  0.4731  0.1426
  762MOL0     O  476   5.753   7.308   3.151  0.1635 -0.1565 -0.3060
  762MOL0     C  477   5.837   7.367   3.056 -0.3416 -0.6306 -0.2433
  762MOL0     C  478   5.886   7.295   2.952 -0.1558  0.3063  0.0307
  762MOL0     C  479   5.961   7.367   2.854  0.0256  0.3512  0.4720
  762MOL0     C  480   5.978   7.499   2.852 -0.7238  0.0827 -0.1063
  762MOL0     C  481   6.066   7.571   2.756 -0.5899  0.4615  0.0653
  762MOL0     O  482   6.153   7.498   2.677 -0.1834 -0.7147  0.2811
  762MOL0     C  483   6.217   7.557   2.569 -0.2458  0.2138  0.9803
  762MOL0     C  484   6.139   7.597   2.459  0.6193 -0.3676 -0.5319
  762MOL0     C  485   6.207   7.654   2.348  0.0827  0.2539 -0.6388
  762MOL0     C  486   6.347   7.659   2.349  0.5173 -0.2248 -0.1995
  762MOL0     O  487   6.386   7.724   2.233  0.4876  0.5585 -0.5815
  762MOL0     C  488   6.515   7.785   2.246  0.2613  0.6911 -0.5314
  762MOL0     C  489   6.540   7.845   2.107  0.5469 -0.1415 -0.0673
  762MOL0     C  490   6.523   7.743   2.000 -0.4023 -0.1563  0.4807
  762MOL0     C  491   6.535   7.803   1.863 -0.0762 -0.3128 -0.2775
  762MOL0     C  492   6.681   7.842   1.826 -0.2766 -0.2722 -0.8815
  762MOL0     C  493   6.700   7.839   1.670  0.6349 -0.3439 -0.2931
  762MOL0     C  494   6.852   7.869   1.629 -0.1236 -1.2389  0.2760
  762MOL0     C  495   6.901   7.986   1.706  0.2709  0.8036  0.1153
  762MOL0    Cl  496   7.055   8.035   1.639 -0.8978  0.3115  0.0628
  762MOL0     C  497   6.428   7.604   2.447 -0.5603 -0.4686  0.6894
  762MOL0     C  498   6.360   7.557   2.557  0.3470  0.6685  0.9187
  762MOL0     O  499   6.047   7.694   2.754  0.3387  0.1502  0.2209
  762MOL0     C  500   5.924   7.567   2.956  0.1516 -0.5549 -0.5754
  762MOL0     C  501   5.854   7.506   3.057  0.6669  0.2226  0.0258
  762MOL0     N  502   5.460   6.961   3.635 -0.2126 -0.2731  0.0971
  762MOL0     N  503   5.336   6.946   3.678 -0.5328  0.4987  0.9831
  762MOL0     C  504   5.154   7.707   3.063  0.4889  0.2194 -0.7064
  762MOL0     C  505   5.184   7.841   3.080 -0.1388 -0.3637  0.0448
  762MOL0     C  506   5.286   8.256   3.158  0.1458  0.0432  0.0274
  762MOL0     C  507   5.203   8.332   3.082  0.0097  0.0233  0.5435
  762MOL0     C  508   5.238   8.467   3.055 -0.1154  0.5346 -0.3947
  762MOL0     C  509   5.354   8.522   3.111 -0.0632  0.1326  0.5589
  762MOL0     O  510   5.398   8.647   3.081 -0.2755  0.0002  0.8227
  762MOL0     C  511   5.330   8.730   2.984 -0.7246  0.7230  0.8187
  762MOL0     C  512   5.382   8.694   2.839  0.1538  0.9914 -0.1274
  762MOL0     C  513   5.536   8.726   2.839 -0.3898 -0.9622 -0.8210
  762MOL0     C  514   5.568   8.699   2.695  0.2209 -0.4024 -0.0243
  762MOL0     C  515   5.705   8.655   2.680 -0.2028  0.0419 -0.4397
  762MOL0     C  516   5.808   8.606   2.658 -0.0672 -0.3973 -0.4879
  762MOL0     C  517   5.438   8.443   3.190  0.4027 -0.6904 -0.0544
  762MOL0     C  518   5.406   8.310   3.211  0.2070 -0.3588  0.6965
  762MOL0     H  519   4.907   7.963   3.237  0.7168  1.9696 -1.2360
  762MOL0     H  520   4.849   7.711   3.218 -0.5180  0.3673 -0.8726
  762MOL0     H  521   4.800   7.507   3.108  1.3462  3.1906 -2.1103
  762MOL0     H  522   4.906   7.486   3.257 -2.0119  4.3066 -0.0927
  762MOL0     H  523   5.016   7.279   3.142 -0.8039  0.4400  1.4593
  762MOL0     H  524   4.908   7.315   3.006 -0.3916  2.2112 -0.5819
  762MOL0     H  525   4.832   7.134   3.147 -1.3712 -1.4742  2.7362
  762MOL0     H  526   4.724   7.283   3.150 -0.8904  0.9020  4.0289
  762MOL0     H  527   4.778   7.324   3.370  0.5968  0.9419  0.3787
  762MOL0     H  528   4.748   7.151   3.346 -0.6256  0.2749  1.7556
  762MOL0     H  529   5.010   7.280   3.382  1.6479 -1.3271  1.3915
  762MOL0     H  530   4.994   7.103   3.325  3.8289  1.9030 -0.1870
  762MOL0     H  531   4.884   7.080   3.555 -1.1470  0.4681 -1.7466
  762MOL0     H  532   4.921   7.264   3.571  0.0144  0.7181 -0.3243
  762MOL0     H  533   5.165   7.188   3.521 -0.8246  0.2726 -0.6385
  762MOL0     H  534   5.100   7.148   3.691 -2.0283  0.3081  0.6363
  762MOL0     H  535   5.066   6.934   3.476 -1.2207  0.1695  0.9928
  762MOL0     H  536   5.077   6.936   3.658  1.4335  1.2204  0.9840
  762MOL0     H  537   5.321   6.918   3.342 -1.7060  1.0936 -0.7263
  762MOL0     H  538   5.588   6.927   3.318  0.6480 -2.4497  0.9905
  762MOL0     H  539   5.680   6.920   3.459 -1.5661 -3.8011 -1.3253
  762MOL0     H  540   5.605   7.190   3.475  2.2155  1.8300  0.2350
  762MOL0     H  541   5.573   7.172   3.302  1.3512  1.0911  0.8035
  762MOL0     H  542   5.845   7.119   3.422  2.1961 -0.7228 -1.8154
  762MOL0     H  543   5.796   7.080   3.260  0.0127 -0.0269 -1.2946
  762MOL0     H  544   5.908   7.298   3.286 -0.3012 -0.4738  0.7565
  762MOL0     H  545   5.741   7.358   3.344 -2.2839 -2.1409  1.5724
  762MOL0     H  546   5.876   7.187   2.942  1.4970  0.1736 -0.4923
  762MOL0     H  547   6.000   7.318   2.765 -0.5724  1.1182 -0.2334
  762MOL0     H  548   6.031   7.598   2.473  0.9690 -1.2603  3.7335
  762MOL0     H  549   6.154   7.698   2.264  0.1921  1.3013 -0.1778
  762MOL0     H  550   6.597   7.728   2.290 -0.9380  0.8034  2.0104
  762MOL0     H  551   6.499   7.860   2.324 -1.9157 -2.5314  2.4603
  762MOL0     H  552   6.641   7.883   2.095  1.4636 -1.3737  2.8261
  762MOL0     H  553   6.471   7.927   2.088  0.8526 -0.6971 -4.5566
  762MOL0     H  554   6.427   7.692   1.990 -1.8313  2.4336 -0.0908
  762MOL0     H  555   6.607   7.674   2.011  0.5747  0.8862 -0.1131
  762MOL0     H  556   6.506   7.728   1.789  1.3801 -1.5232  0.3564
  762MOL0     H  557   6.471   7.892   1.857 -2.0893 -1.6959 -0.3063
  762MOL0     H  558   6.748   7.766   1.868 -0.4607 -0.0891 -0.2334
  762MOL0     H  559   6.704   7.939   1.872 -1.8140 -0.9212  1.4599
  762MOL0     H  560   6.647   7.927   1.631  1.1122 -0.0375 -0.2541
  762MOL0     H  561   6.663   7.750   1.618  0.9770  0.1267 -1.3696
  762MOL0     H  562   6.915   7.782   1.650  2.3657  0.7407  1.5533
  762MOL0     H  563   6.857   7.889   1.522  0.8378  1.6496  0.7856
  762MOL0     H  564   6.922   7.965   1.812  0.4536  0.0502 -0.0678
  762MOL0     H  565   6.833   8.072   1.707 -1.7485 -0.7095  0.7903
  762MOL0     H  566   6.536   7.611   2.444 -0.5727 -0.5615 -1.1321
  762MOL0     H  567   6.424   7.532   2.641  2.7006  0.3626 -0.8717
  762MOL0     H  568   5.920   7.676   2.959  2.4020 -0.3947 -1.5668
  762MOL0     H  569   5.799   7.559   3.133  0.8403 -2.1085  1.9035
  762MOL0     H  570   5.217   7.648   2.997 -2.7966 -0.2184 -3.7903
  762MOL0     H  571   5.274   7.878   3.032 -1.2196  0.1758 -1.6758
  762MOL0     H  572   5.118   8.289   3.031  0.3946 -1.2556  0.9577
  762MOL0     H  573   5.176   8.524   2.986  2.5178 -1.6623 -5.0495
  762MOL0     H  574   5.344   8.833   3.019 -0.4949 -0.0127  2.9827
  762MOL0     H  575   5.221   8.725   2.979 -0.9184  3.5261 -3.6025
  762MOL0     H  576   5.353   8.589   2.835  1.2008  0.4925  2.7923
  762MOL0     H  577   5.325   8.758   2.771  2.7770  2.9106 -0.6794
  762MOL0     H  578   5.591   8.653   2.899  0.4949  0.3770  0.0496
  762MOL0     H  579   5.563   8.829   2.864  1.3413 -1.7603  0.9046
  762MOL0     H  580   5.502   8.625   2.649 -2.0489  1.7773 -0.5158
  762MOL0     H  581   5.553   8.796   2.646  0.9683  0.4744  1.4060
  762MOL0     H  582   5.907   8.575   2.631 -0.3571 -2.6008  0.7567
  762MOL0     H  583   5.534   8.485   3.216 -0.9548  2.3342  0.5397
  762MOL0     H  584   5.471   8.242   3.265 -0.6817 -1.4771  0.4228
  763MOL0     O  585   3.093   5.784  11.011 -0.5278 -1.3775 -0.6530
  763MOL0     C  586   3.178   5.740  11.086  0.7099 -0.0493  0.5215
  763MOL0     O  587   3.198   5.612  11.100  1.2188  0.4759 -0.2277
  763MOL0     C  588   3.132   5.515  11.027  0.5963 -0.0058  0.5005
  763MOL0     C  589   3.102   5.402  11.096 -0.0988 -0.1331 -0.4753
  763MOL0     C  590   3.041   5.302  11.024 -0.4586  0.1375 -0.2359
  763MOL0     C  591   3.006   5.311  10.888 -0.8511  0.4992 -0.1002
  763MOL0     O  592   2.932   5.202  10.851 -0.0287  0.1504 -0.0996
  763MOL0     C  593   2.896   5.187  10.707 -0.0410  0.3710 -0.8343
  763MOL0     C  594   2.805   5.064  10.708  0.1397 -0.1337  0.3064
  763MOL0     C  595   2.781   5.019  10.561 -1.1803 -0.9543  0.1401
  763MOL0     C  596   2.737   5.136  10.463  0.0158 -1.1110  0.0862
  763MOL0     C  597   2.704   5.081  10.329 -0.5593  1.1511  0.7304
  763MOL0     C  598   2.643   5.194  10.243 -0.8622 -0.2953 -0.9177
  763MOL0     C  599   2.534   5.282  10.305 -0.3354  0.0131 -0.8301
  763MOL0     C  600   2.481   5.386  10.201  0.7305  0.1037  0.0035
  763MOL0     N  601   2.376   5.473  10.262 -1.1147 -0.4247  0.2950
  763MOL0     C  602   2.249   5.451  10.304  0.2295 -0.8897 -0.2748
  763MOL0     C  603   2.200   5.564  10.363 -0.9223 -0.2125 -0.0284
  763MOL0     C  604   2.064   5.580  10.407 -0.5953  0.1836  0.3068
  763MOL0     C  605   1.988   5.689  10.343 -0.4792  0.2918  0.5839
  763MOL0     C  606   1.982   5.687  10.185  0.4590 -0.6448 -0.3376
  763MOL0     C  607   1.933   5.552  10.126 -0.8119  0.2564 -0.0985
  763MOL0     O  608   1.809   5.505  10.183 -0.5202 -0.2584  0.7391
  763MOL0     C  609   1.690   5.546  10.138  0.3694 -0.9869 -1.1697
  763MOL0     C  610   1.583   5.496  10.207 -0.4824  0.0123  0.0983
  763MOL0     C  611   1.453   5.519  10.180 -1.3124 -0.2624  0.0682
  763MOL0     C  612   1.427   5.631  10.093  0.3639 -0.4338 -0.0947
  763MOL0     C  613   1.287   5.670  10.079 -0.3444  0.5407 -0.2540
  763MOL0     O  614   1.184   5.580  10.104  0.2012  0.8865 -0.0800
  763MOL0     C  615   1.059   5.612  10.060 -0.2587  0.6006  0.0992
  763MOL0     C  616   1.041   5.630   9.925 -0.1913 -0.1418  0.3463
  763MOL0     C  617   0.915   5.646   9.871  0.0117 -0.1747 -0.3033
  763MOL0     C  618   0.802   5.653   9.953  0.5959 -0.1477 -0.6488
  763MOL0     O  619   0.674   5.678   9.906 -0.8096  0.5807  0.2951
  763MOL0     C  620   0.583   5.723  10.008  0.3719 -0.6932  0.7451
  763MOL0     C  621   0.476   5.799   9.929 -1.1897 -0.0024 -0.2485
  763MOL0     C  622   0.530   5.914   9.846 -0.8365 -0.2827 -0.0578
  763MOL0     C  623   0.412   5.971   9.762  0.2605 -0.4070 -0.2682
  763MOL0     C  624   0.464   6.112   9.723  0.2360 -0.1586  1.6051
  763MOL0     C  625   0.362   6.170   9.630 -0.1869 -0.3970  0.5692
  763MOL0     C  626   0.398   6.316   9.587  1.0756  0.7002  0.0865
  763MOL0     C  627   0.543   6.345   9.561 -0.8642  0.0885 -0.1207
  763MOL0    Cl  628   0.587   6.234   9.424 -0.3376 -0.0834 -0.3427
  763MOL0     C  629   0.820   5.628  10.094 -1.3051  0.0647 -0.3619
  763MOL0     C  630   0.950   5.602  10.144  0.0059 -0.6005  0.3174
  763MOL0     O  631   1.277   5.785  10.040 -0.2644  0.0031 -0.2330
  763MOL0     C  632   1.536   5.684  10.020  0.0467  0.2399  0.3446
  763MOL0     C  633   1.668   5.649  10.043  0.3315 -1.3263 -0.4412
  763MOL0     N  634   2.287   5.662  10.339 -0.5906  0.0490 -1.0918
  763MOL0     N  635   2.393   5.607  10.279  0.2019  0.3352  0.3195
  763MOL0     C  636   3.047   5.428  10.815 -0.1299  0.5543 -0.7171
  763MOL0     C  637   3.111   5.522  10.891 -0.3437 -0.3697  0.2964
  763MOL0     C  638   3.257   5.835  11.159  0.0233 -0.2197 -1.1087
  763MOL0     C  639   3.243   5.975  11.141 -0.4320 -0.2674  0.2747
  763MOL0     C  640   3.322   6.061  11.218 -0.0288  0.9111  0.3972
  763MOL0     C  641   3.417   6.018  11.315  0.9354  0.4710 -0.3052
  763MOL0     O  642   3.487   6.097  11.405  0.1161  0.1887 -0.1027
  763MOL0     C  643   3.458   6.239  11.411  1.2334  1.6555 -0.7672
  763MOL0     C  644   3.345   6.273  11.509 -0.7629  0.1986  0.8838
  763MOL0     C  645   3.384   6.221  11.652  0.7293  0.2156 -0.1756
  763MOL0     C  646   3.263   6.211  11.746 -0.2415 -0.1538 -0.7005
  763MOL0     C  647   3.306   6.204  11.886 -0.2879  0.3094 -0.3524
  763MOL0     C  648   3.337   6.209  12.001 -0.4268 -0.3203 -0.1157
  763MOL0     C  649   3.421   5.879  11.339  0.2146 -0.4789 -0.1629
  763MOL0     C  650   3.349   5.788  11.265 -0.1848  0.1571  0.8943
  763MOL0     H  651   3.112   5.400  11.204  1.3150 -3.6533 -0.5579
  763MOL0     H  652   3.026   5.210  11.079 -0.7732 -0.6617 -1.6192
  763MOL0     H  653   2.990   5.164  10.655 -0.1709 -2.1063 -0.1128
  763MOL0     H  654   2.843   5.279  10.679 -3.0573 -0.6793  0.9070
  763MOL0     H  655   2.716   5.094  10.763  0.8795 -0.2423  1.6028
  763MOL0     H  656   2.853   4.983  10.763  4.3476  1.0044 -1.2981
  763MOL0     H  657   2.704   4.940  10.561 -0.5564 -1.5884 -1.1057
  763MOL0     H  658   2.872   4.976  10.519  0.4150  0.3096  2.0963
  763MOL0     H  659   2.649   5.175  10.514  0.7467 -3.5084  3.5273
  763MOL0     H  660   2.810   5.218  10.453  4.0203 -4.3986 -0.4173
  763MOL0     H  661   2.639   4.993  10.334  0.4137  0.4025  0.3332
  763MOL0     H  662   2.795   5.046  10.281  0.0122 -2.6301  4.1029
  763MOL0     H  663   2.600   5.143  10.156 -2.6122 -0.2685 -0.1128
  763MOL0     H  664   2.712   5.263  10.195  0.6161 -2.3628 -1.9350
  763MOL0     H  665   2.457   5.214  10.342 -0.1894 -2.4616 -4.6211
  763MOL0     H  666   2.573   5.335  10.393  1.6011 -1.3994 -0.7731
  763MOL0     H  667   2.458   5.333  10.108  3.2453  1.5362 -1.5493
  763MOL0     H  668   2.559   5.455  10.168  1.6176 -0.0016  1.7891
  763MOL0     H  669   2.191   5.359  10.301 -1.5272  0.0989  1.3122
  763MOL0     H  670   2.063   5.590  10.516 -0.1060 -2.1300  0.5828
  763MOL0     H  671   2.017   5.483  10.390 -0.0556 -0.2501  1.2444
  763MOL0     H  672   2.038   5.781  10.374 -1.1491  1.4430 -1.5698
  763MOL0     H  673   1.889   5.690  10.389  1.7671 -1.1478  6.2439
  763MOL0     H  674   1.916   5.766  10.150 -0.6068 -0.7018  1.4075
  763MOL0     H  675   2.079   5.717  10.145  0.4556  0.5490  0.5048
  763MOL0     H  676   2.006   5.472  10.140 -0.1719  0.7532 -0.5324
  763MOL0     H  677   1.925   5.556  10.017  0.1885  0.7272 -0.1644
  763MOL0     H  678   1.592   5.431  10.294 -1.2227 -1.8415 -1.1682
  763MOL0     H  679   1.377   5.479  10.246 -0.9765 -0.4183  0.3615
  763MOL0     H  680   1.121   5.639   9.852 -1.7325  3.5313 -1.1519
  763MOL0     H  681   0.907   5.661   9.763 -1.9965 -1.8986 -0.4373
  763MOL0     H  682   0.628   5.794  10.078 -1.4420  0.3246  0.9498
  763MOL0     H  683   0.529   5.643  10.059 -2.9193 -0.8314 -2.4892
  763MOL0     H  684   0.403   5.823  10.007  0.0022 -1.3065  1.3324
  763MOL0     H  685   0.415   5.721   9.883  0.2729 -2.6463  2.0167
  763MOL0     H  686   0.624   5.895   9.794  1.8642  1.8847  3.5965
  763MOL0     H  687   0.553   5.993   9.917 -1.7604 -0.0116 -0.0507
  763MOL0     H  688   0.410   5.918   9.667 -2.6644 -1.0763  0.0818
  763MOL0     H  689   0.318   5.977   9.818  0.9330  1.4674  0.7782
  763MOL0     H  690   0.558   6.112   9.668 -1.9988  0.1716 -2.5793
  763MOL0     H  691   0.471   6.180   9.809 -0.6364  1.8333  0.1856
  763MOL0     H  692   0.271   6.172   9.691  0.4147 -0.3564  1.4847
  763MOL0     H  693   0.352   6.110   9.539 -0.1455  1.8013 -0.9636
  763MOL0     H  694   0.338   6.329   9.496  0.1488 -2.1416  0.2043
  763MOL0     H  695   0.357   6.382   9.664 -1.3678 -1.0873  0.4288
  763MOL0     H  696   0.604   6.329   9.650 -1.7598 -0.8403  0.3550
  763MOL0     H  697   0.556   6.447   9.525  0.1550 -0.2308 -0.7006
  763MOL0     H  698   0.738   5.623  10.164 -2.0053 -0.6403 -1.2202
  763MOL0     H  699   0.974   5.579  10.247  1.5479  1.1123  0.3837
  763MOL0     H  700   1.515   5.767   9.953  1.5163 -1.9936 -3.1380
  763MOL0     H  701   1.749   5.699   9.992 -1.2173  2.0538  0.1241
  763MOL0     H  702   3.021   5.447  10.711 -0.2901 -0.7428 -0.9350
  763MOL0     H  703   3.144   5.618  10.854  0.1905  0.3898  2.6001
  763MOL0     H  704   3.171   6.010  11.067  0.0329 -1.1602 -0.6302
  763MOL0     H  705   3.296   6.165  11.204  0.0849  1.0553  1.1832
  763MOL0     H  706   3.419   6.282  11.318  0.3843  0.0314 -1.1881
  763MOL0     H  707   3.552   6.288  11.439  3.1754 -2.5805  1.0319
  763MOL0     H  708   3.319   6.379  11.520 -0.1933  0.7507 -2.1377
  763MOL0     H  709   3.258   6.224  11.465  0.8516 -1.8091 -0.2109
  763MOL0     H  710   3.454   6.296  11.692  0.7877  0.2324 -0.3070
  763MOL0     H  711   3.417   6.117  11.652 -1.5320 -0.5880  2.1240
  763MOL0     H  712   3.208   6.306  11.743  2.4312  1.8396  3.5107
  763MOL0     H  713   3.198   6.129  11.715  0.8218 -0.4274 -2.3487
  763MOL0     H  714   3.377   6.209  12.100 -0.0992 -2.0795 -0.2011
  763MOL0     H  715   3.485   5.836  11.416  0.8495  1.0998  0.2351
  763MOL0     H  716   3.349   5.684  11.294 -0.4396  0.1309  0.8031
  764MOL0     O  717   3.122   0.220   4.441  0.3021  0.4636  0.0003
  764MOL0     C  718   3.108   0.300   4.344 -0.0507  0.3920  0.0675
  764MOL0     O  719   3.011   0.399   4.336  0.3508 -0.2465  0.0777
  764MOL0     C  720   2.895   0.384   4.416  0.2789 -0.8006  0.3007
  764MOL0     C  721   2.814   0.268   4.416  0.1769 -0.2182 -0.4708
  764MOL0     C  722   2.701   0.258   4.502  0.3682  0.6454 -0.9321
  764MOL0     C  723   2.658   0.368   4.576  0.0854 -0.7617 -1.0818
  764MOL0     O  724   2.552   0.363   4.667 -0.3199  0.4132  0.4911
  764MOL0     C  725   2.442   0.435   4.612  0.8171  0.3576 -0.0330
  764MOL0     C  726   2.342   0.469   4.726 -0.1169  1.1397  0.2656
  764MOL0     C  727   2.300   0.340   4.814 -0.1714  0.0334 -0.7503
  764MOL0     C  728   2.192   0.394   4.911  1.1125  0.3222  0.0980
  764MOL0     C  729   2.114   0.273   4.968  0.1450 -0.3086 -0.2120
  764MOL0     C  730   1.991   0.315   5.046 -0.2782  0.6023  0.2761
  764MOL0     C  731   1.885   0.371   4.953  0.3716  0.0902  0.3411
  764MOL0     C  732   1.787   0.452   5.032  0.5306  0.0154  0.7946
  764MOL0     N  733   1.651   0.433   4.980 -0.1878  0.3065  0.5334
  764MOL0     C  734   1.569   0.322   4.994  0.5830  0.7148 -0.0649
  764MOL0     C  735   1.455   0.351   4.924  0.7085 -0.5094  1.0839
  764MOL0     C  736   1.334   0.269   4.904  0.6140  1.0567 -0.2890
  764MOL0     C  737   1.214   0.304   5.001  1.2020 -0.4615 -0.7106
  764MOL0     C  738   1.115   0.391   4.926 -0.4369 -0.3654 -0.1088
  764MOL0     C  739   0.973   0.364   4.956  0.0326 -0.0426  0.5588
  764MOL0     O  740   0.942   0.221   4.942  0.6490  0.3529  0.5877
  764MOL0     C  741   0.974   0.147   4.832 -0.0769  0.8739 -0.6892
  764MOL0     C  742   0.979   0.179   4.695 -0.2888 -0.9417 -0.7452
  764MOL0     C  743   0.998   0.080   4.596  0.1938  0.6589  0.7026
  764MOL0     C  744   1.004  -0.047   4.633  0.5810  0.0942  0.0061
  764MOL0     C  745   0.984  -0.155   4.538  0.3199  1.1499 -0.3560
  764MOL0     O  746   1.032  -0.280   4.578 -0.6793 -0.7230 -0.2422
  764MOL0     C  747   0.993  -0.389   4.504  1.2408 -0.0580  1.0576
  764MOL0     C  748   0.863  -0.422   4.448  0.0702  0.1232  0.7937
  764MOL0     C  749   0.833  -0.544   4.387  0.5903 -0.0291 -0.1568
  764MOL0     C  750   0.928  -0.638   4.371  0.1762  0.3434 -0.4873
  764MOL0     O  751   0.877  -0.756   4.318  0.0753 -0.2776 -0.4068
  764MOL0     C  752   0.965  -0.834   4.236 -0.7465 -0.7781  0.1860
  764MOL0     C  753   0.892  -0.959   4.200  0.4012 -0.2645 -0.7482
  764MOL0     C  754   0.940  -1.014   4.068  0.3159 -0.4160 -0.2962
  764MOL0     C  755   1.062  -1.093   4.095 -0.1158 -0.5911 -0.6861
  764MOL0     C  756   1.125  -1.103   3.958  0.6231  0.4477 -0.1940
  764MOL0     C  757   1.243  -1.212   3.970  1.3211 -0.3892  0.1596
  764MOL0     C  758   1.179  -1.357   3.972 -0.3025 -0.6168  0.6067
  764MOL0     C  759   1.282  -1.470   3.948 -0.8359 -0.3699 -0.9285
  764MOL0    Cl  760   1.190  -1.622   3.900 -0.2943 -0.1076  0.0212
  764MOL0     C  761   1.062  -0.602   4.397 -0.3894  0.3841  0.7257
  764MOL0     C  762   1.092  -0.488   4.477  0.2792  0.8725 -0.7089
  764MOL0     O  763   0.943  -0.127   4.428 -0.5338  1.0395  0.3071
  764MOL0     C  764   1.014  -0.083   4.770 -0.3255  0.2239 -0.6968
  764MOL0     C  765   0.992   0.011   4.868 -0.2225  0.2001  0.5034
  764MOL0     N  766   1.475   0.481   4.872  0.7059  0.6525 -0.1799
  764MOL0     N  767   1.585   0.529   4.906  0.4454  0.3707 -0.3647
  764MOL0     C  768   2.748   0.474   4.589  0.3966  1.0430 -0.6129
  764MOL0     C  769   2.864   0.488   4.509  0.2951 -0.3862  0.2429
  764MOL0     C  770   3.212   0.292   4.231  0.7777 -0.3125 -0.0512
  764MOL0     C  771   3.196   0.374   4.116  0.1633 -0.2216  0.5548
  764MOL0     C  772   3.298   0.375   4.018 -0.4276 -1.3585  0.0629
  764MOL0     C  773   3.407   0.295   4.031  0.3211  0.0745  0.1492
  764MOL0     O  774   3.516   0.310   3.943 -0.0965  0.4133  0.1961
  764MOL0     C  775   3.502   0.400   3.828  0.5168 -0.4310 -0.1131
  764MOL0     C  776   3.636   0.414   3.752 -0.1090 -0.1353  0.0454
  764MOL0     C  777   3.733   0.511   3.824 -0.3727  0.2838  0.8402
  764MOL0     C  778   3.777   0.483   3.963  0.0610  0.3867 -0.4648
  764MOL0     C  779   3.921   0.499   3.986  0.5420  0.1752  1.2358
  764MOL0     C  780   4.042   0.499   4.002 -0.4338 -0.7875  0.2874
  764MOL0     C  781   3.418   0.208   4.145  0.2618 -0.3487  0.1680
  764MOL0     C  782   3.321   0.211   4.242 -0.3363  0.4917  0.1803
  764MOL0     H  783   2.850   0.193   4.345 -0.5836 -0.9080 -0.1483
  764MOL0     H  784   2.633   0.173   4.506  0.9918  0.1467 -0.7118
  764MOL0     H  785   2.396   0.392   4.522  2.0510 -0.6300 -0.2132
  764MOL0     H  786   2.453   0.536   4.572 -0.8552 -0.3610 -2.5741
  764MOL0     H  787   2.255   0.515   4.680  1.6627  3.3863 -1.0299
  764MOL0     H  788   2.398   0.538   4.790  0.0989  1.3283 -0.1303
  764MOL0     H  789   2.386   0.293   4.862  0.5058  1.7704 -0.1754
  764MOL0     H  790   2.246   0.271   4.749 -1.9291  0.2830  0.3658
  764MOL0     H  791   2.240   0.443   4.997 -2.3275 -1.5018  3.3551
  764MOL0     H  792   2.133   0.463   4.849 -1.0854 -1.7771 -0.3159
  764MOL0     H  793   2.171   0.212   5.039 -2.2941 -0.0642  2.0747
  764MOL0     H  794   2.081   0.198   4.895 -0.5929  0.3769 -0.5879
  764MOL0     H  795   2.022   0.380   5.128 -3.6161  0.3216  1.9250
  764MOL0     H  796   1.935   0.232   5.090 -1.2093  0.9515 -0.2315
  764MOL0     H  797   1.930   0.438   4.880 -0.5927 -2.0203 -2.3982
  764MOL0     H  798   1.844   0.286   4.897 -3.6237  2.0043  0.0046
  764MOL0     H  799   1.809   0.558   5.042 -0.1121  0.0565  1.9097
  764MOL0     H  800   1.786   0.410   5.133  0.3271 -3.3510 -0.4529
  764MOL0     H  801   1.595   0.220   5.017 -2.1999 -0.1651 -0.5590
  764MOL0     H  802   1.368   0.169   4.931  3.1226  1.9030 -0.1094
  764MOL0     H  803   1.309   0.267   4.797  0.4577 -2.4576 -0.3049
  764MOL0     H  804   1.251   0.344   5.096 -2.9534 -0.5644  1.1578
  764MOL0     H  805   1.168   0.208   5.029  2.2869 -0.7365  0.2018
  764MOL0     H  806   1.138   0.497   4.944  3.2801 -1.3874  1.9796
  764MOL0     H  807   1.142   0.391   4.820  2.0439  0.7551  0.4533
  764MOL0     H  808   0.903   0.421   4.895  2.2623 -0.7831 -2.9723
  764MOL0     H  809   0.960   0.387   5.062  0.4368  0.2216  0.5505
  764MOL0     H  810   0.967   0.285   4.675 -1.7419 -1.1409 -1.0276
  764MOL0     H  811   0.987   0.097   4.489 -1.1995  2.4801  1.0756
  764MOL0     H  812   0.775  -0.359   4.462  0.1187  0.3264  0.2508
  764MOL0     H  813   0.731  -0.565   4.359 -0.8494 -3.1559  5.7705
  764MOL0     H  814   1.061  -0.854   4.285 -0.6159  0.7111  0.5676
  764MOL0     H  815   0.986  -0.773   4.148 -0.4235 -1.4425 -0.2107
  764MOL0     H  816   0.785  -0.936   4.200  0.1905 -1.2005 -0.3070
  764MOL0     H  817   0.906  -1.033   4.279  0.4614  0.1541 -0.3623
  764MOL0     H  818   0.953  -0.927   4.003 -2.0627  0.1457 -0.1256
  764MOL0     H  819   0.865  -1.087   4.035 -0.5005  0.2754 -0.0296
  764MOL0     H  820   1.127  -1.045   4.169 -0.2671  1.0151 -1.5429
  764MOL0     H  821   1.035  -1.188   4.141 -1.0381  1.4237  3.4278
  764MOL0     H  822   1.163  -1.008   3.919  2.3259 -0.2903 -0.4400
  764MOL0     H  823   1.056  -1.134   3.879 -0.4996  1.2685  0.4400
  764MOL0     H  824   1.312  -1.192   4.053 -0.7649  0.2168  1.8183
  764MOL0     H  825   1.304  -1.213   3.879  1.6011  0.4991  0.3236
  764MOL0     H  826   1.124  -1.378   4.064 -1.3661 -2.9155 -0.4653
  764MOL0     H  827   1.101  -1.350   3.896  0.9600  2.0408 -0.5761
  764MOL0     H  828   1.320  -1.493   4.048 -1.8569 -3.1634 -1.1021
  764MOL0     H  829   1.368  -1.453   3.883  1.9198 -1.1819  2.2617
  764MOL0     H  830   1.136  -0.677   4.373 -1.0444 -0.3975  1.1318
  764MOL0     H  831   1.193  -0.471   4.514 -0.8851  4.2196  1.3464
  764MOL0     H  832   1.029  -0.189   4.791  0.5414 -0.1544 -2.8852
  764MOL0     H  833   0.982  -0.018   4.972 -1.7008  1.2475  0.6914
  764MOL0     H  834   2.723   0.548   4.664  1.2110  0.7712 -0.0525
  764MOL0     H  835   2.929   0.575   4.518 -2.2289  1.7395 -0.7675
  764MOL0     H  836   3.115   0.442   4.093  2.6102  2.7452 -0.0204
  764MOL0     H  837   3.283   0.435   3.928  1.1418  0.0825  0.7019
  764MOL0     H  838   3.465   0.500   3.848  1.4339 -0.4861  2.1939
  764MOL0     H  839   3.428   0.359   3.759  0.5650 -0.4381 -0.1608
  764MOL0     H  840   3.677   0.318   3.719  0.1687 -0.2049  0.5840
  764MOL0     H  841   3.617   0.463   3.656 -0.3221  1.5343  0.9035
  764MOL0     H  842   3.680   0.607   3.823 -0.9450  0.0383 -2.3250
  764MOL0     H  843   3.822   0.516   3.760  0.1962  0.5999  1.6479
  764MOL0     H  844   3.736   0.551   4.038 -0.9486 -1.0561  0.3343
  764MOL0     H  845   3.747   0.386   4.001 -0.9330  1.2351  1.0035
  764MOL0     H  846   4.146   0.509   4.026 -1.0237  1.0406  2.4698
  764MOL0     H  847   3.502   0.142   4.165 -1.2835 -2.1048  1.1718
  764MOL0     H  848   3.329   0.151   4.332 -3.0323 -3.6348 -2.0009
  765MOL0     O  849   5.906   3.240   8.038 -0.4542  1.3007  0.2301
  765MOL0     C  850   5.889   3.180   8.143  0.2623  0.2268  0.4984
  765MOL0     O  851   5.990   3.140   8.228 -0.8288  0.0300 -0.3498
  765MOL0     C  852   6.116   3.136   8.175  0.4416  0.2543 -0.3934
  765MOL0     C  853   6.148   3.105   8.044 -0.5767  0.5458 -0.4946
  765MOL0     C  854   6.281   3.094   8.006 -0.2101 -0.6326  0.3595
  765MOL0     C  855   6.385   3.107   8.099 -0.2263  0.1831  0.4749
  765MOL0     O  856   6.520   3.084   8.073  0.5777  0.2529 -0.1733
  765MOL0     C  857   6.542   3.014   7.944 -0.1886  0.1316 -0.2673
  765MOL0     C  858   6.565   3.112   7.833 -0.0728  0.2194 -0.7195
  765MOL0     C  859   6.596   3.052   7.695  0.6681  0.2022 -0.7943
  765MOL0     C  860   6.736   2.997   7.679  0.7619 -0.3007  0.4712
  765MOL0     C  861   6.741   2.908   7.560  0.0455 -0.4625  0.3781
  765MOL0     C  862   6.884   2.853   7.550  0.5532  0.5177 -1.2702
  765MOL0     C  863   7.000   2.951   7.502  0.6036  0.0465 -0.6084
  765MOL0     C  864   6.989   3.011   7.368  0.7081  0.3463  0.1992
  765MOL0     N  865   7.098   3.107   7.347  0.0853  1.1751  0.3930
  765MOL0     C  866   7.202   3.076   7.272 -0.0832 -0.1545  0.2025
  765MOL0     C  867   7.283   3.187   7.261 -0.5076  0.8983  0.5209
  765MOL0     C  868   7.416   3.213   7.183  0.5097 -0.0528 -0.8718
  765MOL0     C  869   7.527   3.133   7.230 -0.7482 -0.0345 -0.1799
  765MOL0     C  870   7.513   2.981   7.189  0.3312  0.2067 -0.1600
  765MOL0     C  871   7.486   2.876   7.299 -0.7886 -0.3374 -0.1150
  765MOL0     O  872   7.604   2.841   7.384  0.3680 -0.1764  0.4293
  765MOL0     C  873   7.706   2.778   7.328 -0.1080  0.0147  0.2914
  765MOL0     C  874   7.705   2.700   7.218 -0.2697 -0.1307  1.3597
  765MOL0     C  875   7.827   2.640   7.174  0.5858  0.7433 -0.2005
  765MOL0     C  876   7.950   2.657   7.243  0.0335  0.0932 -0.4812
  765MOL0     C  877   8.062   2.563   7.203 -0.0274 -0.3725  0.1477
  765MOL0     O  878   8.184   2.578   7.268 -0.0900 -0.1800 -0.3987
  765MOL0     C  879   8.279   2.483   7.275  0.1037  0.1798  0.9169
  765MOL0     C  880   8.418   2.517   7.277 -1.7259 -0.3618  0.1749
  765MOL0     C  881   8.518   2.418   7.275  0.1427 -0.4904 -0.6505
  765MOL0     C  882   8.489   2.282   7.268  0.2770  0.5314 -0.3249
  765MOL0     O  883   8.575   2.177   7.271 -0.3574 -0.6459 -0.0151
  765MOL0     C  884   8.711   2.176   7.233  0.5570  0.1588  0.4465
  765MOL0     C  885   8.727   2.052   7.149 -0.3374 -0.4167 -0.5351
  765MOL0     C  886   8.697   1.913   7.213  0.1524 -0.4970 -0.3399
  765MOL0     C  887   8.733   1.803   7.110  0.5866 -0.6721  0.2048
  765MOL0     C  888   8.766   1.663   7.164 -0.1178  0.7411  0.0045
  765MOL0     C  889   8.738   1.553   7.067  0.3776  0.4302 -0.2538
  765MOL0     C  890   8.813   1.433   7.126  0.3943  0.5625 -0.0603
  765MOL0     C  891   8.955   1.412   7.060 -0.4087 -0.1069 -0.3239
  765MOL0    Cl  892   9.017   1.255   7.102  0.1615 -0.2118 -0.1997
  765MOL0     C  893   8.357   2.251   7.276 -0.3524  0.0837  0.1956
  765MOL0     C  894   8.257   2.342   7.269 -0.0635  0.5844 -0.1933
  765MOL0     O  895   8.043   2.498   7.102  0.0184 -0.0090  0.1124
  765MOL0     C  896   7.940   2.736   7.364 -0.2890  0.1741 -0.1351
  765MOL0     C  897   7.820   2.802   7.399  0.3693 -0.1948 -0.8655
  765MOL0     N  898   7.222   3.273   7.353  0.0751 -0.7065 -0.2704
  765MOL0     N  899   7.108   3.228   7.393 -0.0003  0.3128  1.0552
  765MOL0     C  900   6.354   3.129   8.233 -0.6358 -0.2579  0.7127
  765MOL0     C  901   6.217   3.153   8.272 -0.9813  0.5745  0.5339
  765MOL0     C  902   5.746   3.162   8.181  0.2809 -0.3817 -0.3132
  765MOL0     C  903   5.717   3.074   8.289 -0.3631 -0.7577 -0.1185
  765MOL0     C  904   5.581   3.060   8.329 -0.2572  0.6607 -0.5805
  765MOL0     C  905   5.483   3.130   8.271 -0.0301 -0.1563  0.0764
  765MOL0     O  906   5.346   3.112   8.289 -0.0930  0.6344 -0.7341
  765MOL0     C  907   5.301   3.006   8.374 -0.4562  0.4326 -0.1864
  765MOL0     C  908   5.184   2.924   8.334  0.5503  0.5983  0.1279
  765MOL0     C  909   5.148   2.802   8.419  0.1294  0.6674 -0.2260
  765MOL0     C  910   5.250   2.681   8.408  0.8978 -0.1634 -0.7286
  765MOL0     C  911   5.299   2.647   8.274  0.2715 -0.4343  0.5241
  765MOL0     C  912   5.321   2.606   8.162 -0.5444  0.3434 -1.0674
  765MOL0     C  913   5.514   3.228   8.169 -0.2184 -0.1684  0.1043
  765MOL0     C  914   5.645   3.241   8.130 -0.9114  1.0942  1.3214
  765MOL0     H  915   6.084   3.089   7.959 -0.9951 -0.5996  0.0094
  765MOL0     H  916   6.296   3.072   7.901  1.3844 -0.6002  0.5639
  765MOL0     H  917   6.472   2.934   7.917  3.1118 -4.2709  2.8212
  765MOL0     H  918   6.629   2.951   7.963 -1.4435 -1.4254  0.5767
  765MOL0     H  919   6.644   3.180   7.866 -1.2138  0.6020  1.3967
  765MOL0     H  920   6.478   3.178   7.826  0.6434  1.1672 -0.8908
  765MOL0     H  921   6.588   3.134   7.623  0.0126 -0.1663 -1.1538
  765MOL0     H  922   6.516   2.982   7.668  0.2730  1.1371 -2.1548
  765MOL0     H  923   6.791   3.090   7.662  0.9319  0.0182  2.4516
  765MOL0     H  924   6.774   2.951   7.771 -1.5651 -0.7449  1.2658
  765MOL0     H  925   6.727   2.964   7.467  0.4227  0.5655  0.9186
  765MOL0     H  926   6.671   2.825   7.570 -1.2767  0.3802 -1.3747
  765MOL0     H  927   6.893   2.780   7.469  1.4705 -0.1648 -0.5644
  765MOL0     H  928   6.922   2.801   7.638  0.2066  0.8383 -0.9288
  765MOL0     H  929   7.007   3.020   7.586 -0.8503 -3.5952  2.8163
  765MOL0     H  930   7.090   2.888   7.496  2.7335  2.8683 -0.5396
  765MOL0     H  931   6.892   3.061   7.365 -0.0214 -0.8662  2.0555
  765MOL0     H  932   6.990   2.933   7.291  0.7951 -0.3479  0.8913
  765MOL0     H  933   7.224   2.987   7.213 -0.6824 -0.2894  0.1818
  765MOL0     H  934   7.435   3.320   7.191 -1.1145  0.2036  0.1476
  765MOL0     H  935   7.383   3.200   7.080 -0.0915 -0.0578 -0.6823
  765MOL0     H  936   7.543   3.148   7.337 -0.3390  0.5884 -0.3239
  765MOL0     H  937   7.619   3.175   7.189 -1.8949  3.1464  0.2040
  765MOL0     H  938   7.436   2.977   7.111 -0.7479  2.4960  0.6710
  765MOL0     H  939   7.612   2.952   7.155 -0.4453 -1.6750 -0.9151
  765MOL0     H  940   7.430   2.789   7.261 -0.9234 -0.1104 -0.4436
  765MOL0     H  941   7.414   2.932   7.359  0.3751 -1.8710  2.9462
  765MOL0     H  942   7.615   2.688   7.159  0.1615  0.3793  0.5855
  765MOL0     H  943   7.821   2.580   7.083  3.6255  2.1144 -1.4452
  765MOL0     H  944   8.465   2.614   7.260  0.4055 -1.2989  0.3630
  765MOL0     H  945   8.619   2.455   7.285  0.3437 -1.3622  0.7073
  765MOL0     H  946   8.766   2.174   7.328 -0.9904  2.4857  1.4941
  765MOL0     H  947   8.741   2.269   7.183 -1.2314  1.0534  0.9548
  765MOL0     H  948   8.827   2.060   7.106 -0.3905 -0.8978 -0.7584
  765MOL0     H  949   8.660   2.045   7.063 -1.9556 -3.2787  0.8018
  765MOL0     H  950   8.593   1.915   7.246  1.0081  1.4801  2.5539
  765MOL0     H  951   8.750   1.899   7.307  0.4169  0.4601 -0.3326
  765MOL0     H  952   8.643   1.808   7.049  0.4397  0.1235  0.4732
  765MOL0     H  953   8.819   1.828   7.047  1.1402  0.0728  1.2217
  765MOL0     H  954   8.721   1.640   7.261  0.5105 -1.1232 -0.1143
  765MOL0     H  955   8.873   1.666   7.185 -0.3850  0.3839  1.5155
  765MOL0     H  956   8.777   1.588   6.971  1.1962  0.5942  0.1308
  765MOL0     H  957   8.633   1.531   7.047  0.0262  2.4542 -0.7955
  765MOL0     H  958   8.835   1.434   7.233 -0.2605  0.4515  0.0833
  765MOL0     H  959   8.766   1.335   7.113 -1.1916  1.1903  0.6074
  765MOL0     H  960   9.020   1.495   7.089  0.6181 -1.8084  2.6941
  765MOL0     H  961   8.945   1.414   6.951  1.3649 -0.5963 -0.5270
  765MOL0     H  962   8.324   2.148   7.289 -0.1847 -0.3180 -2.0936
  765MOL0     H  963   8.157   2.300   7.274 -1.1675  2.8770 -1.7312
  765MOL0     H  964   8.020   2.744   7.436  3.0390 -1.0481 -3.3823
  765MOL0     H  965   7.817   2.862   7.490 -2.2436  0.9392 -1.5873
  765MOL0     H  966   6.428   3.137   8.312 -1.1134  3.3361  0.9762
  765MOL0     H  967   6.191   3.169   8.376 -1.6492  2.1215  0.1513
  765MOL0     H  968   5.801   3.031   8.342  0.1686 -0.1847 -0.4733
  765MOL0     H  969   5.566   3.001   8.419  2.1133 -1.3372 -1.3835
  765MOL0     H  970   5.276   3.042   8.475 -0.1803  0.1018  0.0032
  765MOL0     H  971   5.377   2.927   8.376 -1.3364 -0.4233  0.1948
  765MOL0     H  972   5.099   2.992   8.335 -0.0790 -0.1547  1.9601
  765MOL0     H  973   5.189   2.898   8.228  0.4664  2.9300 -0.4996
  765MOL0     H  974   5.049   2.770   8.389  0.0712  0.1965  0.4508
  765MOL0     H  975   5.148   2.847   8.519 -1.9434 -1.1578  0.6641
  765MOL0     H  976   5.335   2.691   8.477  0.3679  3.2089 -0.3876
  765MOL0     H  977   5.184   2.600   8.441  0.2884  1.5760  2.8055
  765MOL0     H  978   5.332   2.570   8.062 -2.0725  3.3697 -2.4670
  765MOL0     H  979   5.436   3.289   8.125  1.7071  2.3683 -0.0054
  765MOL0     H  980   5.681   3.306   8.051  1.9206 -2.0630 -0.2273
  766MOL0     O  981   7.148  11.209   6.254  0.0950  0.5415 -0.3173
  766MOL0     C  982   7.071  11.117   6.291  0.2049  0.1731 -0.2573
  766MOL0     O  983   7.103  10.985   6.266 -0.1692 -0.3911 -0.4886
  766MOL0     C  984   7.231  10.941   6.261 -0.3013 -0.1062 -0.0210
  766MOL0     C  985   7.332  10.999   6.335  0.3439 -0.2744 -0.6298
  766MOL0     C  986   7.455  10.935   6.322 -1.0993 -0.3069  0.6830
  766MOL0     C  987   7.492  10.808   6.262  0.5136 -0.6660  0.4844
  766MOL0     O  988   7.625  10.773   6.254 -0.2155  0.2336 -0.6431
  766MOL0     C  989   7.640  10.630   6.278 -0.0895 -0.1203 -0.2623
  766MOL0     C  990   7.658  10.569   6.427  0.3778 -0.2341  0.6391
  766MOL0     C  991   7.521  10.535   6.499  0.1601  0.0852  0.7307
  766MOL0     C  992   7.556  10.492   6.645 -0.1176 -0.2406  0.3961
  766MOL0     C  993   7.619  10.359   6.664 -0.5984  0.3238 -0.0565
  766MOL0     C  994   7.647  10.333   6.815  0.0491 -0.6050  0.3080
  766MOL0     C  995   7.707  10.198   6.827  0.0422  0.3526 -0.4378
  766MOL0     C  996   7.839  10.190   6.761 -0.3410  0.0836 -0.1438
  766MOL0     N  997   7.904  10.063   6.798  0.1134  0.8087  0.5712
  766MOL0     C  998   7.979  10.037   6.904  0.4203  0.2560 -0.0059
  766MOL0     C  999   8.061   9.934   6.877  0.3810  0.8207 -0.7715
  766MOL0     C 1000   8.161   9.878   6.969  0.3816  0.3873  0.6035
  766MOL0     C 1001   8.092   9.801   7.087 -0.7219  0.2451  0.2163
  766MOL0     C 1002   8.139   9.845   7.225  0.7372 -0.8022 -1.0351
  766MOL0     C 1003   8.067   9.766   7.334 -0.2379  0.2536  0.6085
  766MOL0     O 1004   8.099   9.630   7.340 -0.4338 -0.7821 -0.1017
  766MOL0     C 1005   8.215   9.589   7.397 -0.0130  0.0048 -0.9019
  766MOL0     C 1006   8.307   9.663   7.469 -0.5693  0.7263 -0.0762
  766MOL0     C 1007   8.410   9.589   7.530 -0.9688 -0.1633  0.3574
  766MOL0     C 1008   8.432   9.448   7.505  0.6244 -0.1289 -0.9339
  766MOL0     C 1009   8.546   9.380   7.566  0.1873  0.0917  0.0796
  766MOL0     O 1010   8.566   9.250   7.534  0.3133 -0.5752  0.4522
  766MOL0     C 1011   8.658   9.166   7.594  0.1463 -0.0280  0.1717
  766MOL0     C 1012   8.731   9.195   7.713  0.3740 -0.0929  0.0550
  766MOL0     C 1013   8.791   9.087   7.781  0.5233 -0.5325 -0.6946
  766MOL0     C 1014   8.792   8.957   7.721  0.9173 -0.8361  0.3973
  766MOL0     O 1015   8.868   8.853   7.771 -0.1204 -0.2948  0.5395
  766MOL0     C 1016   8.928   8.858   7.897 -0.6459  0.2477 -0.4628
  766MOL0     C 1017   8.992   8.724   7.926 -0.6780  0.3967 -0.8445
  766MOL0     C 1018   8.896   8.609   7.940  0.1738 -0.2578 -0.0562
  766MOL0     C 1019   8.955   8.466   7.977  0.1870  0.5720  0.1015
  766MOL0     C 1020   8.849   8.356   7.957 -0.4107 -0.3781  0.1077
  766MOL0     C 1021   8.901   8.233   8.017  0.1971 -0.1221  0.3306
  766MOL0     C 1022   8.802   8.126   8.044  0.1538 -0.4491  0.1845
  766MOL0     C 1023   8.850   8.020   8.143 -0.1680 -0.8779  0.3751
  766MOL0    Cl 1024   8.996   7.961   8.058 -0.2977  0.2653  0.1809
  766MOL0     C 1025   8.727   8.940   7.595 -0.6526  0.6209 -0.2431
  766MOL0     C 1026   8.658   9.039   7.538 -0.3703  0.1135 -0.4272
  766MOL0     O 1027   8.612   9.447   7.647 -0.4663  0.2668 -0.3659
  766MOL0     C 1028   8.341   9.384   7.424  0.2735  0.4332 -0.4275
  766MOL0     C 1029   8.238   9.456   7.369 -0.4207  0.4151 -0.2700
  766MOL0     N 1030   8.023   9.898   6.750 -0.0801  0.0014 -0.9594
  766MOL0     N 1031   7.928   9.968   6.700 -0.7753 -0.2196  1.2734
  766MOL0     C 1032   7.384  10.751   6.195  1.1785  0.9454  0.5889
  766MOL0     C 1033   7.258  10.807   6.204 -0.0794 -0.6233 -0.8264
  766MOL0     C 1034   6.949  11.165   6.354  0.4489  0.3432 -0.2449
  766MOL0     C 1035   6.877  11.065   6.423  0.0884 -0.4860 -0.5894
  766MOL0     C 1036   6.751  11.102   6.484  0.4947 -0.3150 -0.5458
  766MOL0     C 1037   6.700  11.231   6.474  0.3158  0.0195  0.0432
  766MOL0     O 1038   6.584  11.266   6.539  0.1177 -0.3675 -0.1283
  766MOL0     C 1039   6.477  11.225   6.461 -0.3219  0.9622  0.6010
  766MOL0     C 1040   6.349  11.228   6.532 -0.7761 -1.6057 -0.0544
  766MOL0     C 1041   6.246  11.196   6.426  0.7445  0.0909 -0.0997
  766MOL0     C 1042   6.242  11.048   6.376  0.4103  0.2314 -0.2176
  766MOL0     C 1043   6.109  11.013   6.337  0.2300 -0.9594 -0.5936
  766MOL0     C 1044   5.995  10.967   6.317 -0.3954 -0.9409  0.6102
  766MOL0     C 1045   6.761  11.317   6.381 -0.2645 -0.3586 -0.4090
  766MOL0     C 1046   6.894  11.292   6.328 -1.0966  0.2427 -0.2358
  766MOL0     H 1047   7.314  11.094   6.384  0.4302 -0.7389  0.3319
  766MOL0     H 1048   7.544  10.970   6.375  2.8178 -6.1221 -1.0301
  766MOL0     H 1049   7.731  10.606   6.222 -0.5727  0.1306 -1.1696
  766MOL0     H 1050   7.571  10.566   6.222  0.6201  0.3651 -1.7320
  766MOL0     H 1051   7.720  10.640   6.483 -2.2840  1.7390  1.2624
  766MOL0     H 1052   7.710  10.474   6.410  4.3176  2.1034 -2.3297
  766MOL0     H 1053   7.462  10.462   6.442 -3.3772  3.0599  0.1624
  766MOL0     H 1054   7.468  10.630   6.487  0.0319 -0.2153 -1.7270
  766MOL0     H 1055   7.627  10.566   6.684 -1.0964  0.8095  0.2456
  766MOL0     H 1056   7.461  10.497   6.699  1.5947  0.6932  3.6481
  766MOL0     H 1057   7.705  10.355   6.596 -3.2785 -0.8641 -3.6972
  766MOL0     H 1058   7.545  10.291   6.621  1.0466  0.6127 -3.8336
  766MOL0     H 1059   7.551  10.329   6.867  0.0797  1.0025  0.5165
  766MOL0     H 1060   7.710  10.410   6.860 -1.9137  1.4068 -0.2284
  766MOL0     H 1061   7.714  10.166   6.932 -1.4560  1.2259 -0.0325
  766MOL0     H 1062   7.643  10.121   6.782  2.6987 -0.7046 -2.6304
  766MOL0     H 1063   7.917  10.261   6.790  0.1596 -0.9096  1.0641
  766MOL0     H 1064   7.824  10.182   6.653  0.0344  0.0892 -0.1987
  766MOL0     H 1065   7.986  10.099   6.993 -1.0708 -0.2711  0.5092
  766MOL0     H 1066   8.219   9.955   7.021  0.9179  0.8514 -0.6500
  766MOL0     H 1067   8.229   9.809   6.920 -1.6887 -3.1385  2.3220
  766MOL0     H 1068   8.126   9.698   7.086 -1.5631 -0.1032 -2.7476
  766MOL0     H 1069   7.984   9.804   7.069 -0.7850  2.8747  0.5742
  766MOL0     H 1070   8.248   9.840   7.220  0.6752 -3.5164 -1.1886
  766MOL0     H 1071   8.110   9.949   7.243  0.7293 -1.2116  1.7388
  766MOL0     H 1072   7.960   9.769   7.311  0.4025  0.9580 -2.7916
  766MOL0     H 1073   8.071   9.809   7.434 -0.9636  0.8497  0.3913
  766MOL0     H 1074   8.288   9.761   7.512 -1.4799  0.4213  0.2325
  766MOL0     H 1075   8.475   9.656   7.587 -0.2243 -0.9825  0.4854
  766MOL0     H 1076   8.740   9.288   7.768  1.8317  0.0067 -0.3188
  766MOL0     H 1077   8.833   9.116   7.876 -2.5450  0.3350  0.5012
  766MOL0     H 1078   8.859   8.875   7.981  0.1100 -0.2170  0.2768
  766MOL0     H 1079   9.000   8.940   7.897 -1.1416  0.6896  0.2374
  766MOL0     H 1080   9.057   8.717   8.014  1.4241 -0.8655 -2.3914
  766MOL0     H 1081   9.067   8.714   7.847 -0.8156  1.1423 -1.0786
  766MOL0     H 1082   8.827   8.608   7.855  0.6530  0.1579 -0.4558
  766MOL0     H 1083   8.835   8.626   8.028  1.9534 -4.7651  2.4082
  766MOL0     H 1084   9.046   8.453   7.919  0.5622 -0.0979  0.8238
  766MOL0     H 1085   8.971   8.467   8.086 -2.4455  2.3221  0.5832
  766MOL0     H 1086   8.830   8.326   7.853 -1.7703  1.5843 -0.2740
  766MOL0     H 1087   8.761   8.392   8.012 -1.6226 -1.6192 -0.9151
  766MOL0     H 1088   8.946   8.273   8.108 -2.9550  2.6754  0.8764
  766MOL0     H 1089   8.978   8.190   7.952 -1.2318 -2.9088  0.3495
  766MOL0     H 1090   8.711   8.172   8.084  1.0611  2.0800 -0.4760
  766MOL0     H 1091   8.764   8.084   7.950  1.2584 -0.4279 -0.2800
  766MOL0     H 1092   8.770   7.946   8.138 -0.3898 -0.5596 -1.7702
  766MOL0     H 1093   8.869   8.046   8.247 -1.4173 -3.0477  1.2066
  766MOL0     H 1094   8.734   8.835   7.568  0.0917 -0.3534  3.1815
  766MOL0     H 1095   8.604   9.014   7.447  1.3114  0.3166 -1.5242
  766MOL0     H 1096   8.358   9.277   7.414 -0.4457  0.3509 -0.8115
  766MOL0     H 1097   8.175   9.413   7.292  3.0819 -2.1507 -1.9791
  766MOL0     H 1098   7.383  10.657   6.141  0.4352  2.1678 -1.6236
  766MOL0     H 1099   7.177  10.766   6.145 -0.9877 -1.4993  0.9355
  766MOL0     H 1100   6.922  10.968   6.443 -0.1790 -0.5455 -0.2770
  766MOL0     H 1101   6.698  11.033   6.548  2.9292 -1.7218  0.0989
  766MOL0     H 1102   6.495  11.119   6.441  3.1089  1.3949  0.7881
  766MOL0     H 1103   6.471  11.283   6.368 -2.3725 -1.6643 -1.0502
  766MOL0     H 1104   6.355  11.156   6.614  2.4148  0.6938  1.9629
  766MOL0     H 1105   6.336  11.331   6.567  0.7414 -0.1082 -3.4123
  766MOL0     H 1106   6.257  11.253   6.333 -0.0976 -2.1560 -1.6712
  766MOL0     H 1107   6.146  11.221   6.464  1.2031  3.4466 -0.7947
  766MOL0     H 1108   6.307  11.035   6.290 -1.1327 -4.7157 -0.9214
  766MOL0     H 1109   6.276  10.978   6.452  0.9364  0.9654  0.2406
  766MOL0     H 1110   5.899  10.920   6.305 -2.0324  1.1417  4.0826
  766MOL0     H 1111   6.724  11.417   6.363 -0.0084  0.4817  3.0993
  766MOL0     H 1112   6.944  11.361   6.261  0.0095 -1.4921 -1.2909
  767MOL0     O 1113   6.699   6.546   3.609  0.8595 -0.2472  0.1304
  767MOL0     C 1114   6.659   6.512   3.721  0.2540  0.4702  0.1389
  767MOL0     O 1115   6.544   6.555   3.777 -0.5304  0.1564  0.0699
  767MOL0     C 1116   6.434   6.596   3.702 -0.3111  0.0325 -0.3279
  767MOL0     C 1117   6.387   6.729   3.708  0.3334  0.2192 -0.6331
  767MOL0     C 1118   6.264   6.761   3.650 -0.0472 -0.3145  0.9286
  767MOL0     C 1119   6.195   6.663   3.577 -0.2126  0.2581  0.5215
  767MOL0     O 1120   6.081   6.711   3.520  0.3642  0.1299 -0.1809
  767MOL0     C 1121   6.002   6.627   3.450  0.2529 -0.1477  0.2740
  767MOL0     C 1122   5.890   6.721   3.401  0.2247  0.0718 -0.0134
  767MOL0     C 1123   5.790   6.642   3.322  0.1532  0.9406  0.5571
  767MOL0     C 1124   5.681   6.575   3.411  0.5928  0.4963  0.1350
  767MOL0     C 1125   5.583   6.495   3.318  0.0008  0.3837 -0.2121
  767MOL0     C 1126   5.533   6.565   3.187  0.1708 -0.3783  0.5448
  767MOL0     C 1127   5.393   6.501   3.139 -0.1013 -0.0755 -0.1730
  767MOL0     C 1128   5.346   6.589   3.015 -0.4316  1.3091  0.2382
  767MOL0     N 1129   5.281   6.717   3.049 -0.1149  0.1229  0.2725
  767MOL0     C 1130   5.144   6.744   3.047 -1.2948  0.0049  0.2628
  767MOL0     C 1131   5.139   6.880   3.033  0.0107  0.6379 -0.9674
  767MOL0     C 1132   5.019   6.955   3.003  0.3763  0.2378 -0.1939
  767MOL0     C 1133   4.981   6.936   2.861 -1.0368  0.1830  0.1718
  767MOL0     C 1134   4.845   7.000   2.845  0.2497 -1.3365  0.1166
  767MOL0     C 1135   4.791   7.028   2.697  0.1833 -0.6129  0.1865
  767MOL0     O 1136   4.871   7.120   2.629 -0.2205 -0.1615  0.6392
  767MOL0     C 1137   4.869   7.251   2.669 -0.6944  0.4229  0.4451
  767MOL0     C 1138   4.977   7.326   2.714  0.9576  0.2271 -1.0172
  767MOL0     C 1139   4.965   7.459   2.748  0.3542 -0.1399 -1.1687
  767MOL0     C 1140   4.850   7.531   2.720  0.3789 -0.5981 -0.1936
  767MOL0     C 1141   4.844   7.679   2.735  0.2823 -0.4602 -0.4794
  767MOL0     O 1142   4.966   7.741   2.753 -0.9030  0.0287 -0.9587
  767MOL0     C 1143   4.973   7.880   2.748 -0.0366  0.7685  0.6778
  767MOL0     C 1144   5.025   7.939   2.632 -0.8363 -0.5767  0.0594
  767MOL0     C 1145   5.050   8.075   2.634  0.3650  0.3727  0.3270
  767MOL0     C 1146   5.029   8.150   2.748 -0.5607  0.1401 -0.1376
  767MOL0     O 1147   5.044   8.283   2.757 -0.3891 -0.4711  0.0398
  767MOL0     C 1148   5.067   8.357   2.638  0.2775 -0.6299 -1.4787
  767MOL0     C 1149   5.092   8.504   2.674  0.8581 -0.3249  0.2201
  767MOL0     C 1150   4.970   8.588   2.689  0.7605 -0.5466 -0.1082
  767MOL0     C 1151   5.004   8.735   2.736 -0.2178  0.8563 -0.0807
  767MOL0     C 1152   4.901   8.832   2.688  0.4590  0.4350 -0.1435
  767MOL0     C 1153   4.923   8.976   2.752 -0.0511  0.5107 -0.2479
  767MOL0     C 1154   4.803   9.057   2.706  0.1585 -0.2483  0.0234
  767MOL0     C 1155   4.843   9.209   2.697  0.9814 -0.5378 -0.5957
  767MOL0    Cl 1156   4.954   9.233   2.566 -0.1576  0.3992  0.1555
  767MOL0     C 1157   4.980   8.084   2.863  0.9480  0.5066  0.3428
  767MOL0     C 1158   4.958   7.950   2.867 -0.5389  0.9920  0.5451
  767MOL0     O 1159   4.740   7.736   2.704  0.0053 -0.8096 -0.1759
  767MOL0     C 1160   4.743   7.465   2.665  0.2119  0.5826  0.1041
  767MOL0     C 1161   4.756   7.325   2.635  1.0524 -0.0378 -0.0090
  767MOL0     N 1162   5.263   6.935   3.026 -0.5044  0.3503 -0.0575
  767MOL0     N 1163   5.354   6.834   3.033 -0.2751 -0.5653 -0.0711
  767MOL0     C 1164   6.234   6.532   3.579  0.1888  0.3950 -0.4050
  767MOL0     C 1165   6.354   6.500   3.631 -0.0191  0.4161 -0.4568
  767MOL0     C 1166   6.755   6.437   3.808  0.8243 -0.4449 -0.2012
  767MOL0     C 1167   6.711   6.411   3.935 -0.2434 -0.1218  0.4293
  767MOL0     C 1168   6.780   6.327   4.023  0.0942 -0.5261  0.1448
  767MOL0     C 1169   6.899   6.262   3.983  0.1361  0.0128 -0.2121
  767MOL0     O 1170   6.976   6.180   4.068 -0.2169  0.0914  0.5836
  767MOL0     C 1171   6.948   6.168   4.207  0.4046  0.8725 -0.0556
  767MOL0     C 1172   6.977   6.294   4.294  0.2958 -0.4833  0.5208
  767MOL0     C 1173   7.118   6.361   4.245  1.2597  0.1391  1.0505
  767MOL0     C 1174   7.229   6.259   4.228 -0.3439  0.7440  0.3489
  767MOL0     C 1175   7.346   6.349   4.222 -0.4426  0.5994  0.2603
  767MOL0     C 1176   7.426   6.436   4.237  0.6446  0.5026 -0.9774
  767MOL0     C 1177   6.935   6.281   3.849 -0.0804 -0.1184 -0.1910
  767MOL0     C 1178   6.868   6.361   3.757  0.3392  0.6188 -0.2833
  767MOL0     H 1179   6.450   6.802   3.757 -0.5588  0.8112 -0.3516
  767MOL0     H 1180   6.227   6.863   3.660 -0.8991 -0.5712  0.5287
  767MOL0     H 1181   5.973   6.540   3.510 -1.3567 -1.2348 -1.9534
  767MOL0     H 1182   6.052   6.584   3.363 -1.9227 -3.4247  0.4943
  767MOL0     H 1183   5.929   6.804   3.341  0.9806 -0.7634 -0.7088
  767MOL0     H 1184   5.842   6.782   3.477  2.8142 -0.4923  2.2600
  767MOL0     H 1185   5.841   6.567   3.260 -4.2144 -1.3893 -0.7320
  767MOL0     H 1186   5.732   6.712   3.261  2.3296  3.3930  1.1391
  767MOL0     H 1187   5.707   6.510   3.494  0.4141  1.9630  1.3948
  767MOL0     H 1188   5.634   6.656   3.468 -1.9680  1.3501 -2.9174
  767MOL0     H 1189   5.496   6.476   3.382  0.3090 -3.4116 -0.6851
  767MOL0     H 1190   5.632   6.399   3.301  1.2095  1.0188 -0.4525
  767MOL0     H 1191   5.613   6.554   3.114 -1.3661  0.4023 -1.3555
  767MOL0     H 1192   5.519   6.673   3.197  1.1010 -0.1410 -0.6013
  767MOL0     H 1193   5.389   6.395   3.112  0.1920  0.1549 -1.1606
  767MOL0     H 1194   5.316   6.505   3.217  0.5201  0.1686  0.4326
  767MOL0     H 1195   5.284   6.517   2.961  1.8865  0.1299 -0.9950
  767MOL0     H 1196   5.439   6.606   2.961  0.3729 -2.4934  0.1293
  767MOL0     H 1197   5.058   6.677   3.054  0.5536 -2.3560  2.3080
  767MOL0     H 1198   5.023   7.060   3.032 -0.8439 -0.3875  2.5543
  767MOL0     H 1199   4.940   6.902   3.056  1.2983 -4.0659 -2.5999
  767MOL0     H 1200   4.976   6.832   2.825  0.4718  0.1016  0.1263
  767MOL0     H 1201   5.051   6.992   2.799  1.9361  0.5732  3.5353
  767MOL0     H 1202   4.759   6.947   2.885 -0.0302  1.8762  4.4912
  767MOL0     H 1203   4.842   7.096   2.897  2.1453 -0.8891 -0.4895
  767MOL0     H 1204   4.691   7.070   2.692  0.7512  1.0506  1.5812
  767MOL0     H 1205   4.798   6.929   2.651 -0.4903 -0.5953  0.0520
  767MOL0     H 1206   5.065   7.266   2.735  0.1339 -0.4673  0.5886
  767MOL0     H 1207   5.050   7.495   2.805 -2.7020  2.1273  2.4732
  767MOL0     H 1208   5.058   7.876   2.550 -0.1972  0.8770 -0.8352
  767MOL0     H 1209   5.081   8.117   2.539 -5.1586 -2.3924 -3.2491
  767MOL0     H 1210   4.989   8.359   2.561  0.1648 -0.2335 -1.3550
  767MOL0     H 1211   5.158   8.320   2.590  0.5679  0.6276 -1.9092
  767MOL0     H 1212   5.168   8.557   2.615 -0.3278  2.1572  0.7944
  767MOL0     H 1213   5.138   8.488   2.772 -1.2414  0.2746  1.3622
  767MOL0     H 1214   4.882   8.551   2.744  2.2928  1.2814  3.8783
  767MOL0     H 1215   4.931   8.599   2.587 -0.9309 -2.5831  0.2497
  767MOL0     H 1216   4.999   8.740   2.846 -1.8570  2.1814 -0.1777
  767MOL0     H 1217   5.108   8.762   2.715  0.3478 -1.0197  0.0469
  767MOL0     H 1218   4.805   8.791   2.723 -0.2558  1.9770 -0.2225
  767MOL0     H 1219   4.894   8.844   2.580  1.6281 -0.4947 -0.3460
  767MOL0     H 1220   5.020   9.019   2.725 -0.5494  0.1565 -2.8631
  767MOL0     H 1221   4.917   8.955   2.859  3.1622 -3.9457 -0.6777
  767MOL0     H 1222   4.753   9.023   2.615  0.9509 -2.0194  0.2025
  767MOL0     H 1223   4.734   9.054   2.790  3.1409  2.0981  2.8393
  767MOL0     H 1224   4.884   9.250   2.789  0.6716  4.3580 -2.3370
  767MOL0     H 1225   4.746   9.257   2.680 -0.3202 -1.7091  2.7046
  767MOL0     H 1226   4.952   8.131   2.956  0.5460  0.5530  0.1984
  767MOL0     H 1227   4.936   7.898   2.959  0.5056  2.5295  1.7114
  767MOL0     H 1228   4.652   7.518   2.636  0.8581  1.8992  0.4241
  767MOL0     H 1229   4.668   7.274   2.597  0.5282  0.3791  0.6234
  767MOL0     H 1230   6.170   6.450   3.548 -0.7027 -0.0640  2.4020
  767MOL0     H 1231   6.399   6.405   3.604 -0.2133  0.9025 -2.6713
  767MOL0     H 1232   6.624   6.458   3.980  1.2909  1.8947  1.5148
  767MOL0     H 1233   6.751   6.327   4.127 -0.1631  0.0254  0.0782
  767MOL0     H 1234   7.007   6.091   4.257 -1.8559 -0.1545  1.2048
  767MOL0     H 1235   6.844   6.133   4.206  0.8981 -0.7768 -2.2067
  767MOL0     H 1236   6.899   6.369   4.281  0.2345 -0.8002 -1.3249
  767MOL0     H 1237   6.986   6.275   4.401  1.3946 -1.0589  0.3447
  767MOL0     H 1238   7.147   6.428   4.327  0.8230  2.0435 -0.2890
  767MOL0     H 1239   7.104   6.424   4.157  0.0397 -2.3283 -0.6190
  767MOL0     H 1240   7.245   6.178   4.300  2.0544  0.5812 -0.2857
  767MOL0     H 1241   7.224   6.216   4.128  1.3183  1.8729 -0.2527
  767MOL0     H 1242   7.494   6.510   4.274  0.2854  0.1354  0.4795
  767MOL0     H 1243   7.026   6.239   3.807  0.5814  2.2627 -1.3279
  767MOL0     H 1244   6.911   6.378   3.659  1.1603 -0.5274 -0.1432
  768MOL0     O 1245   9.804   2.507   2.240  0.1041 -0.0073 -0.0771
  768MOL0     C 1246   9.868   2.535   2.340  0.3068 -0.0803 -0.0687
  768MOL0     O 1247   9.824   2.611   2.446  0.6958  0.1296  1.1743
  768MOL0     C 1248   9.693   2.662   2.441  0.5649  0.8052  0.3385
  768MOL0     C 1249   9.653   2.763   2.358 -0.4645  0.1112 -0.1908
  768MOL0     C 1250   9.516   2.802   2.362  0.6911 -0.5741 -0.5924
  768MOL0     C 1251   9.432   2.749   2.458  0.9178 -0.1187  1.3311
  768MOL0     O 1252   9.296   2.780   2.466  0.0077  0.4154  0.8582
  768MOL0     C 1253   9.260   2.921   2.443 -0.0582  0.8824 -0.1920
  768MOL0     C 1254   9.168   2.965   2.546  0.5820  0.5305  0.4062
  768MOL0     C 1255   9.133   3.118   2.531 -0.0823 -0.2976  0.1735
  768MOL0     C 1256   9.042   3.167   2.643 -0.4717  0.0524  0.4211
  768MOL0     C 1257   8.898   3.192   2.602 -0.1132  0.7596  0.8911
  768MOL0     C 1258   8.816   3.241   2.720  0.0311  0.1221 -1.2270
  768MOL0     C 1259   8.667   3.249   2.678 -0.2835 -0.2077 -0.4380
  768MOL0     C 1260   8.571   3.313   2.775 -0.4625 -0.3379  0.8879
  768MOL0     N 1261   8.446   3.351   2.713  0.4990  0.5727 -0.2411
  768MOL0     C 1262   8.355   3.261   2.669  0.2648 -0.2343  0.2589
  768MOL0     C 1263   8.239   3.335   2.663 -0.3931  0.0729 -0.0976
  768MOL0     C 1264   8.109   3.269   2.638  0.2469 -0.3150  0.0907
  768MOL0     C 1265   8.035   3.250   2.773 -0.1636 -0.0666  1.0496
  768MOL0     C 1266   7.887   3.192   2.764 -0.4580  0.0474  0.4951
  768MOL0     C 1267   7.838   3.111   2.882 -1.0600  0.1222 -0.8801
  768MOL0     O 1268   7.699   3.069   2.855 -0.3375  0.5952 -0.0142
  768MOL0     C 1269   7.620   3.022   2.959 -0.0188  0.5364 -0.1367
  768MOL0     C 1270   7.487   2.993   2.930 -0.6579 -0.1443  0.0105
  768MOL0     C 1271   7.401   2.958   3.030  0.0627 -0.2560  0.6081
  768MOL0     C 1272   7.449   2.933   3.156 -0.0064 -0.0030 -0.2387
  768MOL0     C 1273   7.348   2.882   3.256 -0.0824 -0.3881 -0.1106
  768MOL0     O 1274   7.400   2.807   3.359  0.0506 -0.5336 -0.5274
  768MOL0     C 1275   7.328   2.729   3.439 -0.0939  0.1545  0.1397
  768MOL0     C 1276   7.381   2.722   3.571 -0.1880 -0.3558 -0.0193
  768MOL0     C 1277   7.312   2.638   3.670 -0.4265  0.0934  0.0122
  768MOL0     C 1278   7.204   2.553   3.631 -0.1674  0.3573  0.9110
  768MOL0     O 1279   7.159   2.450   3.716  0.0691  0.1743  0.3077
  768MOL0     C 1280   7.145   2.473   3.861 -0.2959 -1.7384 -0.5193
  768MOL0     C 1281   7.073   2.350   3.928 -0.8951 -0.6018 -0.1709
  768MOL0     C 1282   6.945   2.313   3.857 -0.4676  1.2536 -0.1083
  768MOL0     C 1283   6.966   2.191   3.750 -0.4205 -0.6323  0.3323
  768MOL0     C 1284   6.860   2.167   3.641 -0.5516 -0.3371  0.5686
  768MOL0     C 1285   6.867   2.284   3.533  0.2479 -0.4541 -0.2748
  768MOL0     C 1286   6.739   2.284   3.460  0.4642  0.2324  0.3839
  768MOL0     C 1287   6.692   2.416   3.412 -0.3016  0.2549 -0.5367
  768MOL0    Cl 1288   6.669   2.527   3.555 -0.6589 -0.1397  0.1104
  768MOL0     C 1289   7.154   2.558   3.499  0.1483 -0.5592  0.4835
  768MOL0     C 1290   7.220   2.644   3.405  0.3412 -0.6554 -0.1242
  768MOL0     O 1291   7.230   2.898   3.237  0.0689  0.1880 -1.4322
  768MOL0     C 1292   7.583   2.952   3.187 -0.7900  0.7164 -0.5248
  768MOL0     C 1293   7.666   2.997   3.089 -0.2256 -0.5400  0.4066
  768MOL0     N 1294   8.272   3.465   2.704  0.3571 -0.1324  0.1608
  768MOL0     N 1295   8.393   3.471   2.732 -0.4611 -0.9564 -0.2634
  768MOL0     C 1296   9.472   2.650   2.542  0.7809 -0.6821  0.1971
  768MOL0     C 1297   9.605   2.606   2.535 -0.5890  0.0926 -0.2036
  768MOL0     C 1298  10.005   2.489   2.346 -0.1938  0.1478 -0.5808
  768MOL0     C 1299  10.063   2.431   2.225  1.0055 -0.0536 -0.0354
  768MOL0     C 1300  10.197   2.390   2.225  0.1346  0.3968 -0.0825
  768MOL0     C 1301  10.279   2.414   2.340  0.3005 -1.0872 -0.1410
  768MOL0     O 1302  10.409   2.363   2.352  0.5076  0.8861  0.9216
  768MOL0     C 1303  10.470   2.299   2.239  0.6906  0.1912  0.0507
  768MOL0     C 1304  10.625   2.287   2.261 -1.3051  0.1284 -0.5405
  768MOL0     C 1305  10.709   2.229   2.154 -0.6720 -0.7337 -0.4822
  768MOL0     C 1306  10.670   2.089   2.108  0.2800 -0.3931  0.6517
  768MOL0     C 1307  10.561   2.103   2.017 -0.2919 -0.3036 -0.1000
  768MOL0     C 1308  10.468   2.114   1.942  1.0253  0.8972  1.2148
  768MOL0     C 1309  10.218   2.482   2.445 -0.7645  0.6848  0.9413
  768MOL0     C 1310  10.089   2.510   2.461 -0.0464 -0.5703  0.5248
  768MOL0     H 1311   9.727   2.803   2.289 -0.7921 -0.8698 -1.1384
  768MOL0     H 1312   9.482   2.878   2.292 -0.6893 -1.8798 -1.4014
  768MOL0     H 1313   9.217   2.933   2.344  1.7147  1.3301 -0.9437
  768MOL0     H 1314   9.349   2.984   2.454 -0.4961  2.2086 -3.4263
  768MOL0     H 1315   9.209   2.939   2.644  0.4756 -1.2386  0.0187
  768MOL0     H 1316   9.069   2.919   2.542 -0.9511  3.1015  3.3699
  768MOL0     H 1317   9.101   3.137   2.428 -2.9885 -0.8535  0.8794
  768MOL0     H 1318   9.228   3.169   2.547 -0.2563 -0.3972  1.7300
  768MOL0     H 1319   9.047   3.093   2.723  2.0179 -1.3196 -0.8843
  768MOL0     H 1320   9.072   3.264   2.686  0.0201 -0.0045  0.2195
  768MOL0     H 1321   8.864   3.093   2.569 -1.0024  0.2287  3.1603
  768MOL0     H 1322   8.890   3.271   2.527 -1.8981  0.3606  0.6232
  768MOL0     H 1323   8.857   3.337   2.752  1.0322 -0.6580 -0.1121
  768MOL0     H 1324   8.832   3.179   2.808  1.2196  0.0091 -1.5093
  768MOL0     H 1325   8.648   3.308   2.588 -0.4586  0.4873  0.0459
  768MOL0     H 1326   8.623   3.149   2.667 -2.8939  0.5342  1.8627
  768MOL0     H 1327   8.623   3.401   2.813  1.9545 -2.9386  4.2105
  768MOL0     H 1328   8.549   3.243   2.856 -4.3997 -0.0398  0.2607
  768MOL0     H 1329   8.370   3.154   2.657  2.3950  0.1899 -1.4537
  768MOL0     H 1330   8.126   3.174   2.586 -0.0165 -0.3058 -0.0160
  768MOL0     H 1331   8.055   3.336   2.569  0.8656  1.4443  1.2443
  768MOL0     H 1332   8.027   3.348   2.821  2.3569  1.0555 -0.5729
  768MOL0     H 1333   8.095   3.182   2.833  3.0680  1.4782 -0.1491
  768MOL0     H 1334   7.820   3.275   2.741 -1.0687 -0.8624 -1.1551
  768MOL0     H 1335   7.883   3.120   2.682 -0.0458  0.9884 -0.3670
  768MOL0     H 1336   7.866   3.160   2.975 -0.4165  1.3065 -1.6695
  768MOL0     H 1337   7.899   3.021   2.877  0.9877  1.3997  0.0175
  768MOL0     H 1338   7.462   2.994   2.824  0.9548 -0.3541 -0.4001
  768MOL0     H 1339   7.305   2.929   2.989 -0.2538  1.4879  0.0317
  768MOL0     H 1340   7.470   2.768   3.613 -0.4221  1.1320 -1.0991
  768MOL0     H 1341   7.358   2.636   3.768 -1.7048  0.3542  0.6411
  768MOL0     H 1342   7.081   2.559   3.883  2.0938  0.0253 -0.1025
  768MOL0     H 1343   7.240   2.484   3.913 -0.7132  0.4875 -0.1223
  768MOL0     H 1344   7.037   2.379   4.027 -1.2661 -2.8210  0.3790
  768MOL0     H 1345   7.137   2.263   3.941  0.3216 -0.1270 -2.3647
  768MOL0     H 1346   6.898   2.399   3.808 -3.9358  0.4285  1.4725
  768MOL0     H 1347   6.867   2.281   3.927 -0.9875  3.0703  0.2053
  768MOL0     H 1348   7.052   2.224   3.692 -1.0582  4.4138  1.8073
  768MOL0     H 1349   6.996   2.093   3.790  1.3603 -1.0482 -1.8170
  768MOL0     H 1350   6.766   2.165   3.698  0.6013  1.3301  2.6614
  768MOL0     H 1351   6.869   2.076   3.582 -3.1152 -0.1978 -0.1725
  768MOL0     H 1352   6.936   2.256   3.453 -0.6107 -3.1093 -0.1717
  768MOL0     H 1353   6.890   2.384   3.572  0.7129 -0.9182  0.6534
  768MOL0     H 1354   6.756   2.211   3.381 -1.2848  1.4458 -1.2035
  768MOL0     H 1355   6.661   2.234   3.517 -1.2065  1.0706 -1.0796
  768MOL0     H 1356   6.593   2.419   3.364 -1.5702 -1.9643  1.7427
  768MOL0     H 1357   6.761   2.464   3.342 -2.6788  3.6293 -0.8121
  768MOL0     H 1358   7.074   2.493   3.465 -1.5045  2.4816 -2.0060
  768MOL0     H 1359   7.187   2.631   3.302  1.0803 -1.6199 -0.2462
  768MOL0     H 1360   7.616   2.923   3.286  0.2943  1.0303 -0.7835
  768MOL0     H 1361   7.767   3.022   3.116  0.8767 -3.2150 -0.8266
  768MOL0     H 1362   9.400   2.615   2.616 -2.2614  3.8194 -0.2610
  768MOL0     H 1363   9.643   2.527   2.598  2.4453  0.4662 -1.3821
  768MOL0     H 1364  10.008   2.424   2.132 -1.2617 -1.2172  1.2980
  768MOL0     H 1365  10.227   2.337   2.135 -1.9893 -1.0685 -0.0049
  768MOL0     H 1366  10.460   2.369   2.155  1.8415  2.8270  1.9849
  768MOL0     H 1367  10.431   2.197   2.229  4.7949 -1.5411  0.0122
  768MOL0     H 1368  10.662   2.386   2.289 -4.3376  0.6363  2.5070
  768MOL0     H 1369  10.638   2.220   2.347 -5.0187 -3.1969 -2.1998
  768MOL0     H 1370  10.813   2.226   2.189 -1.4172  0.0818  1.9908
  768MOL0     H 1371  10.711   2.304   2.074 -1.3657 -0.1827  0.0068
  768MOL0     H 1372  10.752   2.052   2.046 -0.0279 -1.7579  1.0179
  768MOL0     H 1373  10.651   2.016   2.187 -1.3121 -1.5194 -0.7017
  768MOL0     H 1374  10.383   2.125   1.878 -0.2672  0.0867  2.7377
  768MOL0     H 1375  10.284   2.506   2.528 -0.3980  1.7794  0.3424
  768MOL0     H 1376  10.065   2.547   2.560 -1.2935  0.3343 -0.0993
  769MOL0     O 1377   5.436   4.797   7.216  0.6005 -0.2696  0.9006
  769MOL0     C 1378   5.473   4.893   7.279  0.5136 -0.5353 -0.2757
  769MOL0     O 1379   5.520   5.010   7.220 -0.7107 -0.2648  0.1857
  769MOL0     C 1380   5.559   5.001   7.091  0.2472  0.1863  0.7308
  769MOL0     C 1381   5.477   5.006   6.979  0.1852 -1.4695 -0.2713
  769MOL0     C 1382   5.519   4.992   6.852 -0.2343  0.1258  0.4320
  769MOL0     C 1383   5.660   4.988   6.831 -0.2332  0.1993  0.7249
  769MOL0     O 1384   5.722   4.991   6.712 -0.5031 -0.5419 -0.8096
  769MOL0     C 1385   5.664   5.065   6.608  0.8454  0.2546 -0.3122
  769MOL0     C 1386   5.773   5.095   6.505  0.2940 -0.5108 -1.1135
  769MOL0     C 1387   5.884   5.166   6.568  0.0444 -0.1345  0.0934
  769MOL0     C 1388   5.857   5.309   6.606  0.3389 -0.1125 -0.2986
  769MOL0     C 1389   5.977   5.376   6.683  0.2606  0.2659 -0.8859
  769MOL0     C 1390   5.922   5.510   6.745 -0.5768 -0.4933 -0.2283
  769MOL0     C 1391   6.018   5.568   6.857 -1.0395  0.8589  0.4125
  769MOL0     C 1392   5.995   5.717   6.886 -1.1279 -0.0742 -0.4403
  769MOL0     N 1393   6.095   5.760   6.987 -0.6716  0.3989 -0.1546
  769MOL0     C 1394   6.074   5.733   7.121  0.2152 -0.0769  0.0464
  769MOL0     C 1395   6.162   5.816   7.188  0.1997 -0.8157  0.5032
  769MOL0     C 1396   6.192   5.829   7.337 -0.0514  0.9152  0.7448
  769MOL0     C 1397   6.222   5.689   7.394  0.5752  0.7822  0.1284
  769MOL0     C 1398   6.241   5.699   7.545 -0.2196  0.2571 -0.7428
  769MOL0     C 1399   6.387   5.728   7.594  0.2494 -0.6312 -0.6815
  769MOL0     O 1400   6.389   5.756   7.735 -0.5917  0.0488  0.6731
  769MOL0     C 1401   6.360   5.652   7.820  0.9974 -1.1061 -0.2962
  769MOL0     C 1402   6.356   5.513   7.793 -0.1234 -0.5201 -0.4552
  769MOL0     C 1403   6.318   5.415   7.887  0.2708 -0.4919  0.4312
  769MOL0     C 1404   6.293   5.453   8.018 -0.9913 -0.0375 -0.7895
  769MOL0     C 1405   6.274   5.357   8.129 -0.2389  0.5465 -0.1397
  769MOL0     O 1406   6.313   5.391   8.256 -0.7718 -0.2396  0.1639
  769MOL0     C 1407   6.299   5.297   8.352 -0.9137  0.3105  0.3675
  769MOL0     C 1408   6.194   5.286   8.438  0.6419 -0.7429 -0.5726
  769MOL0     C 1409   6.195   5.202   8.543  0.6821 -0.2518 -0.5420
  769MOL0     C 1410   6.297   5.108   8.559 -0.3224 -0.8695 -0.1876
  769MOL0     O 1411   6.285   5.003   8.649  0.1295  0.4928 -0.3235
  769MOL0     C 1412   6.352   5.014   8.776  0.2358 -0.5199  0.2578
  769MOL0     C 1413   6.280   4.910   8.859  0.0323 -0.2858 -0.5923
  769MOL0     C 1414   6.364   4.863   8.974 -0.4808 -0.6023  0.3206
  769MOL0     C 1415   6.292   4.778   9.073 -0.6417  1.1355 -0.2456
  769MOL0     C 1416   6.183   4.842   9.164 -0.7751  0.8517 -0.0070
  769MOL0     C 1417   6.063   4.747   9.180 -0.4174 -0.0408  0.0199
  769MOL0     C 1418   5.940   4.818   9.264 -0.5150  0.1298  0.8797
  769MOL0     C 1419   5.922   4.744   9.387 -1.2184 -0.2120  0.2840
  769MOL0    Cl 1420   6.074   4.759   9.491 -0.0921  0.0657 -0.4822
  769MOL0     C 1421   6.412   5.125   8.472  0.4008 -0.0888 -0.1653
  769MOL0     C 1422   6.416   5.216   8.378 -0.4679 -0.8831  1.2601
  769MOL0     O 1423   6.215   5.250   8.101  0.5556  0.4849 -0.3950
  769MOL0     C 1424   6.305   5.591   8.053 -0.3409  0.0871  0.2559
  769MOL0     C 1425   6.345   5.686   7.956  0.0018 -0.7968  0.3772
  769MOL0     N 1426   6.235   5.890   7.097  1.0324 -0.0616  0.4570
  769MOL0     N 1427   6.197   5.851   6.978 -0.5398 -0.1677 -0.3330
  769MOL0     C 1428   5.747   5.006   6.936  0.8961  0.0390 -0.5993
  769MOL0     C 1429   5.697   5.002   7.068  0.3904  0.2627  0.2742
  769MOL0     C 1430   5.468   4.892   7.426 -0.2926 -0.7925 -0.5774
  769MOL0     C 1431   5.453   4.771   7.480 -0.3449  0.9651 -0.0224
  769MOL0     C 1432   5.425   4.772   7.622  0.8350  1.0986 -0.2317
  769MOL0     C 1433   5.420   4.885   7.697  0.0916  0.6328 -0.1378
  769MOL0     O 1434   5.349   4.874   7.811 -0.6106 -0.6214  0.7738
  769MOL0     C 1435   5.261   4.978   7.852 -0.0942  0.3208 -0.1198
  769MOL0     C 1436   5.137   4.922   7.928 -0.4661 -0.1568  0.2311
  769MOL0     C 1437   5.036   4.883   7.825  0.9187 -0.2082  0.3556
  769MOL0     C 1438   4.912   4.815   7.882 -0.4990  0.4556 -0.1659
  769MOL0     C 1439   4.958   4.698   7.947  0.7732  0.3373  0.4386
  769MOL0     C 1440   5.001   4.609   8.012 -0.3967  0.4063  0.5668
  769MOL0     C 1441   5.460   5.006   7.642  0.2520 -0.3726  0.7147
  769MOL0     C 1442   5.487   5.006   7.506 -0.2931  0.2680  0.6964
  769MOL0     H 1443   5.369   5.011   6.982  0.2586  0.2022  0.0416
  769MOL0     H 1444   5.440   4.983   6.777 -1.4571 -1.0684  1.7976
  769MOL0     H 1445   5.614   5.152   6.651 -2.2687 -1.7251  0.4373
  769MOL0     H 1446   5.579   5.011   6.564  1.0882 -1.6167  1.3873
  769MOL0     H 1447   5.733   5.140   6.414 -0.6051 -2.0153 -1.5001
  769MOL0     H 1448   5.799   4.993   6.477  0.7962 -0.6994 -0.0196
  769MOL0     H 1449   5.972   5.169   6.503  0.7478  3.4507  0.9591
  769MOL0     H 1450   5.909   5.114   6.661 -5.7516 -1.4868  1.3111
  769MOL0     H 1451   5.833   5.363   6.514 -0.5128 -2.4734 -1.5501
  769MOL0     H 1452   5.772   5.312   6.676  1.9302 -0.9587  1.7577
  769MOL0     H 1453   6.065   5.385   6.619  2.4118 -1.6066  1.5824
  769MOL0     H 1454   6.003   5.316   6.771  0.7764 -2.8635 -3.0401
  769MOL0     H 1455   5.823   5.502   6.789 -0.0787  1.4538  1.3838
  769MOL0     H 1456   5.913   5.575   6.657 -3.5498 -3.4075 -2.3095
  769MOL0     H 1457   6.011   5.510   6.950  2.1574  1.1594  0.9658
  769MOL0     H 1458   6.121   5.552   6.823 -1.0049  0.1946  0.8117
  769MOL0     H 1459   5.900   5.732   6.938  0.6443  1.6376  2.5878
  769MOL0     H 1460   5.982   5.778   6.796 -0.7438  0.0862 -0.3873
  769MOL0     H 1461   6.007   5.666   7.174  0.7186 -1.1469 -0.6296
  769MOL0     H 1462   6.104   5.876   7.379 -0.5415  3.2301 -2.4957
  769MOL0     H 1463   6.277   5.898   7.326 -1.5180  2.4665 -1.7724
  769MOL0     H 1464   6.309   5.637   7.354 -2.0242 -4.6530  0.6276
  769MOL0     H 1465   6.137   5.623   7.376 -0.6660  1.3879  3.1154
  769MOL0     H 1466   6.172   5.777   7.579 -0.7266  0.4882 -2.2164
  769MOL0     H 1467   6.203   5.614   7.602 -3.2526  2.3979  0.6985
  769MOL0     H 1468   6.428   5.816   7.543  2.7438 -2.4275 -2.0097
  769MOL0     H 1469   6.458   5.651   7.563  3.4611  2.3978 -1.6467
  769MOL0     H 1470   6.390   5.478   7.696  0.2852 -1.6245  0.0645
  769MOL0     H 1471   6.324   5.314   7.848  1.3594  0.1742 -1.2162
  769MOL0     H 1472   6.113   5.356   8.423  0.7271 -0.9001 -1.9684
  769MOL0     H 1473   6.107   5.203   8.606  1.7800  1.7743  1.0815
  769MOL0     H 1474   6.331   5.109   8.826 -2.1372 -2.2697  2.8410
  769MOL0     H 1475   6.460   5.001   8.769  0.3049 -0.7503  1.6193
  769MOL0     H 1476   6.250   4.832   8.789  2.7148  1.0511 -3.5287
  769MOL0     H 1477   6.188   4.961   8.890  0.6769  1.5106 -1.4520
  769MOL0     H 1478   6.405   4.934   9.047 -0.1995 -0.7174  0.2768
  769MOL0     H 1479   6.452   4.809   8.938  0.2148 -0.0184  1.0979
  769MOL0     H 1480   6.243   4.697   9.017 -2.3423  2.2537 -0.4591
  769MOL0     H 1481   6.362   4.732   9.143 -2.6070  1.1401  1.8449
  769MOL0     H 1482   6.144   4.931   9.115 -1.1908  1.5051  1.4537
  769MOL0     H 1483   6.221   4.872   9.262  1.0163  0.7692 -0.6434
  769MOL0     H 1484   6.105   4.661   9.232  4.7821  2.1736  0.0867
  769MOL0     H 1485   6.027   4.707   9.084  1.9218 -3.6511  0.4469
  769MOL0     H 1486   5.950   4.924   9.287  0.6242  0.0343  0.9050
  769MOL0     H 1487   5.844   4.804   9.213  1.2195 -0.1374 -2.6166
  769MOL0     H 1488   5.903   4.636   9.384 -0.1005 -0.4999  1.9410
  769MOL0     H 1489   5.834   4.783   9.439  1.3176  2.5360  2.9223
  769MOL0     H 1490   6.486   5.046   8.475 -1.8913 -2.4733 -1.7184
  769MOL0     H 1491   6.505   5.244   8.322 -2.3287  0.3263 -1.2922
  769MOL0     H 1492   6.287   5.610   8.158  0.3938 -0.8395  0.5652
  769MOL0     H 1493   6.354   5.791   7.980  0.3671 -1.0684  1.5192
  769MOL0     H 1494   5.855   5.004   6.919  0.8926  1.2921 -0.8122
  769MOL0     H 1495   5.758   5.017   7.156 -2.3258  0.6505  2.2370
  769MOL0     H 1496   5.460   4.684   7.415 -0.8325 -0.2895  1.5308
  769MOL0     H 1497   5.412   4.680   7.678  3.3828 -0.4579 -1.9873
  769MOL0     H 1498   5.219   5.031   7.766 -0.8351 -0.2557 -0.1192
  769MOL0     H 1499   5.316   5.051   7.912 -0.4612  0.3462  0.1968
  769MOL0     H 1500   5.170   4.842   7.995 -0.8057  0.2876  0.9405
  769MOL0     H 1501   5.097   5.000   7.992 -1.2659  0.7695 -1.3421
  769MOL0     H 1502   5.079   4.810   7.756  2.6260  2.6992 -1.8747
  769MOL0     H 1503   4.989   4.966   7.772 -1.5981 -2.3673 -1.0968
  769MOL0     H 1504   4.857   4.876   7.955  4.5239  2.5117  2.3439
  769MOL0     H 1505   4.844   4.791   7.800 -1.0253  0.3501  0.2932
  769MOL0     H 1506   5.045   4.531   8.072 -1.2781 -1.2034 -0.8066
  769MOL0     H 1507   5.479   5.095   7.700 -1.0092  1.2205 -1.2085
  769MOL0     H 1508   5.528   5.092   7.455  1.8653 -1.4664 -0.7448
  770MOL0     O 1509   7.687   0.207   7.877  0.2984 -0.3368  0.1585
  770MOL0     C 1510   7.714   0.193   7.997 -0.0710  0.2136  0.8439
  770MOL0     O 1511   7.667   0.257   8.099 -0.3622  0.0462 -0.8658
  770MOL0     C 1512   7.575   0.355   8.069  0.6942 -0.2327  0.3703
  770MOL0     C 1513   7.480   0.364   8.170 -0.0586  1.0818 -0.4159
  770MOL0     C 1514   7.368   0.444   8.151  0.3430  0.5162 -0.3222
  770MOL0     C 1515   7.350   0.516   8.031 -0.0653  0.4965 -0.0730
  770MOL0     O 1516   7.230   0.573   8.019  0.1132 -0.1352 -0.1435
  770MOL0     C 1517   7.209   0.670   7.914  0.3996  0.3316  0.0717
  770MOL0     C 1518   7.054   0.697   7.912  0.3811 -0.5968  0.8394
  770MOL0     C 1519   7.038   0.771   7.783  0.2648 -0.1720  0.8096
  770MOL0     C 1520   6.904   0.844   7.770 -0.0887 -0.2440 -0.4496
  770MOL0     C 1521   6.869   0.881   7.624  0.9782 -0.3243  0.4720
  770MOL0     C 1522   6.771   1.000   7.604 -0.7053 -0.1474 -1.4066
  770MOL0     C 1523   6.753   1.048   7.466  0.0322  0.3487  0.6960
  770MOL0     C 1524   6.673   1.174   7.476  0.1346 -0.0900  0.7850
  770MOL0     N 1525   6.617   1.216   7.343  0.8186  0.2654  0.4831
  770MOL0     C 1526   6.686   1.227   7.227 -0.2025  0.6005  1.1785
  770MOL0     C 1527   6.589   1.243   7.135  0.4228  0.2569  0.0983
  770MOL0     C 1528   6.609   1.252   6.992  0.2231  0.4312  0.1581
  770MOL0     C 1529   6.643   1.384   6.937  1.5301  0.7895  0.0403
  770MOL0     C 1530   6.680   1.383   6.793 -0.0213  1.4556 -0.3367
  770MOL0     C 1531   6.742   1.516   6.763 -0.0796 -0.3065  0.0641
  770MOL0     O 1532   6.758   1.548   6.624  0.4437  0.1142 -0.0209
  770MOL0     C 1533   6.737   1.679   6.609  1.5752  0.4261 -0.2562
  770MOL0     C 1534   6.812   1.781   6.669 -0.3758  0.4112  1.1206
  770MOL0     C 1535   6.783   1.925   6.652  0.3415 -1.0941  1.3229
  770MOL0     C 1536   6.674   1.956   6.575  0.5057 -0.0777 -0.4476
  770MOL0     C 1537   6.635   2.098   6.538  0.2129  0.9779 -0.5795
  770MOL0     O 1538   6.535   2.110   6.447  0.1624 -0.2407  0.3461
  770MOL0     C 1539   6.473   2.232   6.437 -0.9138  0.0426  0.8869
  770MOL0     C 1540   6.541   2.348   6.384  0.2021  1.4049  0.4416
  770MOL0     C 1541   6.462   2.468   6.363  0.4762  0.3211 -0.0093
  770MOL0     C 1542   6.330   2.489   6.403  0.3668 -0.4215  0.2204
  770MOL0     O 1543   6.265   2.611   6.373  0.2307  0.0509  0.6763
  770MOL0     C 1544   6.124   2.610   6.385  0.5680 -0.4691 -0.4787
  770MOL0     C 1545   6.058   2.746   6.374  0.1350  0.6083 -1.1631
  770MOL0     C 1546   5.919   2.749   6.442 -0.2944 -0.6997 -0.4662
  770MOL0     C 1547   5.858   2.890   6.456  0.0716 -0.1607 -0.1242
  770MOL0     C 1548   5.749   2.881   6.567 -0.1447 -0.5743  1.3852
  770MOL0     C 1549   5.703   3.034   6.587  0.0962  1.2444  0.9687
  770MOL0     C 1550   5.650   3.049   6.719 -0.6152 -1.2618 -0.5796
  770MOL0     C 1551   5.610   3.198   6.732 -0.0778  0.3475  0.3971
  770MOL0    Cl 1552   5.759   3.301   6.748 -0.0713 -0.2721  0.1944
  770MOL0     C 1553   6.272   2.375   6.454 -0.2775  0.1083  0.3264
  770MOL0     C 1554   6.344   2.252   6.484 -0.4731 -0.1199  0.3042
  770MOL0     O 1555   6.701   2.189   6.589 -0.1841  0.0180  0.1578
  770MOL0     C 1556   6.599   1.856   6.517 -0.2850 -0.1880 -0.2597
  770MOL0     C 1557   6.626   1.724   6.534 -0.0323  0.5929  0.2253
  770MOL0     N 1558   6.468   1.259   7.202  0.3161  0.1096 -1.5367
  770MOL0     N 1559   6.484   1.233   7.324 -0.9943 -0.0636 -0.4693
  770MOL0     C 1560   7.461   0.528   7.941 -0.2269 -0.2806 -0.4419
  770MOL0     C 1561   7.573   0.445   7.961  0.1446 -0.9692 -0.3846
  770MOL0     C 1562   7.823   0.085   8.030  0.4201 -0.1282  0.0411
  770MOL0     C 1563   7.912   0.038   7.937  1.3576 -0.8718 -0.3562
  770MOL0     C 1564   8.027  -0.039   7.966  0.3304  0.2449  0.5834
  770MOL0     C 1565   8.047  -0.078   8.094  0.4388  0.3469 -0.2030
  770MOL0     O 1566   8.175  -0.134   8.106  0.3700  0.2471 -0.4518
  770MOL0     C 1567   8.239  -0.151   8.239  0.6831 -0.2916 -0.5021
  770MOL0     C 1568   8.389  -0.146   8.240 -0.0847  0.2546 -0.3143
  770MOL0     C 1569   8.461  -0.015   8.211  0.0879  0.2148 -1.2326
  770MOL0     C 1570   8.442   0.082   8.328  0.1400 -0.1978 -0.5229
  770MOL0     C 1571   8.548   0.185   8.297 -0.0971  0.4095 -0.7768
  770MOL0     C 1572   8.616   0.280   8.270 -0.1458 -0.5815  0.3822
  770MOL0     C 1573   7.952  -0.044   8.198  0.7771  0.2193 -0.6283
  770MOL0     C 1574   7.843   0.035   8.160 -0.2361  0.9462 -0.6124
  770MOL0     H 1575   7.471   0.296   8.254 -0.7463 -0.1696 -1.4661
  770MOL0     H 1576   7.286   0.429   8.222  1.2125 -3.8769  0.0286
  770MOL0     H 1577   7.244   0.623   7.821  0.3211  0.8966 -0.2452
  770MOL0     H 1578   7.272   0.758   7.924  1.6354 -0.6628  1.4674
  770MOL0     H 1579   7.025   0.766   7.992 -0.9546 -0.8453  0.5845
  770MOL0     H 1580   6.991   0.609   7.923  0.9930 -1.5108 -2.0745
  770MOL0     H 1581   7.051   0.700   7.701  2.2091 -0.8232  1.6290
  770MOL0     H 1582   7.124   0.837   7.771  0.7350 -1.0665 -1.1477
  770MOL0     H 1583   6.817   0.792   7.811  0.0221  0.9729  1.4068
  770MOL0     H 1584   6.916   0.932   7.834 -0.2964  0.5455 -1.4610
  770MOL0     H 1585   6.844   0.796   7.560  0.3508  0.5811 -0.4972
  770MOL0     H 1586   6.966   0.921   7.594  0.9474 -0.9116 -0.4568
  770MOL0     H 1587   6.804   1.079   7.673  0.0698 -1.3761 -0.3202
  770MOL0     H 1588   6.674   0.972   7.646 -0.5461  1.9927  0.6152
  770MOL0     H 1589   6.845   1.084   7.421  0.1073  0.3752  0.8701
  770MOL0     H 1590   6.713   0.967   7.405 -1.0441  0.2349  1.5205
  770MOL0     H 1591   6.740   1.256   7.502  0.1291  0.1666  0.0174
  770MOL0     H 1592   6.586   1.163   7.540  1.1675 -0.2854  2.2065
  770MOL0     H 1593   6.793   1.222   7.213 -0.3816 -1.0011  0.0755
  770MOL0     H 1594   6.524   1.208   6.941 -0.8645 -1.9101  3.6407
  770MOL0     H 1595   6.701   1.194   6.982  1.8833  3.0712 -0.9423
  770MOL0     H 1596   6.728   1.423   6.993  1.4307  1.5078 -0.2915
  770MOL0     H 1597   6.556   1.450   6.948 -1.0250 -1.8936 -2.1999
  770MOL0     H 1598   6.759   1.308   6.781 -1.7674 -0.4892 -0.1607
  770MOL0     H 1599   6.605   1.353   6.720  4.5605 -3.0982 -3.9186
  770MOL0     H 1600   6.841   1.521   6.808 -0.3118  4.4113  0.5767
  770MOL0     H 1601   6.687   1.592   6.819  0.7687 -0.4668  1.1299
  770MOL0     H 1602   6.891   1.747   6.735  1.1173 -0.9335 -1.2001
  770MOL0     H 1603   6.827   2.004   6.710 -0.2069 -1.0415  1.6779
  770MOL0     H 1604   6.644   2.344   6.350  0.2815  0.7007  0.7509
  770MOL0     H 1605   6.517   2.546   6.311  0.2016  0.0466 -0.7227
  770MOL0     H 1606   6.112   2.580   6.490  3.1562 -2.2013 -0.5816
  770MOL0     H 1607   6.072   2.527   6.336 -4.1881  0.3593  2.5276
  770MOL0     H 1608   6.054   2.783   6.271 -1.1940  1.1993 -0.9318
  770MOL0     H 1609   6.112   2.815   6.440 -1.0117 -2.1194  3.0050
  770MOL0     H 1610   5.940   2.716   6.545  2.0879  3.0130  0.4541
  770MOL0     H 1611   5.851   2.684   6.387 -1.4267 -0.4746  0.6115
  770MOL0     H 1612   5.929   2.964   6.496  0.6143 -1.0945  0.6871
  770MOL0     H 1613   5.812   2.927   6.364 -5.5884 -2.0543  1.5820
  770MOL0     H 1614   5.798   2.848   6.659  0.9423  0.9537  1.3775
  770MOL0     H 1615   5.670   2.813   6.532  0.9657 -0.4592 -1.6435
  770MOL0     H 1616   5.630   3.049   6.507  0.2052  2.3037  1.0414
  770MOL0     H 1617   5.790   3.101   6.580  1.4112 -0.2207  2.3370
  770MOL0     H 1618   5.560   2.988   6.735 -2.4080  1.0144 -1.3865
  770MOL0     H 1619   5.724   3.019   6.793  0.3223 -2.6377 -1.9859
  770MOL0     H 1620   5.550   3.214   6.822  0.9471  2.0256  0.8128
  770MOL0     H 1621   5.554   3.225   6.641  1.5981 -0.9638 -1.0860
  770MOL0     H 1622   6.170   2.374   6.490 -0.1034  0.4052  0.8419
  770MOL0     H 1623   6.301   2.172   6.543 -0.1598  0.0735  0.7921
  770MOL0     H 1624   6.520   1.877   6.445  1.0875  0.5838 -1.5799
  770MOL0     H 1625   6.563   1.658   6.476  0.0609  1.3981 -0.8146
  770MOL0     H 1626   7.453   0.600   7.860  1.8074  2.9399  1.9872
  770MOL0     H 1627   7.658   0.445   7.894 -0.5622 -2.2081 -1.3057
  770MOL0     H 1628   7.907   0.076   7.836 -0.1472  0.7904  0.3040
  770MOL0     H 1629   8.099  -0.064   7.889 -0.6406 -1.8438  0.3130
  770MOL0     H 1630   8.206  -0.249   8.277 -0.0161  1.2020  3.1368
  770MOL0     H 1631   8.202  -0.075   8.308  1.2218  2.3846 -2.9617
  770MOL0     H 1632   8.425  -0.199   8.329 -1.8939 -2.0553 -0.8614
  770MOL0     H 1633   8.413  -0.214   8.158 -1.6357 -1.0898  0.2940
  770MOL0     H 1634   8.444   0.022   8.109  0.1121 -0.0125 -1.3203
  770MOL0     H 1635   8.568  -0.036   8.197  0.4751  2.1459 -1.4672
  770MOL0     H 1636   8.344   0.130   8.328 -0.2766 -0.9916  0.8966
  770MOL0     H 1637   8.468   0.044   8.428  0.1037 -0.2144 -0.5203
  770MOL0     H 1638   8.677   0.363   8.241  0.1732 -0.6881  0.7472
  770MOL0     H 1639   7.978  -0.065   8.301 -0.8110 -2.6554 -0.6900
  770MOL0     H 1640   7.795   0.088   8.242  1.1012 -1.7241  2.0771
  771MOL0     O 1641   0.856   6.518  11.406 -0.4146  0.3319 -0.0677
  771MOL0     C 1642   0.746   6.494  11.353 -0.2336 -0.1248  0.6849
  771MOL0     O 1643   0.663   6.590  11.297  0.7367  0.0561 -0.4199
  771MOL0     C 1644   0.707   6.718  11.278  0.1362 -0.2814 -1.2602
  771MOL0     C 1645   0.630   6.827  11.314 -0.4758  0.9522 -0.8498
  771MOL0     C 1646   0.663   6.960  11.283 -0.4804  0.0389  0.2759
  771MOL0     C 1647   0.782   6.985  11.214  0.4928  0.1597 -0.0747
  771MOL0     O 1648   0.811   7.114  11.184  0.5624  0.3545  0.1209
  771MOL0     C 1649   0.895   7.153  11.078 -0.4330  0.6780  1.1108
  771MOL0     C 1650   0.935   7.302  11.101  0.9544  0.1601 -0.2751
  771MOL0     C 1651   1.078   7.320  11.046 -1.1317 -0.4075  1.3528
  771MOL0     C 1652   1.143   7.450  11.092 -0.9610 -1.0874 -0.2409
  771MOL0     C 1653   1.284   7.463  11.035 -0.5269 -0.3569  0.4621
  771MOL0     C 1654   1.347   7.603  11.047  0.1048 -0.0362  0.0294
  771MOL0     C 1655   1.289   7.706  10.948  0.1484 -0.4075  0.3483
  771MOL0     C 1656   1.315   7.664  10.795 -0.2201 -0.1066  0.9133
  771MOL0     N 1657   1.252   7.762  10.709 -0.6084 -0.2715 -0.7954
  771MOL0     C 1658   1.117   7.789  10.709  0.3660 -0.1116 -0.1017
  771MOL0     C 1659   1.107   7.875  10.596  0.0889  0.5568  0.5170
  771MOL0     C 1660   0.999   7.926  10.517  0.1845 -0.3408 -0.6348
  771MOL0     C 1661   0.867   7.852  10.546  0.1911  0.6826  0.0318
  771MOL0     C 1662   0.752   7.917  10.472  0.3623  0.1269 -1.5519
  771MOL0     C 1663   0.627   7.846  10.506  0.1572 -0.8932  0.5834
  771MOL0     O 1664   0.515   7.935  10.484 -0.2658  0.0552 -0.0126
  771MOL0     C 1665   0.430   7.940  10.583 -0.6767  0.4082  0.5884
  771MOL0     C 1666   0.305   7.886  10.552 -0.5769 -0.5746 -1.1558
  771MOL0     C 1667   0.200   7.884  10.648 -0.1186 -0.4603 -0.7740
  771MOL0     C 1668   0.235   7.921  10.782 -0.5900 -0.5429  0.3520
  771MOL0     C 1669   0.129   7.910  10.892  0.4888 -0.2151  0.1329
  771MOL0     O 1670   0.008   7.857  10.859 -0.4416 -0.0270 -0.4915
  771MOL0     C 1671  -0.087   7.814  10.949 -0.1969  1.1506  0.1115
  771MOL0     C 1672  -0.096   7.844  11.085  0.4742 -0.7829 -0.1336
  771MOL0     C 1673  -0.205   7.805  11.169 -0.4516  0.2984  0.3658
  771MOL0     C 1674  -0.301   7.719  11.108  0.7703  0.4378  0.3806
  771MOL0     O 1675  -0.398   7.667  11.199  0.1038  1.3095 -0.3723
  771MOL0     C 1676  -0.476   7.555  11.163 -0.8051 -0.4055  0.1764
  771MOL0     C 1677  -0.569   7.511  11.278 -0.1116 -0.3043 -0.8293
  771MOL0     C 1678  -0.656   7.622  11.332 -1.0099  0.4197  0.0371
  771MOL0     C 1679  -0.744   7.574  11.452 -0.8202 -0.1824 -0.2582
  771MOL0     C 1680  -0.763   7.677  11.565 -0.2865 -0.2019  0.1589
  771MOL0     C 1681  -0.890   7.769  11.549 -0.2272 -0.0527  0.6803
  771MOL0     C 1682  -0.893   7.848  11.419  0.3711 -0.1049  0.0793
  771MOL0     C 1683  -0.797   7.966  11.417  0.4276 -0.8822  0.2505
  771MOL0    Cl 1684  -0.796   8.050  11.254 -0.0056 -0.2687 -0.0615
  771MOL0     C 1685  -0.285   7.685  10.972 -0.2826 -0.3305  0.1346
  771MOL0     C 1686  -0.187   7.728  10.889  0.0251  0.4573 -0.0032
  771MOL0     O 1687   0.158   7.941  11.001 -0.3831  0.0649  0.5213
  771MOL0     C 1688   0.369   7.964  10.810  0.2669 -0.7784 -0.2499
  771MOL0     C 1689   0.460   7.977  10.706  0.6576 -0.2609  0.2187
  771MOL0     N 1690   1.228   7.906  10.548 -0.2823 -0.0189  0.9678
  771MOL0     N 1691   1.323   7.832  10.608 -0.0710 -0.7593  0.4103
  771MOL0     C 1692   0.865   6.872  11.183  0.6610  0.6036 -0.7972
  771MOL0     C 1693   0.829   6.745  11.219  0.1014 -0.0412  0.1033
  771MOL0     C 1694   0.699   6.353  11.354  0.3336  0.5880 -0.4086
  771MOL0     C 1695   0.630   6.299  11.242  0.1253  0.8752 -0.3880
  771MOL0     C 1696   0.577   6.173  11.237  0.1803 -0.3595 -0.0797
  771MOL0     C 1697   0.594   6.106  11.358  0.9804 -0.5582 -0.1225
  771MOL0     O 1698   0.526   5.989  11.356 -0.2146 -0.0309  0.6814
  771MOL0     C 1699   0.500   5.909  11.469 -1.0299  0.6851 -1.7845
  771MOL0     C 1700   0.461   5.772  11.420  0.1153  0.1417  1.0258
  771MOL0     C 1701   0.317   5.771  11.366  0.5684 -0.2926 -0.3478
  771MOL0     C 1702   0.317   5.795  11.218 -0.2715 -0.1674 -0.4833
  771MOL0     C 1703   0.176   5.821  11.178 -0.2840  0.8339  0.8034
  771MOL0     C 1704   0.058   5.833  11.140 -0.2030 -0.0011  0.1175
  771MOL0     C 1705   0.664   6.151  11.474 -0.5282 -0.8287  0.2689
  771MOL0     C 1706   0.721   6.274  11.466  1.2645  0.5156  1.1198
  771MOL0     H 1707   0.535   6.809  11.364 -0.2008  0.4598 -0.4897
  771MOL0     H 1708   0.611   7.051  11.309  0.0084  0.3668  0.1288
  771MOL0     H 1709   0.864   7.136  10.974 -0.7595  0.1682  1.2875
  771MOL0     H 1710   0.987   7.093  11.087  0.9403  1.5927 -3.7616
  771MOL0     H 1711   0.939   7.327  11.207  2.4705  2.2780 -0.7593
  771MOL0     H 1712   0.862   7.369  11.054 -0.6924 -1.2803  0.0937
  771MOL0     H 1713   1.063   7.322  10.938 -0.3869 -2.3175  1.1617
  771MOL0     H 1714   1.133   7.228  11.068 -0.9998 -1.4596 -2.6381
  771MOL0     H 1715   1.081   7.533  11.058  2.3583  0.0890 -4.1981
  771MOL0     H 1716   1.137   7.450  11.201 -0.8497  0.2746 -0.2250
  771MOL0     H 1717   1.295   7.424  10.934 -0.8070 -0.1740  0.3626
  771MOL0     H 1718   1.334   7.386  11.095 -2.4956 -2.7779 -0.8384
  771MOL0     H 1719   1.455   7.607  11.027 -0.1158 -0.4572 -1.3680
  771MOL0     H 1720   1.329   7.635  11.150 -2.3169  1.8837 -0.9103
  771MOL0     H 1721   1.182   7.722  10.962 -0.0387  2.2777 -2.9524
  771MOL0     H 1722   1.341   7.798  10.977  1.3960 -1.0539  0.2498
  771MOL0     H 1723   1.295   7.558  10.774  1.0400 -0.1994  0.0344
  771MOL0     H 1724   1.423   7.663  10.776 -0.2747 -1.0533  0.5834
  771MOL0     H 1725   1.042   7.734  10.765 -1.2703  0.3507 -1.7461
  771MOL0     H 1726   1.021   7.922  10.410 -1.8260  4.0952 -1.4111
  771MOL0     H 1727   0.994   8.031  10.545  0.2448 -0.2118 -1.1002
  771MOL0     H 1728   0.859   7.861  10.655  0.0513 -0.7405  0.1457
  771MOL0     H 1729   0.880   7.747  10.519  0.8171  0.8365 -0.3081
  771MOL0     H 1730   0.742   8.021  10.502 -1.0867 -0.1154 -1.1018
  771MOL0     H 1731   0.779   7.914  10.366  3.9134  0.8676 -0.7867
  771MOL0     H 1732   0.644   7.808  10.607 -0.8119 -0.4550  0.9203
  771MOL0     H 1733   0.614   7.765  10.433  2.4500  1.1149 -2.3305
  771MOL0     H 1734   0.291   7.861  10.447  0.4532 -1.1765 -1.1701
  771MOL0     H 1735   0.105   7.849  10.610  0.2891 -2.1734 -0.3110
  771MOL0     H 1736  -0.032   7.913  11.138 -3.0407 -0.1158  3.7355
  771MOL0     H 1737  -0.216   7.817  11.277  2.5833 -0.6769  0.8911
  771MOL0     H 1738  -0.413   7.469  11.136  1.5935  0.4585  2.6264
  771MOL0     H 1739  -0.523   7.585  11.069  1.2962  0.4977 -0.6431
  771MOL0     H 1740  -0.499   7.480  11.356  2.8763  0.2717 -3.0913
  771MOL0     H 1741  -0.627   7.424  11.247 -0.9381  0.6966 -2.2181
  771MOL0     H 1742  -0.728   7.653  11.256  0.7422  4.0932 -0.3526
  771MOL0     H 1743  -0.601   7.715  11.350  1.6020 -0.6437 -1.7477
  771MOL0     H 1744  -0.837   7.523  11.426 -0.6768 -0.0751 -0.9951
  771MOL0     H 1745  -0.686   7.500  11.508 -2.5221 -1.9559 -0.7588
  771MOL0     H 1746  -0.672   7.737  11.569 -0.6038  0.3418 -0.4571
  771MOL0     H 1747  -0.767   7.632  11.664  0.9606 -1.1914 -0.2098
  771MOL0     H 1748  -0.911   7.830  11.637 -1.7941 -1.8341  1.6271
  771MOL0     H 1749  -0.969   7.693  11.543 -0.3707  0.1736 -0.5856
  771MOL0     H 1750  -0.869   7.782  11.335  0.1295 -0.9605  0.6692
  771MOL0     H 1751  -0.992   7.890  11.397  1.0932  1.6076 -0.0681
  771MOL0     H 1752  -0.695   7.940  11.447  0.3724 -0.9177  0.4083
  771MOL0     H 1753  -0.822   8.042  11.492  1.0917  1.4184 -1.7345
  771MOL0     H 1754  -0.349   7.613  10.924 -2.7032  2.4147 -1.0623
  771MOL0     H 1755  -0.177   7.678  10.794  0.0466 -0.1610  0.3166
  771MOL0     H 1756   0.397   7.988  10.913  0.5739  1.3384 -0.7800
  771MOL0     H 1757   0.563   7.996  10.735  1.4205 -2.0480 -1.1319
  771MOL0     H 1758   0.951   6.895  11.122  0.2975  0.2577 -1.4535
  771MOL0     H 1759   0.895   6.670  11.176  0.6770 -0.1066  1.0702
  771MOL0     H 1760   0.625   6.354  11.148  1.3667 -0.5549 -1.3459
  771MOL0     H 1761   0.538   6.131  11.145  3.0572 -1.1694 -1.0474
  771MOL0     H 1762   0.413   5.958  11.514  0.5974  1.3740  0.7936
  771MOL0     H 1763   0.587   5.901  11.535 -3.2557  0.0304  1.2969
  771MOL0     H 1764   0.532   5.725  11.352  0.7286  3.7383 -1.0682
  771MOL0     H 1765   0.461   5.705  11.507 -1.1614  3.2425  3.6213
  771MOL0     H 1766   0.245   5.837  11.416 -1.0009 -2.1879 -0.0079
  771MOL0     H 1767   0.276   5.674  11.393 -0.0898  1.0542  4.2660
  771MOL0     H 1768   0.365   5.885  11.179  0.2516 -1.0342 -1.9097
  771MOL0     H 1769   0.362   5.706  11.173  0.4926  0.4433 -0.9379
  771MOL0     H 1770  -0.037   5.843  11.091 -0.8101 -1.7181  0.8496
  771MOL0     H 1771   0.675   6.090  11.563  2.1915 -2.3320 -0.9916
  771MOL0     H 1772   0.787   6.314  11.543  2.3620 -1.0641  1.0365
  772MOL0     O 1773   1.634   8.272   4.065 -0.7059  0.6570  0.7783
  772MOL0     C 1774   1.694   8.360   4.002 -0.2659 -0.3933  0.0905
  772MOL0     O 1775   1.794   8.437   4.065 -0.0992 -0.0086 -0.0510
  772MOL0     C 1776   1.851   8.413   4.188 -0.3650 -0.4884  0.3645
  772MOL0     C 1777   1.925   8.511   4.253  0.2841  0.0001  0.2193
  772MOL0     C 1778   1.992   8.492   4.370 -0.3513  0.3484 -0.2932
  772MOL0     C 1779   1.985   8.372   4.439 -0.2262  0.2908  0.1840
  772MOL0     O 1780   2.055   8.350   4.558  0.1308  0.0057 -0.1453
  772MOL0     C 1781   2.065   8.220   4.610  0.0333 -0.8005 -0.6590
  772MOL0     C 1782   2.157   8.217   4.734 -0.2575  1.4941  0.0681
  772MOL0     C 1783   2.300   8.225   4.680 -0.0850  0.1509  0.6187
  772MOL0     C 1784   2.388   8.260   4.803 -0.6617 -0.9766 -0.1862
  772MOL0     C 1785   2.536   8.245   4.775 -0.1408  0.0092  0.3161
  772MOL0     C 1786   2.618   8.266   4.898  0.1252  0.1946 -0.5329
  772MOL0     C 1787   2.631   8.133   4.987  0.1814 -0.4362  0.6077
  772MOL0     C 1788   2.749   8.044   4.958 -0.1142 -0.3829  1.0281
  772MOL0     N 1789   2.750   7.989   4.816  0.1713  0.5703 -0.7359
  772MOL0     C 1790   2.827   8.053   4.716  0.0145 -1.1585 -0.2628
  772MOL0     C 1791   2.813   7.976   4.608 -0.0878 -0.1241 -0.5179
  772MOL0     C 1792   2.891   7.985   4.471  0.0706 -0.9446 -0.6287
  772MOL0     C 1793   2.793   8.015   4.357 -0.2940 -0.0713 -0.6148
  772MOL0     C 1794   2.854   8.096   4.244 -0.0999 -0.0410 -0.2185
  772MOL0     C 1795   2.754   8.147   4.134  0.3257 -0.7051 -1.0016
  772MOL0     O 1796   2.834   8.216   4.044 -0.0474 -0.6181 -0.0892
  772MOL0     C 1797   2.758   8.299   3.957 -1.0707 -0.1860 -0.3004
  772MOL0     C 1798   2.662   8.252   3.866  0.0334  0.1767 -0.7538
  772MOL0     C 1799   2.579   8.339   3.791 -0.5692  0.7341  0.2810
  772MOL0     C 1800   2.604   8.477   3.793  0.2451  0.8826  0.7005
  772MOL0     C 1801   2.542   8.560   3.681 -0.3480  0.6959  0.0431
  772MOL0     O 1802   2.541   8.695   3.699 -0.7242  0.8474  0.5186
  772MOL0     C 1803   2.464   8.780   3.622  0.2164 -0.1118  0.8156
  772MOL0     C 1804   2.500   8.910   3.601  0.2557 -0.4150  0.9314
  772MOL0     C 1805   2.424   9.009   3.534  1.2590  0.4082  0.1360
  772MOL0     C 1806   2.311   8.966   3.459 -0.6654  0.1150  1.0060
  772MOL0     O 1807   2.248   9.062   3.377 -0.4321 -0.6337 -0.4315
  772MOL0     C 1808   2.133   9.029   3.297 -0.0370  0.0845 -0.1304
  772MOL0     C 1809   2.079   9.163   3.242 -0.2477  0.1489  1.1280
  772MOL0     C 1810   1.990   9.128   3.121 -0.8717  0.5704 -0.4296
  772MOL0     C 1811   1.963   9.252   3.030  0.0254  0.1906 -0.7552
  772MOL0     C 1812   1.904   9.194   2.898  0.2110  0.1378 -0.8808
  772MOL0     C 1813   1.748   9.177   2.928  0.5916  0.7870 -0.4735
  772MOL0     C 1814   1.667   9.108   2.808  0.1033  0.4597 -0.2170
  772MOL0     C 1815   1.535   9.048   2.840  0.6481  0.1583  0.7798
  772MOL0    Cl 1816   1.532   8.904   2.936  0.4950 -0.0688  0.0916
  772MOL0     C 1817   2.265   8.831   3.483 -0.3223  0.7007  1.3318
  772MOL0     C 1818   2.349   8.745   3.550 -0.2068 -0.0624  0.2917
  772MOL0     O 1819   2.501   8.495   3.585  0.1600 -0.2573  0.3181
  772MOL0     C 1820   2.707   8.528   3.876  0.2355  0.3356  0.6218
  772MOL0     C 1821   2.776   8.438   3.962  0.6956  0.1521  0.1959
  772MOL0     N 1822   2.737   7.866   4.634  0.3630 -0.4567 -0.5628
  772MOL0     N 1823   2.691   7.872   4.761 -0.4347 -0.1856  0.2068
  772MOL0     C 1824   1.896   8.277   4.378  0.5851  0.7138  0.5797
  772MOL0     C 1825   1.837   8.290   4.252  0.2239 -0.3168  0.0252
  772MOL0     C 1826   1.660   8.385   3.864 -0.3493 -0.0872  0.0198
  772MOL0     C 1827   1.718   8.501   3.808 -0.1855  0.1473  0.3798
  772MOL0     C 1828   1.715   8.515   3.667 -0.8118  0.1178  0.0924
  772MOL0     C 1829   1.660   8.419   3.582 -0.5981  0.3098 -0.9405
  772MOL0     O 1830   1.656   8.413   3.445 -0.7530  0.5179 -0.9440
  772MOL0     C 1831   1.742   8.491   3.367  0.2043 -0.0247 -0.1619
  772MOL0     C 1832   1.693   8.475   3.215 -0.4694  0.1515 -0.3558
  772MOL0     C 1833   1.549   8.523   3.196  0.8086 -0.7268  0.3361
  772MOL0     C 1834   1.505   8.530   3.048 -0.9918 -0.0208  0.4789
  772MOL0     C 1835   1.361   8.537   3.023  0.8883  0.5009 -0.6010
  772MOL0     C 1836   1.243   8.530   3.008 -0.1648 -0.5328  0.9570
  772MOL0     C 1837   1.600   8.306   3.637 -0.3888  0.0832 -0.5737
  772MOL0     C 1838   1.607   8.291   3.774 -0.2519  0.1849  0.2681
  772MOL0     H 1839   1.932   8.601   4.193  0.5267 -1.5051 -2.1387
  772MOL0     H 1840   2.044   8.576   4.415 -0.0221 -1.3044  2.6539
  772MOL0     H 1841   2.099   8.145   4.538 -1.1828 -2.5546  0.5127
  772MOL0     H 1842   1.970   8.175   4.642  0.5452 -0.1730  1.9513
  772MOL0     H 1843   2.149   8.119   4.780  4.0746  0.4532 -0.9556
  772MOL0     H 1844   2.129   8.296   4.805 -0.2301 -0.0153  1.8314
  772MOL0     H 1845   2.318   8.300   4.601  1.0316 -0.7320  0.0071
  772MOL0     H 1846   2.314   8.123   4.643 -0.7845  0.8862 -1.8692
  772MOL0     H 1847   2.362   8.366   4.815  1.1864 -0.3674 -1.1349
  772MOL0     H 1848   2.355   8.205   4.891 -0.9704 -1.8760 -0.8466
  772MOL0     H 1849   2.572   8.311   4.696 -3.0971 -0.2743 -1.3779
  772MOL0     H 1850   2.560   8.148   4.731  1.6895  0.9126 -0.7711
  772MOL0     H 1851   2.577   8.349   4.957  3.5266  2.4390 -1.0693
  772MOL0     H 1852   2.721   8.300   4.884  0.6087 -0.9141  0.2386
  772MOL0     H 1853   2.649   8.159   5.091  0.5791  1.2102  0.1603
  772MOL0     H 1854   2.539   8.075   4.975  1.5769 -2.4352 -1.2384
  772MOL0     H 1855   2.753   7.965   5.034 -0.7235 -1.7426 -0.2961
  772MOL0     H 1856   2.842   8.100   4.967 -0.3936  0.3190 -0.2139
  772MOL0     H 1857   2.898   8.131   4.741 -0.4791 -0.1040 -1.9814
  772MOL0     H 1858   2.936   7.888   4.449  0.2388 -1.5666  2.0912
  772MOL0     H 1859   2.967   8.062   4.488 -0.4340 -0.2269 -1.5190
  772MOL0     H 1860   2.703   8.071   4.386 -2.9901 -3.1081 -2.3512
  772MOL0     H 1861   2.761   7.917   4.320  0.6171 -1.1747  1.3843
  772MOL0     H 1862   2.904   8.182   4.288 -0.9008  0.3332 -0.0236
  772MOL0     H 1863   2.917   8.027   4.187  1.1009  1.0073 -0.2134
  772MOL0     H 1864   2.678   8.214   4.174  0.6127 -0.0504 -1.5306
  772MOL0     H 1865   2.705   8.066   4.079  0.4852 -0.7511 -1.0758
  772MOL0     H 1866   2.654   8.143   3.860  0.4777 -0.0504  1.7047
  772MOL0     H 1867   2.515   8.290   3.719 -2.5391  0.1567  2.3186
  772MOL0     H 1868   2.592   8.940   3.650  2.3231 -3.0296 -1.1061
  772MOL0     H 1869   2.435   9.116   3.524 -0.9045  0.5254 -1.9101
  772MOL0     H 1870   2.062   8.984   3.366  2.2771 -1.2409  1.5089
  772MOL0     H 1871   2.149   8.958   3.216 -1.0219  2.0383 -2.1440
  772MOL0     H 1872   2.154   9.235   3.209  0.2664 -0.1355  1.6504
  772MOL0     H 1873   2.018   9.210   3.319 -1.3749  0.2201  0.2111
  772MOL0     H 1874   1.896   9.085   3.155 -0.7551 -0.0085 -0.8345
  772MOL0     H 1875   2.055   9.058   3.068  1.7806  1.4473  1.4342
  772MOL0     H 1876   1.894   9.316   3.086 -1.6105 -2.3737  0.3537
  772MOL0     H 1877   2.054   9.304   3.001  0.9986 -0.7713  0.4787
  772MOL0     H 1878   1.950   9.097   2.874  1.0848  0.1500  0.6159
  772MOL0     H 1879   1.909   9.267   2.816  0.5863  0.5942 -0.4534
  772MOL0     H 1880   1.719   9.281   2.942 -3.1723  0.2227 -2.5297
  772MOL0     H 1881   1.730   9.123   3.022 -0.3340  0.5508 -0.7754
  772MOL0     H 1882   1.660   9.178   2.725  0.6479  0.7762  0.0005
  772MOL0     H 1883   1.731   9.028   2.771 -0.1746 -0.3481  0.9689
  772MOL0     H 1884   1.493   9.019   2.743 -1.4842  1.1409  1.3419
  772MOL0     H 1885   1.471   9.121   2.889  0.2260  0.9927 -0.9210
  772MOL0     H 1886   2.174   8.796   3.435 -0.0173  0.5035  0.8841
  772MOL0     H 1887   2.321   8.640   3.551  2.6585 -0.9080 -0.0307
  772MOL0     H 1888   2.719   8.635   3.882 -4.1769  1.2748 -2.5496
  772MOL0     H 1889   2.852   8.484   4.025  0.9318  0.4798 -0.3242
  772MOL0     H 1890   1.901   8.176   4.416  0.9998  0.7362  0.5937
  772MOL0     H 1891   1.796   8.198   4.212  1.0193 -0.7975  0.2879
  772MOL0     H 1892   1.745   8.580   3.877  1.5527 -1.0037  1.0717
  772MOL0     H 1893   1.756   8.609   3.631 -1.0617 -0.1612 -0.9666
  772MOL0     H 1894   1.842   8.447   3.378  0.1096 -0.0533  0.6268
  772MOL0     H 1895   1.754   8.597   3.390  2.9538  0.1081 -1.7263
  772MOL0     H 1896   1.773   8.514   3.150 -1.1529 -1.2700 -2.1492
  772MOL0     H 1897   1.680   8.370   3.186  1.6271  0.2931 -2.1349
  772MOL0     H 1898   1.527   8.620   3.242 -1.3035  0.0295 -1.9792
  772MOL0     H 1899   1.484   8.458   3.256  2.1089 -0.0917  2.5347
  772MOL0     H 1900   1.555   8.614   2.999  2.0984 -0.9588  1.7536
  772MOL0     H 1901   1.538   8.439   2.995 -0.6489  0.8897 -0.9270
  772MOL0     H 1902   1.143   8.503   2.980 -0.1987  1.9977 -2.0113
  772MOL0     H 1903   1.546   8.246   3.565 -0.6283  0.5945 -0.8303
  772MOL0     H 1904   1.562   8.204   3.821  3.5388 -0.7810  2.6196
  773MOL0     O 1905   3.432   7.618   8.802  0.5084  0.0631 -0.5781
  773MOL0     C 1906   3.376   7.527   8.861  0.4911  0.0340 -0.5078
  773MOL0     O 1907   3.392   7.488   8.993 -0.0160  0.2464 -0.0500
  773MOL0     C 1908   3.484   7.539   9.088 -0.4955 -0.0898 -0.7636
  773MOL0     C 1909   3.465   7.491   9.224 -0.6331  0.1610 -0.3661
  773MOL0     C 1910   3.548   7.532   9.328  0.2306  0.2861 -0.1288
  773MOL0     C 1911   3.652   7.615   9.299 -0.7302 -0.1757 -0.2854
  773MOL0     O 1912   3.740   7.644   9.405  0.3504  0.1601 -0.9453
  773MOL0     C 1913   3.808   7.770   9.406 -0.1941 -0.4812 -0.3191
  773MOL0     C 1914   3.865   7.798   9.536  0.3780  0.1132 -0.5981
  773MOL0     C 1915   3.961   7.697   9.584 -0.6200  0.5675 -1.0147
  773MOL0     C 1916   4.036   7.735   9.713  0.0406  0.4573 -0.6995
  773MOL0     C 1917   4.150   7.635   9.739  0.2223  1.3900 -0.1543
  773MOL0     C 1918   4.232   7.668   9.867  0.7246 -0.1699 -0.1595
  773MOL0     C 1919   4.359   7.584   9.885 -0.5778  0.4598 -0.2374
  773MOL0     C 1920   4.454   7.598   9.765  0.2555  0.4986 -0.5855
  773MOL0     N 1921   4.582   7.545   9.808 -0.4073 -0.0245  0.1030
  773MOL0     C 1922   4.700   7.620   9.809  0.4737 -0.1387 -0.4808
  773MOL0     C 1923   4.796   7.528   9.842  0.0053  0.0421  0.1426
  773MOL0     C 1924   4.941   7.569   9.851 -0.1492  0.7367 -0.1819
  773MOL0     C 1925   4.980   7.708   9.840  0.0633 -0.8304 -0.2875
  773MOL0     C 1926   5.129   7.721   9.854 -0.6122  0.2505 -0.8317
  773MOL0     C 1927   5.163   7.873   9.843  0.4734 -0.3556  0.9407
  773MOL0     O 1928   5.161   7.936   9.968  0.5083  0.2481  0.1903
  773MOL0     C 1929   5.114   8.066   9.985 -0.0111  0.9368 -0.4293
  773MOL0     C 1930   5.186   8.185   9.951  0.3759 -0.3773 -0.0886
  773MOL0     C 1931   5.132   8.309   9.982  0.9157  0.1893 -0.4334
  773MOL0     C 1932   5.002   8.324  10.037  0.5733 -0.4681 -0.2843
  773MOL0     C 1933   4.940   8.449  10.071  0.3323  0.7684 -0.7687
  773MOL0     O 1934   5.012   8.556  10.030  0.0571 -0.5689  0.1353
  773MOL0     C 1935   4.966   8.681  10.038  0.6253 -0.5152 -0.4795
  773MOL0     C 1936   4.872   8.735  10.125  0.6653  0.4925  1.0296
  773MOL0     C 1937   4.823   8.862  10.113  1.0500 -0.9062 -0.0394
  773MOL0     C 1938   4.869   8.951  10.020  0.1702 -0.2298  0.2064
  773MOL0     O 1939   4.804   9.070   9.985 -0.9426 -0.0585  0.3543
  773MOL0     C 1940   4.772   9.102   9.848 -0.3528  0.9506 -0.2942
  773MOL0     C 1941   4.645   9.184   9.821 -0.0560  0.2694  0.0917
  773MOL0     C 1942   4.644   9.329   9.879 -0.7438 -0.2101  0.0515
  773MOL0     C 1943   4.510   9.392   9.871  0.0831 -1.2327 -0.6344
  773MOL0     C 1944   4.506   9.546   9.881  0.0098 -0.1775  0.2377
  773MOL0     C 1945   4.359   9.595   9.892 -0.3852  0.0282 -0.8735
  773MOL0     C 1946   4.304   9.557  10.026  0.5343 -0.0600 -0.8205
  773MOL0     C 1947   4.177   9.618  10.072  0.3069  0.6472 -0.0378
  773MOL0    Cl 1948   4.177   9.803  10.077  0.1067  0.1363 -0.3428
  773MOL0     C 1949   4.965   8.902   9.932  0.2657  0.0428  0.0541
  773MOL0     C 1950   5.018   8.773   9.943  1.4733  0.5967  0.5821
  773MOL0     O 1951   4.826   8.456  10.121 -0.5381  0.4793 -0.8548
  773MOL0     C 1952   4.935   8.206  10.062 -0.2403 -0.1893 -0.2279
  773MOL0     C 1953   4.999   8.079  10.052  0.1225 -0.0871  0.1528
  773MOL0     N 1954   4.749   7.401   9.862 -0.4408  0.1647  0.0869
  773MOL0     N 1955   4.616   7.414   9.855 -0.4155  0.1494  0.3111
  773MOL0     C 1956   3.678   7.658   9.170  0.4938  0.3344  1.0055
  773MOL0     C 1957   3.582   7.628   9.066  0.2541  0.2289 -0.0475
  773MOL0     C 1958   3.257   7.475   8.789 -0.2667  0.1167  0.6214
  773MOL0     C 1959   3.192   7.367   8.835  0.1477  0.1034  0.6397
  773MOL0     C 1960   3.085   7.298   8.774 -0.4585  0.0565  0.4817
  773MOL0     C 1961   3.038   7.347   8.653  0.4432 -0.1054  0.1398
  773MOL0     O 1962   2.930   7.284   8.600 -0.1785 -0.2054 -1.0305
  773MOL0     C 1963   2.855   7.336   8.497  0.7391 -0.5543  0.8278
  773MOL0     C 1964   2.920   7.310   8.360  0.1685  0.2079  0.5810
  773MOL0     C 1965   2.982   7.166   8.344 -0.6582  0.7590 -0.3264
  773MOL0     C 1966   3.091   7.148   8.231  0.2541  0.6322 -0.2165
  773MOL0     C 1967   3.220   7.199   8.267  0.8532 -0.8770 -0.5840
  773MOL0     C 1968   3.318   7.267   8.297  0.1563 -0.2174 -0.5417
  773MOL0     C 1969   3.106   7.455   8.594 -0.2752  0.3044 -0.0446
  773MOL0     C 1970   3.215   7.521   8.660 -0.4047 -0.3497 -0.0568
  773MOL0     H 1971   3.386   7.417   9.236 -1.3292  0.7216 -1.3165
  773MOL0     H 1972   3.524   7.505   9.430 -4.0903 -2.6230 -1.6204
  773MOL0     H 1973   3.728   7.839   9.377 -0.8860 -1.1007  0.0688
  773MOL0     H 1974   3.897   7.753   9.344  3.0908  0.6774  3.6328
  773MOL0     H 1975   3.779   7.787   9.603  0.4543 -1.2364 -0.6939
  773MOL0     H 1976   3.906   7.899   9.534  2.9230 -0.8744 -1.6998
  773MOL0     H 1977   4.037   7.704   9.506  0.5701  1.2286  0.1721
  773MOL0     H 1978   3.927   7.593   9.587 -0.9638  0.6760  1.7177
  773MOL0     H 1979   4.085   7.833   9.704  2.3364 -0.5669 -0.1785
  773MOL0     H 1980   3.967   7.734   9.798 -1.2645  0.0784 -1.7366
  773MOL0     H 1981   4.213   7.628   9.650  0.3668  2.1125 -0.1135
  773MOL0     H 1982   4.098   7.539   9.744  0.8370  1.0533 -0.1537
  773MOL0     H 1983   4.169   7.655   9.955  1.1515  0.7256  0.2889
  773MOL0     H 1984   4.265   7.770   9.847  0.6204 -0.2051 -0.5271
  773MOL0     H 1985   4.418   7.618   9.970  2.8980  1.4277 -2.8151
  773MOL0     H 1986   4.326   7.483   9.912 -0.0996  0.1785 -0.6900
  773MOL0     H 1987   4.444   7.701   9.732 -0.9588  0.5186 -0.1836
  773MOL0     H 1988   4.416   7.532   9.687 -2.4718  0.4460  0.6583
  773MOL0     H 1989   4.725   7.723   9.787 -0.5176  0.1857 -0.1544
  773MOL0     H 1990   5.005   7.529   9.771 -0.0714 -0.3342  0.3958
  773MOL0     H 1991   4.968   7.525   9.947  1.8546 -0.0737 -1.0582
  773MOL0     H 1992   4.935   7.766   9.922  2.3880  2.0109 -0.8996
  773MOL0     H 1993   4.943   7.741   9.743 -0.0322 -0.7609 -0.2274
  773MOL0     H 1994   5.177   7.669   9.936  1.2522 -0.6654 -2.4278
  773MOL0     H 1995   5.171   7.665   9.770 -1.6536 -0.5308 -0.8510
  773MOL0     H 1996   5.092   7.919   9.773  1.5246 -1.0962 -0.6787
  773MOL0     H 1997   5.262   7.881   9.798 -0.7722 -1.1405 -2.2672
  773MOL0     H 1998   5.284   8.168   9.906 -0.3544 -0.7035 -1.6160
  773MOL0     H 1999   5.183   8.402   9.960 -0.4998  1.0775 -0.1071
  773MOL0     H 2000   4.837   8.683  10.215  0.9671 -0.6469  0.5047
  773MOL0     H 2001   4.745   8.903  10.176  0.3680 -1.3350 -0.6009
  773MOL0     H 2002   4.762   9.012   9.787  2.3932  0.8552 -0.7413
  773MOL0     H 2003   4.858   9.162   9.816  0.1415  2.6911  3.6569
  773MOL0     H 2004   4.559   9.129   9.859 -0.9067  0.9372 -0.8106
  773MOL0     H 2005   4.623   9.187   9.714 -1.2920 -1.2311  0.2687
  773MOL0     H 2006   4.708   9.389   9.814 -0.1676  1.2403  1.8660
  773MOL0     H 2007   4.690   9.340   9.978  1.2318 -1.4644 -0.6808
  773MOL0     H 2008   4.475   9.373   9.769  0.0662 -0.1799 -0.8372
  773MOL0     H 2009   4.452   9.348   9.953  2.8362 -0.9069  1.6219
  773MOL0     H 2010   4.555   9.581   9.790 -0.4085  1.6873  0.6833
  773MOL0     H 2011   4.578   9.595   9.948  1.3112  0.4358 -1.5259
  773MOL0     H 2012   4.298   9.544   9.817  0.4426 -2.3350 -0.0380
  773MOL0     H 2013   4.356   9.702   9.870 -0.0547 -0.1377 -1.7504
  773MOL0     H 2014   4.292   9.448  10.032  3.5123 -0.3963  2.1065
  773MOL0     H 2015   4.377   9.574  10.106 -0.5126  0.5562  0.0224
  773MOL0     H 2016   4.153   9.576  10.170 -2.6985 -2.3633 -1.8472
  773MOL0     H 2017   4.094   9.587  10.008  0.5891  1.9304 -1.0726
  773MOL0     H 2018   5.000   8.960   9.847  1.6454  1.1323  1.3152
  773MOL0     H 2019   5.098   8.742   9.876  0.1032 -1.3679 -0.1952
  773MOL0     H 2020   4.831   8.202  10.094 -1.4152  1.1761 -3.5078
  773MOL0     H 2021   4.948   7.997  10.101 -0.2144  1.2180  2.0843
  773MOL0     H 2022   3.773   7.709   9.165  1.4098 -1.0541  2.8408
  773MOL0     H 2023   3.577   7.685   8.973  4.6926  0.3564 -0.4221
  773MOL0     H 2024   3.211   7.322   8.932  1.5315 -0.6106  0.0562
  773MOL0     H 2025   3.030   7.215   8.817 -0.4062 -0.6115 -0.7120
  773MOL0     H 2026   2.824   7.440   8.513 -2.0262 -1.2863  0.8864
  773MOL0     H 2027   2.762   7.279   8.503 -0.0064  0.4544 -0.4689
  773MOL0     H 2028   2.835   7.319   8.292  1.0107  0.0564 -0.5181
  773MOL0     H 2029   2.990   7.391   8.337 -0.5994  0.4210 -1.1013
  773MOL0     H 2030   2.900   7.106   8.303 -0.4194  0.8852 -1.0026
  773MOL0     H 2031   3.024   7.126   8.437  0.0962 -0.4000 -1.1452
  773MOL0     H 2032   3.095   7.039   8.218  0.9140  0.6111  0.0947
  773MOL0     H 2033   3.055   7.185   8.135  1.8145  0.9395 -0.7172
  773MOL0     H 2034   3.398   7.335   8.319  1.4158 -2.0457  0.7907
  773MOL0     H 2035   3.079   7.498   8.498  0.2184  0.2422 -0.2147
  773MOL0     H 2036   3.271   7.601   8.613 -1.7367  0.9455  0.4937
  774MOL0     O 2037   0.353   4.733   5.687  0.1715  0.0573 -0.1693
  774MOL0     C 2038   0.353   4.753   5.562  0.1940 -0.7723 -0.4492
  774MOL0     O 2039   0.248   4.729   5.483  0.1897  0.0889 -0.4539
  774MOL0     C 2040   0.116   4.702   5.517  0.2065  0.3990 -0.1270
  774MOL0     C 2041   0.059   4.617   5.423  0.7180  0.6536 -0.3398
  774MOL0     C 2042  -0.072   4.573   5.442 -0.1287  0.8082  0.1128
  774MOL0     C 2043  -0.137   4.610   5.554  1.3819  0.0610 -0.7607
  774MOL0     O 2044  -0.262   4.564   5.580  0.1040  0.3472  0.2521
  774MOL0     C 2045  -0.372   4.545   5.481 -0.1069 -0.2466  0.1397
  774MOL0     C 2046  -0.491   4.493   5.554  0.2854 -0.5320 -0.4578
  774MOL0     C 2047  -0.524   4.347   5.525  0.3973  0.1529 -0.5270
  774MOL0     C 2048  -0.664   4.305   5.574 -0.0953 -0.3576 -0.4522
  774MOL0     C 2049  -0.669   4.156   5.543 -0.4461  0.4869 -0.9797
  774MOL0     C 2050  -0.779   4.077   5.612  0.4683  0.3201  0.4680
  774MOL0     C 2051  -0.916   4.090   5.546  0.5983  0.0952 -0.4673
  774MOL0     C 2052  -1.027   4.001   5.605 -0.1599 -0.7306  0.4749
  774MOL0     N 2053  -1.154   4.042   5.548  0.4728  0.5925 -0.3282
  774MOL0     C 2054  -1.182   4.078   5.417  0.1044  0.3589  0.3698
  774MOL0     C 2055  -1.322   4.083   5.414  0.6271  0.2699  0.2393
  774MOL0     C 2056  -1.414   4.104   5.297  0.3330  0.5264 -0.9218
  774MOL0     C 2057  -1.562   4.100   5.330  0.2472 -0.5395 -0.2742
  774MOL0     C 2058  -1.622   4.237   5.349 -0.4130  0.1293 -0.3277
  774MOL0     C 2059  -1.772   4.236   5.381 -0.3095 -0.9640 -1.0524
  774MOL0     O 2060  -1.839   4.165   5.271  0.1474 -0.3729 -0.4261
  774MOL0     C 2061  -1.973   4.178   5.269  0.0828  0.0731  0.2599
  774MOL0     C 2062  -2.056   4.261   5.351  0.3186 -0.3782  0.5049
  774MOL0     C 2063  -2.189   4.280   5.316  0.0753  1.1661 -0.0696
  774MOL0     C 2064  -2.252   4.196   5.224  0.4356 -0.2712  0.2814
  774MOL0     C 2065  -2.384   4.242   5.179 -1.5639 -0.0289  0.4769
  774MOL0     O 2066  -2.446   4.157   5.090 -0.6262 -0.8208  0.2166
  774MOL0     C 2067  -2.561   4.199   5.028  0.7477  0.5600  0.8587
  774MOL0     C 2068  -2.557   4.302   4.935  0.5117 -0.3725 -0.1875
  774MOL0     C 2069  -2.667   4.351   4.868 -0.0947 -0.0644 -0.0834
  774MOL0     C 2070  -2.784   4.280   4.883  0.5133 -0.6389  0.1230
  774MOL0     O 2071  -2.900   4.295   4.812 -0.2996 -0.6571  0.8178
  774MOL0     C 2072  -2.948   4.432   4.809  0.6245  0.0458  1.0755
  774MOL0     C 2073  -3.094   4.417   4.763  0.6087 -0.0992 -0.8275
  774MOL0     C 2074  -3.178   4.361   4.881 -0.1909  1.2679  1.1312
  774MOL0     C 2075  -3.190   4.452   5.001  0.2271  0.2201 -0.5785
  774MOL0     C 2076  -3.225   4.385   5.138  0.0768  0.7705  0.1276
  774MOL0     C 2077  -3.211   4.488   5.251  0.0806 -0.6788  0.0096
  774MOL0     C 2078  -3.298   4.612   5.227 -0.3892  0.0845 -0.5215
  774MOL0     C 2079  -3.305   4.695   5.352 -0.3327  0.4425 -0.7701
  774MOL0    Cl 2080  -3.384   4.853   5.312  0.0078  0.4400  0.4660
  774MOL0     C 2081  -2.785   4.163   4.965 -0.3522 -0.5285 -1.0009
  774MOL0     C 2082  -2.676   4.114   5.030 -0.4768  0.0047 -0.5850
  774MOL0     O 2083  -2.424   4.358   5.201 -0.0902  0.3606  0.0003
  774MOL0     C 2084  -2.166   4.118   5.143  0.3913 -0.6484  0.0677
  774MOL0     C 2085  -2.030   4.111   5.167  0.8624 -0.5037  0.3321
  774MOL0     N 2086  -1.372   4.055   5.546 -0.1394 -0.2278  0.0517
  774MOL0     N 2087  -1.268   4.033   5.620 -0.1372  0.0111 -0.1046
  774MOL0     C 2088  -0.078   4.691   5.654 -1.6083 -0.3546 -0.7234
  774MOL0     C 2089   0.050   4.731   5.632 -0.4486  0.4786 -0.3653
  774MOL0     C 2090   0.481   4.815   5.508  0.1713 -0.1881  0.4310
  774MOL0     C 2091   0.482   4.868   5.376  0.6376 -0.2939 -0.1910
  774MOL0     C 2092   0.591   4.928   5.320  0.5784 -0.0075  0.2418
  774MOL0     C 2093   0.708   4.943   5.394 -0.6291 -0.8065 -0.6578
  774MOL0     O 2094   0.824   4.999   5.346 -0.1703 -0.3590 -0.2144
  774MOL0     C 2095   0.911   5.075   5.435  0.3163  0.1302  0.9646
  774MOL0     C 2096   0.992   5.179   5.346 -0.5193 -1.1365  0.2364
  774MOL0     C 2097   0.910   5.261   5.245  0.9809 -0.3241  0.6105
  774MOL0     C 2098   0.783   5.313   5.318  0.9337  0.1790 -0.1518
  774MOL0     C 2099   0.717   5.409   5.236  0.1954 -0.4390  0.5284
  774MOL0     C 2100   0.655   5.487   5.162  0.0776 -0.1833  0.5839
  774MOL0     C 2101   0.699   4.908   5.532  0.0145 -0.5207  0.8294
  774MOL0     C 2102   0.587   4.849   5.588  0.1070 -0.8367 -0.2680
  774MOL0     H 2103   0.116   4.593   5.334  1.3811 -0.0595  0.2652
  774MOL0     H 2104  -0.116   4.501   5.372  1.9294  0.0776 -0.4953
  774MOL0     H 2105  -0.336   4.478   5.402  1.1734  1.0411 -0.4064
  774MOL0     H 2106  -0.396   4.643   5.440 -1.2960 -0.0631  1.2139
  774MOL0     H 2107  -0.576   4.547   5.512  0.3535 -2.0150 -2.6818
  774MOL0     H 2108  -0.476   4.511   5.661  0.4284 -0.5878 -0.4683
  774MOL0     H 2109  -0.438   4.293   5.564  0.6347  1.7428  1.2696
  774MOL0     H 2110  -0.519   4.339   5.416  0.5810  0.9468 -0.5819
  774MOL0     H 2111  -0.679   4.328   5.680 -0.3964 -1.2640 -0.2915
  774MOL0     H 2112  -0.742   4.359   5.520  0.4882  2.0162  0.9214
  774MOL0     H 2113  -0.573   4.115   5.574 -0.5490  1.1672  0.3044
  774MOL0     H 2114  -0.682   4.141   5.435 -0.3776  1.1044 -1.0776
  774MOL0     H 2115  -0.782   4.104   5.718 -0.6290  0.7689  0.3315
  774MOL0     H 2116  -0.757   3.970   5.617 -1.4230 -0.1074  0.3543
  774MOL0     H 2117  -0.937   4.198   5.543  0.0202  0.2353  3.1288
  774MOL0     H 2118  -0.900   4.061   5.442  3.7926  2.4309 -0.7621
  774MOL0     H 2119  -1.023   4.005   5.714 -2.8888 -1.6129  0.6588
  774MOL0     H 2120  -1.005   3.898   5.576  0.7495 -0.4862  0.2552
  774MOL0     H 2121  -1.114   4.081   5.332  0.9227  1.5467  1.0330
  774MOL0     H 2122  -1.394   4.016   5.236  2.5358  1.1000 -1.1359
  774MOL0     H 2123  -1.397   4.193   5.236  0.2585 -0.8595 -3.0813
  774MOL0     H 2124  -1.580   4.050   5.426  1.0227  2.5470  1.6249
  774MOL0     H 2125  -1.625   4.052   5.255 -0.6059 -2.2497  1.4580
  774MOL0     H 2126  -1.572   4.287   5.432 -1.2989  0.0411  0.2685
  774MOL0     H 2127  -1.605   4.306   5.266 -1.6121  1.4061  0.4535
  774MOL0     H 2128  -1.805   4.341   5.386  0.6719 -0.7031  0.9653
  774MOL0     H 2129  -1.800   4.194   5.477 -1.7368 -1.8560 -1.8163
  774MOL0     H 2130  -2.030   4.326   5.434  0.5554  1.8976 -1.2219
  774MOL0     H 2131  -2.240   4.349   5.383  0.5298  1.2989  0.1439
  774MOL0     H 2132  -2.476   4.371   4.916  0.5261  0.0549  1.2583
  774MOL0     H 2133  -2.651   4.423   4.788  2.4043 -0.8666 -0.3790
  774MOL0     H 2134  -2.898   4.495   4.735 -0.6778 -0.3661 -0.2054
  774MOL0     H 2135  -2.932   4.475   4.909 -0.3862 -0.7748  1.6162
  774MOL0     H 2136  -3.111   4.350   4.679  0.3386 -0.6222 -0.3690
  774MOL0     H 2137  -3.130   4.518   4.741 -1.0054 -0.7146 -1.1407
  774MOL0     H 2138  -3.124   4.270   4.909  1.6078  0.3312 -4.1571
  774MOL0     H 2139  -3.277   4.321   4.857  0.4083  1.2465 -1.6895
  774MOL0     H 2140  -3.098   4.504   5.028  1.0808 -0.9667 -1.1169
  774MOL0     H 2141  -3.265   4.529   4.981  0.5342  0.2202 -1.8021
  774MOL0     H 2142  -3.159   4.303   5.169 -3.9287 -2.9478 -0.2076
  774MOL0     H 2143  -3.320   4.332   5.137  0.8921 -0.7630 -0.1074
  774MOL0     H 2144  -3.106   4.514   5.261 -0.1252  0.0975  0.1515
  774MOL0     H 2145  -3.255   4.447   5.342  1.1187  0.7130  1.1746
  774MOL0     H 2146  -3.256   4.667   5.143 -2.1546 -2.2560 -3.1430
  774MOL0     H 2147  -3.398   4.579   5.196 -1.7003  1.9756  1.4662
  774MOL0     H 2148  -3.202   4.708   5.387 -1.0213  0.1295  1.5048
  774MOL0     H 2149  -3.352   4.637   5.432  3.2542  1.1846  2.1494
  774MOL0     H 2150  -2.875   4.103   4.973 -1.3715  0.4867 -3.7950
  774MOL0     H 2151  -2.683   4.034   5.103 -0.5440  0.7115  0.2047
  774MOL0     H 2152  -2.218   4.075   5.058 -1.1150 -0.6126  0.9350
  774MOL0     H 2153  -1.963   4.068   5.094 -0.6241  0.3030 -1.6008
  774MOL0     H 2154  -0.137   4.718   5.740 -2.1602 -1.4529 -0.7454
  774MOL0     H 2155   0.106   4.783   5.710  0.8175 -4.9554  2.8660
  774MOL0     H 2156   0.393   4.864   5.314  1.1417 -1.0659 -0.8922
  774MOL0     H 2157   0.610   4.969   5.222  2.5213  1.8060  1.3015
  774MOL0     H 2158   0.987   5.012   5.483 -0.5463 -1.8967 -0.1776
  774MOL0     H 2159   0.852   5.116   5.517  0.8352 -0.7117  1.7829
  774MOL0     H 2160   1.031   5.240   5.428 -2.5146 -1.6024  1.6001
  774MOL0     H 2161   1.072   5.128   5.293  1.0563  0.3480  1.1003
  774MOL0     H 2162   0.882   5.193   5.164 -1.7696 -0.3431  1.4856
  774MOL0     H 2163   0.978   5.332   5.198  3.2908 -2.6556  0.2046
  774MOL0     H 2164   0.717   5.227   5.330  0.2052  0.5745 -1.1790
  774MOL0     H 2165   0.796   5.344   5.422  0.3618 -2.0258  0.6449
  774MOL0     H 2166   0.620   5.563   5.095 -0.5101 -0.8717  0.0963
  774MOL0     H 2167   0.787   4.915   5.596 -2.0164  2.5201  3.5754
  774MOL0     H 2168   0.576   4.823   5.693  0.6196  3.8465  1.1284
  775MOL0     O 2169  11.262   0.138   7.591  0.1564  0.6523 -0.0266
  775MOL0     C 2170  11.248   0.174   7.708  0.2997  0.7453  0.5958
  775MOL0     O 2171  11.350   0.213   7.790 -0.0424 -0.5151  0.2879
  775MOL0     C 2172  11.458   0.275   7.735 -0.9459  0.3837 -1.0099
  775MOL0     C 2173  11.581   0.235   7.794 -0.2331  0.2385 -0.3139
  775MOL0     C 2174  11.705   0.262   7.734  0.3215 -0.7086  0.1365
  775MOL0     C 2175  11.710   0.338   7.614  0.2316  0.0385  0.0446
  775MOL0     O 2176  11.819   0.364   7.533  0.0165 -0.6550 -0.1086
  775MOL0     C 2177  11.937   0.284   7.561 -0.0347 -0.1105 -0.2149
  775MOL0     C 2178  12.045   0.309   7.463 -0.1216  0.5416  0.1560
  775MOL0     C 2179  12.078   0.458   7.430  0.2584 -0.7120 -0.4482
  775MOL0     C 2180  12.186   0.493   7.331 -0.3633  0.1580 -0.2631
  775MOL0     C 2181  12.329   0.431   7.364  0.2873 -0.4239 -0.3389
  775MOL0     C 2182  12.415   0.444   7.235 -0.0677  0.5103  0.3858
  775MOL0     C 2183  12.384   0.326   7.138  0.4263 -0.4104 -0.8366
  775MOL0     C 2184  12.498   0.303   7.047  1.0555  0.7823 -0.1490
  775MOL0     N 2185  12.529   0.432   6.978  0.0543  0.3554  0.3378
  775MOL0     C 2186  12.521   0.455   6.839  0.1133 -0.0795 -0.0226
  775MOL0     C 2187  12.563   0.576   6.821 -0.3621 -0.8101  0.2630
  775MOL0     C 2188  12.621   0.637   6.691  0.2018 -0.1334 -0.9966
  775MOL0     C 2189  12.578   0.785   6.672 -0.0343 -0.5513 -0.9189
  775MOL0     C 2190  12.662   0.859   6.557  0.4113  0.2609  0.0053
  775MOL0     C 2191  12.657   0.797   6.418  0.4364 -0.2887  0.3225
  775MOL0     O 2192  12.771   0.713   6.401  1.0996  0.7445  0.3911
  775MOL0     C 2193  12.897   0.761   6.367  0.0107 -0.5546  0.7466
  775MOL0     C 2194  12.909   0.872   6.275 -0.6521 -0.0948  1.2336
  775MOL0     C 2195  13.039   0.910   6.238  0.8677 -0.5940  0.1511
  775MOL0     C 2196  13.156   0.859   6.293  1.0467  0.4845  0.1581
  775MOL0     C 2197  13.291   0.913   6.258  0.3305 -0.0698  0.0519
  775MOL0     O 2198  13.295   1.003   6.156 -0.5536  0.6641 -0.0491
  775MOL0     C 2199  13.374   1.114   6.162 -0.2472  0.6709 -1.6664
  775MOL0     C 2200  13.416   1.175   6.274  0.2267  1.6959 -0.5023
  775MOL0     C 2201  13.482   1.295   6.270  0.3638  0.6106 -0.6978
  775MOL0     C 2202  13.518   1.352   6.147 -0.0405  0.8484  0.5688
  775MOL0     O 2203  13.589   1.463   6.149 -0.2198 -0.3905  0.3424
  775MOL0     C 2204  13.724   1.427   6.110  0.0863 -0.3790  0.6491
  775MOL0     C 2205  13.828   1.536   6.151 -0.7281 -0.1692 -0.1854
  775MOL0     C 2206  13.856   1.525   6.302 -0.4915 -0.5055  0.3079
  775MOL0     C 2207  13.940   1.640   6.351  0.0729 -0.3396  0.4800
  775MOL0     C 2208  13.950   1.630   6.501  0.5621 -0.0486  0.6317
  775MOL0     C 2209  14.031   1.744   6.566 -0.0430 -0.3124 -0.0456
  775MOL0     C 2210  13.937   1.865   6.579 -0.2284 -0.4150  0.0109
  775MOL0     C 2211  14.002   2.003   6.598 -0.0834  0.4258 -0.4706
  775MOL0    Cl 2212  14.114   2.035   6.459 -0.2734  0.3927  0.2941
  775MOL0     C 2213  13.486   1.275   6.033 -0.3790 -0.1295 -0.3169
  775MOL0     C 2214  13.417   1.160   6.040  0.4615  0.0278  0.6369
  775MOL0     O 2215  13.377   0.886   6.338 -0.2345 -0.1296  0.4232
  775MOL0     C 2216  13.133   0.746   6.380  0.4497 -0.5800 -0.6481
  775MOL0     C 2217  13.007   0.692   6.405  0.0274 -0.0459 -0.4110
  775MOL0     N 2218  12.596   0.638   6.943  0.3739  0.0148  0.1429
  775MOL0     N 2219  12.589   0.545   7.028 -0.2638  0.0896 -0.4307
  775MOL0     C 2220  11.582   0.396   7.565 -1.0566  0.6408 -0.0199
  775MOL0     C 2221  11.467   0.359   7.626  0.1226 -0.5538 -1.2877
  775MOL0     C 2222  11.112   0.173   7.760 -0.3866  0.5358  0.5619
  775MOL0     C 2223  11.076   0.240   7.876 -1.4542  0.2857  0.0110
  775MOL0     C 2224  10.949   0.231   7.930 -0.2657 -1.3662 -0.1426
  775MOL0     C 2225  10.852   0.150   7.872  0.4126  0.4044  0.4157
  775MOL0     O 2226  10.741   0.110   7.944 -0.0450  0.8882  0.2779
  775MOL0     C 2227  10.618   0.118   7.872  0.1563  0.0573 -0.1325
  775MOL0     C 2228  10.599   0.265   7.836 -0.0632  0.2665 -0.4360
  775MOL0     C 2229  10.633   0.367   7.954 -0.0514  0.3655 -0.0941
  775MOL0     C 2230  10.529   0.353   8.058 -0.3132 -0.0696  0.1957
  775MOL0     C 2231  10.549   0.457   8.163  0.1206 -0.6117 -0.3948
  775MOL0     C 2232  10.548   0.529   8.268 -0.7140 -0.4993  0.3934
  775MOL0     C 2233  10.885   0.074   7.756  0.2389 -0.0958 -0.0365
  775MOL0     C 2234  11.019   0.085   7.704  1.4273 -0.1016  0.1517
  775MOL0     H 2235  11.585   0.168   7.879 -1.3894 -0.1531 -0.5559
  775MOL0     H 2236  11.794   0.218   7.778 -0.3751 -1.5813  0.7025
  775MOL0     H 2237  11.917   0.176   7.564 -0.0389 -0.1060 -0.0524
  775MOL0     H 2238  11.973   0.310   7.661 -0.7696 -1.0455  0.3242
  775MOL0     H 2239  12.019   0.276   7.362  0.9797 -0.8839  0.3087
  775MOL0     H 2240  12.133   0.253   7.497 -1.6745 -1.9340  0.3654
  775MOL0     H 2241  12.108   0.499   7.527  0.8924 -1.5414 -0.2771
  775MOL0     H 2242  11.986   0.507   7.398  0.7210  0.6874  0.2917
  775MOL0     H 2243  12.150   0.445   7.240  0.5727 -0.6965 -0.2027
  775MOL0     H 2244  12.198   0.601   7.317  0.7075  0.3739  1.8300
  775MOL0     H 2245  12.326   0.323   7.381 -1.6366 -0.1164  1.7440
  775MOL0     H 2246  12.376   0.486   7.446 -0.9122  0.0690  0.0419
  775MOL0     H 2247  12.521   0.434   7.258  1.0204  3.7690 -2.2922
  775MOL0     H 2248  12.389   0.540   7.189  1.2508 -1.2252 -4.6074
  775MOL0     H 2249  12.364   0.230   7.187 -1.0265 -0.4608 -1.4520
  775MOL0     H 2250  12.288   0.341   7.088  1.3251  1.6180 -2.0754
  775MOL0     H 2251  12.476   0.213   6.988 -0.9612 -1.9631  4.2250
  775MOL0     H 2252  12.585   0.277   7.109  0.2774 -0.8408  0.3286
  775MOL0     H 2253  12.482   0.375   6.777 -1.3640  1.0151 -0.5806
  775MOL0     H 2254  12.569   0.583   6.611  0.8112 -0.2469 -1.3254
  775MOL0     H 2255  12.729   0.628   6.678  0.6963  2.0830  0.9580
  775MOL0     H 2256  12.611   0.842   6.759  0.6029 -0.0464 -1.4732
  775MOL0     H 2257  12.470   0.774   6.660 -0.0051 -2.7559  0.3696
  775MOL0     H 2258  12.631   0.964   6.550  1.2214  0.8030  3.0537
  775MOL0     H 2259  12.767   0.859   6.589  1.2113 -4.1693 -1.8267
  775MOL0     H 2260  12.636   0.876   6.346 -0.0233  0.2630  1.0411
  775MOL0     H 2261  12.573   0.727   6.412 -0.6876  1.0414 -5.8529
  775MOL0     H 2262  12.820   0.922   6.239 -0.7067 -1.3806 -0.6054
  775MOL0     H 2263  13.043   0.999   6.176  1.1518  0.8353  2.1081
  775MOL0     H 2264  13.400   1.130   6.371  3.7074 -2.8102 -1.7079
  775MOL0     H 2265  13.516   1.327   6.368  0.4762 -2.1265  0.2364
  775MOL0     H 2266  13.738   1.420   6.001  0.7190 -1.1542  0.7738
  775MOL0     H 2267  13.758   1.327   6.140 -1.1543 -2.0218 -2.8249
  775MOL0     H 2268  13.780   1.633   6.135 -0.4265  0.0725  0.3406
  775MOL0     H 2269  13.920   1.530   6.092 -0.1177  1.3500  0.5489
  775MOL0     H 2270  13.899   1.427   6.328  1.3939  0.3522  0.6101
  775MOL0     H 2271  13.757   1.527   6.346 -0.9413  0.8368 -0.6913
  775MOL0     H 2272  14.041   1.630   6.309 -0.5132 -0.9521 -0.8540
  775MOL0     H 2273  13.897   1.737   6.326 -0.9294 -0.2144  2.5422
  775MOL0     H 2274  13.995   1.535   6.531  0.4860 -0.3701 -0.2511
  775MOL0     H 2275  13.853   1.630   6.551  0.4206  1.1933  0.3964
  775MOL0     H 2276  14.121   1.766   6.508 -0.7777 -0.0067 -1.1010
  775MOL0     H 2277  14.073   1.714   6.663  1.5853 -2.1932 -1.2629
  775MOL0     H 2278  13.860   1.857   6.502 -1.2366  2.0255  0.6701
  775MOL0     H 2279  13.882   1.842   6.671 -0.8526  2.3560  0.4196
  775MOL0     H 2280  14.055   2.012   6.693 -0.4125  0.0264 -0.2480
  775MOL0     H 2281  13.924   2.080   6.592 -1.0680 -0.5811 -0.8940
  775MOL0     H 2282  13.504   1.322   5.937 -3.2971 -1.5920 -1.6825
  775MOL0     H 2283  13.389   1.105   5.950 -1.2233 -1.2952  1.8903
  775MOL0     H 2284  13.218   0.693   6.423 -0.9193 -0.5297  2.3936
  775MOL0     H 2285  12.992   0.609   6.472 -1.2947  1.0763  0.7522
  775MOL0     H 2286  11.568   0.455   7.475 -2.5822  1.4477  0.6957
  775MOL0     H 2287  11.378   0.399   7.579 -0.9925 -0.7918  0.5382
  775MOL0     H 2288  11.148   0.297   7.932 -1.0269 -0.0589 -0.1835
  775MOL0     H 2289  10.924   0.279   8.024  1.4490  1.5672 -1.0578
  775MOL0     H 2290  10.534   0.080   7.931  2.2111 -2.7814  1.1644
  775MOL0     H 2291  10.609   0.062   7.778  1.8595  0.4609 -0.5695
  775MOL0     H 2292  10.666   0.304   7.760 -0.0570  0.6456 -0.2384
  775MOL0     H 2293  10.496   0.278   7.802 -0.2326  1.2427  0.4201
  775MOL0     H 2294  10.633   0.471   7.922  1.2221  0.4626  0.1573
  775MOL0     H 2295  10.737   0.358   7.987  0.4501  1.9796 -1.1028
  775MOL0     H 2296  10.430   0.368   8.014 -0.4987 -1.0941  0.2339
  775MOL0     H 2297  10.537   0.250   8.095 -2.1112  0.4754  2.3384
  775MOL0     H 2298  10.536   0.584   8.359 -1.9210 -1.3657  0.7767
  775MOL0     H 2299  10.822   0.001   7.706  1.8199 -0.7118 -1.2333
  775MOL0     H 2300  11.051   0.025   7.620  2.7937 -0.4013  0.8706
  776MOL0     O 2301   2.681   5.363   9.924 -0.2875  0.7527 -0.3553
  776MOL0     C 2302   2.693   5.483   9.916  0.8092 -1.2125  0.5129
  776MOL0     O 2303   2.746   5.567  10.008 -0.4833  0.3510  0.2207
  776MOL0     C 2304   2.832   5.521  10.105  0.5627  0.8142  0.1449
  776MOL0     C 2305   2.811   5.582  10.228 -0.4105 -0.1277 -1.6655
  776MOL0     C 2306   2.891   5.554  10.343 -0.1790  0.0688 -0.5289
  776MOL0     C 2307   3.003   5.463  10.326 -0.6320 -0.1918  0.2473
  776MOL0     O 2308   3.071   5.419  10.447 -0.0572  0.2451 -1.0528
  776MOL0     C 2309   3.174   5.328  10.432 -0.7628 -0.7144  0.1715
  776MOL0     C 2310   3.260   5.320  10.566 -0.4615  1.0815  0.1919
  776MOL0     C 2311   3.387   5.235  10.556  0.8689 -0.4425 -0.1355
  776MOL0     C 2312   3.472   5.247  10.689  0.5450 -0.2053 -0.0385
  776MOL0     C 2313   3.608   5.178  10.667  0.9186  0.3231  1.6617
  776MOL0     C 2314   3.671   5.138  10.803  0.5055 -0.9127  0.0761
  776MOL0     C 2315   3.801   5.051  10.779  0.2615 -0.7097 -0.4770
  776MOL0     C 2316   3.829   4.965  10.904 -0.9741 -0.3025  0.5736
  776MOL0     N 2317   3.857   5.052  11.025  1.1392  0.3780 -0.3520
  776MOL0     C 2318   3.813   5.027  11.152 -0.7433 -0.1650  0.5837
  776MOL0     C 2319   3.878   5.115  11.230  0.4591 -0.3919  0.2103
  776MOL0     C 2320   3.859   5.131  11.384 -0.3718  0.6016  0.6456
  776MOL0     C 2321   3.943   5.018  11.455 -0.2165 -0.6740 -0.0932
  776MOL0     C 2322   3.889   5.001  11.595  0.0929  0.5363  1.3203
  776MOL0     C 2323   3.910   5.132  11.677 -0.3310 -0.0037 -0.1102
  776MOL0     O 2324   4.046   5.172  11.659  0.4879 -0.1328 -0.4516
  776MOL0     C 2325   4.140   5.122  11.753 -0.6461 -0.7398 -0.4088
  776MOL0     C 2326   4.272   5.177  11.764  0.5264  0.5489 -0.4532
  776MOL0     C 2327   4.361   5.147  11.864 -0.4788  0.8734 -0.8259
  776MOL0     C 2328   4.332   5.043  11.958 -0.9609 -0.0046  0.0407
  776MOL0     C 2329   4.427   4.987  12.057 -0.4616 -0.3628 -0.0671
  776MOL0     O 2330   4.561   5.016  12.056 -0.0995  0.0854  0.1500
  776MOL0     C 2331   4.660   4.983  12.144 -0.3926  0.2154 -0.0089
  776MOL0     C 2332   4.645   4.955  12.283  0.0376  0.8266  0.4769
  776MOL0     C 2333   4.754   4.940  12.368 -0.1786  0.4968 -0.7025
  776MOL0     C 2334   4.882   4.940  12.306  0.6999  0.7825 -0.8240
  776MOL0     O 2335   5.000   4.930  12.371 -0.4216  0.1753 -0.0932
  776MOL0     C 2336   4.992   4.878  12.503  0.5391  1.0517 -0.1069
  776MOL0     C 2337   5.141   4.840  12.542  0.5276  1.0774  0.6354
  776MOL0     C 2338   5.195   4.734  12.447  0.3362 -0.1433  1.1013
  776MOL0     C 2339   5.322   4.683  12.492 -0.5259  0.0491 -0.0650
  776MOL0     C 2340   5.372   4.552  12.423  0.1059  0.1299  0.3043
  776MOL0     C 2341   5.266   4.440  12.433 -0.5909  0.0357  0.0221
  776MOL0     C 2342   5.345   4.313  12.388 -0.6124 -0.6051 -0.2327
  776MOL0     C 2343   5.305   4.198  12.454  0.5094  0.4894 -0.5142
  776MOL0    Cl 2344   5.360   4.051  12.363  0.0260  0.2071 -0.4646
  776MOL0     C 2345   4.903   4.961  12.165 -0.1367  0.0469  0.4502
  776MOL0     C 2346   4.789   4.984  12.083 -0.4268  0.1499 -0.0378
  776MOL0     O 2347   4.370   4.930  12.153 -0.2837  0.7828  0.0175
  776MOL0     C 2348   4.208   4.980  11.947  0.1805 -0.3554  0.2042
  776MOL0     C 2349   4.110   5.017  11.844 -0.4365 -0.3602 -0.0592
  776MOL0     N 2350   3.957   5.194  11.148 -0.6919  0.2225  0.2214
  776MOL0     N 2351   3.947   5.158  11.025 -0.4256  0.3564 -0.1125
  776MOL0     C 2352   3.022   5.395  10.198  1.0741 -1.2504  0.8189
  776MOL0     C 2353   2.936   5.425  10.090  0.3035 -0.7439 -0.2863
  776MOL0     C 2354   2.617   5.548   9.809 -0.1861  0.4431 -0.3005
  776MOL0     C 2355   2.624   5.679   9.777  0.0027  0.0871  0.0722
  776MOL0     C 2356   2.548   5.729   9.673  0.5267 -0.2060  0.0998
  776MOL0     C 2357   2.459   5.653   9.592 -0.2306  0.1543  0.1181
  776MOL0     O 2358   2.396   5.717   9.498  0.4180  1.0571  0.0559
  776MOL0     C 2359   2.395   5.652   9.367  0.0064 -0.0392 -0.5682
  776MOL0     C 2360   2.340   5.733   9.254  0.0628  0.8392 -0.1688
  776MOL0     C 2361   2.214   5.824   9.291 -0.2183 -0.1938 -0.1309
  776MOL0     C 2362   2.197   5.929   9.169 -0.6311 -0.0055 -0.8457
  776MOL0     C 2363   2.073   6.003   9.168  0.0392  0.5073  0.1003
  776MOL0     C 2364   1.985   6.085   9.160 -0.5093  0.9396  0.0492
  776MOL0     C 2365   2.452   5.517   9.628  0.6499 -0.2639 -0.1552
  776MOL0     C 2366   2.527   5.466   9.732 -0.5348  0.7087 -0.1536
  776MOL0     H 2367   2.742   5.664  10.240 -0.0351 -0.1728  1.9010
  776MOL0     H 2368   2.875   5.615  10.431  1.0083 -0.0617 -0.2116
  776MOL0     H 2369   3.239   5.348  10.346  1.4916 -1.1889  1.6553
  776MOL0     H 2370   3.127   5.230  10.419 -2.0622 -0.1427  0.4290
  776MOL0     H 2371   3.205   5.265  10.642 -0.4063 -0.6922 -1.0062
  776MOL0     H 2372   3.288   5.420  10.602 -2.7020  0.4220  4.4312
  776MOL0     H 2373   3.447   5.274  10.473 -1.1357  2.7917 -0.2547
  776MOL0     H 2374   3.348   5.133  10.556 -2.5575  0.7120  0.4206
  776MOL0     H 2375   3.494   5.352  10.714  1.6487 -0.4578  0.0929
  776MOL0     H 2376   3.416   5.200  10.770  0.2164 -0.5976 -0.4873
  776MOL0     H 2377   3.662   5.259  10.617 -0.5661 -1.3972 -3.3429
  776MOL0     H 2378   3.594   5.100  10.591  1.2077  1.3615  0.5148
  776MOL0     H 2379   3.596   5.095  10.870 -0.6994  1.4985  0.3627
  776MOL0     H 2380   3.693   5.229  10.860 -2.8386 -0.4232  0.7693
  776MOL0     H 2381   3.778   4.982  10.698  0.0522 -0.9805 -0.1922
  776MOL0     H 2382   3.886   5.118  10.762 -0.6342  0.4862 -0.3823
  776MOL0     H 2383   3.922   4.907  10.892 -1.8771 -1.7801  0.4703
  776MOL0     H 2384   3.748   4.896  10.929 -1.9133  1.0153  1.2278
  776MOL0     H 2385   3.758   4.941  11.188  0.2244 -0.9699  0.1747
  776MOL0     H 2386   3.752   5.123  11.402 -0.2783 -0.9649  0.6813
  776MOL0     H 2387   3.896   5.229  11.415 -0.6385  0.0214  2.9647
  776MOL0     H 2388   4.052   5.033  11.452 -0.1596 -0.3138  2.0673
  776MOL0     H 2389   3.935   4.927  11.394  1.6573 -2.4277  2.0887
  776MOL0     H 2390   3.783   4.976  11.590  0.6933 -2.1765 -1.3131
  776MOL0     H 2391   3.940   4.917  11.643  1.1637  1.7279  2.3232
  776MOL0     H 2392   3.880   5.106  11.779  0.1354  3.6072  1.0801
  776MOL0     H 2393   3.839   5.209  11.646  2.4695  3.4421  1.3411
  776MOL0     H 2394   4.299   5.237  11.678 -0.3449 -0.0940 -1.1988
  776MOL0     H 2395   4.456   5.199  11.867 -1.1489  2.2585 -1.9814
  776MOL0     H 2396   4.551   4.947  12.336  0.5081 -1.0333  1.0887
  776MOL0     H 2397   4.754   4.945  12.476  2.4101 -1.9841 -0.4640
  776MOL0     H 2398   4.944   4.780  12.503  1.9536  0.1773 -3.8702
  776MOL0     H 2399   4.951   4.949  12.575  0.0201  1.7434 -1.0664
  776MOL0     H 2400   5.135   4.798  12.643  1.8021 -0.7488  0.0220
  776MOL0     H 2401   5.203   4.930  12.548  2.5758 -0.2725  0.7523
  776MOL0     H 2402   5.207   4.779  12.348 -1.8982 -2.2901 -0.2610
  776MOL0     H 2403   5.121   4.655  12.431  0.5917 -0.4403  1.3760
  776MOL0     H 2404   5.404   4.754  12.487 -0.5732  0.1273  0.2395
  776MOL0     H 2405   5.307   4.663  12.598 -3.7212  0.5870 -0.2905
  776MOL0     H 2406   5.460   4.523  12.481  1.1791  0.8472 -0.9085
  776MOL0     H 2407   5.405   4.574  12.322 -0.6538  2.6768  0.5269
  776MOL0     H 2408   5.178   4.463  12.372 -0.1196  3.8889  0.4851
  776MOL0     H 2409   5.229   4.436  12.536 -1.7126  2.2007 -0.2275
  776MOL0     H 2410   5.323   4.302  12.281 -0.5808 -1.4393 -0.1568
  776MOL0     H 2411   5.452   4.325  12.407 -0.5620  1.6170 -1.5322
  776MOL0     H 2412   5.201   4.184  12.485  0.2321  1.2210 -1.0848
  776MOL0     H 2413   5.354   4.192  12.552 -0.7676  0.7805  0.1548
  776MOL0     H 2414   5.007   4.969  12.136  0.4920 -1.2922  2.2005
  776MOL0     H 2415   4.798   5.005  11.977  1.6600 -0.5957 -0.0500
  776MOL0     H 2416   4.181   4.901  12.016 -1.9280  1.3882  1.5222
  776MOL0     H 2417   4.021   4.956  11.852  1.0304 -2.4494  1.2909
  776MOL0     H 2418   3.101   5.321  10.184  0.4369 -2.5621  3.5728
  776MOL0     H 2419   2.962   5.379   9.995  0.0287  0.8978 -1.1990
  776MOL0     H 2420   2.693   5.741   9.833  0.6241 -1.5901  1.2648
  776MOL0     H 2421   2.568   5.834   9.655 -1.1804  0.6002  2.4987
  776MOL0     H 2422   2.337   5.561   9.387  2.7129 -1.8820 -0.4800
  776MOL0     H 2423   2.489   5.607   9.335 -0.6498 -0.7172 -1.5896
  776MOL0     H 2424   2.434   5.788   9.243  0.2960  1.0803  2.3986
  776MOL0     H 2425   2.328   5.675   9.162 -0.4121  2.0575 -0.9008
  776MOL0     H 2426   2.233   5.881   9.382  2.7826  1.2906 -1.5399
  776MOL0     H 2427   2.122   5.766   9.305 -0.4338  0.7325  3.0461
  776MOL0     H 2428   2.270   6.009   9.188  1.8601 -1.8195 -2.1900
  776MOL0     H 2429   2.211   5.889   9.068  0.7556 -0.7132 -0.3878
  776MOL0     H 2430   1.904   6.155   9.155 -1.4648  0.1052  2.5565
  776MOL0     H 2431   2.389   5.447   9.574  1.1066 -0.2076 -0.7715
  776MOL0     H 2432   2.532   5.358   9.741  0.9104  0.6942 -0.8948
  777MOL0     O 2433   3.413   3.982   8.547  0.3770 -0.7018 -0.3107
  777MOL0     C 2434   3.485   4.024   8.445  0.4102  0.4052  0.0181
  777MOL0     O 2435   3.580   4.121   8.448  0.1403 -0.5320  0.0058
  777MOL0     C 2436   3.627   4.146   8.570 -0.6699  0.0839 -0.3768
  777MOL0     C 2437   3.663   4.047   8.658  0.6299  0.5989  0.5759
  777MOL0     C 2438   3.718   4.080   8.785  0.3282 -1.0636  0.0727
  777MOL0     C 2439   3.751   4.216   8.815  0.1798  0.2057  1.0210
  777MOL0     O 2440   3.819   4.253   8.929 -0.9115 -0.4647  0.8872
  777MOL0     C 2441   3.849   4.394   8.959 -0.4340  0.6517  0.0184
  777MOL0     C 2442   3.937   4.421   9.072 -0.4173 -0.0898 -0.2712
  777MOL0     C 2443   3.884   4.363   9.206 -0.3039  0.3020  0.3074
  777MOL0     C 2444   3.995   4.331   9.299 -1.1091 -0.8843  0.0138
  777MOL0     C 2445   3.961   4.316   9.449  0.3940 -0.0228  1.1739
  777MOL0     C 2446   3.866   4.201   9.484  0.2372 -0.9181 -0.2092
  777MOL0     C 2447   3.821   4.214   9.629  0.0142  0.6713 -0.3904
  777MOL0     C 2448   3.701   4.122   9.677  0.2722  0.2499 -0.0029
  777MOL0     N 2449   3.662   4.151   9.821  0.2379 -0.0005 -0.7617
  777MOL0     C 2450   3.748   4.156   9.930  0.2706  0.1405  0.3256
  777MOL0     C 2451   3.679   4.179  10.048  0.5374  0.2533  0.2525
  777MOL0     C 2452   3.735   4.212  10.182  0.4207  0.4744 -0.2001
  777MOL0     C 2453   3.762   4.080  10.272  0.2936  0.5790  0.7737
  777MOL0     C 2454   3.843   4.103  10.405 -0.3507 -0.2534 -0.3021
  777MOL0     C 2455   3.868   3.973  10.496  0.2140 -0.6299  0.5625
  777MOL0     O 2456   3.757   3.951  10.583 -0.6812  0.5528  0.7047
  777MOL0     C 2457   3.742   3.835  10.658 -0.2362 -0.4056 -0.5279
  777MOL0     C 2458   3.835   3.732  10.665 -1.1550  0.4121 -0.2118
  777MOL0     C 2459   3.827   3.616  10.752 -0.3064 -0.4796  0.4100
  777MOL0     C 2460   3.709   3.604  10.822  0.3962  1.4436  0.9846
  777MOL0     C 2461   3.689   3.490  10.913  0.0924 -0.3336 -0.3928
  777MOL0     O 2462   3.600   3.505  11.009  0.4313  0.0451  0.6999
  777MOL0     C 2463   3.475   3.439  10.999  0.0139 -0.4234  0.0788
  777MOL0     C 2464   3.467   3.299  11.005  0.6450 -0.8452 -0.9958
  777MOL0     C 2465   3.347   3.229  11.014  0.5677 -0.4740 -0.3801
  777MOL0     C 2466   3.228   3.305  11.013 -0.3080  0.5018  0.6702
  777MOL0     O 2467   3.103   3.258  10.993 -0.1996  0.2235  0.2138
  777MOL0     C 2468   3.077   3.135  11.060 -0.3413  0.5096 -0.1652
  777MOL0     C 2469   2.927   3.106  11.034 -0.4022 -0.0305 -1.3128
  777MOL0     C 2470   2.860   3.003  11.136  0.1659  0.6874 -0.0141
  777MOL0     C 2471   2.917   2.857  11.145  0.4747  0.3467  0.1572
  777MOL0     C 2472   2.809   2.759  11.191  0.3469 -0.2232  0.3169
  777MOL0     C 2473   2.843   2.622  11.134 -0.7140  0.7683 -0.6830
  777MOL0     C 2474   2.748   2.512  11.181 -0.1758 -0.0820 -0.0886
  777MOL0     C 2475   2.800   2.464  11.319  0.2404  0.1825 -0.3192
  777MOL0    Cl 2476   2.930   2.358  11.309 -0.1265 -0.3997  0.7379
  777MOL0     C 2477   3.236   3.442  11.004  0.1147 -0.3039  0.3782
  777MOL0     C 2478   3.359   3.513  11.002  0.2191  0.0716 -0.3788
  777MOL0     O 2479   3.759   3.395  10.908 -0.0667 -0.0450  1.0731
  777MOL0     C 2480   3.616   3.714  10.831 -0.3219  1.2478  0.4440
  777MOL0     C 2481   3.636   3.829  10.749  0.4328 -0.2877  0.4832
  777MOL0     N 2482   3.548   4.192  10.011 -0.1181 -0.0245  0.1634
  777MOL0     N 2483   3.537   4.192   9.880 -0.0546  0.9988 -0.2038
  777MOL0     C 2484   3.718   4.312   8.716  0.9218  0.0016  0.1000
  777MOL0     C 2485   3.657   4.278   8.596  1.2496  0.0730  0.1462
  777MOL0     C 2486   3.426   3.975   8.308 -0.8765 -0.2025  0.2666
  777MOL0     C 2487   3.482   4.031   8.195  0.5204 -0.4149 -0.1407
  777MOL0     C 2488   3.431   4.009   8.069 -0.3691 -0.2770 -0.0632
  777MOL0     C 2489   3.319   3.941   8.053  0.1474  0.2377  0.1701
  777MOL0     O 2490   3.267   3.951   7.928 -0.3098 -0.1967  0.7767
  777MOL0     C 2491   3.135   3.901   7.885 -0.4020 -0.7104 -0.4699
  777MOL0     C 2492   3.024   3.989   7.944  0.1391 -0.2115  0.0087
  777MOL0     C 2493   2.893   3.908   7.961  0.7079 -0.1787  0.0026
  777MOL0     C 2494   2.811   3.883   7.823  0.4073  0.2220  0.7134
  777MOL0     C 2495   2.871   3.780   7.736 -0.8340  0.5533  0.8484
  777MOL0     C 2496   2.915   3.700   7.654 -0.2562 -0.0160 -0.4758
  777MOL0     C 2497   3.264   3.879   8.162 -0.8409  0.4109  0.6192
  777MOL0     C 2498   3.317   3.884   8.287  0.1577 -0.4969 -0.2807
  777MOL0     H 2499   3.633   3.944   8.641 -0.6480  1.1441 -0.6620
  777MOL0     H 2500   3.737   4.000   8.856  2.2968 -1.2051 -0.5782
  777MOL0     H 2501   3.753   4.443   8.977 -0.6130  0.3763 -0.1818
  777MOL0     H 2502   3.896   4.440   8.871 -1.3864  2.1012  0.2359
  777MOL0     H 2503   3.953   4.529   9.085 -2.2193  0.7610 -3.8986
  777MOL0     H 2504   4.040   4.386   9.061  0.3033  2.4331 -2.6434
  777MOL0     H 2505   3.832   4.269   9.187 -1.9951  0.6411  2.7703
  777MOL0     H 2506   3.813   4.425   9.262  0.6962  2.0702 -0.2945
  777MOL0     H 2507   4.037   4.233   9.274  2.0506  0.2496  0.3672
  777MOL0     H 2508   4.074   4.405   9.283  0.5840 -2.1964  1.8595
  777MOL0     H 2509   3.915   4.413   9.470  0.9362  1.9473 -4.8502
  777MOL0     H 2510   4.050   4.322   9.512  0.5320  1.5249  0.8810
  777MOL0     H 2511   3.923   4.110   9.463  2.1692  0.0779  0.4035
  777MOL0     H 2512   3.776   4.214   9.424  1.7293 -1.6248 -2.7402
  777MOL0     H 2513   3.900   4.210   9.704  0.4317 -1.9161 -0.8907
  777MOL0     H 2514   3.776   4.314   9.634 -1.1099  0.1134  1.0061
  777MOL0     H 2515   3.733   4.018   9.667  0.3794  0.4231 -1.6726
  777MOL0     H 2516   3.614   4.140   9.612  1.8136  0.6682 -2.0361
  777MOL0     H 2517   3.856   4.160   9.921  0.4218  0.1679  1.9465
  777MOL0     H 2518   3.674   4.288  10.232 -1.7060 -0.9311 -0.5553
  777MOL0     H 2519   3.826   4.268  10.156 -1.7624  2.9937 -3.2895
  777MOL0     H 2520   3.826   4.020  10.206 -0.8364 -1.3822  1.3761
  777MOL0     H 2521   3.671   4.026  10.297  1.8497 -2.0102  1.2193
  777MOL0     H 2522   3.939   4.155  10.410 -0.7206  0.3021  1.2666
  777MOL0     H 2523   3.769   4.161  10.459  0.8876  2.2452 -1.1474
  777MOL0     H 2524   3.969   3.977  10.538 -0.4035  2.3088  2.0049
  777MOL0     H 2525   3.873   3.887  10.428  1.4248 -1.9221  2.1787
  777MOL0     H 2526   3.933   3.753  10.624 -0.4422  1.2093  1.7945
  777MOL0     H 2527   3.908   3.546  10.771  4.5671  4.3567  0.2704
  777MOL0     H 2528   3.561   3.246  11.005  1.2127 -0.1621  3.2486
  777MOL0     H 2529   3.333   3.125  11.041 -0.9755  0.5352  3.3610
  777MOL0     H 2530   3.094   3.147  11.167 -1.9708  0.1696  0.1570
  777MOL0     H 2531   3.134   3.046  11.033 -0.6215  0.2716  0.0130
  777MOL0     H 2532   2.918   3.054  10.938 -0.3489 -0.2679 -1.1916
  777MOL0     H 2533   2.867   3.197  11.044  0.8742  0.7125 -0.1286
  777MOL0     H 2534   2.752   2.996  11.119 -0.2585  1.5059  2.0500
  777MOL0     H 2535   2.874   3.047  11.235  2.1546  0.6072 -0.2193
  777MOL0     H 2536   2.946   2.832  11.043  0.9543 -2.6478  0.9318
  777MOL0     H 2537   3.003   2.852  11.213  1.0463  1.0240 -0.5002
  777MOL0     H 2538   2.710   2.788  11.155 -0.2234  0.1018  2.0249
  777MOL0     H 2539   2.814   2.754  11.300  0.8371 -0.2670  0.2950
  777MOL0     H 2540   2.949   2.597  11.144 -0.8835  0.9293  2.9534
  777MOL0     H 2541   2.832   2.637  11.026 -0.8746  3.3338 -0.3597
  777MOL0     H 2542   2.648   2.556  11.188  0.4438  1.0101  4.0902
  777MOL0     H 2543   2.733   2.427  11.112 -3.5762  0.3224 -0.0180
  777MOL0     H 2544   2.722   2.412  11.375  0.8377 -1.4486 -0.9390
  777MOL0     H 2545   2.836   2.549  11.379  1.2010 -0.5335  0.1465
  777MOL0     H 2546   3.140   3.491  11.009  0.5461  0.8651 -1.7522
  777MOL0     H 2547   3.368   3.620  11.018 -1.6806  0.3703 -0.9814
  777MOL0     H 2548   3.530   3.705  10.897 -1.3824 -0.6074 -1.0859
  777MOL0     H 2549   3.565   3.912  10.748  0.2091 -0.4784  0.1294
  777MOL0     H 2550   3.741   4.418   8.722  1.3006 -0.0604 -0.1642
  777MOL0     H 2551   3.619   4.345   8.520  0.2523 -0.5830  0.0390
  777MOL0     H 2552   3.565   4.100   8.205  1.2496 -1.3604  0.6113
  777MOL0     H 2553   3.485   4.059   7.989  1.0125 -0.2234  0.8663
  777MOL0     H 2554   3.121   3.802   7.930  0.1605 -1.0384 -1.0030
  777MOL0     H 2555   3.135   3.889   7.776  1.6954 -2.7534 -0.3273
  777MOL0     H 2556   3.055   4.030   8.040  1.2672  1.7276 -1.1171
  777MOL0     H 2557   3.011   4.080   7.885  1.1704  0.5260  0.8784
  777MOL0     H 2558   2.826   3.971   8.021 -1.9081 -0.1644 -2.6880
  777MOL0     H 2559   2.911   3.814   8.015 -0.8874 -1.6521 -1.8659
  777MOL0     H 2560   2.711   3.849   7.853  0.1332  1.8377  1.7546
  777MOL0     H 2561   2.799   3.978   7.770  3.5745 -0.4787 -1.5094
  777MOL0     H 2562   2.958   3.627   7.589 -1.5180 -0.8008 -0.4580
  777MOL0     H 2563   3.166   3.835   8.152 -1.0874  0.8709  0.9989
  777MOL0     H 2564   3.270   3.858   8.381  1.0930 -0.8540  0.0939
  778MOL0     O 2565   2.381  11.305   3.324  0.0332 -0.1996  0.3789
  778MOL0     C 2566   2.382  11.350   3.211 -0.4077  1.0959 -0.1953
  778MOL0     O 2567   2.410  11.273   3.095  0.1354 -0.3413  0.0323
  778MOL0     C 2568   2.460  11.145   3.087  0.4919 -0.2423 -0.2182
  778MOL0     C 2569   2.450  11.091   2.958  0.6363  0.4928 -0.7543
  778MOL0     C 2570   2.479  10.958   2.938 -0.3622  0.0099  0.7631
  778MOL0     C 2571   2.508  10.878   3.051 -0.1689 -0.5703  0.8138
  778MOL0     O 2572   2.537  10.743   3.041 -1.0479 -0.3307 -0.6630
  778MOL0     C 2573   2.433  10.672   3.092  0.1470  0.3585 -0.1899
  778MOL0     C 2574   2.466  10.549   3.009  0.2767 -0.1086 -0.6893
  778MOL0     C 2575   2.419  10.556   2.861  0.4884  0.3074  0.2094
  778MOL0     C 2576   2.506  10.459   2.780  0.6590  0.6335 -0.6609
  778MOL0     C 2577   2.460  10.439   2.637  0.3580  0.9623 -0.8258
  778MOL0     C 2578   2.502  10.294   2.595 -0.5444  0.1166  0.6324
  778MOL0     C 2579   2.421  10.247   2.473 -0.5710 -0.2513 -0.4725
  778MOL0     C 2580   2.484  10.302   2.345 -0.4629 -1.0625  0.4841
  778MOL0     N 2581   2.416  10.262   2.226 -0.1573  0.5098  0.7525
  778MOL0     C 2582   2.275  10.252   2.202 -0.4047 -0.3936 -0.5953
  778MOL0     C 2583   2.254  10.177   2.095 -0.3287  0.4222  0.0786
  778MOL0     C 2584   2.129  10.140   2.031  0.3207  1.1220  0.3453
  778MOL0     C 2585   2.106  10.184   1.883 -0.5276 -0.5972  1.1678
  778MOL0     C 2586   2.089  10.336   1.874  1.0517 -0.9099  0.2059
  778MOL0     C 2587   1.994  10.383   1.760 -0.0516  0.6282 -0.1469
  778MOL0     O 2588   2.058  10.363   1.626 -0.1559  0.3683 -0.3046
  778MOL0     C 2589   2.081  10.477   1.560  0.3505 -0.3221 -0.2833
  778MOL0     C 2590   2.045  10.487   1.430  0.2237 -0.2117 -0.0890
  778MOL0     C 2591   2.081  10.596   1.349  1.3718 -0.6586  0.0707
  778MOL0     C 2592   2.136  10.717   1.407  0.2908 -0.5763  1.1407
  778MOL0     C 2593   2.194  10.834   1.330 -0.4984  0.6134 -0.3222
  778MOL0     O 2594   2.217  10.816   1.193  0.5987 -0.7903 -0.4036
  778MOL0     C 2595   2.259  10.919   1.112 -1.1977 -0.3986 -0.0593
  778MOL0     C 2596   2.322  11.044   1.153 -1.5313 -0.5401  0.4221
  778MOL0     C 2597   2.360  11.150   1.058  0.5684 -0.7914 -0.1587
  778MOL0     C 2598   2.329  11.129   0.923 -0.5069 -1.2076 -0.3730
  778MOL0     O 2599   2.351  11.225   0.825 -0.2610  0.2317  0.6083
  778MOL0     C 2600   2.420  11.182   0.708 -0.1100  0.2832  0.2108
  778MOL0     C 2601   2.439  11.291   0.606 -0.1094  0.7537  0.1625
  778MOL0     C 2602   2.316  11.295   0.524 -0.0403  0.5295  0.8110
  778MOL0     C 2603   2.324  11.411   0.429  0.8007 -0.2014 -0.1419
  778MOL0     C 2604   2.187  11.455   0.378 -0.5108  0.5630  0.6945
  778MOL0     C 2605   2.104  11.349   0.303 -0.0830 -0.0094 -1.1020
  778MOL0     C 2606   2.187  11.288   0.191 -0.1387 -0.4473  0.9083
  778MOL0     C 2607   2.094  11.244   0.077 -0.2273  0.4306  0.5326
  778MOL0    Cl 2608   2.000  11.114   0.133  0.6774  0.1538 -0.6365
  778MOL0     C 2609   2.277  11.003   0.882  0.0833 -0.6989 -0.1532
  778MOL0     C 2610   2.253  10.898   0.978  0.1240  0.8074 -0.0305
  778MOL0     O 2611   2.210  10.935   1.399 -0.1787 -0.2095  0.0548
  778MOL0     C 2612   2.148  10.710   1.545  0.0278  0.5911 -0.0201
  778MOL0     C 2613   2.140  10.592   1.616  0.1660  0.5315 -0.6743
  778MOL0     N 2614   2.381  10.134   2.053  0.7374  0.3081  0.9313
  778MOL0     N 2615   2.470  10.168   2.135  0.8157  0.1937  0.5903
  778MOL0     C 2616   2.525  10.929   3.177  0.4598  0.4042  0.4214
  778MOL0     C 2617   2.510  11.068   3.194 -0.1739 -0.2123 -0.4612
  778MOL0     C 2618   2.362  11.493   3.193 -0.4206  0.0903 -0.2941
  778MOL0     C 2619   2.362  11.579   3.306 -0.1099 -0.1482  0.1068
  778MOL0     C 2620   2.337  11.709   3.301 -0.0060 -0.2608  0.3065
  778MOL0     C 2621   2.303  11.765   3.170  0.4073 -0.3105  0.3135
  778MOL0     O 2622   2.285  11.897   3.146  0.1430 -0.3499 -0.0142
  778MOL0     C 2623   2.266  11.980   3.271  0.3954 -0.0106 -0.2275
  778MOL0     C 2624   2.118  11.958   3.321 -0.1561 -0.3797  0.0993
  778MOL0     C 2625   2.013  12.034   3.238 -0.5870 -0.7215  0.1479
  778MOL0     C 2626   1.989  11.973   3.096 -0.3260  0.2164 -0.0674
  778MOL0     C 2627   1.962  11.823   3.097  0.6179 -0.9654 -0.7642
  778MOL0     C 2628   1.913  11.707   3.098  0.7955 -1.0495 -0.6076
  778MOL0     C 2629   2.298  11.683   3.055 -0.2381 -0.4807 -0.4255
  778MOL0     C 2630   2.335  11.549   3.059 -0.3991  0.1793 -0.1853
  778MOL0     H 2631   2.418  11.150   2.873  1.3535 -0.7741 -1.9346
  778MOL0     H 2632   2.475  10.921   2.836 -0.7641  0.8090  0.4832
  778MOL0     H 2633   2.330  10.709   3.085  0.6539  1.5865 -1.2554
  778MOL0     H 2634   2.456  10.634   3.193 -0.0836  0.5718 -0.0567
  778MOL0     H 2635   2.422  10.467   3.067  1.1859  0.2007  0.4776
  778MOL0     H 2636   2.572  10.522   3.012 -0.6815 -4.5113  0.2763
  778MOL0     H 2637   2.442  10.652   2.813  0.7955  0.5289  0.7968
  778MOL0     H 2638   2.310  10.544   2.861  0.7018 -2.9284  1.9759
  778MOL0     H 2639   2.614  10.474   2.793  0.8475 -1.1349  0.1270
  778MOL0     H 2640   2.483  10.364   2.829 -5.4410  3.2734  2.7846
  778MOL0     H 2641   2.495  10.518   2.569  3.3071 -1.4461 -2.3614
  778MOL0     H 2642   2.351  10.445   2.631  0.0681 -0.7600  1.4768
  778MOL0     H 2643   2.479  10.215   2.668  0.2310  0.2563  1.0306
  778MOL0     H 2644   2.609  10.287   2.576  0.3915  3.0376  3.9431
  778MOL0     H 2645   2.412  10.140   2.450 -0.2250 -0.2094 -0.8292
  778MOL0     H 2646   2.315  10.271   2.479 -0.6815  0.2650 -3.0158
  778MOL0     H 2647   2.588  10.269   2.334 -0.7529 -2.3037  1.3431
  778MOL0     H 2648   2.474  10.411   2.349 -0.2380 -0.9206 -1.5488
  778MOL0     H 2649   2.200  10.293   2.269 -0.7254 -1.7625 -0.0892
  778MOL0     H 2650   2.038  10.158   2.088  0.4530  2.4236  0.1911
  778MOL0     H 2651   2.132  10.031   2.037 -0.1757  1.1971  3.7950
  778MOL0     H 2652   2.014  10.145   1.839 -0.4365  1.3464 -0.9365
  778MOL0     H 2653   2.192  10.140   1.832 -2.0315 -0.1473 -1.9895
  778MOL0     H 2654   2.048  10.357   1.973  1.2909 -3.2509  0.8750
  778MOL0     H 2655   2.188  10.381   1.859  0.4306  0.7193  0.7971
  778MOL0     H 2656   1.973  10.488   1.782 -1.5084 -0.4451  4.7342
  778MOL0     H 2657   1.899  10.331   1.753 -0.3636  0.9884  1.0842
  778MOL0     H 2658   1.999  10.401   1.382  1.2347  0.6719 -2.8796
  778MOL0     H 2659   2.058  10.614   1.244  0.4682  1.7089  0.6010
  778MOL0     H 2660   2.351  11.063   1.256 -1.9140  1.8391  0.1429
  778MOL0     H 2661   2.422  11.231   1.095  1.0083 -2.5710  3.4115
  778MOL0     H 2662   2.371  11.100   0.653  1.3439 -0.0881 -0.5838
  778MOL0     H 2663   2.520  11.152   0.740 -0.3358 -1.1417 -0.3150
  778MOL0     H 2664   2.517  11.258   0.538 -1.3003 -3.9937  0.7734
  778MOL0     H 2665   2.461  11.388   0.653 -4.4880  1.3053  1.5401
  778MOL0     H 2666   2.224  11.305   0.582  0.1538 -0.9463  1.4250
  778MOL0     H 2667   2.311  11.199   0.470  0.5849  0.0803  1.5320
  778MOL0     H 2668   2.365  11.501   0.476  1.6029  1.9465 -4.4053
  778MOL0     H 2669   2.387  11.383   0.344  1.6104  1.5038 -0.1517
  778MOL0     H 2670   2.196  11.533   0.302 -0.7848  1.8748  1.9738
  778MOL0     H 2671   2.119  11.489   0.457 -2.7963  3.7682 -2.3467
  778MOL0     H 2672   2.008  11.389   0.268 -0.4859  2.4368  2.2358
  778MOL0     H 2673   2.095  11.264   0.371  0.1843  1.1760  0.4973
  778MOL0     H 2674   2.242  11.377   0.160  2.7235 -1.1832  3.4137
  778MOL0     H 2675   2.256  11.210   0.227 -1.1261 -0.2128  3.5116
  778MOL0     H 2676   2.152  11.205  -0.007  1.6163  2.0716  0.9614
  778MOL0     H 2677   2.031  11.317   0.024  0.9211 -0.6688 -2.5827
  778MOL0     H 2678   2.248  10.975   0.782 -3.3162  0.1218  0.4846
  778MOL0     H 2679   2.207  10.806   0.942 -1.5365  0.0266  3.6486
  778MOL0     H 2680   2.188  10.797   1.597  1.6301  1.2499 -2.1919
  778MOL0     H 2681   2.183  10.587   1.716  1.8943 -1.9382 -1.4440
  778MOL0     H 2682   2.577  10.868   3.251 -0.1894 -1.2897 -0.4470
  778MOL0     H 2683   2.567  11.118   3.272  0.1551  0.5286 -1.1607
  778MOL0     H 2684   2.397  11.540   3.401 -3.2609  0.7928  1.7824
  778MOL0     H 2685   2.364  11.761   3.392  0.0861  0.8580 -0.3479
  778MOL0     H 2686   2.277  12.088   3.254 -2.9757  0.3473 -0.7004
  778MOL0     H 2687   2.338  11.962   3.351  2.4683 -1.8058 -2.3656
  778MOL0     H 2688   2.092  11.853   3.334  0.1112 -0.5101 -0.4185
  778MOL0     H 2689   2.109  12.007   3.419 -1.1476  1.5355 -0.8924
  778MOL0     H 2690   2.033  12.141   3.230  1.4509 -1.1719 -1.8959
  778MOL0     H 2691   1.913  12.031   3.282 -0.4121  0.8500  0.7029
  778MOL0     H 2692   1.914  12.030   3.041 -0.3901 -0.3761 -0.6094
  778MOL0     H 2693   2.080  11.980   3.035 -0.4872 -3.2818 -0.8773
  778MOL0     H 2694   1.880  11.605   3.088  0.9136 -1.2558  0.8981
  778MOL0     H 2695   2.287  11.720   2.953 -1.4009  3.9211  1.0877
  778MOL0     H 2696   2.342  11.499   2.963  2.5333  1.4206 -0.7130
  779MOL0     O 2697   1.405   3.321   5.751 -0.1080 -0.2880 -0.1001
  779MOL0     C 2698   1.517   3.301   5.793 -0.3154 -0.0153  0.3264
  779MOL0     O 2699   1.544   3.236   5.908 -0.3028  0.1484  0.2975
  779MOL0     C 2700   1.443   3.175   5.971 -0.3359  0.7255 -0.3477
  779MOL0     C 2701   1.399   3.227   6.100  0.5836 -0.1843  0.0885
  779MOL0     C 2702   1.299   3.160   6.177 -0.6048 -0.2171  0.3945
  779MOL0     C 2703   1.237   3.040   6.127  0.1546  1.2706 -1.0680
  779MOL0     O 2704   1.142   2.970   6.195 -0.2103  0.4900  0.6011
  779MOL0     C 2705   1.134   2.959   6.328  0.2907 -0.1192 -0.9140
  779MOL0     C 2706   0.991   2.932   6.372 -0.8901 -0.7581  1.2147
  779MOL0     C 2707   0.976   2.900   6.518  0.3013 -0.6784 -0.1898
  779MOL0     C 2708   0.837   2.840   6.545 -0.8050  0.0380 -0.0016
  779MOL0     C 2709   0.801   2.837   6.695 -1.1492 -0.0426 -0.3468
  779MOL0     C 2710   0.726   2.714   6.737  0.0552 -0.3528 -0.3018
  779MOL0     C 2711   0.738   2.718   6.890 -0.0800 -0.7968  0.6369
  779MOL0     C 2712   0.718   2.575   6.944 -0.0280 -0.7216  0.4151
  779MOL0     N 2713   0.689   2.582   7.087  0.0902 -0.1285 -0.2800
  779MOL0     C 2714   0.571   2.634   7.145  0.6764  0.2641 -0.1144
  779MOL0     C 2715   0.593   2.647   7.275 -0.9542 -0.1425 -0.4447
  779MOL0     C 2716   0.498   2.672   7.391  0.5999 -0.0771  0.0039
  779MOL0     C 2717   0.468   2.554   7.479 -0.4865  0.3230  0.3708
  779MOL0     C 2718   0.402   2.586   7.614  0.8574 -0.2003 -0.0611
  779MOL0     C 2719   0.479   2.663   7.721 -0.5044 -0.1175 -0.9624
  779MOL0     O 2720   0.472   2.804   7.699  0.1278  0.1784 -0.3400
  779MOL0     C 2721   0.539   2.884   7.789  0.3812  0.1225  0.2516
  779MOL0     C 2722   0.564   3.016   7.756  0.9361  0.6702  0.2007
  779MOL0     C 2723   0.653   3.090   7.826  0.3476  0.1668  1.2470
  779MOL0     C 2724   0.719   3.041   7.938  0.8583  0.0915  0.4950
  779MOL0     C 2725   0.818   3.134   8.012  1.0582  0.8436  0.1522
  779MOL0     O 2726   0.836   3.257   7.958  0.2921 -0.1438 -0.9487
  779MOL0     C 2727   0.931   3.333   8.013 -0.1390  0.0621 -0.0436
  779MOL0     C 2728   1.035   3.381   7.936 -0.0180  0.4862 -0.0982
  779MOL0     C 2729   1.139   3.455   8.000 -0.5036 -0.0818 -0.4190
  779MOL0     C 2730   1.116   3.501   8.132 -0.8982 -0.9216  0.8921
  779MOL0     O 2731   1.209   3.586   8.180 -1.0313 -0.3047 -0.0075
  779MOL0     C 2732   1.167   3.710   8.220 -0.0359  1.1039 -0.7052
  779MOL0     C 2733   1.107   3.790   8.109 -0.0376 -0.3730 -0.2021
  779MOL0     C 2734   1.089   3.937   8.146  1.4274  0.9284 -0.3314
  779MOL0     C 2735   1.021   3.957   8.283  0.0219 -0.0624 -0.4177
  779MOL0     C 2736   0.869   3.921   8.307  0.0947  0.7782  0.6453
  779MOL0     C 2737   0.775   3.954   8.191 -0.0052 -0.6667  0.7583
  779MOL0     C 2738   0.622   3.959   8.201  0.4594 -0.1831  0.2064
  779MOL0     C 2739   0.541   3.948   8.065 -0.4486  0.8626  0.2789
  779MOL0    Cl 2740   0.372   3.988   8.089 -0.0856 -0.0920 -0.0897
  779MOL0     C 2741   1.000   3.474   8.200  0.0357  1.0163 -0.6458
  779MOL0     C 2742   0.915   3.382   8.143  0.3458 -0.1456  0.1263
  779MOL0     O 2743   0.872   3.079   8.106 -0.1723  0.1410 -0.3162
  779MOL0     C 2744   0.685   2.914   7.991 -0.1681 -0.0678  0.7195
  779MOL0     C 2745   0.599   2.839   7.912  0.4313 -0.2297  0.2402
  779MOL0     N 2746   0.719   2.595   7.300  0.0814  0.2607 -0.8922
  779MOL0     N 2747   0.777   2.567   7.191 -0.3518 -0.0044  0.9182
  779MOL0     C 2748   1.263   3.008   5.997 -0.5487 -0.6984 -0.3074
  779MOL0     C 2749   1.370   3.059   5.921  0.1314  0.1926  0.2690
  779MOL0     C 2750   1.631   3.354   5.709  0.0020  0.6275  0.5811
  779MOL0     C 2751   1.607   3.449   5.603 -0.1700 -0.7867 -1.3324
  779MOL0     C 2752   1.720   3.509   5.535  0.1559  0.6132 -0.6833
  779MOL0     C 2753   1.848   3.452   5.550  0.0149  0.0767  0.1343
  779MOL0     O 2754   1.951   3.499   5.476 -0.3773  0.0402 -0.5189
  779MOL0     C 2755   1.927   3.582   5.361  0.7353  0.0936 -0.6811
  779MOL0     C 2756   2.063   3.619   5.291  0.0966 -0.4866  0.2500
  779MOL0     C 2757   2.042   3.734   5.188  0.4442 -0.4966 -1.0756
  779MOL0     C 2758   2.167   3.781   5.112 -0.0459  1.2282 -0.2882
  779MOL0     C 2759   2.198   3.683   5.011 -0.1350  0.1581 -0.3343
  779MOL0     C 2760   2.222   3.595   4.934  0.8641 -0.5514 -0.4679
  779MOL0     C 2761   1.863   3.352   5.644 -0.2603 -0.8527 -0.1146
  779MOL0     C 2762   1.761   3.310   5.734  0.6896  0.2862  0.7644
  779MOL0     H 2763   1.453   3.312   6.141  1.0662 -0.0047 -0.9062
  779MOL0     H 2764   1.271   3.198   6.275  0.9239 -0.2517  0.8688
  779MOL0     H 2765   1.171   3.049   6.377  3.1043  0.1680 -3.2837
  779MOL0     H 2766   1.204   2.885   6.367  0.6355  0.5532 -0.2259
  779MOL0     H 2767   0.954   2.851   6.309  0.7584  0.0953 -0.9858
  779MOL0     H 2768   0.932   3.022   6.351  1.3236  1.3377  3.3102
  779MOL0     H 2769   0.999   2.983   6.585  0.1959  0.0252 -1.0060
  779MOL0     H 2770   1.045   2.816   6.533  1.7937  0.1707 -1.8175
  779MOL0     H 2771   0.764   2.896   6.486  2.8352  2.9456 -2.1867
  779MOL0     H 2772   0.833   2.736   6.511 -1.7902  0.4353 -1.1857
  779MOL0     H 2773   0.741   2.923   6.725 -2.2101 -1.3154  1.3179
  779MOL0     H 2774   0.891   2.855   6.755 -1.2122 -1.1631  0.1040
  779MOL0     H 2775   0.758   2.617   6.698  0.7080 -1.2819  2.2673
  779MOL0     H 2776   0.620   2.736   6.722 -0.7722 -2.1541  2.1930
  779MOL0     H 2777   0.833   2.755   6.930  0.1728  0.1989 -0.7787
  779MOL0     H 2778   0.654   2.776   6.930  0.5114  1.2577 -0.9063
  779MOL0     H 2779   0.805   2.509   6.934 -1.4926 -2.7365  0.5057
  779MOL0     H 2780   0.632   2.531   6.893  0.2089 -1.9873  1.0673
  779MOL0     H 2781   0.475   2.655   7.099 -0.2565 -0.5308  1.3748
  779MOL0     H 2782   0.401   2.703   7.352 -0.8642 -3.7492  0.3398
  779MOL0     H 2783   0.549   2.748   7.450  0.1135 -0.1068  0.4646
  779MOL0     H 2784   0.559   2.495   7.497  0.1861  0.1446 -2.9753
  779MOL0     H 2785   0.393   2.490   7.431 -1.5214  1.8374 -0.0914
  779MOL0     H 2786   0.325   2.658   7.585 -1.5704 -2.3805  0.6551
  779MOL0     H 2787   0.347   2.503   7.658 -2.4148  0.7976 -1.9214
  779MOL0     H 2788   0.584   2.635   7.733 -0.3216  1.0023  0.3165
  779MOL0     H 2789   0.423   2.649   7.813 -3.2735  2.3595 -2.0941
  779MOL0     H 2790   0.523   3.056   7.663  1.0817  1.0982  0.3176
  779MOL0     H 2791   0.675   3.188   7.785  3.4399 -0.2529  1.6335
  779MOL0     H 2792   1.058   3.341   7.838  1.6212 -0.1162  0.4987
  779MOL0     H 2793   1.219   3.488   7.935 -0.8345  1.5667 -0.0159
  779MOL0     H 2794   1.257   3.757   8.261 -0.2751  0.2421  0.8756
  779MOL0     H 2795   1.099   3.699   8.305  1.0238 -4.0531 -0.2060
  779MOL0     H 2796   1.006   3.769   8.073  0.1659 -2.0683  0.1701
  779MOL0     H 2797   1.176   3.774   8.026 -1.3491  0.1266 -1.4146
  779MOL0     H 2798   1.028   3.982   8.067 -1.2520 -0.4389  0.8229
  779MOL0     H 2799   1.186   3.988   8.144  0.7044  2.4665  0.9132
  779MOL0     H 2800   1.072   3.897   8.359  0.1820  1.0710  0.3919
  779MOL0     H 2801   1.024   4.061   8.317 -2.2988 -0.4982  1.3378
  779MOL0     H 2802   0.837   3.973   8.398  5.5095  1.3050  2.6145
  779MOL0     H 2803   0.869   3.812   8.314  1.8966  0.6083 -1.2074
  779MOL0     H 2804   0.789   3.888   8.105  1.2693  2.2044 -1.4053
  779MOL0     H 2805   0.812   4.050   8.154 -3.1396 -0.5674 -2.7441
  779MOL0     H 2806   0.580   3.874   8.254  0.8566  0.4822  1.6520
  779MOL0     H 2807   0.592   4.058   8.237  0.1189 -0.4209  0.5844
  779MOL0     H 2808   0.560   3.849   8.021 -1.5756  1.1753 -0.9636
  779MOL0     H 2809   0.578   4.027   7.999  0.2270  1.4464  1.3266
  779MOL0     H 2810   0.981   3.520   8.297 -0.3400  1.5692 -0.9742
  779MOL0     H 2811   0.819   3.362   8.190 -0.5460 -0.7313 -1.8316
  779MOL0     H 2812   0.720   2.879   8.088 -0.7614 -1.0963  0.5802
  779MOL0     H 2813   0.583   2.735   7.939  2.1485 -0.4656  0.4875
  779MOL0     H 2814   1.207   2.922   5.963 -1.7728 -0.7557  1.6785
  779MOL0     H 2815   1.400   3.018   5.825 -3.0279 -1.8710 -0.0092
  779MOL0     H 2816   1.504   3.481   5.595 -0.0124  0.4618  0.9513
  779MOL0     H 2817   1.701   3.595   5.471 -2.4859 -1.4708 -2.9418
  779MOL0     H 2818   1.886   3.674   5.403  1.8100  0.0314  0.5701
  779MOL0     H 2819   1.865   3.537   5.283  0.5758 -0.1266 -0.4289
  779MOL0     H 2820   2.123   3.658   5.374  0.5402  1.2863 -0.8441
  779MOL0     H 2821   2.117   3.537   5.244  0.6743 -2.1105  3.4624
  779MOL0     H 2822   2.006   3.820   5.245  0.8138 -0.4823 -0.8579
  779MOL0     H 2823   1.960   3.712   5.120  0.0261 -0.8865 -0.4608
  779MOL0     H 2824   2.155   3.873   5.055 -2.2017  1.2922  0.1773
  779MOL0     H 2825   2.252   3.800   5.178  0.3014  0.0439 -0.3729
  779MOL0     H 2826   2.228   3.506   4.874  1.7704 -1.8679  1.4861
  779MOL0     H 2827   1.966   3.319   5.657 -0.5727 -1.2538  1.6504
  779MOL0     H 2828   1.775   3.253   5.825  0.4193 -0.7965  0.1390
  780MOL0     O 2829   8.419   0.383   6.660 -0.0607 -0.2383 -0.0727
  780MOL0     C 2830   8.539   0.390   6.627  0.0447  1.2212 -0.3176
  780MOL0     O 2831   8.597   0.492   6.554  1.1558  0.9225 -0.1079
  780MOL0     C 2832   8.517   0.598   6.523  0.1950 -0.4910  0.3441
  780MOL0     C 2833   8.533   0.656   6.398 -0.3171 -0.0722 -0.0001
  780MOL0     C 2834   8.458   0.775   6.368 -0.5654  0.2233  0.2885
  780MOL0     C 2835   8.370   0.836   6.453  0.9896 -0.4310 -0.4287
  780MOL0     O 2836   8.316   0.958   6.430  0.9264 -0.3170  0.8566
  780MOL0     C 2837   8.325   1.032   6.303 -0.4983 -0.2363 -0.5224
  780MOL0     C 2838   8.191   1.083   6.281  0.0664 -0.0878  0.1037
  780MOL0     C 2839   8.173   1.149   6.146  0.3286  0.1770 -0.1302
  780MOL0     C 2840   8.053   1.240   6.143 -0.1479  0.4215  0.2746
  780MOL0     C 2841   8.017   1.303   6.002  0.6706  0.2122 -0.9455
  780MOL0     C 2842   7.881   1.375   6.005  0.5074 -0.3838  0.4499
  780MOL0     C 2843   7.889   1.526   6.057 -0.0770 -0.6204  0.6103
  780MOL0     C 2844   7.818   1.618   5.956 -0.6240 -0.0506  0.4968
  780MOL0     N 2845   7.920   1.700   5.877  0.0932 -0.6933  0.0283
  780MOL0     C 2846   7.947   1.833   5.898  0.7516  0.0610 -0.0895
  780MOL0     C 2847   8.044   1.868   5.809 -0.7213  0.3596 -0.2154
  780MOL0     C 2848   8.118   2.003   5.797 -0.5459 -0.0917 -0.1731
  780MOL0     C 2849   8.254   1.986   5.737 -0.0907  0.9615 -0.2775
  780MOL0     C 2850   8.336   2.108   5.721  0.5132 -0.0592  0.1060
  780MOL0     C 2851   8.461   2.092   5.631 -0.4627 -0.3300 -0.2207
  780MOL0     O 2852   8.537   1.990   5.690  0.0824 -0.0798 -0.0967
  780MOL0     C 2853   8.620   1.916   5.614  0.2952 -0.5279 -0.0024
  780MOL0     C 2854   8.602   1.778   5.613 -0.5864  0.1556 -0.3941
  780MOL0     C 2855   8.679   1.699   5.527  0.5525 -0.3685  0.1522
  780MOL0     C 2856   8.774   1.764   5.440  0.3069 -0.2960 -0.7147
  780MOL0     C 2857   8.868   1.685   5.369 -0.3738  0.4513 -0.4354
  780MOL0     O 2858   8.836   1.550   5.355  0.1570  0.5845  0.3439
  780MOL0     C 2859   8.927   1.461   5.298  0.1964 -0.1350  1.0656
  780MOL0     C 2860   8.880   1.374   5.190  0.4265  0.2519 -0.4737
  780MOL0     C 2861   8.964   1.281   5.133  0.1988  0.1334 -0.5252
  780MOL0     C 2862   9.102   1.275   5.159  0.4767  0.3750  0.8211
  780MOL0     O 2863   9.163   1.190   5.075  0.3322 -0.2185 -0.3157
  780MOL0     C 2864   9.287   1.238   5.026  0.5325 -0.0080  0.6392
  780MOL0     C 2865   9.323   1.140   4.916  0.2746  1.2747 -0.4142
  780MOL0     C 2866   9.246   1.156   4.792  0.2594 -0.1805 -0.1657
  780MOL0     C 2867   9.289   1.064   4.670 -0.4372 -0.4079 -0.0290
  780MOL0     C 2868   9.194   1.105   4.551 -0.6710  0.1974  0.0002
  780MOL0     C 2869   9.159   0.994   4.444 -0.1440  0.3440 -0.4017
  780MOL0     C 2870   9.062   1.058   4.354  0.6567 -0.1327  0.6326
  780MOL0     C 2871   8.957   0.960   4.306 -0.1547  0.0421 -0.2045
  780MOL0    Cl 2872   8.895   1.009   4.146  0.4654 -0.1542 -0.3861
  780MOL0     C 2873   9.145   1.358   5.256 -0.2478 -0.0266 -0.1040
  780MOL0     C 2874   9.064   1.456   5.318 -0.5109 -0.1580  0.5070
  780MOL0     O 2875   8.964   1.742   5.308 -0.2540 -0.4160  0.2636
  780MOL0     C 2876   8.783   1.906   5.444 -0.3687 -0.0164  0.5000
  780MOL0     C 2877   8.709   1.979   5.529  0.4503 -0.4334 -0.1322
  780MOL0     N 2878   8.071   1.750   5.737  0.0423 -0.0764  0.9470
  780MOL0     N 2879   7.989   1.653   5.776 -0.7188  0.3444  0.3261
  780MOL0     C 2880   8.358   0.766   6.580  0.7468  0.5010  0.9108
  780MOL0     C 2881   8.431   0.655   6.615 -0.3638  0.3068 -0.2842
  780MOL0     C 2882   8.624   0.275   6.662 -0.1827 -0.2358  0.6614
  780MOL0     C 2883   8.766   0.279   6.655 -0.5929 -0.9223  0.9747
  780MOL0     C 2884   8.842   0.174   6.702 -0.4879 -0.0224  0.7831
  780MOL0     C 2885   8.789   0.053   6.750  0.1622 -0.2873  0.1332
  780MOL0     O 2886   8.874  -0.034   6.797 -0.3836  0.9433  0.1411
  780MOL0     C 2887   8.822  -0.162   6.827  0.3549 -0.0193 -0.2011
  780MOL0     C 2888   8.939  -0.246   6.798  0.5356 -0.8438 -0.0279
  780MOL0     C 2889   8.922  -0.395   6.807 -0.1089  0.0050 -0.5455
  780MOL0     C 2890   8.843  -0.460   6.695 -0.6690 -0.4102 -0.2395
  780MOL0     C 2891   8.701  -0.445   6.701 -0.9992  0.2911 -1.1359
  780MOL0     C 2892   8.582  -0.421   6.697 -0.0449 -0.7182  0.5107
  780MOL0     C 2893   8.642   0.051   6.754 -0.1455  0.8603 -0.7108
  780MOL0     C 2894   8.569   0.157   6.715 -0.2174 -0.1857  0.4936
  780MOL0     H 2895   8.578   0.604   6.314 -3.5029  1.5551 -2.9399
  780MOL0     H 2896   8.490   0.818   6.273 -2.0948 -1.2548 -0.9672
  780MOL0     H 2897   8.365   0.968   6.224  0.0584  2.0467 -2.1907
  780MOL0     H 2898   8.392   1.119   6.314 -2.8020  1.3369  2.6966
  780MOL0     H 2899   8.167   1.162   6.353 -0.4085  3.3475 -3.4992
  780MOL0     H 2900   8.125   0.995   6.290  2.4240 -1.9484  0.3756
  780MOL0     H 2901   8.167   1.070   6.071  0.7231  0.8167 -0.8563
  780MOL0     H 2902   8.261   1.211   6.125 -0.8428  0.8726 -3.7788
  780MOL0     H 2903   7.968   1.189   6.189 -0.7873  1.3020  0.0957
  780MOL0     H 2904   8.061   1.328   6.209 -0.6219  1.6699 -1.2626
  780MOL0     H 2905   8.001   1.228   5.924 -2.4521 -2.6132  2.0501
  780MOL0     H 2906   8.098   1.371   5.977  1.2553 -0.2408 -0.3261
  780MOL0     H 2907   7.817   1.313   6.069  0.4021 -0.5604  0.1757
  780MOL0     H 2908   7.851   1.367   5.900  1.9475 -1.7347  0.0910
  780MOL0     H 2909   7.845   1.544   6.155  2.7323 -0.0720  1.8568
  780MOL0     H 2910   7.994   1.556   6.062  0.1029 -1.4049  2.3535
  780MOL0     H 2911   7.753   1.690   6.006  2.7381  2.4300  1.6749
  780MOL0     H 2912   7.771   1.563   5.874  1.2271  0.5552 -1.0627
  780MOL0     H 2913   7.907   1.894   5.978 -2.3660 -2.6984  0.7119
  780MOL0     H 2914   8.120   2.055   5.893 -0.0708  0.6077 -0.5537
  780MOL0     H 2915   8.056   2.066   5.733  0.0985  2.3337  1.4653
  780MOL0     H 2916   8.228   1.948   5.637  0.1089 -1.4059  0.5006
  780MOL0     H 2917   8.314   1.912   5.790  0.4446  2.8015  1.7843
  780MOL0     H 2918   8.266   2.177   5.672  2.7581  1.7188 -0.7802
  780MOL0     H 2919   8.378   2.151   5.812 -1.9173 -1.3671  1.9865
  780MOL0     H 2920   8.521   2.183   5.627  1.0621 -1.2996 -0.1379
  780MOL0     H 2921   8.435   2.067   5.527  1.1499  2.9543 -1.5451
  780MOL0     H 2922   8.525   1.740   5.680 -0.5706 -0.2498 -0.6020
  780MOL0     H 2923   8.665   1.591   5.538 -1.2209  0.0165  2.5754
  780MOL0     H 2924   8.775   1.389   5.170  0.7516  1.6158 -1.2939
  780MOL0     H 2925   8.925   1.217   5.054  0.4000 -0.3147 -0.2683
  780MOL0     H 2926   9.366   1.225   5.101 -2.2178  1.7763  4.1283
  780MOL0     H 2927   9.300   1.339   4.987  3.0871 -1.3158 -2.2971
  780MOL0     H 2928   9.313   1.038   4.956  0.3460  0.2862 -2.7663
  780MOL0     H 2929   9.429   1.156   4.896  0.8311 -1.5811 -0.1647
  780MOL0     H 2930   9.248   1.262   4.766 -1.1581 -0.2950 -0.8380
  780MOL0     H 2931   9.147   1.123   4.823 -0.1758  1.6110  0.4743
  780MOL0     H 2932   9.395   1.084   4.650 -0.5680  1.7236  1.1065
  780MOL0     H 2933   9.274   0.957   4.686  3.6781 -1.5316 -2.2405
  780MOL0     H 2934   9.243   1.182   4.492  0.7954  0.4266  1.4347
  780MOL0     H 2935   9.099   1.138   4.593 -0.2300 -0.0057  1.1910
  780MOL0     H 2936   9.116   0.903   4.486 -0.3918 -0.0673 -1.4938
  780MOL0     H 2937   9.251   0.970   4.388  0.9740 -1.0220  1.8971
  780MOL0     H 2938   9.008   1.146   4.390 -0.9844 -0.9278  0.2061
  780MOL0     H 2939   9.119   1.088   4.265 -0.9395  1.6597  0.1410
  780MOL0     H 2940   8.873   0.943   4.375 -1.5641 -2.8951 -2.4102
  780MOL0     H 2941   9.004   0.862   4.295 -1.9902 -0.7233 -1.9547
  780MOL0     H 2942   9.251   1.364   5.282 -0.6888  0.7295  1.6612
  780MOL0     H 2943   9.110   1.514   5.397 -0.0633 -2.8200  2.3594
  780MOL0     H 2944   8.854   1.960   5.381 -1.4403 -0.9722 -1.6415
  780MOL0     H 2945   8.707   2.086   5.511 -1.2040 -0.8475 -2.9374
  780MOL0     H 2946   8.299   0.813   6.657  0.7049  2.6175 -0.3214
  780MOL0     H 2947   8.409   0.601   6.706 -2.0874  1.6387  0.1418
  780MOL0     H 2948   8.810   0.369   6.612 -4.3607 -0.2305 -1.9038
  780MOL0     H 2949   8.950   0.173   6.709 -0.5162 -2.7630  1.8975
  780MOL0     H 2950   8.737  -0.193   6.767  1.2313 -0.7497 -1.1082
  780MOL0     H 2951   8.807  -0.171   6.934 -0.3721  1.0506 -0.1958
  780MOL0     H 2952   8.974  -0.219   6.698  0.7097  0.8311  0.4387
  780MOL0     H 2953   9.016  -0.221   6.872  2.1047 -3.1217 -0.7858
  780MOL0     H 2954   8.890  -0.427   6.907 -1.0581  1.3491 -0.3843
  780MOL0     H 2955   9.023  -0.437   6.802 -0.7949 -2.3379  2.4569
  780MOL0     H 2956   8.874  -0.420   6.599  1.2166 -1.0151  0.0700
  780MOL0     H 2957   8.857  -0.568   6.681  2.4667  0.0823 -1.7286
  780MOL0     H 2958   8.476  -0.418   6.707  0.0934  2.4932  2.3956
  780MOL0     H 2959   8.594  -0.034   6.801  0.2302  1.9265  1.7656
  780MOL0     H 2960   8.465   0.134   6.736 -0.0762 -0.6871  0.6626
  781MOL0     O 2961   6.857   6.001   8.488 -0.2497  0.4554  0.2135
  781MOL0     C 2962   6.922   5.937   8.397  1.5341 -0.8059  0.2520
  781MOL0     O 2963   6.885   5.936   8.270 -0.5327  0.4739  0.0667
  781MOL0     C 2964   6.803   6.023   8.212  0.0327 -0.0132 -0.3715
  781MOL0     C 2965   6.666   6.043   8.256 -0.2259  0.3780 -0.2979
  781MOL0     C 2966   6.571   6.105   8.166 -0.2928 -0.0517  0.0525
  781MOL0     C 2967   6.606   6.148   8.041  0.1773 -0.2382  0.1217
  781MOL0     O 2968   6.525   6.212   7.949 -0.0860 -0.4086 -0.3402
  781MOL0     C 2969   6.386   6.190   7.948  0.3626 -0.0679 -0.4313
  781MOL0     C 2970   6.339   6.168   7.802 -0.0001  0.5798 -0.0203
  781MOL0     C 2971   6.198   6.217   7.763  0.0654  0.6972  0.1169
  781MOL0     C 2972   6.175   6.184   7.609 -0.6168 -0.1148 -0.3673
  781MOL0     C 2973   6.236   6.297   7.518  0.3281 -0.4200 -0.1807
  781MOL0     C 2974   6.248   6.258   7.371 -0.1210 -0.6215 -0.1968
  781MOL0     C 2975   6.108   6.245   7.314 -1.0209 -0.8798 -0.9079
  781MOL0     C 2976   6.080   6.262   7.166  0.3007  0.2060  0.0948
  781MOL0     N 2977   5.945   6.207   7.142 -0.8541 -0.0088  0.0790
  781MOL0     C 2978   5.918   6.076   7.119  0.3819 -0.2317  0.2446
  781MOL0     C 2979   5.789   6.071   7.160  0.9352  0.3864  1.4727
  781MOL0     C 2980   5.732   5.927   7.184  0.1656  0.8820  0.4927
  781MOL0     C 2981   5.599   5.936   7.260  0.3631  0.0375  0.0243
  781MOL0     C 2982   5.571   5.826   7.356 -0.2055  0.7939 -0.0396
  781MOL0     C 2983   5.443   5.865   7.431 -0.3070  0.5494 -0.2591
  781MOL0     O 2984   5.376   5.741   7.471 -0.5756  0.6707 -0.0786
  781MOL0     C 2985   5.411   5.674   7.578  0.6509  0.6340  0.3305
  781MOL0     C 2986   5.345   5.553   7.602  1.5562 -0.4050  0.0292
  781MOL0     C 2987   5.370   5.479   7.723  0.1484 -0.2380  0.1199
  781MOL0     C 2988   5.450   5.535   7.830  1.2495  0.1398  0.2666
  781MOL0     C 2989   5.461   5.471   7.960  0.5157  0.5634 -0.5285
  781MOL0     O 2990   5.382   5.360   7.979  0.0856 -0.2480  0.2306
  781MOL0     C 2991   5.391   5.279   8.091 -0.6792  0.6792  0.7690
  781MOL0     C 2992   5.510   5.250   8.160 -0.3753  0.7104  0.6983
  781MOL0     C 2993   5.513   5.169   8.276 -0.1299  0.0441  1.2220
  781MOL0     C 2994   5.390   5.108   8.306  0.1590 -0.1605 -0.1234
  781MOL0     O 2995   5.387   5.007   8.405  0.8469 -0.1413 -0.4166
  781MOL0     C 2996   5.276   5.008   8.497  0.6825  0.0045  0.0348
  781MOL0     C 2997   5.153   4.931   8.454 -0.5850 -0.0705  0.5337
  781MOL0     C 2998   5.016   5.011   8.464 -0.5312  0.0818 -0.7306
  781MOL0     C 2999   4.895   4.913   8.465  0.3556 -0.0794 -1.3631
  781MOL0     C 3000   4.875   4.850   8.328  0.1974 -0.0357 -0.1846
  781MOL0     C 3001   4.733   4.805   8.301  0.6387  0.3828 -0.9181
  781MOL0     C 3002   4.672   4.703   8.399 -0.3132 -0.7716 -0.0600
  781MOL0     C 3003   4.714   4.564   8.364  0.8422 -0.4372 -0.3974
  781MOL0    Cl 3004   4.668   4.460   8.501  0.0952  0.4998 -0.0608
  781MOL0     C 3005   5.274   5.138   8.235 -0.4504  0.0299  0.4497
  781MOL0     C 3006   5.273   5.226   8.131 -0.6791  0.4512  1.1534
  781MOL0     O 3007   5.546   5.516   8.032  0.6986 -0.5034  0.1129
  781MOL0     C 3008   5.510   5.654   7.797  0.8287  0.5082  0.6593
  781MOL0     C 3009   5.497   5.723   7.680  0.1902 -0.0703 -0.5154
  781MOL0     N 3010   5.736   6.196   7.192  0.7858 -0.0275 -0.1593
  781MOL0     N 3011   5.835   6.275   7.192  0.3763  0.7185 -0.3650
  781MOL0     C 3012   6.738   6.130   7.993  0.6413 -0.4395  0.2842
  781MOL0     C 3013   6.832   6.064   8.080 -0.4677 -0.2495 -0.1171
  781MOL0     C 3014   7.050   5.871   8.433  0.2890  0.6897 -0.3323
  781MOL0     C 3015   7.125   5.815   8.338 -0.0963 -1.4730 -0.3984
  781MOL0     C 3016   7.253   5.765   8.365 -0.3493  0.2385 -0.3452
  781MOL0     C 3017   7.310   5.775   8.503  0.2400  0.8463  0.7939
  781MOL0     O 3018   7.432   5.745   8.542 -0.0380 -0.5136 -0.2974
  781MOL0     C 3019   7.538   5.837   8.503 -0.2254  0.5122  0.1099
  781MOL0     C 3020   7.675   5.766   8.502  0.0006  0.9285  0.5868
  781MOL0     C 3021   7.669   5.655   8.395 -0.2764  0.7155 -0.1338
  781MOL0     C 3022   7.797   5.644   8.311  1.1283 -0.3247 -0.3324
  781MOL0     C 3023   7.914   5.635   8.388 -0.6465 -0.2095 -0.4444
  781MOL0     C 3024   8.015   5.604   8.453 -0.5208  0.2886  0.0548
  781MOL0     C 3025   7.228   5.816   8.606 -0.3525 -1.1110  0.3925
  781MOL0     C 3026   7.098   5.868   8.565  0.1412 -0.5855  0.1839
  781MOL0     H 3027   6.638   5.983   8.342  1.5929  0.1139  0.1448
  781MOL0     H 3028   6.468   6.118   8.197  0.1516 -0.1024  1.6660
  781MOL0     H 3029   6.329   6.275   7.988 -3.2907 -2.6289  0.3756
  781MOL0     H 3030   6.364   6.104   8.012 -0.7471  0.4814 -0.0375
  781MOL0     H 3031   6.344   6.062   7.779  0.2442  0.6907 -0.4905
  781MOL0     H 3032   6.414   6.219   7.739 -1.6539  2.4033 -0.6430
  781MOL0     H 3033   6.179   6.321   7.787  0.4701  0.3331  2.2063
  781MOL0     H 3034   6.130   6.159   7.826 -0.2702  0.0769 -0.7801
  781MOL0     H 3035   6.203   6.084   7.575 -1.5838 -0.9550  1.1714
  781MOL0     H 3036   6.067   6.193   7.591 -0.1709  2.9063 -2.0717
  781MOL0     H 3037   6.334   6.329   7.557 -0.2198  0.6517  0.3805
  781MOL0     H 3038   6.167   6.381   7.530 -2.5195 -2.7649  0.8908
  781MOL0     H 3039   6.295   6.160   7.382  2.3719  0.1598 -2.7021
  781MOL0     H 3040   6.310   6.325   7.311 -0.7659  0.2096  0.0393
  781MOL0     H 3041   6.084   6.140   7.330 -0.5969 -1.2702 -2.6454
  781MOL0     H 3042   6.034   6.300   7.374 -0.0365  1.8565 -2.0126
  781MOL0     H 3043   6.151   6.201   7.110 -0.1963 -1.0816  0.8074
  781MOL0     H 3044   6.084   6.368   7.142 -1.5123  0.1694 -0.4963
  781MOL0     H 3045   5.979   5.987   7.104 -1.9817 -2.1509  1.3736
  781MOL0     H 3046   5.802   5.861   7.236 -2.3856 -0.7310  2.1252
  781MOL0     H 3047   5.727   5.873   7.089  1.6000  3.0444 -0.8805
  781MOL0     H 3048   5.516   5.942   7.190 -0.8420 -0.4909  1.3678
  781MOL0     H 3049   5.594   6.025   7.324  0.5246 -1.1646  1.7937
  781MOL0     H 3050   5.561   5.734   7.297 -2.9681  0.3748  0.9551
  781MOL0     H 3051   5.657   5.823   7.424  0.1783  1.6038 -0.4763
  781MOL0     H 3052   5.379   5.921   7.362 -0.9011  0.5674  0.2977
  781MOL0     H 3053   5.467   5.933   7.513  2.6302 -1.0603  0.3878
  781MOL0     H 3054   5.282   5.518   7.521  2.2117 -2.1009  0.2019
  781MOL0     H 3055   5.323   5.382   7.734  3.5120 -2.0107  0.3612
  781MOL0     H 3056   5.609   5.270   8.121 -0.7516 -0.8701 -1.1828
  781MOL0     H 3057   5.611   5.165   8.322  0.4213  3.3181  0.5496
  781MOL0     H 3058   5.244   5.111   8.516  1.9128  0.6492 -1.1790
  781MOL0     H 3059   5.300   4.959   8.592  0.7618  1.0679  0.5777
  781MOL0     H 3060   5.144   4.860   8.537  2.0442 -0.8539  0.2652
  781MOL0     H 3061   5.156   4.870   8.363 -0.2631 -1.0792  1.1994
  781MOL0     H 3062   5.009   5.095   8.394  0.4554  0.9954  0.2272
  781MOL0     H 3063   5.022   5.056   8.563 -1.4781  1.7241 -1.3877
  781MOL0     H 3064   4.904   4.834   8.540 -0.1755  1.5357  0.4766
  781MOL0     H 3065   4.814   4.978   8.497  0.9089 -0.1074  0.1714
  781MOL0     H 3066   4.937   4.760   8.333  1.0555  0.5715  0.6228
  781MOL0     H 3067   4.908   4.919   8.250 -0.5276  1.9040  1.1531
  781MOL0     H 3068   4.731   4.759   8.202  1.5981 -0.1558 -0.6996
  781MOL0     H 3069   4.674   4.897   8.299 -1.9140 -1.1575 -0.1371
  781MOL0     H 3070   4.721   4.714   8.496  1.3206 -2.4577 -0.6512
  781MOL0     H 3071   4.565   4.721   8.413  0.1345  1.7890  0.5885
  781MOL0     H 3072   4.820   4.543   8.344  1.1872  0.7663  0.1014
  781MOL0     H 3073   4.656   4.518   8.284  0.8522 -4.0492  1.4583
  781MOL0     H 3074   5.179   5.101   8.272  0.1431  0.1325  2.1687
  781MOL0     H 3075   5.180   5.260   8.087 -1.2416  2.5527  3.6897
  781MOL0     H 3076   5.588   5.691   7.862  0.5478  2.7072 -0.1746
  781MOL0     H 3077   5.549   5.817   7.669 -1.4960  0.8866 -0.5860
  781MOL0     H 3078   6.755   6.150   7.887  1.7472 -1.9229  0.1409
  781MOL0     H 3079   6.930   6.034   8.045  0.3799  1.0892  0.9859
  781MOL0     H 3080   7.099   5.809   8.233  0.4870 -0.5648 -0.6060
  781MOL0     H 3081   7.310   5.713   8.288 -0.0456  1.7665 -1.1861
  781MOL0     H 3082   7.527   5.916   8.579 -1.0970 -1.1746  1.8197
  781MOL0     H 3083   7.518   5.874   8.402 -1.0443 -0.0851  0.0441
  781MOL0     H 3084   7.749   5.842   8.477  2.8686 -2.1155 -0.9204
  781MOL0     H 3085   7.703   5.713   8.593  1.5311  1.7131  0.5961
  781MOL0     H 3086   7.582   5.657   8.330 -1.5639 -2.3138  1.2844
  781MOL0     H 3087   7.651   5.561   8.450 -1.8809 -0.2330 -2.1669
  781MOL0     H 3088   7.795   5.562   8.239 -0.6272 -0.0682 -0.6166
  781MOL0     H 3089   7.794   5.733   8.249 -2.5345  0.4890  0.7721
  781MOL0     H 3090   8.088   5.570   8.523 -1.4625 -1.6528  0.1465
  781MOL0     H 3091   7.249   5.818   8.713  1.5452 -0.9385  0.0480
  781MOL0     H 3092   7.043   5.919   8.643  0.1259  2.6108 -1.7159
  782MOL0     O 3093   4.399   6.282  10.825  0.0290  0.2667  0.5844
  782MOL0     C 3094   4.338   6.304  10.931 -0.1582 -0.0089  0.2422
  782MOL0     O 3095   4.388   6.378  11.032  0.3981 -0.7187 -0.2754
  782MOL0     C 3096   4.518   6.414  11.031 -0.0677 -0.1832 -0.2274
  782MOL0     C 3097   4.569   6.506  10.944  0.4156 -0.3634  0.5675
  782MOL0     C 3098   4.709   6.523  10.952  0.2382 -0.4320 -0.0316
  782MOL0     C 3099   4.792   6.459  11.041 -0.8553 -0.4711  0.6170
  782MOL0     O 3100   4.933   6.467  11.038 -0.4489 -0.3173  0.3790
  782MOL0     C 3101   4.989   6.504  10.905  0.8893 -0.0317  0.1794
  782MOL0     C 3102   5.135   6.468  10.893 -0.0065 -0.2684 -1.0344
  782MOL0     C 3103   5.218   6.505  11.014 -1.1626 -0.0933  0.1062
  782MOL0     C 3104   5.366   6.490  10.982 -0.4000 -0.1123 -0.6738
  782MOL0     C 3105   5.458   6.496  11.112 -0.4575 -0.0597  0.0433
  782MOL0     C 3106   5.439   6.380  11.206  1.5775 -1.4311 -0.1634
  782MOL0     C 3107   5.474   6.235  11.165 -0.6848  0.3617 -0.2616
  782MOL0     C 3108   5.623   6.235  11.120  0.1579 -0.3416 -0.0290
  782MOL0     N 3109   5.684   6.108  11.097 -0.1123  0.2556  0.0066
  782MOL0     C 3110   5.617   5.991  11.080  0.0945  0.9494 -1.2718
  782MOL0     C 3111   5.708   5.888  11.100 -0.3454 -0.0081  0.1210
  782MOL0     C 3112   5.680   5.737  11.098  0.5500  0.6060  0.8102
  782MOL0     C 3113   5.582   5.691  11.213  0.3254 -0.2268 -0.1474
  782MOL0     C 3114   5.649   5.712  11.352  0.0113 -0.1519  0.7245
  782MOL0     C 3115   5.568   5.619  11.444  0.1190 -0.0023 -0.4735
  782MOL0     O 3116   5.623   5.619  11.576  0.1618  0.1988 -0.1921
  782MOL0     C 3117   5.728   5.537  11.617 -0.1492  0.3154 -1.2407
  782MOL0     C 3118   5.738   5.405  11.571 -0.0230 -0.8646 -0.0766
  782MOL0     C 3119   5.850   5.326  11.622  0.1542  0.1266 -0.0425
  782MOL0     C 3120   5.931   5.372  11.732  0.2973  0.4319 -0.3015
  782MOL0     C 3121   6.038   5.285  11.793 -0.2567  0.2608 -0.2486
  782MOL0     O 3122   6.100   5.329  11.907 -0.3606  0.0298  0.0041
  782MOL0     C 3123   6.200   5.258  11.952 -1.0808  0.1605 -0.6615
  782MOL0     C 3124   6.331   5.280  11.911 -0.1441  0.0774  0.6155
  782MOL0     C 3125   6.434   5.210  11.968 -0.4366  0.2241  0.4843
  782MOL0     C 3126   6.402   5.112  12.056  1.3434  0.3293  0.5051
  782MOL0     O 3127   6.520   5.068  12.113 -0.8154 -0.6769  0.0337
  782MOL0     C 3128   6.525   5.009  12.241  0.2049  0.2917  0.3985
  782MOL0     C 3129   6.575   5.116  12.336  0.3593  0.6307 -0.1588
  782MOL0     C 3130   6.565   5.079  12.484 -0.1355 -0.9522 -0.2114
  782MOL0     C 3131   6.585   5.209  12.569 -0.1244 -0.3374 -0.4048
  782MOL0     C 3132   6.575   5.167  12.721  0.4742 -0.1621  0.2914
  782MOL0     C 3133   6.617   5.282  12.810 -0.3689  0.0576 -0.4816
  782MOL0     C 3134   6.641   5.228  12.956 -0.3910  0.6811  0.3124
  782MOL0     C 3135   6.779   5.143  12.987 -0.6363 -0.6848  0.4850
  782MOL0    Cl 3136   6.816   4.984  12.923  0.1587 -0.6106  0.4279
  782MOL0     C 3137   6.272   5.075  12.097 -0.2161 -0.2885  0.7850
  782MOL0     C 3138   6.169   5.155  12.041 -0.4913  0.9116  0.1451
  782MOL0     O 3139   6.057   5.176  11.738  0.3140  1.1148  0.2440
  782MOL0     C 3140   5.897   5.501  11.781 -0.3179  0.2588 -0.5933
  782MOL0     C 3141   5.800   5.577  11.725 -0.2273  0.6829 -0.0048
  782MOL0     N 3142   5.828   5.946  11.130 -0.0413 -0.2325  0.2396
  782MOL0     N 3143   5.820   6.074  11.113  0.4445  0.6314 -1.0594
  782MOL0     C 3144   4.738   6.369  11.135 -0.1303  0.0237 -0.8347
  782MOL0     C 3145   4.602   6.349  11.122 -0.5089 -0.5364 -1.3918
  782MOL0     C 3146   4.212   6.241  10.956  0.0441 -0.1043  0.0287
  782MOL0     C 3147   4.123   6.213  10.850  0.5317 -0.5428  0.3062
  782MOL0     C 3148   4.002   6.158  10.874 -0.6076 -0.7080 -0.4318
  782MOL0     C 3149   3.956   6.125  11.003 -0.1549 -0.1583  0.8938
  782MOL0     O 3150   3.837   6.070  11.029  0.5087  1.2761 -0.1540
  782MOL0     C 3151   3.725   6.087  10.940  0.0606  0.3121 -0.3229
  782MOL0     C 3152   3.596   6.031  10.987 -0.5854 -0.3358 -0.5981
  782MOL0     C 3153   3.486   6.026  10.881  0.2399 -0.3656 -0.5078
  782MOL0     C 3154   3.459   6.155  10.802 -0.2210  0.8537 -0.2480
  782MOL0     C 3155   3.442   6.258  10.901  0.5764 -1.0204  0.1095
  782MOL0     C 3156   3.412   6.339  10.984 -0.9415 -1.0467  0.4099
  782MOL0     C 3157   4.050   6.145  11.111  0.6350 -0.2608  0.1877
  782MOL0     C 3158   4.172   6.210  11.086 -0.9297 -0.4629  0.8815
  782MOL0     H 3159   4.515   6.551  10.862 -1.8898 -1.9132  1.1328
  782MOL0     H 3160   4.767   6.595  10.895 -1.8672  1.8019  0.5049
  782MOL0     H 3161   4.980   6.613  10.893 -2.4802 -0.4858 -3.0505
  782MOL0     H 3162   4.935   6.461  10.820 -1.1214 -1.4463  2.0551
  782MOL0     H 3163   5.173   6.540  10.821  2.7687  0.2654  0.8083
  782MOL0     H 3164   5.155   6.368  10.853  2.0166  0.3966 -1.8307
  782MOL0     H 3165   5.201   6.427  11.088  0.7445 -1.1583 -0.4997
  782MOL0     H 3166   5.188   6.607  11.038 -2.8231 -0.4427 -0.4133
  782MOL0     H 3167   5.373   6.393  10.931 -3.1463 -0.7906  0.0761
  782MOL0     H 3168   5.377   6.568  10.906 -3.3422  3.1938  1.9444
  782MOL0     H 3169   5.428   6.584  11.170 -1.6335 -0.4738  0.0884
  782MOL0     H 3170   5.566   6.504  11.094 -0.2807 -2.3901 -0.1766
  782MOL0     H 3171   5.337   6.379  11.247  0.4241 -0.6949 -2.8050
  782MOL0     H 3172   5.492   6.415  11.295  1.6672 -0.9843 -0.3900
  782MOL0     H 3173   5.476   6.171  11.253  2.9213  0.1454 -0.3618
  782MOL0     H 3174   5.409   6.191  11.088 -0.9988  0.2570  0.0633
  782MOL0     H 3175   5.683   6.292  11.192  0.5225 -0.2598 -0.3954
  782MOL0     H 3176   5.633   6.297  11.030  2.5197 -2.2055 -1.1486
  782MOL0     H 3177   5.514   5.968  11.058  0.5699 -2.7770 -0.4066
  782MOL0     H 3178   5.775   5.685  11.114  1.7868  2.9006  1.2655
  782MOL0     H 3179   5.650   5.710  10.996  1.3128 -0.0643  0.7534
  782MOL0     H 3180   5.568   5.583  11.198 -2.4458  0.3342 -2.5266
  782MOL0     H 3181   5.484   5.738  11.209 -0.7377 -1.2309  5.6407
  782MOL0     H 3182   5.749   5.675  11.332 -0.8073 -0.1169 -5.1312
  782MOL0     H 3183   5.643   5.817  11.383 -1.7194  0.4988 -1.5374
  782MOL0     H 3184   5.540   5.522  11.401 -1.0953 -0.6348  1.5957
  782MOL0     H 3185   5.468   5.664  11.449 -0.1761 -0.1721 -3.3775
  782MOL0     H 3186   5.673   5.362  11.497 -0.0042  0.0886 -0.6576
  782MOL0     H 3187   5.866   5.234  11.568  0.3693  1.8233 -3.0777
  782MOL0     H 3188   6.363   5.356  11.840  0.0234 -0.3366  0.2399
  782MOL0     H 3189   6.538   5.225  11.941 -0.6853  0.9682 -0.0954
  782MOL0     H 3190   6.593   4.924  12.227 -0.7588 -0.3655 -0.4444
  782MOL0     H 3191   6.432   4.959  12.273  0.9184 -1.0267  0.4867
  782MOL0     H 3192   6.520   5.205  12.305 -0.6811 -0.0855 -0.4319
  782MOL0     H 3193   6.679   5.133  12.306  0.2786  4.9512  1.3459
  782MOL0     H 3194   6.646   5.008  12.505  1.9450  0.4216 -2.9086
  782MOL0     H 3195   6.467   5.051  12.523 -0.5854  1.1045  0.2478
  782MOL0     H 3196   6.687   5.246  12.557  1.1046 -2.2384  2.7206
  782MOL0     H 3197   6.513   5.284  12.535  0.5263 -0.2888 -1.6927
  782MOL0     H 3198   6.645   5.085  12.743  1.6220  0.5322 -0.6455
  782MOL0     H 3199   6.471   5.142  12.740  0.6975 -0.8504  0.6527
  782MOL0     H 3200   6.547   5.364  12.794  2.6590  2.4862 -2.4630
  782MOL0     H 3201   6.715   5.322  12.782 -0.7585  2.8033  1.5912
  782MOL0     H 3202   6.640   5.319  13.017 -0.4658 -0.5592  2.2751
  782MOL0     H 3203   6.550   5.169  12.972  0.7188 -1.6111 -1.2651
  782MOL0     H 3204   6.790   5.135  13.095  3.2753 -0.9374  0.2131
  782MOL0     H 3205   6.865   5.207  12.964 -0.6695 -1.3777 -1.9117
  782MOL0     H 3206   6.248   4.995  12.167  1.3380 -0.9205  0.6276
  782MOL0     H 3207   6.067   5.132  12.068 -0.3437  1.4859  1.2535
  782MOL0     H 3208   5.946   5.543  11.868  0.8873  2.2864 -2.1658
  782MOL0     H 3209   5.778   5.666  11.783  1.4444  1.3275 -0.3089
  782MOL0     H 3210   4.800   6.316  11.206 -0.8747  1.1151  0.6776
  782MOL0     H 3211   4.549   6.278  11.185 -2.5433  3.0348  1.3213
  782MOL0     H 3212   4.154   6.248  10.752  0.0166  1.9987  0.9893
  782MOL0     H 3213   3.941   6.140  10.785  0.0908  0.5415 -1.1971
  782MOL0     H 3214   3.751   6.041  10.843  0.2607 -4.0232  1.5261
  782MOL0     H 3215   3.713   6.195  10.942 -0.7769  0.2433 -1.1513
  782MOL0     H 3216   3.608   5.933  11.036 -1.7806 -0.2266 -0.0455
  782MOL0     H 3217   3.565   6.093  11.072  3.1643  1.3380 -0.2642
  782MOL0     H 3218   3.396   5.983  10.924 -0.5566  2.5193  0.9813
  782MOL0     H 3219   3.524   5.947  10.815 -0.9712 -0.6670 -0.8574
  782MOL0     H 3220   3.552   6.169  10.745  0.1347 -2.8349 -0.7790
  782MOL0     H 3221   3.373   6.152  10.736  0.6813 -0.6526 -1.4183
  782MOL0     H 3222   3.390   6.424  11.045  1.3384 -1.3010  1.6918
  782MOL0     H 3223   4.025   6.115  11.212 -0.4420 -2.1123 -0.5875
  782MOL0     H 3224   4.225   6.238  11.176 -2.0791  0.6460  1.2427
  783MOL0     O 3225   4.655   5.567   5.369  0.3113 -0.2503  0.4174
  783MOL0     C 3226   4.733   5.630   5.436  0.1878  0.3244 -0.0260
  783MOL0     O 3227   4.855   5.678   5.399 -0.6621 -0.0064 -0.6560
  783MOL0     C 3228   4.900   5.670   5.267  0.0466 -0.6992 -0.6461
  783MOL0     C 3229   5.038   5.661   5.248  0.6033  0.9876 -0.0494
  783MOL0     C 3230   5.103   5.651   5.120 -0.2738 -0.2642 -0.1203
  783MOL0     C 3231   5.018   5.637   5.008  1.8227  0.3201  0.8960
  783MOL0     O 3232   5.066   5.599   4.883  0.6231 -0.1027 -0.1673
  783MOL0     C 3233   5.202   5.569   4.882 -0.2632  0.0214  0.0541
  783MOL0     C 3234   5.247   5.509   4.747 -0.8529  0.5339  0.0287
  783MOL0     C 3235   5.217   5.595   4.623 -0.2606  0.3006 -0.0764
  783MOL0     C 3236   5.284   5.518   4.506  0.4922 -1.2715 -0.2095
  783MOL0     C 3237   5.269   5.589   4.373  0.1787  0.1681  0.8710
  783MOL0     C 3238   5.120   5.603   4.333 -0.0694 -0.0160  0.1070
  783MOL0     C 3239   5.101   5.628   4.177  0.2186  0.0645 -0.3793
  783MOL0     C 3240   4.953   5.609   4.133  0.3799  0.1921 -0.3707
  783MOL0     N 3241   4.903   5.752   4.122  0.0683 -0.6180  0.1949
  783MOL0     C 3242   4.831   5.817   4.223 -0.5727 -0.1891 -0.1672
  783MOL0     C 3243   4.830   5.951   4.190  0.0090 -0.1255  0.4632
  783MOL0     C 3244   4.770   6.075   4.271 -0.7831  0.3590  0.4509
  783MOL0     C 3245   4.635   6.119   4.210  0.3657  0.2890  0.2824
  783MOL0     C 3246   4.606   6.269   4.245  1.6392 -1.4879  0.2630
  783MOL0     C 3247   4.560   6.293   4.391 -0.0689 -0.6636  0.7629
  783MOL0     O 3248   4.563   6.435   4.414 -0.0942 -0.1197 -0.5526
  783MOL0     C 3249   4.464   6.501   4.344  0.2634  0.4056  0.4344
  783MOL0     C 3250   4.505   6.619   4.275 -0.0905 -0.4269 -0.9620
  783MOL0     C 3251   4.418   6.686   4.198  0.2885 -0.5897 -0.1059
  783MOL0     C 3252   4.281   6.642   4.186 -0.0422 -0.8114  0.6379
  783MOL0     C 3253   4.189   6.723   4.099  0.5199  0.5715  0.2148
  783MOL0     O 3254   4.237   6.835   4.043 -0.2387  0.4089  0.2429
  783MOL0     C 3255   4.164   6.943   4.019  0.3253 -0.0829 -0.2372
  783MOL0     C 3256   4.106   6.958   3.890  0.7557 -0.2217 -0.8244
  783MOL0     C 3257   4.022   7.064   3.865 -0.8678 -0.4460 -1.1483
  783MOL0     C 3258   4.005   7.169   3.960 -0.3111 -0.1261  0.2436
  783MOL0     O 3259   3.923   7.278   3.948  0.3040 -0.2198  0.1995
  783MOL0     C 3260   3.900   7.341   3.817 -0.0651 -0.4137 -0.6637
  783MOL0     C 3261   3.821   7.469   3.841 -1.1210  0.3280 -0.6538
  783MOL0     C 3262   3.780   7.509   3.702 -0.2583 -0.1479  0.1460
  783MOL0     C 3263   3.698   7.636   3.718 -0.0355  0.1153  0.4824
  783MOL0     C 3264   3.647   7.691   3.588  0.6073  0.6753  0.6019
  783MOL0     C 3265   3.531   7.612   3.527 -0.6208  0.1735 -0.1584
  783MOL0     C 3266   3.478   7.648   3.384 -0.2162  0.1447 -0.4622
  783MOL0     C 3267   3.361   7.561   3.344  0.2814  0.7662  0.0716
  783MOL0    Cl 3268   3.233   7.649   3.258 -0.3794 -0.3001  0.5934
  783MOL0     C 3269   4.061   7.152   4.086 -0.7186 -0.9250  0.1573
  783MOL0     C 3270   4.137   7.040   4.117 -0.7058 -0.3733  0.3618
  783MOL0     O 3271   4.068   6.704   4.121  0.4554  0.2590  0.1908
  783MOL0     C 3272   4.232   6.534   4.252  0.3623  0.0469  0.5128
  783MOL0     C 3273   4.327   6.465   4.329 -0.1993 -0.5369 -0.1008
  783MOL0     N 3274   4.904   5.963   4.077  0.0203 -0.1202 -0.8257
  783MOL0     N 3275   4.946   5.846   4.035 -0.0947 -0.5355 -0.3980
  783MOL0     C 3276   4.876   5.650   5.023  0.9526 -0.0937 -0.3398
  783MOL0     C 3277   4.821   5.672   5.153 -0.4249 -0.4427 -0.6140
  783MOL0     C 3278   4.692   5.652   5.580 -0.1220 -0.9304  0.8134
  783MOL0     C 3279   4.764   5.743   5.667 -0.2145  0.7314  1.3295
  783MOL0     C 3280   4.714   5.753   5.794 -0.8355  0.4165 -0.0737
  783MOL0     C 3281   4.608   5.680   5.843 -0.0321  0.3770  0.6253
  783MOL0     O 3282   4.577   5.701   5.979 -0.1698 -0.3654  0.1570
  783MOL0     C 3283   4.495   5.624   6.063  0.2245 -0.5012 -0.0183
  783MOL0     C 3284   4.494   5.670   6.209  0.9875  0.7857 -0.2060
  783MOL0     C 3285   4.458   5.550   6.298  0.5697  0.0887  0.5344
  783MOL0     C 3286   4.479   5.592   6.443 -0.8114  1.0217  0.2106
  783MOL0     C 3287   4.436   5.474   6.527 -0.7152 -0.2366 -0.3879
  783MOL0     C 3288   4.395   5.390   6.591  0.0976  1.4244 -0.5600
  783MOL0     C 3289   4.545   5.587   5.760  0.3218  0.6296  0.3387
  783MOL0     C 3290   4.586   5.571   5.626 -0.3240  0.6496 -0.5256
  783MOL0     H 3291   5.105   5.665   5.333  0.3426  2.4984  0.1027
  783MOL0     H 3292   5.211   5.638   5.117 -0.2378  0.1477 -2.0798
  783MOL0     H 3293   5.219   5.491   4.957  1.7406  0.6610  0.3076
  783MOL0     H 3294   5.264   5.658   4.893  1.7791 -1.4069  0.4958
  783MOL0     H 3295   5.207   5.409   4.731  1.5958 -0.1486 -2.4491
  783MOL0     H 3296   5.355   5.495   4.748 -1.2127 -3.7712  3.3044
  783MOL0     H 3297   5.266   5.693   4.632  1.8091 -0.7877  1.1737
  783MOL0     H 3298   5.109   5.604   4.608 -0.5076 -1.1145  0.7157
  783MOL0     H 3299   5.391   5.498   4.519  0.5277 -0.1569  1.5407
  783MOL0     H 3300   5.239   5.419   4.497 -1.0602 -0.4592 -2.1549
  783MOL0     H 3301   5.328   5.534   4.299 -0.8380  1.3422 -0.8569
  783MOL0     H 3302   5.315   5.687   4.360 -1.7763  1.0886  0.6418
  783MOL0     H 3303   5.084   5.692   4.386  0.4467  0.9122 -1.0571
  783MOL0     H 3304   5.063   5.512   4.351 -1.1901  0.4603 -0.9416
  783MOL0     H 3305   5.136   5.725   4.140 -0.7323  0.9166  0.8738
  783MOL0     H 3306   5.167   5.553   4.134  1.0949  1.3242 -1.3083
  783MOL0     H 3307   4.893   5.559   4.210 -1.1625  1.6252 -0.5791
  783MOL0     H 3308   4.950   5.567   4.032  2.8122  0.9849 -0.8298
  783MOL0     H 3309   4.782   5.769   4.308 -0.9435 -0.5902 -0.5970
  783MOL0     H 3310   4.844   6.152   4.246  2.5799 -1.0049  4.8548
  783MOL0     H 3311   4.763   6.063   4.379 -2.4427 -0.1982  0.3016
  783MOL0     H 3312   4.558   6.051   4.247  0.7672  0.0976  0.7822
  783MOL0     H 3313   4.640   6.105   4.102  2.8435 -2.2989  0.6077
  783MOL0     H 3314   4.698   6.327   4.232 -0.6695  2.2450 -1.0870
  783MOL0     H 3315   4.539   6.316   4.172  1.1557  0.5192  1.9006
  783MOL0     H 3316   4.636   6.257   4.460  0.1254  0.2739  1.0508
  783MOL0     H 3317   4.463   6.245   4.409 -0.9672  0.4821 -0.7463
  783MOL0     H 3318   4.602   6.655   4.306 -1.0768  1.2451  0.3765
  783MOL0     H 3319   4.478   6.758   4.144  0.0383  0.9272  1.5415
  783MOL0     H 3320   4.147   6.888   3.818 -0.0408 -1.7263  0.1535
  783MOL0     H 3321   3.988   7.072   3.762  0.3966 -2.9200 -1.8194
  783MOL0     H 3322   3.850   7.264   3.757  0.6688 -1.9942  0.6478
  783MOL0     H 3323   3.999   7.368   3.779  0.8420  0.5941  2.2022
  783MOL0     H 3324   3.886   7.534   3.900  1.6290 -4.2510  1.9571
  783MOL0     H 3325   3.726   7.443   3.890 -1.1006  2.7525  0.8081
  783MOL0     H 3326   3.728   7.427   3.651  0.9482 -1.8023  1.4548
  783MOL0     H 3327   3.867   7.525   3.637 -1.5350 -0.1328 -1.6286
  783MOL0     H 3328   3.622   7.636   3.797  1.3692 -0.5895  1.8926
  783MOL0     H 3329   3.776   7.711   3.738  0.6249  0.6830 -3.4982
  783MOL0     H 3330   3.733   7.688   3.521  0.7753  1.4424  0.7627
  783MOL0     H 3331   3.627   7.798   3.598  1.8530  1.5400 -3.8224
  783MOL0     H 3332   3.442   7.620   3.590  0.8352  1.8436  1.8092
  783MOL0     H 3333   3.567   7.510   3.512 -1.4451 -0.3727  1.3199
  783MOL0     H 3334   3.452   7.753   3.374 -0.1779  0.2045  0.0239
  783MOL0     H 3335   3.554   7.637   3.307  1.5569  1.8535  0.9566
  783MOL0     H 3336   3.316   7.524   3.436 -0.4599 -0.6774 -0.8309
  783MOL0     H 3337   3.395   7.491   3.267  1.9685  1.1125  0.4701
  783MOL0     H 3338   4.039   7.225   4.163  0.4530 -2.0425  1.6107
  783MOL0     H 3339   4.188   7.027   4.212  0.0239  1.4648  0.2640
  783MOL0     H 3340   4.136   6.483   4.256  0.6127 -0.5104  4.9101
  783MOL0     H 3341   4.275   6.398   4.396 -3.0608  1.0781 -0.5140
  783MOL0     H 3342   4.811   5.647   4.937 -0.8862 -0.0290  0.9755
  783MOL0     H 3343   4.716   5.698   5.164 -0.4834  0.1853 -2.4165
  783MOL0     H 3344   4.848   5.806   5.639  1.6177 -1.5767  1.3185
  783MOL0     H 3345   4.762   5.824   5.861  2.8152 -0.8575 -1.0808
  783MOL0     H 3346   4.530   5.521   6.054  0.9683 -0.2308 -0.2982
  783MOL0     H 3347   4.389   5.629   6.035  0.3527  1.4444 -0.2932
  783MOL0     H 3348   4.596   5.704   6.229  0.5296  1.0416  2.0217
  783MOL0     H 3349   4.429   5.756   6.221 -2.0143 -0.9379 -2.5866
  783MOL0     H 3350   4.533   5.473   6.281  0.1567 -0.2405  0.1490
  783MOL0     H 3351   4.352   5.528   6.283  0.1444  0.7590  2.3113
  783MOL0     H 3352   4.582   5.604   6.478 -0.8428 -3.9313  2.8963
  783MOL0     H 3353   4.418   5.680   6.464 -1.9288  0.1163  0.8981
  783MOL0     H 3354   4.340   5.318   6.649 -1.2687  1.9820 -1.1237
  783MOL0     H 3355   4.484   5.506   5.799  2.1587 -1.0170 -0.0668
  783MOL0     H 3356   4.532   5.502   5.561  3.7570 -0.2504 -3.3403
  784MOL0     O 3357   1.919   8.710  11.200 -0.1395  0.6950  1.1280
  784MOL0     C 3358   1.997   8.808  11.188 -0.2778 -0.7075 -0.1149
  784MOL0     O 3359   1.959   8.945  11.164 -0.3298 -1.0574  0.4353
  784MOL0     C 3360   1.827   8.982  11.180 -0.5538 -0.6065  1.6769
  784MOL0     C 3361   1.795   9.101  11.115 -0.0703 -0.8406 -0.1364
  784MOL0     C 3362   1.665   9.152  11.111 -0.6127  0.8594 -0.3562
  784MOL0     C 3363   1.563   9.089  11.181 -0.3064 -0.9459 -0.0716
  784MOL0     O 3364   1.434   9.145  11.197  0.2176  0.2461 -0.2981
  784MOL0     C 3365   1.376   9.223  11.093 -0.2611  0.8713  0.0274
  784MOL0     C 3366   1.237   9.238  11.124  0.2676  0.1148  0.0889
  784MOL0     C 3367   1.150   9.282  11.008 -0.2480 -0.5009  0.3112
  784MOL0     C 3368   1.101   9.159  10.922  0.8923 -0.1249 -0.0424
  784MOL0     C 3369   1.008   9.205  10.805 -0.0718 -1.3370  0.0300
  784MOL0     C 3370   0.921   9.095  10.761 -0.1947  0.3255 -0.6810
  784MOL0     C 3371   0.845   9.136  10.632 -0.3442  0.1708 -0.7039
  784MOL0     C 3372   0.722   9.045  10.601  0.1367  0.4798  0.8281
  784MOL0     N 3373   0.634   9.098  10.489 -0.8163  0.7832 -0.2722
  784MOL0     C 3374   0.681   9.196  10.409  0.5392 -0.1324  0.9221
  784MOL0     C 3375   0.568   9.220  10.335  0.0054 -1.5386  0.6810
  784MOL0     C 3376   0.564   9.329  10.233  0.2038  0.2917 -0.2426
  784MOL0     C 3377   0.442   9.424  10.260  0.3201  0.7083  0.2032
  784MOL0     C 3378   0.418   9.471  10.399  0.3802  0.3218  0.0959
  784MOL0     C 3379   0.298   9.577  10.392 -0.2975  0.8138  0.1176
  784MOL0     O 3380   0.327   9.691  10.324 -0.1123 -0.0718 -0.0678
  784MOL0     C 3381   0.400   9.783  10.399  0.6779 -0.3593  0.3719
  784MOL0     C 3382   0.329   9.883  10.468  0.3426 -0.3432 -0.6668
  784MOL0     C 3383   0.398   9.992  10.537 -0.7965  0.6018 -0.3398
  784MOL0     C 3384   0.536   9.999  10.529  0.0087  1.2517 -0.0667
  784MOL0     C 3385   0.620  10.102  10.591  0.0257  0.5542 -0.7297
  784MOL0     O 3386   0.758  10.091  10.598  0.3146  0.2190  1.0899
  784MOL0     C 3387   0.834  10.165  10.689  0.4741 -0.1868 -1.7306
  784MOL0     C 3388   0.877  10.289  10.654 -0.5205 -0.0620 -0.1140
  784MOL0     C 3389   0.971  10.360  10.731 -0.1535  0.7045  0.7809
  784MOL0     C 3390   1.019  10.298  10.845  0.7273  0.3932 -0.7941
  784MOL0     O 3391   1.116  10.361  10.916 -0.5538  0.1889  0.5134
  784MOL0     C 3392   1.243  10.348  10.842  0.1656 -0.0885 -0.5016
  784MOL0     C 3393   1.297  10.482  10.878 -0.1346  1.1278  0.0092
  784MOL0     C 3394   1.438  10.494  10.838 -0.6599 -1.2844 -0.4211
  784MOL0     C 3395   1.458  10.490  10.684  0.5972 -0.1096  0.9411
  784MOL0     C 3396   1.602  10.518  10.631  0.1347  0.3326  0.1492
  784MOL0     C 3397   1.608  10.527  10.472  0.3515  0.6213 -0.3581
  784MOL0     C 3398   1.501  10.628  10.402 -0.6568  0.5439  1.1824
  784MOL0     C 3399   1.539  10.771  10.435 -0.5899  1.0531  0.9729
  784MOL0    Cl 3400   1.512  10.875  10.290 -0.0241 -0.0985  0.3746
  784MOL0     C 3401   0.966  10.178  10.889  0.4942  0.3232 -0.6801
  784MOL0     C 3402   0.880  10.108  10.808  0.5198  0.8493 -0.2605
  784MOL0     O 3403   0.563  10.191  10.648  0.7648  0.5006  0.1893
  784MOL0     C 3404   0.601   9.883  10.471 -0.7139  0.0555  0.3206
  784MOL0     C 3405   0.537   9.786  10.397 -1.0210  0.1908  0.0251
  784MOL0     N 3406   0.468   9.130  10.361 -0.2578  0.3942  0.0304
  784MOL0     N 3407   0.511   9.049  10.452 -1.1613 -1.0889 -0.5843
  784MOL0     C 3408   1.594   8.980  11.257  0.9531 -0.2683 -0.3987
  784MOL0     C 3409   1.723   8.927  11.257 -0.1278  0.9676  0.1999
  784MOL0     C 3410   2.141   8.782  11.191  1.0411  0.0896 -1.0622
  784MOL0     C 3411   2.191   8.652  11.219  0.2714 -0.1852  0.4496
  784MOL0     C 3412   2.333   8.632  11.215  0.3174  0.6452  0.9923
  784MOL0     C 3413   2.423   8.733  11.195 -0.4522  0.5886 -0.6887
  784MOL0     O 3414   2.558   8.702  11.190 -0.1670  0.3841  1.1122
  784MOL0     C 3415   2.596   8.716  11.048 -0.3799  0.1771  0.0509
  784MOL0     C 3416   2.711   8.610  11.033  0.3932 -0.4422 -1.0270
  784MOL0     C 3417   2.655   8.467  11.046 -0.8333 -0.7298  0.3653
  784MOL0     C 3418   2.772   8.361  11.031  0.2758  0.4195 -0.2168
  784MOL0     C 3419   2.725   8.230  11.096  0.3565 -0.4209  1.0801
  784MOL0     C 3420   2.673   8.139  11.151  0.3801  0.1406  0.2376
  784MOL0     C 3421   2.379   8.862  11.183 -0.4657 -0.8371  0.1140
  784MOL0     C 3422   2.237   8.887  11.176  0.0058 -0.7370 -0.4435
  784MOL0     H 3423   1.879   9.150  11.068  1.0813 -1.3829  1.2658
  784MOL0     H 3424   1.649   9.242  11.053  0.0911 -0.4953 -2.7944
  784MOL0     H 3425   1.375   9.177  10.994  2.2849 -2.1134  1.2064
  784MOL0     H 3426   1.420   9.323  11.084  1.2574  0.4934  2.3781
  784MOL0     H 3427   1.235   9.306  11.209  1.5634 -0.3148  0.4826
  784MOL0     H 3428   1.206   9.141  11.166  0.7234  0.6534  1.7527
  784MOL0     H 3429   1.208   9.357  10.953 -0.8740  0.0421  0.3843
  784MOL0     H 3430   1.068   9.332  11.060 -0.1338 -3.0168  3.2255
  784MOL0     H 3431   1.191   9.107  10.888  0.6465 -0.0624 -0.8026
  784MOL0     H 3432   1.051   9.091  10.991 -1.4880  0.9078 -0.6450
  784MOL0     H 3433   1.064   9.246  10.720 -1.4237 -1.3660 -0.9178
  784MOL0     H 3434   0.940   9.286  10.833 -0.5844 -0.3951 -3.4626
  784MOL0     H 3435   0.853   9.070  10.842  1.3440 -2.9735 -0.2698
  784MOL0     H 3436   0.973   8.999  10.751 -1.8261 -0.6199 -0.3274
  784MOL0     H 3437   0.815   9.242  10.632 -2.1807 -0.2800 -3.0690
  784MOL0     H 3438   0.917   9.135  10.550 -0.5424 -0.4973 -0.8681
  784MOL0     H 3439   0.662   9.036  10.692 -1.9444 -3.8954 -0.6905
  784MOL0     H 3440   0.757   8.946  10.571  4.2620  1.8016  0.5808
  784MOL0     H 3441   0.777   9.245  10.413  2.2314 -2.9350 -1.4186
  784MOL0     H 3442   0.540   9.277  10.141 -1.1061 -0.1371  0.3179
  784MOL0     H 3443   0.654   9.391  10.226  1.0449 -0.9354 -0.4481
  784MOL0     H 3444   0.343   9.381  10.240 -1.3425  1.6092  5.1373
  784MOL0     H 3445   0.455   9.507  10.189  3.3319  0.0075 -0.1902
  784MOL0     H 3446   0.386   9.388  10.462  0.3106 -1.3020 -1.9450
  784MOL0     H 3447   0.509   9.513  10.441 -0.4806  3.7074 -1.0705
  784MOL0     H 3448   0.258   9.589  10.493 -1.5117 -3.2980  0.3062
  784MOL0     H 3449   0.218   9.523  10.342 -0.9844  2.2199 -0.3589
  784MOL0     H 3450   0.221   9.888  10.479  0.1003  3.1008 -2.9247
  784MOL0     H 3451   0.339  10.064  10.592 -0.3884 -0.6557  1.8300
  784MOL0     H 3452   0.836  10.325  10.560  0.4338 -0.3244 -0.6503
  784MOL0     H 3453   1.000  10.462  10.708  0.5881  0.3723  0.1735
  784MOL0     H 3454   1.236  10.343  10.733  2.0565 -2.0196 -0.6059
  784MOL0     H 3455   1.299  10.256  10.861 -0.3348 -0.9502 -2.8202
  784MOL0     H 3456   1.302  10.489  10.987  3.1464 -0.1539  0.0528
  784MOL0     H 3457   1.237  10.558  10.828  1.7372  0.5223 -3.4714
  784MOL0     H 3458   1.489  10.411  10.888 -2.2611 -1.3003  1.2745
  784MOL0     H 3459   1.480  10.586  10.879 -1.0829 -0.5274 -1.6265
  784MOL0     H 3460   1.424  10.392  10.650  4.1725 -0.3315 -2.7770
  784MOL0     H 3461   1.392  10.568  10.644 -1.2390 -1.5863  0.9958
  784MOL0     H 3462   1.666  10.434  10.660 -0.5984 -1.0796 -2.0044
  784MOL0     H 3463   1.647  10.611  10.666  1.5290  1.0162 -3.0895
  784MOL0     H 3464   1.600  10.427  10.429 -1.3524  1.2208 -1.5825
  784MOL0     H 3465   1.709  10.560  10.447  0.3687  0.3837 -0.6050
  784MOL0     H 3466   1.511  10.611  10.294 -1.9326 -1.8005  1.3719
  784MOL0     H 3467   1.402  10.600  10.440 -1.1343  1.2184  0.4859
  784MOL0     H 3468   1.642  10.795  10.464 -0.9366  2.1909  1.3086
  784MOL0     H 3469   1.480  10.806  10.521  0.9607 -0.4905  2.7738
  784MOL0     H 3470   0.997  10.141  10.986  0.7202 -1.1990 -1.3110
  784MOL0     H 3471   0.850  10.005  10.824  1.0261  0.1715 -3.1596
  784MOL0     H 3472   0.710   9.879  10.470 -0.6919  0.3016  0.9619
  784MOL0     H 3473   0.580   9.716  10.326 -0.7203 -0.7798  1.1393
  784MOL0     H 3474   1.524   8.943  11.332  0.5756 -0.5842 -0.8985
  784MOL0     H 3475   1.747   8.850  11.330  1.5634  1.5804  0.3318
  784MOL0     H 3476   2.126   8.567  11.237  0.6796 -0.5903  0.0639
  784MOL0     H 3477   2.387   8.539  11.228  1.0968  0.8175 -0.7061
  784MOL0     H 3478   2.613   8.823  11.031 -0.9788  0.8571  3.0756
  784MOL0     H 3479   2.510   8.684  10.988 -2.1913  3.7610  0.4620
  784MOL0     H 3480   2.763   8.629  10.939 -0.7327  1.4471 -1.3350
  784MOL0     H 3481   2.791   8.642  11.101  0.5083 -2.7667  0.0104
  784MOL0     H 3482   2.567   8.450  10.984 -0.2973 -2.5252  0.0319
  784MOL0     H 3483   2.631   8.454  11.152 -0.3160 -1.0332  0.4470
  784MOL0     H 3484   2.792   8.339  10.926  0.4457 -0.7096  0.0371
  784MOL0     H 3485   2.866   8.388  11.080 -0.2158  2.2648 -0.2194
  784MOL0     H 3486   2.621   8.054  11.192 -1.0603  0.6060 -0.5683
  784MOL0     H 3487   2.458   8.931  11.154  1.8316 -2.2421  2.6196
  784MOL0     H 3488   2.215   8.988  11.145 -3.0544 -0.9427  0.7176
  785MOL0     O 3489   2.594   1.702   4.174 -0.1307 -0.2091 -0.0224
  785MOL0     C 3490   2.478   1.742   4.195  0.0503 -0.1740  0.9958
  785MOL0     O 3491   2.425   1.860   4.147 -0.0931 -0.7591 -0.1525
  785MOL0     C 3492   2.506   1.940   4.061 -0.2733  0.7432 -0.5836
  785MOL0     C 3493   2.554   1.905   3.938 -0.1306 -0.2456  1.0988
  785MOL0     C 3494   2.650   1.985   3.875  0.0866 -0.5855 -0.1797
  785MOL0     C 3495   2.702   2.104   3.936  0.4637  0.8641  0.2023
  785MOL0     O 3496   2.786   2.182   3.853  0.6383  0.3379  0.1411
  785MOL0     C 3497   2.792   2.322   3.878 -0.3241 -0.2279  0.1448
  785MOL0     C 3498   2.867   2.397   3.767 -0.1115 -0.3449  0.1448
  785MOL0     C 3499   3.022   2.365   3.769  0.3417 -0.8397 -0.1145
  785MOL0     C 3500   3.104   2.454   3.671  0.8862 -0.4323  0.3301
  785MOL0     C 3501   3.240   2.489   3.745 -0.3658 -0.5109  0.0818
  785MOL0     C 3502   3.226   2.618   3.837  0.1569 -0.1201  0.5031
  785MOL0     C 3503   3.369   2.664   3.878  0.4832 -0.4265 -0.5801
  785MOL0     C 3504   3.463   2.723   3.769 -0.6922  0.4036 -0.5511
  785MOL0     N 3505   3.411   2.848   3.707 -0.3650 -0.3013 -0.1386
  785MOL0     C 3506   3.304   2.861   3.611 -0.8734 -0.0705  0.4441
  785MOL0     C 3507   3.310   2.990   3.567  0.1314  0.5604  0.9602
  785MOL0     C 3508   3.242   3.060   3.457 -0.6564 -0.1850  0.2102
  785MOL0     C 3509   3.322   3.057   3.317  0.0057  0.8534 -0.3563
  785MOL0     C 3510   3.288   2.916   3.244  0.2585 -0.1487  0.1467
  785MOL0     C 3511   3.408   2.873   3.129  0.5839 -0.0781  0.1437
  785MOL0     O 3512   3.357   2.764   3.048 -0.1082 -0.2145  1.1868
  785MOL0     C 3513   3.453   2.696   2.977 -0.2606  0.0074  0.1218
  785MOL0     C 3514   3.557   2.759   2.905 -0.3999  0.7692 -0.4211
  785MOL0     C 3515   3.641   2.688   2.819  0.3513  0.6333 -0.8837
  785MOL0     C 3516   3.604   2.562   2.777 -0.5462 -0.7368  0.6540
  785MOL0     C 3517   3.697   2.486   2.691 -0.5305 -0.2731 -0.1482
  785MOL0     O 3518   3.643   2.368   2.646 -0.5665 -0.7699  0.4832
  785MOL0     C 3519   3.730   2.282   2.587 -0.7037  0.3715 -0.3087
  785MOL0     C 3520   3.794   2.193   2.666  0.5254  0.0560  0.3109
  785MOL0     C 3521   3.877   2.089   2.609 -0.3267 -0.3895 -0.3838
  785MOL0     C 3522   3.891   2.087   2.468 -0.3633  0.2566  0.5684
  785MOL0     O 3523   3.975   1.989   2.422 -0.0904 -0.3327 -0.1153
  785MOL0     C 3524   3.996   1.989   2.276  0.3321 -0.2611  0.6872
  785MOL0     C 3525   3.861   1.944   2.209  0.4686  0.5297 -0.0030
  785MOL0     C 3526   3.882   1.828   2.118 -0.9250 -0.3895  0.4663
  785MOL0     C 3527   3.764   1.799   2.028 -1.0357 -0.1680  0.2914
  785MOL0     C 3528   3.682   1.680   2.088 -0.2619 -0.3199  0.2767
  785MOL0     C 3529   3.761   1.536   2.107  0.2200  0.4104  0.5883
  785MOL0     C 3530   3.671   1.416   2.135 -0.0983  0.9621 -0.5829
  785MOL0     C 3531   3.729   1.277   2.077  0.3579  0.0323  0.0117
  785MOL0    Cl 3532   3.629   1.135   2.104  0.1320  0.2121  0.6504
  785MOL0     C 3533   3.827   2.187   2.392 -0.3393  0.1486  0.4027
  785MOL0     C 3534   3.752   2.281   2.452  0.6081  0.6714 -0.1722
  785MOL0     O 3535   3.796   2.544   2.646 -0.2655 -0.0803 -0.0102
  785MOL0     C 3536   3.483   2.502   2.833 -1.3770  0.1707  0.9628
  785MOL0     C 3537   3.416   2.565   2.943 -0.8805  1.2199  0.5397
  785MOL0     N 3538   3.382   3.062   3.658 -0.1563 -0.1303  1.1807
  785MOL0     N 3539   3.453   2.980   3.734  0.5040 -0.1689  0.6227
  785MOL0     C 3540   2.654   2.137   4.063  0.1665  1.2586  0.7491
  785MOL0     C 3541   2.558   2.053   4.127  0.9272 -0.8733 -0.8618
  785MOL0     C 3542   2.396   1.657   4.297  0.1619  0.3233  0.5219
  785MOL0     C 3543   2.446   1.545   4.367  0.7029  0.2754  0.3286
  785MOL0     C 3544   2.357   1.462   4.440 -0.5400  0.5395 -0.1367
  785MOL0     C 3545   2.226   1.503   4.468 -0.2307  0.0761 -0.8927
  785MOL0     O 3546   2.134   1.452   4.550  0.4521 -0.6817  0.2105
  785MOL0     C 3547   2.084   1.330   4.501 -0.3493  0.3083 -0.2405
  785MOL0     C 3548   2.011   1.253   4.621 -0.3094 -0.8943  0.2699
  785MOL0     C 3549   1.880   1.324   4.656  0.0328  0.1290  0.3145
  785MOL0     C 3550   1.891   1.407   4.787 -0.0194  0.4432 -1.3776
  785MOL0     C 3551   1.936   1.326   4.907 -0.3424  1.2341  0.1132
  785MOL0     C 3552   1.956   1.250   5.000  0.6499 -0.6509 -0.7164
  785MOL0     C 3553   2.193   1.630   4.425  0.0751  0.6091 -0.0153
  785MOL0     C 3554   2.266   1.696   4.331 -0.1677 -0.1108 -0.0250
  785MOL0     H 3555   2.511   1.821   3.885 -1.1389 -0.3908  2.1230
  785MOL0     H 3556   2.671   1.969   3.770 -0.1526  1.5261 -0.5897
  785MOL0     H 3557   2.826   2.347   3.979 -0.2556  0.0016  0.0661
  785MOL0     H 3558   2.691   2.363   3.876  0.6716  2.4373  0.7691
  785MOL0     H 3559   2.850   2.504   3.779  2.8341  0.2313 -0.0849
  785MOL0     H 3560   2.824   2.371   3.670  1.3607  1.2017 -0.9768
  785MOL0     H 3561   3.052   2.260   3.756  0.8027 -1.0543  2.2513
  785MOL0     H 3562   3.051   2.400   3.869  0.7040  0.9695 -0.8114
  785MOL0     H 3563   3.132   2.400   3.580  0.4102  0.9594 -0.6702
  785MOL0     H 3564   3.050   2.539   3.629  0.9900 -1.4038 -1.9207
  785MOL0     H 3565   3.319   2.510   3.673 -0.4331 -0.7328 -0.0586
  785MOL0     H 3566   3.270   2.405   3.809 -1.9380 -1.1877 -0.0301
  785MOL0     H 3567   3.165   2.601   3.926 -0.1371  1.2164  0.5769
  785MOL0     H 3568   3.171   2.691   3.777 -1.2533 -1.5200  0.0368
  785MOL0     H 3569   3.360   2.746   3.950  1.2065 -0.1205 -0.8287
  785MOL0     H 3570   3.413   2.581   3.934  0.6415 -0.9320 -1.4429
  785MOL0     H 3571   3.484   2.653   3.688 -1.7924  0.2549 -0.7121
  785MOL0     H 3572   3.551   2.754   3.826 -1.3553 -1.6914  1.7546
  785MOL0     H 3573   3.240   2.782   3.574  1.4320 -2.7198  1.6547
  785MOL0     H 3574   3.214   3.161   3.488  0.9914  0.7493 -1.1342
  785MOL0     H 3575   3.148   3.005   3.443 -0.0558 -0.9127 -1.1632
  785MOL0     H 3576   3.428   3.067   3.340 -0.1256  3.1936 -0.5568
  785MOL0     H 3577   3.292   3.134   3.246 -1.4596 -0.0173 -0.7300
  785MOL0     H 3578   3.263   2.835   3.312  2.9570 -0.8642  0.4287
  785MOL0     H 3579   3.203   2.935   3.178  0.5482  1.9538  0.2839
  785MOL0     H 3580   3.505   2.844   3.171  1.5348 -2.6276 -3.3838
  785MOL0     H 3581   3.430   2.960   3.066  2.0139 -1.3429 -1.2080
  785MOL0     H 3582   3.570   2.865   2.928 -1.9889  0.4092  2.4406
  785MOL0     H 3583   3.729   2.730   2.771  1.6535 -0.1833  0.6876
  785MOL0     H 3584   3.787   2.210   2.773 -2.4012  2.5377 -0.1234
  785MOL0     H 3585   3.938   2.032   2.677  0.3215  2.6706  1.8095
  785MOL0     H 3586   4.074   1.917   2.251  0.2169 -0.1312 -0.0890
  785MOL0     H 3587   4.037   2.083   2.236  1.2450 -0.6717  0.6472
  785MOL0     H 3588   3.806   2.029   2.168 -1.3233 -0.1432  0.9157
  785MOL0     H 3589   3.795   1.908   2.288 -1.4250  4.2282  0.2831
  785MOL0     H 3590   3.908   1.745   2.184 -1.0097  0.5483  1.7195
  785MOL0     H 3591   3.969   1.854   2.058  1.8178 -1.8138  3.5043
  785MOL0     H 3592   3.694   1.882   2.018 -1.4193 -0.6402 -1.2020
  785MOL0     H 3593   3.786   1.762   1.928 -3.9047 -0.2230 -0.4242
  785MOL0     H 3594   3.598   1.667   2.020  1.4679 -0.3407 -1.9900
  785MOL0     H 3595   3.644   1.718   2.184 -1.2872  0.1840 -0.3137
  785MOL0     H 3596   3.829   1.536   2.192  0.8696 -1.4241  0.1206
  785MOL0     H 3597   3.817   1.504   2.018 -0.8234 -0.8726  0.3543
  785MOL0     H 3598   3.649   1.398   2.241 -0.0289 -0.8710 -0.8495
  785MOL0     H 3599   3.577   1.437   2.084 -1.5244  1.1551  1.9578
  785MOL0     H 3600   3.828   1.263   2.123 -0.6473  3.2892  3.7033
  785MOL0     H 3601   3.760   1.291   1.973 -0.1871 -0.0997 -0.1737
  785MOL0     H 3602   3.844   2.202   2.286  0.3020  0.4325  0.5383
  785MOL0     H 3603   3.696   2.350   2.390  3.8900  0.7346 -3.4006
  785MOL0     H 3604   3.448   2.409   2.790 -0.6315  1.1270 -1.9084
  785MOL0     H 3605   3.334   2.520   2.998  0.5047  0.4607  2.1193
  785MOL0     H 3606   2.666   2.237   4.105  1.9405  1.7129 -0.7179
  785MOL0     H 3607   2.522   2.077   4.227  1.6791  1.1488 -1.0269
  785MOL0     H 3608   2.548   1.508   4.365  1.8326  3.0595  1.1747
  785MOL0     H 3609   2.402   1.369   4.474  0.0469  1.1506  0.8219
  785MOL0     H 3610   2.162   1.262   4.467 -0.9148 -1.9774  2.5852
  785MOL0     H 3611   2.023   1.341   4.411  1.2722 -0.5645 -1.4993
  785MOL0     H 3612   1.987   1.151   4.591  3.3622 -2.5946  2.3845
  785MOL0     H 3613   2.075   1.233   4.707 -0.4940 -3.6295 -0.1541
  785MOL0     H 3614   1.803   1.251   4.682 -1.2445  0.6372 -1.8409
  785MOL0     H 3615   1.839   1.386   4.576  2.1988  0.4041 -0.6577
  785MOL0     H 3616   1.961   1.489   4.770  1.8564 -0.1042  2.6184
  785MOL0     H 3617   1.792   1.454   4.799 -1.1039 -2.2072  1.1377
  785MOL0     H 3618   1.962   1.200   5.095  1.9724  2.1282  0.7823
  785MOL0     H 3619   2.102   1.681   4.455 -1.3555  0.0432 -3.0709
  785MOL0     H 3620   2.230   1.794   4.299 -3.8040 -1.2754  0.0763
  786MOL0     O 3621   7.600   8.777   6.030  0.5098 -0.0199  0.8420
  786MOL0     C 3622   7.535   8.872   6.074 -0.4056  0.3592  0.5074
  786MOL0     O 3623   7.589   8.972   6.137  0.5037 -0.1351  0.7542
  786MOL0     C 3624   7.718   8.971   6.187  0.5987 -0.2911 -0.0121
  786MOL0     C 3625   7.829   9.000   6.104 -0.1925  0.5000 -0.3260
  786MOL0     C 3626   7.958   8.984   6.157  0.1385 -0.6115  1.5008
  786MOL0     C 3627   7.975   8.931   6.288  0.4823 -0.6807  0.1046
  786MOL0     O 3628   8.095   8.884   6.345  0.6585 -0.5672 -0.3425
  786MOL0     C 3629   8.215   8.916   6.281  0.1245 -0.0009 -0.1597
  786MOL0     C 3630   8.313   8.918   6.399  0.1945  0.0890  0.7504
  786MOL0     C 3631   8.458   8.958   6.359  0.7978  0.2381 -0.4161
  786MOL0     C 3632   8.561   8.925   6.482  1.0538 -0.5444 -0.2189
  786MOL0     C 3633   8.546   9.032   6.602  0.1980  0.8259  0.0933
  786MOL0     C 3634   8.692   9.077   6.647  0.0830 -0.3667  0.3544
  786MOL0     C 3635   8.682   9.209   6.727  0.5921  0.3973  0.4058
  786MOL0     C 3636   8.819   9.282   6.738  0.0841 -0.7337 -0.2358
  786MOL0     N 3637   8.920   9.183   6.771 -0.1746 -0.4697  0.1198
  786MOL0     C 3638   8.919   9.114   6.885  0.0959 -0.6441 -0.9851
  786MOL0     C 3639   8.998   9.005   6.862 -0.5452  0.2588  0.0225
  786MOL0     C 3640   9.013   8.881   6.943  1.1347 -0.1145 -0.8032
  786MOL0     C 3641   8.921   8.773   6.887 -0.3288 -0.3918 -0.7988
  786MOL0     C 3642   8.976   8.635   6.896 -0.3569  0.2701 -0.2738
  786MOL0     C 3643   9.096   8.624   6.803  0.0467  0.3966  0.4759
  786MOL0     O 3644   9.166   8.498   6.821  0.5241  0.7916 -0.3862
  786MOL0     C 3645   9.276   8.490   6.903  0.3281  0.1020  0.1804
  786MOL0     C 3646   9.308   8.578   7.008  0.5630  0.2010  0.4620
  786MOL0     C 3647   9.413   8.556   7.096 -0.0547 -0.9324  0.0974
  786MOL0     C 3648   9.498   8.444   7.071  0.0675  0.4087 -0.9124
  786MOL0     C 3649   9.612   8.422   7.158  0.4269  0.3139  0.9803
  786MOL0     O 3650   9.628   8.518   7.251 -0.1167 -0.1099 -0.4245
  786MOL0     C 3651   9.733   8.506   7.337  0.4595 -0.2866 -1.4017
  786MOL0     C 3652   9.739   8.390   7.420  0.3451  0.8311  0.5234
  786MOL0     C 3653   9.855   8.378   7.501 -0.4692  0.1502  0.0265
  786MOL0     C 3654   9.947   8.475   7.515  0.1825  0.5059 -0.5381
  786MOL0     O 3655  10.065   8.443   7.582 -0.1281 -0.3871  0.7682
  786MOL0     C 3656  10.072   8.326   7.663  0.2069  0.5237 -0.7272
  786MOL0     C 3657  10.196   8.346   7.746  0.4316  0.6753  0.8653
  786MOL0     C 3658  10.320   8.333   7.658 -0.7232 -0.3822 -0.1354
  786MOL0     C 3659  10.422   8.227   7.711  0.2495 -0.5142  1.2616
  786MOL0     C 3660  10.576   8.253   7.668  0.0960 -0.3135  0.2551
  786MOL0     C 3661  10.630   8.351   7.772  0.0236  0.8392 -0.2709
  786MOL0     C 3662  10.780   8.379   7.756  0.8793 -0.4415 -0.9930
  786MOL0     C 3663  10.820   8.463   7.638 -0.2733 -0.2930 -0.0993
  786MOL0    Cl 3664  10.790   8.632   7.688 -0.0832 -0.2332  0.3189
  786MOL0     C 3665   9.937   8.584   7.430  0.6667  0.3065 -0.7429
  786MOL0     C 3666   9.839   8.596   7.338 -0.7114 -0.0443 -0.3344
  786MOL0     O 3667   9.683   8.321   7.143 -0.0337 -0.5818 -0.8093
  786MOL0     C 3668   9.479   8.371   6.956 -0.5075  0.7030 -0.3604
  786MOL0     C 3669   9.358   8.385   6.888  0.2108  0.7560  0.6321
  786MOL0     N 3670   9.055   9.013   6.740 -0.0484 -0.7328 -0.4154
  786MOL0     N 3671   9.002   9.125   6.683 -0.2324  0.4831  0.3560
  786MOL0     C 3672   7.868   8.913   6.364  0.2240 -0.3509  0.4571
  786MOL0     C 3673   7.740   8.929   6.320  0.0975 -0.2416  0.1944
  786MOL0     C 3674   7.389   8.857   6.051 -0.0818  0.5342  0.6946
  786MOL0     C 3675   7.293   8.963   6.057  0.0142 -0.5452 -1.0314
  786MOL0     C 3676   7.155   8.958   6.020 -0.3258 -0.2894  1.8504
  786MOL0     C 3677   7.112   8.838   5.983  0.6296  0.9459  0.2044
  786MOL0     O 3678   6.983   8.802   5.960 -0.5168  0.8243  0.1112
  786MOL0     C 3679   6.881   8.897   5.961 -1.0452  0.4848  0.2024
  786MOL0     C 3680   6.840   8.941   6.104 -0.1305  0.0518  0.0928
  786MOL0     C 3681   6.719   9.027   6.106 -0.3666 -0.1610 -0.1553
  786MOL0     C 3682   6.710   9.081   6.254 -0.5968  0.0096  0.2900
  786MOL0     C 3683   6.651   8.992   6.359 -0.4792  0.5618  0.0403
  786MOL0     C 3684   6.603   8.904   6.429 -0.5214 -0.2677 -0.6032
  786MOL0     C 3685   7.200   8.730   5.966 -0.3326  0.5690  0.1990
  786MOL0     C 3686   7.337   8.736   5.998  0.0564 -1.0471 -0.6424
  786MOL0     H 3687   7.820   9.056   6.011  2.4702  1.4626 -0.0797
  786MOL0     H 3688   8.040   9.019   6.095 -0.4485  0.7425  1.4543
  786MOL0     H 3689   8.211   9.012   6.230 -2.7365  0.0853  0.0935
  786MOL0     H 3690   8.242   8.828   6.221 -1.4215  1.0191 -2.5186
  786MOL0     H 3691   8.317   8.814   6.435  0.7849  0.9221  3.3078
  786MOL0     H 3692   8.283   8.970   6.490 -0.8803 -1.4496  1.3227
  786MOL0     H 3693   8.465   9.064   6.331  3.8180 -0.1608 -1.5893
  786MOL0     H 3694   8.481   8.898   6.270  0.6075 -2.3471  1.1680
  786MOL0     H 3695   8.544   8.822   6.513 -2.8443 -0.8516 -2.5613
  786MOL0     H 3696   8.662   8.937   6.444  0.6559 -1.4571 -1.6282
  786MOL0     H 3697   8.480   8.978   6.671  0.5211 -0.7568 -0.8066
  786MOL0     H 3698   8.491   9.123   6.574 -4.0391 -1.9845 -1.7027
  786MOL0     H 3699   8.747   9.098   6.555  1.7259 -0.3041  1.3120
  786MOL0     H 3700   8.739   8.998   6.707 -1.3580 -0.8310  0.9125
  786MOL0     H 3701   8.617   9.284   6.680 -0.5319  0.2741  1.6920
  786MOL0     H 3702   8.632   9.191   6.823  0.2948 -0.1886  0.1486
  786MOL0     H 3703   8.827   9.357   6.817  1.5387 -2.0485  0.9237
  786MOL0     H 3704   8.833   9.326   6.639 -1.9309  0.6794  0.0490
  786MOL0     H 3705   8.856   9.130   6.972  2.0456 -1.4057  0.6624
  786MOL0     H 3706   8.985   8.903   7.047  1.0942  2.0043 -1.2220
  786MOL0     H 3707   9.119   8.858   6.936  1.6834  1.7514  0.4239
  786MOL0     H 3708   8.907   8.785   6.780 -2.7926 -1.3438 -0.6604
  786MOL0     H 3709   8.820   8.775   6.929  0.2878 -0.5268  0.7587
  786MOL0     H 3710   9.015   8.608   6.994 -0.8615  0.5371  0.0000
  786MOL0     H 3711   8.910   8.554   6.865  0.7202 -1.7873  2.4686
  786MOL0     H 3712   9.174   8.700   6.808 -1.2139  1.9725 -1.9954
  786MOL0     H 3713   9.054   8.629   6.702 -3.5617  1.7084  1.8851
  786MOL0     H 3714   9.247   8.665   7.027 -0.4308  0.1944 -2.1849
  786MOL0     H 3715   9.419   8.627   7.177  1.5409 -0.5767 -0.2958
  786MOL0     H 3716   9.669   8.307   7.418  0.7029  0.5147  0.8861
  786MOL0     H 3717   9.866   8.283   7.552  0.9693  0.2714 -0.0177
  786MOL0     H 3718  10.072   8.233   7.606 -2.4848  0.1931 -0.3430
  786MOL0     H 3719   9.997   8.314   7.742  1.2089 -0.6163  0.0844
  786MOL0     H 3720  10.194   8.263   7.816  0.1494 -1.6176 -1.6846
  786MOL0     H 3721  10.210   8.439   7.801  0.1217  1.9568 -1.1003
  786MOL0     H 3722  10.375   8.428   7.659 -2.0590  0.4128  0.6877
  786MOL0     H 3723  10.300   8.306   7.553 -0.0867  0.7216 -0.5604
  786MOL0     H 3724  10.418   8.222   7.821 -0.4869  0.9475  1.3301
  786MOL0     H 3725  10.394   8.132   7.666 -0.0476  0.7464 -1.4237
  786MOL0     H 3726  10.590   8.287   7.565  1.0832 -1.4782 -0.0146
  786MOL0     H 3727  10.632   8.160   7.680  1.2223  0.3402  0.1387
  786MOL0     H 3728  10.618   8.303   7.869  1.0160 -2.7227 -1.7481
  786MOL0     H 3729  10.574   8.445   7.762 -0.7037  0.1810 -3.8546
  786MOL0     H 3730  10.819   8.430   7.845 -1.8323 -1.1275  0.7127
  786MOL0     H 3731  10.824   8.280   7.744 -1.4238 -1.1750 -5.2825
  786MOL0     H 3732  10.772   8.438   7.543 -0.0807 -4.1101  0.6241
  786MOL0     H 3733  10.927   8.446   7.622  0.1641  2.0756 -0.0188
  786MOL0     H 3734  10.014   8.659   7.442 -0.1947  0.7810  3.9852
  786MOL0     H 3735   9.832   8.682   7.273  1.0449  0.3780 -0.0351
  786MOL0     H 3736   9.537   8.283   6.930  0.1865  0.6248  1.3244
  786MOL0     H 3737   9.321   8.312   6.818 -1.1231  3.6615 -1.9212
  786MOL0     H 3738   7.866   8.858   6.457 -4.0221 -0.6857  0.3640
  786MOL0     H 3739   7.651   8.921   6.383  0.7831  2.1114  1.5737
  786MOL0     H 3740   7.321   9.061   6.093  1.5293 -1.1715 -0.4436
  786MOL0     H 3741   7.088   9.043   6.016 -0.7089 -0.6190 -0.6380
  786MOL0     H 3742   6.801   8.860   5.897  0.9198  2.4830 -3.8161
  786MOL0     H 3743   6.921   8.982   5.904  0.4027  1.1364  2.0646
  786MOL0     H 3744   6.816   8.846   6.153  3.5157 -1.5423 -0.8671
  786MOL0     H 3745   6.923   8.976   6.167 -1.4394  1.0231  1.3411
  786MOL0     H 3746   6.634   8.964   6.077  0.4953 -1.9012  0.9302
  786MOL0     H 3747   6.722   9.114   6.040 -2.1802  0.7067  0.8296
  786MOL0     H 3748   6.810   9.099   6.294 -0.2148 -2.9358  0.9019
  786MOL0     H 3749   6.668   9.182   6.261  0.9028  0.5761  1.9829
  786MOL0     H 3750   6.558   8.833   6.495  1.0083  0.7146  1.5980
  786MOL0     H 3751   7.175   8.638   5.915  2.1006 -0.5685  0.9276
  786MOL0     H 3752   7.388   8.640   5.997  0.4009 -0.8669 -1.5078
  787MOL0     O 3753   6.467   1.429   0.638  0.1122  0.2533  0.4858
  787MOL0     C 3754   6.392   1.459   0.728 -1.0063 -0.5371  1.0410
  787MOL0     O 3755   6.313   1.574   0.732 -0.4887  0.1329  0.0501
  787MOL0     C 3756   6.306   1.682   0.650 -0.7164 -0.2111  0.1143
  787MOL0     C 3757   6.371   1.683   0.526 -0.3310 -0.1223  0.9908
  787MOL0     C 3758   6.365   1.788   0.437 -0.3024 -0.2320  0.5331
  787MOL0     C 3759   6.291   1.895   0.478 -0.5971 -0.2035  0.8100
  787MOL0     O 3760   6.303   2.004   0.396  0.8851 -0.0408  0.2678
  787MOL0     C 3761   6.342   2.135   0.457  0.2732  0.4878 -0.3110
  787MOL0     C 3762   6.433   2.224   0.376  0.2637 -0.2986 -0.8030
  787MOL0     C 3763   6.364   2.303   0.257 -0.3123 -0.1670 -0.5769
  787MOL0     C 3764   6.469   2.339   0.154  0.7153  0.1448 -0.1385
  787MOL0     C 3765   6.506   2.497   0.156 -0.0612 -0.1794 -1.1960
  787MOL0     C 3766   6.628   2.520   0.065  0.6771 -1.0566  0.2567
  787MOL0     C 3767   6.638   2.666   0.025  0.1518 -0.5266  0.0664
  787MOL0     C 3768   6.701   2.679  -0.119  0.1750 -1.1215 -0.3577
  787MOL0     N 3769   6.732   2.821  -0.138  0.2261 -0.1195  0.4802
  787MOL0     C 3770   6.698   2.900  -0.240 -0.5884 -0.9024  0.7792
  787MOL0     C 3771   6.755   3.022  -0.210  0.5021  0.4915 -0.2022
  787MOL0     C 3772   6.756   3.132  -0.314 -0.7024 -0.4731 -0.0805
  787MOL0     C 3773   6.851   3.253  -0.281 -0.2542 -0.6750  0.9231
  787MOL0     C 3774   6.833   3.370  -0.369  0.0734 -0.3489 -0.7923
  787MOL0     C 3775   6.907   3.481  -0.306  0.3535 -0.0882  0.1012
  787MOL0     O 3776   6.878   3.589  -0.398  0.4009 -0.0770 -0.1405
  787MOL0     C 3777   6.924   3.713  -0.373 -1.1983  0.3512  0.1524
  787MOL0     C 3778   6.860   3.827  -0.397  0.9296  0.4111  0.7029
  787MOL0     C 3779   6.905   3.956  -0.361 -1.0573  0.7555  0.0449
  787MOL0     C 3780   7.014   3.966  -0.267 -0.5840 -0.2384  0.5350
  787MOL0     C 3781   7.059   4.097  -0.205  0.4396  0.7319  0.6488
  787MOL0     O 3782   6.993   4.201  -0.246 -0.4339 -0.1030 -0.0747
  787MOL0     C 3783   7.018   4.323  -0.171 -0.2880  0.4994 -0.0730
  787MOL0     C 3784   6.921   4.364  -0.083 -0.0239  0.2765 -0.0389
  787MOL0     C 3785   6.940   4.480  -0.006  0.1152 -0.2960 -0.3631
  787MOL0     C 3786   7.048   4.566  -0.027 -0.4412  0.3899 -0.9204
  787MOL0     O 3787   7.056   4.671   0.055  0.4422 -0.1334 -0.6360
  787MOL0     C 3788   7.111   4.790   0.004 -0.9937 -0.0223 -0.5703
  787MOL0     C 3789   7.128   4.890   0.117 -0.0489  0.0408  0.6710
  787MOL0     C 3790   7.181   4.822   0.252  0.0785 -1.0209 -0.5287
  787MOL0     C 3791   7.244   4.921   0.346 -0.5640  0.2838  0.0030
  787MOL0     C 3792   7.298   4.844   0.467 -0.1054  0.3217 -0.2545
  787MOL0     C 3793   7.387   4.932   0.550  1.1633  0.0207 -0.0898
  787MOL0     C 3794   7.504   4.997   0.473  1.1511 -0.5154 -0.4716
  787MOL0     C 3795   7.603   5.078   0.564  0.0977  0.2505 -0.0519
  787MOL0    Cl 3796   7.751   5.114   0.477  0.3967  0.6192 -0.0614
  787MOL0     C 3797   7.149   4.523  -0.109  0.6621 -0.3496  0.4238
  787MOL0     C 3798   7.135   4.401  -0.183 -0.3386  0.2858 -0.8336
  787MOL0     O 3799   7.136   4.094  -0.110 -0.1134 -0.6130  0.5742
  787MOL0     C 3800   7.089   3.849  -0.253 -1.2238  0.3275  0.2864
  787MOL0     C 3801   7.044   3.725  -0.304 -0.6894  0.2073 -0.5302
  787MOL0     N 3802   6.836   3.003  -0.094 -0.4146 -0.4062 -0.3377
  787MOL0     N 3803   6.814   2.882  -0.053 -0.3286 -0.5994  0.3291
  787MOL0     C 3804   6.220   1.902   0.598 -0.8466 -0.0886 -0.2157
  787MOL0     C 3805   6.222   1.789   0.684  0.4794  0.6268  0.0372
  787MOL0     C 3806   6.381   1.373   0.847  0.6331  0.8183 -0.4436
  787MOL0     C 3807   6.264   1.381   0.924 -0.2783 -0.1612 -0.7865
  787MOL0     C 3808   6.252   1.297   1.040 -0.3894 -0.3632  0.4773
  787MOL0     C 3809   6.367   1.222   1.087 -0.6509  0.3830  0.3358
  787MOL0     O 3810   6.362   1.136   1.194 -0.4702 -0.8517 -0.3710
  787MOL0     C 3811   6.359   0.996   1.161 -0.0828  0.9999 -0.5657
  787MOL0     C 3812   6.487   0.926   1.223  0.2217 -0.3005  0.3471
  787MOL0     C 3813   6.465   0.897   1.369 -0.7839  0.3245  0.2997
  787MOL0     C 3814   6.409   0.752   1.391  1.1660 -0.6550  0.5114
  787MOL0     C 3815   6.503   0.643   1.359  0.2242  0.2535 -0.5992
  787MOL0     C 3816   6.568   0.540   1.347  0.3064 -0.6594  0.8008
  787MOL0     C 3817   6.475   1.212   1.004 -0.5522 -0.0115 -0.0829
  787MOL0     C 3818   6.478   1.283   0.875 -0.4341  0.3680  0.3563
  787MOL0     H 3819   6.434   1.605   0.485  2.4813  2.7681 -0.6718
  787MOL0     H 3820   6.422   1.771   0.346 -0.5479  2.5780 -0.2418
  787MOL0     H 3821   6.406   2.105   0.541 -0.0862  0.5944  0.0058
  787MOL0     H 3822   6.265   2.199   0.501 -1.5595 -2.8338  1.7463
  787MOL0     H 3823   6.503   2.151   0.334  0.1365 -0.0586 -1.4461
  787MOL0     H 3824   6.485   2.288   0.449 -2.0167 -4.0121  4.7180
  787MOL0     H 3825   6.310   2.392   0.287 -1.1157 -1.0729  0.7362
  787MOL0     H 3826   6.284   2.240   0.216 -1.9570  0.4724  1.5101
  787MOL0     H 3827   6.554   2.270   0.158 -1.0257 -2.2620 -1.7798
  787MOL0     H 3828   6.424   2.313   0.058 -3.3727 -2.3968  2.1643
  787MOL0     H 3829   6.529   2.536   0.255 -1.0834 -2.0634 -0.1427
  787MOL0     H 3830   6.422   2.556   0.117  0.3614  0.3070 -1.3858
  787MOL0     H 3831   6.613   2.464  -0.027 -0.6003  2.5133 -1.9173
  787MOL0     H 3832   6.723   2.489   0.110  0.2711  0.5526  2.3827
  787MOL0     H 3833   6.541   2.715   0.013 -0.3993 -1.8012 -0.9831
  787MOL0     H 3834   6.699   2.715   0.101 -2.2819 -0.4511  2.1186
  787MOL0     H 3835   6.639   2.638  -0.199  1.8285 -0.6208 -1.9575
  787MOL0     H 3836   6.797   2.627  -0.120  1.3999  1.0408 -0.9592
  787MOL0     H 3837   6.634   2.870  -0.322 -0.9569 -0.5552  0.9350
  787MOL0     H 3838   6.652   3.166  -0.322 -0.6375  0.2349  1.5933
  787MOL0     H 3839   6.794   3.095  -0.410  0.2836  1.1320 -0.3482
  787MOL0     H 3840   6.957   3.231  -0.295 -0.3479 -0.6439  0.1370
  787MOL0     H 3841   6.834   3.277  -0.175  1.6975  0.6869  0.9742
  787MOL0     H 3842   6.858   3.358  -0.475  0.3669 -0.9162 -0.6651
  787MOL0     H 3843   6.728   3.400  -0.361  0.8735  2.2855  1.2014
  787MOL0     H 3844   7.015   3.461  -0.306  0.0555 -1.8790  0.3524
  787MOL0     H 3845   6.878   3.508  -0.204  0.8026 -2.1530  0.8196
  787MOL0     H 3846   6.770   3.836  -0.456  1.4848  1.9338  0.0204
  787MOL0     H 3847   6.865   4.049  -0.401 -2.5181  0.5097  0.8695
  787MOL0     H 3848   6.829   4.307  -0.077  0.2062 -0.5538 -3.1352
  787MOL0     H 3849   6.882   4.506   0.082  2.8523  1.3638  1.1074
  787MOL0     H 3850   7.048   4.817  -0.082 -2.4269 -2.6508 -0.4477
  787MOL0     H 3851   7.214   4.766  -0.024 -1.4811 -2.0186 -0.7993
  787MOL0     H 3852   7.028   4.922   0.146 -0.4498  0.5150 -1.1307
  787MOL0     H 3853   7.186   4.973   0.076  0.2241 -0.4429  0.0384
  787MOL0     H 3854   7.247   4.739   0.224  0.2259 -0.5467 -1.6679
  787MOL0     H 3855   7.100   4.771   0.305  1.3890 -1.6988  0.8907
  787MOL0     H 3856   7.334   4.962   0.300  1.1645  0.7143  3.5024
  787MOL0     H 3857   7.171   4.991   0.388 -0.8819  0.7478 -1.2570
  787MOL0     H 3858   7.361   4.757   0.443  2.9815  1.3939  2.9885
  787MOL0     H 3859   7.219   4.818   0.538 -0.1536  0.4760 -0.2521
  787MOL0     H 3860   7.434   4.874   0.630 -1.6476 -1.3492  0.6998
  787MOL0     H 3861   7.327   5.010   0.596 -0.6476 -0.6465 -1.2307
  787MOL0     H 3862   7.553   4.915   0.420 -1.9467 -0.8476 -3.1671
  787MOL0     H 3863   7.465   5.071   0.402 -0.4370 -0.8706  0.0002
  787MOL0     H 3864   7.632   5.011   0.646  0.8208  1.3404  0.6166
  787MOL0     H 3865   7.557   5.166   0.609  0.7099 -0.6839  2.5616
  787MOL0     H 3866   7.241   4.578  -0.125 -0.5120  1.5941  0.0706
  787MOL0     H 3867   7.218   4.368  -0.244  1.3300  1.1908  0.8521
  787MOL0     H 3868   7.178   3.840  -0.192  1.4739  1.1515 -3.2196
  787MOL0     H 3869   7.117   3.650  -0.278  0.2478  1.4848  0.6905
  787MOL0     H 3870   6.159   1.990   0.616  0.9009  1.1361 -0.0066
  787MOL0     H 3871   6.160   1.783   0.774 -3.1016  2.4854 -2.0680
  787MOL0     H 3872   6.181   1.444   0.892 -0.8922 -0.3906  0.2882
  787MOL0     H 3873   6.161   1.284   1.098  0.9227 -1.3372  2.4346
  787MOL0     H 3874   6.369   0.997   1.052 -1.3887  2.4569 -0.7116
  787MOL0     H 3875   6.266   0.953   1.199  0.1569 -1.2387 -2.2613
  787MOL0     H 3876   6.486   0.833   1.166 -0.1545  0.9031 -1.7146
  787MOL0     H 3877   6.582   0.976   1.203 -0.8486  2.4858  1.5882
  787MOL0     H 3878   6.396   0.968   1.415  0.7370  0.2395  2.9976
  787MOL0     H 3879   6.557   0.897   1.429 -1.1677 -1.0357  0.9077
  787MOL0     H 3880   6.394   0.744   1.499 -0.7433  0.7002  0.3977
  787MOL0     H 3881   6.317   0.747   1.332  2.1984 -0.8935 -1.1390
  787MOL0     H 3882   6.613   0.444   1.336  0.4019 -1.0521  3.7904
  787MOL0     H 3883   6.555   1.144   1.030 -2.1283 -1.7052  0.5940
  787MOL0     H 3884   6.563   1.265   0.810 -1.0166 -2.6366  0.2980
  788MOL0     O 3885  10.667   3.723  10.350 -0.5238  0.1799 -0.4001
  788MOL0     C 3886  10.637   3.837  10.302 -0.0853 -0.2214  0.4816
  788MOL0     O 3887  10.627   3.951  10.373  0.6621  0.2184 -0.1115
  788MOL0     C 3888  10.622   3.961  10.510 -0.7087  0.2624 -0.2908
  788MOL0     C 3889  10.691   4.064  10.569  0.0915 -0.8173 -0.3980
  788MOL0     C 3890  10.676   4.088  10.708  1.0177 -0.2419 -0.1294
  788MOL0     C 3891  10.584   4.006  10.784  0.4419  0.3912  0.7285
  788MOL0     O 3892  10.567   4.036  10.916  0.2041  0.4606  0.8737
  788MOL0     C 3893  10.474   3.947  11.000 -0.4564  0.2095 -0.2145
  788MOL0     C 3894  10.538   3.816  11.061  0.3945 -0.3779 -0.3166
  788MOL0     C 3895  10.442   3.763  11.173  0.5522 -0.2340  0.2959
  788MOL0     C 3896  10.519   3.656  11.245  0.0166 -0.0469 -0.3375
  788MOL0     C 3897  10.444   3.617  11.368  0.5499 -0.0155 -0.4543
  788MOL0     C 3898  10.485   3.468  11.412 -0.4723  0.0257  1.0475
  788MOL0     C 3899  10.413   3.419  11.536  0.8545 -0.7936  0.1607
  788MOL0     C 3900  10.261   3.401  11.519 -0.7297  0.5126  0.2243
  788MOL0     N 3901  10.224   3.318  11.408  0.4368  0.4872  0.1221
  788MOL0     C 3902  10.265   3.184  11.404  0.0731 -0.4133  0.1499
  788MOL0     C 3903  10.215   3.140  11.289  0.1183  0.5363 -0.5970
  788MOL0     C 3904  10.223   3.008  11.218 -0.4623  0.2580  0.2839
  788MOL0     C 3905  10.307   3.014  11.088 -0.4877  0.8342 -0.0769
  788MOL0     C 3906  10.458   2.995  11.111  0.2868  0.0583 -0.4982
  788MOL0     C 3907  10.546   3.048  10.996 -0.6959  0.1120 -0.8844
  788MOL0     O 3908  10.685   3.053  11.011 -0.8504  0.2990 -0.4097
  788MOL0     C 3909  10.740   2.927  11.005  0.7369  0.4309 -0.6260
  788MOL0     C 3910  10.872   2.914  11.057 -0.0256  0.4234  0.2712
  788MOL0     C 3911  10.939   2.788  11.075 -0.3957 -0.6254  0.4418
  788MOL0     C 3912  10.868   2.673  11.026 -0.0344 -0.4691 -0.0368
  788MOL0     C 3913  10.928   2.539  11.045  0.5661  0.1124 -0.5951
  788MOL0     O 3914  10.846   2.443  10.990  0.2925  0.2407 -0.0730
  788MOL0     C 3915  10.897   2.321  10.956 -0.5010 -0.7535  0.0921
  788MOL0     C 3916  11.036   2.293  10.934  0.4817 -0.0030  0.0945
  788MOL0     C 3917  11.085   2.170  10.921  1.2757  0.9252  1.6086
  788MOL0     C 3918  11.008   2.057  10.893 -0.6339  0.3100  0.4932
  788MOL0     O 3919  11.071   1.938  10.860  0.0847  0.2637  0.6280
  788MOL0     C 3920  11.004   1.858  10.764  0.2204  0.3250  0.1227
  788MOL0     C 3921  11.100   1.746  10.731 -1.1031 -0.0554 -0.1177
  788MOL0     C 3922  11.044   1.640  10.631  0.0917 -0.1289 -0.4163
  788MOL0     C 3923  11.164   1.564  10.561 -0.4105  0.0367 -0.4740
  788MOL0     C 3924  11.104   1.444  10.489 -0.2945 -0.9761 -0.2988
  788MOL0     C 3925  10.996   1.485  10.386 -0.9888  0.4326 -0.3407
  788MOL0     C 3926  11.038   1.597  10.278 -0.0258  0.6271 -1.0862
  788MOL0     C 3927  10.975   1.579  10.131  0.3939  0.2588  0.7693
  788MOL0    Cl 3928  10.790   1.568  10.137 -0.2110  0.1075 -0.2236
  788MOL0     C 3929  10.867   2.083  10.907 -0.9137 -0.6495  0.1002
  788MOL0     C 3930  10.809   2.207  10.944 -0.7845 -0.4946 -1.0106
  788MOL0     O 3931  11.034   2.521  11.098 -0.0493  0.1010 -0.2371
  788MOL0     C 3932  10.746   2.690  10.962 -0.2990  0.8277 -0.5199
  788MOL0     C 3933  10.681   2.809  10.957  0.1667 -0.4108  0.3607
  788MOL0     N 3934  10.150   3.243  11.229  0.6723  0.4474  0.3478
  788MOL0     N 3935  10.155   3.352  11.301  0.2299 -0.0075 -0.3364
  788MOL0     C 3936  10.538   3.888  10.724 -0.5811 -1.2089  0.8573
  788MOL0     C 3937  10.551   3.869  10.585 -0.4888 -0.0683 -0.2243
  788MOL0     C 3938  10.629   3.864  10.152  0.1114 -0.0337 -0.1181
  788MOL0     C 3939  10.575   3.978  10.094  0.5610  0.5602  0.6708
  788MOL0     C 3940  10.560   3.984   9.955  0.2599 -0.3146  1.1430
  788MOL0     C 3941  10.620   3.889   9.872 -0.3498  0.7834  1.7377
  788MOL0     O 3942  10.612   3.875   9.729 -0.0038  0.6753 -0.0213
  788MOL0     C 3943  10.503   3.941   9.667  0.3272  0.2534 -0.4944
  788MOL0     C 3944  10.547   4.006   9.531 -0.2710  0.2034  0.1019
  788MOL0     C 3945  10.591   3.912   9.417 -1.4879  0.3866  0.0572
  788MOL0     C 3946  10.702   3.971   9.337  0.4157 -0.0974  0.0872
  788MOL0     C 3947  10.662   4.079   9.254  0.5084 -0.2141  0.3182
  788MOL0     C 3948  10.614   4.163   9.181 -0.3872 -0.2463  0.4595
  788MOL0     C 3949  10.680   3.782   9.931  0.0606 -0.0980 -0.7494
  788MOL0     C 3950  10.692   3.767  10.072  0.0215 -1.0616 -0.5348
  788MOL0     H 3951  10.747   4.131  10.505 -0.8748 -0.9474 -1.4104
  788MOL0     H 3952  10.722   4.181  10.741  1.1258  0.7722 -2.9257
  788MOL0     H 3953  10.394   3.904  10.939  0.3015 -0.4623 -0.7486
  788MOL0     H 3954  10.432   4.015  11.074 -2.5939 -0.3367 -0.8706
  788MOL0     H 3955  10.636   3.851  11.095  0.4001  1.3301 -1.9009
  788MOL0     H 3956  10.553   3.737  10.986 -0.5909 -0.2713 -0.6317
  788MOL0     H 3957  10.347   3.731  11.128  0.3870  1.5045 -0.6896
  788MOL0     H 3958  10.418   3.842  11.245  0.5119 -2.5149  2.9343
  788MOL0     H 3959  10.513   3.569  11.179  2.3940 -0.2103 -0.4098
  788MOL0     H 3960  10.625   3.670  11.265 -0.1116 -0.3809  0.6255
  788MOL0     H 3961  10.337   3.605  11.345  0.9926 -4.1220 -0.9893
  788MOL0     H 3962  10.447   3.690  11.449 -0.2067 -0.3067 -0.1554
  788MOL0     H 3963  10.592   3.488  11.425 -0.4956  3.1872 -2.0802
  788MOL0     H 3964  10.473   3.400  11.327  0.6556  2.2762 -1.0330
  788MOL0     H 3965  10.447   3.322  11.573  1.8843 -0.2217  0.7806
  788MOL0     H 3966  10.417   3.482  11.625 -0.7116 -0.5272  0.0684
  788MOL0     H 3967  10.203   3.493  11.508  1.2864  1.7642 -0.5818
  788MOL0     H 3968  10.234   3.349  11.611 -0.8269  1.0254  0.4888
  788MOL0     H 3969  10.342   3.133  11.462  0.2227  0.3489  0.6232
  788MOL0     H 3970  10.123   2.979  11.184 -0.0551 -1.3104  0.3561
  788MOL0     H 3971  10.258   2.926  11.281 -0.4844  0.0523  0.0324
  788MOL0     H 3972  10.282   3.106  11.034 -0.1719 -0.4639 -2.5906
  788MOL0     H 3973  10.270   2.947  11.011  1.2055 -0.8098  0.4587
  788MOL0     H 3974  10.479   3.048  11.204 -1.6362 -0.0498  0.0305
  788MOL0     H 3975  10.488   2.890  11.123 -0.9504 -0.1188  1.5754
  788MOL0     H 3976  10.507   3.150  10.994 -0.6355  0.1209 -2.3603
  788MOL0     H 3977  10.520   3.006  10.898 -2.5688  0.3157 -0.5259
  788MOL0     H 3978  10.925   3.003  11.091  1.9601 -0.6254  0.0657
  788MOL0     H 3979  11.039   2.780  11.116  0.8665 -0.0077 -2.2912
  788MOL0     H 3980  11.099   2.381  10.926 -4.1758  3.6923  0.0528
  788MOL0     H 3981  11.193   2.169  10.912  1.0864  0.1425 -2.2210
  788MOL0     H 3982  10.970   1.909  10.674 -1.7472 -2.3835 -0.7791
  788MOL0     H 3983  10.919   1.799  10.798  0.0972  0.2315 -0.3561
  788MOL0     H 3984  11.102   1.684  10.821 -0.1800  0.2193  0.0627
  788MOL0     H 3985  11.198   1.776  10.692 -1.3136  0.8013 -0.0129
  788MOL0     H 3986  10.988   1.695  10.554 -1.7294 -1.7121 -0.3049
  788MOL0     H 3987  10.970   1.581  10.685  0.2383 -0.6255 -0.7546
  788MOL0     H 3988  11.218   1.636  10.499 -0.9807  1.2348  0.3811
  788MOL0     H 3989  11.232   1.529  10.639  0.3844  1.3307 -0.5635
  788MOL0     H 3990  11.069   1.370  10.562  1.1214 -2.5246 -1.1075
  788MOL0     H 3991  11.177   1.384  10.432 -0.1880 -0.4063 -0.7670
  788MOL0     H 3992  10.906   1.516  10.440 -1.9694 -1.1314 -0.9968
  788MOL0     H 3993  10.954   1.399  10.331 -0.1207 -0.8244  0.8973
  788MOL0     H 3994  11.014   1.698  10.311 -2.8316 -0.0979 -0.6895
  788MOL0     H 3995  11.146   1.599  10.263  0.0602  2.1871 -0.3982
  788MOL0     H 3996  11.024   1.495  10.080 -3.2297 -1.2781 -0.5198
  788MOL0     H 3997  10.995   1.672  10.078  2.8304 -0.4556  0.2853
  788MOL0     H 3998  10.797   2.003  10.885 -0.7726 -1.9709  3.8111
  788MOL0     H 3999  10.706   2.218  10.975 -1.5456 -5.7193 -0.7865
  788MOL0     H 4000  10.706   2.596  10.925 -0.6286  1.1522 -1.0079
  788MOL0     H 4001  10.583   2.803  10.912  2.3964 -3.5680 -5.1003
  788MOL0     H 4002  10.490   3.806  10.777 -1.1285 -1.9757 -0.7560
  788MOL0     H 4003  10.512   3.783  10.531 -1.0394  0.8663 -1.3753
  788MOL0     H 4004  10.530   4.049  10.162 -2.3510  0.6544 -1.1965
  788MOL0     H 4005  10.512   4.070   9.907 -1.2872  0.0800  3.2394
  788MOL0     H 4006  10.457   4.016   9.731  0.4416 -0.8972  0.9901
  788MOL0     H 4007  10.421   3.870   9.651  2.2299 -1.9477 -0.9939
  788MOL0     H 4008  10.453   4.044   9.490 -1.8557 -3.7071 -0.4246
  788MOL0     H 4009  10.616   4.087   9.553  1.8085 -1.1721 -0.9887
  788MOL0     H 4010  10.511   3.903   9.343 -1.3809 -2.8714  0.1916
  788MOL0     H 4011  10.607   3.811   9.454 -1.7642  1.0662  2.1673
  788MOL0     H 4012  10.784   3.999   9.404  0.3587 -0.2910  0.2392
  788MOL0     H 4013  10.743   3.895   9.270 -0.7958  0.0057 -0.7928
  788MOL0     H 4014  10.581   4.245   9.120 -1.7912 -1.3404 -0.2869
  788MOL0     H 4015  10.719   3.701   9.869  0.9583 -0.5685  0.3962
  788MOL0     H 4016  10.745   3.677  10.103  1.6154  0.0159 -0.0105
  789MOL0     O 4017   1.144   0.503   2.483  0.2126 -0.7458 -0.3479
  789MOL0     C 4018   1.108   0.495   2.599 -0.7335 -0.5905 -0.4245
  789MOL0     O 4019   1.148   0.400   2.692  0.4276 -0.0771  0.5890
  789MOL0     C 4020   1.224   0.297   2.639  1.1780  0.5363 -0.4055
  789MOL0     C 4021   1.155   0.204   2.568 -0.4896  0.4464  0.8020
  789MOL0     C 4022   1.211   0.092   2.509 -0.4833  0.6346 -0.0167
  789MOL0     C 4023   1.349   0.083   2.520  0.5048 -1.0819 -0.5136
  789MOL0     O 4024   1.413  -0.029   2.491 -0.0566  0.4918 -0.8044
  789MOL0     C 4025   1.359  -0.112   2.379 -0.5779 -0.7270 -0.2718
  789MOL0     C 4026   1.471  -0.162   2.293 -0.6028 -0.1931 -0.2843
  789MOL0     C 4027   1.427  -0.237   2.168 -0.2342 -0.4194  0.8355
  789MOL0     C 4028   1.555  -0.299   2.113  0.2814  0.0904 -0.5154
  789MOL0     C 4029   1.528  -0.406   2.004 -0.5122  0.2042  0.1841
  789MOL0     C 4030   1.656  -0.468   1.947 -0.6522 -0.4263 -0.0258
  789MOL0     C 4031   1.624  -0.573   1.838 -0.8406  0.0104 -0.6982
  789MOL0     C 4032   1.754  -0.641   1.793  0.8380  0.7227  0.3646
  789MOL0     N 4033   1.835  -0.698   1.900 -0.0519 -0.1265 -0.3008
  789MOL0     C 4034   1.797  -0.797   1.983 -0.0477  0.9094 -0.1229
  789MOL0     C 4035   1.884  -0.789   2.089  0.3725 -0.3278 -0.2547
  789MOL0     C 4036   1.870  -0.852   2.218  0.5506  0.3795 -0.8249
  789MOL0     C 4037   1.897  -1.001   2.208  0.4596  0.1549 -0.3840
  789MOL0     C 4038   1.865  -1.075   2.347  0.5206 -0.1730 -0.7846
  789MOL0     C 4039   1.950  -1.030   2.470  0.5086 -0.1613  0.8475
  789MOL0     O 4040   2.079  -0.980   2.425 -0.2458 -0.3053 -0.5199
  789MOL0     C 4041   2.126  -0.858   2.471  0.3841  0.3260  0.3396
  789MOL0     C 4042   2.209  -0.785   2.379  0.1003  0.8012 -0.9327
  789MOL0     C 4043   2.268  -0.667   2.419  0.2195 -0.2446  0.6199
  789MOL0     C 4044   2.255  -0.623   2.550  0.6370  0.1228  0.8033
  789MOL0     C 4045   2.288  -0.482   2.598  0.1471  0.3041 -0.5953
  789MOL0     O 4046   2.398  -0.419   2.536 -0.1748 -0.6503 -0.5195
  789MOL0     C 4047   2.456  -0.302   2.565  0.5337 -0.6820 -1.0975
  789MOL0     C 4048   2.586  -0.290   2.622  0.1351 -0.2566  0.0589
  789MOL0     C 4049   2.629  -0.165   2.664  0.2226 -0.2492  0.1921
  789MOL0     C 4050   2.551  -0.053   2.654 -0.3754  1.0835 -0.1291
  789MOL0     O 4051   2.581   0.066   2.704 -0.5715 -0.4427 -0.4657
  789MOL0     C 4052   2.659   0.068   2.826 -1.1026 -0.6125 -0.0239
  789MOL0     C 4053   2.680   0.215   2.868  0.7954  0.1747 -0.8556
  789MOL0     C 4054   2.811   0.287   2.829  0.3609 -0.5142 -0.5763
  789MOL0     C 4055   2.934   0.220   2.894 -0.2433  0.2374  0.1273
  789MOL0     C 4056   2.942   0.239   3.046 -0.1961  0.5996  0.1741
  789MOL0     C 4057   3.077   0.184   3.103  0.8137  0.8827 -0.2914
  789MOL0     C 4058   3.201   0.285   3.074 -0.1676  0.6960  0.3171
  789MOL0     C 4059   3.316   0.227   3.162  0.0449  0.9257  0.5874
  789MOL0    Cl 4060   3.442   0.347   3.181 -0.0274 -0.3570 -0.4539
  789MOL0     C 4061   2.423  -0.068   2.602  0.9893  0.0388  0.7450
  789MOL0     C 4062   2.372  -0.189   2.557  0.8298 -0.4415  0.1914
  789MOL0     O 4063   2.223  -0.442   2.695 -0.7778  0.0841 -0.9469
  789MOL0     C 4064   2.191  -0.711   2.643  0.0285 -1.1603  0.0616
  789MOL0     C 4065   2.129  -0.824   2.607  0.5874 -0.0770  0.5783
  789MOL0     N 4066   1.972  -0.681   2.064 -0.0754 -0.3528 -0.5166
  789MOL0     N 4067   1.950  -0.637   1.945  0.0833 -0.3918  0.4458
  789MOL0     C 4068   1.424   0.180   2.587  0.3914 -0.1024  0.2390
  789MOL0     C 4069   1.366   0.291   2.650  0.0826  0.0012  0.0588
  789MOL0     C 4070   1.034   0.606   2.660  0.0564  0.1951  0.0049
  789MOL0     C 4071   0.985   0.617   2.797 -0.0225 -0.1017  0.7414
  789MOL0     C 4072   0.913   0.731   2.834 -0.1422 -0.4158  1.5290
  789MOL0     C 4073   0.902   0.846   2.751  0.8177 -0.0340  0.0567
  789MOL0     O 4074   0.827   0.950   2.807  0.3073 -0.9193 -0.0990
  789MOL0     C 4075   0.849   1.081   2.742  0.3459 -0.2185 -0.1474
  789MOL0     C 4076   0.766   1.192   2.801  0.3627  0.2504 -0.1084
  789MOL0     C 4077   0.781   1.210   2.956  0.1784 -1.0547 -0.2258
  789MOL0     C 4078   0.690   1.327   3.014  0.4822 -0.0304  0.5374
  789MOL0     C 4079   0.740   1.387   3.141  0.6123 -0.2616  0.7610
  789MOL0     C 4080   0.764   1.453   3.241 -0.0151 -0.5132  0.4610
  789MOL0     C 4081   0.963   0.847   2.633  0.2627 -0.1307 -0.6106
  789MOL0     C 4082   1.029   0.731   2.584  0.1730 -0.0048 -0.3100
  789MOL0     H 4083   1.046   0.209   2.563 -0.5168 -0.8374 -0.9122
  789MOL0     H 4084   1.147   0.015   2.466  0.5564 -1.1395  1.4893
  789MOL0     H 4085   1.296  -0.048   2.317  0.0650  2.5947  2.1931
  789MOL0     H 4086   1.303  -0.204   2.401 -0.2682 -0.6546  0.9010
  789MOL0     H 4087   1.538  -0.219   2.358 -0.8772 -1.6299 -1.2146
  789MOL0     H 4088   1.538  -0.078   2.276  1.8478 -1.7618  0.9514
  789MOL0     H 4089   1.383  -0.171   2.093  3.3215  0.0534 -1.0587
  789MOL0     H 4090   1.363  -0.323   2.193  0.1199 -1.4377 -1.4660
  789MOL0     H 4091   1.618  -0.222   2.066  1.6831  0.5263  1.9431
  789MOL0     H 4092   1.624  -0.338   2.188 -1.2507  4.1086  3.4876
  789MOL0     H 4093   1.470  -0.358   1.925  0.2491 -1.2350 -1.3162
  789MOL0     H 4094   1.471  -0.490   2.045 -1.5203  0.7451 -0.1012
  789MOL0     H 4095   1.701  -0.519   2.033  0.7688  1.2759  0.2807
  789MOL0     H 4096   1.726  -0.397   1.904  0.1883 -1.8392 -1.1071
  789MOL0     H 4097   1.563  -0.652   1.884  2.8526 -2.2793  0.7687
  789MOL0     H 4098   1.570  -0.531   1.754 -1.9766 -1.4379 -0.7296
  789MOL0     H 4099   1.819  -0.566   1.746  1.7137 -0.5738 -0.5415
  789MOL0     H 4100   1.728  -0.712   1.714 -1.0273 -0.5369  2.0283
  789MOL0     H 4101   1.707  -0.857   1.985  0.2549  0.2980 -2.3955
  789MOL0     H 4102   1.772  -0.827   2.261  0.6514 -2.3407  1.2451
  789MOL0     H 4103   1.955  -0.814   2.275 -0.3848 -0.1861  1.0346
  789MOL0     H 4104   2.001  -1.022   2.184  1.6013  0.0172  3.8495
  789MOL0     H 4105   1.844  -1.048   2.125 -2.3121  1.3276  0.5973
  789MOL0     H 4106   1.759  -1.067   2.373  0.5192 -0.1167 -0.8081
  789MOL0     H 4107   1.881  -1.182   2.336  0.2617 -0.2530 -0.3985
  789MOL0     H 4108   1.966  -1.119   2.531 -1.8302 -3.1485 -2.5128
  789MOL0     H 4109   1.893  -0.951   2.520 -0.7000 -1.5869  1.8042
  789MOL0     H 4110   2.220  -0.824   2.278 -0.2747 -1.4857 -0.1382
  789MOL0     H 4111   2.315  -0.614   2.336  1.3014 -3.7768 -1.2598
  789MOL0     H 4112   2.655  -0.371   2.643  0.4836  0.6445  2.9043
  789MOL0     H 4113   2.721  -0.176   2.721 -0.6769 -3.0153  1.2887
  789MOL0     H 4114   2.757   0.022   2.812 -1.0075  0.2503 -2.6703
  789MOL0     H 4115   2.611   0.022   2.913  3.1118 -0.5316  2.6925
  789MOL0     H 4116   2.681   0.215   2.978 -0.9691 -0.8239 -0.8105
  789MOL0     H 4117   2.585   0.268   2.853  1.6888  1.7780 -1.1161
  789MOL0     H 4118   2.809   0.386   2.877 -0.7714 -0.2789 -1.0544
  789MOL0     H 4119   2.815   0.292   2.720  4.0357  0.8550 -0.4889
  789MOL0     H 4120   2.938   0.112   2.877  0.4413  0.4839 -1.4981
  789MOL0     H 4121   3.026   0.254   2.846  0.9276 -1.8283  0.7516
  789MOL0     H 4122   2.857   0.183   3.086  2.3649 -2.9954  1.0977
  789MOL0     H 4123   2.937   0.344   3.079 -0.0144  0.6218  0.1315
  789MOL0     H 4124   3.089   0.080   3.069 -2.6405 -0.8180  2.9769
  789MOL0     H 4125   3.061   0.184   3.211  0.0831  1.0156 -0.3985
  789MOL0     H 4126   3.217   0.291   2.966  1.6951 -1.3083  0.4147
  789MOL0     H 4127   3.175   0.387   3.104  0.4624  1.3972 -1.3920
  789MOL0     H 4128   3.353   0.145   3.100  0.1476  0.7206  0.9174
  789MOL0     H 4129   3.282   0.192   3.260 -1.9452 -0.9435 -0.6708
  789MOL0     H 4130   2.356   0.017   2.609  1.1774  0.3258 -0.5952
  789MOL0     H 4131   2.269  -0.183   2.524  0.9434  3.4187  0.0503
  789MOL0     H 4132   2.203  -0.680   2.747 -1.5136  1.7995 -0.5439
  789MOL0     H 4133   2.087  -0.884   2.687 -0.3824 -0.9179 -0.5249
  789MOL0     H 4134   1.532   0.163   2.590  0.4220 -0.6949 -2.2443
  789MOL0     H 4135   1.432   0.362   2.700  2.5358 -2.0040 -0.1200
  789MOL0     H 4136   1.001   0.535   2.866  1.5499  1.5731  2.4860
  789MOL0     H 4137   0.849   0.733   2.921 -1.1814 -0.7275  0.7998
  789MOL0     H 4138   0.812   1.077   2.639 -0.6950  0.2207  0.1983
  789MOL0     H 4139   0.957   1.103   2.743  0.8324 -2.3496 -0.9677
  789MOL0     H 4140   0.804   1.284   2.755 -1.6527  0.3769 -1.6327
  789MOL0     H 4141   0.660   1.182   2.778 -0.5410  2.1328  2.7109
  789MOL0     H 4142   0.887   1.228   2.975 -0.3107 -0.7949  2.7396
  789MOL0     H 4143   0.751   1.119   3.008 -3.9274  1.3773  2.2985
  789MOL0     H 4144   0.702   1.405   2.937 -1.6395  0.5069  0.6963
  789MOL0     H 4145   0.588   1.290   3.013  0.5078 -0.1070 -0.7867
  789MOL0     H 4146   0.782   1.515   3.327  1.4092 -1.2611  0.7239
  789MOL0     H 4147   0.975   0.944   2.586 -3.3455  0.8445  0.1591
  789MOL0     H 4148   1.073   0.744   2.486  2.0835 -1.4045  0.3020
  790MOL0     O 4149   6.284   9.417   9.841 -0.0024  1.3555 -0.1349
  790MOL0     C 4150   6.302   9.488   9.742 -0.0963  0.0626  0.2409
  790MOL0     O 4151   6.294   9.443   9.613 -0.5554 -0.2138 -0.2832
  790MOL0     C 4152   6.242   9.321   9.572  0.3373  1.1188 -0.1609
  790MOL0     C 4153   6.292   9.271   9.454  1.0563  1.2181 -0.4555
  790MOL0     C 4154   6.245   9.149   9.390  0.5464  0.2913  0.4823
  790MOL0     C 4155   6.140   9.088   9.452  0.2251  1.1600  0.5357
  790MOL0     O 4156   6.085   8.966   9.405 -0.1526  0.1836  0.3134
  790MOL0     C 4157   6.109   8.923   9.266 -0.5399  0.4628 -0.3275
  790MOL0     C 4158   6.016   8.804   9.217  0.3721  0.0047 -0.2374
  790MOL0     C 4159   5.877   8.843   9.169 -0.3461  0.6514 -0.4609
  790MOL0     C 4160   5.797   8.732   9.093 -0.6431 -0.6993 -0.3951
  790MOL0     C 4161   5.679   8.783   9.023 -0.0499  0.1941  0.0476
  790MOL0     C 4162   5.621   8.660   8.956 -0.7610  0.0424 -0.7554
  790MOL0     C 4163   5.491   8.680   8.883 -1.0572  0.0054  0.2249
  790MOL0     C 4164   5.503   8.769   8.756  0.1101 -0.3774  0.5780
  790MOL0     N 4165   5.388   8.728   8.673 -1.0873 -0.0367  0.6052
  790MOL0     C 4166   5.379   8.610   8.596  0.2469  0.6496 -0.2972
  790MOL0     C 4167   5.250   8.598   8.546 -0.5907 -0.3419 -1.0338
  790MOL0     C 4168   5.209   8.484   8.464  0.7096 -0.0236  0.0871
  790MOL0     C 4169   5.168   8.515   8.318 -0.3429  0.6231 -0.2295
  790MOL0     C 4170   5.046   8.615   8.294  0.1899  0.1751  0.6035
  790MOL0     C 4171   4.901   8.567   8.318  0.4612 -0.3119  0.5154
  790MOL0     O 4172   4.860   8.502   8.192  0.2676 -0.1002 -0.7922
  790MOL0     C 4173   4.763   8.561   8.104 -1.4307  0.1821 -0.0809
  790MOL0     C 4174   4.719   8.700   8.106  0.2742  0.6629  1.2289
  790MOL0     C 4175   4.638   8.739   7.997 -0.3170 -0.4963 -0.2317
  790MOL0     C 4176   4.598   8.652   7.888  0.4825 -0.0709 -0.1641
  790MOL0     C 4177   4.508   8.710   7.775 -0.5570  0.0474 -0.3325
  790MOL0     O 4178   4.396   8.793   7.817  0.4050 -0.1041 -0.6001
  790MOL0     C 4179   4.326   8.856   7.712  0.3475 -1.4628 -0.6356
  790MOL0     C 4180   4.385   8.934   7.615 -0.2660 -0.4149  0.6461
  790MOL0     C 4181   4.306   8.995   7.521  0.3438  0.5705  0.6002
  790MOL0     C 4182   4.165   8.982   7.529 -0.2477 -0.2272  0.3674
  790MOL0     O 4183   4.097   9.054   7.429  0.5476 -0.2591 -0.0715
  790MOL0     C 4184   3.969   9.002   7.389 -0.6658 -0.7123  0.0213
  790MOL0     C 4185   3.863   9.088   7.440  1.0300 -0.1124 -0.6198
  790MOL0     C 4186   3.729   9.070   7.364 -0.0197 -0.1016  0.2269
  790MOL0     C 4187   3.676   8.917   7.381 -0.1011 -0.2765  0.3857
  790MOL0     C 4188   3.525   8.909   7.341  0.7944  0.0153  0.7779
  790MOL0     C 4189   3.466   8.769   7.366  0.0244 -0.7364  0.3334
  790MOL0     C 4190   3.508   8.674   7.248 -0.3334 -0.4742 -0.5963
  790MOL0     C 4191   3.523   8.533   7.287  0.3515  0.4518  0.1904
  790MOL0    Cl 4192   3.638   8.513   7.413  0.0833  0.3408 -0.0332
  790MOL0     C 4193   4.105   8.932   7.648 -0.2404  0.0366  0.2350
  790MOL0     C 4194   4.186   8.864   7.731 -0.7054 -0.7737 -0.1066
  790MOL0     O 4195   4.526   8.677   7.660  0.4767 -0.8764  0.5158
  790MOL0     C 4196   4.667   8.533   7.882 -0.0818  0.6926 -0.5841
  790MOL0     C 4197   4.732   8.483   7.993 -0.3902  0.6602 -0.2815
  790MOL0     N 4198   5.182   8.708   8.598 -0.4413  1.2045 -0.3593
  790MOL0     N 4199   5.269   8.788   8.663 -0.1386 -0.2943  1.0474
  790MOL0     C 4200   6.079   9.140   9.565  0.4843 -0.0463 -0.6839
  790MOL0     C 4201   6.131   9.261   9.622  0.0764  0.7695 -0.0012
  790MOL0     C 4202   6.331   9.630   9.756  0.0084 -0.0510 -0.9389
  790MOL0     C 4203   6.374   9.677   9.881 -0.3034 -0.0183  0.2351
  790MOL0     C 4204   6.377   9.816   9.902  0.2320  1.6635  0.8804
  790MOL0     C 4205   6.346   9.905   9.801 -1.0340 -0.0900  0.7278
  790MOL0     O 4206   6.367  10.039   9.821 -0.4874 -0.2045 -0.6485
  790MOL0     C 4207   6.456  10.103   9.721 -0.5692 -0.0278 -0.6236
  790MOL0     C 4208   6.602  10.097   9.767  0.3003 -0.1020 -0.1858
  790MOL0     C 4209   6.625  10.165   9.908 -0.1392  0.1237  1.4187
  790MOL0     C 4210   6.705  10.306   9.892  0.7791  1.4696  0.4649
  790MOL0     C 4211   6.607  10.389   9.822  1.0693 -0.5789  0.9089
  790MOL0     C 4212   6.536  10.448   9.747 -0.2948  0.7858  0.0714
  790MOL0     C 4213   6.295   9.852   9.681 -0.1712  0.2159 -0.4276
  790MOL0     C 4214   6.295   9.713   9.655  0.0819 -1.0679  0.5471
  790MOL0     H 4215   6.370   9.329   9.406  1.9125 -0.8625 -1.7645
  790MOL0     H 4216   6.287   9.115   9.296  0.8605 -1.0823  1.1049
  790MOL0     H 4217   6.216   8.900   9.266  0.3489  3.3311  3.8114
  790MOL0     H 4218   6.097   9.012   9.204  2.1242  0.4316 -0.9905
  790MOL0     H 4219   6.007   8.732   9.299 -0.6089  3.3044  2.8170
  790MOL0     H 4220   6.074   8.746   9.145 -0.2258  2.1360 -2.5481
  790MOL0     H 4221   5.884   8.929   9.101  1.3146  1.7867  1.0533
  790MOL0     H 4222   5.825   8.865   9.263 -3.1684 -3.7113 -0.7198
  790MOL0     H 4223   5.863   8.687   9.018 -1.4130 -1.4631 -0.6308
  790MOL0     H 4224   5.776   8.649   9.160 -0.4591 -0.0370  0.4945
  790MOL0     H 4225   5.697   8.862   8.948 -4.2296 -0.2253 -1.6909
  790MOL0     H 4226   5.607   8.815   9.099 -1.5807  0.6142 -1.5138
  790MOL0     H 4227   5.602   8.588   9.036 -0.9391  0.1660 -0.6870
  790MOL0     H 4228   5.696   8.609   8.895  1.2766  2.3798 -0.3978
  790MOL0     H 4229   5.473   8.577   8.851  2.1096 -0.1583 -1.4029
  790MOL0     H 4230   5.408   8.707   8.949  0.0404 -0.5341  1.8844
  790MOL0     H 4231   5.593   8.751   8.697  2.3277  2.5328  2.7354
  790MOL0     H 4232   5.506   8.878   8.771  1.7184 -0.1291 -1.1641
  790MOL0     H 4233   5.449   8.533   8.564 -1.1996 -0.0339 -2.0074
  790MOL0     H 4234   5.125   8.443   8.521 -0.3964 -1.6935 -2.5648
  790MOL0     H 4235   5.290   8.411   8.461  0.9597  0.1150  2.0763
  790MOL0     H 4236   5.150   8.424   8.260 -0.9934  0.4732  0.1936
  790MOL0     H 4237   5.258   8.561   8.277  0.2032  1.8666  2.1313
  790MOL0     H 4238   5.060   8.697   8.364  0.8478  0.3196  0.3037
  790MOL0     H 4239   5.041   8.642   8.188 -1.8026  1.2090  0.8978
  790MOL0     H 4240   4.830   8.647   8.343 -1.5507 -2.0637  0.7432
  790MOL0     H 4241   4.915   8.495   8.399  3.0684 -1.6490 -1.0122
  790MOL0     H 4242   4.737   8.767   8.189 -0.9563 -0.0427  2.0865
  790MOL0     H 4243   4.611   8.843   8.006  0.6337 -0.4250  2.6980
  790MOL0     H 4244   4.492   8.950   7.609 -0.3815  0.6592  1.2905
  790MOL0     H 4245   4.350   9.046   7.436 -1.7918 -0.1524 -1.0235
  790MOL0     H 4246   3.958   8.903   7.436  1.9466 -0.5944  1.0944
  790MOL0     H 4247   3.966   9.005   7.280 -2.1236  2.2471  0.0598
  790MOL0     H 4248   3.890   9.194   7.436  0.6038  0.2845  3.2557
  790MOL0     H 4249   3.848   9.080   7.548 -2.1626  5.0447 -0.3198
  790MOL0     H 4250   3.737   9.077   7.255 -0.5193 -0.7238  0.1431
  790MOL0     H 4251   3.652   9.139   7.400 -1.4700 -1.6505  0.2320
  790MOL0     H 4252   3.737   8.851   7.320 -0.1659 -0.7974  0.8761
  790MOL0     H 4253   3.697   8.886   7.484  0.0031 -0.8159  0.2009
  790MOL0     H 4254   3.504   8.931   7.236  4.9331 -1.2317 -0.5070
  790MOL0     H 4255   3.474   8.977   7.410  0.6882  2.2901 -1.4007
  790MOL0     H 4256   3.358   8.772   7.381  0.1462 -0.7748  1.2741
  790MOL0     H 4257   3.506   8.732   7.461 -0.4209 -0.9421  0.4420
  790MOL0     H 4258   3.434   8.679   7.167 -1.0837  1.0423  0.1467
  790MOL0     H 4259   3.608   8.696   7.207  0.5722 -0.9391  1.2709
  790MOL0     H 4260   3.553   8.478   7.196 -2.0651 -1.0837  0.2272
  790MOL0     H 4261   3.428   8.492   7.322  0.1953  1.9201  1.5909
  790MOL0     H 4262   3.998   8.930   7.668 -0.2641 -0.6456  0.0823
  790MOL0     H 4263   4.149   8.807   7.815 -0.0648 -0.6117  0.2972
  790MOL0     H 4264   4.644   8.464   7.802 -2.4737  0.5003  0.1906
  790MOL0     H 4265   4.792   8.393   7.984 -0.8323  0.3691 -0.3620
  790MOL0     H 4266   5.987   9.090   9.594  1.2408 -3.8839 -3.8563
  790MOL0     H 4267   6.090   9.297   9.716  0.4591 -2.3605  1.4980
  790MOL0     H 4268   6.406   9.612   9.962  0.5737  0.9343  0.6685
  790MOL0     H 4269   6.400   9.854  10.000 -0.6304  1.0321  1.3389
  790MOL0     H 4270   6.429  10.209   9.717  1.0999  0.4348 -4.2994
  790MOL0     H 4271   6.450  10.064   9.619 -4.0227 -1.6945  0.0659
  790MOL0     H 4272   6.629   9.991   9.767  1.5406  0.1734 -2.0094
  790MOL0     H 4273   6.664  10.148   9.693  1.2281 -2.8045 -1.3747
  790MOL0     H 4274   6.679  10.096   9.973  3.1632  1.8549  0.6920
  790MOL0     H 4275   6.532  10.182   9.964 -0.7553 -4.3912  2.1497
  790MOL0     H 4276   6.741  10.340   9.989  2.8020 -2.8789  1.4837
  790MOL0     H 4277   6.801  10.304   9.839  1.2483  3.2883  1.1705
  790MOL0     H 4278   6.477  10.500   9.675 -1.1555  0.0847  0.2580
  790MOL0     H 4279   6.263   9.920   9.603  4.3203  1.6281 -1.3198
  790MOL0     H 4280   6.249   9.692   9.559 -0.3488  0.4428  0.3957
  791MOL0     O 4281  10.388  10.233   2.910  0.2904 -0.7018 -0.1025
  791MOL0     C 4282  10.375  10.292   3.018  0.0211 -0.5842 -0.4187
  791MOL0     O 4283  10.373  10.424   3.048  0.7631 -0.3683 -0.3838
  791MOL0     C 4284  10.428  10.509   2.948  0.7373  0.1976 -0.3539
  791MOL0     C 4285  10.561  10.485   2.905  0.3158 -0.4754 -0.4179
  791MOL0     C 4286  10.617  10.574   2.806 -0.4426 -0.2811 -0.2438
  791MOL0     C 4287  10.548  10.695   2.775 -0.3552  0.2442 -1.1526
  791MOL0     O 4288  10.616  10.779   2.689  0.5424  0.3135 -0.0165
  791MOL0     C 4289  10.605  10.915   2.711 -0.0388  0.7414  0.2540
  791MOL0     C 4290  10.725  10.990   2.664 -0.6840  0.2826  0.9204
  791MOL0     C 4291  10.702  11.142   2.666  0.3509  0.5984 -0.0839
  791MOL0     C 4292  10.786  11.228   2.571 -0.0004  0.9522 -0.4568
  791MOL0     C 4293  10.927  11.245   2.632  0.4099 -0.3961  0.1502
  791MOL0     C 4294  10.936  11.349   2.751 -0.2265  0.6203 -0.2728
  791MOL0     C 4295  11.076  11.378   2.793  0.0900  1.1266 -0.0297
  791MOL0     C 4296  11.130  11.258   2.866  0.1197 -0.3392 -0.8989
  791MOL0     N 4297  11.262  11.212   2.825 -0.4604 -0.7439  0.0674
  791MOL0     C 4298  11.319  11.093   2.865 -0.5025  1.1107  0.2745
  791MOL0     C 4299  11.445  11.087   2.822  0.5361  0.1558 -0.1180
  791MOL0     C 4300  11.545  10.977   2.845  0.1613  0.2083 -0.2427
  791MOL0     C 4301  11.498  10.848   2.801  0.4448 -0.9662  0.5544
  791MOL0     C 4302  11.578  10.736   2.850  0.5361  0.0146 -0.1670
  791MOL0     C 4303  11.541  10.604   2.775  1.1825 -0.4598  0.4811
  791MOL0     O 4304  11.401  10.568   2.800  0.5617 -0.4427  0.0299
  791MOL0     C 4305  11.360  10.538   2.931 -0.4913  0.0197  0.6432
  791MOL0     C 4306  11.247  10.600   2.991 -0.6384  0.8003 -1.0301
  791MOL0     C 4307  11.213  10.580   3.125 -0.4026 -0.3089 -0.0690
  791MOL0     C 4308  11.284  10.493   3.203 -0.1205  0.9327  1.3707
  791MOL0     C 4309  11.269  10.487   3.343 -0.3382 -0.2495  0.1315
  791MOL0     O 4310  11.373  10.430   3.414 -0.0179  0.4243  0.0455
  791MOL0     C 4311  11.373  10.438   3.549 -0.4470 -1.1348  0.3459
  791MOL0     C 4312  11.487  10.497   3.599  0.4619  0.5376 -0.6125
  791MOL0     C 4313  11.495  10.536   3.734  0.6249  0.3233 -0.6164
  791MOL0     C 4314  11.391  10.495   3.824 -0.5301  0.3415 -0.2170
  791MOL0     O 4315  11.414  10.527   3.957 -0.2115  0.6272  0.8191
  791MOL0     C 4316  11.355  10.435   4.049 -0.2079 -0.1130 -0.8868
  791MOL0     C 4317  11.323  10.515   4.177 -0.3049 -0.8819  0.5783
  791MOL0     C 4318  11.227  10.445   4.280  0.0456  1.1517 -0.2811
  791MOL0     C 4319  11.300  10.318   4.330  0.1509 -0.1184  0.2463
  791MOL0     C 4320  11.211  10.260   4.444 -0.4684  0.9657  0.9098
  791MOL0     C 4321  11.273  10.139   4.525 -0.5703  0.8752 -0.6426
  791MOL0     C 4322  11.188  10.092   4.639  0.0234  0.2697  0.5003
  791MOL0     C 4323  11.240   9.969   4.708  0.9983  0.1961  0.5300
  791MOL0    Cl 4324  11.319  10.020   4.868  0.1849 -0.3106 -0.4034
  791MOL0     C 4325  11.280  10.432   3.773  0.1440  0.5657 -0.6436
  791MOL0     C 4326  11.269  10.409   3.635 -0.3380  0.3373  0.1081
  791MOL0     O 4327  11.172  10.536   3.399 -0.6635 -1.2831 -0.0123
  791MOL0     C 4328  11.400  10.421   3.140  0.6984  0.9890 -0.1298
  791MOL0     C 4329  11.449  10.455   3.004  1.5781  0.9700 -0.2028
  791MOL0     N 4330  11.457  11.205   2.754 -0.4381  0.3285 -0.5324
  791MOL0     N 4331  11.357  11.281   2.762  0.6385  0.2511 -0.6201
  791MOL0     C 4332  10.424  10.715   2.833  0.5636 -1.0102  0.5403
  791MOL0     C 4333  10.358  10.624   2.911 -1.0687 -0.0572  0.4486
  791MOL0     C 4334  10.349  10.200   3.140 -0.0998  0.3275 -0.0847
  791MOL0     C 4335  10.304  10.249   3.265  0.3509 -0.7055  0.7622
  791MOL0     C 4336  10.272  10.166   3.373  0.9055 -0.2587 -0.2686
  791MOL0     C 4337  10.287  10.028   3.363  0.3099 -0.0978  0.6065
  791MOL0     O 4338  10.246   9.930   3.456 -0.5829 -0.3854 -0.0601
  791MOL0     C 4339  10.187   9.973   3.582 -1.1099 -0.1174 -0.1718
  791MOL0     C 4340  10.143   9.860   3.675  0.2490 -0.1778 -0.5357
  791MOL0     C 4341  10.074   9.932   3.789 -0.8077 -0.5220 -0.0622
  791MOL0     C 4342   9.990   9.819   3.856  0.6776 -0.0862  0.2501
  791MOL0     C 4343  10.081   9.719   3.912 -1.2316  0.1943 -0.6320
  791MOL0     C 4344  10.130   9.622   3.975 -0.2209  0.0583  0.4394
  791MOL0     C 4345  10.357   9.983   3.248  0.0642 -0.5649 -0.6377
  791MOL0     C 4346  10.390  10.073   3.145 -0.4594  0.5024  0.3639
  791MOL0     H 4347  10.609  10.395   2.942 -2.8724 -1.5597  1.4484
  791MOL0     H 4348  10.714  10.553   2.762 -0.6191 -0.2413 -0.6534
  791MOL0     H 4349  10.578  10.949   2.812 -4.0602 -3.0001  0.7579
  791MOL0     H 4350  10.519  10.940   2.648  0.8024  0.6646 -0.9564
  791MOL0     H 4351  10.759  10.966   2.563  0.5330 -0.3506  1.4546
  791MOL0     H 4352  10.806  10.976   2.736 -0.3961 -0.6549  0.4313
  791MOL0     H 4353  10.702  11.182   2.768 -1.6793  4.6643 -1.4497
  791MOL0     H 4354  10.601  11.159   2.627  0.7032 -1.5200 -2.1392
  791MOL0     H 4355  10.787  11.180   2.473 -2.5455 -0.2816  0.0341
  791MOL0     H 4356  10.736  11.324   2.552 -2.0796 -0.1511 -0.8720
  791MOL0     H 4357  10.996  11.283   2.555  0.4530  1.8247  1.2036
  791MOL0     H 4358  10.966  11.150   2.669  1.0512  0.4132  1.6560
  791MOL0     H 4359  10.865  11.335   2.833 -1.2770  0.8531 -1.1229
  791MOL0     H 4360  10.908  11.441   2.699  3.0502  0.5467 -2.4137
  791MOL0     H 4361  11.133  11.395   2.701 -3.2595  1.1781 -2.2618
  791MOL0     H 4362  11.079  11.464   2.860  0.2823  0.2198  1.1587
  791MOL0     H 4363  11.065  11.170   2.861  1.8951 -1.9017  1.3961
  791MOL0     H 4364  11.128  11.291   2.971  0.0971 -0.1555 -0.9555
  791MOL0     H 4365  11.279  11.013   2.926 -2.0391  1.7566  0.1674
  791MOL0     H 4366  11.553  10.985   2.954 -1.6968  2.0551 -0.1748
  791MOL0     H 4367  11.640  11.005   2.799  0.9499 -3.5285 -1.2438
  791MOL0     H 4368  11.508  10.859   2.692 -0.0723 -1.4267  0.4523
  791MOL0     H 4369  11.389  10.845   2.814 -0.0098  3.2590 -0.8192
  791MOL0     H 4370  11.683  10.756   2.827  0.5097  0.5996  0.2025
  791MOL0     H 4371  11.563  10.724   2.958  0.4582  1.2800 -0.0287
  791MOL0     H 4372  11.612  10.526   2.802  2.2653  1.2515  2.9705
  791MOL0     H 4373  11.559  10.629   2.670  2.5900 -3.1676  0.0104
  791MOL0     H 4374  11.187  10.662   2.925 -0.4633  2.5375  0.3619
  791MOL0     H 4375  11.125  10.628   3.168  1.0398 -0.0211  2.7698
  791MOL0     H 4376  11.566  10.534   3.534  1.6254  0.0629  0.4646
  791MOL0     H 4377  11.584  10.585   3.773  1.7522 -2.1228  0.0787
  791MOL0     H 4378  11.409  10.347   4.085  0.1139  1.5536  3.2903
  791MOL0     H 4379  11.261  10.394   4.011 -0.4079 -0.0209 -0.4898
  791MOL0     H 4380  11.268  10.604   4.147  1.4393  0.9189  2.3867
  791MOL0     H 4381  11.413  10.543   4.233 -0.4590 -1.2106  0.9948
  791MOL0     H 4382  11.129  10.415   4.242  0.5071  0.5062 -0.9886
  791MOL0     H 4383  11.194  10.521   4.351  0.0424  0.6072  0.3130
  791MOL0     H 4384  11.312  10.253   4.242  0.6779 -2.6404  2.0589
  791MOL0     H 4385  11.399  10.342   4.370 -0.8369  2.4596  1.3989
  791MOL0     H 4386  11.116  10.222   4.406  0.6780 -1.4203  0.2414
  791MOL0     H 4387  11.182  10.339   4.514 -3.1584  1.1958 -0.3496
  791MOL0     H 4388  11.373  10.175   4.552 -0.5485  2.2463 -2.4055
  791MOL0     H 4389  11.266  10.053   4.457 -3.6043 -1.9456  2.8216
  791MOL0     H 4390  11.170  10.174   4.709 -0.7662 -0.9800  1.8037
  791MOL0     H 4391  11.092  10.069   4.592  0.4597 -0.9881  0.1916
  791MOL0     H 4392  11.302   9.909   4.642 -1.9601 -0.9297 -1.4108
  791MOL0     H 4393  11.159   9.902   4.735  0.6446 -0.3792 -1.8161
  791MOL0     H 4394  11.195  10.393   3.829  1.4539 -1.9512 -0.2286
  791MOL0     H 4395  11.183  10.367   3.584 -0.9190  1.4948  0.1126
  791MOL0     H 4396  11.457  10.347   3.197 -1.5666  0.1450  1.1738
  791MOL0     H 4397  11.526  10.397   2.955  2.2772  0.3097  1.5803
  791MOL0     H 4398  10.373  10.810   2.823 -0.8229 -1.7589  0.3006
  791MOL0     H 4399  10.267  10.657   2.960  0.4325  2.0459  2.0082
  791MOL0     H 4400  10.298  10.357   3.273 -2.3646 -0.5628 -1.6146
  791MOL0     H 4401  10.233  10.203   3.467 -2.0600 -1.5196 -0.8612
  791MOL0     H 4402  10.100  10.037   3.565 -1.6069 -0.7140  0.0723
  791MOL0     H 4403  10.255  10.038   3.637 -0.1728 -2.1570  1.1951
  791MOL0     H 4404  10.080   9.788   3.622 -0.3862  0.2903 -0.4272
  791MOL0     H 4405  10.229   9.802   3.709 -1.7900 -2.8049  0.4555
  791MOL0     H 4406  10.023  10.022   3.753  2.1052 -0.3071 -4.4550
  791MOL0     H 4407  10.155   9.962   3.856 -0.7902 -0.5315 -0.0804
  791MOL0     H 4408   9.929   9.864   3.934  0.2174 -0.9771  0.4170
  791MOL0     H 4409   9.920   9.770   3.787 -2.2418 -0.9842  3.5809
  791MOL0     H 4410  10.164   9.536   4.031  2.1881 -1.4150 -2.9023
  791MOL0     H 4411  10.396   9.882   3.249 -1.1782 -1.1366  2.4377
  791MOL0     H 4412  10.450  10.031   3.065 -2.3526 -1.3648 -0.1819
  792MOL0     O 4413   7.120   7.330   6.002  0.2386 -0.1110 -0.4628
  792MOL0     C 4414   7.236   7.360   6.017  0.1765 -0.5371  0.0072
  792MOL0     O 4415   7.300   7.463   5.964 -0.4976 -0.0017 -0.0105
  792MOL0     C 4416   7.241   7.550   5.871  0.2829  0.3818  0.7920
  792MOL0     C 4417   7.212   7.677   5.906  0.0606  0.4964  0.3800
  792MOL0     C 4418   7.149   7.764   5.821  0.2694  0.0703 -0.0837
  792MOL0     C 4419   7.118   7.727   5.686  0.8406  0.1483 -0.5903
  792MOL0     O 4420   7.065   7.809   5.592 -0.3452 -1.0312  0.4056
  792MOL0     C 4421   6.990   7.922   5.636  0.2976 -0.2434 -0.0466
  792MOL0     C 4422   6.950   7.999   5.502 -0.1139 -0.3421 -0.6876
  792MOL0     C 4423   6.893   8.141   5.532  0.4545 -0.5358 -1.1714
  792MOL0     C 4424   6.850   8.210   5.403  1.0507  0.7847 -0.3462
  792MOL0     C 4425   6.762   8.342   5.432  0.2442 -0.1088 -0.0012
  792MOL0     C 4426   6.725   8.404   5.301 -0.2363 -0.3869  0.2260
  792MOL0     C 4427   6.636   8.528   5.310 -0.8138  0.3317  0.1421
  792MOL0     C 4428   6.496   8.503   5.350  0.6810 -1.0644  0.4542
  792MOL0     N 4429   6.421   8.454   5.230  0.2628 -0.2343 -0.5865
  792MOL0     C 4430   6.380   8.534   5.120 -0.3460 -0.2762 -0.6547
  792MOL0     C 4431   6.330   8.445   5.035 -0.0254  0.4247  0.4369
  792MOL0     C 4432   6.271   8.478   4.897 -1.5801  0.1120 -0.6198
  792MOL0     C 4433   6.135   8.538   4.916  0.0156 -0.8369 -0.4205
  792MOL0     C 4434   6.099   8.646   4.822  0.4287  0.0002  0.0468
  792MOL0     C 4435   5.946   8.650   4.790  0.7141  0.6205 -0.5688
  792MOL0     O 4436   5.859   8.673   4.912 -0.3037  0.8183 -0.8542
  792MOL0     C 4437   5.766   8.769   4.891  0.2556  0.0383  0.2762
  792MOL0     C 4438   5.685   8.770   4.773  0.5394  0.2108  0.5365
  792MOL0     C 4439   5.584   8.870   4.773 -0.3161 -1.2984  1.0028
  792MOL0     C 4440   5.562   8.968   4.868  0.1758  0.5434  0.2853
  792MOL0     C 4441   5.453   9.074   4.857 -0.8025  0.3674 -0.9417
  792MOL0     O 4442   5.435   9.112   4.734 -0.0794  0.5564  0.6370
  792MOL0     C 4443   5.334   9.208   4.720 -0.3533  0.3254  1.1174
  792MOL0     C 4444   5.204   9.211   4.773  1.0307 -0.1888  1.1510
  792MOL0     C 4445   5.115   9.311   4.734 -0.3657  0.7562 -1.1126
  792MOL0     C 4446   5.148   9.421   4.661  0.2855  0.3494 -0.1972
  792MOL0     O 4447   5.049   9.506   4.619  0.2437 -0.5833  0.3660
  792MOL0     C 4448   5.097   9.618   4.543  1.2035 -0.2054  0.3229
  792MOL0     C 4449   4.968   9.698   4.494 -0.7473 -0.3749 -0.8705
  792MOL0     C 4450   4.977   9.845   4.439  0.5449  0.6166 -0.3660
  792MOL0     C 4451   5.008   9.943   4.558  0.0355  0.4850  0.1460
  792MOL0     C 4452   4.957  10.084   4.549 -0.7000  0.3451  0.1534
  792MOL0     C 4453   4.989  10.175   4.674  0.2205  0.1292  0.5937
  792MOL0     C 4454   4.961  10.320   4.656 -0.8009  0.8028 -0.7098
  792MOL0     C 4455   5.048  10.410   4.744 -1.1689  0.1103 -0.1917
  792MOL0    Cl 4456   5.214  10.389   4.677 -0.0423 -0.1937  0.1010
  792MOL0     C 4457   5.277   9.411   4.603  0.1364  0.4664  0.1191
  792MOL0     C 4458   5.367   9.303   4.627  0.4230 -0.4923 -0.0038
  792MOL0     O 4459   5.387   9.113   4.961 -0.6220  0.2385 -0.3753
  792MOL0     C 4460   5.631   8.958   4.992 -1.1933  0.1844  0.7459
  792MOL0     C 4461   5.721   8.849   4.997 -0.7546  0.0141 -0.1023
  792MOL0     N 4462   6.354   8.313   5.079 -0.2386  0.0350 -0.4919
  792MOL0     N 4463   6.408   8.322   5.195  0.2912  0.9647  0.3077
  792MOL0     C 4464   7.155   7.606   5.641 -0.3234  0.4263 -0.1007
  792MOL0     C 4465   7.212   7.511   5.739  0.1682 -0.2553  0.0977
  792MOL0     C 4466   7.328   7.280   6.097 -0.5564  0.3222 -0.0914
  792MOL0     C 4467   7.469   7.287   6.080  0.6522 -0.1522  0.1576
  792MOL0     C 4468   7.553   7.217   6.172  0.2028  0.8592  0.0477
  792MOL0     C 4469   7.500   7.130   6.266 -0.2881 -0.7271  0.2933
  792MOL0     O 4470   7.583   7.039   6.322  0.2984 -0.3142 -0.6038
  792MOL0     C 4471   7.550   6.996   6.453  0.1822  0.6423  0.2648
  792MOL0     C 4472   7.665   6.912   6.514  0.5421 -0.1060  0.5052
  792MOL0     C 4473   7.698   6.795   6.425 -0.5338 -1.2649 -0.2875
  792MOL0     C 4474   7.779   6.686   6.491 -0.3428  0.1668 -0.2977
  792MOL0     C 4475   7.913   6.735   6.521 -0.1363 -1.1140  0.5019
  792MOL0     C 4476   8.030   6.771   6.534  0.5380  1.1777 -0.0674
  792MOL0     C 4477   7.361   7.136   6.282  0.4158  1.1941 -0.2627
  792MOL0     C 4478   7.269   7.217   6.208 -0.0949  0.1551  1.4741
  792MOL0     H 4479   7.240   7.701   6.008 -0.8524  0.1344  0.7240
  792MOL0     H 4480   7.125   7.865   5.855 -1.0433  0.3050 -1.5906
  792MOL0     H 4481   7.052   7.984   5.701  2.8423 -4.1584  1.6919
  792MOL0     H 4482   6.908   7.880   5.694  0.4907  2.5156  2.4375
  792MOL0     H 4483   6.885   7.939   5.438 -0.4457 -2.2538  1.3100
  792MOL0     H 4484   7.039   8.000   5.439  0.4096 -4.2607 -0.2587
  792MOL0     H 4485   6.975   8.186   5.591 -0.5618 -0.3083  0.1276
  792MOL0     H 4486   6.815   8.131   5.608  2.5391  0.2808  1.2323
  792MOL0     H 4487   6.930   8.229   5.331 -0.5982  1.5009 -2.0866
  792MOL0     H 4488   6.779   8.143   5.355  2.3923 -1.9914  1.3102
  792MOL0     H 4489   6.813   8.417   5.493 -2.3388  0.4656  1.5934
  792MOL0     H 4490   6.671   8.325   5.491  0.5176  3.0157  1.5006
  792MOL0     H 4491   6.670   8.337   5.234 -1.3654  1.5343 -0.8689
  792MOL0     H 4492   6.817   8.436   5.252 -2.8164  1.6358 -3.8857
  792MOL0     H 4493   6.677   8.596   5.385 -0.6428 -1.9990  2.2727
  792MOL0     H 4494   6.626   8.582   5.215 -1.2471 -3.9790 -2.5083
  792MOL0     H 4495   6.463   8.597   5.395  0.2416 -1.9309  2.0172
  792MOL0     H 4496   6.478   8.427   5.427 -2.0370  0.0825  1.0672
  792MOL0     H 4497   6.377   8.642   5.116  0.1118 -0.2469 -0.4154
  792MOL0     H 4498   6.252   8.380   4.851 -0.6818 -0.6847  0.6368
  792MOL0     H 4499   6.332   8.541   4.832  0.6570 -0.7247  0.5613
  792MOL0     H 4500   6.122   8.575   5.018  2.4109  0.0733 -0.3764
  792MOL0     H 4501   6.072   8.449   4.905 -2.1047  0.3565  1.3498
  792MOL0     H 4502   6.139   8.747   4.836  1.2208 -0.2511 -0.3066
  792MOL0     H 4503   6.152   8.635   4.726 -0.6418 -1.5689 -0.4038
  792MOL0     H 4504   5.925   8.567   4.722  1.3153 -0.4506  0.5053
  792MOL0     H 4505   5.942   8.740   4.728 -1.5925 -0.3952 -2.0218
  792MOL0     H 4506   5.696   8.694   4.696 -1.6370  0.2526  0.1163
  792MOL0     H 4507   5.514   8.867   4.691 -2.4335  1.3927  2.5278
  792MOL0     H 4508   5.175   9.137   4.847  0.7368 -0.2686  0.9596
  792MOL0     H 4509   5.014   9.296   4.771 -0.6604  2.3885 -1.2081
  792MOL0     H 4510   5.151   9.590   4.452  0.7349 -2.5812  0.7254
  792MOL0     H 4511   5.162   9.687   4.598  1.9686  0.8672 -1.7893
  792MOL0     H 4512   4.902   9.696   4.581  1.0019 -2.3131  0.5122
  792MOL0     H 4513   4.933   9.636   4.411  1.7025 -0.0800 -2.2431
  792MOL0     H 4514   4.877   9.868   4.402  0.2629  0.1219  0.0679
  792MOL0     H 4515   5.046   9.860   4.355  0.9252 -2.2971 -0.7077
  792MOL0     H 4516   4.946   9.901   4.637  0.8315 -0.1171  0.4604
  792MOL0     H 4517   5.114   9.928   4.581  0.6109  0.3670 -2.3105
  792MOL0     H 4518   4.849  10.081   4.531 -0.9362  0.6628  1.4558
  792MOL0     H 4519   5.006  10.132   4.464  1.5422  0.8205  1.6558
  792MOL0     H 4520   5.093  10.146   4.695  0.5331  1.0017  0.2941
  792MOL0     H 4521   4.926  10.135   4.754 -1.1885 -0.4127 -0.7358
  792MOL0     H 4522   4.998  10.350   4.557 -0.1660 -2.1924 -1.4589
  792MOL0     H 4523   4.853  10.341   4.650 -0.3139  3.4666 -5.3721
  792MOL0     H 4524   5.039  10.378   4.848 -1.3719 -0.8539 -0.4974
  792MOL0     H 4525   5.015  10.510   4.714 -0.7674  0.0871 -0.7470
  792MOL0     H 4526   5.307   9.478   4.523  0.4090 -0.2661 -0.4136
  792MOL0     H 4527   5.464   9.296   4.578 -1.3688 -3.4492 -3.7067
  792MOL0     H 4528   5.621   9.036   5.067  2.7190 -1.0931  2.9295
  792MOL0     H 4529   5.780   8.840   5.089  0.5417  3.6238 -0.4257
  792MOL0     H 4530   7.136   7.591   5.535 -0.5843 -0.8801  0.1109
  792MOL0     H 4531   7.246   7.416   5.701  0.5985 -0.1274  0.1537
  792MOL0     H 4532   7.514   7.326   5.989  0.9941  1.7343  1.0677
  792MOL0     H 4533   7.660   7.221   6.152  0.1224  3.4671 -0.1097
  792MOL0     H 4534   7.459   6.936   6.460 -0.1222  1.1760  1.0796
  792MOL0     H 4535   7.529   7.084   6.514 -1.1148 -0.2730  1.1988
  792MOL0     H 4536   7.750   6.980   6.526 -0.9178  1.5199  2.3735
  792MOL0     H 4537   7.647   6.880   6.616  0.9202  3.3459  1.7917
  792MOL0     H 4538   7.761   6.845   6.352 -1.4442  6.7345  3.2810
  792MOL0     H 4539   7.598   6.773   6.387 -0.5116 -0.4733 -0.8236
  792MOL0     H 4540   7.727   6.660   6.583 -3.2678  3.6177 -0.7474
  792MOL0     H 4541   7.797   6.596   6.432  4.7489  1.0159 -0.4936
  792MOL0     H 4542   8.134   6.796   6.546  2.2948 -4.1341 -1.1253
  792MOL0     H 4543   7.307   7.072   6.352 -0.8637  0.7028 -1.6202
  792MOL0     H 4544   7.162   7.227   6.220 -0.7761 -0.8663 -2.4530
  793MOL0     O 4545   8.720   9.249   8.811  0.1103 -0.2607 -0.2695
  793MOL0     C 4546   8.696   9.164   8.899 -0.7691 -0.1956  0.7161
  793MOL0     O 4547   8.576   9.111   8.924 -0.0982 -0.6773  0.0873
  793MOL0     C 4548   8.468   9.161   8.860 -0.9026 -0.2922  0.2843
  793MOL0     C 4549   8.411   9.283   8.903 -0.2836  1.1705  0.3543
  793MOL0     C 4550   8.284   9.328   8.859 -1.0320 -0.7668  0.6395
  793MOL0     C 4551   8.219   9.263   8.757  0.0618  0.4018 -0.4491
  793MOL0     O 4552   8.093   9.295   8.720 -0.4266  0.3239  0.1343
  793MOL0     C 4553   8.049   9.430   8.732 -0.7349  0.3479 -0.3513
  793MOL0     C 4554   7.925   9.450   8.643  0.6145 -0.3190 -0.9720
  793MOL0     C 4555   7.882   9.599   8.617  0.1654  0.0739  1.1985
  793MOL0     C 4556   7.747   9.605   8.546  0.7391  0.1691 -0.0443
  793MOL0     C 4557   7.689   9.752   8.557  0.5559 -0.5073 -0.0792
  793MOL0     C 4558   7.765   9.844   8.453 -0.7657 -0.1943  0.7428
  793MOL0     C 4559   7.708   9.987   8.441 -0.0786  0.4945  0.5221
  793MOL0     C 4560   7.715  10.056   8.583 -0.4762 -0.5546  0.2601
  793MOL0     N 4561   7.852  10.078   8.613 -0.6847  0.8356 -0.4749
  793MOL0     C 4562   7.913  10.024   8.730  0.0995  1.2744 -0.1909
  793MOL0     C 4563   8.038  10.069   8.739 -0.1616 -0.3257  0.4846
  793MOL0     C 4564   8.143  10.029   8.835  0.1464  0.7568 -0.7461
  793MOL0     C 4565   8.211  10.144   8.896  0.0737  0.2042  0.3875
  793MOL0     C 4566   8.318  10.106   9.008 -0.3200  0.7277 -0.1848
  793MOL0     C 4567   8.393  10.235   9.050  0.5317 -0.1375 -0.5986
  793MOL0     O 4568   8.423  10.332   8.947 -0.1564  0.3835  0.2754
  793MOL0     C 4569   8.411  10.467   8.961 -0.8413 -0.5536 -0.0583
  793MOL0     C 4570   8.469  10.534   9.072  0.5832  0.8868  0.1358
  793MOL0     C 4571   8.441  10.670   9.090  0.0176 -0.9017  0.4858
  793MOL0     C 4572   8.368  10.743   8.997  0.2563  0.0906  0.0534
  793MOL0     C 4573   8.348  10.888   9.016  0.4083 -0.3718 -0.0733
  793MOL0     O 4574   8.266  10.958   8.927 -0.2063  0.5850  0.1540
  793MOL0     C 4575   8.254  11.095   8.917 -0.3077 -0.3637  0.1667
  793MOL0     C 4576   8.345  11.187   8.985  0.0788 -0.2289  0.7902
  793MOL0     C 4577   8.338  11.322   8.969  0.1269  0.2570  1.1330
  793MOL0     C 4578   8.230  11.368   8.888 -0.2786 -0.1248 -0.5890
  793MOL0     O 4579   8.212  11.503   8.871  0.2040 -0.1186 -0.9331
  793MOL0     C 4580   8.314  11.597   8.869 -0.2722  0.2110 -0.2895
  793MOL0     C 4581   8.282  11.698   8.760 -1.0787 -0.0859  0.8269
  793MOL0     C 4582   8.381  11.821   8.754 -0.7169  0.4708 -0.3957
  793MOL0     C 4583   8.335  11.900   8.631 -0.9593 -0.3412 -0.2397
  793MOL0     C 4584   8.421  12.028   8.610  0.4141  0.6699 -0.2711
  793MOL0     C 4585   8.559  12.002   8.548 -0.2341 -0.3735  0.0420
  793MOL0     C 4586   8.600  12.138   8.477  0.1812  0.0861 -0.1960
  793MOL0     C 4587   8.730  12.124   8.405  0.6554  0.6512 -0.9395
  793MOL0    Cl 4588   8.775  12.274   8.329 -0.2890 -0.1077  0.3440
  793MOL0     C 4589   8.142  11.279   8.825  0.2400 -0.4487  0.2274
  793MOL0     C 4590   8.155  11.142   8.831  0.9707  0.8763  1.0280
  793MOL0     O 4591   8.411  10.943   9.105  0.0913  0.3004 -0.2795
  793MOL0     C 4592   8.312  10.673   8.879  0.3829 -0.4418 -0.3089
  793MOL0     C 4593   8.330  10.533   8.868 -0.2823  0.5187 -0.0771
  793MOL0     N 4594   8.045  10.170   8.639  0.2861 -0.0351 -0.0465
  793MOL0     N 4595   7.934  10.168   8.568 -0.2351 -1.2319 -0.0248
  793MOL0     C 4596   8.269   9.131   8.720 -0.2315 -0.8194  0.4706
  793MOL0     C 4597   8.395   9.088   8.766  0.0032 -0.2967 -0.6610
  793MOL0     C 4598   8.808   9.138   8.985  0.2671 -0.0502 -0.3918
  793MOL0     C 4599   8.938   9.147   8.933  0.4669 -0.3689  0.4731
  793MOL0     C 4600   9.055   9.113   9.005  0.4228  0.0033 -0.5231
  793MOL0     C 4601   9.037   9.057   9.131  0.3378 -0.0816 -0.3142
  793MOL0     O 4602   9.160   9.024   9.192  0.1725 -0.2915 -0.6953
  793MOL0     C 4603   9.156   8.951   9.318  0.6749  0.5664 -0.7120
  793MOL0     C 4604   9.132   8.805   9.290  0.0182  1.1096 -0.2803
  793MOL0     C 4605   9.258   8.713   9.240 -0.0058 -1.1699  0.2262
  793MOL0     C 4606   9.310   8.762   9.106 -1.1936  1.1443  0.4593
  793MOL0     C 4607   9.398   8.665   9.025 -0.5162  0.6803 -0.5909
  793MOL0     C 4608   9.465   8.589   8.951  0.2731  0.2210 -0.0537
  793MOL0     C 4609   8.903   9.031   9.181 -1.0539 -0.6897  0.4577
  793MOL0     C 4610   8.798   9.083   9.110  0.6850 -0.0398  0.3263
  793MOL0     H 4611   8.461   9.332   8.986  0.1704  1.1284  0.1031
  793MOL0     H 4612   8.238   9.416   8.904 -1.6614  0.0156 -1.3961
  793MOL0     H 4613   8.124   9.498   8.690  0.2616 -1.5851 -1.8564
  793MOL0     H 4614   8.025   9.455   8.836  0.9464 -0.0907  0.1750
  793MOL0     H 4615   7.848   9.381   8.678  0.5468  0.2044 -0.0506
  793MOL0     H 4616   7.945   9.398   8.550 -0.5636 -3.4191  0.3806
  793MOL0     H 4617   7.959   9.654   8.562 -0.5001 -1.5656 -1.5742
  793MOL0     H 4618   7.868   9.642   8.717 -1.8655 -2.0870  1.9308
  793MOL0     H 4619   7.767   9.588   8.440 -0.1309  3.8057 -0.9093
  793MOL0     H 4620   7.677   9.538   8.597 -2.6681  3.0185 -0.5944
  793MOL0     H 4621   7.705   9.799   8.654  1.7446  0.0651 -0.5278
  793MOL0     H 4622   7.582   9.766   8.538  0.7470  0.8942 -0.2634
  793MOL0     H 4623   7.767   9.790   8.357  0.6856  0.1411  0.5643
  793MOL0     H 4624   7.868   9.847   8.489 -1.0290  0.6694  1.4546
  793MOL0     H 4625   7.759  10.039   8.359  0.7742 -1.5301 -0.3017
  793MOL0     H 4626   7.603   9.984   8.411  0.8366  2.9880 -3.7471
  793MOL0     H 4627   7.665  10.004   8.665 -1.5840 -2.8377 -1.7168
  793MOL0     H 4628   7.665  10.153   8.573  0.8273 -0.0731 -3.5307
  793MOL0     H 4629   7.871   9.945   8.791  1.4011  0.0738 -0.8008
  793MOL0     H 4630   8.222   9.969   8.789  0.2438 -1.6365  2.2005
  793MOL0     H 4631   8.109   9.971   8.922 -1.2643  1.2810 -0.9224
  793MOL0     H 4632   8.136  10.215   8.931 -0.2486  0.3146 -0.5052
  793MOL0     H 4633   8.261  10.197   8.814  0.3436 -0.7377 -0.0802
  793MOL0     H 4634   8.272  10.063   9.097 -0.4175 -0.1738 -0.6593
  793MOL0     H 4635   8.392  10.034   8.973  0.2806 -0.8330  3.7574
  793MOL0     H 4636   8.486  10.215   9.103 -0.8463  3.0904  3.5261
  793MOL0     H 4637   8.329  10.289   9.119 -1.2277 -0.2862 -2.0153
  793MOL0     H 4638   8.506  10.477   9.156 -0.8774 -0.7184 -0.2493
  793MOL0     H 4639   8.488  10.712   9.178  0.9942  1.8417 -1.2175
  793MOL0     H 4640   8.429  11.158   9.047  1.6107  1.3502 -0.4416
  793MOL0     H 4641   8.404  11.391   9.021  0.5662 -0.9589  2.2325
  793MOL0     H 4642   8.415  11.556   8.853 -0.2050  1.0844 -2.3317
  793MOL0     H 4643   8.316  11.652   8.964  2.5546 -2.0050  1.1115
  793MOL0     H 4644   8.179  11.730   8.777 -0.6889  1.6748  0.0445
  793MOL0     H 4645   8.276  11.654   8.660 -1.6780  0.9375  0.3949
  793MOL0     H 4646   8.484  11.796   8.730 -1.3734 -0.8837 -2.0564
  793MOL0     H 4647   8.379  11.883   8.844  0.4731  1.5484 -1.0890
  793MOL0     H 4648   8.339  11.849   8.534 -1.3094  2.4544 -1.8198
  793MOL0     H 4649   8.233  11.936   8.648 -1.6721 -0.5130 -3.4712
  793MOL0     H 4650   8.449  12.076   8.704  0.5945  3.4991 -1.6713
  793MOL0     H 4651   8.364  12.100   8.551 -1.3529 -0.1827  0.3391
  793MOL0     H 4652   8.545  11.911   8.489 -0.9513  0.1722 -0.6615
  793MOL0     H 4653   8.636  11.982   8.624  0.9440 -1.0481 -1.2899
  793MOL0     H 4654   8.526  12.174   8.404 -0.0236  0.2731  0.1014
  793MOL0     H 4655   8.613  12.222   8.545 -1.5560  1.7684 -1.8076
  793MOL0     H 4656   8.715  12.044   8.333 -0.7804 -0.2072  0.2435
  793MOL0     H 4657   8.799  12.098   8.487 -0.7586  0.9466  0.3977
  793MOL0     H 4658   8.069  11.329   8.761 -1.7660 -0.7652  2.1556
  793MOL0     H 4659   8.094  11.075   8.771  0.2979  1.5510  0.9373
  793MOL0     H 4660   8.254  10.727   8.804 -2.0275 -2.0169  0.2869
  793MOL0     H 4661   8.284  10.480   8.785 -1.8745  1.8506 -0.1040
  793MOL0     H 4662   8.207   9.077   8.650 -2.0469  2.3718 -0.5643
  793MOL0     H 4663   8.440   8.997   8.729 -0.0842 -1.1427  1.1830
  793MOL0     H 4664   8.956   9.179   8.831  1.9071 -1.4339  0.3642
  793MOL0     H 4665   9.151   9.141   8.962  1.0503  1.2707  1.5906
  793MOL0     H 4666   9.071   8.972   9.383  3.0928 -0.5371  3.1641
  793MOL0     H 4667   9.251   8.968   9.370  0.7061  0.8462 -0.8600
  793MOL0     H 4668   9.111   8.760   9.387 -0.6934  1.1708 -0.3966
  793MOL0     H 4669   9.042   8.789   9.229  1.1573  0.9893 -1.9934
  793MOL0     H 4670   9.232   8.607   9.237  1.6094 -1.6486 -3.6433
  793MOL0     H 4671   9.335   8.713   9.318  0.6918  1.4277 -0.3690
  793MOL0     H 4672   9.225   8.789   9.043 -2.9297 -2.8839  0.7484
  793MOL0     H 4673   9.375   8.846   9.131 -1.0093  1.4956 -1.1318
  793MOL0     H 4674   9.524   8.531   8.883 -1.2884 -0.1653 -1.1271
  793MOL0     H 4675   8.881   8.984   9.277 -4.3089 -0.3691 -0.0127
  793MOL0     H 4676   8.700   9.077   9.155  0.3121 -1.1943 -0.5969
  794MOL0     O 4677   0.611   4.411   4.514  0.4368  0.0000  0.6322
  794MOL0     C 4678   0.519   4.389   4.588  0.2270  0.1585 -0.5936
  794MOL0     O 4679   0.464   4.488   4.675 -0.1505 -0.7408  0.1651
  794MOL0     C 4680   0.548   4.595   4.710 -0.7147 -0.2011  0.1312
  794MOL0     C 4681   0.603   4.687   4.624 -0.1714 -0.1037  0.2217
  794MOL0     C 4682   0.697   4.784   4.660  0.1238  0.0723  0.4995
  794MOL0     C 4683   0.741   4.792   4.795 -0.4130 -0.1901 -0.3577
  794MOL0     O 4684   0.828   4.898   4.820 -0.0351 -0.3033 -0.6317
  794MOL0     C 4685   0.882   4.911   4.951  0.4154  0.7099  0.1779
  794MOL0     C 4686   0.985   5.019   4.970 -0.3652 -0.5540 -0.4934
  794MOL0     C 4687   1.133   4.980   4.928  1.0931  0.5679 -0.1378
  794MOL0     C 4688   1.237   5.080   4.968  0.1551 -0.6704 -0.0820
  794MOL0     C 4689   1.351   5.073   4.866  0.1118  0.7291 -0.8129
  794MOL0     C 4690   1.403   4.932   4.859 -0.4959 -0.5858  0.1561
  794MOL0     C 4691   1.547   4.915   4.811 -0.0804 -1.2185  0.1730
  794MOL0     C 4692   1.630   4.802   4.875 -0.7467  0.9355 -0.1934
  794MOL0     N 4693   1.562   4.674   4.830  0.0113  0.6376  0.4860
  794MOL0     C 4694   1.604   4.612   4.713  0.8023 -1.1565 -0.0835
  794MOL0     C 4695   1.512   4.512   4.692 -0.6802 -0.7900  0.4492
  794MOL0     C 4696   1.502   4.430   4.565 -1.0896 -0.2590  0.8422
  794MOL0     C 4697   1.616   4.337   4.537  0.4040  0.0365 -0.0665
  794MOL0     C 4698   1.655   4.232   4.647  0.4508 -0.3515 -0.4363
  794MOL0     C 4699   1.800   4.200   4.662 -0.4462 -0.3106 -0.2579
  794MOL0     O 4700   1.835   4.060   4.695  0.0487 -0.0727 -0.5040
  794MOL0     C 4701   1.788   4.013   4.821  0.4614  0.0269 -0.4574
  794MOL0     C 4702   1.868   4.033   4.938  0.5727  0.0609  0.4255
  794MOL0     C 4703   1.829   3.992   5.064 -0.4083 -0.3122 -0.0907
  794MOL0     C 4704   1.699   3.928   5.079  0.1422  0.2022  0.3769
  794MOL0     C 4705   1.655   3.873   5.211  0.4197 -0.1363  0.1392
  794MOL0     O 4706   1.530   3.809   5.214 -0.0705 -0.1341 -0.1522
  794MOL0     C 4707   1.468   3.773   5.334 -0.6132 -0.8374  0.9745
  794MOL0     C 4708   1.479   3.851   5.454  0.3972 -0.4234  0.3681
  794MOL0     C 4709   1.411   3.816   5.573  0.4048 -0.1832  0.6225
  794MOL0     C 4710   1.334   3.696   5.576  0.4334 -0.0677 -0.7561
  794MOL0     O 4711   1.264   3.688   5.690 -0.1126 -0.2793 -0.1149
  794MOL0     C 4712   1.167   3.584   5.706  0.0301 -0.1471  0.6158
  794MOL0     C 4713   1.123   3.586   5.851  0.2838 -1.0107 -0.7995
  794MOL0     C 4714   1.019   3.480   5.876 -0.1189  0.0643 -0.2314
  794MOL0     C 4715   0.958   3.465   6.017 -0.1480 -0.0941  0.3764
  794MOL0     C 4716   0.964   3.336   6.075 -0.4040 -0.1063  0.3054
  794MOL0     C 4717   0.983   3.319   6.230 -0.3186  0.1110  0.0178
  794MOL0     C 4718   0.847   3.334   6.307  0.0134  0.0673  0.1886
  794MOL0     C 4719   0.877   3.296   6.454  0.4302 -0.3901  0.4754
  794MOL0    Cl 4720   0.723   3.228   6.514 -0.0568  0.2658  0.1368
  794MOL0     C 4721   1.317   3.611   5.459 -1.2327 -0.8711 -1.1014
  794MOL0     C 4722   1.383   3.660   5.341  0.3485  1.5712 -0.5748
  794MOL0     O 4723   1.734   3.882   5.305  0.3308  0.2467 -0.3298
  794MOL0     C 4724   1.629   3.907   4.956  0.4625  0.1810 -1.9250
  794MOL0     C 4725   1.676   3.935   4.834 -0.1496 -0.5259  0.4900
  794MOL0     N 4726   1.434   4.514   4.798  0.1542 -1.4107 -0.9295
  794MOL0     N 4727   1.467   4.599   4.886  0.5816  0.8384 -0.8059
  794MOL0     C 4728   0.692   4.693   4.888 -1.3803  0.2608  0.6961
  794MOL0     C 4729   0.600   4.597   4.846 -0.1122 -0.2120  0.3246
  794MOL0     C 4730   0.438   4.255   4.593 -0.1983 -0.1025  0.3019
  794MOL0     C 4731   0.314   4.251   4.653 -0.1704  0.4359  0.2384
  794MOL0     C 4732   0.239   4.133   4.642 -0.5222  0.1886  0.6984
  794MOL0     C 4733   0.288   4.016   4.579  0.2413  0.4381  0.3097
  794MOL0     O 4734   0.221   3.894   4.562  0.5551  0.0190 -0.3167
  794MOL0     C 4735   0.089   3.891   4.621 -0.3181  0.3273  0.0526
  794MOL0     C 4736   0.063   3.743   4.626  0.8653  1.0180 -0.5399
  794MOL0     C 4737  -0.043   3.706   4.736 -0.0276 -0.1775  0.0531
  794MOL0     C 4738  -0.043   3.565   4.777  0.6737  0.0246 -0.4669
  794MOL0     C 4739  -0.076   3.478   4.660  0.1603 -0.1036 -0.2733
  794MOL0     C 4740  -0.115   3.414   4.557  0.2483  0.6057 -0.6375
  794MOL0     C 4741   0.415   4.025   4.518  0.6036  0.0935  0.3848
  794MOL0     C 4742   0.486   4.143   4.522  1.1337  0.3157 -0.6141
  794MOL0     H 4743   0.560   4.681   4.525  0.2842  0.2792 -0.0033
  794MOL0     H 4744   0.736   4.851   4.584 -2.8351  0.5854 -0.6778
  794MOL0     H 4745   0.925   4.814   4.979 -3.2016 -1.5661 -1.3538
  794MOL0     H 4746   0.818   4.943   5.034  0.5153  0.8983  0.1812
  794MOL0     H 4747   0.997   5.053   5.074  1.9891  2.2152 -1.5107
  794MOL0     H 4748   0.946   5.110   4.922  0.4806  0.4383  0.6254
  794MOL0     H 4749   1.133   4.974   4.819 -1.2862  0.3813 -0.1860
  794MOL0     H 4750   1.156   4.889   4.983  0.4688  0.5733  0.1453
  794MOL0     H 4751   1.192   5.180   4.974 -0.9738 -1.2410  2.7854
  794MOL0     H 4752   1.285   5.070   5.066  0.1592  1.2651  0.1549
  794MOL0     H 4753   1.430   5.137   4.907  0.8598 -0.4706 -0.3434
  794MOL0     H 4754   1.304   5.109   4.773 -0.9466  1.0250 -0.1897
  794MOL0     H 4755   1.329   4.876   4.801 -3.7488  1.9841  1.4722
  794MOL0     H 4756   1.408   4.895   4.962 -1.4093  1.3846  0.9637
  794MOL0     H 4757   1.543   4.881   4.708 -2.2422 -1.4066  0.2750
  794MOL0     H 4758   1.595   5.013   4.821 -0.5625 -1.1582  2.4362
  794MOL0     H 4759   1.615   4.814   4.983 -3.5791  1.6460 -0.5845
  794MOL0     H 4760   1.737   4.804   4.853 -0.6093  0.5046  0.4086
  794MOL0     H 4761   1.683   4.655   4.653  1.9594 -0.4777  1.8622
  794MOL0     H 4762   1.499   4.495   4.477  0.1402 -3.4734 -1.7933
  794MOL0     H 4763   1.405   4.380   4.563 -0.5960 -1.4383 -3.4904
  794MOL0     H 4764   1.701   4.395   4.499  1.5813 -0.7783  1.2136
  794MOL0     H 4765   1.598   4.273   4.450  1.9939 -1.4213  0.5970
  794MOL0     H 4766   1.634   4.268   4.748  5.1608  0.7547  0.3536
  794MOL0     H 4767   1.594   4.142   4.633 -2.8334  1.0558  2.9546
  794MOL0     H 4768   1.847   4.268   4.735  1.5140 -1.0114 -0.7941
  794MOL0     H 4769   1.859   4.228   4.574  1.3891 -0.2035  0.9409
  794MOL0     H 4770   1.964   4.080   4.925  0.3978  0.6573  1.1645
  794MOL0     H 4771   1.885   4.020   5.153  0.1401 -1.8950  0.1053
  794MOL0     H 4772   1.519   3.952   5.452 -0.6529  0.0609  2.0346
  794MOL0     H 4773   1.427   3.880   5.660 -1.4531  1.5128 -0.2032
  794MOL0     H 4774   1.204   3.482   5.690 -1.2742 -1.0336  2.7621
  794MOL0     H 4775   1.078   3.598   5.644 -0.0218  0.3896  0.8102
  794MOL0     H 4776   1.083   3.688   5.856  0.0676 -0.8700 -3.5947
  794MOL0     H 4777   1.209   3.584   5.917 -0.9377 -1.2339  0.8560
  794MOL0     H 4778   1.071   3.387   5.853 -1.7248 -0.8475 -0.3612
  794MOL0     H 4779   0.933   3.481   5.808 -0.8301  1.6524  0.6183
  794MOL0     H 4780   1.008   3.533   6.087 -1.3882  1.0599  0.1733
  794MOL0     H 4781   0.852   3.492   6.010 -0.4455  0.2724  4.0350
  794MOL0     H 4782   1.057   3.294   6.033 -1.4013 -3.2293  0.9073
  794MOL0     H 4783   0.882   3.272   6.040  0.1033  0.4365 -2.0649
  794MOL0     H 4784   1.050   3.398   6.264 -0.9554  0.7566 -0.1985
  794MOL0     H 4785   1.035   3.228   6.262  0.7909  1.5021  2.4436
  794MOL0     H 4786   0.798   3.432   6.307 -2.0196 -0.8717 -1.6391
  794MOL0     H 4787   0.784   3.260   6.256  3.2285 -2.1856 -0.7917
  794MOL0     H 4788   0.897   3.393   6.500 -2.4849  1.5472 -1.9502
  794MOL0     H 4789   0.962   3.228   6.468  0.2142 -1.0425 -1.1203
  794MOL0     H 4790   1.266   3.515   5.466  1.4036 -2.3882 -1.2751
  794MOL0     H 4791   1.383   3.599   5.251  0.4509 -1.2611  1.2318
  794MOL0     H 4792   1.549   3.835   4.962  0.7065  0.0508  1.1902
  794MOL0     H 4793   1.611   3.906   4.753 -0.1895  1.4773 -0.2617
  794MOL0     H 4794   0.739   4.696   4.986  1.0348 -1.8771 -0.2717
  794MOL0     H 4795   0.583   4.536   4.935  1.6595 -0.8628  0.2580
  794MOL0     H 4796   0.274   4.334   4.711  0.5490 -1.6468  3.9961
  794MOL0     H 4797   0.142   4.140   4.690  0.5689  2.0739  2.7815
  794MOL0     H 4798   0.020   3.943   4.555  0.3854 -0.5878 -1.4609
  794MOL0     H 4799   0.089   3.938   4.720  1.1121  3.6444 -1.3740
  794MOL0     H 4800   0.018   3.727   4.528  0.7998  0.6299 -0.4509
  794MOL0     H 4801   0.156   3.686   4.632  0.0257 -0.4854 -1.1737
  794MOL0     H 4802  -0.138   3.732   4.689 -0.0520 -0.5220 -0.0919
  794MOL0     H 4803  -0.047   3.762   4.830 -3.7802 -1.7392  1.0352
  794MOL0     H 4804   0.044   3.518   4.823 -0.6844 -0.6440  1.5664
  794MOL0     H 4805  -0.123   3.557   4.851  0.0123  0.9870 -1.0619
  794MOL0     H 4806  -0.142   3.361   4.468  1.0432  2.9090 -2.3543
  794MOL0     H 4807   0.438   3.935   4.462 -5.0048 -0.2383 -2.0437
  794MOL0     H 4808   0.578   4.151   4.465  0.0822  0.0279 -2.4284
  795MOL0     O 4809   2.803   5.823   6.762  0.0554  0.2196 -0.5999
  795MOL0     C 4810   2.816   5.930   6.713 -0.2889  0.4663 -0.2659
  795MOL0     O 4811   2.877   5.952   6.597  0.7165 -0.1392  0.7389
  795MOL0     C 4812   2.890   5.858   6.505 -0.1834 -0.8502 -0.5122
  795MOL0     C 4813   2.852   5.900   6.376  0.3044  1.3908  0.1124
  795MOL0     C 4814   2.876   5.812   6.271  0.4202  0.3686  0.1939
  795MOL0     C 4815   2.919   5.686   6.296  0.2153  0.1852  0.3755
  795MOL0     O 4816   2.938   5.600   6.192  0.3444  0.1985 -0.4320
  795MOL0     C 4817   2.932   5.456   6.213 -0.4604  1.5338  0.2104
  795MOL0     C 4818   3.072   5.394   6.220  0.4727 -0.1336  0.0580
  795MOL0     C 4819   3.087   5.280   6.325  0.7263  0.8479  0.1843
  795MOL0     C 4820   3.211   5.200   6.304  0.1290  0.7750 -0.1464
  795MOL0     C 4821   3.199   5.085   6.199  0.5987  0.9167 -0.2246
  795MOL0     C 4822   3.334   5.021   6.191  0.0349 -0.8562  0.0143
  795MOL0     C 4823   3.374   4.917   6.286  0.3990  0.2145 -0.8521
  795MOL0     C 4824   3.353   4.776   6.250 -0.0416  0.7204  0.0672
  795MOL0     N 4825   3.223   4.726   6.211  0.2495 -0.4789  0.1882
  795MOL0     C 4826   3.103   4.762   6.267 -0.8290 -0.0645 -0.0599
  795MOL0     C 4827   3.009   4.720   6.179  0.3015  0.8073  0.0546
  795MOL0     C 4828   2.854   4.732   6.205 -0.6121 -0.0155  0.2093
  795MOL0     C 4829   2.819   4.637   6.319  0.5118  0.2916 -0.2351
  795MOL0     C 4830   2.694   4.662   6.396 -0.3199  0.1377 -0.5719
  795MOL0     C 4831   2.577   4.674   6.301 -0.1979 -1.1070  0.3380
  795MOL0     O 4832   2.480   4.761   6.356  0.1334 -0.3729  0.0043
  795MOL0     C 4833   2.357   4.749   6.293 -0.6266 -0.5359 -0.3329
  795MOL0     C 4834   2.294   4.631   6.247  0.6689 -0.1555  0.1071
  795MOL0     C 4835   2.168   4.642   6.186  0.6322  0.0670 -0.1718
  795MOL0     C 4836   2.097   4.759   6.192  0.8354 -0.7306 -0.6461
  795MOL0     C 4837   1.962   4.764   6.128  0.6449 -0.7432 -0.6763
  795MOL0     O 4838   1.918   4.662   6.058 -0.7169 -0.0597  0.2986
  795MOL0     C 4839   1.784   4.659   6.023 -1.6890  0.7863 -1.4670
  795MOL0     C 4840   1.690   4.587   6.102  0.3627  0.4803 -1.2571
  795MOL0     C 4841   1.551   4.584   6.079  0.2059  0.9886  0.0845
  795MOL0     C 4842   1.516   4.648   5.956 -0.0657 -0.2197 -0.7070
  795MOL0     O 4843   1.379   4.650   5.915  0.7042 -0.6168  0.2343
  795MOL0     C 4844   1.272   4.605   5.992  0.4666  0.3046  0.0038
  795MOL0     C 4845   1.147   4.621   5.906  0.4142 -0.2067 -0.0685
  795MOL0     C 4846   1.025   4.572   5.989  0.2383 -1.5547  0.3492
  795MOL0     C 4847   0.897   4.618   5.925 -0.2585  0.3711 -0.5330
  795MOL0     C 4848   0.773   4.528   5.970  0.2893 -0.2163 -0.1430
  795MOL0     C 4849   0.690   4.492   5.839 -0.0655  1.1724  0.1658
  795MOL0     C 4850   0.551   4.437   5.870  0.6890 -1.0786 -0.6036
  795MOL0     C 4851   0.543   4.300   5.933  0.3852 -1.0539  0.1208
  795MOL0    Cl 4852   0.610   4.301   6.100  0.0146  0.0012  0.0409
  795MOL0     C 4853   1.610   4.720   5.883  1.0357 -0.2128  0.2718
  795MOL0     C 4854   1.744   4.719   5.912 -0.7350  0.4898  0.0468
  795MOL0     O 4855   1.893   4.863   6.159  0.1898  0.3296  1.2086
  795MOL0     C 4856   2.157   4.876   6.247 -0.7720  0.7853  0.4436
  795MOL0     C 4857   2.294   4.869   6.295 -0.1020 -0.4071 -0.0148
  795MOL0     N 4858   3.072   4.660   6.071 -0.4428 -0.0645 -0.3621
  795MOL0     N 4859   3.197   4.675   6.089 -0.4190  0.4708  0.7053
  795MOL0     C 4860   2.953   5.646   6.421 -0.1450  0.4964 -0.2588
  795MOL0     C 4861   2.936   5.730   6.528  0.0039 -0.3424  0.3176
  795MOL0     C 4862   2.769   6.043   6.793  0.4036 -0.9232 -0.4421
  795MOL0     C 4863   2.710   6.023   6.925 -0.2042 -0.4119 -0.0369
  795MOL0     C 4864   2.663   6.128   7.008  0.5844 -0.0151  0.2691
  795MOL0     C 4865   2.675   6.266   6.970  0.1430  0.3921 -0.2665
  795MOL0     O 4866   2.617   6.361   7.048  0.2787  0.4627 -0.8607
  795MOL0     C 4867   2.622   6.501   7.022  0.2839  0.4243  0.7745
  795MOL0     C 4868   2.523   6.555   7.128 -0.7023 -0.5554 -0.2374
  795MOL0     C 4869   2.485   6.701   7.089 -0.0802  0.0344  0.0217
  795MOL0     C 4870   2.394   6.756   7.200  0.5166 -0.9006  0.1313
  795MOL0     C 4871   2.446   6.737   7.338 -0.3526  1.3521 -0.5657
  795MOL0     C 4872   2.489   6.714   7.458 -0.3189 -0.2728  0.8512
  795MOL0     C 4873   2.743   6.284   6.843  0.2417  0.2193 -1.1017
  795MOL0     C 4874   2.776   6.182   6.764 -0.0010 -0.1655 -0.2277
  795MOL0     H 4875   2.821   6.004   6.364 -1.0090  1.0012 -0.0090
  795MOL0     H 4876   2.854   5.845   6.170  2.2397  1.3035  0.0633
  795MOL0     H 4877   2.873   5.420   6.128 -1.1191  0.0330  1.2630
  795MOL0     H 4878   2.859   5.442   6.293 -2.1329  0.4270 -1.4224
  795MOL0     H 4879   3.146   5.474   6.232 -0.8186  1.5192 -2.4191
  795MOL0     H 4880   3.085   5.353   6.120 -1.1047  0.5982 -0.4701
  795MOL0     H 4881   3.003   5.210   6.313  1.2226  0.4314 -0.9659
  795MOL0     H 4882   3.086   5.320   6.427 -1.4061 -1.2579  1.0943
  795MOL0     H 4883   3.303   5.258   6.285  0.1860  0.8734  0.4345
  795MOL0     H 4884   3.225   5.162   6.405  1.7747 -0.3610 -0.7578
  795MOL0     H 4885   3.184   5.120   6.097 -4.3006 -3.9339 -1.6553
  795MOL0     H 4886   3.124   5.007   6.219  0.3483  1.4597  1.0948
  795MOL0     H 4887   3.408   5.100   6.175  0.6676 -1.5299 -0.4178
  795MOL0     H 4888   3.328   4.966   6.097  1.3845 -0.1551 -0.5092
  795MOL0     H 4889   3.480   4.934   6.307  0.4394  0.9777 -1.6161
  795MOL0     H 4890   3.323   4.938   6.381 -0.2703 -3.0532 -0.3925
  795MOL0     H 4891   3.380   4.719   6.339 -1.5821 -3.0206 -1.6653
  795MOL0     H 4892   3.422   4.740   6.174 -0.2171 -3.3032  1.5780
  795MOL0     H 4893   3.081   4.812   6.361 -1.9197 -1.3547  0.3950
  795MOL0     H 4894   2.804   4.707   6.111  1.7168 -3.2421 -0.3223
  795MOL0     H 4895   2.837   4.838   6.229  1.9583  0.5834 -0.2863
  795MOL0     H 4896   2.900   4.628   6.392 -0.4351 -0.5524  0.7502
  795MOL0     H 4897   2.803   4.536   6.282  1.0241  0.5002 -1.0450
  795MOL0     H 4898   2.693   4.580   6.468  0.2587  1.8637  1.5169
  795MOL0     H 4899   2.697   4.749   6.463  0.2089 -1.3193  1.4017
  795MOL0     H 4900   2.544   4.573   6.273  2.1013 -2.4459  2.0845
  795MOL0     H 4901   2.598   4.740   6.216  0.7601  3.3102  3.6370
  795MOL0     H 4902   2.337   4.531   6.248  0.8966 -0.0638 -0.4399
  795MOL0     H 4903   2.138   4.552   6.133  1.6167  0.3971 -1.3111
  795MOL0     H 4904   1.727   4.536   6.191  0.7928  1.8151 -0.6403
  795MOL0     H 4905   1.477   4.546   6.149  0.3492  3.0481  1.4249
  795MOL0     H 4906   1.256   4.659   6.086  1.7816 -2.0441  1.6853
  795MOL0     H 4907   1.270   4.499   6.020 -0.5485  0.6975  1.5615
  795MOL0     H 4908   1.148   4.573   5.808  1.3090  0.6878 -0.5202
  795MOL0     H 4909   1.134   4.725   5.877  5.2902  0.0567 -2.3031
  795MOL0     H 4910   1.025   4.603   6.093  0.1713 -1.1517  0.2319
  795MOL0     H 4911   1.037   4.463   5.994 -0.8777 -1.6920  0.1615
  795MOL0     H 4912   0.891   4.726   5.944 -0.3267  0.2416  0.2260
  795MOL0     H 4913   0.907   4.605   5.817 -0.9047 -1.3952 -0.4105
  795MOL0     H 4914   0.707   4.583   6.038 -0.0875  3.5617 -3.2133
  795MOL0     H 4915   0.809   4.432   6.008  3.3031  1.6122  2.1760
  795MOL0     H 4916   0.740   4.415   5.779 -0.6609 -0.5289  1.7588
  795MOL0     H 4917   0.676   4.585   5.784 -0.7456  0.6516 -0.5561
  795MOL0     H 4918   0.505   4.514   5.933 -0.3614 -1.5647 -0.7552
  795MOL0     H 4919   0.493   4.432   5.778  2.3611  0.3596 -1.7972
  795MOL0     H 4920   0.586   4.233   5.859 -0.5982 -0.6736 -0.8136
  795MOL0     H 4921   0.440   4.287   5.966  0.6157 -0.3413  1.2144
  795MOL0     H 4922   1.566   4.764   5.794  3.0926 -0.3123 -0.8614
  795MOL0     H 4923   1.816   4.779   5.858  0.0710 -2.9735 -3.1214
  795MOL0     H 4924   2.098   4.964   6.268  1.3385  2.7783 -1.4293
  795MOL0     H 4925   2.340   4.961   6.328  2.2417 -1.9078  1.2233
  795MOL0     H 4926   2.998   5.547   6.422  1.5278  1.2262  0.3860
  795MOL0     H 4927   2.973   5.694   6.624 -2.2840  2.1133  2.2455
  795MOL0     H 4928   2.687   5.920   6.953 -0.3616 -0.4301 -0.2366
  795MOL0     H 4929   2.606   6.101   7.097  1.0167 -0.9829  0.2610
  795MOL0     H 4930   2.572   6.502   6.926 -1.4271  4.2328  1.5225
  795MOL0     H 4931   2.721   6.547   7.031  0.9502 -1.1911  2.5278
  795MOL0     H 4932   2.431   6.496   7.137  0.1737 -1.9896 -0.4701
  795MOL0     H 4933   2.573   6.545   7.224 -0.0125  2.7474 -0.1410
  795MOL0     H 4934   2.432   6.705   6.993 -1.3435  1.8483  0.7449
  795MOL0     H 4935   2.577   6.758   7.098 -0.4741  0.2999  3.6749
  795MOL0     H 4936   2.392   6.864   7.185  4.5212 -1.0280 -3.3494
  795MOL0     H 4937   2.288   6.728   7.193 -0.0290  1.0276 -0.0347
  795MOL0     H 4938   2.517   6.695   7.559  2.0298 -0.7290  0.1813
  795MOL0     H 4939   2.752   6.390   6.822 -3.5511  1.0252  0.4076
  795MOL0     H 4940   2.820   6.205   6.668  0.9182 -1.2144 -0.0860
  796MOL0     O 4941   8.405   7.256  11.334 -0.8978 -0.2359  0.2781
  796MOL0     C 4942   8.470   7.347  11.387  0.8964 -0.9371  0.1889
  796MOL0     O 4943   8.513   7.455  11.326 -0.1109 -0.1832 -0.5750
  796MOL0     C 4944   8.474   7.476  11.195 -0.4032 -0.6434 -0.6628
  796MOL0     C 4945   8.563   7.464  11.077 -0.6073  0.6300 -0.4850
  796MOL0     C 4946   8.507   7.490  10.953  0.1954  0.8166  0.7129
  796MOL0     C 4947   8.370   7.521  10.936 -0.4179  0.6424  0.1593
  796MOL0     O 4948   8.328   7.530  10.805 -0.6045  0.6547  0.3367
  796MOL0     C 4949   8.194   7.561  10.777  0.2827 -0.0978  0.1798
  796MOL0     C 4950   8.178   7.594  10.626 -0.3174  0.4606  0.8705
  796MOL0     C 4951   8.180   7.474  10.530  0.7102  0.1593 -0.6858
  796MOL0     C 4952   8.323   7.447  10.498  0.0947 -0.0741 -0.2316
  796MOL0     C 4953   8.322   7.319  10.417  0.6226 -0.6625  0.4676
  796MOL0     C 4954   8.454   7.287  10.340  0.6843  0.5524  0.4492
  796MOL0     C 4955   8.440   7.144  10.280 -0.8409 -1.5364 -0.1084
  796MOL0     C 4956   8.496   7.033  10.371 -0.5930 -0.3266 -0.0315
  796MOL0     N 4957   8.650   7.036  10.382  0.1407 -0.2714  0.0082
  796MOL0     C 4958   8.711   7.124  10.473  1.0437 -0.4946 -0.6196
  796MOL0     C 4959   8.837   7.112  10.452  0.3107  0.0416 -0.1766
  796MOL0     C 4960   8.950   7.187  10.523  0.6557  0.1543 -0.2222
  796MOL0     C 4961   9.040   7.094  10.605  0.1935 -0.7433 -1.1324
  796MOL0     C 4962   9.161   7.175  10.662 -0.2707 -0.1773 -0.1041
  796MOL0     C 4963   9.284   7.090  10.668  0.1020 -0.5089  0.6112
  796MOL0     O 4964   9.401   7.155  10.727  0.4849  0.0978  0.2001
  796MOL0     C 4965   9.501   7.073  10.774  0.1090  0.4545 -0.6990
  796MOL0     C 4966   9.584   7.131  10.873 -0.7598  0.7356  0.0832
  796MOL0     C 4967   9.692   7.054  10.933  0.8691  0.1587  1.0788
  796MOL0     C 4968   9.706   6.917  10.894 -0.5024 -0.3997  0.6940
  796MOL0     C 4969   9.821   6.849  10.952 -0.4408 -0.1247  1.0394
  796MOL0     O 4970   9.872   6.880  11.078  0.0308  0.2239 -0.0439
  796MOL0     C 4971   9.965   6.797  11.134 -0.7652  1.2651  1.0812
  796MOL0     C 4972   9.928   6.665  11.183  0.5515  0.7447  0.4556
  796MOL0     C 4973  10.034   6.581  11.241 -0.0423 -0.3205  0.7834
  796MOL0     C 4974  10.162   6.629  11.251 -0.1274 -0.3784 -0.1443
  796MOL0     O 4975  10.253   6.551  11.320  0.4239  0.2728 -0.0765
  796MOL0     C 4976  10.368   6.502  11.255 -0.0978  0.4755 -0.8508
  796MOL0     C 4977  10.382   6.365  11.306 -0.2705  0.4802  0.2520
  796MOL0     C 4978  10.291   6.260  11.249 -0.5214  0.3065  0.2466
  796MOL0     C 4979  10.344   6.240  11.109  0.7868 -0.1675  0.2284
  796MOL0     C 4980  10.293   6.124  11.025  0.0122 -0.6872 -0.1405
  796MOL0     C 4981  10.356   6.127  10.886  0.1659 -0.4445  0.1765
  796MOL0     C 4982  10.283   6.037  10.791  0.6093 -0.0689  0.0142
  796MOL0     C 4983  10.323   6.046  10.650  0.0308 -0.4143 -0.0686
  796MOL0    Cl 4984  10.273   6.201  10.575  0.0952 -0.0137  0.0533
  796MOL0     C 4985  10.197   6.761  11.214  0.1745 -0.5258 -0.9587
  796MOL0     C 4986  10.097   6.840  11.155 -0.5313 -1.0343 -0.3414
  796MOL0     O 4987   9.860   6.753  10.886  0.0750 -0.1633  0.8865
  796MOL0     C 4988   9.620   6.860  10.794  0.9446  0.5771  0.1954
  796MOL0     C 4989   9.520   6.936  10.729 -0.5308  0.2824 -1.5383
  796MOL0     N 4990   8.857   7.021  10.340  0.5257  0.4494  0.8907
  796MOL0     N 4991   8.744   6.971  10.310  0.2808  0.2244  0.7543
  796MOL0     C 4992   8.286   7.526  11.049  0.2259 -0.4403 -0.4185
  796MOL0     C 4993   8.338   7.507  11.175 -0.8711  0.5270  0.1112
  796MOL0     C 4994   8.496   7.338  11.532  0.5853 -0.0027 -1.0905
  796MOL0     C 4995   8.588   7.422  11.592 -0.1706  0.4444  0.2793
  796MOL0     C 4996   8.614   7.410  11.725 -0.0627 -0.3648  0.2323
  796MOL0     C 4997   8.551   7.320  11.803 -0.0044 -0.0137 -0.0671
  796MOL0     O 4998   8.598   7.321  11.939  0.6987  0.3891  0.4787
  796MOL0     C 4999   8.615   7.190  11.996 -0.0924  0.1061 -0.5811
  796MOL0     C 5000   8.714   7.101  11.923  0.8355  0.5335 -0.2798
  796MOL0     C 5001   8.750   6.988  12.018 -0.5092  0.1190  0.1686
  796MOL0     C 5002   8.637   6.886  12.063  1.7586  1.0562 -0.5760
  796MOL0     C 5003   8.517   6.878  11.971 -1.3131  0.3801  0.2477
  796MOL0     C 5004   8.430   6.884  11.880 -0.2081  0.0207  0.4323
  796MOL0     C 5005   8.453   7.230  11.740 -0.7714 -0.2714 -1.0280
  796MOL0     C 5006   8.428   7.237  11.613 -0.3375 -0.9018  0.4479
  796MOL0     H 5007   8.668   7.444  11.089 -0.6602  0.2487 -0.6532
  796MOL0     H 5008   8.563   7.458  10.865 -0.4602 -1.7356  1.1328
  796MOL0     H 5009   8.161   7.639  10.846  0.7180 -0.3621  0.6870
  796MOL0     H 5010   8.129   7.475  10.799 -1.6857  0.8264 -1.6211
  796MOL0     H 5011   8.261   7.659  10.596 -0.2489 -1.0690 -2.7429
  796MOL0     H 5012   8.082   7.644  10.607 -0.4710  0.4095  1.5122
  796MOL0     H 5013   8.131   7.502  10.437  1.8406  1.8726 -0.7944
  796MOL0     H 5014   8.121   7.400  10.586  1.5031  0.8248  1.1059
  796MOL0     H 5015   8.376   7.529  10.449 -0.6231  0.2356 -0.5142
  796MOL0     H 5016   8.381   7.425  10.587 -1.0972 -0.1815  0.5463
  796MOL0     H 5017   8.244   7.331  10.342  1.5729  3.5430 -0.0762
  796MOL0     H 5018   8.297   7.238  10.487 -1.4710  0.9193  1.6588
  796MOL0     H 5019   8.542   7.309  10.400  0.6019 -0.0501  0.8042
  796MOL0     H 5020   8.468   7.355  10.255 -0.0897 -0.2829 -0.3821
  796MOL0     H 5021   8.332   7.126  10.273 -1.3879  1.0378  0.7043
  796MOL0     H 5022   8.492   7.138  10.184 -1.1935  0.6844 -0.4922
  796MOL0     H 5023   8.467   6.939  10.324 -2.7086  1.4864 -2.6325
  796MOL0     H 5024   8.455   7.030  10.472  3.9285 -2.5812  2.0675
  796MOL0     H 5025   8.659   7.169  10.557 -0.2620 -0.4493 -1.4227
  796MOL0     H 5026   8.903   7.253  10.597  1.3684 -1.3070  1.5950
  796MOL0     H 5027   8.998   7.253  10.451 -1.6608  0.8863 -1.2022
  796MOL0     H 5028   9.071   7.016  10.535 -0.7555  0.0700 -2.5164
  796MOL0     H 5029   8.991   7.046  10.691  1.5653 -1.2688 -0.6189
  796MOL0     H 5030   9.199   7.264  10.611  0.5568  0.5332  1.6570
  796MOL0     H 5031   9.152   7.192  10.770  1.7557  2.7230 -0.2812
  796MOL0     H 5032   9.316   7.040  10.577  2.7721 -1.6791  2.0966
  796MOL0     H 5033   9.242   7.009  10.729 -1.0409 -0.8876 -0.6215
  796MOL0     H 5034   9.559   7.230  10.910  0.5898  0.1864  2.6889
  796MOL0     H 5035   9.771   7.093  10.996  3.2801 -2.4915 -0.0695
  796MOL0     H 5036   9.827   6.630  11.163  0.2378  0.3416  2.5063
  796MOL0     H 5037   9.997   6.481  11.263 -0.1949 -1.1258 -2.5418
  796MOL0     H 5038  10.462   6.547  11.288 -1.7441  2.6512  1.2405
  796MOL0     H 5039  10.370   6.518  11.147  1.9674  0.8499 -0.8072
  796MOL0     H 5040  10.353   6.364  11.411 -1.8515  1.3257 -0.1546
  796MOL0     H 5041  10.489   6.340  11.299 -0.5961 -0.8678 -0.3031
  796MOL0     H 5042  10.189   6.297  11.264 -0.9429 -1.0410  0.8436
  796MOL0     H 5043  10.308   6.171  11.311 -0.0116 -0.4051 -0.8707
  796MOL0     H 5044  10.317   6.332  11.057  0.9986  0.0856  0.5609
  796MOL0     H 5045  10.453   6.229  11.113  0.5735 -3.5321 -0.2319
  796MOL0     H 5046  10.188   6.153  11.011  0.2054  0.8279  1.1381
  796MOL0     H 5047  10.298   6.027  11.074 -4.6551 -0.6972  0.7941
  796MOL0     H 5048  10.463   6.106  10.895  0.2703  0.5646  1.6976
  796MOL0     H 5049  10.364   6.231  10.853  3.6038 -0.0571  1.7589
  796MOL0     H 5050  10.285   5.932  10.822  0.1961  0.1258  0.7059
  796MOL0     H 5051  10.178   6.068  10.794  1.0107  1.4034 -0.1539
  796MOL0     H 5052  10.280   5.961  10.596 -4.1035  1.5813 -0.2626
  796MOL0     H 5053  10.432   6.054  10.637  0.0772 -3.1058 -2.4576
  796MOL0     H 5054  10.293   6.798  11.248  0.0454 -0.3983 -0.7336
  796MOL0     H 5055  10.122   6.944  11.141 -5.3154  0.3709 -0.2416
  796MOL0     H 5056   9.630   6.755  10.770 -1.7483 -0.6815  3.7446
  796MOL0     H 5057   9.454   6.894  10.653  0.4186 -0.2964 -2.0644
  796MOL0     H 5058   8.184   7.557  11.027 -0.5720 -2.2050  0.5566
  796MOL0     H 5059   8.264   7.516  11.253 -3.3804 -1.7868 -1.7890
  796MOL0     H 5060   8.639   7.488  11.523 -0.0491  0.2122  0.1427
  796MOL0     H 5061   8.687   7.467  11.781 -0.3565 -0.2871  0.5404
  796MOL0     H 5062   8.515   7.147  11.995  0.0400 -0.2566  0.5424
  796MOL0     H 5063   8.651   7.185  12.099 -1.2690 -3.7175 -0.1920
  796MOL0     H 5064   8.662   7.058  11.837 -2.5677  4.3891 -0.4298
  796MOL0     H 5065   8.805   7.153  11.892  0.8219 -0.6592 -2.4968
  796MOL0     H 5066   8.805   7.019  12.107 -1.2414 -1.0006  1.0379
  796MOL0     H 5067   8.821   6.935  11.954  2.0737  2.0278  1.2525
  796MOL0     H 5068   8.678   6.786  12.077 -0.8754 -0.5581 -3.2053
  796MOL0     H 5069   8.592   6.927  12.154  1.5693 -2.5099  1.1033
  796MOL0     H 5070   8.363   6.890  11.796  1.0533  0.2601 -0.5788
  796MOL0     H 5071   8.394   7.159  11.797 -0.9385  0.6636 -0.0012
  796MOL0     H 5072   8.370   7.165  11.557 -1.6766  1.0690 -0.7945
  797MOL0     O 5073   7.253   5.154  10.321  0.2958 -0.5268 -0.3364
  797MOL0     C 5074   7.293   5.066  10.247  0.1115 -0.4735  0.1881
  797MOL0     O 5075   7.428   5.037  10.219 -0.6983 -0.8856  0.7303
  797MOL0     C 5076   7.541   5.090  10.284  0.1299 -0.8642  0.6172
  797MOL0     C 5077   7.539   5.122  10.421 -0.6113 -0.2859 -0.2049
  797MOL0     C 5078   7.657   5.161  10.481 -0.4833  0.2015  0.4140
  797MOL0     C 5079   7.775   5.176  10.408 -0.2628  0.5599  0.3105
  797MOL0     O 5080   7.897   5.210  10.472  0.2215 -0.8390 -0.0706
  797MOL0     C 5081   8.012   5.132  10.430 -0.2490 -0.6674  0.4750
  797MOL0     C 5082   8.142   5.174  10.489  0.4162  0.8091 -0.6795
  797MOL0     C 5083   8.262   5.089  10.440 -0.2866 -0.6951 -0.5639
  797MOL0     C 5084   8.388   5.128  10.515 -0.0841  0.0380 -0.0976
  797MOL0     C 5085   8.503   5.030  10.513 -0.3756  0.2585  0.1857
  797MOL0     C 5086   8.554   4.996  10.378  0.0741  0.6287 -0.6872
  797MOL0     C 5087   8.608   5.104  10.278  0.1527 -0.4682 -0.4156
  797MOL0     C 5088   8.737   5.171  10.335  0.9688  0.3743 -0.2381
  797MOL0     N 5089   8.841   5.074  10.329 -0.1051  0.4426 -0.1664
  797MOL0     C 5090   8.936   5.079  10.421 -0.8247  0.2505  0.4625
  797MOL0     C 5091   9.041   5.017  10.361  0.5976 -0.0031  0.0551
  797MOL0     C 5092   9.177   4.975  10.422  0.0324  0.8101  0.4655
  797MOL0     C 5093   9.154   4.952  10.577 -0.0759 -1.1127  0.2841
  797MOL0     C 5094   9.257   4.873  10.647  0.4408 -0.9682  0.0885
  797MOL0     C 5095   9.281   4.735  10.581  0.9855  0.0669 -0.5346
  797MOL0     O 5096   9.345   4.653  10.681  0.0465 -0.4015  0.3697
  797MOL0     C 5097   9.293   4.609  10.796 -0.2172  0.0985 -0.4460
  797MOL0     C 5098   9.155   4.595  10.808 -0.4797 -0.0264  1.1139
  797MOL0     C 5099   9.096   4.535  10.916  0.1388  1.4200 -0.7848
  797MOL0     C 5100   9.172   4.497  11.033 -0.3897 -0.3538 -0.4429
  797MOL0     C 5101   9.107   4.426  11.147  0.0812 -0.6025 -0.1096
  797MOL0     O 5102   9.180   4.397  11.266 -0.3964 -0.4099  0.3810
  797MOL0     C 5103   9.121   4.374  11.390  0.3908  0.7113 -0.0495
  797MOL0     C 5104   8.998   4.306  11.405 -0.1092  0.0695  1.0348
  797MOL0     C 5105   8.943   4.297  11.533  0.0032  0.1407  0.5123
  797MOL0     C 5106   9.019   4.331  11.645 -0.1747  0.2262 -0.5949
  797MOL0     O 5107   8.966   4.318  11.773 -0.2597  1.0079  0.0785
  797MOL0     C 5108   8.824   4.318  11.795 -0.3173  0.1683  0.1980
  797MOL0     C 5109   8.819   4.373  11.939 -0.4033 -0.8598  0.7058
  797MOL0     C 5110   8.893   4.277  12.032 -0.1696  0.1186  0.0649
  797MOL0     C 5111   8.860   4.318  12.172 -0.4434  0.8400  0.9280
  797MOL0     C 5112   8.735   4.255  12.225 -0.1633 -0.0508  0.9377
  797MOL0     C 5113   8.722   4.285  12.370  1.0643  0.1271 -0.4855
  797MOL0     C 5114   8.707   4.431  12.411 -0.3872 -0.6448 -0.1633
  797MOL0     C 5115   8.597   4.503  12.349 -0.1002  0.9479  0.5614
  797MOL0    Cl 5116   8.602   4.674  12.422 -0.2413  0.0243  0.2090
  797MOL0     C 5117   9.148   4.380  11.634 -0.5599 -0.4381  0.3482
  797MOL0     C 5118   9.199   4.403  11.500  0.0897  0.2431  0.0302
  797MOL0     O 5119   8.990   4.398  11.129 -0.2789 -0.1173 -0.3984
  797MOL0     C 5120   9.319   4.508  11.016  0.1296 -0.0752  0.7378
  797MOL0     C 5121   9.375   4.562  10.899 -0.3778  0.0686 -0.2865
  797MOL0     N 5122   8.999   4.983  10.227  0.4707 -0.4411 -0.0130
  797MOL0     N 5123   8.871   5.000  10.216  0.2082 -0.5070  0.5659
  797MOL0     C 5124   7.776   5.159  10.268  0.6939 -0.7592  0.6547
  797MOL0     C 5125   7.664   5.107  10.210 -0.1875  0.1304  0.3405
  797MOL0     C 5126   7.184   4.990  10.171  0.6733 -0.2092 -0.5946
  797MOL0     C 5127   7.212   4.878  10.090  0.1217  0.0335  0.2683
  797MOL0     C 5128   7.109   4.802  10.031  1.1157 -0.6314  0.6705
  797MOL0     C 5129   6.979   4.839  10.052  0.2848 -0.2954  0.5860
  797MOL0     O 5130   6.872   4.768  10.004 -0.3440  0.1624  0.4229
  797MOL0     C 5131   6.891   4.667   9.903  0.4494  0.6648  0.6111
  797MOL0     C 5132   6.768   4.586   9.866  0.1865  0.2332 -0.1808
  797MOL0     C 5133   6.793   4.433   9.836 -1.0354  0.0814 -0.1102
  797MOL0     C 5134   6.663   4.365   9.805 -0.7448 -1.0587 -0.6665
  797MOL0     C 5135   6.690   4.227   9.780  0.5070 -0.2358  0.1057
  797MOL0     C 5136   6.701   4.108   9.758 -0.5128  0.1788 -0.2568
  797MOL0     C 5137   6.947   4.944  10.128  0.6586 -0.0847 -0.3458
  797MOL0     C 5138   7.050   5.021  10.187  0.6607  0.5016  0.0734
  797MOL0     H 5139   7.451   5.108  10.482 -2.0486  2.3228 -1.4782
  797MOL0     H 5140   7.664   5.177  10.588 -4.7364 -1.3214  1.1514
  797MOL0     H 5141   8.022   5.149  10.322 -1.8683 -1.9097  0.0881
  797MOL0     H 5142   7.990   5.025  10.441  0.5081 -0.9065 -0.1384
  797MOL0     H 5143   8.128   5.152  10.595 -0.2044 -0.9174 -1.0898
  797MOL0     H 5144   8.156   5.282  10.483 -0.5456  0.9577 -0.4473
  797MOL0     H 5145   8.286   5.103  10.334  3.9969 -0.3126  0.2784
  797MOL0     H 5146   8.244   4.983  10.459 -1.8300 -0.8607 -2.5939
  797MOL0     H 5147   8.418   5.230  10.488 -0.0621  0.1359  0.2823
  797MOL0     H 5148   8.364   5.141  10.621  1.0670 -3.9226  0.7990
  797MOL0     H 5149   8.466   4.937  10.557 -2.3044  0.5782 -0.6915
  797MOL0     H 5150   8.590   5.061  10.573 -2.5051  2.5108  2.3115
  797MOL0     H 5151   8.479   4.935  10.327  0.9858  1.7484 -3.5693
  797MOL0     H 5152   8.642   4.934  10.399  0.2854  1.3371  0.5979
  797MOL0     H 5153   8.631   5.086  10.172  0.3437  1.5864 -0.7654
  797MOL0     H 5154   8.524   5.173  10.281 -0.0167 -0.6858  0.0227
  797MOL0     H 5155   8.724   5.192  10.441  2.3032  1.9479 -0.3568
  797MOL0     H 5156   8.754   5.265  10.282  0.5515  0.0409 -0.9891
  797MOL0     H 5157   8.935   5.131  10.516  1.4205 -0.0803  0.7321
  797MOL0     H 5158   9.255   5.049  10.400 -2.0460  2.3951 -2.2369
  797MOL0     H 5159   9.183   4.878  10.371 -3.7177  2.5458 -4.0855
  797MOL0     H 5160   9.055   4.909  10.594 -1.0442  1.2356  0.9633
  797MOL0     H 5161   9.148   5.051  10.623  0.3301  0.0795 -2.0904
  797MOL0     H 5162   9.351   4.930  10.651 -0.3212  0.2896  0.6198
  797MOL0     H 5163   9.224   4.857  10.750  0.4066  0.7215  0.3724
  797MOL0     H 5164   9.338   4.737  10.488  3.3103 -0.3064  0.8079
  797MOL0     H 5165   9.183   4.694  10.559  0.5563  0.8649 -0.1820
  797MOL0     H 5166   9.087   4.628  10.729  0.5512 -0.5121 -0.0046
  797MOL0     H 5167   8.988   4.535  10.918  0.0884  1.7369 -2.3125
  797MOL0     H 5168   8.929   4.276  11.327  0.7578  1.6313 -0.3878
  797MOL0     H 5169   8.840   4.263  11.533 -0.3194  1.0652 -0.4269
  797MOL0     H 5170   8.776   4.220  11.801 -0.6526  0.3236  0.0681
  797MOL0     H 5171   8.773   4.386  11.726 -0.7399  0.5142  0.8364
  797MOL0     H 5172   8.711   4.390  11.950 -0.4023  0.1425 -0.5496
  797MOL0     H 5173   8.863   4.473  11.943 -0.8469 -0.5899 -0.7092
  797MOL0     H 5174   9.001   4.280  12.015 -0.3102 -2.8659 -2.2308
  797MOL0     H 5175   8.857   4.179  11.997  1.3126 -1.2419  2.1189
  797MOL0     H 5176   8.943   4.291  12.238  1.1982  1.3224 -0.8268
  797MOL0     H 5177   8.851   4.427  12.170 -0.8495  0.8023 -0.7891
  797MOL0     H 5178   8.742   4.146  12.222  1.1915 -0.0547  2.7448
  797MOL0     H 5179   8.652   4.290  12.163  0.7555  1.8985  0.7087
  797MOL0     H 5180   8.815   4.246  12.413  0.5202  0.5296  1.1120
  797MOL0     H 5181   8.642   4.222  12.410 -0.2428  1.2693 -1.2074
  797MOL0     H 5182   8.700   4.433  12.520  0.9890 -1.4537 -0.0380
  797MOL0     H 5183   8.798   4.487  12.389 -0.0795 -0.1093  2.2194
  797MOL0     H 5184   8.505   4.448  12.374 -0.3547  1.5634  1.0179
  797MOL0     H 5185   8.598   4.522  12.242  2.1551 -2.6093 -0.2050
  797MOL0     H 5186   9.208   4.419  11.716 -0.2506  1.6761 -0.8220
  797MOL0     H 5187   9.303   4.433  11.497  0.1175  0.1116 -0.3148
  797MOL0     H 5188   9.379   4.470  11.099 -3.0294 -0.5153  2.9874
  797MOL0     H 5189   9.481   4.583  10.887 -0.4103  0.5540  0.2282
  797MOL0     H 5190   7.860   5.182  10.204 -0.4737  1.1042 -0.2941
  797MOL0     H 5191   7.685   5.091  10.105 -1.4887  2.5936 -0.3730
  797MOL0     H 5192   7.310   4.835  10.075 -0.6733 -0.8692 -3.3375
  797MOL0     H 5193   7.141   4.715   9.975  3.5600  0.2753  0.5109
  797MOL0     H 5194   6.955   4.589   9.945  1.9673  1.7819  0.4236
  797MOL0     H 5195   6.935   4.717   9.816  4.1349  1.5230  2.7370
  797MOL0     H 5196   6.705   4.589   9.955  2.6049 -1.1353  1.7235
  797MOL0     H 5197   6.720   4.646   9.788  1.8071  2.2387  0.2787
  797MOL0     H 5198   6.823   4.398   9.935  0.7602 -1.4949 -1.1537
  797MOL0     H 5199   6.874   4.411   9.767 -0.8740  0.2002  0.0399
  797MOL0     H 5200   6.604   4.384   9.896  0.0740  2.4833 -0.7155
  797MOL0     H 5201   6.621   4.418   9.718  0.6045 -0.2467 -0.8490
  797MOL0     H 5202   6.716   4.004   9.737 -1.2124  0.5080 -2.6005
  797MOL0     H 5203   6.845   4.952  10.162  1.7900 -1.6227  4.1344
  797MOL0     H 5204   7.021   5.104  10.251 -1.3311  0.7195 -1.0392
  798MOL0     O 5205  11.055   0.255  10.047  0.6790 -0.1555 -0.4378
  798MOL0     C 5206  10.963   0.306  10.113  0.8710  0.4069  0.2299
  798MOL0     O 5207  10.942   0.288  10.247  0.4396  1.1213  0.0945
  798MOL0     C 5208  11.041   0.218  10.316 -0.0474  0.1160 -0.0181
  798MOL0     C 5209  11.060   0.081  10.299  0.3935  0.1548 -0.3573
  798MOL0     C 5210  11.152   0.001  10.371 -0.2762 -1.4500 -0.0609
  798MOL0     C 5211  11.237   0.069  10.463  0.5756  1.0296  0.5890
  798MOL0     O 5212  11.328  -0.010  10.525 -0.0873  0.6277 -0.0147
  798MOL0     C 5213  11.384   0.050  10.643 -0.0172  0.8630  0.4927
  798MOL0     C 5214  11.444  -0.066  10.714  0.4628 -0.2772  0.8666
  798MOL0     C 5215  11.574  -0.126  10.642  0.1152  0.2230  0.1551
  798MOL0     C 5216  11.632  -0.241  10.727 -0.7020 -0.6973  0.2426
  798MOL0     C 5217  11.767  -0.281  10.655  0.4291  1.2800 -0.1631
  798MOL0     C 5218  11.893  -0.211  10.706  1.0756 -0.3918 -0.1223
  798MOL0     C 5219  12.025  -0.245  10.635 -0.0351 -0.2949 -0.4034
  798MOL0     C 5220  12.030  -0.205  10.482  0.3206 -0.3623 -0.4558
  798MOL0     N 5221  12.165  -0.186  10.435  0.6216 -0.0560 -0.0466
  798MOL0     C 5222  12.215  -0.065  10.414  0.1545  0.6490  0.7168
  798MOL0     C 5223  12.339  -0.092  10.375 -0.0871 -0.4904 -0.1099
  798MOL0     C 5224  12.435   0.005  10.340 -0.8169  0.4348 -1.6010
  798MOL0     C 5225  12.410   0.070  10.205  0.1604  0.1028 -0.3628
  798MOL0     C 5226  12.438  -0.023  10.095 -0.0523 -0.4434 -0.0369
  798MOL0     C 5227  12.578  -0.078  10.082 -0.6380 -1.5353 -0.4196
  798MOL0     O 5228  12.663   0.039  10.068 -0.3874 -0.4561 -0.1351
  798MOL0     C 5229  12.793   0.024  10.030 -0.3761  1.2776 -1.0538
  798MOL0     C 5230  12.860   0.139  10.045 -0.4702 -0.5964  0.0097
  798MOL0     C 5231  13.000   0.143  10.027 -0.8322  0.1298  0.7659
  798MOL0     C 5232  13.078   0.034  10.005  0.4597  0.5865  0.0784
  798MOL0     C 5233  13.226   0.036   9.995  0.0785 -0.2643 -0.3886
  798MOL0     O 5234  13.285   0.162   9.971  0.0712  0.9210  0.1264
  798MOL0     C 5235  13.422   0.182   9.958  0.8934 -0.2116  0.1008
  798MOL0     C 5236  13.458   0.230   9.828 -0.9912  0.3494  0.3957
  798MOL0     C 5237  13.592   0.264   9.798  0.8512  0.6827 -0.2160
  798MOL0     C 5238  13.698   0.234   9.893  0.8560 -0.1663 -0.7105
  798MOL0     O 5239  13.835   0.249   9.871 -0.5866  0.0502  0.4665
  798MOL0     C 5240  13.894   0.278   9.736 -0.4347  0.1078  1.1308
  798MOL0     C 5241  14.042   0.284   9.736  0.6095 -0.0054 -0.4851
  798MOL0     C 5242  14.110   0.155   9.784 -0.2848 -0.2632  0.6114
  798MOL0     C 5243  14.105   0.046   9.678  0.0710  0.0629  0.5170
  798MOL0     C 5244  14.034  -0.083   9.719  0.0561  0.6224 -0.3304
  798MOL0     C 5245  14.067  -0.198   9.621  0.7853 -0.5808  0.0353
  798MOL0     C 5246  14.004  -0.188   9.484  0.1303 -1.1781  0.1669
  798MOL0     C 5247  14.009  -0.315   9.399 -1.0025  0.1673 -0.2063
  798MOL0    Cl 5248  14.175  -0.360   9.356  0.2698  0.0642 -0.0679
  798MOL0     C 5249  13.656   0.180  10.019 -0.8149  0.2463  0.2262
  798MOL0     C 5250  13.524   0.148  10.054  0.3536  0.0679  0.4002
  798MOL0     O 5251  13.285  -0.068  10.031  0.3938  0.0531 -0.2422
  798MOL0     C 5252  13.008  -0.092  10.006 -0.3105  0.9128  0.7570
  798MOL0     C 5253  12.867  -0.100  10.016  0.0953 -0.7647  0.1243
  798MOL0     N 5254  12.365  -0.232  10.372  0.7299 -0.4624  0.3415
  798MOL0     N 5255  12.253  -0.288  10.401  0.3138  0.2240  0.2375
  798MOL0     C 5256  11.221   0.209  10.470  0.0171 -0.0730 -0.3189
  798MOL0     C 5257  11.124   0.290  10.402  0.5911 -0.8014 -0.1223
  798MOL0     C 5258  10.856   0.393  10.042  0.8380  1.2687 -1.2662
  798MOL0     C 5259  10.864   0.416   9.907 -0.0739  0.2200  0.5440
  798MOL0     C 5260  10.763   0.503   9.842 -0.9024  0.9112 -0.8750
  798MOL0     C 5261  10.660   0.556   9.920  0.7808 -0.3915  0.9782
  798MOL0     O 5262  10.564   0.621   9.853  0.0913  0.2127 -0.1770
  798MOL0     C 5263  10.539   0.747   9.899 -0.3496 -0.0694  0.0077
  798MOL0     C 5264  10.381   0.762   9.916 -0.2276 -0.5021  0.1450
  798MOL0     C 5265  10.324   0.898   9.897  0.4573  0.7267 -0.0445
  798MOL0     C 5266  10.169   0.892   9.922 -0.1768  0.2591  0.5802
  798MOL0     C 5267  10.099   0.814   9.820 -0.5061 -0.0921 -0.1783
  798MOL0     C 5268  10.048   0.769   9.724 -0.8710  0.4814  1.0372
  798MOL0     C 5269  10.655   0.522  10.056  0.4079  0.0506  0.6321
  798MOL0     C 5270  10.747   0.442  10.121 -1.2222  0.2563  0.0055
  798MOL0     H 5271  10.984   0.043  10.230  1.4581  0.5498 -1.7888
  798MOL0     H 5272  11.172  -0.104  10.351 -0.1676 -1.5360  0.4579
  798MOL0     H 5273  11.312   0.097  10.710 -0.1574 -1.0996  1.8094
  798MOL0     H 5274  11.467   0.112  10.607 -3.0041  3.5105 -2.4686
  798MOL0     H 5275  11.368  -0.140  10.744 -1.1039  1.5255  1.5465
  798MOL0     H 5276  11.475  -0.026  10.811  0.2129 -4.1182  2.7144
  798MOL0     H 5277  11.649  -0.046  10.634  0.9705 -0.3265  2.1237
  798MOL0     H 5278  11.564  -0.160  10.538  0.3905 -1.6314  0.6964
  798MOL0     H 5279  11.660  -0.209  10.828  1.2340  1.0368 -0.7641
  798MOL0     H 5280  11.568  -0.330  10.721 -2.8563  0.7183 -6.2895
  798MOL0     H 5281  11.752  -0.275  10.547  0.7857 -1.2870 -0.4308
  798MOL0     H 5282  11.791  -0.386  10.677  3.0005  1.9307  0.4619
  798MOL0     H 5283  11.907  -0.244  10.809 -0.5202 -0.1285  0.2097
  798MOL0     H 5284  11.884  -0.102  10.708  2.8414 -0.2174  0.6358
  798MOL0     H 5285  12.108  -0.199  10.688  2.5841 -0.5365 -3.9151
  798MOL0     H 5286  12.048  -0.352  10.644  1.7831  0.0966 -0.0717
  798MOL0     H 5287  11.964  -0.121  10.459  0.3295 -0.2474 -0.0626
  798MOL0     H 5288  11.977  -0.283  10.427  0.5096  1.0623 -2.8372
  798MOL0     H 5289  12.167   0.030  10.431 -0.8501  0.0584  1.2457
  798MOL0     H 5290  12.533  -0.043  10.348 -0.6369  0.8842 -1.0451
  798MOL0     H 5291  12.419   0.074  10.424 -1.5569  0.4672 -1.7597
  798MOL0     H 5292  12.472   0.159  10.194  0.2633  0.5945  3.0371
  798MOL0     H 5293  12.305   0.099  10.208 -0.0272 -0.5290 -0.7502
  798MOL0     H 5294  12.375  -0.110  10.118 -0.1384 -0.2785  0.3606
  798MOL0     H 5295  12.422   0.031  10.002 -2.7598 -0.7517  0.1577
  798MOL0     H 5296  12.576  -0.149   9.998  0.3842  0.3445 -2.1268
  798MOL0     H 5297  12.611  -0.128  10.174  1.0412 -0.7930 -0.5778
  798MOL0     H 5298  12.812   0.235  10.061 -0.1351 -0.7610  2.3730
  798MOL0     H 5299  13.034   0.245  10.041  2.0966 -0.8464  1.5319
  798MOL0     H 5300  13.387   0.233   9.746 -1.4524 -2.8960  0.5596
  798MOL0     H 5301  13.630   0.306   9.706  2.6207 -2.3741 -1.0286
  798MOL0     H 5302  13.847   0.372   9.704 -4.9079 -2.1950  0.1754
  798MOL0     H 5303  13.865   0.206   9.659 -0.9778  2.3904 -0.9325
  798MOL0     H 5304  14.070   0.350   9.818  1.9443 -1.7488  0.5513
  798MOL0     H 5305  14.080   0.324   9.641 -1.4697  0.9488 -0.9710
  798MOL0     H 5306  14.051   0.131   9.873  0.5527 -0.5952  1.0859
  798MOL0     H 5307  14.210   0.180   9.821 -0.2749 -0.3184  0.6217
  798MOL0     H 5308  14.056   0.091   9.591  0.5817  1.2811  0.8351
  798MOL0     H 5309  14.210   0.022   9.657  0.1997  0.2552  0.9361
  798MOL0     H 5310  13.926  -0.068   9.732  0.1361  1.9033 -0.9651
  798MOL0     H 5311  14.078  -0.120   9.812  0.6442  3.1351  0.4626
  798MOL0     H 5312  14.035  -0.292   9.668  2.1752 -0.4064  1.4435
  798MOL0     H 5313  14.175  -0.203   9.603  0.6804  1.0078 -1.2237
  798MOL0     H 5314  13.897  -0.166   9.490  0.5879  3.5113 -3.0444
  798MOL0     H 5315  14.039  -0.097   9.434 -5.4212  0.8248 -0.8391
  798MOL0     H 5316  13.953  -0.300   9.306 -3.2164  1.5418  1.2340
  798MOL0     H 5317  13.970  -0.405   9.449  1.6280 -2.6780 -2.8993
  798MOL0     H 5318  13.735   0.143  10.083  1.0111  0.9673 -1.4975
  798MOL0     H 5319  13.505   0.104  10.151  0.2659  2.4155  1.5149
  798MOL0     H 5320  13.058  -0.187  10.020 -1.8647  0.0439  0.6823
  798MOL0     H 5321  12.824  -0.199  10.014  1.2390 -1.3754  2.2024
  798MOL0     H 5322  11.291   0.260  10.537  2.1300 -2.5897 -0.4420
  798MOL0     H 5323  11.110   0.394  10.427  3.4481 -0.1155 -1.0349
  798MOL0     H 5324  10.944   0.379   9.844 -0.7441  1.8507 -1.3641
  798MOL0     H 5325  10.760   0.542   9.740  0.2977  3.2730 -0.0802
  798MOL0     H 5326  10.573   0.811   9.816  0.8775 -0.3853  0.2498
  798MOL0     H 5327  10.590   0.788   9.987  1.9403  0.8570 -1.6448
  798MOL0     H 5328  10.340   0.715   9.826  0.8895  4.6517 -3.4759
  798MOL0     H 5329  10.351   0.730  10.016  2.0500  0.3597  1.1830
  798MOL0     H 5330  10.336   0.946   9.800 -0.9148 -1.2472 -1.2639
  798MOL0     H 5331  10.362   0.967   9.973 -0.8924  0.0435  1.3065
  798MOL0     H 5332  10.143   0.846  10.018  3.2860 -1.1069  1.0102
  798MOL0     H 5333  10.141   0.997   9.912  0.3867  0.3470 -0.0970
  798MOL0     H 5334   9.998   0.744   9.632  1.4654 -1.2314  0.1437
  798MOL0     H 5335  10.571   0.559  10.113  0.3237  0.8991 -0.0204
  798MOL0     H 5336  10.719   0.411  10.221 -1.4272 -2.6833 -0.8567
  799MOL0     O 5337  10.885   5.582   2.028  0.2393  0.4022  0.6060
  799MOL0     C 5338  10.792   5.608   2.106  0.5985  0.6595  0.5617
  799MOL0     O 5339  10.693   5.520   2.147 -0.0260 -0.0722 -0.4312
  799MOL0     C 5340  10.687   5.401   2.074 -0.5755  0.3233  0.7348
  799MOL0     C 5341  10.660   5.420   1.939  0.3744  0.4511  0.3011
  799MOL0     C 5342  10.652   5.307   1.857 -0.1421 -0.4024 -0.9743
  799MOL0     C 5343  10.665   5.177   1.912  0.1660 -0.0736 -0.3377
  799MOL0     O 5344  10.646   5.068   1.833 -0.3522 -0.5366 -0.6279
  799MOL0     C 5345  10.587   5.096   1.695  0.3612  0.4789 -0.9256
  799MOL0     C 5346  10.549   4.958   1.637 -0.5798  0.2397  0.3038
  799MOL0     C 5347  10.672   4.895   1.564  0.0213 -0.2523 -0.1717
  799MOL0     C 5348  10.647   4.768   1.490  0.3041  0.9381 -0.0932
  799MOL0     C 5349  10.758   4.734   1.390 -0.7508  0.8998  0.9054
  799MOL0     C 5350  10.729   4.593   1.331 -1.3021  0.3735 -0.4542
  799MOL0     C 5351  10.853   4.520   1.268  0.1972 -0.5749  0.1861
  799MOL0     C 5352  10.826   4.389   1.203 -0.0153 -0.5666  0.3798
  799MOL0     N 5353  10.745   4.405   1.080 -1.2909  0.0806  0.0437
  799MOL0     C 5354  10.651   4.315   1.037  0.1701 -0.3801  0.0493
  799MOL0     C 5355  10.601   4.343   0.921  0.3390 -0.2071 -0.4001
  799MOL0     C 5356  10.496   4.282   0.833 -0.7935  0.5126  0.0559
  799MOL0     C 5357  10.552   4.263   0.689  0.1173 -0.3480  1.3189
  799MOL0     C 5358  10.691   4.204   0.685  0.2775 -0.0551 -0.1732
  799MOL0     C 5359  10.744   4.155   0.542 -0.1893  0.0235 -0.7803
  799MOL0     O 5360  10.855   4.081   0.563 -0.0336  0.1336  0.4396
  799MOL0     C 5361  10.946   4.053   0.458  0.4788  0.0037 -0.2348
  799MOL0     C 5362  11.047   3.972   0.491 -0.4286  0.6448  0.1811
  799MOL0     C 5363  11.141   3.929   0.397 -0.2997  0.6463  0.2551
  799MOL0     C 5364  11.138   3.987   0.271 -0.3169  0.2051 -0.2562
  799MOL0     C 5365  11.240   3.944   0.167 -0.0174 -0.8211  1.1801
  799MOL0     O 5366  11.319   3.844   0.206  0.1306  0.6873 -0.3990
  799MOL0     C 5367  11.442   3.814   0.148  0.2317  0.0165  0.7301
  799MOL0     C 5368  11.529   3.912   0.119 -0.6707  0.1258  0.5411
  799MOL0     C 5369  11.651   3.883   0.051 -0.0812 -0.0379 -0.0700
  799MOL0     C 5370  11.692   3.756   0.023 -1.6336 -0.2583  0.1885
  799MOL0     O 5371  11.820   3.726  -0.034 -0.0619 -0.5396  0.1941
  799MOL0     C 5372  11.895   3.828  -0.094  0.0647 -0.0455  0.2773
  799MOL0     C 5373  12.002   3.786  -0.199 -0.3516  0.8527 -0.2730
  799MOL0     C 5374  12.141   3.742  -0.144  0.8424  0.2362  0.9231
  799MOL0     C 5375  12.132   3.609  -0.054 -0.4619  0.0514 -0.0019
  799MOL0     C 5376  12.269   3.558  -0.023 -0.4154  0.9580 -0.1190
  799MOL0     C 5377  12.295   3.455   0.091  0.3207  1.0898  0.2460
  799MOL0     C 5378  12.437   3.387   0.073  0.2511 -0.1083  0.6439
  799MOL0     C 5379  12.552   3.464   0.133 -0.8699  0.4406 -1.1057
  799MOL0    Cl 5380  12.551   3.640   0.119 -0.2979 -0.1925 -0.0816
  799MOL0     C 5381  11.605   3.650   0.055 -0.1480 -0.0336  0.4300
  799MOL0     C 5382  11.483   3.677   0.125 -0.6403 -0.7637 -0.6894
  799MOL0     O 5383  11.246   4.009   0.057  0.3137  0.2239 -0.1462
  799MOL0     C 5384  11.029   4.067   0.239  0.2223 -0.7963  0.9892
  799MOL0     C 5385  10.933   4.101   0.329  1.2237  0.0089 -0.0831
  799MOL0     N 5386  10.679   4.454   0.890 -0.8965 -0.5876  0.7850
  799MOL0     N 5387  10.766   4.484   0.975  0.0947  0.1271 -0.1176
  799MOL0     C 5388  10.703   5.157   2.045  0.7712  0.2443 -0.2885
  799MOL0     C 5389  10.714   5.271   2.133  0.4385  0.5105  0.1685
  799MOL0     C 5390  10.781   5.739   2.159  0.5935  0.2834 -0.0641
  799MOL0     C 5391  10.869   5.844   2.127 -0.2203 -0.3094 -1.3596
  799MOL0     C 5392  10.855   5.978   2.182 -0.0193 -0.0718  0.7675
  799MOL0     C 5393  10.762   5.998   2.278  0.3753  0.2405 -0.1714
  799MOL0     O 5394  10.737   6.130   2.327  0.1341  0.8092 -0.7776
  799MOL0     C 5395  10.839   6.229   2.322  0.5109  0.1147  0.0227
  799MOL0     C 5396  10.793   6.347   2.406  0.1667 -0.1167 -0.9389
  799MOL0     C 5397  10.911   6.414   2.487  0.2515  0.4047  0.8707
  799MOL0     C 5398  10.998   6.510   2.406 -0.2753 -0.7891  0.4100
  799MOL0     C 5399  11.110   6.545   2.490 -0.4699 -0.7555 -1.2658
  799MOL0     C 5400  11.195   6.576   2.571 -0.1530 -0.4547  0.3448
  799MOL0     C 5401  10.665   5.905   2.313 -0.5652 -0.6144 -0.3726
  799MOL0     C 5402  10.675   5.777   2.251 -0.3298 -0.7685  0.7673
  799MOL0     H 5403  10.644   5.515   1.889 -0.5864 -0.3373 -0.9425
  799MOL0     H 5404  10.641   5.334   1.752 -0.5246  1.1967 -0.5604
  799MOL0     H 5405  10.666   5.146   1.638  1.5854  2.4144  2.1996
  799MOL0     H 5406  10.505   5.168   1.699 -0.4048 -0.3218 -1.7852
  799MOL0     H 5407  10.471   4.971   1.561  2.0537  1.1086 -2.4490
  799MOL0     H 5408  10.522   4.887   1.716 -1.1061  1.8975  1.6851
  799MOL0     H 5409  10.757   4.881   1.631  2.0061  1.4429 -2.1901
  799MOL0     H 5410  10.700   4.968   1.488  0.0595 -1.5488 -1.4510
  799MOL0     H 5411  10.613   4.677   1.540 -0.0098  0.1600 -1.6598
  799MOL0     H 5412  10.563   4.789   1.423  2.0039  1.4894 -2.1438
  799MOL0     H 5413  10.858   4.742   1.434  0.2717 -2.8058 -0.4115
  799MOL0     H 5414  10.746   4.803   1.306 -5.2766 -3.3012 -2.4457
  799MOL0     H 5415  10.656   4.611   1.252 -1.2545  0.5110 -0.4690
  799MOL0     H 5416  10.682   4.530   1.406 -1.2953  2.8274  1.7838
  799MOL0     H 5417  10.896   4.573   1.182  0.2937 -2.6634 -1.1269
  799MOL0     H 5418  10.932   4.516   1.343 -0.4753 -0.1325  0.9249
  799MOL0     H 5419  10.774   4.326   1.276  1.8064 -2.2163  0.3264
  799MOL0     H 5420  10.922   4.340   1.185 -1.2802 -3.1340  0.0692
  799MOL0     H 5421  10.611   4.234   1.097 -1.1847  1.2004  1.3815
  799MOL0     H 5422  10.402   4.337   0.841  0.2056  2.6289 -1.5848
  799MOL0     H 5423  10.484   4.183   0.878  7.1621  0.6165  4.1344
  799MOL0     H 5424  10.549   4.357   0.634 -1.3095 -0.1318  1.7181
  799MOL0     H 5425  10.482   4.197   0.637  1.0514 -1.6765  1.6713
  799MOL0     H 5426  10.764   4.277   0.720 -1.3350  0.5789  2.1228
  799MOL0     H 5427  10.681   4.112   0.743 -1.9221 -0.0945 -0.5157
  799MOL0     H 5428  10.757   4.232   0.465  1.7611  1.1571  0.5659
  799MOL0     H 5429  10.675   4.082   0.500 -2.3837  0.6969  1.3872
  799MOL0     H 5430  11.047   3.928   0.590 -2.9591 -1.7676 -0.7475
  799MOL0     H 5431  11.197   3.837   0.407 -1.5545 -0.1184  0.5284
  799MOL0     H 5432  11.495   4.014   0.134 -2.1798  0.2338 -2.7937
  799MOL0     H 5433  11.719   3.966   0.036  3.1252 -2.6630 -1.3271
  799MOL0     H 5434  11.951   3.892  -0.025  0.8985  1.5734 -1.8015
  799MOL0     H 5435  11.833   3.897  -0.152  1.1645  0.9143  0.2184
  799MOL0     H 5436  12.030   3.869  -0.264  4.2742  0.9632  1.5229
  799MOL0     H 5437  11.955   3.708  -0.260  0.0236 -1.9419  2.7739
  799MOL0     H 5438  12.192   3.822  -0.090 -0.4528  2.0886 -0.4529
  799MOL0     H 5439  12.217   3.725  -0.221 -0.3915 -4.1486  0.4014
  799MOL0     H 5440  12.075   3.634   0.035 -0.4124 -1.1091  0.3724
  799MOL0     H 5441  12.076   3.527  -0.101  0.1087 -0.1746 -0.3022
  799MOL0     H 5442  12.323   3.650   0.000  0.9660  0.4777 -1.2975
  799MOL0     H 5443  12.317   3.520  -0.113 -0.7157 -0.9910  0.4923
  799MOL0     H 5444  12.217   3.382   0.071  0.2025  1.1858  0.3511
  799MOL0     H 5445  12.276   3.505   0.187 -0.7768 -0.5828  0.9356
  799MOL0     H 5446  12.422   3.297   0.133  3.2765 -0.3698  1.1689
  799MOL0     H 5447  12.445   3.354  -0.031 -2.9226  1.3720 -0.1948
  799MOL0     H 5448  12.651   3.431   0.099 -1.5384 -2.9728 -0.0811
  799MOL0     H 5449  12.555   3.445   0.241 -1.0941  0.8926 -1.0169
  799MOL0     H 5450  11.650   3.552   0.041  0.3760  0.2301  0.2638
  799MOL0     H 5451  11.409   3.599   0.140  0.7921 -1.9322  0.6189
  799MOL0     H 5452  11.012   4.092   0.135 -0.2407 -0.1027  1.2188
  799MOL0     H 5453  10.860   4.164   0.278  1.9590 -1.4412 -3.1285
  799MOL0     H 5454  10.708   5.053   2.073  4.0754  0.9336  2.2559
  799MOL0     H 5455  10.740   5.269   2.238 -1.5453  0.9024  0.7154
  799MOL0     H 5456  10.950   5.825   2.058  0.1647  2.3744 -1.7779
  799MOL0     H 5457  10.933   6.048   2.152 -0.9179 -0.7565 -3.7096
  799MOL0     H 5458  10.855   6.265   2.220 -0.5770  4.1185  1.0886
  799MOL0     H 5459  10.939   6.204   2.360  0.8210  0.0679 -0.8124
  799MOL0     H 5460  10.733   6.416   2.346 -2.9452 -2.1319 -0.3855
  799MOL0     H 5461  10.717   6.310   2.476  0.2002 -1.7356 -1.7292
  799MOL0     H 5462  10.970   6.336   2.537 -0.6649 -0.3991  0.7404
  799MOL0     H 5463  10.865   6.471   2.568 -2.2580  2.7374 -1.9847
  799MOL0     H 5464  11.035   6.462   2.314  0.6116  0.3172  0.1596
  799MOL0     H 5465  10.939   6.597   2.377 -0.8743 -2.4138 -4.1803
  799MOL0     H 5466  11.274   6.612   2.634  0.4732  3.4044 -2.3185
  799MOL0     H 5467  10.605   5.935   2.398  1.0088 -1.7491  1.2193
  799MOL0     H 5468  10.592   5.710   2.271  1.0564 -1.7592  3.9673
  800MOL0     O 5469   6.083  10.744   6.007 -0.5258  0.4195  0.3298
  800MOL0     C 5470   6.186  10.810   6.010 -0.4299 -0.4633  0.0552
  800MOL0     O 5471   6.217  10.908   5.907 -0.9722  0.6384 -0.2259
  800MOL0     C 5472   6.114  10.957   5.836 -0.4747  0.0682 -0.4657
  800MOL0     C 5473   6.132  10.973   5.696 -0.5122  0.1282 -0.4203
  800MOL0     C 5474   6.037  11.036   5.615 -0.3410  0.2472  0.9992
  800MOL0     C 5475   5.918  11.071   5.675 -0.1370 -0.0640 -1.2910
  800MOL0     O 5476   5.803  11.111   5.607  0.2423  0.0415 -0.2415
  800MOL0     C 5477   5.795  11.093   5.463 -0.0831 -0.2752  0.1861
  800MOL0     C 5478   5.703  11.194   5.410 -0.0666 -0.3461 -0.7492
  800MOL0     C 5479   5.550  11.174   5.450  0.2313  0.5076 -0.6990
  800MOL0     C 5480   5.461  11.278   5.369 -0.8171 -0.4437  0.6670
  800MOL0     C 5481   5.331  11.321   5.445  0.3794  0.8616  0.0910
  800MOL0     C 5482   5.322  11.470   5.439 -0.3155 -0.2552  0.1946
  800MOL0     C 5483   5.399  11.537   5.548 -0.7235 -0.2301 -0.4234
  800MOL0     C 5484   5.410  11.692   5.531 -0.1714  0.1166  0.2825
  800MOL0     N 5485   5.524  11.741   5.623  0.9390 -0.1232  0.8814
  800MOL0     C 5486   5.652  11.764   5.575 -0.6261 -0.6525  0.2283
  800MOL0     C 5487   5.734  11.774   5.683 -0.3131 -0.7512 -0.0362
  800MOL0     C 5488   5.884  11.811   5.671  0.7134  1.3490 -0.0964
  800MOL0     C 5489   5.893  11.954   5.622  0.0211  0.2812  0.3939
  800MOL0     C 5490   6.030  12.014   5.631  0.2950  0.9543  0.3221
  800MOL0     C 5491   6.016  12.164   5.589 -0.7265 -0.3437  0.3450
  800MOL0     O 5492   6.141  12.233   5.622 -0.1915  0.1688 -0.2543
  800MOL0     C 5493   6.168  12.269   5.759 -0.7871 -0.6323 -0.0928
  800MOL0     C 5494   6.080  12.270   5.869  0.4426 -0.1817 -0.2620
  800MOL0     C 5495   6.127  12.318   5.990  0.5187 -0.3755 -0.0981
  800MOL0     C 5496   6.258  12.365   6.017  0.2621 -0.6433 -0.1817
  800MOL0     C 5497   6.305  12.401   6.156 -0.1195 -0.1330  0.6410
  800MOL0     O 5498   6.203  12.385   6.249  0.3076 -0.4915 -0.1787
  800MOL0     C 5499   6.216  12.419   6.384 -0.6953 -0.1605  0.3321
  800MOL0     C 5500   6.104  12.375   6.457 -0.2509  0.0904  0.0366
  800MOL0     C 5501   6.074  12.416   6.588  0.4644  0.2716  0.0584
  800MOL0     C 5502   6.161  12.513   6.652  0.2171 -0.5283  0.1924
  800MOL0     O 5503   6.154  12.573   6.775  0.0548 -0.2222  0.1826
  800MOL0     C 5504   6.041  12.545   6.858 -0.2443 -0.2324  0.2434
  800MOL0     C 5505   6.082  12.546   6.999  1.2696 -0.1699 -0.4670
  800MOL0     C 5506   6.147  12.677   7.049  1.0748 -0.6400  0.1430
  800MOL0     C 5507   6.034  12.782   7.056 -0.5520  0.1031  0.3746
  800MOL0     C 5508   6.090  12.879   7.162  0.9351 -0.8144 -0.7481
  800MOL0     C 5509   5.987  12.997   7.190 -0.0829 -0.9042  0.5351
  800MOL0     C 5510   5.973  13.096   7.075  0.2861 -0.2126  0.0150
  800MOL0     C 5511   5.850  13.193   7.078  0.3555 -0.4415 -0.3812
  800MOL0    Cl 5512   5.873  13.321   7.203  0.1374 -0.2992 -0.0176
  800MOL0     C 5513   6.275  12.555   6.572  0.1977  0.0869 -0.0142
  800MOL0     C 5514   6.296  12.510   6.445  0.0975 -0.2472 -0.2915
  800MOL0     O 5515   6.412  12.465   6.172  0.4262  0.4020 -0.1711
  800MOL0     C 5516   6.344  12.354   5.906 -0.3918 -1.1697  0.3203
  800MOL0     C 5517   6.299  12.313   5.785 -0.2789  0.9114  0.0942
  800MOL0     N 5518   5.654  11.756   5.792 -0.6831  0.1418  0.4268
  800MOL0     N 5519   5.532  11.753   5.754  0.3511  1.0724 -0.0567
  800MOL0     C 5520   5.901  11.059   5.811  0.5194  0.6238  0.2439
  800MOL0     C 5521   6.003  11.012   5.896  0.0394 -0.0712 -0.0201
  800MOL0     C 5522   6.297  10.779   6.098  0.0492  0.3853 -0.5166
  800MOL0     C 5523   6.420  10.851   6.108 -0.5800  0.3797  0.3863
  800MOL0     C 5524   6.521  10.807   6.193 -0.3569  0.5090 -0.4319
  800MOL0     C 5525   6.514  10.699   6.273  0.6571 -0.3796 -0.3657
  800MOL0     O 5526   6.606  10.653   6.361 -0.0753 -0.0141  0.8768
  800MOL0     C 5527   6.731  10.712   6.373 -0.3480 -0.2143 -0.1934
  800MOL0     C 5528   6.849  10.651   6.444  0.0717  0.6633 -0.1632
  800MOL0     C 5529   6.821  10.641   6.592 -0.9494  1.7634 -0.1304
  800MOL0     C 5530   6.895  10.748   6.667 -0.5385 -0.3925  0.6927
  800MOL0     C 5531   7.040  10.740   6.639  0.5399 -0.0028  0.2345
  800MOL0     C 5532   7.156  10.726   6.599 -0.6612  0.7030 -0.6026
  800MOL0     C 5533   6.396  10.629   6.266 -0.0281 -0.6481 -0.9468
  800MOL0     C 5534   6.285  10.663   6.180 -0.6787  0.3173  0.2491
  800MOL0     H 5535   6.228  10.942   5.658  0.6116  1.2343  1.3728
  800MOL0     H 5536   6.044  11.042   5.507 -2.4537  2.0943  0.8931
  800MOL0     H 5537   5.768  10.988   5.443  2.7883 -1.0163 -0.1824
  800MOL0     H 5538   5.888  11.114   5.409 -0.5539 -0.8999 -0.9073
  800MOL0     H 5539   5.704  11.189   5.301 -0.7393 -1.4968 -0.7139
  800MOL0     H 5540   5.738  11.293   5.440  1.3706 -1.5394  1.8893
  800MOL0     H 5541   5.532  11.202   5.554 -1.6464 -1.2035 -0.4941
  800MOL0     H 5542   5.521  11.068   5.440  3.3981 -0.5514  0.1622
  800MOL0     H 5543   5.524  11.365   5.349  0.0019 -0.0597  4.2251
  800MOL0     H 5544   5.436  11.237   5.271  0.5953  1.1377 -0.4192
  800MOL0     H 5545   5.331  11.285   5.548  0.7106 -1.4283 -0.6585
  800MOL0     H 5546   5.247  11.279   5.389  0.3448 -0.5148  1.1182
  800MOL0     H 5547   5.218  11.491   5.466  0.1469  2.9027 -0.0738
  800MOL0     H 5548   5.326  11.508   5.337 -1.6216  1.0868  0.6074
  800MOL0     H 5549   5.366  11.503   5.647  1.8635 -1.8584 -0.0027
  800MOL0     H 5550   5.502  11.502   5.535 -0.6893 -0.3783  0.2136
  800MOL0     H 5551   5.321  11.748   5.562 -0.3465  0.2422 -0.4444
  800MOL0     H 5552   5.439  11.716   5.429  1.7785  0.0671  0.7713
  800MOL0     H 5553   5.692  11.762   5.474  2.2080  0.4247  1.2354
  800MOL0     H 5554   5.932  11.739   5.605  0.1122 -1.1572  2.0548
  800MOL0     H 5555   5.935  11.792   5.766 -0.3616  0.2542  0.2810
  800MOL0     H 5556   5.834  12.016   5.690  0.8146 -0.2208  1.5663
  800MOL0     H 5557   5.857  11.957   5.519 -0.2641  1.3306  0.5131
  800MOL0     H 5558   6.056  12.016   5.737  3.2535 -3.4317 -0.0797
  800MOL0     H 5559   6.108  11.972   5.567 -1.3347 -0.6484 -0.7028
  800MOL0     H 5560   5.934  12.213   5.641 -0.1084  0.7180  0.3478
  800MOL0     H 5561   6.006  12.182   5.482 -2.0944  0.4207  0.5707
  800MOL0     H 5562   5.976  12.241   5.854  0.7177 -3.3934  2.7982
  800MOL0     H 5563   6.065  12.316   6.079  1.8016  4.7871  1.2187
  800MOL0     H 5564   6.042  12.305   6.404 -0.9565  0.4502  0.3640
  800MOL0     H 5565   5.989  12.367   6.634 -0.1920  0.3347 -1.0671
  800MOL0     H 5566   6.003  12.442   6.852 -1.1835 -0.4197  5.0301
  800MOL0     H 5567   5.956  12.613   6.853 -1.8158 -2.0554  0.7757
  800MOL0     H 5568   6.140  12.454   7.012  0.4135 -0.3607  2.6855
  800MOL0     H 5569   5.985  12.530   7.047 -0.8538 -0.6407 -4.4889
  800MOL0     H 5570   6.225  12.714   6.982 -0.5190 -0.0532 -1.4618
  800MOL0     H 5571   6.189  12.647   7.145  1.6753 -4.6435 -1.1461
  800MOL0     H 5572   6.021  12.828   6.958  1.4945 -3.1332 -1.6112
  800MOL0     H 5573   5.944  12.734   7.094  1.2760 -3.5402  0.5485
  800MOL0     H 5574   6.183  12.921   7.123  0.5523  0.9901  0.1726
  800MOL0     H 5575   6.108  12.831   7.258  0.0350  0.2245 -0.0325
  800MOL0     H 5576   6.032  13.057   7.269  0.6938  1.9932 -1.9140
  800MOL0     H 5577   5.891  12.960   7.226  1.7525 -6.2255  0.8503
  800MOL0     H 5578   6.068  13.149   7.068  1.3708 -1.9584  0.8208
  800MOL0     H 5579   5.970  13.040   6.981 -1.0230  0.8191 -0.5967
  800MOL0     H 5580   5.759  13.136   7.099  0.3490 -0.0810  0.6273
  800MOL0     H 5581   5.824  13.238   6.982 -2.4995 -1.3914 -0.1385
  800MOL0     H 5582   6.338  12.637   6.608 -2.3458  1.8030  0.8579
  800MOL0     H 5583   6.379  12.550   6.388  2.0580 -0.0549  2.4895
  800MOL0     H 5584   6.449  12.377   5.925 -0.7768  0.8644  0.2507
  800MOL0     H 5585   6.373  12.319   5.706 -2.7478 -0.2443 -2.4603
  800MOL0     H 5586   5.807  11.102   5.843  1.3544 -0.5312  4.9686
  800MOL0     H 5587   5.988  11.009   6.004 -0.1318 -2.7385 -0.0451
  800MOL0     H 5588   6.433  10.938   6.043 -1.7441  0.6426  0.4689
  800MOL0     H 5589   6.608  10.872   6.192  0.5316 -0.3484  3.5405
  800MOL0     H 5590   6.723  10.811   6.419  2.4800  1.1627 -2.3054
  800MOL0     H 5591   6.767  10.722   6.270  2.2392 -1.7760  0.4737
  800MOL0     H 5592   6.871  10.549   6.412  0.6458  0.7307  0.0122
  800MOL0     H 5593   6.932  10.714   6.410 -1.4021  3.8526  1.6076
  800MOL0     H 5594   6.845  10.541   6.628 -1.2428  1.5544 -0.5148
  800MOL0     H 5595   6.714  10.648   6.615 -0.4210  2.7802  2.4201
  800MOL0     H 5596   6.855  10.847   6.642 -0.7840  0.0586  2.6719
  800MOL0     H 5597   6.875  10.717   6.770 -1.1276 -1.7914  0.1833
  800MOL0     H 5598   7.255  10.708   6.564 -0.3726  0.8714  0.1090
  800MOL0     H 5599   6.386  10.546   6.336 -0.9617  1.5905  1.7778
  800MOL0     H 5600   6.194  10.604   6.191 -0.8074  0.3239 -0.6912
  801MOL0     O 5601   7.084   9.533   7.847  0.5095  0.1232  0.8658
  801MOL0     C 5602   7.114   9.411   7.853 -0.8921 -0.4906 -0.3513
  801MOL0     O 5603   7.093   9.323   7.753  0.0718 -0.2189 -0.4435
  801MOL0     C 5604   7.053   9.390   7.634 -0.0933  0.0456 -0.0425
  801MOL0     C 5605   6.932   9.346   7.574  1.0227 -0.5587 -0.0983
  801MOL0     C 5606   6.895   9.392   7.442 -0.0811 -0.2169 -0.7932
  801MOL0     C 5607   6.958   9.503   7.388 -0.8555  0.6192  0.7329
  801MOL0     O 5608   6.909   9.550   7.265 -1.2145  0.8108 -0.1229
  801MOL0     C 5609   7.007   9.596   7.171  0.7433  0.3240 -0.2367
  801MOL0     C 5610   6.939   9.573   7.036 -0.6293 -0.5137 -0.3946
  801MOL0     C 5611   6.883   9.434   7.013  0.8540 -0.7185  0.9797
  801MOL0     C 5612   6.983   9.329   7.016 -0.1056  0.8835  0.3673
  801MOL0     C 5613   6.931   9.199   6.948 -0.1186 -1.0043  0.3586
  801MOL0     C 5614   6.800   9.141   7.016  1.1198 -0.1948  0.5121
  801MOL0     C 5615   6.744   9.033   6.927  0.0864 -0.3754 -0.8841
  801MOL0     C 5616   6.622   8.960   6.978 -0.3779 -0.3329 -0.3661
  801MOL0     N 5617   6.569   8.881   6.865  0.1849  1.0095 -0.5730
  801MOL0     C 5618   6.428   8.871   6.844 -0.0408 -0.3020  0.5959
  801MOL0     C 5619   6.407   8.773   6.754  0.0183 -0.0697  0.0995
  801MOL0     C 5620   6.279   8.750   6.689 -0.8029  0.3348 -0.2671
  801MOL0     C 5621   6.293   8.698   6.546 -1.0510  0.1789 -0.0407
  801MOL0     C 5622   6.158   8.643   6.498  0.1410  0.6551 -0.2679
  801MOL0     C 5623   6.075   8.747   6.409 -0.4220  0.6122 -0.6556
  801MOL0     O 5624   5.970   8.667   6.341 -0.0162  0.0424 -0.1451
  801MOL0     C 5625   5.854   8.724   6.296  0.1826  0.1157  0.7851
  801MOL0     C 5626   5.826   8.856   6.306  1.5467 -0.4609 -0.3128
  801MOL0     C 5627   5.713   8.915   6.250 -0.1407 -0.6752 -0.3797
  801MOL0     C 5628   5.603   8.829   6.210  0.3688 -0.1805  0.6432
  801MOL0     C 5629   5.467   8.876   6.173  0.2725 -0.0726 -0.5133
  801MOL0     O 5630   5.454   9.011   6.163  0.9032 -0.1179 -0.5763
  801MOL0     C 5631   5.344   9.069   6.096  0.3761  0.4982 -0.8164
  801MOL0     C 5632   5.313   9.027   5.967 -0.5597  0.1938 -0.3145
  801MOL0     C 5633   5.219   9.084   5.894  0.8947 -0.0508  0.1506
  801MOL0     C 5634   5.133   9.178   5.952  0.8801 -1.2409  0.6900
  801MOL0     O 5635   5.016   9.217   5.886  0.1218  0.7269  0.0598
  801MOL0     C 5636   4.901   9.258   5.954 -0.2247 -0.2643  0.3658
  801MOL0     C 5637   4.833   9.151   6.036  0.7397  0.2943 -0.7505
  801MOL0     C 5638   4.680   9.140   6.013  0.1864 -0.8434  1.0174
  801MOL0     C 5639   4.630   9.017   6.093 -0.9058 -0.5886 -0.0731
  801MOL0     C 5640   4.490   8.986   6.056  0.5802  0.1245 -1.2951
  801MOL0     C 5641   4.409   9.111   6.094  0.0426 -0.0688 -0.1673
  801MOL0     C 5642   4.261   9.094   6.146 -1.1998 -0.1091 -0.7449
  801MOL0     C 5643   4.161   9.060   6.042  0.6738 -0.1100 -0.6537
  801MOL0    Cl 5644   4.035   8.946   6.104 -0.1288 -0.1205  0.3906
  801MOL0     C 5645   5.158   9.208   6.088 -0.4687  0.5204  0.0493
  801MOL0     C 5646   5.272   9.162   6.155  0.1092 -0.3257 -0.1565
  801MOL0     O 5647   5.372   8.804   6.147 -0.5990 -0.3311  0.4315
  801MOL0     C 5648   5.621   8.692   6.218 -0.1842  0.1274 -0.1627
  801MOL0     C 5649   5.749   8.635   6.255 -0.2026 -0.3290  0.0403
  801MOL0     N 5650   6.525   8.709   6.743  0.1698  0.5139 -0.5536
  801MOL0     N 5651   6.615   8.764   6.815 -0.2322  0.0209  0.0780
  801MOL0     C 5652   7.078   9.543   7.451  0.0454  0.2820  0.1248
  801MOL0     C 5653   7.122   9.500   7.574  0.1049  0.2494 -0.2239
  801MOL0     C 5654   7.168   9.361   7.979  0.9420  0.4340 -0.6918
  801MOL0     C 5655   7.190   9.444   8.088 -0.6965 -0.0978 -0.3195
  801MOL0     C 5656   7.245   9.401   8.209 -0.2272  0.1171  0.6990
  801MOL0     C 5657   7.273   9.263   8.224 -0.4221 -1.1147  0.5261
  801MOL0     O 5658   7.317   9.211   8.340 -0.3207 -0.0511  0.2043
  801MOL0     C 5659   7.301   9.290   8.459  0.1853  0.1423 -0.6875
  801MOL0     C 5660   7.332   9.186   8.574 -0.9564 -0.3288  0.0085
  801MOL0     C 5661   7.321   9.249   8.703  0.2318  0.0894 -0.5911
  801MOL0     C 5662   7.183   9.216   8.767  0.1542 -0.1651 -0.3529
  801MOL0     C 5663   7.208   9.081   8.840  0.0813  0.2881 -0.7390
  801MOL0     C 5664   7.220   8.966   8.882  1.1189 -0.7412 -1.0431
  801MOL0     C 5665   7.252   9.173   8.124 -0.6809 -0.4233 -0.0809
  801MOL0     C 5666   7.210   9.225   8.000 -0.8714 -0.0253  0.0026
  801MOL0     H 5667   6.877   9.267   7.625  1.8347  0.5027  2.6089
  801MOL0     H 5668   6.816   9.344   7.385 -1.1428 -1.4237  1.5480
  801MOL0     H 5669   7.098   9.535   7.177  0.4924 -0.0274  0.1158
  801MOL0     H 5670   7.036   9.700   7.184  1.6067 -0.1401  2.0636
  801MOL0     H 5671   7.014   9.601   6.962  1.2300  0.4071  1.6888
  801MOL0     H 5672   6.855   9.643   7.035 -1.0631 -1.0324 -0.6288
  801MOL0     H 5673   6.819   9.436   6.924  1.4988 -0.1179  0.5223
  801MOL0     H 5674   6.805   9.409   7.086  0.1333 -2.4667 -0.3171
  801MOL0     H 5675   7.064   9.370   6.955  0.2313 -2.3004 -1.5671
  801MOL0     H 5676   7.015   9.294   7.115 -0.6329 -3.5994 -0.8305
  801MOL0     H 5677   7.013   9.128   6.942  0.8404  0.0733  0.4546
  801MOL0     H 5678   6.921   9.227   6.842 -1.8580 -0.7842  0.5410
  801MOL0     H 5679   6.724   9.219   7.027  1.6250  0.2035  1.2467
  801MOL0     H 5680   6.837   9.108   7.114  4.0556 -0.8108 -0.7119
  801MOL0     H 5681   6.716   9.078   6.831  0.0681  2.6237  0.4039
  801MOL0     H 5682   6.834   8.973   6.912  0.2475 -0.6715  1.0033
  801MOL0     H 5683   6.547   9.032   7.014 -2.1566 -1.5049 -1.5412
  801MOL0     H 5684   6.660   8.899   7.060  2.1153 -0.2653 -1.3895
  801MOL0     H 5685   6.355   8.936   6.891  1.5497  0.5901  1.9223
  801MOL0     H 5686   6.232   8.849   6.686  2.4229  2.0180 -0.0324
  801MOL0     H 5687   6.231   8.682   6.759  0.7943 -2.1437 -1.4445
  801MOL0     H 5688   6.376   8.627   6.545  0.6269  1.9137  2.3362
  801MOL0     H 5689   6.322   8.777   6.477 -0.9413 -1.0539 -1.4501
  801MOL0     H 5690   6.186   8.564   6.428  0.2749  1.9753 -1.7679
  801MOL0     H 5691   6.093   8.602   6.576  0.7397  0.9543  0.3960
  801MOL0     H 5692   6.142   8.797   6.339  1.2285 -0.9294 -0.2525
  801MOL0     H 5693   6.029   8.833   6.460 -0.5272  2.8000 -4.1563
  801MOL0     H 5694   5.894   8.920   6.362 -0.1345 -0.7232  2.1866
  801MOL0     H 5695   5.692   9.021   6.259  0.0488 -0.5120 -1.6875
  801MOL0     H 5696   5.382   8.965   5.910  0.9815  0.5032  1.1342
  801MOL0     H 5697   5.192   9.062   5.791  1.7655 -0.5279  0.0153
  801MOL0     H 5698   4.837   9.304   5.877  0.6462 -0.9257 -0.7840
  801MOL0     H 5699   4.916   9.343   6.021 -4.0123  0.0642  1.0140
  801MOL0     H 5700   4.844   9.175   6.142  1.9929 -0.7959 -0.6065
  801MOL0     H 5701   4.870   9.048   6.032  3.3238  1.1148  0.0871
  801MOL0     H 5702   4.663   9.120   5.907  1.5421 -0.8976  0.7960
  801MOL0     H 5703   4.641   9.237   6.042 -0.4896 -0.3226 -1.4332
  801MOL0     H 5704   4.691   8.929   6.071 -1.3247 -1.4727  2.0601
  801MOL0     H 5705   4.623   9.035   6.201  0.5136  0.9620 -0.2003
  801MOL0     H 5706   4.457   8.895   6.107  1.9018 -0.1381 -0.8654
  801MOL0     H 5707   4.474   8.953   5.953 -2.0798 -1.1353 -0.5589
  801MOL0     H 5708   4.412   9.170   6.002  0.9416 -2.7905 -2.0005
  801MOL0     H 5709   4.457   9.179   6.166  0.3471 -0.1048 -0.3352
  801MOL0     H 5710   4.268   9.010   6.215 -0.5913  0.4034 -0.1647
  801MOL0     H 5711   4.228   9.173   6.215 -0.4585  0.2581 -0.7980
  801MOL0     H 5712   4.210   9.007   5.959 -0.3522  2.7363 -3.2736
  801MOL0     H 5713   4.113   9.150   6.004  2.5118  3.2863  4.1052
  801MOL0     H 5714   5.108   9.285   6.147  5.8358  3.5821  2.2380
  801MOL0     H 5715   5.300   9.207   6.250 -1.6435 -0.0340  0.2683
  801MOL0     H 5716   5.535   8.633   6.187 -1.7122  1.5135  1.3228
  801MOL0     H 5717   5.767   8.528   6.260 -1.4546 -0.5889 -0.8788
  801MOL0     H 5718   7.119   9.624   7.391 -1.9633  0.4562 -1.1124
  801MOL0     H 5719   7.205   9.546   7.628 -1.6830  1.4336  1.6600
  801MOL0     H 5720   7.163   9.549   8.085  0.1022  0.1046 -1.6876
  801MOL0     H 5721   7.283   9.473   8.281  1.5914 -0.8239  0.7131
  801MOL0     H 5722   7.197   9.320   8.471 -1.2062 -4.0365 -0.6354
  801MOL0     H 5723   7.372   9.373   8.457  4.2841 -2.9955  0.2684
  801MOL0     H 5724   7.270   9.096   8.567  1.6435 -2.4000  1.4831
  801MOL0     H 5725   7.434   9.147   8.571 -0.7655  0.2211 -2.5034
  801MOL0     H 5726   7.324   9.356   8.682 -3.2702 -0.0318 -2.4660
  801MOL0     H 5727   7.398   9.223   8.776 -0.7094  1.4256  0.9363
  801MOL0     H 5728   7.157   9.301   8.831  3.6870  1.3311 -0.6393
  801MOL0     H 5729   7.105   9.210   8.690  0.9990  1.6521 -1.4322
  801MOL0     H 5730   7.217   8.866   8.920 -1.3134 -0.0023  1.0023
  801MOL0     H 5731   7.274   9.068   8.143  0.8275 -0.1655 -0.3223
  801MOL0     H 5732   7.222   9.154   7.918  2.9698 -0.4979  0.8020
  802MOL0     O 5733   8.557   5.920  10.701  0.1794 -0.6255  0.2022
  802MOL0     C 5734   8.647   5.949  10.782 -0.5474 -0.5754  0.5027
  802MOL0     O 5735   8.643   5.906  10.916 -0.5011  0.5811  0.9424
  802MOL0     C 5736   8.519   5.874  10.972 -0.5791  0.7467  0.0167
  802MOL0     C 5737   8.537   5.798  11.088 -0.4472 -0.0108  0.5728
  802MOL0     C 5738   8.429   5.754  11.158  0.6295 -0.0238  0.0375
  802MOL0     C 5739   8.300   5.802  11.142  0.0311 -0.6149 -1.5435
  802MOL0     O 5740   8.212   5.759  11.238  0.5928 -0.5511  0.3340
  802MOL0     C 5741   8.101   5.850  11.266  0.1117 -0.3099  0.3039
  802MOL0     C 5742   8.061   5.841  11.416  0.4303  0.9057  0.0433
  802MOL0     C 5743   7.973   5.959  11.447  0.2035  0.2365  0.1271
  802MOL0     C 5744   7.835   5.948  11.374  0.3292  0.0184  0.2534
  802MOL0     C 5745   7.731   6.043  11.426  0.8374  0.0463  0.4447
  802MOL0     C 5746   7.606   6.012  11.355 -0.1885  0.2697 -1.0376
  802MOL0     C 5747   7.479   6.090  11.405 -0.1117 -0.2336 -0.7580
  802MOL0     C 5748   7.343   6.036  11.359  0.7282 -0.2158 -0.1398
  802MOL0     N 5749   7.236   6.127  11.385 -0.3151 -0.9236  0.0016
  802MOL0     C 5750   7.178   6.157  11.501  0.3391  0.6820  0.2579
  802MOL0     C 5751   7.079   6.241  11.458 -0.9014  0.0374 -0.0847
  802MOL0     C 5752   6.991   6.301  11.557 -0.4324 -0.9276  0.2542
  802MOL0     C 5753   7.068   6.379  11.670 -0.2257  0.7453  0.0208
  802MOL0     C 5754   7.077   6.529  11.632  0.3058  0.2678 -0.6447
  802MOL0     C 5755   7.198   6.546  11.533 -1.0499 -1.1048 -0.5786
  802MOL0     O 5756   7.311   6.499  11.608 -0.4365  0.8240  1.0297
  802MOL0     C 5757   7.436   6.481  11.542 -0.4318  0.1854 -0.1113
  802MOL0     C 5758   7.541   6.468  11.631  0.1284 -1.1510 -0.2787
  802MOL0     C 5759   7.673   6.451  11.582  0.2392  0.1959  0.8548
  802MOL0     C 5760   7.690   6.440  11.444 -1.1552  0.1184  0.4571
  802MOL0     C 5761   7.828   6.435  11.394 -0.6139  0.2288  0.0270
  802MOL0     O 5762   7.925   6.398  11.481 -0.1472  0.4711 -0.6859
  802MOL0     C 5763   8.060   6.361  11.441  0.9313  0.5484  0.0125
  802MOL0     C 5764   8.075   6.290  11.320 -0.4865  0.4917  0.3700
  802MOL0     C 5765   8.201   6.259  11.273  0.5698  0.2536  0.6109
  802MOL0     C 5766   8.316   6.282  11.354  0.0225 -0.1910  0.5832
  802MOL0     O 5767   8.448   6.237  11.317  0.7808 -0.4419 -0.1372
  802MOL0     C 5768   8.471   6.165  11.196 -0.0824 -0.2011 -0.2965
  802MOL0     C 5769   8.627   6.177  11.158 -0.3063  0.8189 -0.1234
  802MOL0     C 5770   8.720   6.126  11.265  0.7275  0.3612 -0.8440
  802MOL0     C 5771   8.866   6.094  11.227  0.9543 -0.1347 -0.5129
  802MOL0     C 5772   8.964   6.104  11.349  1.1212  0.7113  0.2499
  802MOL0     C 5773   8.959   5.972  11.427 -0.4745 -0.0190  0.0959
  802MOL0     C 5774   9.083   5.947  11.519 -0.4726  0.0134 -1.0612
  802MOL0     C 5775   9.211   5.984  11.443  0.0071 -0.2869  0.1486
  802MOL0    Cl 5776   9.351   5.924  11.517  0.2336 -0.4898  0.5901
  802MOL0     C 5777   8.297   6.351  11.472  0.2612  0.1460 -0.0283
  802MOL0     C 5778   8.171   6.387  11.518 -0.1231  0.8911 -0.2483
  802MOL0     O 5779   7.842   6.481  11.281 -0.8388  0.3073 -0.5737
  802MOL0     C 5780   7.578   6.456  11.362 -0.3570  0.3457  0.5814
  802MOL0     C 5781   7.452   6.483  11.407 -0.2836 -0.1566  0.5505
  802MOL0     N 5782   7.083   6.257  11.322 -0.0896 -0.4168 -0.1769
  802MOL0     N 5783   7.160   6.166  11.279  0.3018  0.1315 -0.1109
  802MOL0     C 5784   8.282   5.873  11.022 -0.3487 -0.1755 -0.1197
  802MOL0     C 5785   8.390   5.904  10.934  0.4443  0.4159  0.1232
  802MOL0     C 5786   8.772   6.012  10.725  0.0922 -0.0649  0.0518
  802MOL0     C 5787   8.795   6.018  10.585 -0.2407  0.6941  0.1221
  802MOL0     C 5788   8.923   6.052  10.533  0.6736  0.1891  0.2989
  802MOL0     C 5789   9.024   6.096  10.620 -0.3050  0.8365  0.2106
  802MOL0     O 5790   9.149   6.131  10.576  0.2105 -0.1005  0.6127
  802MOL0     C 5791   9.175   6.138  10.431  0.0266 -0.6731  0.0908
  802MOL0     C 5792   9.315   6.190  10.404 -0.2709 -0.3660  1.1395
  802MOL0     C 5793   9.429   6.093  10.431 -0.5472 -0.2992 -0.8966
  802MOL0     C 5794   9.487   6.104  10.573  0.5637 -0.3300 -1.2644
  802MOL0     C 5795   9.538   5.976  10.623  0.0584 -0.5267 -0.3294
  802MOL0     C 5796   9.569   5.867  10.650  0.5592  0.5989  0.7934
  802MOL0     C 5797   8.999   6.107  10.756 -0.3299  0.8360 -1.0088
  802MOL0     C 5798   8.879   6.069  10.813  0.2099  1.3347 -0.3050
  802MOL0     H 5799   8.635   5.763  11.117  1.1319 -0.4562 -4.4558
  802MOL0     H 5800   8.434   5.702  11.253 -0.7459  1.3998  0.9538
  802MOL0     H 5801   8.026   5.820  11.192  2.6571 -0.6073 -2.2920
  802MOL0     H 5802   8.136   5.950  11.242 -0.9665  0.2806  1.0911
  802MOL0     H 5803   8.153   5.851  11.475 -0.8557  1.2608  2.0900
  802MOL0     H 5804   8.011   5.746  11.434  1.1863 -0.1710 -2.8881
  802MOL0     H 5805   8.017   6.055  11.417 -3.2280  1.8331 -0.3136
  802MOL0     H 5806   7.961   5.955  11.555  2.0651  1.9869  0.4669
  802MOL0     H 5807   7.847   5.963  11.266  1.1154 -0.2604  0.2956
  802MOL0     H 5808   7.802   5.845  11.393  1.3714 -0.1564  1.2316
  802MOL0     H 5809   7.760   6.146  11.407 -0.0122  0.2658  0.3127
  802MOL0     H 5810   7.708   6.030  11.533  0.0121  1.5498  0.4709
  802MOL0     H 5811   7.577   5.907  11.357 -2.4972  0.8479 -1.2017
  802MOL0     H 5812   7.615   6.028  11.247 -0.0111 -1.1262 -1.2464
  802MOL0     H 5813   7.473   6.074  11.514  2.1428  1.4219 -0.3308
  802MOL0     H 5814   7.484   6.197  11.383 -1.3842  0.1499  0.5997
  802MOL0     H 5815   7.314   5.939  11.401  1.9540  0.1816  1.7202
  802MOL0     H 5816   7.345   6.025  11.250 -1.5176 -4.0003  0.0103
  802MOL0     H 5817   7.205   6.130  11.602  0.6757 -3.9446 -0.8713
  802MOL0     H 5818   6.936   6.222  11.609 -0.7829 -1.1787 -0.4897
  802MOL0     H 5819   6.925   6.374  11.509  0.4263  0.5548  1.2488
  802MOL0     H 5820   7.161   6.337  11.709 -0.6211  0.4727  0.6792
  802MOL0     H 5821   6.998   6.386  11.753  0.0246  3.9167  0.0902
  802MOL0     H 5822   6.985   6.571  11.591  1.5127  2.0435 -1.6683
  802MOL0     H 5823   7.106   6.599  11.711  1.8967 -0.2655 -0.7082
  802MOL0     H 5824   7.220   6.651  11.509  2.1809 -1.5158  0.0963
  802MOL0     H 5825   7.186   6.486  11.443  0.2660 -4.3461  1.2392
  802MOL0     H 5826   7.507   6.493  11.731 -0.2475 -0.5288 -0.5538
  802MOL0     H 5827   7.757   6.451  11.651  2.1834 -0.4165 -1.3823
  802MOL0     H 5828   7.993   6.265  11.254  1.3014 -0.3141 -1.6659
  802MOL0     H 5829   8.202   6.202  11.181 -0.2502 -0.2521  0.8975
  802MOL0     H 5830   8.409   6.198  11.112 -4.2965 -0.9185  2.2302
  802MOL0     H 5831   8.443   6.060  11.213 -2.2077  0.7959  3.6728
  802MOL0     H 5832   8.643   6.284  11.143  0.7101  0.4767 -1.6657
  802MOL0     H 5833   8.652   6.143  11.057  0.4679  0.2428  0.2535
  802MOL0     H 5834   8.681   6.029  11.296  1.4021  0.6220  0.9237
  802MOL0     H 5835   8.716   6.187  11.356  2.8140  0.2799 -0.6637
  802MOL0     H 5836   8.876   6.003  11.168  1.4213  2.5024 -4.9526
  802MOL0     H 5837   8.902   6.168  11.155  0.3425 -0.5677 -1.2827
  802MOL0     H 5838   8.953   6.196  11.406  1.8227  1.4905 -0.8379
  802MOL0     H 5839   9.060   6.121  11.299 -0.6105  0.0895 -3.6004
  802MOL0     H 5840   8.960   5.883  11.364  3.4474  0.0624 -0.1571
  802MOL0     H 5841   8.874   5.970  11.496  1.4090 -1.0825  2.5138
  802MOL0     H 5842   9.069   5.998  11.615  3.7636  1.7827 -1.1851
  802MOL0     H 5843   9.092   5.840  11.539 -0.9400  0.0725 -0.5006
  802MOL0     H 5844   9.214   6.093  11.433 -1.8799  0.1129  2.8959
  802MOL0     H 5845   9.209   5.956  11.337  0.6654  1.5330 -0.3948
  802MOL0     H 5846   8.375   6.378  11.544  1.3943  0.2490 -1.2479
  802MOL0     H 5847   8.154   6.422  11.619 -0.8695 -1.7645  0.6224
  802MOL0     H 5848   7.598   6.466  11.256  0.9480  0.1451  0.7922
  802MOL0     H 5849   7.372   6.507  11.338  0.5034 -1.1707 -0.7534
  802MOL0     H 5850   8.180   5.896  10.995 -0.9142 -1.7003  0.5957
  802MOL0     H 5851   8.363   5.950  10.839  2.6754 -1.5885 -1.5841
  802MOL0     H 5852   8.727   6.006  10.501  0.6026 -2.5119 -0.2207
  802MOL0     H 5853   8.938   6.049  10.426  1.8979  0.8460  0.4209
  802MOL0     H 5854   9.108   6.201  10.372 -1.2991 -0.9248  1.2713
  802MOL0     H 5855   9.154   6.037  10.394 -0.4538 -0.2003 -0.9737
  802MOL0     H 5856   9.323   6.218  10.299 -1.5578  0.1739  1.1688
  802MOL0     H 5857   9.334   6.288  10.449 -2.4977 -0.8911  3.4027
  802MOL0     H 5858   9.507   6.100  10.354  0.3504 -1.8342 -0.1635
  802MOL0     H 5859   9.398   5.988  10.429  1.1290 -0.8876  1.1938
  802MOL0     H 5860   9.557   6.189  10.569  0.0144  0.1369 -1.0956
  802MOL0     H 5861   9.410   6.118  10.649  1.6248 -0.1185 -0.2016
  802MOL0     H 5862   9.588   5.763  10.668 -1.4522  0.2207  0.9617
  802MOL0     H 5863   9.074   6.154  10.820 -1.7226  3.5950 -1.2377
  802MOL0     H 5864   8.866   6.061  10.920 -0.9819  0.2820 -0.4954
  803MOL0     O 5865   5.621  10.703   4.152  0.5571  0.6376 -0.5163
  803MOL0     C 5866   5.738  10.663   4.148 -0.0508  0.0567 -0.7705
  803MOL0     O 5867   5.807  10.654   4.036  0.3588  0.5733  0.6028
  803MOL0     C 5868   5.785  10.734   3.928 -0.4495  1.4229 -0.5850
  803MOL0     C 5869   5.836  10.673   3.811 -0.1278  1.3007  0.4712
  803MOL0     C 5870   5.831  10.735   3.689 -0.5328 -0.2230  0.0847
  803MOL0     C 5871   5.766  10.860   3.681  0.1466 -0.9411  0.2141
  803MOL0     O 5872   5.740  10.926   3.559  0.2646  0.1829 -0.5861
  803MOL0     C 5873   5.636  11.024   3.549  0.0061  0.0211 -0.1783
  803MOL0     C 5874   5.704  11.163   3.537  0.6946  0.2218 -0.2538
  803MOL0     C 5875   5.596  11.276   3.525 -0.3896 -0.1021 -0.8064
  803MOL0     C 5876   5.679  11.409   3.534 -0.9948 -0.6529  0.0378
  803MOL0     C 5877   5.587  11.527   3.558 -1.1740  0.4311 -0.5382
  803MOL0     C 5878   5.659  11.651   3.589  0.2353 -0.5919  0.0819
  803MOL0     C 5879   5.569  11.769   3.617  0.2758 -0.1763  0.4799
  803MOL0     C 5880   5.634  11.863   3.720 -0.5227 -0.7875  1.4833
  803MOL0     N 5881   5.776  11.896   3.699 -0.2020 -0.9989  0.5229
  803MOL0     C 5882   5.825  11.974   3.600 -0.4939 -0.5770  0.1705
  803MOL0     C 5883   5.949  12.002   3.625  0.6509 -0.3980  0.4814
  803MOL0     C 5884   6.029  12.111   3.577 -0.6074  0.2093  0.1886
  803MOL0     C 5885   6.084  12.098   3.439  0.1969  0.0099  0.3776
  803MOL0     C 5886   6.075  12.223   3.352 -0.5879  0.0160  0.8730
  803MOL0     C 5887   5.939  12.252   3.288 -0.3186  1.1594 -0.4138
  803MOL0     O 5888   5.843  12.281   3.392  0.1907  0.3603  0.0132
  803MOL0     C 5889   5.707  12.275   3.354 -0.2465  0.8323  1.3008
  803MOL0     C 5890   5.621  12.286   3.456 -0.9854  0.8426 -1.0919
  803MOL0     C 5891   5.494  12.300   3.423  0.7959  0.0131 -0.0969
  803MOL0     C 5892   5.446  12.291   3.289  0.0283  0.2072 -0.2893
  803MOL0     C 5893   5.296  12.306   3.253 -0.7942  0.6331 -0.5711
  803MOL0     O 5894   5.258  12.268   3.129 -0.9355  0.4874 -1.1840
  803MOL0     C 5895   5.123  12.270   3.098  1.3246 -0.5521  0.8748
  803MOL0     C 5896   5.087  12.269   2.958 -0.1777  0.3615 -0.0758
  803MOL0     C 5897   4.958  12.249   2.909 -0.5531 -0.1099 -0.3743
  803MOL0     C 5898   4.850  12.234   3.007 -0.5725 -0.2860 -0.2027
  803MOL0     O 5899   4.717  12.231   2.967 -0.4924  0.5083 -0.0707
  803MOL0     C 5900   4.666  12.102   2.960 -0.0383 -0.6461  0.4477
  803MOL0     C 5901   4.631  12.033   3.091  1.2782 -0.2088  0.4825
  803MOL0     C 5902   4.501  11.947   3.084 -1.3888  0.5564 -0.0782
  803MOL0     C 5903   4.498  11.838   2.972 -1.4629 -0.2590 -0.4767
  803MOL0     C 5904   4.380  11.741   2.966  0.3075 -0.0956  1.0679
  803MOL0     C 5905   4.349  11.688   3.105  0.0967 -1.2552 -0.3364
  803MOL0     C 5906   4.264  11.560   3.097  0.9475  0.0917 -0.5606
  803MOL0     C 5907   4.279  11.477   3.223  0.4904 -0.4882  0.3209
  803MOL0    Cl 5908   4.173  11.340   3.231  0.3915 -0.7339  0.0889
  803MOL0     C 5909   4.886  12.226   3.144 -0.3873  0.0993 -0.4235
  803MOL0     C 5910   5.017  12.252   3.185  0.6571 -0.3748 -0.2813
  803MOL0     O 5911   5.221  12.363   3.335 -0.1112  0.3196 -0.2707
  803MOL0     C 5912   5.533  12.265   3.188 -0.0512  0.0142 -0.7990
  803MOL0     C 5913   5.662  12.265   3.216 -1.0579  0.2082 -0.1724
  803MOL0     N 5914   5.984  11.922   3.729 -0.4819 -0.9480 -0.4933
  803MOL0     N 5915   5.886  11.859   3.779 -0.1663 -0.7294  0.5575
  803MOL0     C 5916   5.728  10.925   3.801  0.5694  0.5405 -0.3987
  803MOL0     C 5917   5.741  10.861   3.921  0.1556 -0.1050 -1.5894
  803MOL0     C 5918   5.801  10.594   4.268  0.1994 -0.4567 -0.1304
  803MOL0     C 5919   5.943  10.582   4.288 -0.5711  0.6950 -0.0103
  803MOL0     C 5920   5.993  10.519   4.400 -0.9203  0.2856 -0.5460
  803MOL0     C 5921   5.903  10.454   4.486 -0.6676 -0.4358 -0.8829
  803MOL0     O 5922   5.967  10.366   4.584 -0.7266  0.3899  1.0351
  803MOL0     C 5923   5.925  10.230   4.592 -0.0081 -0.9166 -0.0272
  803MOL0     C 5924   6.008  10.151   4.690 -0.7420 -0.5203 -0.0621
  803MOL0     C 5925   6.114  10.060   4.626  0.3256  0.1374  0.3501
  803MOL0     C 5926   6.207  10.142   4.536  0.5115  0.4466  0.1143
  803MOL0     C 5927   6.293  10.039   4.470  0.2434  0.1778 -0.0040
  803MOL0     C 5928   6.366   9.952   4.437  0.0556  0.6323  0.1073
  803MOL0     C 5929   5.770  10.470   4.480  0.4251  0.5963  0.3260
  803MOL0     C 5930   5.716  10.544   4.370 -0.1581  0.6464 -0.1307
  803MOL0     H 5931   5.881  10.574   3.821  2.1311  2.3709  1.5857
  803MOL0     H 5932   5.864  10.696   3.593  0.1545  0.8128 -0.1166
  803MOL0     H 5933   5.571  11.020   3.636 -0.3989 -0.5506 -0.5002
  803MOL0     H 5934   5.582  11.006   3.455 -1.6198 -3.1130  1.2050
  803MOL0     H 5935   5.755  11.160   3.441  0.8397 -3.1557 -0.1967
  803MOL0     H 5936   5.773  11.179   3.620 -0.7725  0.0762  1.0343
  803MOL0     H 5937   5.517  11.269   3.602  0.4766  5.4721  1.0474
  803MOL0     H 5938   5.537  11.276   3.433 -0.4177  1.6388 -0.8172
  803MOL0     H 5939   5.741  11.405   3.624  0.6441 -0.1695 -1.0214
  803MOL0     H 5940   5.751  11.429   3.455  0.3975  3.2738  1.9885
  803MOL0     H 5941   5.531  11.501   3.648 -1.3114 -1.2375 -1.0651
  803MOL0     H 5942   5.521  11.546   3.472 -1.1405  0.9074 -0.4637
  803MOL0     H 5943   5.728  11.691   3.514  0.0646  2.0819  1.2295
  803MOL0     H 5944   5.728  11.633   3.671  2.3851  2.7755 -0.7571
  803MOL0     H 5945   5.541  11.828   3.529  0.6467  0.8431  1.0322
  803MOL0     H 5946   5.478  11.730   3.664 -0.4464 -1.1656 -1.5971
  803MOL0     H 5947   5.636  11.800   3.809 -0.3330  0.2178  2.2138
  803MOL0     H 5948   5.573  11.948   3.752  0.4134  1.0961 -1.2998
  803MOL0     H 5949   5.762  12.019   3.523 -0.3666  3.9132  2.3342
  803MOL0     H 5950   6.103  12.127   3.656 -0.7093  0.5801  0.2109
  803MOL0     H 5951   5.969  12.202   3.580  0.3466  0.8487  2.4001
  803MOL0     H 5952   6.036  12.021   3.378 -3.3100  1.2351  1.3840
  803MOL0     H 5953   6.191  12.076   3.444  0.2520  0.4456  1.1322
  803MOL0     H 5954   6.124  12.304   3.406  3.8471 -1.9519  0.2637
  803MOL0     H 5955   6.140  12.197   3.267  1.7984  1.6997  2.0623
  803MOL0     H 5956   5.905  12.164   3.234  3.9130 -2.4060  2.0007
  803MOL0     H 5957   5.946  12.335   3.218  0.1988  2.2610  0.8976
  803MOL0     H 5958   5.661  12.298   3.556  2.5765 -0.6833 -2.1674
  803MOL0     H 5959   5.416  12.307   3.498 -0.7693 -0.9600 -1.5836
  803MOL0     H 5960   5.161  12.278   2.879 -1.2392 -1.9961 -1.4315
  803MOL0     H 5961   4.942  12.254   2.802  1.4545 -1.2175 -0.7776
  803MOL0     H 5962   4.740  12.037   2.912  1.5895  0.9567  0.6791
  803MOL0     H 5963   4.574  12.113   2.902  0.1232 -2.6854 -0.2871
  803MOL0     H 5964   4.607  12.105   3.170 -0.2336 -1.0130  0.7887
  803MOL0     H 5965   4.715  11.969   3.120 -0.1169 -1.6849  1.4125
  803MOL0     H 5966   4.414  12.011   3.066 -1.2555 -0.0431 -3.4278
  803MOL0     H 5967   4.502  11.915   3.189  4.8700  2.8003  0.9679
  803MOL0     H 5968   4.518  11.874   2.871  2.1752 -1.3376 -0.2626
  803MOL0     H 5969   4.589  11.780   2.989 -0.5812  0.7175 -1.6435
  803MOL0     H 5970   4.401  11.660   2.897  3.7568  2.6807 -1.4802
  803MOL0     H 5971   4.295  11.795   2.923  2.3616  1.3648 -1.4306
  803MOL0     H 5972   4.301  11.771   3.158  1.5965 -1.5187  1.5446
  803MOL0     H 5973   4.442  11.655   3.151 -0.4765 -0.2477  1.6777
  803MOL0     H 5974   4.158  11.589   3.096 -0.1976 -3.5557 -3.1079
  803MOL0     H 5975   4.297  11.503   3.010  3.9710  1.5542 -0.5133
  803MOL0     H 5976   4.261  11.532   3.316  1.8307 -2.8444  2.0990
  803MOL0     H 5977   4.378  11.431   3.216  0.5482 -0.3176  0.0251
  803MOL0     H 5978   4.807  12.204   3.215  0.6523 -0.6880  0.5188
  803MOL0     H 5979   5.030  12.229   3.291 -0.8949 -0.6710 -0.1353
  803MOL0     H 5980   5.499  12.274   3.085 -1.1432  0.2457 -0.4348
  803MOL0     H 5981   5.733  12.262   3.135 -0.8282 -2.5153  0.0650
  803MOL0     H 5982   5.699  11.029   3.810  2.7779  1.0055  4.3848
  803MOL0     H 5983   5.723  10.926   4.007 -0.7600 -0.8831 -1.1640
  803MOL0     H 5984   6.010  10.611   4.207  0.3497 -2.0754 -0.3282
  803MOL0     H 5985   6.096  10.492   4.421 -1.7831 -1.9836  1.2615
  803MOL0     H 5986   5.924  10.171   4.500 -3.6583 -3.2547  1.2821
  803MOL0     H 5987   5.826  10.235   4.638  0.1058 -1.3867  0.2705
  803MOL0     H 5988   6.067  10.222   4.749 -0.0406  2.5966 -4.1226
  803MOL0     H 5989   5.944  10.085   4.750  1.5263  0.0562  3.2535
  803MOL0     H 5990   6.076   9.977   4.565 -0.1035  0.6459 -0.0816
  803MOL0     H 5991   6.186  10.026   4.700  0.2769 -0.0713  0.3021
  803MOL0     H 5992   6.144  10.190   4.461  1.9047  2.5196  0.1762
  803MOL0     H 5993   6.260  10.218   4.595 -1.4473  0.4210  2.0649
  803MOL0     H 5994   6.432   9.871   4.412 -0.4195  0.3405 -0.2172
  803MOL0     H 5995   5.705  10.417   4.549  1.5142 -1.6088 -0.2678
  803MOL0     H 5996   5.608  10.551   4.378 -0.0608  0.8102  1.3430
  804MOL0     O 5997   4.302   6.102   1.043  0.1434  0.0876  0.5842
  804MOL0     C 5998   4.331   6.106   1.158  0.1184 -0.0329 -0.8661
  804MOL0     O 5999   4.446   6.076   1.215 -0.9698  0.1464  0.5711
  804MOL0     C 6000   4.566   6.056   1.143  0.4630 -0.1560  0.1319
  804MOL0     C 6001   4.682   6.033   1.216  0.0169  0.9801 -0.7578
  804MOL0     C 6002   4.808   6.010   1.160 -0.4548  0.2732  0.0175
  804MOL0     C 6003   4.823   6.001   1.018  0.8654 -0.0915 -0.0029
  804MOL0     O 6004   4.939   5.962   0.964  0.1925  0.1972 -0.3517
  804MOL0     C 6005   4.991   5.828   1.002 -0.2791  0.5349 -0.3070
  804MOL0     C 6006   5.129   5.815   0.936 -0.4265 -0.0103 -0.2796
  804MOL0     C 6007   5.188   5.676   0.941 -0.2793  0.6063 -0.2613
  804MOL0     C 6008   5.333   5.690   0.905 -0.1717 -0.9623 -0.2706
  804MOL0     C 6009   5.398   5.549   0.902 -0.4736  0.0303 -0.0405
  804MOL0     C 6010   5.542   5.555   0.864 -0.6359  0.7275  0.0770
  804MOL0     C 6011   5.571   5.610   0.723  0.1974 -0.0386 -0.1542
  804MOL0     C 6012   5.680   5.528   0.651  0.1883 -0.1052  0.0432
  804MOL0     N 6013   5.796   5.541   0.735 -0.7560  0.5153  1.0373
  804MOL0     C 6014   5.883   5.442   0.765 -1.1285 -1.1768  0.9939
  804MOL0     C 6015   5.970   5.493   0.850  0.7289  0.4615  0.1922
  804MOL0     C 6016   6.076   5.399   0.899 -0.3356  0.6270  0.5211
  804MOL0     C 6017   6.143   5.437   1.035  0.1905 -0.3118 -0.6319
  804MOL0     C 6018   6.207   5.314   1.108  0.3532  0.5059 -0.0353
  804MOL0     C 6019   6.124   5.264   1.227 -0.7454 -0.2295 -0.9202
  804MOL0     O 6020   6.005   5.196   1.189  0.2462  0.0209 -0.8742
  804MOL0     C 6021   6.034   5.066   1.145 -0.2350 -0.0759 -0.0275
  804MOL0     C 6022   6.164   5.001   1.135  0.9609 -0.3794 -0.2890
  804MOL0     C 6023   6.173   4.877   1.076  0.3399  0.9922  1.0605
  804MOL0     C 6024   6.058   4.810   1.026  0.4238  0.1476 -0.5672
  804MOL0     C 6025   6.074   4.680   0.966  0.8929  0.1262  0.4106
  804MOL0     O 6026   5.960   4.622   0.920 -0.6878 -0.1810 -0.2325
  804MOL0     C 6027   5.974   4.480   0.905 -0.2159 -0.3624  0.1051
  804MOL0     C 6028   6.038   4.395   0.997  0.1862  0.7567 -0.3442
  804MOL0     C 6029   6.029   4.255   0.972 -0.2504 -0.5011 -0.1852
  804MOL0     C 6030   5.964   4.201   0.857  0.1908 -0.2868  0.0618
  804MOL0     O 6031   5.954   4.067   0.856  0.4635 -0.2941  0.3791
  804MOL0     C 6032   5.846   4.008   0.778 -0.4909 -0.9084  0.2402
  804MOL0     C 6033   5.850   3.860   0.797 -0.7709  0.0430 -0.6498
  804MOL0     C 6034   5.769   3.813   0.926 -0.3084 -1.0442  0.4258
  804MOL0     C 6035   5.788   3.664   0.956  0.0289  0.4512  0.1736
  804MOL0     C 6036   5.671   3.623   1.049 -1.1243 -0.1984  0.0309
  804MOL0     C 6037   5.677   3.470   1.087  0.6603 -1.7006 -0.5433
  804MOL0     C 6038   5.565   3.428   1.182 -0.5293 -0.2962  0.0029
  804MOL0     C 6039   5.564   3.278   1.218  0.9757 -0.3137 -0.5645
  804MOL0    Cl 6040   5.428   3.248   1.327  1.0856  0.3201 -0.5343
  804MOL0     C 6041   5.902   4.296   0.771  0.0274 -0.5650 -0.5522
  804MOL0     C 6042   5.915   4.432   0.786 -0.0814  0.0797  0.0581
  804MOL0     O 6043   6.184   4.624   0.978 -0.3570 -0.0103 -0.2784
  804MOL0     C 6044   5.938   4.874   1.029  0.0982  0.0072  0.0102
  804MOL0     C 6045   5.921   4.996   1.095  0.7156 -0.7062  0.1722
  804MOL0     N 6046   5.949   5.626   0.859  0.3270  0.3506  1.1039
  804MOL0     N 6047   5.843   5.662   0.785 -0.0942 -1.3978 -0.4170
  804MOL0     C 6048   4.709   6.029   0.944 -0.7415  0.4255  1.0419
  804MOL0     C 6049   4.584   6.059   1.002  0.5590  0.2029 -0.0361
  804MOL0     C 6050   4.223   6.156   1.254 -0.1810  0.3652  0.5663
  804MOL0     C 6051   4.091   6.105   1.254 -0.2272 -0.2464 -0.1408
  804MOL0     C 6052   3.998   6.172   1.335 -0.3679 -0.1049 -0.3646
  804MOL0     C 6053   4.029   6.279   1.408  0.1423  0.0861 -0.6981
  804MOL0     O 6054   3.929   6.340   1.495 -0.2183  0.3630  0.0872
  804MOL0     C 6055   3.936   6.476   1.528  0.7857 -0.1274 -0.2482
  804MOL0     C 6056   3.873   6.558   1.414 -0.3301 -0.6604  0.2561
  804MOL0     C 6057   3.965   6.677   1.376  0.1026 -0.6787  0.2226
  804MOL0     C 6058   3.995   6.763   1.509  0.2858 -0.1636 -0.1498
  804MOL0     C 6059   3.867   6.797   1.573  0.5099  0.3080 -0.2231
  804MOL0     C 6060   3.767   6.820   1.633  0.2396  0.3173 -0.8220
  804MOL0     C 6061   4.167   6.322   1.418  0.1556 -1.1749  0.4562
  804MOL0     C 6062   4.262   6.263   1.331 -1.0389  0.4732  0.7358
  804MOL0     H 6063   4.679   6.019   1.323 -0.2453 -1.7695 -1.0371
  804MOL0     H 6064   4.899   5.991   1.216  0.2129 -4.4477 -2.1459
  804MOL0     H 6065   4.920   5.757   0.958  2.7526 -0.9198 -3.2510
  804MOL0     H 6066   4.994   5.806   1.109 -2.5190 -0.2375 -0.3407
  804MOL0     H 6067   5.194   5.898   0.964  0.1065 -0.4410 -0.2363
  804MOL0     H 6068   5.113   5.825   0.829 -0.6943 -1.0416 -0.3501
  804MOL0     H 6069   5.132   5.610   0.874  0.6313 -0.8468  0.3660
  804MOL0     H 6070   5.162   5.617   1.030 -0.9272 -1.3339 -1.6640
  804MOL0     H 6071   5.326   5.726   0.802 -2.1388  0.4483  0.3001
  804MOL0     H 6072   5.388   5.752   0.977 -2.7596 -0.4157  1.3899
  804MOL0     H 6073   5.352   5.493   0.821 -0.1953  2.6699 -2.1825
  804MOL0     H 6074   5.377   5.490   0.991 -1.0561 -1.9556 -1.4344
  804MOL0     H 6075   5.569   5.449   0.862 -0.9738  0.6461 -1.3800
  804MOL0     H 6076   5.619   5.607   0.923 -1.0851  0.3069  1.0576
  804MOL0     H 6077   5.480   5.609   0.662 -0.8145 -0.2119  1.3115
  804MOL0     H 6078   5.606   5.714   0.727 -0.0118 -0.0103  1.6593
  804MOL0     H 6079   5.694   5.566   0.549 -2.5059  1.0770  0.0190
  804MOL0     H 6080   5.638   5.427   0.657 -1.6657  0.6986  2.3250
  804MOL0     H 6081   5.888   5.336   0.746  2.9802 -1.0981  0.8838
  804MOL0     H 6082   6.159   5.403   0.828  0.4882 -0.1483  1.4154
  804MOL0     H 6083   6.032   5.300   0.906 -2.4026  1.1149 -3.0933
  804MOL0     H 6084   6.070   5.485   1.101  1.4517  2.1184 -0.8833
  804MOL0     H 6085   6.211   5.520   1.013  0.3110 -0.6439 -1.5730
  804MOL0     H 6086   6.225   5.238   1.031  0.7848  3.2773 -2.9000
  804MOL0     H 6087   6.303   5.342   1.151  1.0046 -3.1457  1.2557
  804MOL0     H 6088   6.106   5.362   1.272  1.1492  0.3757 -1.3966
  804MOL0     H 6089   6.183   5.211   1.302 -3.0738  1.4376  2.3589
  804MOL0     H 6090   6.255   5.039   1.182  0.5334 -0.1666  0.3877
  804MOL0     H 6091   6.271   4.831   1.078 -0.5903 -1.1409  0.5974
  804MOL0     H 6092   6.075   4.432   1.092 -0.5238 -3.3494  1.7596
  804MOL0     H 6093   6.070   4.189   1.048 -2.7287 -5.6089 -2.7881
  804MOL0     H 6094   5.860   4.047   0.677 -3.8533  1.3500  0.5239
  804MOL0     H 6095   5.754   4.051   0.819 -0.5172 -1.0374  0.3190
  804MOL0     H 6096   5.957   3.840   0.811 -0.9535 -1.7864 -1.6015
  804MOL0     H 6097   5.813   3.809   0.708 -0.3196 -0.5717 -0.4928
  804MOL0     H 6098   5.665   3.822   0.893 -0.9581  0.8301  2.7287
  804MOL0     H 6099   5.789   3.880   1.009  0.3229 -3.3502  2.2436
  804MOL0     H 6100   5.782   3.616   0.858 -0.2957  2.2507 -0.7270
  804MOL0     H 6101   5.886   3.646   1.000 -0.0707 -1.0664 -0.1695
  804MOL0     H 6102   5.577   3.663   1.008 -1.1862 -0.2248  0.1460
  804MOL0     H 6103   5.683   3.660   1.151 -1.9274 -4.4091  1.8902
  804MOL0     H 6104   5.769   3.455   1.144  0.1342  1.5140  1.4467
  804MOL0     H 6105   5.677   3.418   0.991 -1.4534 -0.8071 -1.0982
  804MOL0     H 6106   5.568   3.481   1.278 -0.6172  0.8374 -0.6058
  804MOL0     H 6107   5.475   3.470   1.135 -0.9180  1.4060  2.1101
  804MOL0     H 6108   5.658   3.250   1.267  0.1952 -2.4876 -0.1601
  804MOL0     H 6109   5.552   3.218   1.127 -3.3354  1.1709 -1.2148
  804MOL0     H 6110   5.827   4.259   0.701 -0.0310 -0.9828 -0.2697
  804MOL0     H 6111   5.856   4.498   0.722 -2.7777  0.5379  2.7515
  804MOL0     H 6112   5.846   4.840   0.982  0.3532  0.2958 -0.7164
  804MOL0     H 6113   5.823   5.042   1.109  2.0665  2.7591 -0.7240
  804MOL0     H 6114   4.709   6.021   0.836  0.4852 -3.1455  1.1692
  804MOL0     H 6115   4.507   6.065   0.925 -1.3339  1.5331  1.8424
  804MOL0     H 6116   4.058   6.024   1.190 -1.2030 -0.0120  0.0426
  804MOL0     H 6117   3.896   6.140   1.352 -0.2636 -0.2627 -0.0127
  804MOL0     H 6118   4.041   6.505   1.536  0.4194  0.8276  1.4912
  804MOL0     H 6119   3.888   6.505   1.622  3.1266  0.5752  0.7868
  804MOL0     H 6120   3.871   6.487   1.330 -1.6394  1.1496 -1.3330
  804MOL0     H 6121   3.769   6.584   1.434 -0.7495 -3.0577  1.6029
  804MOL0     H 6122   3.923   6.735   1.293  0.9353 -0.7017 -0.2267
  804MOL0     H 6123   4.064   6.642   1.343  0.2520 -1.1286  1.1238
  804MOL0     H 6124   4.071   6.719   1.574  1.7584 -0.3284 -1.8781
  804MOL0     H 6125   4.049   6.857   1.492 -0.6063  0.1444 -1.4599
  804MOL0     H 6126   3.684   6.835   1.699  1.4064  3.5407  0.1117
  804MOL0     H 6127   4.199   6.403   1.483 -1.4654  1.7214 -2.0603
  804MOL0     H 6128   4.365   6.296   1.339 -0.4384 -1.0866 -0.1473
  805MOL0     O 6129   9.711   3.598   7.787 -0.1760 -0.0858 -0.9101
  805MOL0     C 6130   9.673   3.487   7.788 -0.0312 -0.2350  0.3165
  805MOL0     O 6131   9.590   3.435   7.693 -0.2136 -0.6129 -0.0994
  805MOL0     C 6132   9.543   3.510   7.591  0.0895 -0.9449  0.4552
  805MOL0     C 6133   9.605   3.500   7.467  0.9046 -0.3268  0.5163
  805MOL0     C 6134   9.557   3.575   7.362 -0.6811 -0.5825  0.5805
  805MOL0     C 6135   9.448   3.665   7.376  0.8787  0.2319 -0.9405
  805MOL0     O 6136   9.389   3.747   7.276 -0.6411 -0.4163  0.4282
  805MOL0     C 6137   9.424   3.727   7.137  0.0821  0.3591 -0.0972
  805MOL0     C 6138   9.382   3.851   7.062  0.3621  0.0434  0.8198
  805MOL0     C 6139   9.375   3.822   6.910  0.0916 -0.1281  0.2851
  805MOL0     C 6140   9.264   3.896   6.834  0.8704  1.1574 -0.5307
  805MOL0     C 6141   9.274   3.852   6.690  0.1331 -0.1145 -0.8630
  805MOL0     C 6142   9.167   3.904   6.605  0.8277  0.3844 -0.2155
  805MOL0     C 6143   9.134   4.051   6.620 -0.0863 -0.7235  0.0267
  805MOL0     C 6144   9.233   4.145   6.552 -0.4569  0.1832 -0.6643
  805MOL0     N 6145   9.170   4.281   6.558 -0.5050  0.2807 -0.3218
  805MOL0     C 6146   9.206   4.387   6.649  0.3631 -0.4725 -0.2927
  805MOL0     C 6147   9.123   4.485   6.627 -0.2275  0.5580  0.0201
  805MOL0     C 6148   9.136   4.626   6.693  0.2874 -0.2688 -0.1138
  805MOL0     C 6149   9.192   4.726   6.598 -0.1090  0.4255  0.1669
  805MOL0     C 6150   9.215   4.862   6.653  0.1033 -0.7646  0.0209
  805MOL0     C 6151   9.335   4.942   6.593 -0.9089 -0.1538 -0.0180
  805MOL0     O 6152   9.360   5.051   6.684  0.0298 -0.4973  0.2912
  805MOL0     C 6153   9.474   5.133   6.669  0.5584  0.6899 -0.3258
  805MOL0     C 6154   9.583   5.108   6.580  0.7130 -0.7988  0.0765
  805MOL0     C 6155   9.687   5.196   6.570  0.1070 -0.3321 -0.1018
  805MOL0     C 6156   9.695   5.310   6.662 -0.2246  0.4120 -0.0096
  805MOL0     C 6157   9.817   5.392   6.655  0.1244  0.0624 -1.2073
  805MOL0     O 6158   9.822   5.503   6.733 -0.5933 -0.2813  0.4030
  805MOL0     C 6159   9.926   5.593   6.713 -1.1614  0.2408  0.3127
  805MOL0     C 6160  10.010   5.627   6.824 -0.1948 -0.0779  0.2945
  805MOL0     C 6161  10.125   5.704   6.798  0.1573 -0.0537 -0.0628
  805MOL0     C 6162  10.146   5.742   6.668 -1.0868 -0.3490  0.8285
  805MOL0     O 6163  10.266   5.797   6.638  0.5973  0.2456 -0.3136
  805MOL0     C 6164  10.365   5.826   6.739  0.5092 -0.5078  0.2708
  805MOL0     C 6165  10.486   5.890   6.659 -0.5200  0.1008  0.4759
  805MOL0     C 6166  10.448   6.026   6.606 -0.9092  0.0622  0.1714
  805MOL0     C 6167  10.572   6.120   6.606  0.0000  1.0428 -0.7081
  805MOL0     C 6168  10.540   6.262   6.571 -0.2053  0.5454  0.3198
  805MOL0     C 6169  10.506   6.274   6.423  0.6784 -0.0840  0.1430
  805MOL0     C 6170  10.497   6.415   6.376 -0.0593 -0.5387  0.1648
  805MOL0     C 6171  10.382   6.417   6.293  0.5020 -0.1557 -0.8117
  805MOL0    Cl 6172  10.352   6.582   6.228  0.1061  0.3052  0.0778
  805MOL0     C 6173  10.063   5.710   6.559 -0.1595 -0.1937 -0.0037
  805MOL0     C 6174   9.955   5.635   6.586  0.3130  0.2103  0.1836
  805MOL0     O 6175   9.904   5.351   6.584  0.1761 -0.1171 -0.4325
  805MOL0     C 6176   9.592   5.334   6.750  0.0063  0.5616 -0.5632
  805MOL0     C 6177   9.483   5.244   6.748 -0.0650  0.9139 -0.8156
  805MOL0     N 6178   9.035   4.445   6.526 -0.0958  0.3088  0.4051
  805MOL0     N 6179   9.052   4.313   6.490 -0.6643 -0.1053  0.5139
  805MOL0     C 6180   9.386   3.675   7.504 -0.1059 -0.1617 -0.8019
  805MOL0     C 6181   9.429   3.594   7.608 -0.5701 -0.8070  0.0539
  805MOL0     C 6182   9.715   3.395   7.885 -0.8901  0.5631 -0.9001
  805MOL0     C 6183   9.832   3.430   7.958  0.4088 -0.9707 -0.9138
  805MOL0     C 6184   9.877   3.358   8.069 -0.4472  0.0532  0.5688
  805MOL0     C 6185   9.801   3.243   8.112 -1.2223 -0.6607  0.5443
  805MOL0     O 6186   9.848   3.173   8.217 -0.1925  0.1370  0.0371
  805MOL0     C 6187   9.751   3.133   8.317  0.4382 -1.2725  0.2460
  805MOL0     C 6188   9.805   3.034   8.420 -0.3788  0.5346 -0.7284
  805MOL0     C 6189   9.898   2.919   8.363 -0.4207 -0.1942  0.0235
  805MOL0     C 6190   9.933   2.807   8.462 -0.4382  0.2470  0.0615
  805MOL0     C 6191  10.002   2.865   8.576 -0.0017 -0.3602  0.7732
  805MOL0     C 6192  10.059   2.913   8.672  0.6972 -0.4391  0.0789
  805MOL0     C 6193   9.683   3.207   8.044  0.6216  0.3425  0.8976
  805MOL0     C 6194   9.642   3.281   7.925 -1.4938 -1.5752  0.2592
  805MOL0     H 6195   9.690   3.434   7.453 -0.2169 -1.3479 -2.0796
  805MOL0     H 6196   9.594   3.552   7.263  1.6202 -1.9382  1.6535
  805MOL0     H 6197   9.365   3.643   7.100  3.2371 -1.4540 -1.3891
  805MOL0     H 6198   9.530   3.706   7.122 -0.3073 -0.8458 -1.2955
  805MOL0     H 6199   9.462   3.924   7.079  0.1821  0.4205  0.0703
  805MOL0     H 6200   9.286   3.886   7.101  0.8377  2.4698 -0.0391
  805MOL0     H 6201   9.374   3.714   6.894  4.6922 -0.3624  0.1801
  805MOL0     H 6202   9.469   3.851   6.861 -1.2801  0.9199 -1.8820
  805MOL0     H 6203   9.171   3.856   6.877  1.8388  0.2393  0.7616
  805MOL0     H 6204   9.260   4.005   6.846 -2.7769  0.9684  1.7582
  805MOL0     H 6205   9.285   3.743   6.685 -0.0531 -0.2015  0.4087
  805MOL0     H 6206   9.364   3.901   6.653  0.5245  0.3383  0.6406
  805MOL0     H 6207   9.072   3.860   6.638  0.7657 -1.3727 -2.4914
  805MOL0     H 6208   9.174   3.867   6.503 -2.6053  0.9867 -0.7954
  805MOL0     H 6209   9.046   4.062   6.557  0.0824 -0.9728 -0.2528
  805MOL0     H 6210   9.118   4.081   6.724 -0.1878 -1.0810  0.1136
  805MOL0     H 6211   9.257   4.126   6.447  0.8322  0.2070 -0.3995
  805MOL0     H 6212   9.328   4.148   6.608  0.3717 -1.7371 -1.8841
  805MOL0     H 6213   9.286   4.390   6.723 -0.0685  1.8647  0.1586
  805MOL0     H 6214   9.207   4.622   6.776 -0.7704  0.0819  0.8376
  805MOL0     H 6215   9.037   4.664   6.720  1.4753  2.0620  1.2941
  805MOL0     H 6216   9.128   4.746   6.511 -1.9571  0.9135  1.5584
  805MOL0     H 6217   9.283   4.682   6.556 -0.9135 -1.6667  0.4659
  805MOL0     H 6218   9.126   4.919   6.622 -0.3486 -2.1515 -1.3401
  805MOL0     H 6219   9.219   4.855   6.762 -2.3466  0.6075  0.2787
  805MOL0     H 6220   9.309   4.981   6.494  2.0502  1.3818 -0.3105
  805MOL0     H 6221   9.430   4.888   6.583 -0.1447  1.0262  0.6355
  805MOL0     H 6222   9.596   5.022   6.515 -1.1752 -0.5859 -0.6359
  805MOL0     H 6223   9.764   5.173   6.497  0.7258 -0.8018  0.6961
  805MOL0     H 6224   9.985   5.593   6.924  0.4229 -2.3804 -0.2790
  805MOL0     H 6225  10.171   5.742   6.889  0.4515 -0.8636  0.1394
  805MOL0     H 6226  10.398   5.733   6.788 -1.7760 -1.4072  0.2639
  805MOL0     H 6227  10.328   5.895   6.816 -1.1654 -2.9846  1.8504
  805MOL0     H 6228  10.499   5.829   6.569 -0.7187  4.2984 -2.6520
  805MOL0     H 6229  10.575   5.889   6.722  0.2237  2.5911 -0.4306
  805MOL0     H 6230  10.378   6.072   6.677 -1.7134  1.1820 -1.2960
  805MOL0     H 6231  10.397   6.025   6.509 -0.2376 -2.1101 -0.2061
  805MOL0     H 6232  10.609   6.121   6.709 -2.0389  1.4650  0.0694
  805MOL0     H 6233  10.647   6.078   6.539 -1.7840 -0.1063 -2.0693
  805MOL0     H 6234  10.627   6.326   6.593  2.4430 -2.9218  0.8770
  805MOL0     H 6235  10.456   6.294   6.633 -0.8003 -1.4351  0.5919
  805MOL0     H 6236  10.412   6.220   6.414  0.1452  1.1037 -2.3760
  805MOL0     H 6237  10.587   6.224   6.370  0.9954 -0.6142  1.1117
  805MOL0     H 6238  10.499   6.481   6.463  3.2400  1.1821 -1.0643
  805MOL0     H 6239  10.584   6.444   6.316 -2.0118  0.5759 -2.3359
  805MOL0     H 6240  10.299   6.385   6.356  0.4615  4.2030  1.7129
  805MOL0     H 6241  10.391   6.358   6.201 -0.0389 -2.8879  0.7712
  805MOL0     H 6242  10.085   5.769   6.470  0.1193  2.2445  1.5856
  805MOL0     H 6243   9.884   5.604   6.510  0.1586  1.9259 -0.4190
  805MOL0     H 6244   9.587   5.419   6.818 -1.6903 -0.4151  0.5872
  805MOL0     H 6245   9.402   5.253   6.819  1.7350  1.6181  1.2578
  805MOL0     H 6246   9.314   3.755   7.515  1.0791  0.9235 -0.7263
  805MOL0     H 6247   9.381   3.600   7.705 -1.5147  1.3046 -0.4987
  805MOL0     H 6248   9.895   3.517   7.941  0.6632 -0.8520  0.5070
  805MOL0     H 6249   9.957   3.397   8.131  0.3794  0.1327 -0.5249
  805MOL0     H 6250   9.670   3.084   8.262  0.1925  1.5821 -2.2132
  805MOL0     H 6251   9.715   3.228   8.357  1.5971 -0.2085 -1.1488
  805MOL0     H 6252   9.864   3.080   8.500 -1.3709 -0.4210  0.5767
  805MOL0     H 6253   9.717   2.984   8.461 -0.3595  0.4323 -0.8121
  805MOL0     H 6254   9.983   2.974   8.322 -1.1565  0.5733 -0.5130
  805MOL0     H 6255   9.844   2.869   8.282  3.2598  1.4177 -3.7885
  805MOL0     H 6256   9.837   2.772   8.502 -0.5228  2.5745  2.1489
  805MOL0     H 6257   9.993   2.733   8.409 -0.4528  0.8605 -0.8258
  805MOL0     H 6258  10.104   2.961   8.757  1.2720 -0.5373 -0.1664
  805MOL0     H 6259   9.626   3.117   8.064 -1.5623  1.7693  1.5291
  805MOL0     H 6260   9.554   3.251   7.869 -0.3892  0.6291 -2.8930
  806MOL0     O 6261  10.723   1.718   0.972 -0.2291 -0.3095 -0.4839
  806MOL0     C 6262  10.606   1.717   1.007  1.0363  0.6808 -0.3829
  806MOL0     O 6263  10.547   1.615   1.072 -0.3563 -0.1452  0.1211
  806MOL0     C 6264  10.604   1.490   1.090  0.2514 -0.0704  0.0098
  806MOL0     C 6265  10.699   1.434   1.010  0.5822 -0.4026 -0.2717
  806MOL0     C 6266  10.751   1.309   1.034 -0.7306 -0.9107  0.0050
  806MOL0     C 6267  10.727   1.239   1.151  0.0603  0.1792  0.4374
  806MOL0     O 6268  10.802   1.125   1.172  0.4507 -0.1629 -0.6698
  806MOL0     C 6269  10.817   1.081   1.303  0.0541 -0.8676 -0.6700
  806MOL0     C 6270  10.944   0.996   1.307 -0.1917 -0.8473  0.6053
  806MOL0     C 6271  10.941   0.874   1.210 -0.7150 -0.7002 -0.1634
  806MOL0     C 6272  11.061   0.780   1.224  0.1721  0.1671 -0.1495
  806MOL0     C 6273  11.062   0.683   1.107 -0.9039 -0.3124 -0.4775
  806MOL0     C 6274  11.177   0.587   1.128 -0.9840 -0.6365 -0.1750
  806MOL0     C 6275  11.186   0.467   1.029  0.1352  0.5329  0.0663
  806MOL0     C 6276  11.223   0.509   0.886 -0.3394 -0.3458 -0.2494
  806MOL0     N 6277  11.254   0.380   0.814 -0.4895 -0.5483 -0.9814
  806MOL0     C 6278  11.376   0.342   0.774 -0.3312  0.1848 -0.5318
  806MOL0     C 6279  11.355   0.241   0.680 -0.3757  0.0249  0.6173
  806MOL0     C 6280  11.448   0.167   0.592 -0.9008  0.7274 -0.3038
  806MOL0     C 6281  11.516   0.055   0.669 -0.0552 -0.5577  0.5273
  806MOL0     C 6282  11.643   0.004   0.600  0.0047  0.0592  0.0889
  806MOL0     C 6283  11.662  -0.134   0.656 -0.3049  0.2771 -0.1379
  806MOL0     O 6284  11.568  -0.221   0.592  0.8846 -0.3382  0.0034
  806MOL0     C 6285  11.546  -0.349   0.634  0.2818 -0.1719 -0.3082
  806MOL0     C 6286  11.612  -0.400   0.735 -0.0206 -0.8440 -0.3454
  806MOL0     C 6287  11.579  -0.525   0.784  0.5302  0.4714  0.1276
  806MOL0     C 6288  11.485  -0.611   0.719  0.5143 -0.2037 -0.2950
  806MOL0     C 6289  11.463  -0.749   0.764 -0.3363  0.5501  0.8643
  806MOL0     O 6290  11.381  -0.820   0.677 -1.1801  1.5494 -0.4726
  806MOL0     C 6291  11.371  -0.957   0.702 -0.9364 -0.3465  0.0469
  806MOL0     C 6292  11.306  -1.009   0.815 -0.0918 -0.0026  0.7079
  806MOL0     C 6293  11.299  -1.147   0.826  1.1436  0.2459 -0.3647
  806MOL0     C 6294  11.330  -1.242   0.733 -0.1495  0.4847 -0.3933
  806MOL0     O 6295  11.285  -1.379   0.751  0.1043  0.0237  0.3714
  806MOL0     C 6296  11.271  -1.464   0.631 -0.0079 -0.1746 -0.6470
  806MOL0     C 6297  11.264  -1.615   0.655 -0.0288  0.2727 -0.0215
  806MOL0     C 6298  11.214  -1.686   0.528  0.0747 -0.3277 -0.5996
  806MOL0     C 6299  11.058  -1.683   0.514 -0.3741 -0.5834  0.5645
  806MOL0     C 6300  11.003  -1.751   0.391 -0.3872  0.8241  0.6922
  806MOL0     C 6301  11.036  -1.681   0.267  0.7767  0.7505  0.8270
  806MOL0     C 6302  10.953  -1.741   0.152 -0.0761  1.4345 -0.3607
  806MOL0     C 6303  11.007  -1.705   0.011  0.5443  0.2822 -0.5632
  806MOL0    Cl 6304  10.928  -1.794  -0.112  0.3753 -0.4709 -0.1247
  806MOL0     C 6305  11.397  -1.188   0.622 -0.2459  0.6675 -1.1174
  806MOL0     C 6306  11.425  -1.051   0.618 -0.4078  0.0433 -0.8555
  806MOL0     O 6307  11.523  -0.793   0.859 -0.2806  0.7842 -0.1219
  806MOL0     C 6308  11.413  -0.559   0.612  0.6397 -0.2907 -0.3782
  806MOL0     C 6309  11.436  -0.424   0.574 -1.0608 -0.6220  0.4743
  806MOL0     N 6310  11.217   0.212   0.678  0.0852 -0.1469  1.2443
  806MOL0     N 6311  11.166   0.300   0.752  0.3140 -0.5487  0.7653
  806MOL0     C 6312  10.622   1.288   1.229 -0.1320  1.0463  0.4816
  806MOL0     C 6313  10.559   1.407   1.201  0.0373  0.0343 -0.3413
  806MOL0     C 6314  10.509   1.820   0.970  0.1790  0.0304 -0.6119
  806MOL0     C 6315  10.544   1.900   0.859 -0.2882  0.1988 -0.5000
  806MOL0     C 6316  10.457   2.010   0.828 -0.1022  0.5243 -0.0890
  806MOL0     C 6317  10.347   2.041   0.920  0.5763 -0.5205  0.6549
  806MOL0     O 6318  10.274   2.160   0.904 -1.1571  0.4399  0.5557
  806MOL0     C 6319  10.328   2.278   0.977 -0.3367  0.0157  1.1200
  806MOL0     C 6320  10.217   2.379   0.967 -0.1553 -0.2228 -1.1290
  806MOL0     C 6321  10.155   2.385   1.104 -1.0240 -0.3791  0.0300
  806MOL0     C 6322  10.059   2.503   1.115 -0.5732  0.1242 -0.2844
  806MOL0     C 6323   9.950   2.489   1.019 -0.0141 -0.2678 -1.2447
  806MOL0     C 6324   9.847   2.482   0.963  0.7823  0.1438 -0.0118
  806MOL0     C 6325  10.314   1.949   1.026  0.2483 -0.1278 -0.7111
  806MOL0     C 6326  10.387   1.834   1.044  0.5167  0.7112  0.4010
  806MOL0     H 6327  10.750   1.488   0.930 -0.3325 -0.3952 -0.8773
  806MOL0     H 6328  10.817   1.272   0.957 -1.4961 -0.0961 -1.0629
  806MOL0     H 6329  10.732   1.017   1.327 -0.9646  0.9405  0.7559
  806MOL0     H 6330  10.826   1.164   1.373 -0.0483 -2.3613  1.2094
  806MOL0     H 6331  10.955   0.960   1.410  0.9919  4.4376  2.7094
  806MOL0     H 6332  11.029   1.065   1.300 -1.4539  0.6948 -0.4066
  806MOL0     H 6333  10.924   0.921   1.112 -1.7744 -0.9959 -0.1238
  806MOL0     H 6334  10.855   0.809   1.228 -1.3317 -0.0550 -0.7255
  806MOL0     H 6335  11.152   0.841   1.215  0.8195 -0.9174 -1.3381
  806MOL0     H 6336  11.068   0.735   1.323 -2.3543 -1.2412 -0.5480
  806MOL0     H 6337  11.082   0.737   1.014  4.2888  1.5779  1.3790
  806MOL0     H 6338  10.961   0.638   1.106 -1.1297  0.1584  0.6665
  806MOL0     H 6339  11.173   0.541   1.227  2.0883  2.3513  1.5869
  806MOL0     H 6340  11.274   0.639   1.124 -1.3757  0.0735 -0.7205
  806MOL0     H 6341  11.265   0.405   1.074 -0.2902 -0.7446 -0.8662
  806MOL0     H 6342  11.097   0.404   1.023  2.4963 -3.0049 -3.5587
  806MOL0     H 6343  11.304   0.582   0.883 -0.1301 -0.6083 -1.0769
  806MOL0     H 6344  11.135   0.553   0.838 -0.8785 -1.0964  0.0364
  806MOL0     H 6345  11.470   0.395   0.783  1.2336 -2.6033  0.9699
  806MOL0     H 6346  11.517   0.244   0.555  2.7470 -1.6746  0.9475
  806MOL0     H 6347  11.401   0.116   0.507  2.1701 -1.4903 -0.8593
  806MOL0     H 6348  11.445  -0.026   0.685 -1.0540 -0.0428 -1.1209
  806MOL0     H 6349  11.559   0.093   0.763  3.4571 -1.9469 -0.3581
  806MOL0     H 6350  11.643   0.003   0.491  0.6044  0.2831  0.0810
  806MOL0     H 6351  11.733   0.060   0.627  1.8279 -1.6276 -2.0223
  806MOL0     H 6352  11.651  -0.142   0.765  0.1146 -3.2958 -0.2663
  806MOL0     H 6353  11.765  -0.172   0.651 -0.3244  0.0098  1.1265
  806MOL0     H 6354  11.705  -0.361   0.776  1.6175 -1.7245 -2.9200
  806MOL0     H 6355  11.642  -0.570   0.860 -0.6131  0.9401  1.4035
  806MOL0     H 6356  11.267  -0.943   0.892 -0.4746 -1.4183  1.7668
  806MOL0     H 6357  11.238  -1.190   0.905 -1.8553 -2.2487 -3.6983
  806MOL0     H 6358  11.352  -1.456   0.559 -1.9510 -0.7780 -3.0408
  806MOL0     H 6359  11.184  -1.423   0.579  0.5288 -0.2866 -1.6467
  806MOL0     H 6360  11.190  -1.631   0.734  0.5934 -0.8983  0.3534
  806MOL0     H 6361  11.364  -1.650   0.683 -0.2284  1.4223  2.4124
  806MOL0     H 6362  11.253  -1.788   0.523  2.9922  0.4470  2.6700
  806MOL0     H 6363  11.254  -1.635   0.440 -1.1823 -0.6621 -1.3972
  806MOL0     H 6364  11.015  -1.730   0.603 -0.0878 -1.8865  0.0408
  806MOL0     H 6365  11.020  -1.581   0.503  0.4026 -0.2306  1.0556
  806MOL0     H 6366  10.895  -1.738   0.406 -0.3286  1.1283  0.8614
  806MOL0     H 6367  11.040  -1.853   0.377 -0.8624  0.9893 -2.3044
  806MOL0     H 6368  11.143  -1.701   0.255  0.0862 -2.1518 -1.7620
  806MOL0     H 6369  11.017  -1.575   0.286  2.9300  0.9173  2.3611
  806MOL0     H 6370  10.964  -1.850   0.153 -1.9271  1.2185 -0.2301
  806MOL0     H 6371  10.848  -1.718   0.172 -0.6557 -0.6355 -0.7528
  806MOL0     H 6372  11.115  -1.722  -0.001  0.6180  0.0035  0.4424
  806MOL0     H 6373  10.981  -1.603  -0.017 -1.5870 -0.8909 -3.3117
  806MOL0     H 6374  11.450  -1.257   0.557  1.0749 -1.1816  1.6883
  806MOL0     H 6375  11.476  -1.019   0.527  3.1916  1.7163  1.5240
  806MOL0     H 6376  11.349  -0.628   0.557  2.7569 -0.6741 -2.5382
  806MOL0     H 6377  11.378  -0.367   0.501  1.0701  3.2410  1.4974
  806MOL0     H 6378  10.604   1.230   1.320  3.5208 -0.6160  0.3189
  806MOL0     H 6379  10.485   1.436   1.275  1.5849 -2.0547  2.1800
  806MOL0     H 6380  10.617   1.875   0.782 -1.9112 -2.1524 -1.3836
  806MOL0     H 6381  10.486   2.062   0.737 -2.7718  0.5484 -1.0256
  806MOL0     H 6382  10.411   2.309   0.914 -2.2702  2.0433 -0.5819
  806MOL0     H 6383  10.359   2.252   1.079 -0.5756  1.8766  1.6982
  806MOL0     H 6384  10.265   2.476   0.952  0.8731 -0.9218 -2.6284
  806MOL0     H 6385  10.151   2.369   0.880  1.5518 -2.2852 -2.2946
  806MOL0     H 6386  10.231   2.400   1.182 -0.0085 -0.0635 -1.0026
  806MOL0     H 6387  10.095   2.301   1.139 -0.6983  0.0825  1.8084
  806MOL0     H 6388  10.011   2.499   1.214 -0.5738  0.9203 -0.2496
  806MOL0     H 6389  10.106   2.599   1.092 -1.5432  0.1549 -2.3476
  806MOL0     H 6390   9.760   2.463   0.903 -1.1685  2.8292  1.6927
  806MOL0     H 6391  10.233   1.971   1.095 -1.8470  1.2309 -3.4252
  806MOL0     H 6392  10.360   1.766   1.124 -0.7126  3.7716  2.7876
  807MOL0     O 6393  11.296   3.802   6.151  0.4587  0.7471  1.1507
  807MOL0     C 6394  11.277   3.886   6.058 -0.1520  0.1997  0.0293
  807MOL0     O 6395  11.374   3.936   5.973  0.4075 -0.5770 -0.1520
  807MOL0     C 6396  11.510   3.898   5.963 -0.4409  0.8597  0.0504
  807MOL0     C 6397  11.560   3.771   5.995  0.0325 -0.6571  0.0221
  807MOL0     C 6398  11.689   3.736   5.961 -0.7279 -0.9665 -0.2141
  807MOL0     C 6399  11.779   3.832   5.911  0.2130 -0.1284  0.9312
  807MOL0     O 6400  11.900   3.799   5.880 -0.1161  0.2235  0.1923
  807MOL0     C 6401  12.004   3.881   5.949 -0.0661  0.8606 -0.0873
  807MOL0     C 6402  12.139   3.810   5.943 -0.7636  0.0953 -0.5002
  807MOL0     C 6403  12.255   3.884   6.019 -0.2999 -0.3739 -0.2940
  807MOL0     C 6404  12.276   4.029   5.968  1.2915 -0.0325 -0.1256
  807MOL0     C 6405  12.401   4.087   6.016 -0.1090  0.3657 -0.4223
  807MOL0     C 6406  12.528   4.017   5.955  0.6115 -0.0650 -0.4832
  807MOL0     C 6407  12.656   4.088   5.994  0.7219 -1.4884 -0.0446
  807MOL0     C 6408  12.675   4.104   6.142 -0.4280  0.0338  0.7444
  807MOL0     N 6409  12.817   4.145   6.160 -0.9552 -0.2168  0.7783
  807MOL0     C 6410  12.942   4.088   6.131  0.1166 -0.0944  0.2090
  807MOL0     C 6411  13.038   4.183   6.154 -0.5134 -0.5744  0.7810
  807MOL0     C 6412  13.185   4.154   6.140 -0.4402 -0.0325  0.4956
  807MOL0     C 6413  13.269   4.163   6.267  0.3902  0.1649 -0.1204
  807MOL0     C 6414  13.347   4.296   6.280 -0.0804  0.5133 -0.0206
  807MOL0     C 6415  13.423   4.290   6.412  0.6662 -0.6789 -0.6597
  807MOL0     O 6416  13.482   4.418   6.441  0.4050 -0.1146 -0.3915
  807MOL0     C 6417  13.581   4.425   6.545 -0.3198 -1.2345  1.0113
  807MOL0     C 6418  13.651   4.543   6.566  0.2059 -0.3747 -0.3739
  807MOL0     C 6419  13.750   4.565   6.660  0.9978 -0.3149  0.0308
  807MOL0     C 6420  13.796   4.458   6.733 -0.5852  0.2779  1.0143
  807MOL0     C 6421  13.914   4.468   6.833  0.7423  0.1625 -0.6466
  807MOL0     O 6422  13.960   4.587   6.860 -0.1598 -0.9019 -1.3026
  807MOL0     C 6423  14.070   4.592   6.938  0.2914 -0.2585 -0.2363
  807MOL0     C 6424  14.189   4.551   6.892 -0.1306 -0.2266 -0.7017
  807MOL0     C 6425  14.303   4.586   6.968 -0.3717  0.0851  0.4671
  807MOL0     C 6426  14.299   4.651   7.088 -0.1297 -0.5703 -0.7735
  807MOL0     O 6427  14.404   4.682   7.165  0.4290 -0.0306  0.5314
  807MOL0     C 6428  14.399   4.627   7.303 -0.4343 -0.6986  0.5324
  807MOL0     C 6429  14.544   4.613   7.357 -0.1588 -0.9749  0.6901
  807MOL0     C 6430  14.606   4.757   7.351 -0.3686 -0.0873  0.0541
  807MOL0     C 6431  14.748   4.750   7.410 -0.9265 -1.0667  0.5398
  807MOL0     C 6432  14.746   4.731   7.563 -0.8282 -0.2891  0.8944
  807MOL0     C 6433  14.894   4.714   7.619 -0.6179 -0.2328  0.1756
  807MOL0     C 6434  14.967   4.845   7.641  0.0778 -0.9104 -0.0125
  807MOL0     C 6435  15.118   4.836   7.617 -0.3325 -0.7411 -0.4135
  807MOL0    Cl 6436  15.201   4.732   7.732  0.1752 -0.0236  0.2453
  807MOL0     C 6437  14.170   4.688   7.134 -0.5072 -0.2498  0.3858
  807MOL0     C 6438  14.056   4.652   7.067 -0.1338 -0.1625 -0.2679
  807MOL0     O 6439  13.961   4.360   6.873  0.7484  0.6239  0.7002
  807MOL0     C 6440  13.739   4.333   6.701 -0.6653 -0.3205  0.4632
  807MOL0     C 6441  13.639   4.311   6.607 -0.0804  0.1188 -0.0070
  807MOL0     N 6442  12.978   4.290   6.200  0.0829 -1.0610  0.0259
  807MOL0     N 6443  12.849   4.273   6.203 -0.0576 -0.4530  0.0747
  807MOL0     C 6444  11.733   3.960   5.877  0.3458 -0.8816 -0.2175
  807MOL0     C 6445  11.601   3.991   5.909  0.1516  0.6122  0.1150
  807MOL0     C 6446  11.141   3.928   6.038 -0.4445 -0.5764  0.9692
  807MOL0     C 6447  11.045   3.901   6.135  0.5115  0.2064  0.2320
  807MOL0     C 6448  10.913   3.927   6.113  0.0149 -1.5655 -0.4704
  807MOL0     C 6449  10.870   3.986   5.986 -0.0250  0.8930  0.1559
  807MOL0     O 6450  10.738   4.025   5.960 -0.0910  0.4146  0.6128
  807MOL0     C 6451  10.630   3.989   6.038  0.1861 -0.0079 -0.7322
  807MOL0     C 6452  10.621   4.128   6.103  0.6769 -0.0045  0.6989
  807MOL0     C 6453  10.517   4.117   6.208  0.2485  0.0496 -0.3765
  807MOL0     C 6454  10.382   4.043   6.187  0.9023  0.1603  1.2681
  807MOL0     C 6455  10.322   4.094   6.061  0.2203 -0.4543 -0.5960
  807MOL0     C 6456  10.287   4.140   5.954  0.1274  0.0543  0.5347
  807MOL0     C 6457  10.973   4.011   5.888  1.2577  0.1486  0.6601
  807MOL0     C 6458  11.105   3.974   5.910  0.5339 -0.9053 -1.2837
  807MOL0     H 6459  11.492   3.707   6.052 -0.6668  0.6982  0.7594
  807MOL0     H 6460  11.721   3.635   5.984 -0.1506 -0.7412 -0.0143
  807MOL0     H 6461  11.973   3.901   6.052  1.7206  1.3823  0.3785
  807MOL0     H 6462  12.006   3.973   5.891 -2.6215  2.5802  2.3091
  807MOL0     H 6463  12.177   3.796   5.841 -0.2712 -0.0979 -0.2944
  807MOL0     H 6464  12.134   3.710   5.987 -2.9636  0.9016  1.3031
  807MOL0     H 6465  12.347   3.823   6.016 -0.9122 -1.4226  0.9681
  807MOL0     H 6466  12.223   3.893   6.123 -0.3703  0.2355 -0.3700
  807MOL0     H 6467  12.267   4.008   5.861 -1.1367 -2.1886  0.4147
  807MOL0     H 6468  12.190   4.085   6.004 -0.1689 -2.8409  1.0408
  807MOL0     H 6469  12.392   4.095   6.125  2.0966  1.0571 -0.2582
  807MOL0     H 6470  12.398   4.191   5.982 -2.8806  0.6811  0.5201
  807MOL0     H 6471  12.522   4.020   5.846  0.3294  1.0529 -0.4450
  807MOL0     H 6472  12.535   3.912   5.984 -3.1020  0.0116  1.4176
  807MOL0     H 6473  12.746   4.040   5.952 -0.2606 -3.8368  0.3397
  807MOL0     H 6474  12.649   4.186   5.948  2.9096 -1.1930  0.1443
  807MOL0     H 6475  12.648   4.019   6.204 -0.7990  0.9204  1.8365
  807MOL0     H 6476  12.602   4.172   6.186 -0.5942 -0.2748  0.9464
  807MOL0     H 6477  12.951   3.988   6.091 -0.3983 -0.3479  0.7169
  807MOL0     H 6478  13.225   4.228   6.071  2.1440 -2.5441 -0.8733
  807MOL0     H 6479  13.202   4.058   6.091  4.1125  1.0905 -0.5392
  807MOL0     H 6480  13.349   4.089   6.259  3.2545  2.3645  4.2482
  807MOL0     H 6481  13.207   4.135   6.352 -2.0108  0.1521 -1.7612
  807MOL0     H 6482  13.412   4.311   6.194 -3.2149  3.1895 -2.1703
  807MOL0     H 6483  13.287   4.387   6.285  3.3488  2.9540  0.4585
  807MOL0     H 6484  13.499   4.211   6.413  1.4856 -0.0420  2.9656
  807MOL0     H 6485  13.345   4.260   6.483  2.0587 -2.0354  0.3535
  807MOL0     H 6486  13.628   4.623   6.497  2.5018  0.9278  0.2604
  807MOL0     H 6487  13.787   4.666   6.673  0.2734  0.1327 -1.2178
  807MOL0     H 6488  14.198   4.500   6.797  1.4188  0.5664 -1.0098
  807MOL0     H 6489  14.398   4.537   6.950  0.4554 -0.1203  4.5444
  807MOL0     H 6490  14.347   4.531   7.307 -0.9218 -0.5899 -1.8288
  807MOL0     H 6491  14.347   4.706   7.357 -0.5651  0.1583 -0.8138
  807MOL0     H 6492  14.598   4.536   7.300  1.9078 -1.6358  3.3125
  807MOL0     H 6493  14.546   4.586   7.463  1.8615  1.1088  1.2612
  807MOL0     H 6494  14.556   4.830   7.416  1.1207 -1.0995  2.4608
  807MOL0     H 6495  14.612   4.794   7.248  2.2913  1.9162  0.8098
  807MOL0     H 6496  14.797   4.666   7.359  1.5048  0.6828 -0.2042
  807MOL0     H 6497  14.811   4.836   7.385 -0.0894 -1.6572  0.5611
  807MOL0     H 6498  14.701   4.636   7.595  1.3651 -2.1495 -1.1595
  807MOL0     H 6499  14.695   4.815   7.611 -1.8858 -1.2076  1.4391
  807MOL0     H 6500  14.960   4.647   7.564  0.9856 -3.6729  5.4868
  807MOL0     H 6501  14.879   4.669   7.718 -2.3466 -1.0101 -0.3945
  807MOL0     H 6502  14.932   4.919   7.567  0.9980 -1.2581 -0.8174
  807MOL0     H 6503  14.933   4.898   7.730 -2.2273  0.5921 -1.6610
  807MOL0     H 6504  15.163   4.935   7.613 -2.2610  0.1225 -2.3969
  807MOL0     H 6505  15.131   4.792   7.518 -0.1066  0.8439 -1.1154
  807MOL0     H 6506  14.152   4.756   7.217 -1.5301 -0.0495  0.0170
  807MOL0     H 6507  13.958   4.684   7.101 -0.6420 -2.3804  0.5250
  807MOL0     H 6508  13.758   4.247   6.764 -2.7689 -1.6374 -0.6079
  807MOL0     H 6509  13.618   4.206   6.588  3.0080 -0.5614 -0.1900
  807MOL0     H 6510  11.800   4.037   5.841 -1.3762  2.4258  2.9724
  807MOL0     H 6511  11.548   4.075   5.865  1.4911  1.0042 -0.8103
  807MOL0     H 6512  11.066   3.843   6.225  1.5605 -0.3358 -0.3483
  807MOL0     H 6513  10.842   3.893   6.188 -0.0827 -2.1189 -0.8082
  807MOL0     H 6514  10.629   3.912   6.116 -1.3406  0.9973  0.3162
  807MOL0     H 6515  10.546   3.972   5.970 -1.0008  0.2544  0.6297
  807MOL0     H 6516  10.716   4.165   6.144  1.3581  2.4104 -2.6624
  807MOL0     H 6517  10.610   4.212   6.033  1.2008 -0.5739 -0.0805
  807MOL0     H 6518  10.479   4.219   6.220  2.5559  0.9017  0.2511
  807MOL0     H 6519  10.562   4.086   6.303 -0.4052  4.0907  1.4917
  807MOL0     H 6520  10.402   3.936   6.184  2.1395  0.3998 -1.8266
  807MOL0     H 6521  10.317   4.081   6.267 -4.1379  0.7542 -2.5911
  807MOL0     H 6522  10.253   4.203   5.875 -0.4678  0.8603  1.4042
  807MOL0     H 6523  10.940   4.041   5.789  2.9042 -1.3763 -0.4208
  807MOL0     H 6524  11.179   3.976   5.831  2.7615 -1.7073  0.6526
  808MOL0     O 6525  10.438   0.359   6.632 -0.3193 -0.7862  0.0499
  808MOL0     C 6526  10.495   0.385   6.733  0.2693 -0.1559  0.5691
  808MOL0     O 6527  10.623   0.432   6.730  1.4883 -0.2772 -0.4205
  808MOL0     C 6528  10.669   0.483   6.607  0.0626  0.0430 -1.2456
  808MOL0     C 6529  10.609   0.596   6.557  0.0119 -0.5339 -0.3693
  808MOL0     C 6530  10.628   0.643   6.426  0.9164 -0.8216 -0.4024
  808MOL0     C 6531  10.724   0.580   6.349 -0.2143  0.1757 -0.5016
  808MOL0     O 6532  10.750   0.642   6.230  0.7503 -0.5945 -0.0326
  808MOL0     C 6533  10.704   0.549   6.124 -0.2709 -0.3433 -0.1252
  808MOL0     C 6534  10.632   0.646   6.013 -0.3416  0.1628  0.1442
  808MOL0     C 6535  10.509   0.719   6.059  1.0815 -0.0153 -0.3175
  808MOL0     C 6536  10.453   0.809   5.949  0.6113  0.1838 -0.5214
  808MOL0     C 6537  10.313   0.857   5.986  0.2529 -0.9213 -0.6414
  808MOL0     C 6538  10.250   0.946   5.876  0.1238  0.5889 -0.0249
  808MOL0     C 6539  10.191   0.861   5.761  1.4023  0.5919  0.3914
  808MOL0     C 6540  10.097   0.939   5.667  0.1586 -0.8412  0.4573
  808MOL0     N 6541  10.176   1.026   5.579  0.0824  0.1349 -0.4821
  808MOL0     C 6542  10.204   1.151   5.605 -0.7016 -0.7319 -0.6547
  808MOL0     C 6543  10.271   1.197   5.500 -0.4417 -0.0347  0.8674
  808MOL0     C 6544  10.302   1.340   5.486 -0.2189  0.0742  0.2110
  808MOL0     C 6545  10.416   1.364   5.387  0.2094 -0.6106 -1.0768
  808MOL0     C 6546  10.493   1.500   5.426 -0.1439 -0.5160 -0.1826
  808MOL0     C 6547  10.621   1.492   5.346 -0.4658  0.1479  0.2821
  808MOL0     O 6548  10.710   1.605   5.360 -0.3021 -0.2541  0.2478
  808MOL0     C 6549  10.832   1.583   5.423  0.0345 -0.4804 -0.7817
  808MOL0     C 6550  10.923   1.688   5.411 -0.0142 -0.1341  0.1270
  808MOL0     C 6551  11.049   1.693   5.478  0.9348  0.4178  0.9857
  808MOL0     C 6552  11.085   1.586   5.568  0.9036 -0.3999 -0.0574
  808MOL0     C 6553  11.210   1.586   5.646 -1.8235 -0.5452  0.2045
  808MOL0     O 6554  11.252   1.469   5.707  0.6086 -0.1988  0.0822
  808MOL0     C 6555  11.380   1.458   5.758 -0.4656 -0.1372  0.2529
  808MOL0     C 6556  11.415   1.544   5.868 -1.0544 -0.2344  0.5028
  808MOL0     C 6557  11.544   1.555   5.928 -1.0357 -0.4835 -0.7245
  808MOL0     C 6558  11.640   1.486   5.863 -0.0563 -0.2678  0.4284
  808MOL0     O 6559  11.766   1.497   5.914 -0.1086 -0.5326 -0.0330
  808MOL0     C 6560  11.873   1.509   5.818  0.9279 -0.0209  0.6634
  808MOL0     C 6561  11.999   1.545   5.899  0.1822  0.6516  0.4786
  808MOL0     C 6562  12.119   1.561   5.810 -0.5042  0.1786 -0.0869
  808MOL0     C 6563  12.216   1.652   5.877  0.0245  0.4831 -0.2296
  808MOL0     C 6564  12.343   1.669   5.805 -0.8753 -1.3280 -1.5601
  808MOL0     C 6565  12.456   1.745   5.880  0.0774  0.0833 -0.6761
  808MOL0     C 6566  12.515   1.668   6.010 -0.2951 -0.6693  0.5144
  808MOL0     C 6567  12.596   1.755   6.102  0.3796  0.5319 -0.3873
  808MOL0    Cl 6568  12.724   1.844   6.028  0.0491 -0.0391  0.0592
  808MOL0     C 6569  11.608   1.397   5.762 -0.3387  0.0412  0.6198
  808MOL0     C 6570  11.480   1.371   5.712  0.2611 -0.5590  0.7270
  808MOL0     O 6571  11.277   1.691   5.643 -0.0721  0.7176 -0.1757
  808MOL0     C 6572  10.993   1.478   5.583 -0.3404 -0.0750  0.3816
  808MOL0     C 6573  10.874   1.479   5.504  0.6142  0.0136 -0.8897
  808MOL0     N 6574  10.273   1.097   5.406 -0.8232 -0.6597  0.1359
  808MOL0     N 6575  10.232   0.989   5.456  0.0668 -0.4872 -0.3919
  808MOL0     C 6576  10.797   0.466   6.400 -0.7226  0.1314 -0.6166
  808MOL0     C 6577  10.764   0.420   6.531 -0.4969  0.3619 -0.5423
  808MOL0     C 6578  10.442   0.353   6.854  0.6044  1.1633 -0.3237
  808MOL0     C 6579  10.336   0.250   6.861  0.3523  0.0900  0.9192
  808MOL0     C 6580  10.266   0.221   6.978  0.0191 -0.4083 -0.0980
  808MOL0     C 6581  10.304   0.295   7.092 -0.7984  1.1108  0.6812
  808MOL0     O 6582  10.251   0.252   7.213  1.1403  0.1705 -0.9201
  808MOL0     C 6583  10.311   0.321   7.331 -0.0304  0.2870  0.1159
  808MOL0     C 6584  10.225   0.262   7.441 -0.4563 -1.4565 -0.5080
  808MOL0     C 6585  10.304   0.296   7.564 -0.0701 -0.5050  0.0047
  808MOL0     C 6586  10.222   0.288   7.693  0.2797  0.8785 -0.6588
  808MOL0     C 6587  10.159   0.152   7.723 -0.2588 -0.3425  0.3742
  808MOL0     C 6588  10.102   0.046   7.737  1.1071 -0.6444 -0.1058
  808MOL0     C 6589  10.396   0.399   7.077 -0.4894 -1.0067 -0.9959
  808MOL0     C 6590  10.466   0.429   6.970 -0.3469 -0.2072  0.4269
  808MOL0     H 6591  10.529   0.650   6.608  0.5916  0.4349 -0.4475
  808MOL0     H 6592  10.576   0.729   6.387 -0.6118 -1.8750 -0.7761
  808MOL0     H 6593  10.636   0.472   6.160 -1.3744  1.4185  1.7609
  808MOL0     H 6594  10.790   0.493   6.085 -0.7442 -0.6968 -0.6807
  808MOL0     H 6595  10.608   0.574   5.933  1.7516 -0.4774  0.0391
  808MOL0     H 6596  10.706   0.719   5.979 -3.4600  3.1807 -0.7273
  808MOL0     H 6597  10.528   0.790   6.140  0.5749  1.3863 -1.3895
  808MOL0     H 6598  10.431   0.648   6.090  0.2985  2.1691  3.2613
  808MOL0     H 6599  10.520   0.895   5.942 -0.4262  1.1744  1.1663
  808MOL0     H 6600  10.456   0.748   5.858  1.1899 -0.2833 -0.1965
  808MOL0     H 6601  10.324   0.909   6.082 -0.7386  1.0955 -1.5630
  808MOL0     H 6602  10.242   0.780   6.020 -1.0924  1.4998  2.6295
  808MOL0     H 6603  10.325   1.011   5.829 -0.0337  1.4736  0.9185
  808MOL0     H 6604  10.164   1.007   5.905  0.4401  1.5973 -1.1388
  808MOL0     H 6605  10.268   0.805   5.707  0.3487  0.6434 -1.2484
  808MOL0     H 6606  10.129   0.781   5.802 -1.2119  1.5781 -1.3922
  808MOL0     H 6607  10.019   0.988   5.725  0.6975  2.3898 -1.3006
  808MOL0     H 6608  10.058   0.868   5.593  4.2115 -0.2670 -2.5771
  808MOL0     H 6609  10.165   1.212   5.685 -1.0410 -0.5273 -0.9725
  808MOL0     H 6610  10.321   1.396   5.578 -0.4538 -0.6409  0.7012
  808MOL0     H 6611  10.218   1.387   5.433  0.8481  1.0362 -0.6654
  808MOL0     H 6612  10.389   1.374   5.282 -0.4177  0.9911 -0.7927
  808MOL0     H 6613  10.486   1.279   5.389  0.9797 -0.0335  1.6966
  808MOL0     H 6614  10.433   1.585   5.394  2.0274  0.0714 -3.2017
  808MOL0     H 6615  10.524   1.517   5.529  0.9680  5.2362 -1.1604
  808MOL0     H 6616  10.591   1.482   5.242  1.5993 -0.3608 -0.3113
  808MOL0     H 6617  10.674   1.400   5.372  0.2982  0.4090 -0.3284
  808MOL0     H 6618  10.907   1.772   5.343  0.0492  2.6370  3.2367
  808MOL0     H 6619  11.120   1.767   5.440  1.8420 -0.9009  0.0119
  808MOL0     H 6620  11.339   1.611   5.908  0.8558  1.1459  1.9821
  808MOL0     H 6621  11.553   1.626   6.009  0.6497 -0.9233 -0.4888
  808MOL0     H 6622  11.856   1.590   5.745  0.0964 -0.5983  0.1947
  808MOL0     H 6623  11.892   1.418   5.761  1.0568  0.5752 -0.2659
  808MOL0     H 6624  12.033   1.482   5.981 -2.8812 -1.2941  0.4034
  808MOL0     H 6625  11.974   1.646   5.933  2.1082  1.4626 -0.3457
  808MOL0     H 6626  12.095   1.603   5.712  1.0961 -1.9322 -1.4602
  808MOL0     H 6627  12.173   1.472   5.777  1.1013  0.8559  0.5932
  808MOL0     H 6628  12.165   1.749   5.872  0.8283  0.9416  0.2747
  808MOL0     H 6629  12.229   1.629   5.983 -1.1733  0.3612 -0.0873
  808MOL0     H 6630  12.328   1.704   5.702  4.5749 -1.3735 -2.6948
  808MOL0     H 6631  12.387   1.571   5.783  0.3920 -1.5197  1.4214
  808MOL0     H 6632  12.422   1.846   5.904 -1.5933 -0.1894 -1.7616
  808MOL0     H 6633  12.536   1.747   5.805  1.2324 -5.2339  0.0218
  808MOL0     H 6634  12.424   1.639   6.064 -1.2979  2.2576  0.5686
  808MOL0     H 6635  12.568   1.577   5.981 -0.8313 -1.5845  2.2374
  808MOL0     H 6636  12.628   1.690   6.184  0.9173 -0.8665 -1.6532
  808MOL0     H 6637  12.532   1.835   6.141 -0.5185  1.6315 -3.7908
  808MOL0     H 6638  11.686   1.330   5.725  0.1773  0.5833  0.7165
  808MOL0     H 6639  11.450   1.298   5.638 -2.0177 -0.1795  1.1881
  808MOL0     H 6640  11.020   1.401   5.654  1.7552  1.2343  1.1051
  808MOL0     H 6641  10.813   1.391   5.519  1.4928 -0.3785  0.5423
  808MOL0     H 6642  10.867   0.422   6.331  1.5459  0.6650  1.2028
  808MOL0     H 6643  10.815   0.331   6.566  1.0739  2.1765  2.1378
  808MOL0     H 6644  10.298   0.197   6.774  1.3454 -0.8972  1.0625
  808MOL0     H 6645  10.211   0.128   6.994 -0.2169  0.1179  2.7053
  808MOL0     H 6646  10.317   0.430   7.333  1.7894  0.2418 -0.9093
  808MOL0     H 6647  10.415   0.290   7.345  0.1511  1.1499  0.7891
  808MOL0     H 6648  10.125   0.307   7.439 -0.4625 -1.2821  1.4884
  808MOL0     H 6649  10.222   0.153   7.429  1.2374 -1.3600 -2.3127
  808MOL0     H 6650  10.350   0.394   7.555 -1.6937  0.3545  0.6902
  808MOL0     H 6651  10.386   0.223   7.574 -1.2747 -1.8845  0.1903
  808MOL0     H 6652  10.290   0.320   7.773 -0.8989  0.8697  0.3660
  808MOL0     H 6653  10.146   0.367   7.690 -0.1192  0.4781 -3.2436
  808MOL0     H 6654  10.032  -0.034   7.753 -1.8478  1.9513  1.0469
  808MOL0     H 6655  10.444   0.437   7.167 -0.3486 -1.8883 -0.6943
  808MOL0     H 6656  10.539   0.510   6.972 -1.3884  0.8152 -1.0152
  809MOL0     O 6657   2.684   6.972   5.773 -0.4391 -0.5598 -0.0806
  809MOL0     C 6658   2.679   7.093   5.747 -0.1387 -0.3632 -0.8339
  809MOL0     O 6659   2.766   7.157   5.666  0.6379 -0.1032 -0.3678
  809MOL0     C 6660   2.860   7.084   5.592  0.2832  0.6111  0.6207
  809MOL0     C 6661   2.857   7.099   5.454 -0.4361 -0.2274 -0.7307
  809MOL0     C 6662   2.964   7.034   5.382 -0.3273  0.1636  0.0025
  809MOL0     C 6663   3.067   6.961   5.447 -0.2364  0.0950  0.6114
  809MOL0     O 6664   3.173   6.897   5.384  0.0617 -0.2167  0.2531
  809MOL0     C 6665   3.223   6.953   5.257 -0.8198 -0.5491 -0.1210
  809MOL0     C 6666   3.329   7.064   5.290 -0.4365  0.0463 -0.2571
  809MOL0     C 6667   3.455   7.019   5.363 -0.3640  0.3197 -1.0856
  809MOL0     C 6668   3.528   7.146   5.410  0.2405  0.7116  1.0542
  809MOL0     C 6669   3.576   7.237   5.301  0.3536  0.7031  0.6104
  809MOL0     C 6670   3.671   7.170   5.193 -0.3730  0.6542 -1.4043
  809MOL0     C 6671   3.797   7.104   5.256 -0.2357  0.3341  0.1464
  809MOL0     C 6672   3.908   7.199   5.299 -1.3135 -0.7909  0.3017
  809MOL0     N 6673   3.871   7.277   5.419  0.3101  0.8220 -0.3288
  809MOL0     C 6674   3.868   7.224   5.549 -0.2853 -0.1032 -0.5132
  809MOL0     C 6675   3.863   7.332   5.630  0.0116  0.7144 -0.3018
  809MOL0     C 6676   3.870   7.316   5.783  0.3790 -0.9059 -0.2078
  809MOL0     C 6677   3.860   7.445   5.873  0.6800  0.0177  0.7077
  809MOL0     C 6678   3.869   7.425   6.025 -0.7018  1.3882 -0.2494
  809MOL0     C 6679   3.988   7.350   6.076  0.6990 -1.1098  0.8793
  809MOL0     O 6680   3.993   7.332   6.214  0.5338  1.2250 -0.2710
  809MOL0     C 6681   4.076   7.230   6.262 -1.2470 -0.3109  0.3749
  809MOL0     C 6682   4.141   7.257   6.384 -0.5980 -0.9632 -0.6384
  809MOL0     C 6683   4.239   7.178   6.435 -0.7096 -0.2631  0.7048
  809MOL0     C 6684   4.271   7.065   6.369 -0.3077 -0.6537 -0.2298
  809MOL0     C 6685   4.368   6.966   6.443 -0.6389 -0.3498  0.3847
  809MOL0     O 6686   4.430   7.007   6.557  0.7709 -0.4802  0.4338
  809MOL0     C 6687   4.527   6.925   6.615  0.4084  0.6994  0.1345
  809MOL0     C 6688   4.665   6.935   6.585 -0.6195  0.8845  1.3807
  809MOL0     C 6689   4.742   6.840   6.650 -0.8793 -0.6215  1.2413
  809MOL0     C 6690   4.701   6.745   6.737 -0.2844  1.1509 -0.9744
  809MOL0     O 6691   4.785   6.660   6.806 -0.7118  0.4205  0.1657
  809MOL0     C 6692   4.784   6.649   6.948 -0.9020  0.3279 -0.3249
  809MOL0     C 6693   4.816   6.494   6.975  0.3210 -0.4549 -0.2241
  809MOL0     C 6694   4.687   6.409   6.962 -1.2010  0.4406 -0.0936
  809MOL0     C 6695   4.605   6.404   7.102  0.4189 -0.7389 -0.5331
  809MOL0     C 6696   4.519   6.282   7.134  0.0342 -0.0669 -0.1957
  809MOL0     C 6697   4.414   6.243   7.022 -0.2352 -0.3088  0.3404
  809MOL0     C 6698   4.318   6.138   7.076 -0.1296 -0.0329 -0.6561
  809MOL0     C 6699   4.203   6.089   6.989 -0.4321 -0.0214  0.1558
  809MOL0    Cl 6700   4.086   6.215   6.987  0.4649  0.0460 -0.0472
  809MOL0     C 6701   4.567   6.735   6.757  1.1435  0.5155  0.1404
  809MOL0     C 6702   4.479   6.823   6.695  0.8692 -0.8600 -0.3146
  809MOL0     O 6703   4.395   6.865   6.376  0.5908 -0.2104  0.1642
  809MOL0     C 6704   4.210   7.025   6.251  0.1036 -1.5321  0.8113
  809MOL0     C 6705   4.117   7.111   6.188 -0.5695 -0.5339 -0.2075
  809MOL0     N 6706   3.854   7.452   5.551  0.0460 -0.0407  0.1901
  809MOL0     N 6707   3.861   7.408   5.426  0.5364 -0.4380 -0.2431
  809MOL0     C 6708   3.054   6.939   5.583  0.3339  0.0424  0.0382
  809MOL0     C 6709   2.955   7.008   5.653  0.4556 -1.1138 -0.0325
  809MOL0     C 6710   2.571   7.178   5.801  0.1284  0.9692  0.1607
  809MOL0     C 6711   2.567   7.314   5.790  0.6826  0.4993 -0.1826
  809MOL0     C 6712   2.457   7.388   5.857 -0.4160  0.2412 -0.6339
  809MOL0     C 6713   2.359   7.336   5.939  0.3447  0.3365  0.0535
  809MOL0     O 6714   2.261   7.397   6.007  0.3733 -1.2300  0.4103
  809MOL0     C 6715   2.221   7.532   5.957 -0.4626  0.9760  0.6084
  809MOL0     C 6716   2.109   7.585   6.042  0.3491 -0.8411 -1.0064
  809MOL0     C 6717   1.974   7.503   6.035  0.0415  0.8275  0.1247
  809MOL0     C 6718   1.850   7.588   6.068 -0.7672  0.8767  0.8572
  809MOL0     C 6719   1.862   7.653   6.197  0.0401  0.4285 -0.0253
  809MOL0     C 6720   1.887   7.705   6.305 -0.5416  0.6052 -0.5600
  809MOL0     C 6721   2.363   7.196   5.948  0.0455  0.0269 -0.2183
  809MOL0     C 6722   2.467   7.115   5.875  1.1887 -0.8035 -0.0788
  809MOL0     H 6723   2.789   7.170   5.409 -1.8418 -1.0590 -0.0008
  809MOL0     H 6724   2.954   7.059   5.276 -0.0395  0.4369  0.0353
  809MOL0     H 6725   3.138   6.987   5.197  1.5342  1.9885 -2.2638
  809MOL0     H 6726   3.277   6.877   5.199 -1.9457 -0.7961 -0.8879
  809MOL0     H 6727   3.283   7.144   5.347  1.3943 -0.8427  2.7003
  809MOL0     H 6728   3.359   7.101   5.191 -1.7081 -0.1490 -0.7323
  809MOL0     H 6729   3.526   6.953   5.311  4.8561  2.7940  2.0115
  809MOL0     H 6730   3.432   6.950   5.444  2.4912  0.6497  0.1356
  809MOL0     H 6731   3.456   7.207   5.465 -0.9455 -0.1950  0.5631
  809MOL0     H 6732   3.613   7.115   5.471  0.0656  0.2445  1.0662
  809MOL0     H 6733   3.624   7.318   5.355 -0.8888  0.2632  2.4866
  809MOL0     H 6734   3.484   7.277   5.256 -0.6800 -0.8474  1.2361
  809MOL0     H 6735   3.710   7.248   5.126  1.3658  1.2965  0.2559
  809MOL0     H 6736   3.611   7.106   5.128  0.7583 -1.3356 -0.6020
  809MOL0     H 6737   3.775   7.034   5.338 -1.2974  2.4208  1.7583
  809MOL0     H 6738   3.837   7.030   5.187 -1.4650 -1.2811  1.0739
  809MOL0     H 6739   3.932   7.264   5.214  0.1932 -0.4976  0.9233
  809MOL0     H 6740   4.009   7.158   5.312 -0.3030  1.5139  0.2498
  809MOL0     H 6741   3.886   7.122   5.580 -2.5676  0.2769  2.5201
  809MOL0     H 6742   3.967   7.270   5.802  1.3112  0.0740 -2.2287
  809MOL0     H 6743   3.789   7.252   5.821 -1.7684  2.1519  0.8067
  809MOL0     H 6744   3.764   7.493   5.850  1.0928 -0.7252 -3.3644
  809MOL0     H 6745   3.935   7.514   5.833 -1.6073  1.5890 -1.2196
  809MOL0     H 6746   3.860   7.519   6.080 -0.2056  0.8147  0.8391
  809MOL0     H 6747   3.784   7.361   6.050  1.2558 -1.0791  0.4909
  809MOL0     H 6748   4.080   7.394   6.037 -0.1408  0.1062  0.2138
  809MOL0     H 6749   3.975   7.246   6.043  1.1816 -1.7256  2.5246
  809MOL0     H 6750   4.129   7.349   6.442  1.4609 -2.3026  2.0998
  809MOL0     H 6751   4.287   7.197   6.530  1.6177 -6.1100  1.0916
  809MOL0     H 6752   4.689   6.997   6.499 -1.9219 -1.9049 -1.2054
  809MOL0     H 6753   4.849   6.844   6.632 -1.4467  0.1781 -2.7368
  809MOL0     H 6754   4.690   6.661   7.003 -0.3594  2.6805  0.2229
  809MOL0     H 6755   4.850   6.724   6.993 -1.5723  1.6701 -1.5212
  809MOL0     H 6756   4.856   6.491   7.077  0.9367  0.1343 -0.4468
  809MOL0     H 6757   4.893   6.459   6.906 -1.8319 -3.1838 -1.4696
  809MOL0     H 6758   4.720   6.310   6.930 -1.0893  1.0236 -1.8973
  809MOL0     H 6759   4.634   6.451   6.877 -1.0913 -0.3003 -0.5338
  809MOL0     H 6760   4.678   6.418   7.183  0.6411  0.7036 -0.9434
  809MOL0     H 6761   4.549   6.498   7.106  3.5539  1.2598 -0.4540
  809MOL0     H 6762   4.469   6.299   7.230 -2.4496 -0.2322 -1.3774
  809MOL0     H 6763   4.582   6.194   7.143  1.4190  0.9303  0.1390
  809MOL0     H 6764   4.464   6.194   6.938 -1.1395  2.0422 -1.7087
  809MOL0     H 6765   4.360   6.333   6.992  1.6816  0.4450 -1.0672
  809MOL0     H 6766   4.379   6.049   7.095 -0.3729 -0.2455 -0.8619
  809MOL0     H 6767   4.267   6.185   7.161  0.3512  0.5752 -0.6945
  809MOL0     H 6768   4.170   6.010   7.056  1.2921  0.2265  1.3585
  809MOL0     H 6769   4.226   6.040   6.894  1.4174 -0.7604  0.9367
  809MOL0     H 6770   4.529   6.662   6.829 -1.1881 -1.4659 -2.8508
  809MOL0     H 6771   4.372   6.821   6.717  0.1508  0.2853 -3.2896
  809MOL0     H 6772   4.225   6.933   6.195  2.0905  0.8224 -2.8684
  809MOL0     H 6773   4.074   7.089   6.090 -2.6393  0.6971  0.3656
  809MOL0     H 6774   3.127   6.891   5.647  0.0238 -1.0500 -0.4115
  809MOL0     H 6775   2.951   6.997   5.761 -0.3619 -0.9429 -0.0352
  809MOL0     H 6776   2.635   7.373   5.729 -2.1105  1.6885 -2.3375
  809MOL0     H 6777   2.468   7.496   5.849 -3.6088  0.5520 -2.6333
  809MOL0     H 6778   2.203   7.525   5.849 -2.3229 -1.0061  0.9669
  809MOL0     H 6779   2.304   7.601   5.974 -0.1286  0.4642  1.1042
  809MOL0     H 6780   2.135   7.597   6.147 -1.1685  2.0225 -0.8603
  809MOL0     H 6781   2.093   7.691   6.019 -2.2661 -0.3667  2.2720
  809MOL0     H 6782   1.966   7.429   6.116 -0.4741  2.0749  1.2538
  809MOL0     H 6783   1.957   7.460   5.936  1.2834  1.7054 -0.4904
  809MOL0     H 6784   1.833   7.669   5.996  0.1312  0.4321  0.1190
  809MOL0     H 6785   1.766   7.519   6.059 -1.5359  1.9754 -0.9007
  809MOL0     H 6786   1.908   7.742   6.403  2.3619 -1.0732 -0.4292
  809MOL0     H 6787   2.281   7.152   6.004  0.8237 -0.2913  0.6904
  809MOL0     H 6788   2.461   7.007   5.884 -0.2004 -0.6326  1.7455
  810MOL0     O 6789   8.033   9.214   5.443  0.1370  0.0746  0.6907
  810MOL0     C 6790   8.136   9.278   5.433 -0.9827  0.7326 -0.5707
  810MOL0     O 6791   8.174   9.350   5.333  0.5253 -1.0756  0.1592
  810MOL0     C 6792   8.074   9.390   5.248  0.6850  0.1979  0.2035
  810MOL0     C 6793   8.052   9.526   5.229  0.5324  0.0844  0.0528
  810MOL0     C 6794   7.957   9.573   5.134  0.1566 -1.1124  0.4702
  810MOL0     C 6795   7.895   9.478   5.042  0.0571 -0.0748 -0.9608
  810MOL0     O 6796   7.795   9.520   4.961  0.1405 -0.4272  0.0465
  810MOL0     C 6797   7.754   9.446   4.846  0.2100 -0.8062 -0.2818
  810MOL0     C 6798   7.632   9.513   4.772 -0.2545  0.5426 -0.0767
  810MOL0     C 6799   7.670   9.658   4.720  0.4336  0.6562 -0.3666
  810MOL0     C 6800   7.531   9.734   4.707 -0.6799  0.9825  0.0341
  810MOL0     C 6801   7.546   9.885   4.687  0.2089 -0.6560  0.0649
  810MOL0     C 6802   7.411   9.955   4.679  0.0177  0.2355 -0.4318
  810MOL0     C 6803   7.429  10.106   4.656 -0.4628  0.6230 -0.3436
  810MOL0     C 6804   7.294  10.173   4.634 -0.6276  0.0582  0.2037
  810MOL0     N 6805   7.253  10.249   4.749 -1.3991 -0.7714  0.6951
  810MOL0     C 6806   7.315  10.368   4.773  0.0403 -0.7411  0.3401
  810MOL0     C 6807   7.276  10.385   4.905  0.2809  0.1650 -0.3070
  810MOL0     C 6808   7.296  10.507   4.981 -0.2252  0.0841 -0.4915
  810MOL0     C 6809   7.200  10.620   4.953 -0.1166  0.3063  0.8645
  810MOL0     C 6810   7.054  10.578   4.996 -0.4134 -0.2007  0.5336
  810MOL0     C 6811   7.014  10.588   5.150  0.3909 -0.7075  1.1885
  810MOL0     O 6812   6.888  10.525   5.166 -0.5533 -0.2566  0.7099
  810MOL0     C 6813   6.768  10.586   5.162  1.0565  0.2158  0.4924
  810MOL0     C 6814   6.763  10.722   5.113 -0.0497 -0.1226 -0.9247
  810MOL0     C 6815   6.628  10.762   5.117 -0.5181 -0.3290 -0.2601
  810MOL0     C 6816   6.523  10.690   5.175  0.2947  0.7866  1.0408
  810MOL0     C 6817   6.385  10.731   5.178  0.2572  0.3550 -0.0267
  810MOL0     O 6818   6.318  10.695   5.285 -0.1769 -0.0920 -0.2805
  810MOL0     C 6819   6.180  10.714   5.298  0.0421 -0.9236 -0.5406
  810MOL0     C 6820   6.147  10.723   5.438  0.7082 -0.2295  0.8566
  810MOL0     C 6821   6.009  10.714   5.470 -0.1399 -0.7502 -0.0494
  810MOL0     C 6822   5.904  10.729   5.382  0.4024 -1.2452  0.3602
  810MOL0     O 6823   5.779  10.756   5.433  0.3130 -0.0724  0.2446
  810MOL0     C 6824   5.674  10.658   5.409 -0.5724  0.1943 -0.1024
  810MOL0     C 6825   5.714  10.515   5.445 -0.9862  0.5955 -0.0243
  810MOL0     C 6826   5.606  10.424   5.510  0.5714 -0.2863 -0.5792
  810MOL0     C 6827   5.662  10.289   5.553 -0.4834  0.2193  0.5141
  810MOL0     C 6828   5.559  10.209   5.638 -0.5857  0.0816  0.6501
  810MOL0     C 6829   5.433  10.164   5.548  0.3867 -0.3286 -0.3304
  810MOL0     C 6830   5.346  10.053   5.620 -0.5571 -0.7831 -0.0872
  810MOL0     C 6831   5.263  10.105   5.738 -0.1070 -0.8397 -0.1893
  810MOL0    Cl 6832   5.138  10.217   5.705  0.2462  0.0681 -0.1394
  810MOL0     C 6833   5.937  10.742   5.245  0.0697 -1.0579  0.3310
  810MOL0     C 6834   6.073  10.729   5.209  0.2045 -0.1613  0.4266
  810MOL0     O 6835   6.342  10.800   5.090 -0.2460 -0.3079  1.0595
  810MOL0     C 6836   6.541  10.561   5.214  0.0583  0.8146 -0.4951
  810MOL0     C 6837   6.671  10.509   5.216 -0.0427 -0.8823  0.4638
  810MOL0     N 6838   7.211  10.282   4.956 -0.5913 -0.1782 -0.4908
  810MOL0     N 6839   7.190  10.200   4.857 -0.5860 -0.3015  0.2388
  810MOL0     C 6840   7.925   9.346   5.063  0.2495 -0.3935  0.5864
  810MOL0     C 6841   8.007   9.302   5.163 -0.2576  0.6325  0.1009
  810MOL0     C 6842   8.229   9.250   5.545  0.0116 -0.1398 -0.0827
  810MOL0     C 6843   8.222   9.133   5.627  0.1832  0.1600  0.8706
  810MOL0     C 6844   8.325   9.120   5.721 -0.1059 -0.1290 -0.6554
  810MOL0     C 6845   8.427   9.215   5.737  0.3178 -0.2665  0.1143
  810MOL0     O 6846   8.531   9.201   5.826  0.1948 -0.0164 -0.5165
  810MOL0     C 6847   8.512   9.132   5.954  0.0207 -0.3626 -1.0634
  810MOL0     C 6848   8.614   9.160   6.056  0.6314  0.6209  0.1753
  810MOL0     C 6849   8.726   9.061   6.052 -0.4945  0.0361 -0.7367
  810MOL0     C 6850   8.857   9.115   6.111 -0.2298 -0.2759 -0.6461
  810MOL0     C 6851   8.902   9.232   6.035 -1.4735 -0.9207  0.6202
  810MOL0     C 6852   8.946   9.329   5.974 -0.5177 -0.4563  0.4109
  810MOL0     C 6853   8.431   9.328   5.663  0.9647 -1.1392  0.3768
  810MOL0     C 6854   8.329   9.342   5.565  0.2300 -0.1005 -0.6467
  810MOL0     H 6855   8.099   9.604   5.288 -0.3095  1.9694 -1.6317
  810MOL0     H 6856   7.931   9.678   5.131  0.2698 -1.1026 -0.4904
  810MOL0     H 6857   7.723   9.344   4.874 -0.9642 -0.7188 -1.1840
  810MOL0     H 6858   7.839   9.449   4.777 -0.9152 -0.1141 -1.6938
  810MOL0     H 6859   7.553   9.517   4.849 -1.4935  2.0416 -1.3707
  810MOL0     H 6860   7.596   9.451   4.690  0.1050  0.1408  0.0653
  810MOL0     H 6861   7.711   9.658   4.618  0.8667  3.5923 -0.2575
  810MOL0     H 6862   7.740   9.718   4.778  1.1953  1.5950 -2.1721
  810MOL0     H 6863   7.472   9.676   4.636 -2.6508  1.2044  1.4062
  810MOL0     H 6864   7.487   9.721   4.806 -0.1598 -1.5558 -0.0012
  810MOL0     H 6865   7.609   9.903   4.599  0.4989 -1.4390  0.1032
  810MOL0     H 6866   7.605   9.921   4.771  1.0679 -2.4252  0.2617
  810MOL0     H 6867   7.349   9.942   4.768  0.6661 -1.0568 -0.1358
  810MOL0     H 6868   7.371   9.901   4.592 -0.9084 -3.1977  1.8958
  810MOL0     H 6869   7.483  10.145   4.743  1.9058  1.0839 -1.9236
  810MOL0     H 6870   7.492  10.123   4.569  1.6158  2.6725  1.4183
  810MOL0     H 6871   7.213  10.100   4.623 -2.0256  1.8430 -2.4971
  810MOL0     H 6872   7.288  10.239   4.547  1.6140  1.3105  0.9276
  810MOL0     H 6873   7.369  10.430   4.703 -0.4224  0.6441  1.1822
  810MOL0     H 6874   7.395  10.552   4.968  0.7090 -1.0481  2.0478
  810MOL0     H 6875   7.298  10.476   5.086  0.5644  1.1873 -0.1649
  810MOL0     H 6876   7.204  10.633   4.845 -1.3763  2.3538  1.0080
  810MOL0     H 6877   7.238  10.714   4.995 -1.4024  1.1435  0.2125
  810MOL0     H 6878   6.983  10.643   4.944  1.6411 -0.6358 -3.1564
  810MOL0     H 6879   7.039  10.476   4.959  1.4871  0.3807 -2.1350
  810MOL0     H 6880   7.012  10.685   5.201  1.8901 -1.0147  1.8823
  810MOL0     H 6881   7.080  10.524   5.210  0.5384 -4.5234 -2.5888
  810MOL0     H 6882   6.847  10.784   5.084 -0.1983 -0.0280 -1.1512
  810MOL0     H 6883   6.612  10.863   5.080 -1.2919 -0.1611  0.5081
  810MOL0     H 6884   6.232  10.725   5.505  2.6550  0.0856 -1.4867
  810MOL0     H 6885   5.976  10.717   5.573 -1.0100  1.2130 -0.3369
  810MOL0     H 6886   5.654  10.654   5.302 -2.9011 -0.5142  0.3134
  810MOL0     H 6887   5.577  10.687   5.450 -1.2752 -2.9680  0.7391
  810MOL0     H 6888   5.794  10.524   5.519  0.9225  0.9878 -2.0305
  810MOL0     H 6889   5.758  10.464   5.359  2.0961  0.7562  1.3565
  810MOL0     H 6890   5.517  10.414   5.448  0.8511 -1.4307 -0.8073
  810MOL0     H 6891   5.586  10.471   5.607  1.8369 -1.7746  0.4463
  810MOL0     H 6892   5.694  10.222   5.473 -1.7067 -0.0673  0.2443
  810MOL0     H 6893   5.751  10.298   5.616 -0.3281  2.1567  0.0777
  810MOL0     H 6894   5.522  10.275   5.718  1.4782 -0.4381  2.1186
  810MOL0     H 6895   5.611  10.124   5.682  1.8097  1.1522  0.0505
  810MOL0     H 6896   5.478  10.128   5.455  0.9717  0.2303 -0.2726
  810MOL0     H 6897   5.379  10.256   5.523 -2.5401 -2.2456 -1.5472
  810MOL0     H 6898   5.281  10.003   5.547  2.0574 -2.1030 -1.6647
  810MOL0     H 6899   5.410   9.969   5.650  3.5411  2.2294  0.4290
  810MOL0     H 6900   5.332  10.158   5.805  0.0539  0.2586 -1.1908
  810MOL0     H 6901   5.209  10.026   5.792 -2.4864 -0.2134 -1.4934
  810MOL0     H 6902   5.850  10.752   5.180 -0.0691  1.6271  0.7891
  810MOL0     H 6903   6.088  10.726   5.102  1.2550 -0.3376  0.5700
  810MOL0     H 6904   6.466  10.494   5.255  3.6350 -2.5966  1.1079
  810MOL0     H 6905   6.706  10.412   5.249  0.4016 -0.0696  2.5449
  810MOL0     H 6906   7.881   9.266   5.004  1.6083 -1.6504  1.2049
  810MOL0     H 6907   8.004   9.194   5.166 -1.9867  0.5292 -2.1057
  810MOL0     H 6908   8.144   9.058   5.616  0.9038 -0.3095 -1.5265
  810MOL0     H 6909   8.318   9.024   5.770  0.0170  0.0702 -0.2413
  810MOL0     H 6910   8.516   9.023   5.943  1.5891 -0.6802  1.7114
  810MOL0     H 6911   8.419   9.159   6.005  1.8840 -0.3465  2.6694
  810MOL0     H 6912   8.632   9.267   6.049 -3.5587  1.9087  3.9506
  810MOL0     H 6913   8.581   9.149   6.160  3.8643 -2.8490  1.0758
  810MOL0     H 6914   8.742   9.027   5.950  0.3756 -3.5677  0.4633
  810MOL0     H 6915   8.699   8.969   6.105 -0.4990 -0.0393 -0.8708
  810MOL0     H 6916   8.847   9.154   6.212  2.2887 -1.0531 -0.0345
  810MOL0     H 6917   8.925   9.029   6.107  1.5718  1.1215 -1.0884
  810MOL0     H 6918   8.990   9.420   5.939  1.0438 -2.4369 -3.3197
  810MOL0     H 6919   8.493   9.417   5.666 -0.1593 -0.3253  0.2428
  810MOL0     H 6920   8.322   9.430   5.502 -2.6406 -0.6466 -1.2184
  811MOL0     O 6921   1.905   1.732   2.509 -0.1919  0.1211 -0.7417
  811MOL0     C 6922   2.008   1.772   2.452 -0.2702  0.2054  0.0324
  811MOL0     O 6923   2.005   1.846   2.332  0.3549 -0.0969  0.8019
  811MOL0     C 6924   1.885   1.872   2.278  0.4238 -0.7685 -0.1082
  811MOL0     C 6925   1.786   1.778   2.242 -1.1497  0.0145 -1.0554
  811MOL0     C 6926   1.666   1.817   2.178 -0.4628 -0.5141  0.3463
  811MOL0     C 6927   1.640   1.954   2.143  0.7249 -0.5011 -0.7097
  811MOL0     O 6928   1.521   2.013   2.098  0.0148  0.0613 -0.1517
  811MOL0     C 6929   1.490   2.150   2.119  0.1136 -0.8066  0.1540
  811MOL0     C 6930   1.344   2.171   2.096  0.5479 -0.5324 -0.0653
  811MOL0     C 6931   1.256   2.092   2.195  1.4671 -0.0976 -0.2565
  811MOL0     C 6932   1.098   2.114   2.166 -0.1645  0.0822  0.3953
  811MOL0     C 6933   1.033   2.174   2.276  0.7767  0.0060  0.2396
  811MOL0     C 6934   0.987   2.067   2.378 -0.7816  0.1838 -0.0019
  811MOL0     C 6935   0.860   2.004   2.359  0.4291 -0.4122 -0.2266
  811MOL0     C 6936   0.760   2.027   2.474  0.4193  0.9388  0.0669
  811MOL0     N 6937   0.807   1.971   2.605 -0.6808 -0.5531  0.4241
  811MOL0     C 6938   0.836   1.836   2.632 -1.0414 -0.3968 -0.9608
  811MOL0     C 6939   0.828   1.826   2.771 -0.8383  0.0589  0.1268
  811MOL0     C 6940   0.857   1.695   2.844 -0.3866  0.5551 -1.0695
  811MOL0     C 6941   1.000   1.648   2.812 -0.1754  1.0281 -0.3376
  811MOL0     C 6942   1.016   1.497   2.845  1.0283  0.5504 -0.9119
  811MOL0     C 6943   1.155   1.435   2.826  0.2642 -0.7473  0.5167
  811MOL0     O 6944   1.151   1.312   2.898 -0.1289 -0.9085 -0.8793
  811MOL0     C 6945   1.228   1.207   2.857  0.2635  0.1787 -0.4729
  811MOL0     C 6946   1.188   1.075   2.893 -0.0622 -0.6568 -0.5092
  811MOL0     C 6947   1.264   0.972   2.843  0.3493  0.2938 -0.0309
  811MOL0     C 6948   1.371   0.987   2.757  0.2557 -0.8024 -0.7899
  811MOL0     C 6949   1.451   0.881   2.696  0.6047 -0.0166 -0.0768
  811MOL0     O 6950   1.486   0.773   2.774 -0.2179  0.1414 -0.0437
  811MOL0     C 6951   1.552   0.670   2.721  0.4930 -0.9221  0.1306
  811MOL0     C 6952   1.524   0.609   2.593 -0.8399  0.2543  0.4496
  811MOL0     C 6953   1.606   0.496   2.557  0.1603 -0.1093 -0.2032
  811MOL0     C 6954   1.696   0.442   2.642 -0.0223 -0.3148  0.1214
  811MOL0     O 6955   1.752   0.318   2.598  0.3378  0.1245  0.3139
  811MOL0     C 6956   1.809   0.238   2.701 -0.2896  0.5144 -0.0444
  811MOL0     C 6957   1.899   0.132   2.632 -0.1588  0.4211 -0.2990
  811MOL0     C 6958   1.970   0.026   2.726  0.1193  1.3472  0.8871
  811MOL0     C 6959   1.876  -0.068   2.798  0.6049  0.0180  0.6990
  811MOL0     C 6960   1.928  -0.195   2.861 -0.8464 -0.0920  0.4295
  811MOL0     C 6961   1.993  -0.175   3.003 -0.3748  0.2368 -0.3149
  811MOL0     C 6962   2.017  -0.312   3.066  0.7312  0.0856 -0.5705
  811MOL0     C 6963   2.072  -0.302   3.196  0.6469 -0.2986 -0.3209
  811MOL0    Cl 6964   1.992  -0.405   3.328  0.2114 -0.3597  0.0836
  811MOL0     C 6965   1.725   0.499   2.767 -0.4136  0.7336 -0.1157
  811MOL0     C 6966   1.664   0.621   2.796 -0.4276 -0.2868  0.6146
  811MOL0     O 6967   1.484   0.898   2.582  0.1935  0.6588 -0.3364
  811MOL0     C 6968   1.412   1.115   2.718 -0.1457 -0.1620  0.4868
  811MOL0     C 6969   1.348   1.224   2.770  0.4614  0.4282 -0.7193
  811MOL0     N 6970   0.801   1.951   2.827  0.1697  0.3050  1.0045
  811MOL0     N 6971   0.782   2.029   2.725  1.3203  0.3368 -0.1518
  811MOL0     C 6972   1.743   2.041   2.179 -0.1781 -0.3787 -0.3830
  811MOL0     C 6973   1.861   2.009   2.242 -0.3443  0.0630  0.5379
  811MOL0     C 6974   2.138   1.760   2.525  0.4026  0.2923 -0.6549
  811MOL0     C 6975   2.236   1.855   2.510 -0.5938 -0.2891 -0.7377
  811MOL0     C 6976   2.356   1.866   2.583  0.1706 -0.7811 -0.2814
  811MOL0     C 6977   2.386   1.769   2.666  0.2571  0.3693  0.0324
  811MOL0     O 6978   2.511   1.779   2.723  0.2016 -0.5029  0.0998
  811MOL0     C 6979   2.563   1.678   2.800 -0.2042  0.8072 -0.4384
  811MOL0     C 6980   2.690   1.736   2.875  0.7443  0.3185  0.5575
  811MOL0     C 6981   2.637   1.788   3.000  0.1185  0.1576  0.3198
  811MOL0     C 6982   2.741   1.844   3.089 -0.4842  0.6411 -0.3202
  811MOL0     C 6983   2.805   1.740   3.167 -0.1980 -0.1800 -0.4378
  811MOL0     C 6984   2.840   1.656   3.253 -0.3658 -0.0230 -0.0985
  811MOL0     C 6985   2.288   1.669   2.692 -0.3182 -0.3669  0.3270
  811MOL0     C 6986   2.162   1.668   2.628  0.4099 -0.2363 -0.0555
  811MOL0     H 6987   1.798   1.673   2.269  1.2024  0.7920  1.3055
  811MOL0     H 6988   1.587   1.745   2.157 -0.2931 -0.8189  0.7487
  811MOL0     H 6989   1.542   2.227   2.061 -1.2200 -0.2932 -0.3920
  811MOL0     H 6990   1.509   2.168   2.225  1.2596  1.9687 -0.4467
  811MOL0     H 6991   1.325   2.150   1.990  0.9916  0.8624 -0.4316
  811MOL0     H 6992   1.318   2.277   2.100 -0.4017 -0.7732  2.9583
  811MOL0     H 6993   1.294   2.132   2.290  1.3647 -2.4343  0.8379
  811MOL0     H 6994   1.274   1.985   2.191 -2.7737 -1.1626  2.5258
  811MOL0     H 6995   1.089   2.194   2.093  1.4311 -0.4152 -0.3881
  811MOL0     H 6996   1.046   2.023   2.133 -2.3942  1.2132  0.6219
  811MOL0     H 6997   0.942   2.220   2.237  0.6426  1.6087  2.2932
  811MOL0     H 6998   1.091   2.254   2.323  2.6334 -0.0799 -1.7666
  811MOL0     H 6999   0.979   2.124   2.471 -2.4847  1.9155 -1.1254
  811MOL0     H 7000   1.056   1.982   2.388 -2.0340 -0.8342  0.3349
  811MOL0     H 7001   0.820   2.029   2.260  2.0424 -1.3100 -1.1478
  811MOL0     H 7002   0.876   1.896   2.353  0.0122 -0.4556 -0.5482
  811MOL0     H 7003   0.668   1.974   2.450  1.6942 -2.0322  1.2587
  811MOL0     H 7004   0.747   2.136   2.474  0.5883  1.0114 -2.4241
  811MOL0     H 7005   0.837   1.753   2.563  0.5660  1.5200 -3.4308
  811MOL0     H 7006   0.783   1.622   2.811 -1.8621  0.0214  2.9348
  811MOL0     H 7007   0.834   1.708   2.950 -1.0173  0.1648 -1.1533
  811MOL0     H 7008   1.074   1.714   2.857  1.3745  0.3701 -1.8063
  811MOL0     H 7009   1.017   1.652   2.704  0.6663 -4.1629 -0.6426
  811MOL0     H 7010   0.991   1.484   2.951  1.4737 -0.8380 -0.9570
  811MOL0     H 7011   0.942   1.445   2.783 -2.3009  1.0278  2.3159
  811MOL0     H 7012   1.243   1.493   2.853  1.3771 -2.1364  0.0092
  811MOL0     H 7013   1.175   1.409   2.722 -1.3391 -1.5704  0.3672
  811MOL0     H 7014   1.099   1.057   2.953 -1.0219  1.4444 -1.1901
  811MOL0     H 7015   1.242   0.869   2.869 -1.2874  0.0978 -1.9518
  811MOL0     H 7016   1.452   0.655   2.525 -2.4246  1.3684  2.7323
  811MOL0     H 7017   1.592   0.453   2.458 -1.2619 -1.6291  0.6155
  811MOL0     H 7018   1.731   0.192   2.763 -0.2777  1.8088  0.9814
  811MOL0     H 7019   1.879   0.295   2.762 -2.2606  2.1901  0.7857
  811MOL0     H 7020   1.973   0.183   2.570  0.7882  0.9763  1.2158
  811MOL0     H 7021   1.830   0.066   2.578  0.2788  1.3647 -2.0956
  811MOL0     H 7022   2.042   0.068   2.797  0.8907  1.9431 -0.2201
  811MOL0     H 7023   2.033  -0.034   2.660  1.1188  1.3913  1.7596
  811MOL0     H 7024   1.840  -0.006   2.880  1.5726  0.3750  0.8627
  811MOL0     H 7025   1.799  -0.096   2.724  2.3551 -0.2022 -1.1179
  811MOL0     H 7026   1.999  -0.250   2.799 -1.5638 -3.0857  2.0507
  811MOL0     H 7027   1.843  -0.263   2.869 -1.9186  0.8153 -2.1116
  811MOL0     H 7028   1.923  -0.121   3.066 -0.3946  1.3371 -1.2545
  811MOL0     H 7029   2.092  -0.128   2.998 -0.7635  1.7083  3.2055
  811MOL0     H 7030   1.916  -0.338   3.098 -0.3504  1.5085 -2.6537
  811MOL0     H 7031   2.059  -0.391   3.002 -0.2306  0.3014 -1.5022
  811MOL0     H 7032   2.068  -0.196   3.222 -0.5325 -0.0563 -1.3865
  811MOL0     H 7033   2.181  -0.316   3.194  0.6994 -0.0044  0.1831
  811MOL0     H 7034   1.790   0.464   2.846 -0.3612  1.8885  0.3735
  811MOL0     H 7035   1.692   0.669   2.889 -0.1883 -0.8355  0.8305
  811MOL0     H 7036   1.480   1.134   2.636  0.8050 -0.3582  1.2155
  811MOL0     H 7037   1.389   1.323   2.752  1.0864  0.0111 -1.6639
  811MOL0     H 7038   1.743   2.149   2.170 -0.7141 -0.4637 -1.6776
  811MOL0     H 7039   1.939   2.077   2.275 -2.2235  2.4146  0.3859
  811MOL0     H 7040   2.210   1.932   2.438 -1.8402 -2.6851 -3.0516
  811MOL0     H 7041   2.423   1.950   2.565  0.0678 -0.3944  1.0433
  811MOL0     H 7042   2.599   1.599   2.733 -1.0408  0.2588 -0.2468
  811MOL0     H 7043   2.503   1.616   2.866  1.0682 -0.9010 -0.8085
  811MOL0     H 7044   2.749   1.651   2.910 -3.0224 -1.6043  2.8297
  811MOL0     H 7045   2.747   1.806   2.813  0.0666  0.8450  0.5190
  811MOL0     H 7046   2.586   1.714   3.063 -2.1643  2.3754  1.2778
  811MOL0     H 7047   2.567   1.871   2.982  0.9717  1.7867  3.6734
  811MOL0     H 7048   2.818   1.891   3.028  1.4007 -0.3668  1.1574
  811MOL0     H 7049   2.705   1.924   3.154  1.8812  1.5857 -0.0631
  811MOL0     H 7050   2.873   1.583   3.323 -1.4773 -0.6215 -0.1817
  811MOL0     H 7051   2.305   1.593   2.768  0.1955 -2.3594 -1.6537
  811MOL0     H 7052   2.084   1.594   2.645  1.6646 -1.3711  0.9886
  812MOL0     O 7053   9.957   9.708   8.683  0.8034 -0.2159 -0.2557
  812MOL0     C 7054   9.981   9.700   8.558 -0.7794 -0.0058 -0.3695
  812MOL0     O 7055  10.095   9.653   8.501  0.5317 -0.1105  0.0059
  812MOL0     C 7056  10.193   9.617   8.588 -0.3016  0.2153  0.4397
  812MOL0     C 7057  10.206   9.488   8.632  0.1044  0.2543 -0.6462
  812MOL0     C 7058  10.303   9.454   8.725 -0.4137 -0.0905  0.0157
  812MOL0     C 7059  10.395   9.550   8.768 -0.5021  0.0221  0.4928
  812MOL0     O 7060  10.490   9.530   8.858 -0.0097 -0.9264  0.1665
  812MOL0     C 7061  10.505   9.409   8.939 -0.6394 -0.3244  0.0318
  812MOL0     C 7062  10.640   9.427   9.014 -0.1906  0.8924  0.2177
  812MOL0     C 7063  10.711   9.296   9.034 -0.1855 -0.3196  0.5853
  812MOL0     C 7064  10.860   9.316   9.064  0.3715  0.7419 -0.0909
  812MOL0     C 7065  10.929   9.179   9.109  0.6965 -0.8645  0.2059
  812MOL0     C 7066  10.895   9.147   9.248 -0.1859 -0.4237 -0.5330
  812MOL0     C 7067  10.958   9.012   9.282  0.3675 -0.5251  1.6748
  812MOL0     C 7068  10.937   9.000   9.422  0.3941 -0.3977 -0.8713
  812MOL0     N 7069  11.056   9.056   9.500  0.4046  0.2719  0.0780
  812MOL0     C 7070  11.065   9.191   9.533  0.2755  0.9410 -0.3579
  812MOL0     C 7071  11.201   9.197   9.557  0.5152 -0.4236 -0.2492
  812MOL0     C 7072  11.279   9.319   9.581  0.4984 -0.4916 -0.2322
  812MOL0     C 7073  11.293   9.400   9.451 -0.3978  0.3233 -1.1880
  812MOL0     C 7074  11.359   9.325   9.333  0.1394  0.6110  0.1571
  812MOL0     C 7075  11.510   9.351   9.342  0.8711 -0.2795  0.2208
  812MOL0     O 7076  11.530   9.484   9.288 -1.0631  0.4169  0.2471
  812MOL0     C 7077  11.656   9.540   9.296 -0.7216  0.2656 -1.0765
  812MOL0     C 7078  11.694   9.674   9.284 -0.3624  0.7437 -0.5781
  812MOL0     C 7079  11.815   9.725   9.312 -0.5949 -0.9593  0.5869
  812MOL0     C 7080  11.928   9.634   9.334  1.2344 -1.0979 -0.6428
  812MOL0     C 7081  12.060   9.674   9.385  0.0947  0.4567 -0.6327
  812MOL0     O 7082  12.166   9.593   9.350  0.0024 -0.6612 -0.0973
  812MOL0     C 7083  12.288   9.644   9.393 -0.3817 -0.3543 -0.3070
  812MOL0     C 7084  12.365   9.736   9.326  0.4675  1.1989  0.6671
  812MOL0     C 7085  12.503   9.762   9.362 -0.0067  1.2583  0.1348
  812MOL0     C 7086  12.557   9.699   9.469  0.1126 -0.0647  0.5770
  812MOL0     O 7087  12.692   9.708   9.495  0.4845  0.1963 -0.2114
  812MOL0     C 7088  12.780   9.641   9.405  0.1152 -0.2660 -0.6715
  812MOL0     C 7089  12.923   9.620   9.468 -0.0513  0.4714 -0.2536
  812MOL0     C 7090  13.009   9.741   9.436  0.4874 -0.3908 -0.0966
  812MOL0     C 7091  13.138   9.736   9.526  0.4629 -0.8500  0.0065
  812MOL0     C 7092  13.238   9.853   9.502 -0.3390  0.6609  1.0244
  812MOL0     C 7093  13.204   9.985   9.552  1.0442  0.0520 -0.0996
  812MOL0     C 7094  13.203   9.992   9.701 -0.4661 -0.0749  0.6983
  812MOL0     C 7095  13.218  10.131   9.753 -0.2407 -0.2396  0.0799
  812MOL0    Cl 7096  13.088  10.243   9.725  0.6575 -0.3164  0.3744
  812MOL0     C 7097  12.475   9.617   9.549  0.1049 -0.4043 -0.5046
  812MOL0     C 7098  12.345   9.581   9.508  0.1457 -1.0985 -0.6553
  812MOL0     O 7099  12.072   9.788   9.439 -0.4101 -0.2072 -0.4032
  812MOL0     C 7100  11.897   9.496   9.340 -0.2984  0.6250  0.5003
  812MOL0     C 7101  11.768   9.452   9.330 -0.9369 -1.1275  0.7613
  812MOL0     N 7102  11.261   9.072   9.544 -0.4457 -0.4787  0.0071
  812MOL0     N 7103  11.180   8.993   9.491 -0.1703  0.6866 -0.8687
  812MOL0     C 7104  10.382   9.682   8.721  1.9793 -0.9482 -0.5907
  812MOL0     C 7105  10.293   9.707   8.621  0.8407  0.4694  0.4143
  812MOL0     C 7106   9.867   9.711   8.475  0.8405  0.3527 -0.2576
  812MOL0     C 7107   9.875   9.692   8.331  0.3033  0.7451 -0.0218
  812MOL0     C 7108   9.760   9.685   8.244  0.1017 -0.8680 -0.0340
  812MOL0     C 7109   9.636   9.718   8.295 -0.0680 -0.4112  0.4159
  812MOL0     O 7110   9.510   9.714   8.236  1.0813  1.1033  0.0204
  812MOL0     C 7111   9.512   9.627   8.120  0.1611 -0.3889 -0.1314
  812MOL0     C 7112   9.375   9.588   8.069 -0.9251  0.0621  0.1336
  812MOL0     C 7113   9.282   9.512   8.168  0.6151 -0.0865  0.3397
  812MOL0     C 7114   9.154   9.477   8.102 -0.7160  0.5911  0.2075
  812MOL0     C 7115   9.158   9.361   8.018  0.6082 -0.1850  0.5544
  812MOL0     C 7116   9.183   9.248   7.975  0.3193 -1.0081  0.2219
  812MOL0     C 7117   9.628   9.760   8.426  0.0400 -0.6015 -0.0997
  812MOL0     C 7118   9.738   9.751   8.516 -0.6411 -1.0119 -0.0096
  812MOL0     H 7119  10.143   9.402   8.611 -0.9490  0.9574 -0.4689
  812MOL0     H 7120  10.312   9.352   8.761 -1.5906 -1.4516 -3.1692
  812MOL0     H 7121  10.514   9.318   8.880 -0.2135  1.5471 -2.9970
  812MOL0     H 7122  10.419   9.408   9.007 -2.8083 -0.6955 -2.5737
  812MOL0     H 7123  10.637   9.486   9.106  2.7776  1.1778  0.2199
  812MOL0     H 7124  10.699   9.485   8.941  0.2361  0.0048 -0.1601
  812MOL0     H 7125  10.706   9.237   8.942  3.4924  0.4710 -0.2719
  812MOL0     H 7126  10.664   9.257   9.125  2.5995 -1.3786  1.6853
  812MOL0     H 7127  10.916   9.356   8.979  0.7345  0.7240  0.1407
  812MOL0     H 7128  10.883   9.393   9.137 -1.0123  2.3200 -1.2545
  812MOL0     H 7129  11.034   9.208   9.100  0.1279  0.8463 -1.9523
  812MOL0     H 7130  10.899   9.101   9.039  1.6740  1.8413 -3.5213
  812MOL0     H 7131  10.787   9.126   9.258 -0.3844  0.4324 -0.8401
  812MOL0     H 7132  10.943   9.223   9.309 -0.0171 -1.6541  0.9207
  812MOL0     H 7133  10.905   8.934   9.228 -2.5484  0.7345  2.5107
  812MOL0     H 7134  11.062   9.025   9.250 -0.1714  1.1516  0.4471
  812MOL0     H 7135  10.954   8.895   9.450  3.1002  0.7800  2.6570
  812MOL0     H 7136  10.841   9.036   9.460  0.0850 -0.0320 -1.9701
  812MOL0     H 7137  10.990   9.270   9.535 -0.6902  0.0690 -1.0508
  812MOL0     H 7138  11.385   9.300   9.598  0.6748  2.2785  2.7941
  812MOL0     H 7139  11.222   9.369   9.660 -1.9172 -0.1159 -2.0975
  812MOL0     H 7140  11.340   9.498   9.464  0.9566 -0.6222  2.3950
  812MOL0     H 7141  11.195   9.426   9.410 -0.7576 -1.0964 -1.2905
  812MOL0     H 7142  11.330   9.220   9.326  0.6660  0.2538  2.5323
  812MOL0     H 7143  11.328   9.374   9.241  2.0725  1.8923  0.1197
  812MOL0     H 7144  11.569   9.279   9.284  1.3945  0.2816  0.0526
  812MOL0     H 7145  11.546   9.356   9.445 -0.9732  3.3565  0.8409
  812MOL0     H 7146  11.611   9.732   9.245  1.9040  4.2988 -0.5917
  812MOL0     H 7147  11.842   9.827   9.285 -1.8053 -1.5471 -3.5215
  812MOL0     H 7148  12.327   9.771   9.230  1.0034  0.6099  0.2351
  812MOL0     H 7149  12.559   9.841   9.313  2.3904 -0.1797  0.4225
  812MOL0     H 7150  12.797   9.703   9.317 -2.3438  5.7026  2.5000
  812MOL0     H 7151  12.752   9.538   9.381  2.9205 -0.8508 -1.8059
  812MOL0     H 7152  12.967   9.532   9.422 -3.1047 -0.4274 -1.7226
  812MOL0     H 7153  12.898   9.602   9.573 -3.7259 -1.7202 -1.3267
  812MOL0     H 7154  12.945   9.826   9.458 -3.0633 -2.2143 -2.4844
  812MOL0     H 7155  13.038   9.734   9.331  0.5642  2.9796 -0.3821
  812MOL0     H 7156  13.110   9.746   9.631  0.5042  1.3403 -0.1358
  812MOL0     H 7157  13.201   9.648   9.519  0.1329 -1.1469  0.6910
  812MOL0     H 7158  13.245   9.854   9.393 -2.3753 -0.1309  0.8309
  812MOL0     H 7159  13.336   9.834   9.547 -1.0379 -0.8574  1.9915
  812MOL0     H 7160  13.101  10.010   9.522  0.3375 -1.8833  0.5804
  812MOL0     H 7161  13.275  10.052   9.503  1.1883  0.2772  0.4113
  812MOL0     H 7162  13.113   9.945   9.742 -0.0453 -3.5442 -1.8817
  812MOL0     H 7163  13.290   9.934   9.732 -1.0352 -3.8315 -3.5846
  812MOL0     H 7164  13.314  10.164   9.712 -0.5147  1.3704  0.6780
  812MOL0     H 7165  13.226  10.121   9.862 -3.1939 -3.0503  0.1833
  812MOL0     H 7166  12.502   9.588   9.650 -0.7001 -2.1102 -0.7474
  812MOL0     H 7167  12.293   9.514   9.577  0.4651  0.7447  1.4786
  812MOL0     H 7168  11.978   9.426   9.357  0.7856  1.6894 -0.0584
  812MOL0     H 7169  11.778   9.344   9.325  2.5513 -0.9595  1.5856
  812MOL0     H 7170  10.446   9.758   8.766  0.3032  0.2968 -0.2072
  812MOL0     H 7171  10.289   9.807   8.580 -1.2789  0.0933 -0.4342
  812MOL0     H 7172   9.968   9.670   8.280 -1.2562 -2.1373 -1.9105
  812MOL0     H 7173   9.760   9.645   8.143  0.3168  0.7449 -0.7119
  812MOL0     H 7174   9.563   9.534   8.146 -2.2648 -1.3279  1.6513
  812MOL0     H 7175   9.556   9.688   8.041 -0.4522 -2.2800 -2.0401
  812MOL0     H 7176   9.323   9.680   8.041  1.1019  1.8638  1.9939
  812MOL0     H 7177   9.398   9.514   7.992 -1.6079  1.7826 -1.7995
  812MOL0     H 7178   9.270   9.589   8.244 -0.7747  2.2280 -2.0650
  812MOL0     H 7179   9.329   9.425   8.216 -3.1570 -1.5260  1.7714
  812MOL0     H 7180   9.074   9.470   8.176  0.9767  1.5853  2.2420
  812MOL0     H 7181   9.133   9.557   8.031 -1.2577  1.5307  1.3841
  812MOL0     H 7182   9.202   9.150   7.935  0.3895  0.2545 -3.2440
  812MOL0     H 7183   9.535   9.796   8.468 -1.1356 -1.1111 -2.1321
  812MOL0     H 7184   9.716   9.775   8.619  1.7114  1.9884 -0.0589
  813MOL0     O 7185   1.355   6.070   9.339  1.5480 -0.0676 -0.5168
  813MOL0     C 7186   1.435   6.020   9.264 -1.5008 -0.1526 -0.8585
  813MOL0     O 7187   1.429   6.021   9.126 -0.1833  0.4068  0.0839
  813MOL0     C 7188   1.329   6.095   9.061  0.4402  0.0552 -0.6567
  813MOL0     C 7189   1.377   6.159   8.948  0.1954 -1.0734 -0.1822
  813MOL0     C 7190   1.285   6.237   8.871 -0.0077  0.7204  0.6320
  813MOL0     C 7191   1.148   6.249   8.903  0.1686 -0.5205  0.4525
  813MOL0     O 7192   1.051   6.317   8.833 -0.4117  0.2151  0.1309
  813MOL0     C 7193   1.076   6.342   8.688  0.0703 -0.1307 -0.1680
  813MOL0     C 7194   0.959   6.418   8.638 -0.3916 -0.4191 -0.1505
  813MOL0     C 7195   0.954   6.413   8.481  0.7485  0.1609  0.3611
  813MOL0     C 7196   0.817   6.468   8.436  0.0606 -0.4016  0.6323
  813MOL0     C 7197   0.797   6.615   8.470 -0.1425  0.5933  0.2411
  813MOL0     C 7198   0.665   6.655   8.413 -0.0265  0.0005 -0.1275
  813MOL0     C 7199   0.613   6.791   8.457  0.0587 -0.0661  0.0680
  813MOL0     C 7200   0.646   6.926   8.387  0.5617 -0.4007  0.2437
  813MOL0     N 7201   0.799   6.955   8.382 -0.3199 -0.0940  0.5690
  813MOL0     C 7202   0.896   6.926   8.470 -0.2179 -0.4327 -0.1680
  813MOL0     C 7203   1.012   6.970   8.420 -0.3560 -0.0711 -0.1785
  813MOL0     C 7204   1.149   6.952   8.484  0.6654 -0.6594  0.1643
  813MOL0     C 7205   1.191   6.808   8.453  0.1454  0.1340  0.2508
  813MOL0     C 7206   1.353   6.799   8.461  0.2750  0.4908 -0.2019
  813MOL0     C 7207   1.391   6.654   8.484 -0.6970  0.5844  0.0487
  813MOL0     O 7208   1.425   6.620   8.623  0.0228  0.1172 -0.6649
  813MOL0     C 7209   1.493   6.496   8.628  0.4275  1.2496  0.2945
  813MOL0     C 7210   1.549   6.466   8.746 -0.4232  0.7944 -0.3009
  813MOL0     C 7211   1.628   6.350   8.760 -0.6966  0.7291  0.2227
  813MOL0     C 7212   1.648   6.257   8.659 -0.9609 -0.7613  0.6878
  813MOL0     C 7213   1.725   6.126   8.682 -0.5965 -1.0006 -1.2842
  813MOL0     O 7214   1.748   6.091   8.814 -0.3617  0.5682  0.0478
  813MOL0     C 7215   1.786   5.958   8.838 -0.4447 -0.7074  0.2233
  813MOL0     C 7216   1.929   5.927   8.862  0.4150 -0.4424  0.1409
  813MOL0     C 7217   1.972   5.792   8.876  0.1710  0.2777  0.1031
  813MOL0     C 7218   1.877   5.683   8.861 -0.4634 -0.0212 -0.7823
  813MOL0     O 7219   1.915   5.550   8.862  0.4080  0.0200 -0.5992
  813MOL0     C 7220   1.893   5.477   8.741  0.7709  0.1047 -0.3511
  813MOL0     C 7221   2.020   5.396   8.711 -0.0809  0.0354 -0.2155
  813MOL0     C 7222   2.001   5.282   8.607  0.8488  0.2592  0.1298
  813MOL0     C 7223   2.115   5.175   8.596 -0.1469  0.0441 -0.8903
  813MOL0     C 7224   2.102   5.043   8.513  0.6351 -1.1692 -0.0713
  813MOL0     C 7225   1.952   4.986   8.531 -0.1989  0.2016 -0.2934
  813MOL0     C 7226   1.946   4.839   8.492 -0.6767  1.0201  0.6939
  813MOL0     C 7227   1.802   4.791   8.494 -0.3038  0.2444  0.1961
  813MOL0    Cl 7228   1.809   4.606   8.500  0.0796  0.6221  0.1755
  813MOL0     C 7229   1.743   5.718   8.848 -0.7156 -0.3915 -0.0024
  813MOL0     C 7230   1.700   5.851   8.830 -1.1249  0.2665  0.3759
  813MOL0     O 7231   1.749   6.059   8.587 -0.2445 -0.9098  0.1701
  813MOL0     C 7232   1.595   6.289   8.528 -0.1650 -0.2030 -0.2612
  813MOL0     C 7233   1.511   6.399   8.524 -0.2122  0.0322  0.8135
  813MOL0     N 7234   0.986   7.020   8.290  0.0958  0.4216 -1.4241
  813MOL0     N 7235   0.862   7.021   8.276 -0.2842 -0.5472  0.3273
  813MOL0     C 7236   1.110   6.199   9.021  0.8027  0.5123  0.0116
  813MOL0     C 7237   1.199   6.120   9.097 -0.7894  0.3294  0.0423
  813MOL0     C 7238   1.557   5.954   9.312 -0.1919  0.3035 -0.8295
  813MOL0     C 7239   1.655   5.903   9.227 -0.8118  0.1987 -0.0850
  813MOL0     C 7240   1.766   5.829   9.273 -0.4000  0.7584 -0.1018
  813MOL0     C 7241   1.770   5.783   9.397 -0.0021  0.2869 -0.2014
  813MOL0     O 7242   1.881   5.715   9.426  0.4509  0.1759  0.4157
  813MOL0     C 7243   1.891   5.650   9.555 -0.9373 -0.8788 -0.2093
  813MOL0     C 7244   1.958   5.735   9.675  0.6159 -0.7170 -0.2597
  813MOL0     C 7245   2.106   5.765   9.658  0.2712  0.2374 -0.1068
  813MOL0     C 7246   2.181   5.770   9.790 -0.8649  0.4517  0.4294
  813MOL0     C 7247   2.223   5.639   9.842  0.5085 -0.3876 -0.0700
  813MOL0     C 7248   2.238   5.532   9.901  0.5023  0.0776 -0.3576
  813MOL0     C 7249   1.672   5.827   9.488  0.6486  0.9341  0.4841
  813MOL0     C 7250   1.564   5.908   9.448  0.0638  0.1100  0.0265
  813MOL0     H 7251   1.481   6.148   8.920  0.6097  1.4627  0.1652
  813MOL0     H 7252   1.320   6.280   8.777 -0.4589 -0.9835 -0.3725
  813MOL0     H 7253   1.081   6.242   8.643  1.7595  0.5262 -1.5503
  813MOL0     H 7254   1.177   6.382   8.680  0.4464 -0.5582  1.9624
  813MOL0     H 7255   0.961   6.524   8.665 -1.8891 -0.4721  0.2097
  813MOL0     H 7256   0.868   6.375   8.680 -3.4274  2.6117 -3.0390
  813MOL0     H 7257   0.969   6.307   8.457  1.4538  0.1865  0.6680
  813MOL0     H 7258   1.037   6.464   8.432 -0.3242 -0.7407 -2.6050
  813MOL0     H 7259   0.824   6.458   8.327 -0.6215  0.3278  0.5103
  813MOL0     H 7260   0.735   6.402   8.467  0.3529 -1.6195 -1.0359
  813MOL0     H 7261   0.882   6.674   8.434  1.4655 -3.0839 -2.6541
  813MOL0     H 7262   0.788   6.629   8.578 -4.7905  2.0506 -0.1013
  813MOL0     H 7263   0.596   6.583   8.458 -0.7750 -0.0636 -1.3092
  813MOL0     H 7264   0.667   6.633   8.305  2.2360  0.5827 -0.2570
  813MOL0     H 7265   0.505   6.776   8.452  0.1501 -0.5207 -4.5981
  813MOL0     H 7266   0.641   6.798   8.563 -1.2775 -3.1477  0.7221
  813MOL0     H 7267   0.590   6.998   8.448 -0.5758 -1.1857  0.1613
  813MOL0     H 7268   0.615   6.931   8.282  3.1441  1.3888 -0.5240
  813MOL0     H 7269   0.863   6.879   8.563 -0.3841 -2.2479 -1.1033
  813MOL0     H 7270   1.136   6.976   8.590 -2.2348 -2.7709  0.4082
  813MOL0     H 7271   1.203   7.038   8.443  0.1019  0.7980  2.3266
  813MOL0     H 7272   1.164   6.771   8.353 -0.7394 -0.0858  0.5640
  813MOL0     H 7273   1.133   6.746   8.522 -0.1161 -0.7637 -0.7429
  813MOL0     H 7274   1.401   6.841   8.372 -0.4607 -1.7593 -1.7503
  813MOL0     H 7275   1.386   6.853   8.550 -0.5840 -1.3300  1.3016
  813MOL0     H 7276   1.473   6.643   8.412 -0.8978 -0.6718 -0.0120
  813MOL0     H 7277   1.318   6.582   8.446 -2.1325  2.3134 -0.6015
  813MOL0     H 7278   1.539   6.528   8.834  1.5174 -1.4058  1.6031
  813MOL0     H 7279   1.649   6.315   8.860 -3.8481 -2.8147 -0.1618
  813MOL0     H 7280   2.011   5.999   8.865 -0.0518  0.0736  1.5063
  813MOL0     H 7281   2.078   5.775   8.888  1.2784  1.0361 -5.5499
  813MOL0     H 7282   1.878   5.543   8.655  1.5948  1.2035  0.3059
  813MOL0     H 7283   1.804   5.415   8.756  1.8852 -1.4354  0.1588
  813MOL0     H 7284   2.043   5.353   8.809  1.9349  2.6130  0.5628
  813MOL0     H 7285   2.103   5.464   8.689  0.1801 -0.3586 -0.4466
  813MOL0     H 7286   1.970   5.331   8.514 -0.6571 -0.9381 -0.0289
  813MOL0     H 7287   1.914   5.230   8.648  1.1414  0.4086  0.9625
  813MOL0     H 7288   2.195   5.238   8.554 -1.7573  1.7211 -1.5743
  813MOL0     H 7289   2.145   5.152   8.698 -1.7197  4.8037  0.9497
  813MOL0     H 7290   2.174   4.965   8.542 -1.0377 -1.7842  2.7477
  813MOL0     H 7291   2.125   5.067   8.408 -1.7097 -0.4825 -0.4641
  813MOL0     H 7292   1.883   5.041   8.466  0.2314 -1.8305 -2.5931
  813MOL0     H 7293   1.915   4.989   8.634 -1.7765  1.6993 -0.8500
  813MOL0     H 7294   1.985   4.843   8.390  0.5761  0.0155  1.1048
  813MOL0     H 7295   2.008   4.783   8.563 -0.0155  1.5868  0.5740
  813MOL0     H 7296   1.754   4.816   8.399  2.4031 -2.6638 -2.1597
  813MOL0     H 7297   1.754   4.833   8.584 -1.2796 -1.1206  0.3406
  813MOL0     H 7298   1.671   5.639   8.830 -1.6045  0.8410 -2.4217
  813MOL0     H 7299   1.592   5.863   8.829 -1.0472  1.2961  1.2687
  813MOL0     H 7300   1.607   6.209   8.455  1.7174  0.5520 -0.8382
  813MOL0     H 7301   1.458   6.399   8.430 -0.3651 -0.6734  0.8950
  813MOL0     H 7302   1.006   6.221   9.042  0.4012 -1.1855  0.0209
  813MOL0     H 7303   1.158   6.085   9.191 -1.1584  3.3451  1.1145
  813MOL0     H 7304   1.638   5.911   9.120 -2.3296 -1.7848 -0.0518
  813MOL0     H 7305   1.827   5.781   9.197 -1.1489 -1.8826  0.8580
  813MOL0     H 7306   1.954   5.563   9.535  0.5124 -0.0743  0.6825
  813MOL0     H 7307   1.792   5.617   9.588 -0.6803  0.6004  2.3046
  813MOL0     H 7308   1.923   5.838   9.686  3.8801  0.3310  1.8093
  813MOL0     H 7309   1.939   5.671   9.762 -0.5902  0.2406  0.2123
  813MOL0     H 7310   2.120   5.861   9.607 -0.5104 -1.2666 -3.3996
  813MOL0     H 7311   2.150   5.684   9.600 -0.7684 -1.4897  1.4304
  813MOL0     H 7312   2.279   5.815   9.773 -1.1763  0.8884 -0.2320
  813MOL0     H 7313   2.133   5.828   9.870 -2.0150 -0.1083  0.1718
  813MOL0     H 7314   2.254   5.443   9.958  0.2530  0.0261 -0.3686
  813MOL0     H 7315   1.687   5.799   9.592  1.7315 -0.2319  0.0496
  813MOL0     H 7316   1.482   5.947   9.508  1.0415  2.1653  0.0984
  814MOL0     O 7317  11.007   5.975   1.040 -0.6701 -0.6393 -0.1093
  814MOL0     C 7318  10.978   5.908   0.948  0.2726  0.5704  1.0122
  814MOL0     O 7319  10.954   5.955   0.818 -0.2994  0.1805 -0.1231
  814MOL0     C 7320  10.952   6.092   0.802 -0.8044 -0.0545  0.8519
  814MOL0     C 7321  10.846   6.174   0.854 -0.3536  1.0500  0.4944
  814MOL0     C 7322  10.832   6.308   0.814 -0.2501  0.0293  0.8382
  814MOL0     C 7323  10.937   6.367   0.732  0.7802 -1.1571 -0.3120
  814MOL0     O 7324  10.946   6.495   0.700 -0.5049 -0.2141  0.1404
  814MOL0     C 7325  10.856   6.587   0.745 -0.5090 -0.4199  0.1554
  814MOL0     C 7326  10.902   6.738   0.723 -0.2344  0.7707  0.4732
  814MOL0     C 7327  11.003   6.768   0.826 -0.1281  0.6382 -0.3108
  814MOL0     C 7328  11.083   6.899   0.793 -0.6580 -0.3952 -1.3776
  814MOL0     C 7329  11.227   6.881   0.835 -0.2928 -0.3854 -0.7839
  814MOL0     C 7330  11.315   7.001   0.789  0.0749  0.3721 -0.4373
  814MOL0     C 7331  11.456   6.997   0.847  0.2424 -0.4526 -0.2814
  814MOL0     C 7332  11.515   7.136   0.873 -0.5625 -0.6288 -0.1892
  814MOL0     N 7333  11.434   7.211   0.973 -0.1220 -0.8204  0.3175
  814MOL0     C 7334  11.383   7.340   0.965  0.3600 -0.1336  0.7955
  814MOL0     C 7335  11.330   7.371   1.089 -0.0506 -0.0940  0.2072
  814MOL0     C 7336  11.240   7.486   1.102 -0.2666 -0.0332  0.2640
  814MOL0     C 7337  11.248   7.551   1.243  0.0599  0.9873 -0.2838
  814MOL0     C 7338  11.112   7.618   1.276 -1.2403  0.4832  1.0434
  814MOL0     C 7339  11.072   7.739   1.186  0.0273 -0.0246 -0.2239
  814MOL0     O 7340  10.955   7.793   1.250 -0.6432  0.0652  0.6008
  814MOL0     C 7341  10.892   7.893   1.178 -0.3740  1.4707  1.2670
  814MOL0     C 7342  10.953   7.999   1.112 -0.8566 -0.1893 -1.1561
  814MOL0     C 7343  10.883   8.097   1.052  0.1647 -0.3235  0.5088
  814MOL0     C 7344  10.744   8.078   1.049 -0.4420  0.1630 -0.1070
  814MOL0     C 7345  10.657   8.191   0.991 -0.5329 -0.9350 -0.4474
  814MOL0     O 7346  10.713   8.321   0.981 -0.0525  0.6947 -0.3043
  814MOL0     C 7347  10.627   8.420   0.963  0.3435 -0.4810 -1.1255
  814MOL0     C 7348  10.561   8.452   0.846 -1.0912 -0.0578 -0.2302
  814MOL0     C 7349  10.465   8.544   0.841 -0.6606 -0.6476  0.6967
  814MOL0     C 7350  10.425   8.626   0.949 -0.0139 -0.1049 -0.2230
  814MOL0     O 7351  10.337   8.729   0.936  0.6603  0.6020  0.8915
  814MOL0     C 7352  10.212   8.694   0.881 -0.1035  0.1255  0.6457
  814MOL0     C 7353  10.120   8.803   0.810  0.2528 -0.4351 -0.1992
  814MOL0     C 7354  10.095   8.919   0.915 -0.8173 -1.1863  0.7164
  814MOL0     C 7355  10.006   9.026   0.850 -0.3826 -0.6832  0.3042
  814MOL0     C 7356   9.956   9.132   0.947 -2.3893 -1.5410 -0.8102
  814MOL0     C 7357  10.060   9.241   0.984 -0.4500 -0.3240 -0.2452
  814MOL0     C 7358  10.014   9.310   1.117 -0.7676 -0.3765 -1.4923
  814MOL0     C 7359   9.874   9.379   1.114 -0.5541 -0.0288  0.4344
  814MOL0    Cl 7360   9.822   9.465   1.270 -0.0862  0.0080 -0.6546
  814MOL0     C 7361  10.496   8.600   1.070 -0.9023  0.4569  0.6506
  814MOL0     C 7362  10.603   8.511   1.077  0.5178 -0.7939  0.1712
  814MOL0     O 7363  10.547   8.160   0.943  0.6246  0.6940 -0.4294
  814MOL0     C 7364  10.678   7.958   1.084  0.3866  0.1295 -0.2604
  814MOL0     C 7365  10.754   7.867   1.168 -0.1048 -0.3918  0.1224
  814MOL0     N 7366  11.356   7.260   1.177  0.0319 -1.1394  0.5700
  814MOL0     N 7367  11.428   7.183   1.103 -0.2164  0.2984 -0.0751
  814MOL0     C 7368  11.040   6.285   0.686 -0.3300  0.4821 -0.8048
  814MOL0     C 7369  11.045   6.147   0.722  0.7102  0.2585 -1.0196
  814MOL0     C 7370  10.975   5.761   0.971  0.2048  0.2955  0.2081
  814MOL0     C 7371  10.918   5.678   0.884  0.3871 -0.5953  0.4036
  814MOL0     C 7372  10.915   5.539   0.911  0.7044  0.1068  0.2354
  814MOL0     C 7373  10.989   5.482   1.024  0.7978 -1.3158 -0.1249
  814MOL0     O 7374  10.992   5.347   1.033  0.0880  0.6652  0.4017
  814MOL0     C 7375  11.071   5.279   0.934  1.1175  0.4764 -0.2176
  814MOL0     C 7376  11.104   5.130   0.982 -0.5827 -0.1921  0.1471
  814MOL0     C 7377  11.128   5.046   0.859  0.1821  0.0542  0.1945
  814MOL0     C 7378  11.123   4.889   0.888  0.3780  0.4346  0.7816
  814MOL0     C 7379  10.988   4.851   0.925 -0.4701  0.2198  0.4652
  814MOL0     C 7380  10.875   4.830   0.960 -1.2171  0.5444 -0.2618
  814MOL0     C 7381  11.063   5.569   1.098 -0.2281  0.0013 -0.1936
  814MOL0     C 7382  11.055   5.708   1.074 -0.4220 -0.1289 -0.1735
  814MOL0     H 7383  10.772   6.132   0.922  0.1233  3.0356  2.3388
  814MOL0     H 7384  10.750   6.370   0.850 -0.6312  1.3513 -2.0869
  814MOL0     H 7385  10.835   6.565   0.850  1.3624  0.1343  0.6829
  814MOL0     H 7386  10.764   6.582   0.687  1.9341 -1.2115 -4.0289
  814MOL0     H 7387  10.813   6.802   0.726  0.5307  2.2532 -3.0326
  814MOL0     H 7388  10.950   6.752   0.625  2.0612 -2.7152  0.9301
  814MOL0     H 7389  11.071   6.683   0.836  1.8489  2.3528  2.5722
  814MOL0     H 7390  10.951   6.784   0.922  0.3334 -1.7597  0.4097
  814MOL0     H 7391  11.076   6.933   0.689  1.9633 -0.8335 -1.7778
  814MOL0     H 7392  11.026   6.974   0.848  0.4769 -1.5661  1.5634
  814MOL0     H 7393  11.264   6.786   0.796 -0.3973 -1.5911  1.8178
  814MOL0     H 7394  11.226   6.877   0.945  0.6950  2.8649 -0.5712
  814MOL0     H 7395  11.267   7.097   0.807 -1.6811 -0.3907 -0.8413
  814MOL0     H 7396  11.335   6.993   0.682  0.2968  2.8569 -0.6341
  814MOL0     H 7397  11.450   6.951   0.946  0.2709 -0.7046 -0.3965
  814MOL0     H 7398  11.522   6.934   0.786  2.4744  1.4450  0.0025
  814MOL0     H 7399  11.515   7.191   0.779  0.4532  1.5382  0.9993
  814MOL0     H 7400  11.616   7.112   0.909 -0.0497  0.3887 -0.9144
  814MOL0     H 7401  11.373   7.401   0.875 -0.1185 -0.9013  0.3167
  814MOL0     H 7402  11.137   7.457   1.082 -0.4642  1.8256 -1.8326
  814MOL0     H 7403  11.262   7.564   1.028 -0.0312  1.4437  1.8188
  814MOL0     H 7404  11.341   7.607   1.258  2.8354 -3.4968  1.2505
  814MOL0     H 7405  11.250   7.476   1.323 -2.5707  1.2375  0.0821
  814MOL0     H 7406  11.027   7.549   1.269 -1.2740  0.5896  0.4064
  814MOL0     H 7407  11.112   7.661   1.377 -3.7503  0.0183  1.3126
  814MOL0     H 7408  11.055   7.719   1.080 -0.7964 -3.5856  0.4545
  814MOL0     H 7409  11.155   7.810   1.180  1.3283 -1.2058  2.2013
  814MOL0     H 7410  11.061   8.000   1.110 -0.8285  0.8430 -0.3398
  814MOL0     H 7411  10.932   8.185   1.010  1.5896 -0.9437  0.8050
  814MOL0     H 7412  10.571   8.381   0.764 -3.3533 -1.6499  0.7916
  814MOL0     H 7413  10.411   8.555   0.747 -3.3948 -0.0974  2.2489
  814MOL0     H 7414  10.148   8.651   0.960 -0.4101 -1.3459 -0.3623
  814MOL0     H 7415  10.229   8.617   0.806  3.4368  0.2850  1.1306
  814MOL0     H 7416  10.027   8.764   0.768 -1.1980  0.3108  2.0859
  814MOL0     H 7417  10.176   8.862   0.737  1.2949 -0.3008  0.6741
  814MOL0     H 7418  10.187   8.974   0.937 -3.3142  2.9202  1.9555
  814MOL0     H 7419  10.051   8.887   1.010 -3.4444  3.1563  1.2226
  814MOL0     H 7420  10.058   9.076   0.769 -4.0431  3.9902  0.4058
  814MOL0     H 7421   9.920   8.973   0.806  0.2689 -2.0726  0.6576
  814MOL0     H 7422   9.907   9.088   1.035 -2.0094  2.1463  1.4568
  814MOL0     H 7423   9.865   9.176   0.905 -2.2381 -0.5202 -0.1005
  814MOL0     H 7424  10.050   9.313   0.902 -4.1627  1.0293  1.1839
  814MOL0     H 7425  10.159   9.195   0.990 -0.0013  0.7335  4.5334
  814MOL0     H 7426  10.012   9.237   1.199 -0.2521  2.5340  1.3117
  814MOL0     H 7427  10.092   9.379   1.150 -2.1529  0.2237  0.8054
  814MOL0     H 7428   9.789   9.316   1.087 -1.7804  1.6755  0.1593
  814MOL0     H 7429   9.881   9.458   1.038 -0.5094 -0.7356 -0.3058
  814MOL0     H 7430  10.471   8.658   1.157 -1.0283  1.9745 -0.3624
  814MOL0     H 7431  10.665   8.498   1.166  3.1965  2.7617 -0.9324
  814MOL0     H 7432  10.571   7.945   1.068  0.4672 -0.5447 -0.2747
  814MOL0     H 7433  10.705   7.777   1.204  1.9725 -1.1191  1.2903
  814MOL0     H 7434  11.131   6.318   0.635  0.4892  1.4322  1.1718
  814MOL0     H 7435  11.136   6.094   0.696  2.4086  2.2055  0.5017
  814MOL0     H 7436  10.864   5.711   0.796  3.5262 -1.7171 -2.1391
  814MOL0     H 7437  10.838   5.496   0.847 -3.2722  3.2653  2.4049
  814MOL0     H 7438  11.165   5.328   0.905  2.4059 -1.7685 -0.0429
  814MOL0     H 7439  11.010   5.276   0.844 -1.2628  0.8666  1.2932
  814MOL0     H 7440  11.202   5.140   1.031  0.0612 -0.0661 -1.1377
  814MOL0     H 7441  11.023   5.098   1.049 -1.5694  1.0027 -0.4368
  814MOL0     H 7442  11.225   5.074   0.817  1.7908 -2.8347  1.6637
  814MOL0     H 7443  11.047   5.064   0.788 -1.2870  1.8918  2.2328
  814MOL0     H 7444  11.144   4.820   0.806  0.1952 -1.7933  2.5169
  814MOL0     H 7445  11.191   4.870   0.973  0.3034 -0.0244  0.7443
  814MOL0     H 7446  10.772   4.809   0.978 -1.8348 -0.7655 -4.2405
  814MOL0     H 7447  11.131   5.528   1.172  1.1113  1.0184 -0.8114
  814MOL0     H 7448  11.127   5.776   1.119  0.8016  2.2456 -4.9433
  815MOL0     O 7449   6.885   7.055   2.244  0.4127 -0.1517 -0.7168
  815MOL0     C 7450   6.963   7.112   2.163  0.7770 -0.1310 -0.1504
  815MOL0     O 7451   6.964   7.095   2.026  1.4092  0.4702 -1.0045
  815MOL0     C 7452   6.859   7.016   1.961 -0.2162 -0.4766 -0.4394
  815MOL0     C 7453   6.727   6.997   2.001  0.7502  0.4922 -0.8509
  815MOL0     C 7454   6.628   6.933   1.928  0.2001 -0.3627  0.1909
  815MOL0     C 7455   6.669   6.865   1.811 -0.0265 -0.8950 -0.0884
  815MOL0     O 7456   6.594   6.793   1.723  0.0356 -0.0797 -0.9458
  815MOL0     C 7457   6.478   6.725   1.765  0.0057  0.2027 -0.3833
  815MOL0     C 7458   6.413   6.645   1.654 -0.1940 -0.0530  0.4235
  815MOL0     C 7459   6.426   6.718   1.511 -0.5644  0.6891 -0.3626
  815MOL0     C 7460   6.369   6.618   1.396 -0.1166  0.1301 -1.2348
  815MOL0     C 7461   6.403   6.683   1.260  0.3907  0.3345  0.9044
  815MOL0     C 7462   6.330   6.603   1.140 -0.9769 -0.7406  0.2421
  815MOL0     C 7463   6.387   6.671   1.007  0.1045 -0.3050  0.6262
  815MOL0     C 7464   6.318   6.803   0.975  0.2419  1.2537 -0.2138
  815MOL0     N 7465   6.363   6.860   0.849 -0.5601 -0.5294 -0.3692
  815MOL0     C 7466   6.498   6.884   0.827  0.1073 -0.8152 -0.6202
  815MOL0     C 7467   6.492   6.974   0.722 -0.5295 -0.3341 -0.0412
  815MOL0     C 7468   6.604   7.059   0.656  0.2374  0.5263 -1.2894
  815MOL0     C 7469   6.630   7.198   0.726  0.0585 -1.0986 -0.5066
  815MOL0     C 7470   6.730   7.293   0.656 -0.7837 -0.0816  1.0337
  815MOL0     C 7471   6.870   7.238   0.636 -0.2208  0.1992  0.3696
  815MOL0     O 7472   6.925   7.207   0.773 -0.5007 -0.4280  0.3955
  815MOL0     C 7473   7.056   7.163   0.786 -0.6503 -0.3400  0.3544
  815MOL0     C 7474   7.136   7.107   0.689 -0.1623 -0.0096  0.0491
  815MOL0     C 7475   7.271   7.082   0.717  0.0360  0.5605 -1.7815
  815MOL0     C 7476   7.324   7.107   0.847  0.5732  0.1561 -0.0450
  815MOL0     C 7477   7.452   7.064   0.886 -0.2968  1.1645  0.5601
  815MOL0     O 7478   7.524   6.978   0.805  0.7453 -1.2899 -0.1010
  815MOL0     C 7479   7.650   6.935   0.834 -0.3672  0.3304 -0.1032
  815MOL0     C 7480   7.752   7.015   0.899 -0.0175 -0.6468  0.3450
  815MOL0     C 7481   7.886   6.960   0.918 -0.3286 -0.4029 -0.1092
  815MOL0     C 7482   7.912   6.830   0.866 -0.6895  0.1141 -0.0245
  815MOL0     O 7483   8.030   6.762   0.900 -0.3380  0.4730 -0.7866
  815MOL0     C 7484   8.156   6.831   0.887 -0.1705 -0.2033  0.2084
  815MOL0     C 7485   8.254   6.733   0.950 -0.9606  0.0955 -0.0718
  815MOL0     C 7486   8.374   6.798   1.009  0.3533 -0.7835  0.7827
  815MOL0     C 7487   8.477   6.695   1.036  0.5076  0.0141 -0.9844
  815MOL0     C 7488   8.579   6.748   1.143  0.3012  0.6335 -0.2338
  815MOL0     C 7489   8.692   6.647   1.158  0.6179  0.6559 -0.4839
  815MOL0     C 7490   8.831   6.711   1.186 -0.7047 -0.1239  0.4067
  815MOL0     C 7491   8.944   6.602   1.168 -0.0070 -0.4903 -0.2136
  815MOL0    Cl 7492   9.083   6.660   1.257 -0.2929 -0.2915  0.0586
  815MOL0     C 7493   7.817   6.759   0.808  0.0468  0.9377  0.1302
  815MOL0     C 7494   7.684   6.807   0.794  0.0197  0.3271  1.0600
  815MOL0     O 7495   7.492   7.106   0.998 -0.3621 -0.2645 -0.4103
  815MOL0     C 7496   7.238   7.176   0.935 -0.4891 -0.0326 -0.3283
  815MOL0     C 7497   7.105   7.199   0.912 -0.3523  0.8053  0.1147
  815MOL0     N 7498   6.361   6.997   0.687 -0.6271 -0.4826 -0.6480
  815MOL0     N 7499   6.287   6.932   0.770 -0.5087 -0.3902 -0.0012
  815MOL0     C 7500   6.806   6.879   1.776 -0.8717  0.3707  1.1242
  815MOL0     C 7501   6.899   6.957   1.841 -0.3622  0.0029  0.4937
  815MOL0     C 7502   7.051   7.215   2.224  0.5677 -0.7346  0.1379
  815MOL0     C 7503   7.137   7.289   2.144  0.4337 -0.4058 -0.9546
  815MOL0     C 7504   7.207   7.398   2.191 -1.0203  0.6008  0.9008
  815MOL0     C 7505   7.206   7.417   2.333 -0.6805 -0.4963 -0.1831
  815MOL0     O 7506   7.290   7.504   2.398  0.4238  0.0012 -0.2569
  815MOL0     C 7507   7.411   7.559   2.338 -0.3935  0.5307 -0.4511
  815MOL0     C 7508   7.407   7.712   2.312  0.4082 -0.4548  0.0707
  815MOL0     C 7509   7.404   7.775   2.455  0.6533 -0.1227 -0.0822
  815MOL0     C 7510   7.473   7.914   2.451 -0.4171  0.9484 -0.3782
  815MOL0     C 7511   7.548   7.941   2.576  0.2089 -0.5977  0.0876
  815MOL0     C 7512   7.590   7.947   2.693  0.4868  1.0902  1.2819
  815MOL0     C 7513   7.134   7.340   2.414  1.2586 -0.0335 -0.1527
  815MOL0     C 7514   7.054   7.246   2.357  0.5747 -0.2494 -0.2946
  815MOL0     H 7515   6.696   7.062   2.082  2.6594 -1.1431  1.2950
  815MOL0     H 7516   6.525   6.951   1.957  0.8923 -0.3351  2.9151
  815MOL0     H 7517   6.399   6.791   1.803  1.5491  1.1142  1.4192
  815MOL0     H 7518   6.505   6.655   1.845  0.6318  1.6032  0.6909
  815MOL0     H 7519   6.310   6.639   1.690 -0.0928 -0.1486  0.7025
  815MOL0     H 7520   6.456   6.545   1.656  0.5582  0.2509  0.1510
  815MOL0     H 7521   6.531   6.746   1.496 -1.0725  1.6733 -2.4804
  815MOL0     H 7522   6.366   6.809   1.501 -0.3686  0.9267  0.5380
  815MOL0     H 7523   6.414   6.520   1.412  0.2657  0.6251  1.0075
  815MOL0     H 7524   6.261   6.617   1.412  0.3820 -0.1403  3.2734
  815MOL0     H 7525   6.512   6.679   1.250  0.6654  1.0329  3.0598
  815MOL0     H 7526   6.376   6.789   1.266  1.4405  0.5394  3.1593
  815MOL0     H 7527   6.222   6.619   1.144 -0.9094 -0.4196  1.1357
  815MOL0     H 7528   6.349   6.495   1.132  1.1824 -0.3150 -1.1070
  815MOL0     H 7529   6.495   6.680   1.024  0.3954  1.6559 -1.6411
  815MOL0     H 7530   6.384   6.602   0.921  1.1460  4.2469 -3.5475
  815MOL0     H 7531   6.329   6.882   1.051  0.1595  1.9045 -0.8614
  815MOL0     H 7532   6.211   6.783   0.971  0.4855  0.0138 -0.8956
  815MOL0     H 7533   6.576   6.842   0.890 -1.2836 -1.3818  0.8121
  815MOL0     H 7534   6.568   7.081   0.555 -3.1965  2.1568  0.1056
  815MOL0     H 7535   6.696   7.000   0.651  1.0289  1.7079 -0.9719
  815MOL0     H 7536   6.675   7.184   0.825  1.9974  2.0362 -0.8065
  815MOL0     H 7537   6.533   7.246   0.736  2.9321  5.5741  0.8418
  815MOL0     H 7538   6.687   7.321   0.559 -0.0096  0.6985  0.9038
  815MOL0     H 7539   6.736   7.381   0.720 -1.1134 -1.3475  2.8863
  815MOL0     H 7540   6.934   7.315   0.592 -0.1899  0.2118  0.4374
  815MOL0     H 7541   6.873   7.145   0.578 -0.3560 -0.4094  1.3190
  815MOL0     H 7542   7.085   7.094   0.593  0.0334 -3.8348  0.2954
  815MOL0     H 7543   7.338   7.044   0.640  2.3198  1.7226 -0.4590
  815MOL0     H 7544   7.728   7.108   0.949  1.5041 -1.2548  2.3091
  815MOL0     H 7545   7.956   6.998   0.992  1.2093 -0.5317 -1.4535
  815MOL0     H 7546   8.154   6.935   0.920 -4.4227 -0.1559  0.3324
  815MOL0     H 7547   8.187   6.830   0.782  0.9950 -2.2277  0.5296
  815MOL0     H 7548   8.271   6.657   0.874  0.7279  0.5716 -0.2142
  815MOL0     H 7549   8.214   6.674   1.033 -3.0650 -0.6807 -1.5554
  815MOL0     H 7550   8.341   6.865   1.090  1.4242 -1.2005  1.5949
  815MOL0     H 7551   8.415   6.858   0.927 -0.3427 -0.9772  0.2805
  815MOL0     H 7552   8.436   6.601   1.074  2.9109 -0.2142  1.4129
  815MOL0     H 7553   8.520   6.681   0.936 -1.5038  1.6291 -2.1427
  815MOL0     H 7554   8.535   6.759   1.243  0.9729  1.9470 -0.0530
  815MOL0     H 7555   8.632   6.842   1.125  4.1733 -0.2494  4.2319
  815MOL0     H 7556   8.694   6.596   1.062 -1.2167 -0.2266 -0.0986
  815MOL0     H 7557   8.674   6.570   1.234 -3.6730 -0.4019 -2.2568
  815MOL0     H 7558   8.844   6.803   1.128 -1.3950  1.0221  1.9753
  815MOL0     H 7559   8.840   6.750   1.288  1.3247  0.8710 -0.0840
  815MOL0     H 7560   8.989   6.608   1.068 -1.1642  1.1004 -0.6830
  815MOL0     H 7561   8.928   6.501   1.206  4.7995 -0.2159  3.6461
  815MOL0     H 7562   7.846   6.660   0.774  1.7300 -0.1341  4.2109
  815MOL0     H 7563   7.612   6.738   0.750 -1.3066  1.2980  1.6275
  815MOL0     H 7564   7.263   7.196   1.039 -0.2673  1.7803 -0.6961
  815MOL0     H 7565   7.042   7.241   0.989 -2.2256  0.3236 -1.0897
  815MOL0     H 7566   6.834   6.840   1.679 -1.3196  1.5358  0.5208
  815MOL0     H 7567   7.002   6.960   1.809  0.8405 -1.8582  3.7405
  815MOL0     H 7568   7.164   7.276   2.039  0.7622  2.2534 -1.2510
  815MOL0     H 7569   7.266   7.463   2.127 -0.2185  2.0569  3.0057
  815MOL0     H 7570   7.442   7.507   2.247  0.6544 -1.7689  1.1567
  815MOL0     H 7571   7.482   7.536   2.417  0.5265 -0.1984 -1.4708
  815MOL0     H 7572   7.498   7.731   2.256 -0.0193 -1.8892 -1.1633
  815MOL0     H 7573   7.320   7.738   2.251 -2.5441  2.0706  4.7299
  815MOL0     H 7574   7.460   7.708   2.521  0.3518  1.9757  2.4655
  815MOL0     H 7575   7.305   7.775   2.501  0.5172 -0.8021 -0.3658
  815MOL0     H 7576   7.556   7.911   2.380  1.4398 -1.0197  1.7057
  815MOL0     H 7577   7.405   7.996   2.425 -2.8941 -1.1338 -0.8407
  815MOL0     H 7578   7.632   7.949   2.792 -2.5521  1.9221  2.6847
  815MOL0     H 7579   7.130   7.351   2.522  1.6031  0.6964 -0.2050
  815MOL0     H 7580   6.993   7.181   2.420 -0.5870  0.7782 -0.3176
  816MOL0     O 7581   9.162   8.149  11.036 -0.5639 -0.3749 -0.0949
  816MOL0     C 7582   9.285   8.133  11.027 -0.2482 -0.0216  1.0460
  816MOL0     O 7583   9.364   8.080  11.121  0.0671  0.5208 -0.0275
  816MOL0     C 7584   9.306   8.050  11.240  1.0280  0.5344 -0.0389
  816MOL0     C 7585   9.232   7.929  11.247 -0.3968  0.0375  0.1475
  816MOL0     C 7586   9.169   7.885  11.363 -0.8449 -0.4551  0.4456
  816MOL0     C 7587   9.166   7.970  11.476  0.8964  0.3090  0.8114
  816MOL0     O 7588   9.087   7.927  11.586 -0.0471 -0.6053  0.2645
  816MOL0     C 7589   9.168   7.884  11.694 -1.0395  0.2272  0.0701
  816MOL0     C 7590   9.226   7.749  11.654 -0.5760  0.6238 -0.3513
  816MOL0     C 7591   9.270   7.662  11.774  0.9769 -0.4014  0.3431
  816MOL0     C 7592   9.309   7.518  11.730 -0.0432 -0.0941 -0.3432
  816MOL0     C 7593   9.366   7.437  11.854 -0.3038 -0.0315  0.0908
  816MOL0     C 7594   9.395   7.292  11.808 -0.7415  0.6478  0.0669
  816MOL0     C 7595   9.474   7.204  11.911  0.4505  0.3190 -0.8416
  816MOL0     C 7596   9.387   7.165  12.033 -0.3015 -0.1722  0.5364
  816MOL0     N 7597   9.271   7.080  12.002 -0.0677 -0.1523  0.4267
  816MOL0     C 7598   9.289   6.944  12.003 -0.1181 -0.6499 -0.3581
  816MOL0     C 7599   9.171   6.913  11.944 -0.4629 -0.1113  1.0923
  816MOL0     C 7600   9.136   6.770  11.923  0.1577  0.4881  0.5950
  816MOL0     C 7601   9.089   6.699  12.054  0.0325 -0.4815 -0.4218
  816MOL0     C 7602   8.979   6.597  12.036  0.2842  0.0669  0.0114
  816MOL0     C 7603   8.977   6.497  12.162 -0.0089 -0.8547 -0.1486
  816MOL0     O 7604   8.879   6.388  12.143  0.1389  0.0043 -0.3433
  816MOL0     C 7605   8.759   6.420  12.084 -0.3639 -0.0377  0.4986
  816MOL0     C 7606   8.652   6.473  12.157 -0.1522  1.1739 -0.4932
  816MOL0     C 7607   8.534   6.515  12.096  0.0973 -0.6292  1.2481
  816MOL0     C 7608   8.510   6.498  11.958 -0.5214  0.6915 -1.1440
  816MOL0     C 7609   8.382   6.547  11.896 -0.0324 -0.0514 -0.2897
  816MOL0     O 7610   8.284   6.589  11.982  0.2136 -0.3756  0.3451
  816MOL0     C 7611   8.160   6.634  11.933 -1.0274 -0.1781 -0.1027
  816MOL0     C 7612   8.117   6.766  11.961 -0.3731  0.5135  0.3212
  816MOL0     C 7613   7.988   6.798  11.920 -0.0662 -0.3733 -0.1405
  816MOL0     C 7614   7.893   6.696  11.884  0.2826 -0.4256 -0.6577
  816MOL0     O 7615   7.765   6.716  11.846 -0.2300  0.2635  0.3776
  816MOL0     C 7616   7.705   6.845  11.830  0.7599  0.6408  0.2065
  816MOL0     C 7617   7.573   6.818  11.755 -0.0396 -0.0288 -0.4805
  816MOL0     C 7618   7.513   6.954  11.691 -0.1492  0.6399  0.0692
  816MOL0     C 7619   7.370   6.939  11.659  0.7865 -0.5754  0.5075
  816MOL0     C 7620   7.301   7.076  11.626 -0.7008  0.2763  0.4354
  816MOL0     C 7621   7.157   7.085  11.669  0.0527 -0.2459  0.4967
  816MOL0     C 7622   7.064   6.999  11.572  0.3056  0.0757  0.1450
  816MOL0     C 7623   6.997   6.877  11.653 -0.3250 -0.4615 -0.1686
  816MOL0    Cl 7624   6.895   6.931  11.788  0.1860 -0.2552  0.1154
  816MOL0     C 7625   7.936   6.566  11.874 -0.0534  0.1700 -0.2028
  816MOL0     C 7626   8.077   6.539  11.885  0.3064  0.4330 -0.4139
  816MOL0     O 7627   8.367   6.545  11.772  0.3386  0.6853 -0.2114
  816MOL0     C 7628   8.615   6.433  11.890  0.0263 -0.6572 -0.2597
  816MOL0     C 7629   8.737   6.396  11.947  0.3870 -0.3233 -0.5318
  816MOL0     N 7630   9.082   7.023  11.930  0.2244  1.2631 -0.3177
  816MOL0     N 7631   9.149   7.117  11.973  0.9697  0.1257 -0.0423
  816MOL0     C 7632   9.242   8.089  11.474  0.3114 -0.1466  0.3574
  816MOL0     C 7633   9.311   8.124  11.355  0.3519 -0.0289  0.3273
  816MOL0     C 7634   9.346   8.168  10.888 -0.0735  0.0351 -0.6406
  816MOL0     C 7635   9.473   8.123  10.863  0.4032  0.6526 -0.2425
  816MOL0     C 7636   9.539   8.169  10.749 -0.8350 -0.5433 -0.2650
  816MOL0     C 7637   9.469   8.254  10.650 -0.1084  0.4085 -0.2079
  816MOL0     O 7638   9.521   8.308  10.541 -0.8356  0.2357 -0.5143
  816MOL0     C 7639   9.631   8.399  10.570  0.8157  0.0731 -0.6834
  816MOL0     C 7640   9.678   8.460  10.444  0.4330 -0.0997  0.0101
  816MOL0     C 7641   9.592   8.577  10.390 -0.1629  0.2021 -0.2941
  816MOL0     C 7642   9.677   8.677  10.305  0.3615 -0.3125 -0.1303
  816MOL0     C 7643   9.700   8.618  10.166 -0.0737 -0.8450  0.7076
  816MOL0     C 7644   9.720   8.584  10.049  0.9108  0.0363 -0.1502
  816MOL0     C 7645   9.336   8.291  10.686  0.0422  1.1137 -0.0270
  816MOL0     C 7646   9.277   8.241  10.797  0.2508 -1.0974  0.4868
  816MOL0     H 7647   9.222   7.877  11.152  0.5564 -1.2398  0.7161
  816MOL0     H 7648   9.109   7.796  11.375 -1.2296 -0.6713 -2.4368
  816MOL0     H 7649   9.094   7.887  11.774 -0.9749 -0.4925  0.1620
  816MOL0     H 7650   9.259   7.943  11.713  0.9251 -2.1680 -1.2867
  816MOL0     H 7651   9.306   7.758  11.580 -0.5565  2.0125 -0.1832
  816MOL0     H 7652   9.143   7.693  11.611 -0.3144 -0.0392 -0.0261
  816MOL0     H 7653   9.183   7.650  11.839  1.2987  1.0407  1.0947
  816MOL0     H 7654   9.356   7.703  11.829  1.0180 -2.3026  1.8171
  816MOL0     H 7655   9.224   7.459  11.694 -0.3155 -0.7055  1.2245
  816MOL0     H 7656   9.388   7.523  11.654  2.3131  3.8100  1.9946
  816MOL0     H 7657   9.297   7.441  11.939 -1.9956 -1.4696 -1.1471
  816MOL0     H 7658   9.464   7.481  11.876  1.2230 -2.0513 -2.1877
  816MOL0     H 7659   9.448   7.297  11.712 -2.4647  2.5905 -0.8726
  816MOL0     H 7660   9.296   7.253  11.782 -1.0058  2.3294 -1.7389
  816MOL0     H 7661   9.506   7.112  11.862 -0.9948 -1.5394  1.5085
  816MOL0     H 7662   9.571   7.246  11.941  1.5287 -2.1555 -0.6694
  816MOL0     H 7663   9.346   7.248  12.091  0.1498  0.1342  0.4267
  816MOL0     H 7664   9.466   7.127  12.099 -0.5240 -0.8670  0.4102
  816MOL0     H 7665   9.377   6.885  12.026  0.9322  0.8613 -0.3358
  816MOL0     H 7666   9.227   6.722  11.888 -1.4875 -1.4112 -1.3645
  816MOL0     H 7667   9.060   6.767  11.845  1.0402  1.9117 -0.3622
  816MOL0     H 7668   9.049   6.779  12.118 -0.1098 -1.6076  0.9372
  816MOL0     H 7669   9.169   6.647  12.107  0.2354 -0.3084 -0.5538
  816MOL0     H 7670   8.886   6.655  12.037  0.0978  0.0076 -3.2308
  816MOL0     H 7671   8.985   6.547  11.939  0.6365  1.5810 -0.7801
  816MOL0     H 7672   8.955   6.552  12.253 -1.5190 -0.4615 -0.7204
  816MOL0     H 7673   9.074   6.453  12.187 -0.5082 -1.2659  1.1629
  816MOL0     H 7674   8.657   6.493  12.264  2.3329 -1.4518 -0.0195
  816MOL0     H 7675   8.449   6.539  12.159 -3.0816 -3.6168 -1.4691
  816MOL0     H 7676   8.187   6.840  11.999 -2.1570  2.1892  0.5621
  816MOL0     H 7677   7.954   6.900  11.938  0.0681 -0.2007 -0.8680
  816MOL0     H 7678   7.765   6.914  11.770  0.5557 -0.9715 -1.9822
  816MOL0     H 7679   7.678   6.887  11.927 -0.6092  1.3128 -0.4377
  816MOL0     H 7680   7.514   6.763  11.829 -0.0592  1.2360  0.4825
  816MOL0     H 7681   7.584   6.747  11.673  0.9045 -1.4111  0.7946
  816MOL0     H 7682   7.581   6.977  11.608 -0.8869 -1.7437 -1.3038
  816MOL0     H 7683   7.522   7.031  11.767 -1.6193 -0.7267  1.7335
  816MOL0     H 7684   7.351   6.872  11.574 -1.8084 -1.6052  1.7797
  816MOL0     H 7685   7.314   6.893  11.741 -0.0651  0.1381  0.3400
  816MOL0     H 7686   7.293   7.086  11.517  0.5151  0.2169  0.3299
  816MOL0     H 7687   7.356   7.156  11.677  0.3314 -1.6684  2.5324
  816MOL0     H 7688   7.136   7.190  11.646  3.3920  0.1732 -1.1522
  816MOL0     H 7689   7.149   7.070  11.777 -0.7312  0.4823  0.5544
  816MOL0     H 7690   6.973   7.053  11.541 -1.1278 -1.5558  1.3243
  816MOL0     H 7691   7.120   6.955  11.489 -0.9245  0.3067 -0.8491
  816MOL0     H 7692   7.082   6.827  11.700  1.2017  2.2502  0.1853
  816MOL0     H 7693   6.947   6.811  11.582 -1.5761 -0.5879  0.7793
  816MOL0     H 7694   7.877   6.482  11.840  1.3217 -0.8737 -0.1224
  816MOL0     H 7695   8.125   6.446  11.858 -1.6448 -1.0174  0.8572
  816MOL0     H 7696   8.605   6.419  11.783 -0.0709  0.8998 -0.4754
  816MOL0     H 7697   8.815   6.377  11.875  2.9666  1.6193  1.5670
  816MOL0     H 7698   9.243   8.176  11.539  2.6719  1.0303 -1.1124
  816MOL0     H 7699   9.367   8.217  11.351  0.5505  0.0344  2.9141
  816MOL0     H 7700   9.516   8.046  10.926  0.0301  0.6701  0.0348
  816MOL0     H 7701   9.644   8.143  10.736 -0.0326  2.5180 -0.7894
  816MOL0     H 7702   9.712   8.345  10.621  1.7870  1.3627 -0.8127
  816MOL0     H 7703   9.592   8.455  10.655 -1.2071 -2.3383  0.1100
  816MOL0     H 7704   9.784   8.486  10.455  0.6226  0.5194 -2.6368
  816MOL0     H 7705   9.671   8.382  10.368 -1.1606 -1.5996  1.6270
  816MOL0     H 7706   9.550   8.623  10.480 -2.7391 -1.9864 -0.2572
  816MOL0     H 7707   9.503   8.537  10.340  1.8528 -2.4676 -2.0685
  816MOL0     H 7708   9.627   8.774  10.301  2.3361  1.0609  3.5012
  816MOL0     H 7709   9.777   8.687  10.349 -0.0889  1.4127  0.5901
  816MOL0     H 7710   9.742   8.568   9.945 -2.6627 -1.9018 -0.7692
  816MOL0     H 7711   9.286   8.345  10.606 -1.0557 -1.3056 -1.0752
  816MOL0     H 7712   9.175   8.276  10.813 -0.0063  0.4241 -3.3041
  817MOL0     O 7713   2.450   7.306   7.005 -0.5161 -0.3576 -0.6604
  817MOL0     C 7714   2.389   7.370   7.087 -0.0805  0.5131 -0.0988
  817MOL0     O 7715   2.328   7.482   7.063  0.7204  0.4874  0.3176
  817MOL0     C 7716   2.304   7.538   6.940  0.5351  0.0131  1.7733
  817MOL0     C 7717   2.239   7.665   6.939 -0.2013 -0.8118 -0.2547
  817MOL0     C 7718   2.199   7.733   6.822 -0.1423 -0.2936 -0.3800
  817MOL0     C 7719   2.233   7.676   6.704 -0.2223 -0.1547 -0.0992
  817MOL0     O 7720   2.198   7.754   6.591 -0.2062  0.1377  0.0935
  817MOL0     C 7721   2.239   7.705   6.454 -0.3370 -0.2502 -0.1113
  817MOL0     C 7722   2.399   7.717   6.442 -0.0623 -0.7306  0.4441
  817MOL0     C 7723   2.429   7.666   6.299  0.6532 -0.3957 -0.1646
  817MOL0     C 7724   2.573   7.707   6.252 -0.2771 -0.2364 -1.4998
  817MOL0     C 7725   2.618   7.640   6.113  0.7484  0.4552 -0.2853
  817MOL0     C 7726   2.595   7.741   5.994 -0.6682  0.5836  0.3293
  817MOL0     C 7727   2.669   7.698   5.864  0.3750 -0.0949 -0.0377
  817MOL0     C 7728   2.788   7.775   5.841  0.2547 -0.7823 -0.7010
  817MOL0     N 7729   2.883   7.740   5.947  0.2208 -0.6688  0.1487
  817MOL0     C 7730   2.922   7.821   6.043  0.2548 -0.5018  0.3777
  817MOL0     C 7731   3.012   7.770   6.116  0.8385  0.1574 -0.2565
  817MOL0     C 7732   3.088   7.814   6.237  0.4995  0.5064 -0.4170
  817MOL0     C 7733   3.060   7.735   6.363 -0.8701  0.5690  1.0563
  817MOL0     C 7734   2.930   7.764   6.429 -1.3342 -0.4431  0.2716
  817MOL0     C 7735   2.887   7.906   6.460  0.7645  0.1202 -0.6004
  817MOL0     O 7736   2.832   7.963   6.342 -0.2161 -0.3581  0.4558
  817MOL0     C 7737   2.827   8.098   6.353  1.0116 -0.0047  1.0203
  817MOL0     C 7738   2.762   8.158   6.464  0.0974 -0.2437  0.4735
  817MOL0     C 7739   2.780   8.295   6.483  0.5778 -0.2814 -0.5734
  817MOL0     C 7740   2.861   8.366   6.397  0.8520 -0.5432  1.0347
  817MOL0     C 7741   2.879   8.513   6.415  0.6486  0.2818 -1.0500
  817MOL0     O 7742   2.867   8.562   6.543 -0.3183  0.7533 -0.3996
  817MOL0     C 7743   2.893   8.691   6.583  1.0199 -0.8004 -0.5288
  817MOL0     C 7744   2.946   8.801   6.504  0.3862  0.3397 -0.0375
  817MOL0     C 7745   2.970   8.924   6.563  0.6133 -0.0513  0.5118
  817MOL0     C 7746   2.927   8.948   6.699  0.4174  0.0812  0.1217
  817MOL0     O 7747   2.930   9.077   6.744 -0.8973 -0.4755 -0.2741
  817MOL0     C 7748   2.850   9.105   6.857  0.4471  0.4104 -0.4021
  817MOL0     C 7749   2.812   9.243   6.880 -0.6896  0.1206  0.0488
  817MOL0     C 7750   2.930   9.314   6.954 -0.1699  0.0565  0.4078
  817MOL0     C 7751   2.888   9.454   7.008  0.5971  0.5889  0.5214
  817MOL0     C 7752   3.011   9.535   7.043  0.6138 -1.3635  0.2064
  817MOL0     C 7753   3.061   9.507   7.186 -0.8732 -0.4104 -0.4188
  817MOL0     C 7754   3.195   9.569   7.213  0.1086  0.0845  0.1250
  817MOL0     C 7755   3.183   9.711   7.232 -0.9377 -0.6589  0.0811
  817MOL0    Cl 7756   3.332   9.806   7.211 -0.1308  0.0727  0.2103
  817MOL0     C 7757   2.875   8.845   6.783 -0.3331 -0.1358  0.4888
  817MOL0     C 7758   2.862   8.718   6.724 -0.3996  0.4349  0.1015
  817MOL0     O 7759   2.913   8.577   6.323  0.0660  0.1026  0.0858
  817MOL0     C 7760   2.911   8.309   6.282 -0.1748  0.3532  0.0982
  817MOL0     C 7761   2.902   8.172   6.261 -0.1254  0.3594 -0.4598
  817MOL0     N 7762   3.031   7.645   6.069  0.0961 -1.2760  0.2904
  817MOL0     N 7763   2.963   7.631   5.959  0.0647  0.0473 -0.2746
  817MOL0     C 7764   2.292   7.545   6.697 -0.2900 -0.1872 -0.2976
  817MOL0     C 7765   2.333   7.485   6.810 -0.2043  0.6798  0.1004
  817MOL0     C 7766   2.382   7.306   7.220 -0.0603  0.8079  0.8466
  817MOL0     C 7767   2.305   7.373   7.312  0.2123 -0.0159  0.3104
  817MOL0     C 7768   2.290   7.325   7.448  0.3519  0.2958  0.0031
  817MOL0     C 7769   2.328   7.195   7.471 -0.1798  0.4157 -0.5108
  817MOL0     O 7770   2.306   7.135   7.598  0.0234  0.7129 -0.8677
  817MOL0     C 7771   2.391   7.028   7.650 -0.3786  0.7967 -0.2137
  817MOL0     C 7772   2.539   7.079   7.658  0.0068  0.4609 -0.7539
  817MOL0     C 7773   2.639   6.964   7.709  0.8085 -0.7970  1.2996
  817MOL0     C 7774   2.779   7.016   7.729 -0.2343 -0.3816 -0.4673
  817MOL0     C 7775   2.788   7.062   7.867  0.1339 -0.2730  0.0534
  817MOL0     C 7776   2.775   7.109   7.978 -0.0852 -0.4290 -0.4710
  817MOL0     C 7777   2.397   7.124   7.377 -0.2262 -0.3321 -0.2171
  817MOL0     C 7778   2.423   7.177   7.253 -0.3687  0.6673  0.0022
  817MOL0     H 7779   2.215   7.704   7.037  1.7107 -1.1184  0.3609
  817MOL0     H 7780   2.138   7.822   6.832 -1.0964 -1.0061  0.2950
  817MOL0     H 7781   2.203   7.771   6.374 -0.4262 -1.6475 -1.2626
  817MOL0     H 7782   2.212   7.600   6.437 -3.2817  0.5053 -0.6489
  817MOL0     H 7783   2.454   7.661   6.519 -1.1042  0.0471  1.7956
  817MOL0     H 7784   2.417   7.823   6.458 -3.4784 -0.1652  1.3678
  817MOL0     H 7785   2.350   7.707   6.236  0.0797  0.3342  0.9824
  817MOL0     H 7786   2.417   7.557   6.303 -2.5780 -0.0855  2.4546
  817MOL0     H 7787   2.605   7.811   6.250  3.6004 -1.2911 -1.3493
  817MOL0     H 7788   2.641   7.670   6.330  0.9508 -0.5527 -2.6826
  817MOL0     H 7789   2.570   7.544   6.093 -0.0405  1.2782 -2.6233
  817MOL0     H 7790   2.726   7.625   6.115  1.0017  2.0533  1.7440
  817MOL0     H 7791   2.629   7.841   6.022  1.3820 -0.2016  0.8452
  817MOL0     H 7792   2.488   7.731   5.973 -0.0726 -4.8190 -1.8016
  817MOL0     H 7793   2.688   7.590   5.860 -0.9476 -0.5017  2.5664
  817MOL0     H 7794   2.602   7.715   5.779 -1.1750 -2.3332  0.6281
  817MOL0     H 7795   2.778   7.883   5.838  2.6793 -0.5288 -1.8308
  817MOL0     H 7796   2.825   7.750   5.741  2.2733  0.7537 -0.3875
  817MOL0     H 7797   2.895   7.926   6.048 -3.8492 -1.4141  1.4255
  817MOL0     H 7798   3.083   7.923   6.244 -0.6536  0.4990 -0.8816
  817MOL0     H 7799   3.192   7.794   6.211  0.1782 -2.6269  0.3004
  817MOL0     H 7800   3.146   7.744   6.428 -0.5749 -2.3274  1.2269
  817MOL0     H 7801   3.060   7.627   6.341 -1.3774  0.6042  0.8509
  817MOL0     H 7802   2.851   7.721   6.368 -1.2923 -2.1409  1.3320
  817MOL0     H 7803   2.922   7.706   6.522  0.4185 -0.4246  0.4704
  817MOL0     H 7804   2.974   7.958   6.500 -0.9041  1.7448  1.1194
  817MOL0     H 7805   2.817   7.906   6.544  0.1285  2.8814 -1.0500
  817MOL0     H 7806   2.698   8.105   6.534  0.6077  1.3624  2.2345
  817MOL0     H 7807   2.728   8.348   6.563 -1.0085 -0.1910 -1.6217
  817MOL0     H 7808   2.957   8.799   6.396 -2.5174  0.0597 -0.3960
  817MOL0     H 7809   2.996   9.010   6.503 -3.4000 -1.2465 -3.4309
  817MOL0     H 7810   2.897   9.068   6.949 -0.8750 -1.2508 -0.3422
  817MOL0     H 7811   2.752   9.060   6.840 -0.9244  2.3681  1.7269
  817MOL0     H 7812   2.717   9.250   6.933 -0.4077  2.0670  0.3836
  817MOL0     H 7813   2.818   9.302   6.788  1.4252  2.3904  1.5033
  817MOL0     H 7814   3.009   9.315   6.879  0.1521  0.2479  0.7460
  817MOL0     H 7815   2.954   9.261   7.047 -0.5719  2.3489  1.8907
  817MOL0     H 7816   2.825   9.504   6.935  3.1066  3.4498  0.1438
  817MOL0     H 7817   2.829   9.431   7.097  0.5124  2.2198  0.9170
  817MOL0     H 7818   2.984   9.641   7.032 -3.4487 -2.2463  0.1246
  817MOL0     H 7819   3.085   9.505   6.969  1.4379  4.0830 -1.6588
  817MOL0     H 7820   3.071   9.399   7.200  0.7417 -1.0024 -4.7062
  817MOL0     H 7821   2.986   9.541   7.258  0.7098  3.0090 -0.1723
  817MOL0     H 7822   3.240   9.534   7.307 -1.4413 -0.5716  0.6617
  817MOL0     H 7823   3.260   9.546   7.128 -0.1018 -0.0016 -0.0135
  817MOL0     H 7824   3.133   9.735   7.327  0.6877 -0.0727  0.8099
  817MOL0     H 7825   3.133   9.748   7.142 -0.4995 -1.0986 -0.3533
  817MOL0     H 7826   2.864   8.862   6.890  2.0880 -1.5783  1.0356
  817MOL0     H 7827   2.816   8.648   6.792  0.1749  0.2887  0.3443
  817MOL0     H 7828   2.973   8.378   6.227  0.6270  0.5358  1.2170
  817MOL0     H 7829   2.950   8.121   6.178 -0.8106 -0.7312 -0.2075
  817MOL0     H 7830   2.313   7.493   6.604 -1.8784 -0.4994 -0.5109
  817MOL0     H 7831   2.387   7.391   6.801 -0.0316  0.7305  0.5665
  817MOL0     H 7832   2.251   7.464   7.287 -0.2983 -0.4847 -0.2976
  817MOL0     H 7833   2.238   7.392   7.516  1.4912  2.7692 -1.4128
  817MOL0     H 7834   2.381   6.939   7.588  0.3572 -0.7660  1.7729
  817MOL0     H 7835   2.363   6.996   7.751  0.1359  0.1073 -0.2728
  817MOL0     H 7836   2.572   7.125   7.564  1.6032  1.0381  0.0465
  817MOL0     H 7837   2.533   7.160   7.731  1.3286  0.8036 -1.0088
  817MOL0     H 7838   2.634   6.894   7.625 -0.5942 -0.1135  0.7862
  817MOL0     H 7839   2.612   6.913   7.802 -1.5694  0.2711  1.2738
  817MOL0     H 7840   2.847   6.931   7.722  0.8716  0.2913  1.4407
  817MOL0     H 7841   2.807   7.093   7.656  0.8173 -0.7034 -0.4221
  817MOL0     H 7842   2.769   7.135   8.082 -1.2852 -3.0526  0.1970
  817MOL0     H 7843   2.436   7.023   7.378 -0.2065 -0.3429 -1.2200
  817MOL0     H 7844   2.472   7.120   7.176 -2.2697 -0.6403 -0.2901
  818MOL0     O 7845   4.044   0.281   0.149  0.0231  0.3214  0.0390
  818MOL0     C 7846   3.935   0.274   0.084 -0.6234 -0.3012  0.9661
  818MOL0     O 7847   3.875   0.383   0.020 -0.1512  0.3301  0.1433
  818MOL0     C 7848   3.957   0.494   0.016 -0.1648 -0.8811  0.1555
  818MOL0     C 7849   3.934   0.609   0.090  0.1468 -0.4408 -0.7350
  818MOL0     C 7850   4.017   0.721   0.072 -0.3533  0.2601 -0.1137
  818MOL0     C 7851   4.116   0.715  -0.025 -0.6101  0.1710 -1.2233
  818MOL0     O 7852   4.199   0.823  -0.050  0.7446 -0.6829  0.0300
  818MOL0     C 7853   4.172   0.940   0.033  0.6322  0.1262 -0.6519
  818MOL0     C 7854   4.275   1.043  -0.009 -0.0048  0.8688  0.6505
  818MOL0     C 7855   4.237   1.175   0.057 -0.5354 -0.6573 -0.1884
  818MOL0     C 7856   4.352   1.285   0.032  0.8804  0.1052  0.6199
  818MOL0     C 7857   4.323   1.399   0.132 -0.1885 -0.0676  0.2068
  818MOL0     C 7858   4.413   1.526   0.097  1.4288  0.5414 -0.3796
  818MOL0     C 7859   4.426   1.613   0.234 -0.2572  0.2315 -0.1515
  818MOL0     C 7860   4.538   1.728   0.218 -0.1301  1.0403 -0.3541
  818MOL0     N 7861   4.558   1.811   0.339  0.7582 -0.1721 -0.1422
  818MOL0     C 7862   4.547   1.749   0.464  0.2071 -0.9986 -0.1583
  818MOL0     C 7863   4.528   1.847   0.553  0.0582 -0.2137  1.1469
  818MOL0     C 7864   4.524   1.832   0.705  0.2947  0.4026 -0.5259
  818MOL0     C 7865   4.385   1.801   0.758  0.3132 -1.2678 -0.0120
  818MOL0     C 7866   4.391   1.678   0.845  0.1890  0.6785  0.9459
  818MOL0     C 7867   4.395   1.541   0.776 -0.4376  0.3512 -0.4090
  818MOL0     O 7868   4.498   1.523   0.688  0.7989 -0.0084  0.2144
  818MOL0     C 7869   4.506   1.408   0.614 -1.1076 -0.4630 -0.3455
  818MOL0     C 7870   4.418   1.300   0.628  0.7192 -0.3441 -0.0072
  818MOL0     C 7871   4.426   1.186   0.556  0.4337 -0.1911  0.3459
  818MOL0     C 7872   4.530   1.167   0.457  0.2126  0.8293 -0.5788
  818MOL0     C 7873   4.542   1.042   0.373  0.4249  0.2962  0.3414
  818MOL0     O 7874   4.452   0.944   0.386  0.1425 -0.2407 -0.2763
  818MOL0     C 7875   4.461   0.829   0.312  1.7548  0.4096  0.7170
  818MOL0     C 7876   4.344   0.757   0.280 -0.1925  0.3704  0.1871
  818MOL0     C 7877   4.346   0.628   0.214 -0.3298 -0.1092 -0.7374
  818MOL0     C 7878   4.466   0.562   0.196  0.0585  0.5176  0.3396
  818MOL0     O 7879   4.491   0.427   0.158  0.0718  1.1150 -0.1177
  818MOL0     C 7880   4.387   0.331   0.195 -0.4789  0.8236  0.7525
  818MOL0     C 7881   4.457   0.206   0.258 -0.0484 -0.6738  0.9273
  818MOL0     C 7882   4.561   0.137   0.151  0.3747 -0.4709 -0.4997
  818MOL0     C 7883   4.638   0.028   0.216 -0.3748  0.2543 -0.5192
  818MOL0     C 7884   4.769  -0.005   0.137  0.1161 -0.1623  0.3054
  818MOL0     C 7885   4.808  -0.149   0.169 -0.5001 -0.2940  0.5157
  818MOL0     C 7886   4.952  -0.171   0.134  0.1780  0.3224 -0.6788
  818MOL0     C 7887   4.972  -0.309   0.086  0.6674 -1.0383 -0.2487
  818MOL0    Cl 7888   4.937  -0.435   0.214  0.7187  0.0694 -0.3169
  818MOL0     C 7889   4.574   0.643   0.208  0.1577 -0.0634 -0.1968
  818MOL0     C 7890   4.583   0.773   0.265  0.9577  0.7319  0.1216
  818MOL0     O 7891   4.635   1.046   0.296 -0.7107  0.2238 -0.0384
  818MOL0     C 7892   4.618   1.272   0.436  0.3756  0.2607 -0.9330
  818MOL0     C 7893   4.605   1.390   0.516  0.0408  0.5575  0.1472
  818MOL0     N 7894   4.506   1.968   0.487 -0.0626  0.2546  0.4066
  818MOL0     N 7895   4.530   1.944   0.357 -0.7189  0.5639  0.3974
  818MOL0     C 7896   4.134   0.609  -0.110 -0.3317 -0.3537 -0.2299
  818MOL0     C 7897   4.058   0.490  -0.084  0.2036 -0.4443  0.6822
  818MOL0     C 7898   3.871   0.145   0.069 -0.0794 -0.4276  0.8673
  818MOL0     C 7899   3.763   0.136  -0.025  0.0478  0.6457 -0.0274
  818MOL0     C 7900   3.695   0.012  -0.052 -1.0219  0.6572  0.2941
  818MOL0     C 7901   3.730  -0.094   0.032  0.4696  0.3611  0.1290
  818MOL0     O 7902   3.647  -0.204   0.014  0.0930  0.0663  0.2408
  818MOL0     C 7903   3.685  -0.316   0.096  0.6391 -0.1777  0.3879
  818MOL0     C 7904   3.586  -0.431   0.075  0.2033 -0.5435  0.1100
  818MOL0     C 7905   3.641  -0.570   0.098 -0.3130 -0.0188 -0.2836
  818MOL0     C 7906   3.545  -0.692   0.101 -0.7124  0.0180  0.7571
  818MOL0     C 7907   3.465  -0.718  -0.026 -0.1452 -0.1450 -1.4010
  818MOL0     C 7908   3.397  -0.735  -0.122 -0.6652  1.1222 -0.0874
  818MOL0     C 7909   3.836  -0.093   0.128 -0.7103 -0.5137 -0.5629
  818MOL0     C 7910   3.909   0.028   0.138 -0.0636 -0.5926 -0.3950
  818MOL0     H 7911   3.860   0.618   0.168 -1.2002  0.2061 -2.0368
  818MOL0     H 7912   3.991   0.806   0.134  0.8127 -0.3261  1.2635
  818MOL0     H 7913   4.187   0.918   0.139 -1.0895  1.0786 -0.1781
  818MOL0     H 7914   4.072   0.982   0.016  0.1507  0.3254  2.2162
  818MOL0     H 7915   4.279   1.054  -0.118  1.3507  2.9255  0.8462
  818MOL0     H 7916   4.374   1.007   0.018 -0.5867 -1.0077  0.4444
  818MOL0     H 7917   4.225   1.155   0.164 -1.9582  0.8094 -0.0369
  818MOL0     H 7918   4.141   1.211   0.020  0.2134 -0.0887 -1.6480
  818MOL0     H 7919   4.446   1.240   0.066  2.8433  1.4898 -2.6056
  818MOL0     H 7920   4.369   1.324  -0.068 -0.1545  1.1060  0.8171
  818MOL0     H 7921   4.335   1.370   0.237 -0.4734 -2.0334 -0.2791
  818MOL0     H 7922   4.216   1.418   0.121 -0.4250 -0.7420  1.2118
  818MOL0     H 7923   4.369   1.586   0.017  4.3022  1.1167 -1.6754
  818MOL0     H 7924   4.513   1.500   0.062  2.3596  2.4107  0.7172
  818MOL0     H 7925   4.331   1.660   0.262 -0.1119  2.0699 -2.4161
  818MOL0     H 7926   4.463   1.552   0.316  0.5071  1.8564  0.7755
  818MOL0     H 7927   4.510   1.787   0.130 -2.5560  0.9945  0.2945
  818MOL0     H 7928   4.637   1.684   0.201  0.1400  0.6813  1.8605
  818MOL0     H 7929   4.546   1.645   0.496 -1.2164 -0.7098  0.8098
  818MOL0     H 7930   4.557   1.922   0.756  0.6327 -0.3939  0.7054
  818MOL0     H 7931   4.588   1.751   0.741 -0.9960  0.9953  3.6249
  818MOL0     H 7932   4.312   1.775   0.681 -1.8597  0.5973  1.2936
  818MOL0     H 7933   4.346   1.888   0.811 -2.3058 -2.3865  0.0977
  818MOL0     H 7934   4.477   1.695   0.910  0.4782 -0.7396  0.9635
  818MOL0     H 7935   4.303   1.664   0.909 -1.9141 -2.0833 -2.1604
  818MOL0     H 7936   4.299   1.531   0.723 -1.7404  3.1107  1.2041
  818MOL0     H 7937   4.398   1.462   0.851  0.6139  1.8863  1.2406
  818MOL0     H 7938   4.334   1.303   0.697 -0.3695 -1.8001 -1.1935
  818MOL0     H 7939   4.350   1.110   0.567 -2.3048  1.6728 -3.3690
  818MOL0     H 7940   4.250   0.769   0.332 -0.3095 -1.0387  0.3562
  818MOL0     H 7941   4.249   0.579   0.212 -0.8653  0.9406 -0.8314
  818MOL0     H 7942   4.330   0.306   0.105 -0.8043  2.5347  0.4507
  818MOL0     H 7943   4.332   0.378   0.277  1.0451  2.0857  1.0961
  818MOL0     H 7944   4.379   0.139   0.295 -1.5237  0.8091  0.6326
  818MOL0     H 7945   4.524   0.231   0.340 -0.0045  1.2699  0.3402
  818MOL0     H 7946   4.639   0.208   0.123  2.5260 -1.9001  1.4917
  818MOL0     H 7947   4.515   0.091   0.063  0.4888 -0.4507 -0.5682
  818MOL0     H 7948   4.688   0.069   0.304  1.6398 -5.1373  1.2196
  818MOL0     H 7949   4.585  -0.066   0.233  0.3994 -0.3680 -1.3929
  818MOL0     H 7950   4.845   0.073   0.149 -3.2902  3.7895 -1.5729
  818MOL0     H 7951   4.741  -0.010   0.032 -2.2782 -3.8735  0.9438
  818MOL0     H 7952   4.741  -0.215   0.114  3.7035 -2.8073 -2.1411
  818MOL0     H 7953   4.788  -0.167   0.275 -2.8984  0.5936  0.2788
  818MOL0     H 7954   4.981  -0.101   0.055  2.1802 -0.4135 -0.6544
  818MOL0     H 7955   5.018  -0.152   0.219 -0.8916  2.1208 -0.1980
  818MOL0     H 7956   5.081  -0.310   0.075  1.0057 -0.8224  2.3841
  818MOL0     H 7957   4.912  -0.338  -0.000 -1.3658 -1.5445  1.2616
  818MOL0     H 7958   4.673   0.600   0.193  0.3071  1.1271 -3.2094
  818MOL0     H 7959   4.677   0.818   0.292  1.5031 -1.0299  1.3270
  818MOL0     H 7960   4.697   1.269   0.361  0.4051 -0.5616 -0.8737
  818MOL0     H 7961   4.680   1.468   0.501 -0.9751  1.2847 -1.3722
  818MOL0     H 7962   4.215   0.613  -0.182  0.3737  4.4602  0.5098
  818MOL0     H 7963   4.063   0.397  -0.140 -0.1105 -0.3871  0.5554
  818MOL0     H 7964   3.723   0.230  -0.063  1.2480  2.1893  2.2723
  818MOL0     H 7965   3.627   0.002  -0.137  0.3769  0.2361 -0.8222
  818MOL0     H 7966   3.687  -0.294   0.203 -1.4403  2.4898 -0.0224
  818MOL0     H 7967   3.789  -0.340   0.073  0.4811 -0.6066  0.0983
  818MOL0     H 7968   3.508  -0.403   0.146  0.5870 -2.9452  1.5919
  818MOL0     H 7969   3.554  -0.416  -0.029  0.4328 -0.0219  0.1115
  818MOL0     H 7970   3.690  -0.581   0.196 -0.1985 -0.6061 -0.3991
  818MOL0     H 7971   3.714  -0.602   0.022 -1.5903 -2.3345 -0.6304
  818MOL0     H 7972   3.590  -0.791   0.107 -3.3139 -1.3104 -0.0290
  818MOL0     H 7973   3.469  -0.669   0.177 -2.6386  1.9020 -1.5601
  818MOL0     H 7974   3.337  -0.756  -0.209  0.5887 -0.7107 -0.5762
  818MOL0     H 7975   3.873  -0.165   0.200  1.0167  1.3542  0.5379
  818MOL0     H 7976   3.987   0.035   0.213 -1.1271 -1.3390  0.8212
  819MOL0     O 7977  10.249  10.307   1.869 -0.1022  0.0675  0.1148
  819MOL0     C 7978  10.188  10.412   1.845 -0.2945 -0.0922  0.6341
  819MOL0     O 7979  10.183  10.479   1.725 -1.2792 -0.6954 -0.0411
  819MOL0     C 7980  10.239  10.420   1.608  0.2125 -0.3809 -0.0763
  819MOL0     C 7981  10.156  10.375   1.507 -0.1835  0.6306 -0.3220
  819MOL0     C 7982  10.209  10.299   1.397 -1.0408 -0.3907 -0.1319
  819MOL0     C 7983  10.350  10.284   1.385  0.5340  0.5280 -0.5904
  819MOL0     O 7984  10.394  10.227   1.269  0.3807 -0.0850 -0.3353
  819MOL0     C 7985  10.531  10.198   1.256 -0.3522  0.8936 -0.3389
  819MOL0     C 7986  10.558  10.151   1.111  0.3571  0.1130 -0.1439
  819MOL0     C 7987  10.527  10.260   1.008  0.5082  1.0355 -0.2679
  819MOL0     C 7988  10.544  10.223   0.865 -0.1827  0.3260 -0.2755
  819MOL0     C 7989  10.557  10.351   0.778 -0.3650 -0.3084 -0.3250
  819MOL0     C 7990  10.548  10.315   0.631  0.0538 -0.8982 -0.0374
  819MOL0     C 7991  10.550  10.442   0.542  0.5951  0.1666  0.2111
  819MOL0     C 7992  10.682  10.491   0.503  0.5893 -0.5348  0.2350
  819MOL0     N 7993  10.771  10.557   0.594  1.4785  0.3268 -0.0378
  819MOL0     C 7994  10.873  10.496   0.654  0.3601  0.0609 -0.1647
  819MOL0     C 7995  10.913  10.581   0.757  0.0762 -0.2890  0.5332
  819MOL0     C 7996  11.018  10.569   0.863  0.1965 -0.7901  1.0017
  819MOL0     C 7997  10.959  10.566   1.003  0.3804 -0.3087 -0.0463
  819MOL0     C 7998  11.048  10.617   1.120  0.0670  0.0940 -0.0509
  819MOL0     C 7999  11.170  10.536   1.171 -0.3543 -0.2156  0.2013
  819MOL0     O 8000  11.139  10.397   1.210 -0.5079 -0.6076  0.0515
  819MOL0     C 8001  11.231  10.296   1.222  0.1638 -0.8187 -0.0911
  819MOL0     C 8002  11.181  10.165   1.212 -0.2364 -0.9902  0.0170
  819MOL0     C 8003  11.259  10.045   1.202 -0.1866 -0.4211  0.5266
  819MOL0     C 8004  11.398  10.075   1.180 -0.4816 -0.7315  0.1770
  819MOL0     C 8005  11.499   9.969   1.167  0.3580 -0.2574 -0.4026
  819MOL0     O 8006  11.445   9.852   1.133  0.1792  0.2870 -0.5426
  819MOL0     C 8007  11.526   9.750   1.085 -0.5246  0.3264 -1.0200
  819MOL0     C 8008  11.596   9.655   1.162  0.6117 -0.2514  0.3867
  819MOL0     C 8009  11.666   9.544   1.122  0.3095 -0.3953 -0.0316
  819MOL0     C 8010  11.663   9.520   0.985  0.2190  0.1572  0.3458
  819MOL0     O 8011  11.740   9.410   0.935 -0.0846  0.4621  0.1259
  819MOL0     C 8012  11.690   9.343   0.810  0.8171  0.0032  0.0219
  819MOL0     C 8013  11.807   9.341   0.713  0.0858 -0.4316 -0.2915
  819MOL0     C 8014  11.903   9.224   0.758  0.5468 -0.1968 -0.7348
  819MOL0     C 8015  11.831   9.087   0.746  0.8703  0.1311  0.4890
  819MOL0     C 8016  11.781   9.067   0.597 -0.3658  0.8850 -0.4774
  819MOL0     C 8017  11.707   8.928   0.570  0.0392  0.0885 -0.2906
  819MOL0     C 8018  11.680   8.911   0.417  1.0891 -0.2833 -0.5899
  819MOL0     C 8019  11.657   8.772   0.380  0.5376  0.0396 -0.7048
  819MOL0    Cl 8020  11.796   8.667   0.390 -0.2651 -0.1076 -0.0009
  819MOL0     C 8021  11.610   9.622   0.899  0.0256 -0.7347 -0.4591
  819MOL0     C 8022  11.534   9.730   0.954  0.3649 -0.2569 -0.1938
  819MOL0     O 8023  11.619   9.996   1.173  0.0115  0.0591  0.5284
  819MOL0     C 8024  11.450  10.211   1.174  0.1235 -0.3315 -0.4432
  819MOL0     C 8025  11.367  10.319   1.201  0.1642  0.5187 -0.6906
  819MOL0     N 8026  10.832  10.689   0.747  0.4132  0.6633  0.5888
  819MOL0     N 8027  10.742  10.678   0.651 -0.0025  0.2560 -0.1373
  819MOL0     C 8028  10.428  10.326   1.493 -0.4052  0.5670  0.3669
  819MOL0     C 8029  10.371  10.389   1.597 -0.4265 -0.3808 -0.6344
  819MOL0     C 8030  10.102  10.465   1.946 -1.0572 -0.4031 -0.2564
  819MOL0     C 8031  10.076  10.385   2.061  0.3565 -0.2014  0.4305
  819MOL0     C 8032   9.992  10.435   2.161 -0.3059  0.4433 -0.1702
  819MOL0     C 8033   9.949  10.564   2.159  0.2819  0.2736  0.1361
  819MOL0     O 8034   9.875  10.632   2.258  0.1511  0.2670 -0.5551
  819MOL0     C 8035   9.810  10.553   2.352 -0.2337 -1.3501  0.5309
  819MOL0     C 8036   9.705  10.640   2.419 -0.4788  0.4401  0.6737
  819MOL0     C 8037   9.629  10.571   2.530  0.1266 -0.4027 -0.7004
  819MOL0     C 8038   9.510  10.646   2.583  0.0716  0.0278 -0.1578
  819MOL0     C 8039   9.449  10.570   2.689 -0.7203 -0.6233 -0.5023
  819MOL0     C 8040   9.408  10.495   2.782  0.5153  0.2119  0.3959
  819MOL0     C 8041   9.988  10.648   2.052  0.1192 -0.1590 -0.5862
  819MOL0     C 8042  10.064  10.602   1.947  0.8832  0.0632  0.3145
  819MOL0     H 8043  10.049  10.382   1.526 -0.2426  0.3795 -0.5483
  819MOL0     H 8044  10.151  10.254   1.317 -1.6236  0.2940 -0.1087
  819MOL0     H 8045  10.560  10.122   1.329 -2.5277 -1.3186 -1.6500
  819MOL0     H 8046  10.583  10.291   1.282 -0.0838  0.1530  1.9973
  819MOL0     H 8047  10.490  10.070   1.084 -1.9421  2.0079 -0.4247
  819MOL0     H 8048  10.663  10.123   1.103 -0.0177 -1.0673 -1.3121
  819MOL0     H 8049  10.583  10.351   1.030  0.1985  0.7889  1.7015
  819MOL0     H 8050  10.419  10.274   1.019  0.8465  2.0714  2.7804
  819MOL0     H 8051  10.630  10.155   0.861 -1.4828 -1.4780  0.9604
  819MOL0     H 8052  10.466  10.154   0.832  2.1563 -1.1472 -3.2879
  819MOL0     H 8053  10.655  10.391   0.803 -1.4042  2.2992 -0.0872
  819MOL0     H 8054  10.474  10.416   0.809  0.7259  0.7624  0.4680
  819MOL0     H 8055  10.451  10.264   0.623 -1.0087  0.7554  1.5637
  819MOL0     H 8056  10.625  10.243   0.601 -0.2762 -1.2368 -0.0852
  819MOL0     H 8057  10.488  10.413   0.456 -0.1610 -3.1487  1.7259
  819MOL0     H 8058  10.487  10.519   0.587  1.5922  1.0278  0.1585
  819MOL0     H 8059  10.671  10.559   0.418  0.2332 -0.7071  0.1398
  819MOL0     H 8060  10.726  10.400   0.462 -1.1316 -1.0770 -0.4849
  819MOL0     H 8061  10.902  10.395   0.626 -1.0005  0.0065 -1.5104
  819MOL0     H 8062  11.090  10.651   0.857  1.9738 -2.1380  2.8060
  819MOL0     H 8063  11.063  10.470   0.853 -2.4672 -1.9856 -0.2365
  819MOL0     H 8064  10.930  10.461   1.017  0.1260 -0.1774  0.4286
  819MOL0     H 8065  10.867  10.625   1.006  1.7618  1.9388  0.9612
  819MOL0     H 8066  11.086  10.715   1.090 -0.8161  0.4920  0.1062
  819MOL0     H 8067  10.987  10.623   1.210 -1.8804  1.0113 -1.3797
  819MOL0     H 8068  11.212  10.583   1.260 -0.0496 -0.6653  0.3009
  819MOL0     H 8069  11.247  10.549   1.094  0.0723  2.1724  0.9463
  819MOL0     H 8070  11.074  10.152   1.218 -0.3216 -0.2366  0.3011
  819MOL0     H 8071  11.212   9.948   1.196 -0.1012 -0.4578  0.4401
  819MOL0     H 8072  11.595   9.665   1.270  1.4012 -0.9118  0.4631
  819MOL0     H 8073  11.710   9.474   1.193 -1.2006 -1.4271 -0.0625
  819MOL0     H 8074  11.608   9.404   0.774  0.5563  0.2496  0.9964
  819MOL0     H 8075  11.636   9.251   0.833  0.5372  0.3003  0.5584
  819MOL0     H 8076  11.861   9.436   0.711  1.2380 -0.9828  1.7985
  819MOL0     H 8077  11.756   9.330   0.616 -0.1735  2.3330 -0.5640
  819MOL0     H 8078  11.927   9.245   0.863 -1.0805 -1.1322 -0.1398
  819MOL0     H 8079  11.994   9.221   0.696 -0.1824 -2.2455 -1.7890
  819MOL0     H 8080  11.903   9.006   0.763  3.3179  1.8593 -0.9187
  819MOL0     H 8081  11.746   9.085   0.815 -0.4414  2.1044 -0.9856
  819MOL0     H 8082  11.871   9.059   0.535 -0.2522 -0.0786 -0.2034
  819MOL0     H 8083  11.715   9.148   0.565  1.9189  3.0550 -0.0190
  819MOL0     H 8084  11.614   8.919   0.627  1.2088  2.1603  2.1425
  819MOL0     H 8085  11.766   8.848   0.616  2.3575  1.7887 -0.1481
  819MOL0     H 8086  11.594   8.972   0.386  2.5958  1.5538 -1.3820
  819MOL0     H 8087  11.762   8.965   0.368 -1.8039  3.1544 -2.1728
  819MOL0     H 8088  11.607   8.764   0.283  0.5509 -3.1483 -0.5606
  819MOL0     H 8089  11.582   8.739   0.452 -2.3844  3.8785 -1.6800
  819MOL0     H 8090  11.635   9.621   0.793 -4.5974  0.8677 -1.8052
  819MOL0     H 8091  11.499   9.809   0.889 -2.6276 -1.0167  0.3499
  819MOL0     H 8092  11.552  10.244   1.158 -0.7066  2.1462 -1.1422
  819MOL0     H 8093  11.407  10.420   1.194  1.9908 -0.2557 -3.4418
  819MOL0     H 8094  10.533  10.298   1.499 -0.9963 -1.8068  0.7315
  819MOL0     H 8095  10.423  10.435   1.680 -0.3171  0.1703 -0.9992
  819MOL0     H 8096  10.107  10.282   2.071 -1.2999 -0.6099  1.7969
  819MOL0     H 8097   9.952  10.388   2.251 -1.1687  0.8724 -0.3205
  819MOL0     H 8098   9.878  10.513   2.428  0.7803  2.6639  1.9979
  819MOL0     H 8099   9.768  10.464   2.304 -0.3487 -0.6805 -0.6327
  819MOL0     H 8100   9.753  10.728   2.464  1.5027 -1.0061  1.5315
  819MOL0     H 8101   9.630  10.677   2.349 -0.6370  1.6489  1.4403
  819MOL0     H 8102   9.695  10.541   2.612 -0.4383 -0.1208 -0.1342
  819MOL0     H 8103   9.586  10.477   2.494 -1.7423 -0.6059  1.8591
  819MOL0     H 8104   9.541  10.743   2.625  1.5509 -1.0021  1.2665
  819MOL0     H 8105   9.434  10.683   2.514 -1.8276 -0.5941  1.5099
  819MOL0     H 8106   9.381  10.421   2.855  0.4244  0.4751  0.6320
  819MOL0     H 8107   9.967  10.754   2.068 -0.9521 -0.4647  0.1485
  819MOL0     H 8108  10.111  10.656   1.865 -1.9924 -1.9657 -2.9256
  820MOL0     O 8109   1.396   7.208   5.904  0.0807 -0.0855  0.0263
  820MOL0     C 8110   1.324   7.248   5.813 -0.5661 -0.7996 -0.3005
  820MOL0     O 8111   1.187   7.267   5.820  1.1738  0.3694  0.4569
  820MOL0     C 8112   1.127   7.320   5.928  0.0677 -0.4919 -0.5906
  820MOL0     C 8113   1.186   7.380   6.051  1.0104 -0.0271  0.2811
  820MOL0     C 8114   1.108   7.430   6.154 -0.8763 -0.3777 -0.1667
  820MOL0     C 8115   0.972   7.428   6.149 -0.9154 -0.4753  0.1508
  820MOL0     O 8116   0.913   7.465   6.260 -0.4907  0.5416 -0.0379
  820MOL0     C 8117   0.804   7.552   6.260 -0.3750 -0.7918 -0.6508
  820MOL0     C 8118   0.751   7.549   6.395  0.7658 -0.5030  0.0708
  820MOL0     C 8119   0.867   7.555   6.500  0.1239 -0.3876 -0.3848
  820MOL0     C 8120   0.915   7.698   6.522 -0.2803  0.3923 -0.0615
  820MOL0     C 8121   1.041   7.714   6.618 -0.3008 -0.1531 -0.9805
  820MOL0     C 8122   1.175   7.686   6.556 -0.4488  0.5163  0.0477
  820MOL0     C 8123   1.268   7.635   6.667 -0.1672  0.4697  0.5689
  820MOL0     C 8124   1.410   7.618   6.606  0.1600 -0.2526 -0.1141
  820MOL0     N 8125   1.465   7.745   6.565  0.0236  0.4029  0.1814
  820MOL0     C 8126   1.500   7.847   6.649  0.4449 -0.9630 -0.2146
  820MOL0     C 8127   1.591   7.924   6.582  0.5977 -0.1149 -1.0835
  820MOL0     C 8128   1.655   8.047   6.630  0.1802 -0.7767  0.2491
  820MOL0     C 8129   1.807   8.061   6.612 -0.1734 -0.2716 -0.2937
  820MOL0     C 8130   1.872   7.962   6.705 -0.4219 -0.3463 -0.9817
  820MOL0     C 8131   1.869   8.007   6.850 -0.2562 -0.9831  0.0176
  820MOL0     O 8132   1.949   8.124   6.865  0.3252  0.8352 -0.3028
  820MOL0     C 8133   1.973   8.188   6.983 -0.0442 -0.3584  0.8539
  820MOL0     C 8134   2.048   8.305   6.981 -0.8061  0.2555  0.5282
  820MOL0     C 8135   2.085   8.365   7.099  0.2300 -0.9207  0.3668
  820MOL0     C 8136   2.045   8.318   7.218  0.8071 -0.1563  0.6804
  820MOL0     C 8137   2.081   8.383   7.346  0.1754  0.3763  0.1428
  820MOL0     O 8138   2.030   8.322   7.457  0.2497 -0.4412 -0.3548
  820MOL0     C 8139   2.041   8.369   7.584 -0.8281  0.1481  0.1537
  820MOL0     C 8140   1.922   8.331   7.650 -0.5694  0.4317 -0.3681
  820MOL0     C 8141   1.903   8.355   7.785 -0.0329 -0.4526 -0.8060
  820MOL0     C 8142   2.008   8.421   7.855 -0.4790 -0.0702  0.1672
  820MOL0     O 8143   2.007   8.422   7.989 -0.1554 -0.6324 -0.3163
  820MOL0     C 8144   2.126   8.380   8.059  0.7529 -0.1167 -0.9670
  820MOL0     C 8145   2.071   8.333   8.200  0.2985 -0.0294  0.3923
  820MOL0     C 8146   2.066   8.444   8.314  0.1239  0.2265 -0.2771
  820MOL0     C 8147   1.959   8.551   8.295 -0.2425  0.0448 -0.3329
  820MOL0     C 8148   2.008   8.659   8.407 -0.6314 -0.1694  0.4965
  820MOL0     C 8149   1.926   8.790   8.396  0.4191  0.9456  0.7792
  820MOL0     C 8150   1.959   8.913   8.493 -0.5620  0.6087  0.0376
  820MOL0     C 8151   2.097   8.982   8.492  0.4942 -0.2063 -0.4238
  820MOL0    Cl 8152   2.227   8.881   8.561  0.0553  0.3421  0.0833
  820MOL0     C 8153   2.122   8.467   7.782 -0.1432 -0.0065 -0.0151
  820MOL0     C 8154   2.139   8.434   7.655 -0.4619 -0.6241  0.8549
  820MOL0     O 8155   2.124   8.494   7.343  0.0045  0.3537 -0.1353
  820MOL0     C 8156   1.971   8.203   7.222  0.1125  0.1807  0.4286
  820MOL0     C 8157   1.932   8.141   7.103 -0.7781 -0.6103  0.4446
  820MOL0     N 8158   1.588   7.871   6.447 -0.1151  0.4700  0.1769
  820MOL0     N 8159   1.511   7.773   6.443  0.0955 -0.7983 -0.2681
  820MOL0     C 8160   0.911   7.378   6.033 -0.6184 -0.5337  0.4650
  820MOL0     C 8161   0.985   7.328   5.923 -0.4260 -0.3764 -0.4653
  820MOL0     C 8162   1.377   7.262   5.676  1.2088  0.2546  0.3436
  820MOL0     C 8163   1.516   7.243   5.656  0.2759 -0.7531  0.3325
  820MOL0     C 8164   1.567   7.240   5.520 -0.5233 -0.3486 -0.4190
  820MOL0     C 8165   1.485   7.268   5.410 -0.5281 -0.5647  0.4024
  820MOL0     O 8166   1.522   7.256   5.275  0.2254 -0.2519  0.5071
  820MOL0     C 8167   1.661   7.276   5.251 -0.0488 -0.6400 -0.0488
  820MOL0     C 8168   1.681   7.269   5.100 -0.8418 -0.6391  0.2994
  820MOL0     C 8169   1.618   7.140   5.031 -1.1699  0.1816 -0.5799
  820MOL0     C 8170   1.623   7.127   4.879  0.2513  0.2227  0.7046
  820MOL0     C 8171   1.498   7.179   4.832  0.9580  0.3605 -0.0923
  820MOL0     C 8172   1.384   7.212   4.803  0.3356  0.2719  0.0118
  820MOL0     C 8173   1.348   7.292   5.427  0.2293  0.2552 -0.4669
  820MOL0     C 8174   1.296   7.291   5.556 -0.4867  0.2042 -0.0114
  820MOL0     H 8175   1.295   7.384   6.046  1.0504 -1.5696 -1.3988
  820MOL0     H 8176   1.163   7.475   6.236  0.0412  0.4091 -1.1741
  820MOL0     H 8177   0.736   7.524   6.180  0.1100  1.4664 -1.9266
  820MOL0     H 8178   0.840   7.650   6.228 -2.5578 -0.1615 -1.3377
  820MOL0     H 8179   0.690   7.458   6.405 -0.8053  0.7798  3.8116
  820MOL0     H 8180   0.679   7.630   6.411  0.3462 -1.0431  1.0354
  820MOL0     H 8181   0.945   7.482   6.475 -1.6776 -2.4185 -0.3342
  820MOL0     H 8182   0.818   7.531   6.595 -0.6064 -0.4202 -0.7634
  820MOL0     H 8183   0.926   7.751   6.427  1.1555 -0.1810 -0.2374
  820MOL0     H 8184   0.833   7.751   6.572 -2.6118 -3.7588  0.9647
  820MOL0     H 8185   1.030   7.652   6.707 -0.5338  1.7722  0.3904
  820MOL0     H 8186   1.042   7.815   6.660 -0.6308 -0.4472 -0.2632
  820MOL0     H 8187   1.207   7.778   6.506  0.2505  0.0272 -0.4294
  820MOL0     H 8188   1.177   7.611   6.477  1.1231  2.0312 -1.4633
  820MOL0     H 8189   1.270   7.712   6.745  2.3344 -0.0052  1.0520
  820MOL0     H 8190   1.229   7.547   6.720 -2.2283  1.3785  0.6767
  820MOL0     H 8191   1.400   7.560   6.514 -0.1061 -3.1381  1.6056
  820MOL0     H 8192   1.478   7.565   6.673 -0.8910 -1.9878 -0.3427
  820MOL0     H 8193   1.513   7.854   6.756  2.0646  2.6092 -0.4878
  820MOL0     H 8194   1.635   8.069   6.735  0.0425 -0.7155  0.2100
  820MOL0     H 8195   1.607   8.131   6.578 -1.9331 -0.4493  2.5341
  820MOL0     H 8196   1.839   8.165   6.626  3.8359 -1.7780  4.1178
  820MOL0     H 8197   1.827   8.029   6.509 -3.5124 -1.3242 -0.7448
  820MOL0     H 8198   1.828   7.862   6.699  0.5218 -0.7317 -1.7269
  820MOL0     H 8199   1.976   7.943   6.680 -0.2753  0.5152 -1.0770
  820MOL0     H 8200   1.908   7.927   6.914  1.9263  1.6551  2.2203
  820MOL0     H 8201   1.768   8.034   6.880  0.6564 -0.3654  2.8370
  820MOL0     H 8202   2.076   8.350   6.886  0.5295 -0.5446  0.5146
  820MOL0     H 8203   2.141   8.456   7.083 -1.0190 -0.3687 -1.1596
  820MOL0     H 8204   1.862   8.266   7.587  1.0488  0.7501 -2.3438
  820MOL0     H 8205   1.823   8.309   7.842  0.2017  1.8402  1.5970
  820MOL0     H 8206   2.190   8.468   8.075  2.7732 -1.6937  0.2127
  820MOL0     H 8207   2.181   8.299   8.010 -0.0013 -0.9335 -0.4925
  820MOL0     H 8208   2.131   8.246   8.229 -2.5267 -1.8821  1.0965
  820MOL0     H 8209   1.973   8.299   8.167  0.2298  1.8214 -1.5144
  820MOL0     H 8210   2.164   8.493   8.310  0.1540  0.0697 -1.9071
  820MOL0     H 8211   2.047   8.388   8.406  0.3650  2.7955  1.4367
  820MOL0     H 8212   1.949   8.604   8.199 -1.2281  0.2107 -0.1441
  820MOL0     H 8213   1.857   8.521   8.319 -0.4466  0.6140 -0.4741
  820MOL0     H 8214   2.113   8.682   8.387  0.1197 -1.3986  2.6993
  820MOL0     H 8215   1.992   8.614   8.506  0.0137  1.7909  1.5485
  820MOL0     H 8216   1.823   8.758   8.411 -0.3649  3.0036  0.0594
  820MOL0     H 8217   1.937   8.818   8.291  1.7337 -0.7043  0.4171
  820MOL0     H 8218   1.880   8.987   8.480 -0.5732  0.6092  0.1050
  820MOL0     H 8219   1.942   8.891   8.599 -0.2443 -1.6354 -0.3217
  820MOL0     H 8220   2.097   9.074   8.550  1.8690 -0.7896  0.5584
  820MOL0     H 8221   2.119   8.993   8.385  0.2962 -1.3163 -0.5974
  820MOL0     H 8222   2.200   8.524   7.832 -2.3257  1.7640  1.5949
  820MOL0     H 8223   2.235   8.467   7.617  1.3292 -0.2590  5.1213
  820MOL0     H 8224   1.945   8.160   7.318  2.0602 -1.1724  0.4215
  820MOL0     H 8225   1.860   8.063   7.128 -3.1548  0.6626 -1.9396
  820MOL0     H 8226   0.803   7.363   6.026 -0.8624  1.5503 -1.4609
  820MOL0     H 8227   0.931   7.290   5.837  0.5747  2.3098 -2.4200
  820MOL0     H 8228   1.590   7.236   5.735  0.8174  1.8157  0.1436
  820MOL0     H 8229   1.673   7.219   5.511  0.2614  3.1311 -0.6816
  820MOL0     H 8230   1.721   7.196   5.297 -0.3405 -0.6928  0.2479
  820MOL0     H 8231   1.705   7.365   5.295  1.1173  0.1215 -2.5819
  820MOL0     H 8232   1.630   7.352   5.051  0.3108  0.1940  0.4464
  820MOL0     H 8233   1.785   7.282   5.066 -1.4947 -1.9600 -2.5197
  820MOL0     H 8234   1.521   7.120   5.077  0.7361 -3.2358  2.5175
  820MOL0     H 8235   1.657   7.045   5.068 -2.2090  0.7411  2.1927
  820MOL0     H 8236   1.701   7.181   4.824  1.1432 -2.2978 -0.6239
  820MOL0     H 8237   1.639   7.023   4.851 -3.1855 -0.3193  0.3594
  820MOL0     H 8238   1.294   7.253   4.763  0.4244  1.3348  0.8514
  820MOL0     H 8239   1.289   7.300   5.336 -0.5470 -2.3093 -0.2795
  820MOL0     H 8240   1.189   7.304   5.566 -1.3760 -3.2264 -2.9644
  821MOL0     O 8241   3.110   6.879   7.598  0.0727 -0.4364 -0.2310
  821MOL0     C 8242   3.223   6.851   7.635  0.3005 -0.2960  0.1448
  821MOL0     O 8243   3.292   6.923   7.724 -0.2721 -0.3223 -0.4472
  821MOL0     C 8244   3.243   7.057   7.734  0.4362  0.7737 -0.9568
  821MOL0     C 8245   3.247   7.159   7.639 -0.4610  0.2605  0.1680
  821MOL0     C 8246   3.210   7.286   7.672  0.1480 -0.6266 -0.6204
  821MOL0     C 8247   3.178   7.332   7.799 -0.1606 -0.5593  0.2058
  821MOL0     O 8248   3.153   7.464   7.827  0.1406 -0.2836  0.3177
  821MOL0     C 8249   3.061   7.508   7.934 -0.6143  0.0422 -0.0843
  821MOL0     C 8250   3.011   7.653   7.919 -0.3780  0.4992  0.2015
  821MOL0     C 8251   2.917   7.687   8.036  0.1648  0.0327 -0.2868
  821MOL0     C 8252   2.902   7.839   8.050  0.5460 -1.0775 -0.0732
  821MOL0     C 8253   2.851   7.878   8.182  0.2010 -0.5187 -0.5861
  821MOL0     C 8254   2.704   7.829   8.212 -0.2766 -0.2221  0.6284
  821MOL0     C 8255   2.640   7.940   8.299 -0.1963  0.3782  0.4405
  821MOL0     C 8256   2.720   8.001   8.415 -0.7641  0.3243  0.5198
  821MOL0     N 8257   2.780   7.897   8.500  0.2048 -0.9117 -0.2195
  821MOL0     C 8258   2.805   7.925   8.628 -0.6387  0.9411 -0.1010
  821MOL0     C 8259   2.832   7.804   8.695 -0.1833 -0.4544  0.8256
  821MOL0     C 8260   2.875   7.779   8.830  0.1279 -1.0264  0.2395
  821MOL0     C 8261   2.972   7.668   8.855  1.6461 -0.2564  0.9250
  821MOL0     C 8262   2.969   7.615   8.998 -1.4852  0.4867  0.6444
  821MOL0     C 8263   3.087   7.662   9.089  0.3594 -0.2178 -1.4071
  821MOL0     O 8264   3.056   7.802   9.122 -0.0221  0.1900  0.3521
  821MOL0     C 8265   3.156   7.868   9.199 -0.7002  0.5132 -0.5702
  821MOL0     C 8266   3.138   8.005   9.203 -0.3724 -0.5742  0.4778
  821MOL0     C 8267   3.231   8.083   9.273 -0.9226 -1.1911  0.0203
  821MOL0     C 8268   3.345   8.017   9.340  0.1143 -0.4250  0.8071
  821MOL0     C 8269   3.452   8.093   9.396 -0.5007  0.5499 -0.4717
  821MOL0     O 8270   3.544   8.023   9.483 -0.6520 -0.1128 -0.4093
  821MOL0     C 8271   3.650   8.097   9.532 -0.2001  0.2163  0.1248
  821MOL0     C 8272   3.678   8.114   9.668 -0.1981  0.4407  0.2216
  821MOL0     C 8273   3.794   8.190   9.709 -1.4576  0.1909 -0.3278
  821MOL0     C 8274   3.883   8.236   9.624 -0.1555  0.2415 -0.2505
  821MOL0     O 8275   4.005   8.288   9.659 -0.4425 -0.1619 -0.5459
  821MOL0     C 8276   4.032   8.331   9.793  0.0485  0.0878  0.5111
  821MOL0     C 8277   4.147   8.438   9.758 -0.2268 -0.5313 -1.0796
  821MOL0     C 8278   4.198   8.519   9.870  0.6975  0.0636 -0.9230
  821MOL0     C 8279   4.282   8.631   9.818 -0.8927 -0.8101 -0.4861
  821MOL0     C 8280   4.190   8.752   9.802  0.0346  0.4967  0.6747
  821MOL0     C 8281   4.275   8.880   9.795  0.7402  0.0557  0.1406
  821MOL0     C 8282   4.180   9.002   9.765 -0.1019 -0.7971  0.5107
  821MOL0     C 8283   4.276   9.121   9.768  0.3080  0.7185  0.6048
  821MOL0    Cl 8284   4.191   9.275   9.752 -0.3394  0.2543  0.3667
  821MOL0     C 8285   3.859   8.210   9.486 -0.1616  0.4083  0.1379
  821MOL0     C 8286   3.749   8.142   9.439 -0.0887 -0.3620 -0.0092
  821MOL0     O 8287   3.455   8.219   9.369 -0.3166 -0.4302 -0.2719
  821MOL0     C 8288   3.358   7.881   9.338 -0.2036 -0.1671  0.2283
  821MOL0     C 8289   3.268   7.806   9.274 -0.1094 -0.4165  0.1762
  821MOL0     N 8290   2.803   7.703   8.602  0.2147  0.3595 -0.5384
  821MOL0     N 8291   2.763   7.762   8.500  0.1036 -0.0996 -0.1314
  821MOL0     C 8292   3.177   7.233   7.898  0.1365  0.0913 -0.1330
  821MOL0     C 8293   3.205   7.101   7.866  0.2735  0.2570  0.2797
  821MOL0     C 8294   3.261   6.708   7.602 -1.1692 -0.0380  0.4605
  821MOL0     C 8295   3.385   6.655   7.650  0.1550 -0.3246 -0.2050
  821MOL0     C 8296   3.424   6.527   7.615  0.2392  0.8547  0.7316
  821MOL0     C 8297   3.339   6.440   7.543  0.2628  0.3167  0.0272
  821MOL0     O 8298   3.385   6.316   7.516  0.2852  0.5986  0.2516
  821MOL0     C 8299   3.286   6.223   7.465 -0.0750  0.3826 -0.5630
  821MOL0     C 8300   3.332   6.085   7.475 -0.1057 -0.2502  0.0462
  821MOL0     C 8301   3.462   6.056   7.390  0.0851 -0.7569 -0.4319
  821MOL0     C 8302   3.483   5.908   7.377  0.9768  0.4466 -0.1055
  821MOL0     C 8303   3.389   5.843   7.286 -0.8227  1.5609  0.2973
  821MOL0     C 8304   3.324   5.767   7.217 -0.8391  0.3330 -0.3123
  821MOL0     C 8305   3.218   6.495   7.492  0.1621  0.0216 -0.3095
  821MOL0     C 8306   3.179   6.631   7.514 -0.2085  0.2280  0.5493
  821MOL0     H 8307   3.279   7.138   7.537  0.9212 -0.6152  0.7615
  821MOL0     H 8308   3.220   7.369   7.604 -0.8436  2.0528  2.2466
  821MOL0     H 8309   3.098   7.483   8.034 -1.6250 -2.6781 -0.3184
  821MOL0     H 8310   2.978   7.438   7.922 -2.1677  1.9337 -1.0098
  821MOL0     H 8311   2.950   7.660   7.829 -1.0866 -1.6713  0.4774
  821MOL0     H 8312   3.099   7.718   7.923 -0.0082 -0.0835  2.0347
  821MOL0     H 8313   2.959   7.660   8.133 -0.3415  0.0636 -0.0595
  821MOL0     H 8314   2.821   7.640   8.019  0.3669 -0.2929 -0.5332
  821MOL0     H 8315   2.996   7.889   8.024 -1.0231  1.0947 -1.9906
  821MOL0     H 8316   2.840   7.872   7.966 -1.0406  1.1009  1.8295
  821MOL0     H 8317   2.853   7.987   8.185 -0.0502 -0.4777 -1.6186
  821MOL0     H 8318   2.922   7.846   8.259  0.6710  0.1414 -0.7421
  821MOL0     H 8319   2.698   7.729   8.256 -0.3006 -1.0776 -1.2472
  821MOL0     H 8320   2.637   7.825   8.126 -1.1431  2.0003  1.1033
  821MOL0     H 8321   2.611   8.021   8.231 -2.0980 -1.8101 -1.5236
  821MOL0     H 8322   2.552   7.892   8.342 -1.3440 -0.9870 -3.0306
  821MOL0     H 8323   2.643   8.054   8.472  0.1591  1.6001  0.6246
  821MOL0     H 8324   2.799   8.072   8.390 -2.2217  1.9044  0.1232
  821MOL0     H 8325   2.812   8.025   8.671 -2.6411  0.8267  0.6199
  821MOL0     H 8326   2.781   7.760   8.882  0.6302 -1.6197  0.9556
  821MOL0     H 8327   2.927   7.867   8.869  1.9727 -1.5541 -0.8867
  821MOL0     H 8328   3.071   7.691   8.814  1.0331 -2.8870 -2.4561
  821MOL0     H 8329   2.952   7.586   8.787  2.0166 -0.6024  1.2241
  821MOL0     H 8330   2.879   7.645   9.053 -1.1965  2.5799  0.0836
  821MOL0     H 8331   2.991   7.509   8.985 -0.7155  0.6905  0.2146
  821MOL0     H 8332   3.181   7.651   9.034  0.9370 -0.2059 -0.4371
  821MOL0     H 8333   3.106   7.595   9.173  0.3017 -0.2679 -1.4336
  821MOL0     H 8334   3.052   8.056   9.162 -0.0810 -0.5359 -0.0941
  821MOL0     H 8335   3.212   8.190   9.285  1.6530 -0.5858 -0.7668
  821MOL0     H 8336   3.619   8.063   9.743 -1.1915  1.6316  0.2804
  821MOL0     H 8337   3.807   8.198   9.817 -2.3624  0.7694 -0.2444
  821MOL0     H 8338   4.067   8.242   9.846 -3.0776 -4.0239 -3.5528
  821MOL0     H 8339   3.941   8.364   9.843 -1.0960 -1.1532 -0.6886
  821MOL0     H 8340   4.096   8.510   9.693  0.3543  0.5695 -0.3510
  821MOL0     H 8341   4.228   8.379   9.715 -2.3827 -2.3294 -2.9786
  821MOL0     H 8342   4.254   8.456   9.940  0.9301  4.2257  3.1292
  821MOL0     H 8343   4.114   8.559   9.926  1.6291  0.7936 -0.0103
  821MOL0     H 8344   4.359   8.647   9.894  1.5986 -0.6722 -2.9173
  821MOL0     H 8345   4.329   8.610   9.722  0.4062 -0.3570  0.0366
  821MOL0     H 8346   4.124   8.762   9.889  1.5495 -1.5150  2.1672
  821MOL0     H 8347   4.136   8.742   9.708  4.0419  0.4823 -1.8756
  821MOL0     H 8348   4.333   8.879   9.702  0.8870  3.0183  0.1008
  821MOL0     H 8349   4.347   8.891   9.876 -2.2056 -0.6885  3.0574
  821MOL0     H 8350   4.145   8.985   9.663  2.5644  1.5036 -0.9287
  821MOL0     H 8351   4.098   9.015   9.836  0.7183  5.4961  0.8296
  821MOL0     H 8352   4.347   9.096   9.689  2.0654 -2.2251  2.8868
  821MOL0     H 8353   4.342   9.132   9.855 -1.2914  2.1262  1.7340
  821MOL0     H 8354   3.938   8.245   9.419  1.6484 -0.4006  1.7592
  821MOL0     H 8355   3.741   8.126   9.332 -0.4097 -1.6500  0.1893
  821MOL0     H 8356   3.441   7.831   9.386 -0.1704 -0.5493 -0.2237
  821MOL0     H 8357   3.285   7.699   9.282  2.5933  0.0214  1.5338
  821MOL0     H 8358   3.155   7.261   8.001  0.0951  2.0213 -0.6405
  821MOL0     H 8359   3.219   7.034   7.950  1.6900 -0.9094 -0.8384
  821MOL0     H 8360   3.441   6.717   7.718 -1.3156  0.4423  0.3523
  821MOL0     H 8361   3.504   6.489   7.677 -1.7239  0.0390  2.9037
  821MOL0     H 8362   3.257   6.242   7.362 -0.7606  4.8589  0.2508
  821MOL0     H 8363   3.200   6.233   7.532  0.4941  1.9150 -0.0028
  821MOL0     H 8364   3.349   6.071   7.582 -0.8480  0.4935  0.2677
  821MOL0     H 8365   3.250   6.019   7.445 -0.6246  0.1942  0.4638
  821MOL0     H 8366   3.550   6.097   7.439  0.7966 -1.2905 -1.2429
  821MOL0     H 8367   3.459   6.102   7.291  0.1586 -1.2348 -0.6592
  821MOL0     H 8368   3.584   5.898   7.334  0.2421 -0.0088 -1.8227
  821MOL0     H 8369   3.481   5.868   7.479 -1.9614  1.2131  0.2203
  821MOL0     H 8370   3.259   5.694   7.173 -1.0835  0.2282  0.2080
  821MOL0     H 8371   3.156   6.434   7.427 -1.5109  0.6296  0.6287
  821MOL0     H 8372   3.090   6.674   7.470  1.8437  2.8288 -1.3893
  822MOL0     O 8373   0.691   4.854   6.773 -0.1275  0.2372  0.3475
  822MOL0     C 8374   0.721   4.772   6.854  0.1844  0.0269 -0.3336
  822MOL0     O 8375   0.840   4.738   6.892  0.4626  0.3773  0.0396
  822MOL0     C 8376   0.957   4.779   6.827  0.6945 -0.1500 -0.3789
  822MOL0     C 8377   0.978   4.913   6.790 -0.0562  0.6528  0.4621
  822MOL0     C 8378   1.070   4.952   6.697  0.1364  0.2747  0.4323
  822MOL0     C 8379   1.169   4.859   6.661 -0.5933  0.0613 -0.8139
  822MOL0     O 8380   1.245   4.893   6.557  0.1066 -0.4150  0.7165
  822MOL0     C 8381   1.374   4.829   6.529  0.0432 -0.1174 -0.2574
  822MOL0     C 8382   1.456   4.939   6.453 -0.2736  0.0945 -0.1797
  822MOL0     C 8383   1.589   4.868   6.415 -0.0357 -0.5700 -0.7727
  822MOL0     C 8384   1.677   4.824   6.527 -0.7258  0.3723  0.3444
  822MOL0     C 8385   1.813   4.780   6.478  0.4870  0.5312 -0.4482
  822MOL0     C 8386   1.901   4.745   6.601 -0.2149 -0.5033 -0.3856
  822MOL0     C 8387   1.960   4.870   6.654  0.2821  0.6301 -0.4024
  822MOL0     C 8388   2.033   4.839   6.789 -0.4455  0.2667  0.2470
  822MOL0     N 8389   2.050   4.952   6.886  0.2626 -0.7677 -0.0220
  822MOL0     C 8390   2.106   4.929   7.008 -0.7210 -0.2504  0.2623
  822MOL0     C 8391   2.092   5.053   7.065  0.2416  0.3749 -0.0375
  822MOL0     C 8392   2.142   5.078   7.204  0.4278  0.1788 -0.2791
  822MOL0     C 8393   2.142   4.953   7.298 -0.2216  0.5342 -0.2115
  822MOL0     C 8394   2.183   4.981   7.446 -0.0708  0.6762 -0.2392
  822MOL0     C 8395   2.334   5.010   7.467  0.4933 -0.4194  0.0740
  822MOL0     O 8396   2.408   4.897   7.439  0.0333  0.1569  0.1012
  822MOL0     C 8397   2.520   4.874   7.507 -0.4343 -0.1998 -0.1298
  822MOL0     C 8398   2.603   4.967   7.570  0.1064 -0.7812  0.6231
  822MOL0     C 8399   2.721   4.937   7.635 -0.0425  0.0682  0.8219
  822MOL0     C 8400   2.770   4.804   7.649  0.4304 -0.3145  0.6980
  822MOL0     C 8401   2.894   4.774   7.712  0.9883 -0.0138 -1.7414
  822MOL0     O 8402   2.965   4.874   7.760 -0.5353 -0.1506 -0.1392
  822MOL0     C 8403   3.074   4.857   7.841  0.3796  0.3938  0.2955
  822MOL0     C 8404   3.096   4.966   7.926 -0.6891 -0.7210 -0.7628
  822MOL0     C 8405   3.211   4.959   8.010 -0.5586  0.6601 -0.6474
  822MOL0     C 8406   3.297   4.851   8.008  0.3594  0.6324 -0.4743
  822MOL0     O 8407   3.410   4.837   8.087 -0.1005 -0.4375  0.3759
  822MOL0     C 8408   3.462   4.938   8.171  0.3003 -0.7010 -0.0319
  822MOL0     C 8409   3.562   5.008   8.091 -0.1027  0.8313  1.3904
  822MOL0     C 8410   3.652   5.111   8.174  0.4223  0.6227  0.1611
  822MOL0     C 8411   3.777   5.037   8.214  0.0903  0.0332  0.0174
  822MOL0     C 8412   3.875   5.132   8.287 -0.8941 -0.3766 -0.6638
  822MOL0     C 8413   3.850   5.167   8.433  0.1857 -0.3048 -0.4156
  822MOL0     C 8414   3.949   5.122   8.541 -0.9881 -0.0439  0.1284
  822MOL0     C 8415   4.091   5.190   8.529  0.4421 -0.2467 -0.4401
  822MOL0    Cl 8416   4.191   5.142   8.668  0.6516  0.0349 -0.0419
  822MOL0     C 8417   3.264   4.741   7.921 -0.1469  0.2743 -0.4563
  822MOL0     C 8418   3.155   4.754   7.835  0.0782 -0.0662  0.6118
  822MOL0     O 8419   2.908   4.657   7.737  0.1359  0.1874 -1.1454
  822MOL0     C 8420   2.688   4.708   7.566  0.1266  0.0834  0.3656
  822MOL0     C 8421   2.555   4.742   7.510 -0.4312 -0.9711 -1.1567
  822MOL0     N 8422   2.024   5.134   6.976  0.2684  0.5427  0.0598
  822MOL0     N 8423   2.014   5.084   6.862  0.3665  0.3336 -0.3862
  822MOL0     C 8424   1.155   4.729   6.707 -0.6573 -0.8347 -0.2596
  822MOL0     C 8425   1.052   4.681   6.792 -0.4697 -1.0941 -0.5111
  822MOL0     C 8426   0.609   4.702   6.929  0.0147  0.5680  0.3668
  822MOL0     C 8427   0.637   4.651   7.059 -0.6630  0.0424 -0.3056
  822MOL0     C 8428   0.530   4.609   7.134  0.5061 -0.1197 -0.2661
  822MOL0     C 8429   0.407   4.581   7.077 -0.5875 -0.0781  0.3292
  822MOL0     O 8430   0.313   4.531   7.163 -0.6449  0.4834 -0.6556
  822MOL0     C 8431   0.178   4.502   7.116 -0.7359 -0.3901 -0.8807
  822MOL0     C 8432   0.124   4.385   7.197 -0.0957  0.3749 -0.4230
  822MOL0     C 8433   0.143   4.376   7.351  0.2483  0.6237 -1.1069
  822MOL0     C 8434   0.040   4.278   7.432  0.3633 -0.5819  0.0817
  822MOL0     C 8435  -0.068   4.349   7.484 -0.1245  0.4705 -0.5024
  822MOL0     C 8436  -0.160   4.413   7.521  1.3213  0.8341  0.1513
  822MOL0     C 8437   0.381   4.639   6.959  0.8377 -0.4271  0.0512
  822MOL0     C 8438   0.475   4.695   6.881 -0.8279 -0.2145  0.1898
  822MOL0     H 8439   0.915   4.992   6.831 -0.4985  0.2105  0.6421
  822MOL0     H 8440   1.079   5.052   6.654  1.0183 -1.5916 -4.2917
  822MOL0     H 8441   1.364   4.736   6.473  0.8677 -1.5463  1.8310
  822MOL0     H 8442   1.421   4.803   6.625 -3.4103 -2.0192  1.0862
  822MOL0     H 8443   1.485   5.028   6.510  1.9074  2.0620 -3.9531
  822MOL0     H 8444   1.409   4.975   6.361 -2.2357  0.2038  0.8113
  822MOL0     H 8445   1.647   4.931   6.347 -0.1503  3.7757  2.6737
  822MOL0     H 8446   1.567   4.782   6.352 -0.8679  0.0039 -1.2834
  822MOL0     H 8447   1.683   4.914   6.588  0.6061  0.3224  0.3019
  822MOL0     H 8448   1.635   4.743   6.587 -1.0569  0.6986  0.5547
  822MOL0     H 8449   1.848   4.865   6.420 -1.0561  0.2683 -1.8325
  822MOL0     H 8450   1.806   4.695   6.410 -0.6931  0.3411 -0.1134
  822MOL0     H 8451   1.968   4.660   6.589 -2.0941 -2.4082  1.5894
  822MOL0     H 8452   1.831   4.701   6.673 -2.4578  1.0827 -1.4683
  822MOL0     H 8453   2.027   4.914   6.579 -2.1785  3.4405 -1.1664
  822MOL0     H 8454   1.879   4.942   6.672  0.4012  1.6120 -3.2164
  822MOL0     H 8455   2.129   4.801   6.753 -0.6771 -0.4016  0.3304
  822MOL0     H 8456   1.992   4.758   6.851 -0.3834 -1.6426 -2.0857
  822MOL0     H 8457   2.142   4.832   7.039  0.6931  0.9722  2.7044
  822MOL0     H 8458   2.081   5.156   7.251  1.5856  0.8932  0.0840
  822MOL0     H 8459   2.243   5.121   7.197 -0.3580  1.7853 -3.2882
  822MOL0     H 8460   2.206   4.872   7.261  1.5216  1.8722 -0.2409
  822MOL0     H 8461   2.042   4.907   7.302  0.0184 -0.3758 -2.7148
  822MOL0     H 8462   2.125   5.061   7.494 -2.9278 -0.7490 -1.0715
  822MOL0     H 8463   2.159   4.889   7.500 -1.0588 -0.5257 -2.5660
  822MOL0     H 8464   2.346   5.039   7.572 -2.7810 -0.5167  0.5710
  822MOL0     H 8465   2.366   5.092   7.403 -1.4946  1.8270  1.7756
  822MOL0     H 8466   2.571   5.070   7.562 -0.9926 -1.1251  0.3168
  822MOL0     H 8467   2.770   5.023   7.678  0.0816  0.6270 -0.3862
  822MOL0     H 8468   3.025   5.048   7.930  1.1497  0.9740 -1.2380
  822MOL0     H 8469   3.226   5.050   8.067  0.3192 -0.1919  0.5216
  822MOL0     H 8470   3.507   4.894   8.261  1.4837  2.9276  1.3527
  822MOL0     H 8471   3.390   5.014   8.204  0.8494 -0.0058 -0.4061
  822MOL0     H 8472   3.518   5.053   8.002  0.7112 -2.2569 -0.7071
  822MOL0     H 8473   3.632   4.938   8.046  0.3371 -0.0531  3.3303
  822MOL0     H 8474   3.598   5.149   8.261  0.5022  2.7026 -0.6432
  822MOL0     H 8475   3.686   5.200   8.120  1.5181 -1.7110 -3.2979
  822MOL0     H 8476   3.739   4.953   8.274  1.4025  1.1862  2.5975
  822MOL0     H 8477   3.819   4.988   8.126 -0.1481  1.7511 -1.1099
  822MOL0     H 8478   3.881   5.226   8.232 -0.9801  0.7173  1.1199
  822MOL0     H 8479   3.977   5.094   8.276 -1.0029 -0.3398 -2.0079
  822MOL0     H 8480   3.748   5.143   8.465  0.7322 -2.9854 -0.4716
  822MOL0     H 8481   3.847   5.276   8.431 -0.6389 -0.3255 -2.1866
  822MOL0     H 8482   3.912   5.151   8.640 -2.8414  0.8058 -0.7741
  822MOL0     H 8483   3.963   5.014   8.533 -0.1955  0.1215 -0.8705
  822MOL0     H 8484   4.079   5.298   8.540  0.3228 -0.5373  3.7823
  822MOL0     H 8485   4.130   5.168   8.429 -1.8172 -0.7892 -1.2830
  822MOL0     H 8486   3.325   4.651   7.914 -1.7592 -0.8518 -0.5978
  822MOL0     H 8487   3.142   4.679   7.758  0.1513 -1.5889  2.0196
  822MOL0     H 8488   2.724   4.605   7.562  2.4152  0.7534  1.6920
  822MOL0     H 8489   2.499   4.662   7.462  0.1735 -1.6924 -0.6833
  822MOL0     H 8490   1.220   4.651   6.670  0.2619 -1.0482  1.6888
  822MOL0     H 8491   1.042   4.579   6.830  1.1600 -0.8036  0.7926
  822MOL0     H 8492   0.738   4.648   7.098 -1.0574 -1.4659  0.6799
  822MOL0     H 8493   0.548   4.565   7.231  0.5259 -1.1058 -0.6974
  822MOL0     H 8494   0.179   4.483   7.009  3.6827  2.7232 -1.6836
  822MOL0     H 8495   0.110   4.586   7.130 -1.6285 -0.9373 -1.7990
  822MOL0     H 8496   0.021   4.379   7.162  0.3416 -0.4207 -1.6323
  822MOL0     H 8497   0.176   4.298   7.156  0.7601  0.7342 -0.1225
  822MOL0     H 8498   0.143   4.477   7.392  2.9790  0.1214  0.3578
  822MOL0     H 8499   0.243   4.340   7.379 -0.0508  0.8256  0.3021
  822MOL0     H 8500   0.001   4.200   7.366 -1.4368 -0.6771  1.2159
  822MOL0     H 8501   0.081   4.221   7.516 -1.7727  1.3557  2.6151
  822MOL0     H 8502  -0.240   4.482   7.541  0.2904 -1.1630  3.7576
  822MOL0     H 8503   0.277   4.643   6.927  0.4677 -0.7241  1.1699
  822MOL0     H 8504   0.441   4.755   6.798 -0.9381 -0.5098  0.0174
  823MOL0     O 8505   8.913   0.792   9.208 -0.0426  1.1851  0.0346
  823MOL0     C 8506   8.810   0.822   9.268  1.0833 -0.2703  0.4654
  823MOL0     O 8507   8.778   0.951   9.321 -0.1884 -0.2241  0.7781
  823MOL0     C 8508   8.837   1.066   9.281 -0.0490 -0.2287  0.7288
  823MOL0     C 8509   8.925   1.129   9.364 -0.3690 -1.3698 -0.2128
  823MOL0     C 8510   9.018   1.231   9.321  0.2842  0.1910  0.5987
  823MOL0     C 8511   9.008   1.272   9.192  0.2474 -1.2413 -0.5108
  823MOL0     O 8512   9.067   1.390   9.158  0.4149 -0.0271 -0.3525
  823MOL0     C 8513   9.146   1.390   9.039  0.1178 -1.0854 -0.1402
  823MOL0     C 8514   9.221   1.524   9.023 -0.0253  0.3011  0.0521
  823MOL0     C 8515   9.286   1.536   8.897 -0.0540 -0.4189 -0.5575
  823MOL0     C 8516   9.413   1.632   8.893 -0.4514 -0.2911 -0.0881
  823MOL0     C 8517   9.382   1.783   8.917 -0.6564 -0.0564  0.0889
  823MOL0     C 8518   9.503   1.871   8.971 -0.0732  0.5185 -0.2508
  823MOL0     C 8519   9.440   2.005   9.032 -0.2215 -0.0286  0.7239
  823MOL0     C 8520   9.370   2.094   8.920 -0.8352 -0.1818 -0.1600
  823MOL0     N 8521   9.340   2.224   8.966  0.1317 -0.0101 -0.6642
  823MOL0     C 8522   9.423   2.326   8.976 -0.2836  1.0369  0.6958
  823MOL0     C 8523   9.342   2.426   9.032  0.3131  0.2805  1.2131
  823MOL0     C 8524   9.394   2.565   9.032 -0.7152  0.0590 -0.1903
  823MOL0     C 8525   9.457   2.617   8.896 -0.8190  0.5933 -0.1275
  823MOL0     C 8526   9.491   2.767   8.907  0.1885 -0.2319  0.0688
  823MOL0     C 8527   9.373   2.857   8.877  1.4144 -0.6997  0.3084
  823MOL0     O 8528   9.314   2.846   8.745  0.5155 -0.0063 -0.6927
  823MOL0     C 8529   9.178   2.852   8.728 -0.0724 -0.0889 -0.1059
  823MOL0     C 8530   9.134   2.865   8.598  0.1499 -0.6162 -0.3365
  823MOL0     C 8531   9.004   2.874   8.558 -0.9069 -0.3105 -0.8812
  823MOL0     C 8532   8.908   2.881   8.653  0.4123 -1.0749 -0.1070
  823MOL0     C 8533   8.764   2.883   8.612 -0.4877 -0.8004 -0.1238
  823MOL0     O 8534   8.728   2.927   8.484 -0.2099  0.2818  0.2945
  823MOL0     C 8535   8.594   2.934   8.456 -0.4040 -0.0656  0.1679
  823MOL0     C 8536   8.503   2.826   8.450  0.6269 -0.4970 -0.7155
  823MOL0     C 8537   8.367   2.837   8.452 -0.3652  0.0778  0.4273
  823MOL0     C 8538   8.311   2.964   8.433 -0.5636  0.1674 -0.2287
  823MOL0     O 8539   8.176   2.980   8.419 -0.5781  0.0110  0.0618
  823MOL0     C 8540   8.099   2.901   8.508 -0.2146 -0.4302 -0.9396
  823MOL0     C 8541   7.952   2.947   8.512  0.1922  0.2457  0.0884
  823MOL0     C 8542   7.933   3.096   8.545 -1.0355  0.7903 -0.3223
  823MOL0     C 8543   7.788   3.134   8.523  1.0858 -0.4678  0.5189
  823MOL0     C 8544   7.764   3.279   8.508  0.1560  0.0405  0.2226
  823MOL0     C 8545   7.777   3.361   8.630 -0.3594 -0.6006 -0.0613
  823MOL0     C 8546   7.743   3.511   8.595  0.3612 -0.0705  0.2275
  823MOL0     C 8547   7.726   3.597   8.715 -0.1207 -0.8662 -0.6920
  823MOL0    Cl 8548   7.711   3.764   8.660  0.0183 -0.1465 -0.0418
  823MOL0     C 8549   8.395   3.074   8.422  0.2033 -0.4163  0.7766
  823MOL0     C 8550   8.536   3.060   8.433 -0.7256 -0.8419  0.6821
  823MOL0     O 8551   8.689   2.834   8.695  0.2044 -0.0565  1.0408
  823MOL0     C 8552   8.941   2.881   8.795 -0.4504 -0.6966 -0.0475
  823MOL0     C 8553   9.078   2.863   8.832  0.4175 -0.3363  1.7125
  823MOL0     N 8554   9.223   2.383   9.063  0.7794  0.1097 -0.3860
  823MOL0     N 8555   9.217   2.264   9.017 -0.4902 -0.2091 -0.1420
  823MOL0     C 8556   8.915   1.211   9.102  0.0562  0.0699  0.3633
  823MOL0     C 8557   8.833   1.103   9.151  0.6145  0.2837  0.2225
  823MOL0     C 8558   8.713   0.715   9.287  0.4106  0.1423  0.2560
  823MOL0     C 8559   8.601   0.726   9.377 -0.8697  0.7839 -0.5419
  823MOL0     C 8560   8.510   0.621   9.382 -1.0488 -0.0851 -0.0799
  823MOL0     C 8561   8.521   0.506   9.299  0.5632 -0.4548  0.8045
  823MOL0     O 8562   8.419   0.412   9.311 -0.3507  0.4494 -0.6071
  823MOL0     C 8563   8.454   0.270   9.296 -0.0430 -0.1101 -0.4807
  823MOL0     C 8564   8.372   0.179   9.389 -0.4098  0.7793  0.6535
  823MOL0     C 8565   8.366   0.234   9.532  0.1074 -0.6978 -0.8900
  823MOL0     C 8566   8.515   0.242   9.578  1.3152  0.3213  0.8026
  823MOL0     C 8567   8.539   0.255   9.726 -0.4234  0.5063  0.0348
  823MOL0     C 8568   8.548   0.258   9.842 -0.7577  0.6642 -0.0482
  823MOL0     C 8569   8.636   0.487   9.224 -0.4239 -0.5629  0.0710
  823MOL0     C 8570   8.716   0.601   9.208 -0.6125  0.3552  0.2301
  823MOL0     H 8571   8.939   1.083   9.461  0.5732  0.6078  0.6328
  823MOL0     H 8572   9.096   1.270   9.386  0.6775  1.0382 -0.3507
  823MOL0     H 8573   9.078   1.374   8.955 -0.6885 -1.9408  0.6299
  823MOL0     H 8574   9.221   1.310   9.040  1.0471 -0.2317  1.2508
  823MOL0     H 8575   9.302   1.545   9.093  0.7444 -0.1289 -0.6837
  823MOL0     H 8576   9.153   1.610   9.027 -0.9656 -0.3647 -0.9117
  823MOL0     H 8577   9.210   1.565   8.823 -0.7640  2.1170  1.0443
  823MOL0     H 8578   9.322   1.434   8.884  0.9993 -0.6779  3.2200
  823MOL0     H 8579   9.471   1.608   8.982 -2.7707 -2.1277  1.0286
  823MOL0     H 8580   9.473   1.613   8.803  1.8827 -1.0955  1.5371
  823MOL0     H 8581   9.297   1.783   8.986  0.3645 -1.0406  1.3835
  823MOL0     H 8582   9.356   1.833   8.823  2.2149  0.6305 -0.4155
  823MOL0     H 8583   9.566   1.893   8.885  1.3048  0.7951  0.7916
  823MOL0     H 8584   9.562   1.818   9.047  1.3706  0.3605 -1.4440
  823MOL0     H 8585   9.368   1.986   9.112  1.0514  0.1512  1.9308
  823MOL0     H 8586   9.519   2.056   9.086 -0.5234  2.0071 -0.6336
  823MOL0     H 8587   9.277   2.045   8.890 -2.9509  2.1988  2.0624
  823MOL0     H 8588   9.444   2.096   8.840 -0.2176  2.0465  0.4119
  823MOL0     H 8589   9.525   2.334   8.940  0.6886 -1.4985  2.5732
  823MOL0     H 8590   9.457   2.573   9.120  0.8460  1.2437 -1.3628
  823MOL0     H 8591   9.309   2.634   9.040 -0.5860  0.7007 -3.0266
  823MOL0     H 8592   9.388   2.605   8.812  0.4852 -1.4578 -1.0000
  823MOL0     H 8593   9.547   2.558   8.875 -1.2192 -0.6168  1.4063
  823MOL0     H 8594   9.532   2.785   9.007 -1.1341  1.4930  0.3427
  823MOL0     H 8595   9.570   2.791   8.835  3.8115  0.1662  3.8004
  823MOL0     H 8596   9.394   2.963   8.895 -0.2441  0.0446 -1.7249
  823MOL0     H 8597   9.292   2.842   8.949 -0.7582  1.9772 -1.3743
  823MOL0     H 8598   9.221   2.883   8.536  2.0900 -1.2148  2.0838
  823MOL0     H 8599   8.985   2.876   8.452  0.9655 -2.8066 -1.3508
  823MOL0     H 8600   8.547   2.727   8.448  0.7975 -0.4112 -1.7820
  823MOL0     H 8601   8.320   2.739   8.463  0.4880 -1.0167 -3.8514
  823MOL0     H 8602   8.152   2.896   8.603  0.5915 -3.7578 -1.4599
  823MOL0     H 8603   8.087   2.805   8.457  0.3828 -0.3289 -1.2753
  823MOL0     H 8604   7.893   2.882   8.577  1.3697  1.0365  2.0130
  823MOL0     H 8605   7.916   2.941   8.409 -0.9046 -2.2945  0.5517
  823MOL0     H 8606   8.014   3.151   8.496 -0.2034 -0.3566 -0.2861
  823MOL0     H 8607   7.959   3.118   8.649 -1.8506  1.2892 -0.2150
  823MOL0     H 8608   7.757   3.083   8.431 -1.8013 -0.5801  1.4603
  823MOL0     H 8609   7.725   3.095   8.603 -1.2148  1.8928 -0.0285
  823MOL0     H 8610   7.660   3.293   8.477  0.6735  0.7736 -1.2903
  823MOL0     H 8611   7.837   3.315   8.435  0.5325 -1.5981 -0.2445
  823MOL0     H 8612   7.879   3.353   8.667  0.1995 -1.9770 -1.7897
  823MOL0     H 8613   7.710   3.324   8.708 -1.7656 -2.1309 -1.8918
  823MOL0     H 8614   7.829   3.533   8.531 -0.8385  2.0466 -0.7490
  823MOL0     H 8615   7.663   3.523   8.521 -0.1316 -2.5086  0.2584
  823MOL0     H 8616   7.823   3.601   8.766 -0.2030  0.3929 -0.6212
  823MOL0     H 8617   7.638   3.560   8.768 -1.2525  0.2687 -1.7245
  823MOL0     H 8618   8.349   3.170   8.403 -1.3988 -1.3400 -0.2832
  823MOL0     H 8619   8.599   3.148   8.421 -3.4746  0.9641 -2.2670
  823MOL0     H 8620   8.857   2.895   8.862 -1.6317  3.1417 -2.0190
  823MOL0     H 8621   9.087   2.861   8.940  0.7167  1.9956  1.7849
  823MOL0     H 8622   8.909   1.249   9.001  1.4318 -4.4860 -1.7187
  823MOL0     H 8623   8.757   1.059   9.086 -0.2341  1.1984  0.5700
  823MOL0     H 8624   8.578   0.820   9.426 -3.1636  0.1474 -0.2905
  823MOL0     H 8625   8.427   0.646   9.448 -0.2858  4.9848 -0.6294
  823MOL0     H 8626   8.561   0.260   9.314 -0.2048  1.0821  1.5295
  823MOL0     H 8627   8.430   0.237   9.195 -2.4340  1.3564 -0.4697
  823MOL0     H 8628   8.269   0.169   9.354  0.2897  2.3887 -2.2199
  823MOL0     H 8629   8.412   0.078   9.375 -2.0619  0.3975 -1.7903
  823MOL0     H 8630   8.300   0.164   9.583 -2.3279  1.4814 -0.8613
  823MOL0     H 8631   8.318   0.331   9.548  1.2240 -0.4667  1.5499
  823MOL0     H 8632   8.568   0.161   9.526 -1.8088  1.4195 -4.9714
  823MOL0     H 8633   8.553   0.336   9.535 -2.9126  2.5021  1.2800
  823MOL0     H 8634   8.534   0.243   9.947 -1.9056 -1.2754 -0.4136
  823MOL0     H 8635   8.649   0.400   9.160  0.7140 -0.4118  0.0719
  823MOL0     H 8636   8.800   0.597   9.139  3.1676  3.6021  4.1140
  824MOL0     O 8637   8.396   3.739   6.320  0.7758 -0.0444 -0.1916
  824MOL0     C 8638   8.365   3.716   6.441 -0.4603  0.7704  0.7514
  824MOL0     O 8639   8.266   3.776   6.514  0.3533  0.9416 -0.6543
  824MOL0     C 8640   8.165   3.863   6.463 -0.5331  0.7534 -0.7331
  824MOL0     C 8641   8.126   3.872   6.329 -0.2802  0.0247 -0.3111
  824MOL0     C 8642   8.041   3.966   6.285 -1.3457  0.1044 -0.1646
  824MOL0     C 8643   7.983   4.052   6.377 -0.3608 -0.8608  0.4678
  824MOL0     O 8644   7.898   4.146   6.324  0.2927 -0.1555  0.7530
  824MOL0     C 8645   7.852   4.254   6.405  0.2521  0.6582  0.3307
  824MOL0     C 8646   7.735   4.326   6.337 -0.2255  0.4996  0.6759
  824MOL0     C 8647   7.776   4.461   6.288 -0.6569 -0.7600 -0.0566
  824MOL0     C 8648   7.657   4.545   6.238  0.3780  0.8214 -0.4007
  824MOL0     C 8649   7.695   4.688   6.207  0.4717 -0.1436  0.2047
  824MOL0     C 8650   7.692   4.770   6.343 -0.0409 -0.1152  0.5910
  824MOL0     C 8651   7.725   4.920   6.333 -0.2655  0.3705 -0.5059
  824MOL0     C 8652   7.877   4.933   6.315  0.1297  0.4478  0.7323
  824MOL0     N 8653   7.914   5.060   6.370 -0.0560 -0.0221  0.1465
  824MOL0     C 8654   7.986   5.149   6.298 -1.6051 -0.2097  0.1619
  824MOL0     C 8655   8.040   5.233   6.392  0.5054  0.3071 -0.4414
  824MOL0     C 8656   8.125   5.354   6.373  0.5313 -0.8768 -0.3473
  824MOL0     C 8657   8.278   5.328   6.392  0.1659 -0.2258  0.3723
  824MOL0     C 8658   8.357   5.437   6.311 -0.0395  0.1554 -0.7010
  824MOL0     C 8659   8.312   5.581   6.339  0.2990  0.5419  0.6815
  824MOL0     O 8660   8.383   5.674   6.260  0.1372  0.2031  0.3589
  824MOL0     C 8661   8.315   5.718   6.146 -0.7929  0.4940  0.2836
  824MOL0     C 8662   8.342   5.851   6.108  0.3141  0.3339 -0.5231
  824MOL0     C 8663   8.271   5.906   6.001 -0.7130  0.0959 -0.4343
  824MOL0     C 8664   8.175   5.841   5.940 -0.5653  0.5854  0.2179
  824MOL0     C 8665   8.089   5.898   5.828  0.7938 -0.1132 -0.6542
  824MOL0     O 8666   8.040   5.798   5.744 -0.2337 -0.3817 -0.2515
  824MOL0     C 8667   7.966   5.838   5.627 -0.3289  0.1005 -0.3418
  824MOL0     C 8668   7.872   5.733   5.591  0.3157 -0.5895  0.1621
  824MOL0     C 8669   7.787   5.758   5.485 -0.2467 -0.5351  0.1344
  824MOL0     C 8670   7.795   5.871   5.401  0.0315  1.0391 -0.1077
  824MOL0     O 8671   7.707   5.896   5.286 -0.4454 -0.0839 -0.2867
  824MOL0     C 8672   7.567   5.883   5.315  0.4474 -0.0404  0.8743
  824MOL0     C 8673   7.502   5.949   5.205 -0.4583  0.6401  0.3115
  824MOL0     C 8674   7.352   5.957   5.231 -0.3162 -1.0026  0.5024
  824MOL0     C 8675   7.289   6.055   5.129  0.9928  0.5502 -0.9303
  824MOL0     C 8676   7.325   6.206   5.163 -0.3121  0.8940 -0.1720
  824MOL0     C 8677   7.248   6.306   5.084  0.5748 -1.2127 -0.1917
  824MOL0     C 8678   7.268   6.444   5.152  0.5481  0.8141 -0.7779
  824MOL0     C 8679   7.237   6.557   5.055  0.7514 -0.5338 -0.9297
  824MOL0    Cl 8680   7.244   6.707   5.149 -0.1610  0.3301  0.5874
  824MOL0     C 8681   7.894   5.960   5.424  0.1719 -0.0810  0.0081
  824MOL0     C 8682   7.969   5.958   5.552 -1.0239  0.7529  1.1748
  824MOL0     O 8683   8.061   6.015   5.825  0.3427  0.6960  0.2827
  824MOL0     C 8684   8.138   5.707   5.984 -0.3317 -0.8797  0.5063
  824MOL0     C 8685   8.218   5.644   6.076  0.4412  0.1703  0.7471
  824MOL0     N 8686   7.997   5.193   6.520  0.0337 -0.2700 -0.3666
  824MOL0     N 8687   7.911   5.094   6.500  0.5059  0.1807  0.5214
  824MOL0     C 8688   8.027   4.044   6.512 -0.4598  0.0745 -0.9357
  824MOL0     C 8689   8.132   3.963   6.551  0.4901 -0.5965 -0.4454
  824MOL0     C 8690   8.458   3.617   6.502 -0.4161  0.6711 -0.0163
  824MOL0     C 8691   8.571   3.571   6.441  0.1973  0.7866 -0.1993
  824MOL0     C 8692   8.662   3.494   6.515 -0.7499 -0.0414  0.1568
  824MOL0     C 8693   8.648   3.451   6.651 -0.1553  0.4279 -0.7134
  824MOL0     O 8694   8.735   3.356   6.720 -0.2219 -0.2804 -0.4258
  824MOL0     C 8695   8.734   3.342   6.863  0.3545 -0.1370 -0.1345
  824MOL0     C 8696   8.862   3.272   6.910  0.0205 -0.6182 -0.6964
  824MOL0     C 8697   8.852   3.121   6.919 -0.0190 -0.6548  1.0603
  824MOL0     C 8698   8.941   3.048   7.016 -0.7686 -0.7882  0.7387
  824MOL0     C 8699   9.078   3.038   6.969 -0.2501 -0.8728 -0.8258
  824MOL0     C 8700   9.188   3.021   6.919  0.0942  0.5125  0.2666
  824MOL0     C 8701   8.531   3.498   6.703 -0.0671  0.7900 -0.3305
  824MOL0     C 8702   8.438   3.565   6.631  0.3233 -0.5423  0.1707
  824MOL0     H 8703   8.182   3.817   6.255  1.1248 -0.0797  0.7917
  824MOL0     H 8704   8.029   3.975   6.177  0.0687 -2.8984 -0.6755
  824MOL0     H 8705   7.925   4.335   6.410  1.3017 -0.1501 -1.1943
  824MOL0     H 8706   7.816   4.223   6.503  2.0137 -0.1303  0.7482
  824MOL0     H 8707   7.662   4.347   6.416 -2.0141  0.9669 -1.0437
  824MOL0     H 8708   7.689   4.268   6.257  2.2049  1.4192 -1.5452
  824MOL0     H 8709   7.857   4.451   6.216  0.0101  4.3452 -0.3333
  824MOL0     H 8710   7.828   4.522   6.363 -0.2977  0.7075 -1.4536
  824MOL0     H 8711   7.610   4.499   6.150  2.7139 -1.8500 -0.3872
  824MOL0     H 8712   7.574   4.541   6.309  0.0302 -0.3841 -0.8513
  824MOL0     H 8713   7.620   4.717   6.133  1.2969  0.0334 -0.5750
  824MOL0     H 8714   7.793   4.696   6.159  0.1242  0.7397 -0.3664
  824MOL0     H 8715   7.771   4.722   6.402 -2.1616 -2.5875  1.6317
  824MOL0     H 8716   7.594   4.762   6.391 -2.8061 -0.7313 -4.4294
  824MOL0     H 8717   7.671   4.985   6.264 -3.0487 -2.0198 -0.7631
  824MOL0     H 8718   7.701   4.961   6.431  0.1794 -0.6840  0.0606
  824MOL0     H 8719   7.918   4.912   6.215  0.0338 -0.6868  0.9149
  824MOL0     H 8720   7.926   4.865   6.385  0.6144  1.3636  1.3022
  824MOL0     H 8721   8.003   5.162   6.191 -2.6968  1.6256  0.1657
  824MOL0     H 8722   8.104   5.431   6.448  0.1988 -0.3781 -0.9422
  824MOL0     H 8723   8.121   5.394   6.271 -3.0287  1.0422  0.3808
  824MOL0     H 8724   8.316   5.235   6.349 -1.3006 -1.1572  1.0010
  824MOL0     H 8725   8.309   5.322   6.497  4.6949  2.8191 -0.5102
  824MOL0     H 8726   8.464   5.422   6.330  0.2260  1.6871 -0.8800
  824MOL0     H 8727   8.351   5.428   6.202  0.2404  2.5088 -0.9612
  824MOL0     H 8728   8.336   5.591   6.445 -2.7799 -1.3539  1.7084
  824MOL0     H 8729   8.203   5.591   6.329  0.2515 -0.7783 -0.4265
  824MOL0     H 8730   8.412   5.911   6.165  1.4472 -1.0774 -0.3615
  824MOL0     H 8731   8.287   6.009   5.972  1.5665 -0.5796 -1.8040
  824MOL0     H 8732   7.860   5.642   5.648 -0.0311 -0.8831 -0.3692
  824MOL0     H 8733   7.713   5.682   5.460 -0.3735 -0.8778  1.4830
  824MOL0     H 8734   7.529   5.942   5.398 -0.6409 -0.0812  0.4274
  824MOL0     H 8735   7.550   5.775   5.320  1.8614 -0.2801  1.0975
  824MOL0     H 8736   7.505   5.898   5.108 -1.1147  1.9060 -0.3957
  824MOL0     H 8737   7.557   6.042   5.192 -1.1723  1.3030  1.8187
  824MOL0     H 8738   7.341   5.988   5.335 -0.7071 -2.7544  1.0122
  824MOL0     H 8739   7.313   5.857   5.213 -0.3543 -1.1234  1.2395
  824MOL0     H 8740   7.310   6.029   5.025  3.1630  3.0468 -1.2212
  824MOL0     H 8741   7.183   6.035   5.147  1.2606 -2.3473 -2.1339
  824MOL0     H 8742   7.432   6.204   5.142 -0.8498  0.3995 -3.3981
  824MOL0     H 8743   7.293   6.214   5.268  1.8252 -0.9826  0.7148
  824MOL0     H 8744   7.147   6.277   5.111  1.8430 -2.2791  4.2048
  824MOL0     H 8745   7.272   6.298   4.978 -1.0449  2.4115 -0.9916
  824MOL0     H 8746   7.196   6.456   5.234  0.7026 -1.9104 -0.1239
  824MOL0     H 8747   7.370   6.448   5.190 -0.5307  1.1448  2.4296
  824MOL0     H 8748   7.139   6.548   5.008  0.4846  2.3529 -1.1267
  824MOL0     H 8749   7.308   6.544   4.974 -1.7082 -0.8173 -3.1645
  824MOL0     H 8750   7.899   6.037   5.348 -1.2363 -0.1051 -0.1247
  824MOL0     H 8751   8.037   6.037   5.582  4.7169 -1.6635 -3.3962
  824MOL0     H 8752   8.049   5.661   5.943 -0.7835 -0.2955  0.8199
  824MOL0     H 8753   8.177   5.546   6.098 -1.1685  0.4418 -0.8285
  824MOL0     H 8754   7.973   4.103   6.585 -2.3610 -3.2617  0.5677
  824MOL0     H 8755   8.161   3.945   6.654 -2.8765 -1.6409  0.4483
  824MOL0     H 8756   8.599   3.596   6.339  1.4135  2.9799  0.6006
  824MOL0     H 8757   8.741   3.455   6.452 -1.0289 -1.5402  0.6911
  824MOL0     H 8758   8.648   3.282   6.894 -0.1295  0.2200 -0.7686
  824MOL0     H 8759   8.723   3.443   6.905  0.1562 -0.7040  1.2136
  824MOL0     H 8760   8.956   3.309   6.869 -0.1654  0.1700 -0.4486
  824MOL0     H 8761   8.858   3.303   7.015  0.1640 -0.3340 -0.7738
  824MOL0     H 8762   8.882   3.073   6.825  1.1658 -1.8128  2.0058
  824MOL0     H 8763   8.750   3.083   6.934 -0.4927 -0.2596 -0.7882
  824MOL0     H 8764   8.939   3.113   7.104  1.7604 -0.5100  0.6726
  824MOL0     H 8765   8.906   2.948   7.044  1.4102 -0.9579  3.2945
  824MOL0     H 8766   9.288   3.015   6.883  0.1615 -0.5362  0.5773
  824MOL0     H 8767   8.513   3.469   6.807 -0.2805 -2.5776 -1.1896
  824MOL0     H 8768   8.346   3.590   6.683  0.4811  1.2365 -0.3468
  825MOL0     O 8769   4.307   6.072   4.407 -0.2450  0.9037  0.2035
  825MOL0     C 8770   4.188   6.039   4.414  0.9471 -0.1688 -0.8046
  825MOL0     O 8771   4.095   6.058   4.323 -0.0366 -0.3458  0.0006
  825MOL0     C 8772   4.125   6.103   4.201  0.2761 -0.1145  0.9448
  825MOL0     C 8773   4.230   6.071   4.115 -0.3983 -0.9083 -0.2373
  825MOL0     C 8774   4.216   6.111   3.979 -0.6338 -0.0266 -0.1530
  825MOL0     C 8775   4.121   6.202   3.943 -1.0301 -0.4371  0.4740
  825MOL0     O 8776   4.128   6.262   3.821 -0.3539 -0.1244  0.4426
  825MOL0     C 8777   4.199   6.389   3.808  0.2968 -0.1471  0.2304
  825MOL0     C 8778   4.099   6.506   3.835  0.5544  0.3810  0.0211
  825MOL0     C 8779   4.000   6.516   3.714  0.1586  0.0825 -0.9343
  825MOL0     C 8780   3.921   6.651   3.737 -0.1542  0.2563 -0.3858
  825MOL0     C 8781   3.801   6.676   3.645  0.1524 -1.0252 -0.4592
  825MOL0     C 8782   3.835   6.718   3.505 -0.2706  0.6160 -0.6027
  825MOL0     C 8783   3.721   6.749   3.420  0.2906 -0.0712  0.8962
  825MOL0     C 8784   3.642   6.630   3.353  0.5227 -0.5002  0.4349
  825MOL0     N 8785   3.719   6.500   3.325  0.4395  0.7706 -0.0799
  825MOL0     C 8786   3.791   6.470   3.216 -0.2394  0.4126  0.2036
  825MOL0     C 8787   3.855   6.351   3.244  0.0624  0.0150 -0.1633
  825MOL0     C 8788   3.956   6.279   3.151  0.9389  0.2011 -0.5648
  825MOL0     C 8789   3.971   6.342   3.011 -0.4263  0.2819  0.8406
  825MOL0     C 8790   4.054   6.246   2.922 -0.0573 -0.0371 -0.7051
  825MOL0     C 8791   3.981   6.133   2.848  0.1840 -0.2650  0.7981
  825MOL0     O 8792   4.007   6.009   2.910  0.1503  0.4813  0.4985
  825MOL0     C 8793   4.117   5.922   2.866  0.0857  0.6873  0.1158
  825MOL0     C 8794   4.220   5.965   2.778  0.1230  0.0335  0.3490
  825MOL0     C 8795   4.321   5.880   2.733 -0.7112 -0.1973  0.4429
  825MOL0     C 8796   4.335   5.746   2.771 -0.6329  0.4646  0.1064
  825MOL0     C 8797   4.450   5.666   2.720  0.3670 -0.5064  0.0756
  825MOL0     O 8798   4.480   5.552   2.790  0.4321 -0.0924  0.3083
  825MOL0     C 8799   4.601   5.488   2.780  0.0935 -0.0012 -0.5969
  825MOL0     C 8800   4.671   5.464   2.661 -0.4332  0.2730 -0.2476
  825MOL0     C 8801   4.799   5.396   2.663  0.5397 -1.0327 -0.5433
  825MOL0     C 8802   4.846   5.341   2.782  0.1314 -0.2317 -0.2796
  825MOL0     O 8803   4.960   5.273   2.773 -0.1542 -0.0713 -0.9007
  825MOL0     C 8804   5.072   5.363   2.734 -0.1502 -0.2236  0.2259
  825MOL0     C 8805   5.193   5.299   2.799 -0.1505  0.1646  0.2509
  825MOL0     C 8806   5.246   5.178   2.722 -0.4344 -0.1121 -0.9975
  825MOL0     C 8807   5.351   5.215   2.618 -0.5772  0.2703 -0.2204
  825MOL0     C 8808   5.319   5.180   2.467 -0.2824 -0.5420 -0.4469
  825MOL0     C 8809   5.313   5.024   2.450 -0.8536 -0.2220 -0.4512
  825MOL0     C 8810   5.371   4.924   2.548 -0.2437 -0.4513 -0.0524
  825MOL0     C 8811   5.341   4.778   2.489  0.3015  0.0448 -1.0965
  825MOL0    Cl 8812   5.418   4.661   2.592  0.1029 -0.2952  0.4802
  825MOL0     C 8813   4.775   5.366   2.905 -0.7302  0.3076  1.1980
  825MOL0     C 8814   4.656   5.450   2.899 -0.3249  1.1870 -0.6722
  825MOL0     O 8815   4.532   5.725   2.641  1.1333  0.0542 -0.0583
  825MOL0     C 8816   4.244   5.702   2.868  0.7277 -0.3743  0.2077
  825MOL0     C 8817   4.133   5.787   2.899  0.1580 -0.2658  0.4657
  825MOL0     N 8818   3.804   6.312   3.369 -0.9438  0.0478 -0.6320
  825MOL0     N 8819   3.719   6.396   3.410 -0.2652  0.8795  0.3482
  825MOL0     C 8820   4.015   6.235   4.030 -0.4105  0.6832 -0.4880
  825MOL0     C 8821   4.021   6.178   4.153  0.0657 -0.0519  0.3664
  825MOL0     C 8822   4.136   5.961   4.535 -1.0462  0.3726  0.4123
  825MOL0     C 8823   4.226   5.871   4.605  0.2406 -0.2951  0.0158
  825MOL0     C 8824   4.178   5.790   4.705  0.3468  0.0063 -0.9070
  825MOL0     C 8825   4.039   5.789   4.731 -0.2886  0.8455 -0.4061
  825MOL0     O 8826   3.993   5.716   4.833  0.1768 -0.8535 -0.1782
  825MOL0     C 8827   4.069   5.606   4.886  0.4256  0.0930  0.7118
  825MOL0     C 8828   4.047   5.493   4.780 -0.1802 -0.6176 -0.0804
  825MOL0     C 8829   4.127   5.367   4.804 -0.0226  0.0607  0.1121
  825MOL0     C 8830   4.066   5.236   4.734 -0.4892  0.0270  0.2997
  825MOL0     C 8831   4.145   5.122   4.771  0.1553 -0.8728  0.1379
  825MOL0     C 8832   4.207   5.039   4.822  0.2769  0.1551 -0.3682
  825MOL0     C 8833   3.956   5.883   4.672  0.8231 -1.4377  0.4050
  825MOL0     C 8834   3.999   5.969   4.568 -0.2452 -0.2288  0.2858
  825MOL0     H 8835   4.315   6.023   4.162 -1.9040  0.8512  4.9860
  825MOL0     H 8836   4.299   6.095   3.912  0.6193  1.6559  0.9300
  825MOL0     H 8837   4.235   6.409   3.707 -1.1429  1.8674  0.0514
  825MOL0     H 8838   4.286   6.398   3.874  1.3762 -0.2022 -1.1454
  825MOL0     H 8839   4.151   6.599   3.855 -0.4218  1.3834 -1.8087
  825MOL0     H 8840   4.045   6.487   3.928 -1.1250 -1.7527 -1.2780
  825MOL0     H 8841   3.940   6.425   3.729 -0.7390  0.8278  0.1938
  825MOL0     H 8842   4.047   6.518   3.615  1.9855  0.3296 -0.0900
  825MOL0     H 8843   3.883   6.656   3.839 -4.2256  1.5034 -1.7605
  825MOL0     H 8844   3.990   6.736   3.730  1.5494 -0.7658  2.2967
  825MOL0     H 8845   3.755   6.762   3.695  2.6724 -1.9660  4.0192
  825MOL0     H 8846   3.724   6.598   3.655 -0.8425  0.2016  2.5171
  825MOL0     H 8847   3.890   6.633   3.464  1.2037 -0.8649  3.8411
  825MOL0     H 8848   3.911   6.796   3.508 -1.2787  1.6269 -0.8582
  825MOL0     H 8849   3.657   6.819   3.475 -0.2829  1.4774 -1.5645
  825MOL0     H 8850   3.769   6.803   3.338  1.7234 -1.0287  1.0596
  825MOL0     H 8851   3.594   6.671   3.264 -1.6294 -0.6355  1.4414
  825MOL0     H 8852   3.562   6.595   3.420 -0.6515 -0.4788 -0.8928
  825MOL0     H 8853   3.802   6.532   3.128  0.7678 -1.4665 -1.0563
  825MOL0     H 8854   3.926   6.174   3.144 -0.5431  0.1333  3.7286
  825MOL0     H 8855   4.050   6.295   3.204  0.6616 -2.9605  1.0746
  825MOL0     H 8856   4.025   6.433   3.040  2.3041 -0.8281 -0.3830
  825MOL0     H 8857   3.878   6.373   2.962 -0.7736  0.1803  1.4324
  825MOL0     H 8858   4.111   6.304   2.849  0.8837  1.1671  0.9306
  825MOL0     H 8859   4.130   6.204   2.989 -2.3556 -1.4903  1.1495
  825MOL0     H 8860   3.991   6.144   2.740  0.4597 -0.2792  0.8208
  825MOL0     H 8861   3.873   6.145   2.858 -0.4025  0.0376 -3.8074
  825MOL0     H 8862   4.226   6.073   2.765 -0.0533  0.5785  3.8499
  825MOL0     H 8863   4.398   5.932   2.677 -0.8678 -1.9759 -1.5302
  825MOL0     H 8864   4.633   5.494   2.563  0.1293 -0.0065 -0.5560
  825MOL0     H 8865   4.852   5.398   2.569  0.4129 -0.0143 -0.6053
  825MOL0     H 8866   5.072   5.468   2.763 -0.9726 -0.3381  0.6675
  825MOL0     H 8867   5.081   5.364   2.625  1.3538 -0.7135  0.3235
  825MOL0     H 8868   5.176   5.267   2.902  0.7839  1.3027  0.7759
  825MOL0     H 8869   5.271   5.376   2.805  0.0934  0.3258 -3.0752
  825MOL0     H 8870   5.169   5.107   2.692 -0.4633 -0.6223  0.2190
  825MOL0     H 8871   5.305   5.121   2.795 -3.4404  0.3268  2.0019
  825MOL0     H 8872   5.370   5.322   2.625  0.0276  0.0879  1.1003
  825MOL0     H 8873   5.440   5.157   2.645  0.5381  1.6609 -0.8318
  825MOL0     H 8874   5.398   5.215   2.399 -0.3364 -2.6716 -1.6863
  825MOL0     H 8875   5.231   5.231   2.429  0.2773  0.2713 -0.6880
  825MOL0     H 8876   5.349   4.993   2.351  0.4736 -3.9619  1.0100
  825MOL0     H 8877   5.207   4.997   2.453 -1.6172  2.3631 -1.9180
  825MOL0     H 8878   5.478   4.944   2.556 -0.1065 -1.6431  1.6733
  825MOL0     H 8879   5.337   4.932   2.651  2.2913 -2.0705  1.0195
  825MOL0     H 8880   5.396   4.774   2.395  2.5067  0.9747  0.0608
  825MOL0     H 8881   5.236   4.762   2.465  0.6963 -0.3213 -2.6746
  825MOL0     H 8882   4.814   5.319   2.994 -0.2799 -1.0125  0.3178
  825MOL0     H 8883   4.594   5.469   2.986 -2.6833 -3.7005 -0.9753
  825MOL0     H 8884   4.246   5.603   2.911  1.1895 -0.7797 -0.7209
  825MOL0     H 8885   4.053   5.752   2.963  0.4540 -0.0914  0.9287
  825MOL0     H 8886   3.930   6.291   3.992 -2.6725 -0.9864  1.7468
  825MOL0     H 8887   3.944   6.195   4.227 -0.5853 -0.2594 -0.2554
  825MOL0     H 8888   4.326   5.867   4.563 -0.2850 -1.2479 -1.2465
  825MOL0     H 8889   4.248   5.732   4.765 -1.4154 -2.8117 -1.4336
  825MOL0     H 8890   4.018   5.571   4.977  0.7001  0.5850  1.0641
  825MOL0     H 8891   4.175   5.614   4.913  0.9054 -0.9521 -0.7893
  825MOL0     H 8892   3.946   5.452   4.787  0.2857 -2.0256 -1.1409
  825MOL0     H 8893   4.077   5.517   4.678 -0.9391  1.1398  0.0780
  825MOL0     H 8894   4.130   5.339   4.910 -1.5406  4.0311  1.3537
  825MOL0     H 8895   4.230   5.389   4.774  0.5936 -2.3697  0.1634
  825MOL0     H 8896   3.962   5.223   4.765  0.1465 -0.2612  2.5003
  825MOL0     H 8897   4.067   5.246   4.625  1.7058  0.6203  0.3143
  825MOL0     H 8898   4.260   4.949   4.847  0.0594  0.0051 -0.4454
  825MOL0     H 8899   3.853   5.876   4.705  0.8108  2.4798  1.7477
  825MOL0     H 8900   3.937   6.045   4.520  0.0572  0.7780  1.4213
  826MOL0     O 8901   5.414   7.582   6.136 -0.4199  0.4270  0.8029
  826MOL0     C 8902   5.342   7.641   6.056 -1.1036  0.1346 -0.2930
  826MOL0     O 8903   5.264   7.743   6.092  0.5866  0.4386  0.5825
  826MOL0     C 8904   5.251   7.800   6.224  0.1427  0.7636  0.2472
  826MOL0     C 8905   5.145   7.884   6.244  0.0293  0.7186  0.2618
  826MOL0     C 8906   5.136   7.961   6.361  0.2553 -0.2586  0.8414
  826MOL0     C 8907   5.231   7.948   6.457 -0.1163 -0.6963  0.7161
  826MOL0     O 8908   5.205   8.035   6.559 -0.7445 -0.5940 -0.0592
  826MOL0     C 8909   5.221   7.983   6.691  0.1002 -0.6392  0.2904
  826MOL0     C 8910   5.177   8.084   6.781  0.4230  0.0394  0.5687
  826MOL0     C 8911   5.191   8.034   6.931  0.5198  0.4335 -0.0791
  826MOL0     C 8912   5.330   7.975   6.956 -0.3090  0.1151  0.2325
  826MOL0     C 8913   5.353   7.977   7.110  0.0049  0.4106 -0.5219
  826MOL0     C 8914   5.479   7.899   7.149  0.7358  0.0317  0.4670
  826MOL0     C 8915   5.596   7.993   7.193  0.3154  0.2230  0.6042
  826MOL0     C 8916   5.649   8.086   7.076  0.2756 -0.3148  0.0477
  826MOL0     N 8917   5.723   8.206   7.128 -0.2011 -0.9857  0.5576
  826MOL0     C 8918   5.657   8.321   7.167 -0.9772 -0.8937 -0.6593
  826MOL0     C 8919   5.761   8.402   7.189 -0.2344 -0.3582  0.7721
  826MOL0     C 8920   5.746   8.545   7.230  0.4680 -0.4153  0.2489
  826MOL0     C 8921   5.859   8.594   7.328  0.3985  0.1662 -0.9159
  826MOL0     C 8922   5.835   8.737   7.376 -0.1157 -0.0354 -1.1950
  826MOL0     C 8923   5.868   8.833   7.262  0.4860  0.7505  0.5372
  826MOL0     O 8924   5.826   8.965   7.307 -0.5530  0.0632  0.2950
  826MOL0     C 8925   5.894   9.026   7.403  0.1287 -0.6341 -0.9906
  826MOL0     C 8926   6.022   9.057   7.382  0.6334  0.0650 -0.9170
  826MOL0     C 8927   6.098   9.123   7.480 -0.4078  0.8236  0.9485
  826MOL0     C 8928   6.043   9.171   7.604 -0.9492  0.2045  1.0288
  826MOL0     C 8929   6.123   9.235   7.710  0.7984 -1.0613  0.1547
  826MOL0     O 8930   6.257   9.222   7.714  0.5028 -0.1460  0.1518
  826MOL0     C 8931   6.318   9.266   7.828 -0.5307 -0.0030  0.9455
  826MOL0     C 8932   6.363   9.167   7.911 -0.8790 -0.3342 -0.4844
  826MOL0     C 8933   6.449   9.198   8.021  0.2493  0.4669 -0.8826
  826MOL0     C 8934   6.475   9.331   8.044  0.4308  0.4843 -0.8648
  826MOL0     O 8935   6.554   9.359   8.156  0.0496 -0.3713  0.7065
  826MOL0     C 8936   6.700   9.378   8.129  1.6022 -0.3772 -0.3875
  826MOL0     C 8937   6.795   9.350   8.255 -0.2747 -0.6303  0.6039
  826MOL0     C 8938   6.826   9.202   8.314 -0.0108  0.4309 -0.2638
  826MOL0     C 8939   6.902   9.194   8.456  0.3692 -0.3948  0.1747
  826MOL0     C 8940   6.809   9.232   8.567  0.0965  0.2645 -0.7132
  826MOL0     C 8941   6.816   9.168   8.709 -0.4232  0.4613 -0.3911
  826MOL0     C 8942   6.815   9.011   8.703 -0.6753 -0.1122 -0.7741
  826MOL0     C 8943   6.787   8.936   8.834 -1.4473 -0.9592  0.5797
  826MOL0    Cl 8944   6.631   8.862   8.828 -0.5969  0.1432  0.4420
  826MOL0     C 8945   6.424   9.430   7.964  0.0058 -0.1703 -0.2645
  826MOL0     C 8946   6.346   9.399   7.853 -0.2990 -0.9594 -0.9379
  826MOL0     O 8947   6.053   9.303   7.788 -0.5752  0.2629  0.5891
  826MOL0     C 8948   5.907   9.126   7.626 -0.0895  0.3874  0.1391
  826MOL0     C 8949   5.836   9.054   7.521  0.0623  0.3026 -0.3883
  826MOL0     N 8950   5.887   8.339   7.172  0.3983 -0.1828 -0.2347
  826MOL0     N 8951   5.857   8.216   7.132 -0.7225 -0.3454 -0.6730
  826MOL0     C 8952   5.344   7.869   6.448 -0.1051  0.3162  0.1943
  826MOL0     C 8953   5.347   7.797   6.322 -0.3691 -0.3298  0.4937
  826MOL0     C 8954   5.337   7.599   5.911  0.4803 -0.7281 -0.2668
  826MOL0     C 8955   5.395   7.481   5.859  0.1058  0.1584 -0.1012
  826MOL0     C 8956   5.400   7.449   5.720  0.7648 -0.0118  0.1646
  826MOL0     C 8957   5.342   7.533   5.628 -1.3919  0.9103  0.1829
  826MOL0     O 8958   5.346   7.507   5.494 -0.5405  0.2463  0.2729
  826MOL0     C 8959   5.270   7.392   5.449  0.1482 -0.5377  0.0760
  826MOL0     C 8960   5.214   7.422   5.310  0.5374  0.2746 -0.4826
  826MOL0     C 8961   5.314   7.489   5.217  0.4800 -0.7488  0.0723
  826MOL0     C 8962   5.452   7.410   5.200  0.6670 -0.1869 -0.1990
  826MOL0     C 8963   5.431   7.292   5.118 -0.2469 -0.4709 -0.8641
  826MOL0     C 8964   5.403   7.193   5.059  0.9068 -0.8092  0.3539
  826MOL0     C 8965   5.284   7.649   5.676  0.5641  0.3884 -0.4997
  826MOL0     C 8966   5.281   7.686   5.810 -0.4423 -0.1660  0.7118
  826MOL0     H 8967   5.073   7.885   6.163  1.7215 -4.7298 -1.7492
  826MOL0     H 8968   5.054   8.029   6.381  0.8011  0.3912  0.9141
  826MOL0     H 8969   5.324   7.954   6.712 -0.3606 -0.5370  3.0384
  826MOL0     H 8970   5.152   7.898   6.698  2.1544 -2.3331  0.9066
  826MOL0     H 8971   5.070   8.097   6.764  0.8832  2.6471 -0.8562
  826MOL0     H 8972   5.239   8.172   6.761 -1.4159  1.1410 -0.5170
  826MOL0     H 8973   5.119   7.958   6.963  1.0082 -0.6972 -1.5232
  826MOL0     H 8974   5.175   8.121   6.995 -0.6631 -0.4613  0.8945
  826MOL0     H 8975   5.339   7.872   6.921  1.1359  0.3729 -0.2137
  826MOL0     H 8976   5.407   8.027   6.898 -1.6184  1.0130 -0.7867
  826MOL0     H 8977   5.279   7.919   7.167  0.4996 -0.1392 -0.4296
  826MOL0     H 8978   5.349   8.076   7.156  0.7999 -0.6838  2.1234
  826MOL0     H 8979   5.520   7.832   7.073  0.5648  0.0053  0.3978
  826MOL0     H 8980   5.462   7.825   7.228 -0.4917  1.2678  1.4322
  826MOL0     H 8981   5.562   8.054   7.277  0.4612  0.8951  0.1747
  826MOL0     H 8982   5.675   7.924   7.227 -1.6980 -2.0300  1.0134
  826MOL0     H 8983   5.560   8.107   7.015  2.9363  1.1421 -3.6882
  826MOL0     H 8984   5.716   8.032   7.009  0.1043 -0.1561 -0.2577
  826MOL0     H 8985   5.549   8.336   7.174 -1.2413 -1.8246 -2.2233
  826MOL0     H 8986   5.644   8.552   7.270  1.1814 -0.6803  2.2277
  826MOL0     H 8987   5.765   8.601   7.139  0.1479 -4.8258 -2.8430
  826MOL0     H 8988   5.962   8.585   7.291  0.2524  3.2772 -2.4239
  826MOL0     H 8989   5.845   8.532   7.417 -1.6753  1.8624  0.0273
  826MOL0     H 8990   5.732   8.755   7.410  0.3981  6.0938 -1.7673
  826MOL0     H 8991   5.894   8.760   7.466 -0.0060  1.2038 -1.5665
  826MOL0     H 8992   5.812   8.814   7.171  0.7464 -0.4050  0.6101
  826MOL0     H 8993   5.972   8.817   7.231  1.3866  1.4196  2.9459
  826MOL0     H 8994   6.065   9.030   7.286  1.1066  0.2320 -0.7565
  826MOL0     H 8995   6.203   9.117   7.453 -1.1649 -1.1086 -2.0705
  826MOL0     H 8996   6.342   9.066   7.878  0.5092 -0.4762 -1.0110
  826MOL0     H 8997   6.475   9.112   8.082 -1.9067 -0.3160 -0.9810
  826MOL0     H 8998   6.721   9.481   8.098 -1.8802  0.2514 -1.0325
  826MOL0     H 8999   6.721   9.314   8.043 -1.4214  1.3373 -2.5895
  826MOL0     H 9000   6.747   9.405   8.336  1.9771  2.6609 -0.0789
  826MOL0     H 9001   6.885   9.407   8.229 -1.0670  0.6606  0.6315
  826MOL0     H 9002   6.891   9.151   8.242 -0.1802 -2.9851  1.7769
  826MOL0     H 9003   6.734   9.144   8.312 -1.6137  2.8456 -0.6319
  826MOL0     H 9004   6.953   9.103   8.487 -1.4125 -0.6656  2.5687
  826MOL0     H 9005   6.985   9.266   8.457 -0.6435  0.8794  3.1297
  826MOL0     H 9006   6.707   9.215   8.531 -1.5865 -0.4518  3.7253
  826MOL0     H 9007   6.813   9.339   8.590  3.8547  0.6025 -2.3184
  826MOL0     H 9008   6.719   9.197   8.751 -1.2820  2.6711 -3.5008
  826MOL0     H 9009   6.887   9.211   8.779 -5.3741  2.7079  3.9535
  826MOL0     H 9010   6.752   8.983   8.618 -0.9658  0.5769 -0.7869
  826MOL0     H 9011   6.916   8.985   8.671 -0.7267 -0.4549 -0.6650
  826MOL0     H 9012   6.797   8.997   8.925  1.7687  1.2789 -1.0718
  826MOL0     H 9013   6.861   8.857   8.852  0.1295  0.3162 -0.0446
  826MOL0     H 9014   6.442   9.536   7.979 -3.6191  0.9673 -2.6258
  826MOL0     H 9015   6.305   9.477   7.791  2.3454  0.3186 -1.2338
  826MOL0     H 9016   5.860   9.120   7.724 -0.8819 -2.8183 -0.3031
  826MOL0     H 9017   5.735   9.025   7.550  0.9873 -2.5301  0.3201
  826MOL0     H 9018   5.413   7.878   6.532  1.3336  1.7947 -1.0739
  826MOL0     H 9019   5.434   7.731   6.315  2.3975  3.0446  0.3570
  826MOL0     H 9020   5.442   7.412   5.928 -0.1824 -1.0274 -1.0698
  826MOL0     H 9021   5.449   7.360   5.683 -0.8511 -0.7806 -0.2454
  826MOL0     H 9022   5.191   7.355   5.515  1.3027 -1.9134  0.7248
  826MOL0     H 9023   5.337   7.307   5.434 -1.3343 -1.6403 -0.4455
  826MOL0     H 9024   5.166   7.332   5.269 -0.0792  0.2540  0.2631
  826MOL0     H 9025   5.132   7.492   5.330  0.1488 -0.9111  2.7202
  826MOL0     H 9026   5.350   7.577   5.271  1.3613 -3.1421  3.8308
  826MOL0     H 9027   5.274   7.534   5.126  1.6283  2.0669  0.8477
  826MOL0     H 9028   5.523   7.477   5.150 -1.8256  1.6199 -1.5452
  826MOL0     H 9029   5.494   7.394   5.300  0.6135 -0.4391 -0.2159
  826MOL0     H 9030   5.385   7.107   4.998 -3.9994 -0.2087  0.5627
  826MOL0     H 9031   5.226   7.703   5.602  1.2455 -0.0641 -1.3763
  826MOL0     H 9032   5.235   7.780   5.840  1.7731  0.7557  1.4601
  827MOL0     O 9033   0.482  11.316   0.460 -0.2401  0.4580 -0.0171
  827MOL0     C 9034   0.537  11.300   0.356 -0.5688  0.1121  0.4358
  827MOL0     O 9035   0.478  11.321   0.234 -0.1076  0.1542  0.4730
  827MOL0     C 9036   0.340  11.345   0.236  0.0188  0.9739  0.5549
  827MOL0     C 9037   0.305  11.458   0.158  0.3944 -0.3992  0.2106
  827MOL0     C 9038   0.174  11.496   0.152  0.4177 -0.0820  0.5233
  827MOL0     C 9039   0.073  11.426   0.215  0.9263 -0.7152 -0.3506
  827MOL0     O 9040  -0.043  11.490   0.213  0.3123  0.1106 -0.4847
  827MOL0     C 9041  -0.168  11.418   0.246 -0.5451  0.5413  0.4972
  827MOL0     C 9042  -0.287  11.494   0.198  0.6895  0.4056  0.7109
  827MOL0     C 9043  -0.308  11.619   0.268  0.9203 -0.0741 -1.0653
  827MOL0     C 9044  -0.448  11.686   0.253 -0.1662  1.1704  0.4091
  827MOL0     C 9045  -0.454  11.817   0.333  0.0055  0.6412  0.4537
  827MOL0     C 9046  -0.462  11.802   0.482  0.2044  0.2332  0.0799
  827MOL0     C 9047  -0.461  11.943   0.563 -0.1815 -0.1543  0.0497
  827MOL0     C 9048  -0.449  12.080   0.478  0.0162 -0.4951  0.4048
  827MOL0     N 9049  -0.442  12.200   0.571  0.1852 -0.0064 -0.2979
  827MOL0     C 9050  -0.550  12.275   0.617  0.7804 -0.5337  0.0134
  827MOL0     C 9051  -0.505  12.354   0.711 -0.0144  0.5743 -0.5096
  827MOL0     C 9052  -0.600  12.421   0.803  0.3171  0.2089  0.3626
  827MOL0     C 9053  -0.673  12.307   0.872 -0.8130  0.3969  0.6288
  827MOL0     C 9054  -0.790  12.343   0.956 -0.4279 -0.0639 -0.2421
  827MOL0     C 9055  -0.895  12.442   0.895  0.4109 -0.2689  0.0134
  827MOL0     O 9056  -0.940  12.414   0.762  0.0299  0.0824  0.0661
  827MOL0     C 9057  -1.062  12.457   0.722 -0.0040 -0.5078 -0.4038
  827MOL0     C 9058  -1.138  12.544   0.796 -0.1914  0.0360 -0.8505
  827MOL0     C 9059  -1.264  12.581   0.757 -0.3670  0.2527  0.3798
  827MOL0     C 9060  -1.321  12.531   0.637  0.9832 -0.3402 -0.0530
  827MOL0     C 9061  -1.448  12.591   0.581 -0.5740 -0.4254 -0.6156
  827MOL0     O 9062  -1.516  12.682   0.659 -0.5705 -0.2756  0.0709
  827MOL0     C 9063  -1.594  12.765   0.590  0.1932 -0.4096  0.4159
  827MOL0     C 9064  -1.718  12.721   0.554 -0.7809 -0.7831  0.1544
  827MOL0     C 9065  -1.810  12.812   0.497 -0.0640  0.6678  0.5672
  827MOL0     C 9066  -1.766  12.945   0.463  0.2007 -0.3020  0.1236
  827MOL0     O 9067  -1.844  13.048   0.409  0.7376 -0.0805  0.5530
  827MOL0     C 9068  -1.985  13.047   0.432  0.3584  1.2002 -0.6990
  827MOL0     C 9069  -2.056  13.126   0.326 -0.9036  0.3033 -0.3122
  827MOL0     C 9070  -2.160  13.045   0.247 -0.5970 -0.4476  0.3554
  827MOL0     C 9071  -2.223  13.119   0.136  0.5964  1.1019  0.0985
  827MOL0     C 9072  -2.328  13.032   0.067  0.6469  0.4364  0.4704
  827MOL0     C 9073  -2.385  13.104  -0.061  0.6307 -0.0204  0.3290
  827MOL0     C 9074  -2.476  13.006  -0.140  0.0726 -0.0089  0.3449
  827MOL0     C 9075  -2.500  13.070  -0.278 -0.1105 -0.3971 -0.3754
  827MOL0    Cl 9076  -2.617  12.958  -0.362  0.3240  1.0175 -0.1125
  827MOL0     C 9077  -1.637  12.987   0.496  0.1993 -0.0602 -0.0859
  827MOL0     C 9078  -1.552  12.898   0.562 -0.0611  0.1530 -0.4947
  827MOL0     O 9079  -1.480  12.552   0.470 -0.1159 -0.6591  0.2730
  827MOL0     C 9080  -1.242  12.437   0.566  0.1036 -0.6158 -0.8698
  827MOL0     C 9081  -1.115  12.403   0.616 -0.1567  0.0601  1.0912
  827MOL0     N 9082  -0.363  12.336   0.729 -0.1847 -0.3640 -0.0505
  827MOL0     N 9083  -0.327  12.243   0.645 -0.1168  0.1878  0.6688
  827MOL0     C 9084   0.104  11.305   0.284  0.0927  0.0122  0.4444
  827MOL0     C 9085   0.235  11.266   0.301  1.0567  0.5446  0.2085
  827MOL0     C 9086   0.679  11.251   0.350  0.2626  0.2123  1.0603
  827MOL0     C 9087   0.728  11.184   0.239 -0.0860  0.6749  0.7291
  827MOL0     C 9088   0.864  11.145   0.223  0.2669  0.7877 -0.1951
  827MOL0     C 9089   0.950  11.183   0.327 -0.9209  0.3394 -0.1280
  827MOL0     O 9090   1.086  11.171   0.320  0.0387  0.3489 -0.4228
  827MOL0     C 9091   1.153  11.103   0.216  0.1295 -0.1512  0.2913
  827MOL0     C 9092   1.309  11.096   0.207  1.2733 -0.5346  0.5667
  827MOL0     C 9093   1.360  10.979   0.125 -0.3384  0.3470 -0.4605
  827MOL0     C 9094   1.511  10.976   0.119  0.2369 -0.6143  0.4194
  827MOL0     C 9095   1.580  11.091   0.047 -0.1261  0.2132 -0.6462
  827MOL0     C 9096   1.625  11.187  -0.012  0.4244  0.3661  0.6579
  827MOL0     C 9097   0.905  11.247   0.437  0.0767  0.4808 -0.9742
  827MOL0     C 9098   0.769  11.274   0.453 -0.2535  0.5740  0.0202
  827MOL0     H 9099   0.378  11.504   0.093 -0.7478  0.4295 -0.5296
  827MOL0     H 9100   0.141  11.580   0.093  2.6584  1.6276  1.5566
  827MOL0     H 9101  -0.168  11.405   0.355  1.5391  1.9046  0.7109
  827MOL0     H 9102  -0.170  11.319   0.199 -2.6630  1.0738 -0.6901
  827MOL0     H 9103  -0.378  11.433   0.202 -0.9971  2.8133  2.5014
  827MOL0     H 9104  -0.251  11.518   0.098 -1.0655  0.7256  0.1206
  827MOL0     H 9105  -0.227  11.685   0.236  1.5926  0.3379  1.2803
  827MOL0     H 9106  -0.296  11.586   0.372  2.2317 -0.1443 -1.2235
  827MOL0     H 9107  -0.466  11.705   0.147  0.6492 -1.2243 -0.2208
  827MOL0     H 9108  -0.517  11.611   0.295  1.7116 -0.5040  0.6446
  827MOL0     H 9109  -0.549  11.865   0.308 -0.7541 -1.0240  0.0179
  827MOL0     H 9110  -0.371  11.879   0.299  1.4593 -1.7312 -0.5814
  827MOL0     H 9111  -0.369  11.756   0.517 -0.3351  0.9229  2.6342
  827MOL0     H 9112  -0.545  11.735   0.508  1.8333 -1.9010  0.0082
  827MOL0     H 9113  -0.560  11.938   0.609 -0.7264 -0.2897 -1.1268
  827MOL0     H 9114  -0.388  11.951   0.645 -1.5959  1.8423  1.1988
  827MOL0     H 9115  -0.538  12.080   0.415  0.8601 -1.6323 -0.8384
  827MOL0     H 9116  -0.360  12.072   0.416 -0.1349  2.2639 -0.2787
  827MOL0     H 9117  -0.654  12.281   0.589  0.8077  1.2778  0.1488
  827MOL0     H 9118  -0.672  12.471   0.738  1.8680  0.7696 -0.9743
  827MOL0     H 9119  -0.556  12.489   0.877 -3.5511  2.7684  0.5942
  827MOL0     H 9120  -0.600  12.252   0.932 -2.0610 -0.8334  1.1055
  827MOL0     H 9121  -0.701  12.236   0.794  2.2234  1.0191 -1.1832
  827MOL0     H 9122  -0.845  12.263   1.007 -1.4137  2.2991  2.7322
  827MOL0     H 9123  -0.748  12.387   1.048  1.2546 -2.9206  0.4578
  827MOL0     H 9124  -0.851  12.542   0.900 -0.0596 -0.1169  2.0258
  827MOL0     H 9125  -0.972  12.445   0.972 -0.3435  4.8572 -0.6027
  827MOL0     H 9126  -1.086  12.593   0.878 -1.8559  0.9040 -0.2628
  827MOL0     H 9127  -1.317  12.659   0.811 -0.1852  2.9554 -3.0173
  827MOL0     H 9128  -1.752  12.623   0.585 -1.5387  0.1706  2.6382
  827MOL0     H 9129  -1.914  12.787   0.479 -0.8767  2.9367  1.6642
  827MOL0     H 9130  -1.996  13.093   0.531  3.6364 -2.6670  1.7798
  827MOL0     H 9131  -2.027  12.947   0.446  1.5504  0.5390 -1.6792
  827MOL0     H 9132  -1.982  13.164   0.254 -1.5261  2.9952  0.3603
  827MOL0     H 9133  -2.104  13.208   0.380  2.3569  0.6464  2.3864
  827MOL0     H 9134  -2.231  13.002   0.318 -0.1753  0.1955  1.1844
  827MOL0     H 9135  -2.108  12.959   0.203 -1.5026  0.3999 -2.5562
  827MOL0     H 9136  -2.279  13.205   0.173 -2.1414 -0.0429 -1.0848
  827MOL0     H 9137  -2.144  13.149   0.067  1.7654 -3.0461 -0.6718
  827MOL0     H 9138  -2.419  13.014   0.125  0.4012  1.9141  0.5715
  827MOL0     H 9139  -2.283  12.937   0.038  1.0861  0.0794  2.2339
  827MOL0     H 9140  -2.299  13.144  -0.116  3.4041 -1.3574  3.3339
  827MOL0     H 9141  -2.444  13.192  -0.034  1.1775  1.1365 -2.0344
  827MOL0     H 9142  -2.430  12.909  -0.155  1.2675  0.5028  0.5625
  827MOL0     H 9143  -2.565  12.999  -0.076  0.7260  2.0170  1.5860
  827MOL0     H 9144  -2.403  13.088  -0.326 -0.4643 -2.5538 -2.0610
  827MOL0     H 9145  -2.557  13.161  -0.258  1.2867  0.5001 -0.3222
  827MOL0     H 9146  -1.599  13.088   0.482 -1.0450  0.4425  0.0752
  827MOL0     H 9147  -1.457  12.931   0.603 -0.2069 -1.4077  1.2561
  827MOL0     H 9148  -1.272  12.403   0.467  0.8822 -1.2651 -0.8920
  827MOL0     H 9149  -1.054  12.331   0.562  1.0795  0.0917  2.3874
  827MOL0     H 9150   0.025  11.254   0.339 -0.1024  0.2160  0.3539
  827MOL0     H 9151   0.254  11.178   0.361 -0.1432 -1.9663 -2.7974
  827MOL0     H 9152   0.667  11.155   0.153  1.6174  0.0027 -0.2935
  827MOL0     H 9153   0.894  11.100   0.129  0.9551  1.9508 -0.5553
  827MOL0     H 9154   1.132  11.166   0.130 -0.1366  0.5463  0.8602
  827MOL0     H 9155   1.099  11.009   0.196 -0.4910  0.1711  0.4294
  827MOL0     H 9156   1.355  11.186   0.167  1.5929 -1.1876 -0.5959
  827MOL0     H 9157   1.338  11.100   0.312 -3.2344  0.5356  2.0082
  827MOL0     H 9158   1.328  10.992   0.021 -0.9469 -0.0764 -0.3316
  827MOL0     H 9159   1.334  10.881   0.165 -0.1424 -1.2147 -3.8742
  827MOL0     H 9160   1.558  10.973   0.218  2.2879 -4.3899 -0.4841
  827MOL0     H 9161   1.544  10.889   0.063 -3.0861 -1.8442  0.1134
  827MOL0     H 9162   1.640  11.286  -0.052 -2.4575  2.0129  3.1426
  827MOL0     H 9163   0.954  11.272   0.530 -1.1748 -0.7093  0.0496
  827MOL0     H 9164   0.736  11.323   0.544  3.2108  3.1300  0.1076
  828MOL0     O 9165   6.400   2.100  10.641 -0.8668 -0.3350 -0.1072
  828MOL0     C 9166   6.316   2.075  10.556 -0.4522  0.2468  0.0027
  828MOL0     O 9167   6.259   1.946  10.547 -0.0926 -0.2087 -0.6178
  828MOL0     C 9168   6.298   1.851  10.635  0.8492 -0.1093  0.4501
  828MOL0     C 9169   6.437   1.823  10.645  1.0900  1.0021  0.5371
  828MOL0     C 9170   6.475   1.718  10.738 -0.2037 -0.1764 -0.2004
  828MOL0     C 9171   6.375   1.650  10.824 -0.5453 -0.0045 -0.0959
  828MOL0     O 9172   6.412   1.552  10.915 -0.6093  0.0840 -1.0605
  828MOL0     C 9173   6.547   1.545  10.955 -0.9189  0.6135 -0.4792
  828MOL0     C 9174   6.600   1.661  11.039 -0.6990  0.1429  0.6061
  828MOL0     C 9175   6.504   1.710  11.146  0.2353 -0.0978 -0.0547
  828MOL0     C 9176   6.556   1.848  11.201 -0.8728 -0.5100 -0.1846
  828MOL0     C 9177   6.489   1.881  11.336 -0.3389 -0.2436  0.7322
  828MOL0     C 9178   6.341   1.888  11.345  0.0112 -0.5378  0.8016
  828MOL0     C 9179   6.304   1.953  11.481  0.3799 -0.8440 -1.2907
  828MOL0     C 9180   6.157   1.997  11.479 -0.3287 -0.5923  0.6440
  828MOL0     N 9181   6.074   1.880  11.489  0.5509 -0.8574 -0.3234
  828MOL0     C 9182   6.020   1.825  11.600  0.1856 -0.7599 -0.4795
  828MOL0     C 9183   5.937   1.723  11.560 -0.6951 -0.6957  0.2985
  828MOL0     C 9184   5.880   1.626  11.666 -0.1945 -0.5397 -0.0895
  828MOL0     C 9185   5.734   1.581  11.630  0.6349  0.2576  0.7545
  828MOL0     C 9186   5.666   1.466  11.720 -0.5875 -0.7062 -0.1254
  828MOL0     C 9187   5.735   1.334  11.722 -0.0488 -0.7517  0.2333
  828MOL0     O 9188   5.660   1.245  11.813 -0.1596  0.6898  0.6430
  828MOL0     C 9189   5.712   1.108  11.811  0.2097  0.5959 -0.0324
  828MOL0     C 9190   5.792   1.049  11.704 -0.2944 -0.0646 -0.3720
  828MOL0     C 9191   5.835   0.918  11.713  0.1822  0.0652 -0.8028
  828MOL0     C 9192   5.811   0.847  11.824 -0.3266  0.0364 -1.1869
  828MOL0     C 9193   5.859   0.707  11.838  0.5227 -0.1233  0.0074
  828MOL0     O 9194   5.891   0.656  11.956  0.0720  0.7019 -0.3108
  828MOL0     C 9195   5.948   0.530  11.956 -0.5732  0.3687  0.5000
  828MOL0     C 9196   5.879   0.415  11.970 -0.6451  0.3772 -0.2401
  828MOL0     C 9197   5.939   0.289  11.983  0.3969  0.9611 -0.7164
  828MOL0     C 9198   6.079   0.278  11.975  0.7721  0.4613  0.6110
  828MOL0     O 9199   6.146   0.154  11.966 -0.2903  0.5266  0.1356
  828MOL0     C 9200   6.211   0.126  12.090  0.5577 -0.6278  1.4771
  828MOL0     C 9201   6.191  -0.028  12.104  0.2127 -0.2715 -0.0334
  828MOL0     C 9202   6.259  -0.085  12.223  0.1575 -0.3344 -0.5390
  828MOL0     C 9203   6.233  -0.242  12.219  0.5866 -0.1337 -0.5963
  828MOL0     C 9204   6.341  -0.326  12.149  0.5480  0.1609  0.2151
  828MOL0     C 9205   6.307  -0.480  12.146  0.4503  0.2040 -0.3928
  828MOL0     C 9206   6.265  -0.537  12.283 -0.1777 -0.4085  0.0043
  828MOL0     C 9207   6.206  -0.679  12.276 -0.3905 -0.3737  0.6409
  828MOL0    Cl 9208   6.305  -0.791  12.183  0.4267 -0.2051  0.1095
  828MOL0     C 9209   6.154   0.393  11.967 -1.2462  0.3115  0.5358
  828MOL0     C 9210   6.092   0.517  11.943 -0.2120  0.2399  0.5911
  828MOL0     O 9211   5.880   0.650  11.728 -0.2683 -0.1722 -0.3951
  828MOL0     C 9212   5.738   0.892  11.933  0.7027  0.0145 -0.3765
  828MOL0     C 9213   5.688   1.026  11.925 -0.1934 -0.3781  1.1749
  828MOL0     N 9214   5.955   1.710  11.415  1.2826  0.3161 -0.8491
  828MOL0     N 9215   6.028   1.807  11.380 -1.1080 -0.4520 -0.7937
  828MOL0     C 9216   6.244   1.693  10.812 -0.6872 -0.9903  0.7802
  828MOL0     C 9217   6.208   1.793  10.715  0.5171 -0.1448 -0.4695
  828MOL0     C 9218   6.269   2.180  10.466 -0.6614  0.1013  0.5738
  828MOL0     C 9219   6.327   2.308  10.453  0.1049 -0.4968 -0.2172
  828MOL0     C 9220   6.293   2.401  10.355 -0.5319 -0.0791  0.7005
  828MOL0     C 9221   6.207   2.360  10.247 -1.0867 -1.1338  0.4583
  828MOL0     O 9222   6.188   2.426  10.124 -0.5066  0.7851  0.9496
  828MOL0     C 9223   6.295   2.512  10.080  1.1150 -0.5527  0.3202
  828MOL0     C 9224   6.303   2.656  10.135  0.4720  0.5361  0.2121
  828MOL0     C 9225   6.211   2.756  10.069  0.3285  0.5127 -0.1933
  828MOL0     C 9226   6.205   2.904  10.115  0.2798 -0.7112 -0.0576
  828MOL0     C 9227   6.170   2.916  10.262  0.1011 -0.5854  0.9023
  828MOL0     C 9228   6.144   2.943  10.376  0.6941  0.0057  0.9687
  828MOL0     C 9229   6.136   2.233  10.261 -0.2204 -0.7073  0.2821
  828MOL0     C 9230   6.172   2.145  10.366 -0.2188 -0.6606  0.4010
  828MOL0     H 9231   6.516   1.870  10.588 -0.3852  1.7337 -1.0029
  828MOL0     H 9232   6.582   1.700  10.748 -0.2444  0.0046  0.6229
  828MOL0     H 9233   6.616   1.517  10.875  1.5538  4.1861  0.1537
  828MOL0     H 9234   6.546   1.463  11.028 -1.0832  0.7969 -0.2730
  828MOL0     H 9235   6.617   1.746  10.972  2.1392 -0.0929  0.8988
  828MOL0     H 9236   6.697   1.647  11.087 -0.9132  0.5409  1.1631
  828MOL0     H 9237   6.502   1.637  11.227 -3.1305 -2.9408 -2.3861
  828MOL0     H 9238   6.403   1.726  11.107 -2.1212 -0.9698  4.9269
  828MOL0     H 9239   6.665   1.855  11.202 -0.9384  0.7422 -0.0471
  828MOL0     H 9240   6.516   1.929  11.138 -3.7346 -1.2896  0.5006
  828MOL0     H 9241   6.518   1.980  11.375  0.7133 -0.0192 -0.5449
  828MOL0     H 9242   6.516   1.801  11.406 -2.4033 -3.0500 -1.4839
  828MOL0     H 9243   6.301   1.786  11.338 -0.4620 -0.3257  0.4044
  828MOL0     H 9244   6.309   1.945  11.257  1.2065 -1.3715 -0.2107
  828MOL0     H 9245   6.329   1.899  11.573  5.1211  0.7573 -1.3284
  828MOL0     H 9246   6.364   2.044  11.481  1.3595 -1.4737 -1.3179
  828MOL0     H 9247   6.129   2.034  11.380 -0.8845 -1.4206  0.4908
  828MOL0     H 9248   6.135   2.079  11.548  3.6000  0.5998  0.7309
  828MOL0     H 9249   6.026   1.861  11.702 -3.7439 -0.5551 -0.1749
  828MOL0     H 9250   5.889   1.668  11.766  0.4231 -1.7950  0.3977
  828MOL0     H 9251   5.936   1.532  11.665 -0.2587 -0.5811  0.1544
  828MOL0     H 9252   5.732   1.549  11.525 -2.3134 -0.1858  0.8322
  828MOL0     H 9253   5.666   1.667  11.627 -0.8050 -0.7264  2.7163
  828MOL0     H 9254   5.660   1.488  11.827 -1.2857 -0.4650 -0.2058
  828MOL0     H 9255   5.564   1.448  11.683  0.1363 -3.6280 -0.9666
  828MOL0     H 9256   5.837   1.352  11.757 -0.8556  1.3143  1.6976
  828MOL0     H 9257   5.746   1.300  11.618 -0.2275  1.5760 -0.6109
  828MOL0     H 9258   5.828   1.107  11.620  2.2651 -1.1208 -0.1042
  828MOL0     H 9259   5.894   0.874  11.633  0.9655 -0.8326  0.2341
  828MOL0     H 9260   5.771   0.413  11.969 -0.6501 -0.2907  0.5252
  828MOL0     H 9261   5.879   0.198  11.980 -0.6605  1.6500 -1.2989
  828MOL0     H 9262   6.172   0.181  12.176  0.0429 -3.2564  3.0295
  828MOL0     H 9263   6.317   0.148  12.069  0.4865 -1.2168  0.4400
  828MOL0     H 9264   6.224  -0.075  12.011  0.7528  0.4030 -0.1894
  828MOL0     H 9265   6.085  -0.056  12.110  0.6252 -1.5324  2.3381
  828MOL0     H 9266   6.215  -0.040  12.313  2.0958  0.0149  0.2852
  828MOL0     H 9267   6.367  -0.068  12.227 -0.1752  2.3971 -1.4143
  828MOL0     H 9268   6.236  -0.271  12.324 -1.0927 -0.1234 -0.5198
  828MOL0     H 9269   6.133  -0.270  12.185 -0.3266  0.3022  1.6040
  828MOL0     H 9270   6.432  -0.325  12.210 -0.3501  0.2546  1.6111
  828MOL0     H 9271   6.362  -0.275  12.055 -0.6655  0.8742  0.3057
  828MOL0     H 9272   6.398  -0.528  12.109  0.4202 -0.3446  0.2337
  828MOL0     H 9273   6.222  -0.490  12.078 -0.6597  0.5994  0.9102
  828MOL0     H 9274   6.347  -0.549  12.354  1.2278 -4.7119 -1.9616
  828MOL0     H 9275   6.181  -0.479  12.322  0.0064 -0.0645 -0.1178
  828MOL0     H 9276   6.105  -0.678  12.234 -0.9888 -1.5478  1.9922
  828MOL0     H 9277   6.193  -0.716  12.378 -1.8073  0.4494  0.7813
  828MOL0     H 9278   6.261   0.377  11.972 -1.6124 -2.1767  3.8276
  828MOL0     H 9279   6.153   0.600  11.911  1.1259 -0.4544  1.2891
  828MOL0     H 9280   5.716   0.839  12.025 -1.0439  0.3224 -0.5726
  828MOL0     H 9281   5.625   1.075  11.999 -5.0130 -0.5046 -2.3789
  828MOL0     H 9282   6.169   1.644  10.874 -0.5937 -1.4624  0.5303
  828MOL0     H 9283   6.104   1.821  10.706 -0.2199 -2.1011  1.1496
  828MOL0     H 9284   6.393   2.351  10.528  1.2892  2.6342 -2.8215
  828MOL0     H 9285   6.352   2.492  10.347 -0.7985 -0.0663 -1.9822
  828MOL0     H 9286   6.289   2.514   9.971  2.4253 -0.6355  0.2363
  828MOL0     H 9287   6.383   2.455  10.111  0.7508 -0.5004  1.5400
  828MOL0     H 9288   6.281   2.650  10.242 -1.7188 -0.4166 -0.2365
  828MOL0     H 9289   6.403   2.697  10.120  0.0268  1.9659  0.9846
  828MOL0     H 9290   6.121   2.703  10.098  1.6392 -3.5573 -2.7248
  828MOL0     H 9291   6.219   2.766   9.960  2.6791  1.7371  0.0144
  828MOL0     H 9292   6.306   2.945  10.101  0.1646 -0.2152  0.5019
  828MOL0     H 9293   6.135   2.968  10.061  0.7211  1.1433  1.4441
  828MOL0     H 9294   6.110   2.982  10.470  0.4365 -2.4912  1.9951
  828MOL0     H 9295   6.073   2.185  10.187  0.2822 -0.6793 -0.1664
  828MOL0     H 9296   6.121   2.052  10.345  0.8697 -0.4456 -4.2257
  829MOL0     O 9297   1.471   5.623   1.319  0.4272 -0.4056 -0.0746
  829MOL0     C 9298   1.584   5.590   1.289 -0.1720  0.8500 -1.0945
  829MOL0     O 9299   1.617   5.485   1.207  0.3702  0.6520 -0.1964
  829MOL0     C 9300   1.525   5.454   1.108 -0.1029  0.4489 -0.7799
  829MOL0     C 9301   1.504   5.322   1.071 -0.5910  0.0689 -0.7941
  829MOL0     C 9302   1.422   5.285   0.964 -0.2986 -0.3650 -0.4272
  829MOL0     C 9303   1.335   5.376   0.910 -0.5584  0.3900  0.3991
  829MOL0     O 9304   1.238   5.323   0.821  0.7482 -0.1243 -0.0495
  829MOL0     C 9305   1.121   5.400   0.776 -0.3222  0.1878 -0.0989
  829MOL0     C 9306   1.014   5.383   0.876 -0.5174 -1.0873  0.7127
  829MOL0     C 9307   0.939   5.253   0.849  0.4727  0.9980  0.4318
  829MOL0     C 9308   0.913   5.166   0.973 -0.3030  0.3246 -0.7475
  829MOL0     C 9309   1.042   5.092   1.023  0.3375 -0.5423  0.0115
  829MOL0     C 9310   1.002   5.015   1.153  0.0857  0.2047  0.0805
  829MOL0     C 9311   1.121   4.965   1.235 -0.4032 -0.0256 -0.4273
  829MOL0     C 9312   1.236   4.892   1.162  0.6727 -0.3526  0.5176
  829MOL0     N 9313   1.311   4.819   1.264  0.5568 -0.5548 -0.1768
  829MOL0     C 9314   1.297   4.679   1.295  0.0328 -0.0930  0.3329
  829MOL0     C 9315   1.383   4.656   1.395 -0.0822  0.4347  0.2221
  829MOL0     C 9316   1.404   4.531   1.475 -0.3684 -0.2552  0.0803
  829MOL0     C 9317   1.516   4.450   1.418  0.8826 -0.6227  1.0087
  829MOL0     C 9318   1.650   4.534   1.423  1.0119  0.3334  0.1329
  829MOL0     C 9319   1.753   4.427   1.390 -0.1340 -0.4961 -0.5249
  829MOL0     O 9320   1.775   4.340   1.507  0.7459 -0.0870 -0.3239
  829MOL0     C 9321   1.843   4.216   1.483 -0.1984 -0.6921 -0.7037
  829MOL0     C 9322   1.834   4.128   1.593 -0.4469 -0.6517 -0.3091
  829MOL0     C 9323   1.911   4.009   1.590  0.3257  0.2032 -0.0200
  829MOL0     C 9324   1.976   3.966   1.469  0.0287  0.1882 -0.0098
  829MOL0     C 9325   2.041   3.830   1.463 -0.0840 -0.6903  0.4205
  829MOL0     O 9326   2.056   3.761   1.576 -0.0060 -0.6553 -0.2981
  829MOL0     C 9327   2.099   3.627   1.584  0.1925  1.7683  0.1520
  829MOL0     C 9328   2.103   3.524   1.484 -0.3883 -0.0883 -0.6481
  829MOL0     C 9329   2.121   3.388   1.514  0.5305 -0.4013 -1.4152
  829MOL0     C 9330   2.167   3.355   1.642 -0.2310 -0.3770  0.5076
  829MOL0     O 9331   2.213   3.222   1.652 -0.2741  0.7412  0.0864
  829MOL0     C 9332   2.307   3.202   1.757  0.2106  0.3682 -0.2648
  829MOL0     C 9333   2.350   3.056   1.760 -1.1294  0.2322  0.2179
  829MOL0     C 9334   2.451   3.042   1.870  0.3505 -0.9561 -0.1986
  829MOL0     C 9335   2.494   2.891   1.882 -0.7032  0.2433  0.7793
  829MOL0     C 9336   2.570   2.864   2.015  0.0184  1.2704  0.5608
  829MOL0     C 9337   2.570   2.709   2.027  0.2224 -0.0304  0.1085
  829MOL0     C 9338   2.684   2.650   1.950  0.4368 -0.2987 -0.6978
  829MOL0     C 9339   2.699   2.493   1.961  0.3628  0.2265  0.1054
  829MOL0    Cl 9340   2.551   2.414   1.882 -0.2634 -0.1434 -0.0666
  829MOL0     C 9341   2.172   3.457   1.743  0.2677  0.1977 -0.1709
  829MOL0     C 9342   2.127   3.590   1.715 -0.0016  0.0619 -0.6127
  829MOL0     O 9343   2.077   3.798   1.347  0.6229 -0.0125  0.0289
  829MOL0     C 9344   1.963   4.051   1.357 -0.0960  0.9836  0.7519
  829MOL0     C 9345   1.909   4.174   1.370 -0.0190 -0.3759  0.3506
  829MOL0     N 9346   1.435   4.776   1.433  0.3462  0.4820 -0.1775
  829MOL0     N 9347   1.398   4.875   1.360 -0.5478  0.4326  0.1784
  829MOL0     C 9348   1.347   5.511   0.952 -0.8981  0.6673 -0.3320
  829MOL0     C 9349   1.448   5.548   1.051 -0.3845 -0.5648 -0.0541
  829MOL0     C 9350   1.697   5.653   1.363  0.2019  0.0826 -0.1125
  829MOL0     C 9351   1.670   5.752   1.453 -0.3105  0.1435 -0.6601
  829MOL0     C 9352   1.765   5.802   1.548 -0.4600  0.0279  0.5051
  829MOL0     C 9353   1.879   5.726   1.555 -0.7810  0.4916 -0.4330
  829MOL0     O 9354   1.971   5.763   1.655 -0.2320  0.1401  0.2179
  829MOL0     C 9355   2.064   5.664   1.708  0.3259  0.4462  0.1636
  829MOL0     C 9356   2.135   5.722   1.833 -0.3637 -0.0335  0.1204
  829MOL0     C 9357   2.224   5.844   1.795  0.4135 -1.0424  0.1405
  829MOL0     C 9358   2.314   5.894   1.916  0.2977 -0.1833  0.1529
  829MOL0     C 9359   2.244   5.967   2.028 -0.3389 -0.0306  0.4884
  829MOL0     C 9360   2.205   6.032   2.120 -0.2650  0.0909 -0.6557
  829MOL0     C 9361   1.911   5.623   1.466  0.1521  0.4690  0.2189
  829MOL0     C 9362   1.817   5.584   1.370  0.7987 -0.3326  0.1778
  829MOL0     H 9363   1.566   5.242   1.111 -1.7396 -0.2995  0.3166
  829MOL0     H 9364   1.419   5.181   0.934  1.2466  0.1202 -2.4400
  829MOL0     H 9365   1.095   5.357   0.679  1.6654 -2.9650  0.6088
  829MOL0     H 9366   1.146   5.506   0.767  2.8809 -0.2409  2.1702
  829MOL0     H 9367   0.941   5.465   0.876 -0.5632 -1.1253  0.3489
  829MOL0     H 9368   1.058   5.386   0.976  1.6795  0.3275 -0.2178
  829MOL0     H 9369   0.993   5.193   0.775 -1.7533 -0.2377 -0.2604
  829MOL0     H 9370   0.841   5.268   0.802  0.4771  0.5664  0.2816
  829MOL0     H 9371   0.869   5.234   1.046 -1.3761  0.4627 -1.5074
  829MOL0     H 9372   0.853   5.079   0.947  3.6796 -2.5482 -1.3628
  829MOL0     H 9373   1.133   5.149   1.044 -0.7141  1.4559 -0.5952
  829MOL0     H 9374   1.062   5.017   0.946 -1.1682  0.5900 -1.5644
  829MOL0     H 9375   0.939   4.932   1.119 -1.3745  1.0951  0.5082
  829MOL0     H 9376   0.937   5.082   1.209 -2.9324 -0.6715 -2.1344
  829MOL0     H 9377   1.169   5.052   1.281  0.2878  0.4875 -2.0299
  829MOL0     H 9378   1.087   4.905   1.320  0.9546  2.9653  2.4594
  829MOL0     H 9379   1.297   4.963   1.106  1.5589 -1.1894  0.3984
  829MOL0     H 9380   1.192   4.824   1.089  0.5987  2.5747 -2.3714
  829MOL0     H 9381   1.231   4.610   1.245 -0.6132  1.5596 -1.1720
  829MOL0     H 9382   1.314   4.468   1.472  0.0676 -0.9019  0.3352
  829MOL0     H 9383   1.421   4.551   1.581 -3.3842  0.2636  0.5664
  829MOL0     H 9384   1.500   4.443   1.311  0.2218  1.0705  0.9660
  829MOL0     H 9385   1.520   4.349   1.459 -0.9737 -0.3907  1.8704
  829MOL0     H 9386   1.652   4.612   1.346  1.6336 -0.1088 -0.3112
  829MOL0     H 9387   1.670   4.578   1.521  0.8621 -0.1848  0.3997
  829MOL0     H 9388   1.846   4.474   1.356 -0.6027 -1.4554 -3.4551
  829MOL0     H 9389   1.714   4.373   1.303 -0.8327  0.7961 -1.0594
  829MOL0     H 9390   1.790   4.166   1.684 -0.3083  0.7978 -0.8245
  829MOL0     H 9391   1.929   3.953   1.682  2.0382  0.8799  0.1026
  829MOL0     H 9392   2.072   3.552   1.383  1.3872 -0.0351 -1.2050
  829MOL0     H 9393   2.111   3.313   1.436 -0.8164  0.1124 -1.7658
  829MOL0     H 9394   2.260   3.222   1.854 -2.8104 -2.1748 -1.0354
  829MOL0     H 9395   2.388   3.273   1.741  0.9459 -0.3925  0.0610
  829MOL0     H 9396   2.401   3.034   1.666 -0.0167  0.9891  0.6231
  829MOL0     H 9397   2.261   2.994   1.775 -0.5357 -0.1897  2.4153
  829MOL0     H 9398   2.403   3.056   1.967  0.0426 -2.6997 -0.0631
  829MOL0     H 9399   2.531   3.116   1.864  2.2536 -3.0078 -1.9017
  829MOL0     H 9400   2.400   2.835   1.890  2.5220 -5.9377  1.4871
  829MOL0     H 9401   2.548   2.852   1.796 -2.0807 -1.7858  0.7732
  829MOL0     H 9402   2.509   2.912   2.093 -2.9515 -0.1728 -0.7401
  829MOL0     H 9403   2.675   2.892   2.029  0.3485 -0.3935  1.7029
  829MOL0     H 9404   2.476   2.674   1.984  0.3598 -0.3235  0.0387
  829MOL0     H 9405   2.573   2.679   2.132 -3.0715  0.0311  0.3076
  829MOL0     H 9406   2.691   2.692   1.849  0.6272  2.7081  0.4465
  829MOL0     H 9407   2.772   2.692   2.000 -0.4273  0.1410  0.5047
  829MOL0     H 9408   2.708   2.470   2.068  1.4495 -3.7193 -0.6721
  829MOL0     H 9409   2.791   2.473   1.905 -0.9065 -1.1923 -1.6100
  829MOL0     H 9410   2.205   3.427   1.842  0.8740 -1.2305 -0.7847
  829MOL0     H 9411   2.125   3.661   1.797 -2.4851 -1.8879  1.1800
  829MOL0     H 9412   2.002   4.021   1.260  2.0633 -0.1149  1.8882
  829MOL0     H 9413   1.908   4.231   1.277  0.0598  1.0019  1.1641
  829MOL0     H 9414   1.275   5.586   0.919 -3.0421 -1.7186 -1.3763
  829MOL0     H 9415   1.454   5.654   1.072  1.1358 -0.4155 -1.1099
  829MOL0     H 9416   1.572   5.798   1.461 -0.6114 -0.7239  1.4081
  829MOL0     H 9417   1.741   5.881   1.619  0.8848  2.3380 -1.4337
  829MOL0     H 9418   2.142   5.629   1.641  0.9690  0.5004  0.8731
  829MOL0     H 9419   2.011   5.571   1.730 -0.0627 -0.2224 -3.1085
  829MOL0     H 9420   2.059   5.726   1.912  0.4621 -0.0129  0.9251
  829MOL0     H 9421   2.204   5.644   1.866 -0.2435  0.2097  0.4468
  829MOL0     H 9422   2.162   5.929   1.766  1.2824  0.1279  1.5370
  829MOL0     H 9423   2.291   5.811   1.715  1.3524  2.6971 -0.7645
  829MOL0     H 9424   2.370   5.813   1.963 -0.3327 -1.7030 -1.5996
  829MOL0     H 9425   2.391   5.965   1.886 -0.9819  1.8976  1.5437
  829MOL0     H 9426   2.169   6.098   2.196 -0.5391  0.3860 -1.0444
  829MOL0     H 9427   2.006   5.572   1.468 -0.3063 -0.3828  1.3121
  829MOL0     H 9428   1.848   5.500   1.309 -1.0157 -0.4482 -0.6415
  830MOL0     O 9429   7.919   2.993   0.519 -0.7988 -0.0128  0.1069
  830MOL0     C 9430   7.835   2.921   0.571  0.5938 -0.5030  0.1710
  830MOL0     O 9431   7.823   2.793   0.555 -0.8691 -0.4987  0.4154
  830MOL0     C 9432   7.894   2.713   0.466  0.0454  0.4579 -0.9116
  830MOL0     C 9433   7.837   2.584   0.448  0.0700  0.2090  0.2011
  830MOL0     C 9434   7.911   2.489   0.371  0.7992 -0.3903 -0.6664
  830MOL0     C 9435   8.046   2.518   0.327  0.9451 -0.3309 -1.3824
  830MOL0     O 9436   8.117   2.423   0.263  0.7583  0.2588 -0.5130
  830MOL0     C 9437   8.109   2.434   0.120 -0.7365 -0.6167 -0.6294
  830MOL0     C 9438   8.090   2.301   0.059  0.8529  0.2312 -0.0779
  830MOL0     C 9439   7.938   2.251   0.060 -0.4423 -0.4101 -0.0527
  830MOL0     C 9440   7.897   2.222  -0.082  0.7140 -0.3076 -0.8329
  830MOL0     C 9441   7.766   2.146  -0.083  0.5332 -0.5484  0.3980
  830MOL0     C 9442   7.709   2.127  -0.230  0.0941 -0.5266 -0.8717
  830MOL0     C 9443   7.564   2.076  -0.228  0.1762  0.1623  0.1212
  830MOL0     C 9444   7.521   1.973  -0.122 -0.3879 -0.1069  0.1939
  830MOL0     N 9445   7.382   1.929  -0.152 -0.5251  0.2123 -1.0031
  830MOL0     C 9446   7.341   1.801  -0.182 -0.8726 -0.5852  0.8020
  830MOL0     C 9447   7.210   1.804  -0.215 -0.7555 -1.3502 -0.5601
  830MOL0     C 9448   7.114   1.698  -0.259  0.1680  0.3493 -0.6163
  830MOL0     C 9449   7.108   1.691  -0.411 -0.3111  0.4552 -0.0834
  830MOL0     C 9450   6.975   1.748  -0.482 -0.1633  0.1292 -0.2220
  830MOL0     C 9451   6.946   1.894  -0.443  0.9183  0.4684  0.1010
  830MOL0     O 9452   6.838   1.944  -0.523 -0.3166  0.1041  0.0318
  830MOL0     C 9453   6.778   2.065  -0.502 -0.6763 -0.5664  0.3887
  830MOL0     C 9454   6.828   2.162  -0.416 -0.0635 -0.3420 -0.3140
  830MOL0     C 9455   6.775   2.293  -0.405  0.2654  1.0184  0.9416
  830MOL0     C 9456   6.659   2.321  -0.485 -0.7203 -0.1439  1.2613
  830MOL0     C 9457   6.595   2.454  -0.487 -1.2899 -0.3878 -0.1228
  830MOL0     O 9458   6.549   2.493  -0.616 -0.3083 -0.0916 -0.4077
  830MOL0     C 9459   6.516   2.626  -0.632  0.4932 -0.0517  0.5373
  830MOL0     C 9460   6.389   2.667  -0.686 -0.7316  0.0308 -0.4264
  830MOL0     C 9461   6.365   2.803  -0.712 -0.3757 -0.1259  0.0049
  830MOL0     C 9462   6.451   2.902  -0.671  0.3034  0.4381 -0.9838
  830MOL0     O 9463   6.416   3.038  -0.684 -0.4839 -0.0204 -1.0351
  830MOL0     C 9464   6.527   3.136  -0.673  0.5305  0.1300  0.2132
  830MOL0     C 9465   6.490   3.284  -0.719 -0.0772 -0.4573  0.4669
  830MOL0     C 9466   6.598   3.390  -0.717  0.9104  0.4315 -0.1263
  830MOL0     C 9467   6.725   3.350  -0.791 -0.0902 -0.3153  0.9257
  830MOL0     C 9468   6.800   3.475  -0.846 -0.6857 -0.8247 -0.1000
  830MOL0     C 9469   6.851   3.578  -0.743  0.1247  0.7504 -0.9088
  830MOL0     C 9470   6.930   3.701  -0.804  0.5792  0.0282  0.3949
  830MOL0     C 9471   6.836   3.791  -0.890  0.1206 -1.1174  0.9245
  830MOL0    Cl 9472   6.683   3.852  -0.809 -0.6385  0.1234 -0.6514
  830MOL0     C 9473   6.574   2.857  -0.622  0.0330 -0.0100  0.0273
  830MOL0     C 9474   6.615   2.726  -0.608  0.0796 -0.3022  0.2061
  830MOL0     O 9475   6.595   2.527  -0.388  0.6084  0.0537 -0.7250
  830MOL0     C 9476   6.607   2.228  -0.577  0.0003  0.8916  0.1917
  830MOL0     C 9477   6.668   2.097  -0.584 -0.4016 -0.3252  0.1702
  830MOL0     N 9478   7.171   1.942  -0.205 -0.9715  1.1671  0.9371
  830MOL0     N 9479   7.278   2.006  -0.172  0.2158  0.0408 -0.8709
  830MOL0     C 9480   8.097   2.647   0.349 -0.0408  0.0464 -0.0432
  830MOL0     C 9481   8.012   2.750   0.402  0.0676 -0.8619  0.5823
  830MOL0     C 9482   7.728   2.978   0.664  0.1125  0.2162  0.5211
  830MOL0     C 9483   7.668   2.885   0.757  0.1040  0.2368  0.8189
  830MOL0     C 9484   7.580   2.934   0.850  0.3984  1.1113 -0.3646
  830MOL0     C 9485   7.538   3.071   0.847 -0.0365 -0.2750  0.3524
  830MOL0     O 9486   7.451   3.129   0.942  0.3788 -0.4554 -0.3191
  830MOL0     C 9487   7.427   3.053   1.056 -0.5935  0.5028 -0.1230
  830MOL0     C 9488   7.346   3.130   1.150 -0.4244  0.0450 -0.2047
  830MOL0     C 9489   7.271   3.050   1.262 -0.3364  0.0346 -0.3816
  830MOL0     C 9490   7.169   2.951   1.215 -0.2026 -0.3077 -0.9831
  830MOL0     C 9491   7.071   3.013   1.125 -0.1651  0.3293  0.0382
  830MOL0     C 9492   6.992   3.071   1.057 -0.1959 -0.3281 -0.6012
  830MOL0     C 9493   7.598   3.163   0.756  0.6865 -0.5470 -0.2651
  830MOL0     C 9494   7.698   3.115   0.670 -0.0293 -0.1124 -0.1927
  830MOL0     H 9495   7.739   2.546   0.476  0.5916 -1.1629  0.2341
  830MOL0     H 9496   7.863   2.398   0.337 -0.2635  0.9562 -3.0164
  830MOL0     H 9497   8.208   2.474   0.095 -0.6896  0.9579  1.8004
  830MOL0     H 9498   8.032   2.498   0.077  0.2001 -0.6955 -2.5406
  830MOL0     H 9499   8.160   2.226   0.097 -0.8579 -1.3024  0.1875
  830MOL0     H 9500   8.123   2.297  -0.045  2.7432 -1.7015  0.5235
  830MOL0     H 9501   7.874   2.324   0.112  2.2075 -0.2747  3.4011
  830MOL0     H 9502   7.936   2.160   0.121 -0.8032 -0.8006 -0.6395
  830MOL0     H 9503   7.895   2.313  -0.142 -1.3462  0.7386  0.7259
  830MOL0     H 9504   7.973   2.163  -0.135  0.5674  0.1848 -1.5988
  830MOL0     H 9505   7.696   2.218  -0.041  0.9355 -1.0352  1.9550
  830MOL0     H 9506   7.769   2.048  -0.035  3.1626 -0.2841  0.9301
  830MOL0     H 9507   7.766   2.057  -0.292 -1.5791  0.8160 -4.1037
  830MOL0     H 9508   7.719   2.222  -0.281 -1.0045 -0.7520 -1.5196
  830MOL0     H 9509   7.502   2.166  -0.233 -0.6332 -0.4630 -1.6988
  830MOL0     H 9510   7.535   2.032  -0.324 -2.2454  2.2577 -0.2037
  830MOL0     H 9511   7.521   2.013  -0.020 -0.3765  0.4892 -0.0373
  830MOL0     H 9512   7.576   1.879  -0.138 -1.0429 -0.5122  0.3015
  830MOL0     H 9513   7.398   1.711  -0.202  0.4262  0.4859 -0.5896
  830MOL0     H 9514   7.014   1.713  -0.217  0.8624 -0.2963  1.3571
  830MOL0     H 9515   7.154   1.606  -0.216  0.1275  0.0370 -1.2321
  830MOL0     H 9516   7.106   1.583  -0.428  0.1299  0.2413  1.1296
  830MOL0     H 9517   7.195   1.744  -0.450 -0.3832  0.8695  0.3103
  830MOL0     H 9518   6.984   1.748  -0.591 -0.9414 -0.6039 -0.2999
  830MOL0     H 9519   6.891   1.679  -0.469  0.5282 -0.8160 -0.6465
  830MOL0     H 9520   7.040   1.950  -0.450  1.4946 -0.3734  0.9660
  830MOL0     H 9521   6.917   1.891  -0.337 -0.3343  0.5328 -0.2215
  830MOL0     H 9522   6.906   2.134  -0.345 -0.4903 -1.3295 -0.2210
  830MOL0     H 9523   6.807   2.367  -0.332 -2.0483  0.3886  2.7318
  830MOL0     H 9524   6.310   2.595  -0.705 -1.0518  0.4475 -0.6963
  830MOL0     H 9525   6.273   2.835  -0.760  0.6997 -0.1121 -2.1273
  830MOL0     H 9526   6.603   3.101  -0.744  2.4856  1.4942  1.5337
  830MOL0     H 9527   6.560   3.143  -0.569  0.9761  5.6175 -0.0300
  830MOL0     H 9528   6.403   3.323  -0.665  1.6024  4.8454 -0.0520
  830MOL0     H 9529   6.451   3.282  -0.821  0.4142 -1.4272  0.2879
  830MOL0     H 9530   6.628   3.425  -0.617  0.6290  0.0701  0.0841
  830MOL0     H 9531   6.555   3.475  -0.770 -0.4573 -0.2666 -0.1613
  830MOL0     H 9532   6.788   3.288  -0.727  4.1426  2.8029  0.2477
  830MOL0     H 9533   6.701   3.303  -0.886  1.2042  3.6581 -1.6242
  830MOL0     H 9534   6.748   3.522  -0.929  1.4107  0.6226 -0.6667
  830MOL0     H 9535   6.891   3.432  -0.889  0.8296  0.3470  1.7718
  830MOL0     H 9536   6.921   3.530  -0.674 -1.5472 -0.7114 -0.1462
  830MOL0     H 9537   6.763   3.611  -0.688 -0.7033 -3.3103  0.5650
  830MOL0     H 9538   6.985   3.756  -0.727  0.8404  3.1483 -1.8392
  830MOL0     H 9539   7.004   3.662  -0.874 -1.8097 -1.2940 -1.5710
  830MOL0     H 9540   6.798   3.730  -0.972 -0.6538 -0.1556  0.5493
  830MOL0     H 9541   6.890   3.872  -0.939  1.5690 -1.1270  2.4058
  830MOL0     H 9542   6.640   2.939  -0.594 -3.1354  3.0756 -0.8181
  830MOL0     H 9543   6.714   2.705  -0.570 -1.1649 -1.9031  2.8444
  830MOL0     H 9544   6.528   2.259  -0.645  1.0159  2.5106 -0.3078
  830MOL0     H 9545   6.627   2.020  -0.647  2.9753 -1.8957 -0.3225
  830MOL0     H 9546   8.194   2.676   0.312 -0.3930 -0.1861 -1.1838
  830MOL0     H 9547   8.052   2.851   0.406  1.1248 -1.2393  0.0910
  830MOL0     H 9548   7.685   2.778   0.753  0.1833  0.2631  0.3749
  830MOL0     H 9549   7.532   2.859   0.912 -0.9356 -1.2709 -3.9261
  830MOL0     H 9550   7.517   3.030   1.113 -0.4661 -0.6394 -0.7657
  830MOL0     H 9551   7.374   2.960   1.031  0.5068 -0.7514  1.9125
  830MOL0     H 9552   7.417   3.200   1.196 -0.0934  1.0322 -2.1173
  830MOL0     H 9553   7.273   3.194   1.100 -3.8273 -1.8293  1.9343
  830MOL0     H 9554   7.216   3.117   1.329  1.7809 -1.7189  3.4571
  830MOL0     H 9555   7.346   3.000   1.324  0.5901 -0.8721 -2.1550
  830MOL0     H 9556   7.227   2.864   1.183 -0.3965 -0.1139 -1.8944
  830MOL0     H 9557   7.118   2.926   1.308 -0.5185  0.3127 -0.9835
  830MOL0     H 9558   6.922   3.119   0.991 -0.4032  0.1818 -0.0225
  830MOL0     H 9559   7.595   3.272   0.750 -0.0942 -0.4256  1.5853
  830MOL0     H 9560   7.741   3.186   0.602 -0.3610 -0.0768 -0.3685
  831MOL0     O 9561   7.982   5.549   7.709  0.0424  0.1912 -0.2379
  831MOL0     C 9562   8.011   5.632   7.621  0.4035 -0.6638  0.1505
  831MOL0     O 9563   8.015   5.769   7.647  0.6883  0.1627 -0.5196
  831MOL0     C 9564   7.996   5.832   7.772 -0.6591 -0.3995 -0.0464
  831MOL0     C 9565   8.036   5.768   7.891 -1.3474  0.4201 -0.0160
  831MOL0     C 9566   8.014   5.837   8.015 -0.3962 -0.1716 -0.2765
  831MOL0     C 9567   7.952   5.962   8.020 -0.5345 -0.1541 -0.0182
  831MOL0     O 9568   7.915   6.011   8.147 -0.4592  0.9081  0.0240
  831MOL0     C 9569   7.909   6.155   8.162 -0.2468  0.1657  0.0846
  831MOL0     C 9570   7.886   6.192   8.306 -0.2483  0.2499 -0.3503
  831MOL0     C 9571   7.745   6.136   8.342 -0.1311  0.2584  0.3030
  831MOL0     C 9572   7.706   6.206   8.475 -0.0772 -0.1798  0.9260
  831MOL0     C 9573   7.614   6.333   8.447  0.2173  0.0445 -0.3246
  831MOL0     C 9574   7.470   6.296   8.402 -1.1153 -0.1064 -0.9026
  831MOL0     C 9575   7.373   6.421   8.418  0.1978  0.5323  0.3150
  831MOL0     C 9576   7.225   6.394   8.383 -0.4546 -0.2894  0.0733
  831MOL0     N 9577   7.208   6.383   8.240 -0.2399 -0.0255  0.1094
  831MOL0     C 9578   7.136   6.465   8.170  0.3454 -0.1000 -0.3230
  831MOL0     C 9579   7.158   6.429   8.044  0.2861  0.8082  0.3750
  831MOL0     C 9580   7.096   6.466   7.917 -0.2201 -0.3234 -0.0125
  831MOL0     C 9581   6.961   6.549   7.937  0.5604 -0.2678 -0.7123
  831MOL0     C 9582   6.958   6.648   7.829 -0.6220 -0.6180  0.1317
  831MOL0     C 9583   6.840   6.746   7.840 -0.5692 -0.5958 -0.6802
  831MOL0     O 9584   6.720   6.671   7.822 -0.1339  0.4593  0.3241
  831MOL0     C 9585   6.598   6.733   7.817 -0.6168 -0.4672 -0.0134
  831MOL0     C 9586   6.497   6.644   7.817 -0.4046 -0.4444  0.1842
  831MOL0     C 9587   6.359   6.679   7.817 -0.6142 -0.8048 -0.2336
  831MOL0     C 9588   6.329   6.815   7.796  1.3796 -0.4370  0.7294
  831MOL0     C 9589   6.186   6.850   7.771  0.2419  1.1535 -0.7701
  831MOL0     O 9590   6.105   6.746   7.776  0.5854  0.1120 -0.4477
  831MOL0     C 9591   5.966   6.767   7.766  1.0357 -0.8001 -0.6905
  831MOL0     C 9592   5.881   6.843   7.854 -0.2279 -0.2953 -0.9815
  831MOL0     C 9593   5.739   6.841   7.842  0.3717 -0.3482 -0.0870
  831MOL0     C 9594   5.678   6.751   7.750 -0.5220  0.4693  0.2533
  831MOL0     O 9595   5.540   6.753   7.736 -0.2080 -0.1121 -0.2003
  831MOL0     C 9596   5.477   6.635   7.782 -0.1424 -0.1079 -0.0810
  831MOL0     C 9597   5.328   6.666   7.778 -0.5578 -0.5501 -0.6427
  831MOL0     C 9598   5.264   6.673   7.644  0.4048  0.6161 -0.7482
  831MOL0     C 9599   5.112   6.668   7.646 -0.3208 -0.8262 -0.0385
  831MOL0     C 9600   5.062   6.694   7.499 -0.3567  0.6485 -1.0183
  831MOL0     C 9601   4.910   6.708   7.503  0.4157  0.2533 -0.8493
  831MOL0     C 9602   4.857   6.694   7.353 -0.1492 -0.1384 -0.2841
  831MOL0     C 9603   4.713   6.733   7.367 -0.3499 -0.0239  0.6673
  831MOL0    Cl 9604   4.629   6.609   7.446 -0.4680  0.5280  0.4767
  831MOL0     C 9605   5.760   6.679   7.664 -0.0033 -0.3141  0.3747
  831MOL0     C 9606   5.904   6.686   7.673 -0.0780 -0.6399 -0.3298
  831MOL0     O 9607   6.146   6.963   7.767 -0.5498  0.4455 -0.1575
  831MOL0     C 9608   6.440   6.905   7.784 -0.5515  0.5979 -1.0182
  831MOL0     C 9609   6.572   6.864   7.808 -0.1626 -0.4136  0.7633
  831MOL0     N 9610   7.240   6.316   8.046  0.0693 -0.2364 -0.9046
  831MOL0     N 9611   7.274   6.292   8.169 -0.0149  0.7681 -0.9097
  831MOL0     C 9612   7.937   6.034   7.898  0.8900  0.5542 -0.3099
  831MOL0     C 9613   7.954   5.966   7.781 -0.6361 -0.0174 -0.0528
  831MOL0     C 9614   7.998   5.592   7.479 -0.2878 -0.7918 -0.3480
  831MOL0     C 9615   8.004   5.460   7.446  0.0977 -0.1108 -0.0345
  831MOL0     C 9616   7.996   5.416   7.311  1.8468  0.6311 -0.1997
  831MOL0     C 9617   7.994   5.513   7.210 -0.0160 -0.2666 -0.6694
  831MOL0     O 9618   7.994   5.457   7.086 -0.2805  0.6503 -0.4073
  831MOL0     C 9619   7.988   5.530   6.965 -0.2737 -0.7955  0.1245
  831MOL0     C 9620   8.021   5.447   6.848  0.3660  0.4537  0.8182
  831MOL0     C 9621   8.012   5.518   6.717  0.2507 -0.2072 -0.6398
  831MOL0     C 9622   7.871   5.545   6.660 -0.8320  0.6888 -0.8549
  831MOL0     C 9623   7.859   5.579   6.515  0.8741  0.2464  0.0831
  831MOL0     C 9624   7.831   5.600   6.398  1.1325  0.2855 -0.7473
  831MOL0     C 9625   8.004   5.649   7.236 -0.6283  0.9948  0.7338
  831MOL0     C 9626   7.999   5.692   7.374  0.5861 -0.0397 -0.4101
  831MOL0     H 9627   8.095   5.678   7.879 -0.1846  1.3145 -1.4267
  831MOL0     H 9628   8.059   5.789   8.102  0.6707 -4.6132 -2.9887
  831MOL0     H 9629   7.816   6.189   8.116  0.7093 -0.5418 -2.5447
  831MOL0     H 9630   7.993   6.209   8.116 -0.3367  0.2534  0.0232
  831MOL0     H 9631   7.883   6.301   8.315 -0.2450  0.1858  0.5034
  831MOL0     H 9632   7.968   6.146   8.363 -0.9672  1.0463  1.3968
  831MOL0     H 9633   7.740   6.027   8.345 -1.8714  0.2861 -0.5624
  831MOL0     H 9634   7.676   6.173   8.267 -1.6128 -1.6795  0.6408
  831MOL0     H 9635   7.660   6.146   8.554  1.5104 -1.5324  0.8850
  831MOL0     H 9636   7.790   6.256   8.525  0.2318  2.5777 -2.0320
  831MOL0     H 9637   7.670   6.402   8.382 -0.1647  2.2765  1.6126
  831MOL0     H 9638   7.613   6.382   8.544  0.5601 -0.3375 -0.1241
  831MOL0     H 9639   7.441   6.215   8.471 -2.3279  1.9611  1.1736
  831MOL0     H 9640   7.467   6.249   8.304 -2.5059 -1.6913 -0.1574
  831MOL0     H 9641   7.376   6.440   8.526  0.0093 -0.3257  0.4755
  831MOL0     H 9642   7.419   6.507   8.369 -1.0630  0.8264 -0.3930
  831MOL0     H 9643   7.159   6.471   8.426 -1.7514 -0.6482 -1.1744
  831MOL0     H 9644   7.195   6.298   8.427 -1.5749  1.9415  4.8298
  831MOL0     H 9645   7.084   6.552   8.209 -0.1808 -0.5642  0.0141
  831MOL0     H 9646   7.075   6.375   7.861 -1.2842 -0.9683  1.3615
  831MOL0     H 9647   7.182   6.518   7.874  0.8680 -1.3164  0.9122
  831MOL0     H 9648   6.973   6.609   8.027  0.9835 -1.2577 -0.0898
  831MOL0     H 9649   6.872   6.490   7.956  1.7126 -1.8877 -0.1188
  831MOL0     H 9650   7.048   6.707   7.810  0.3750 -1.3451  2.3019
  831MOL0     H 9651   6.948   6.600   7.731  0.2654 -2.2028  0.7855
  831MOL0     H 9652   6.860   6.820   7.761  1.3558  0.2184  0.5214
  831MOL0     H 9653   6.840   6.797   7.936  0.3344 -3.8990  1.2305
  831MOL0     H 9654   6.523   6.539   7.823  3.4433  0.3316 -0.6095
  831MOL0     H 9655   6.279   6.606   7.820 -2.3387  0.8769 -2.2209
  831MOL0     H 9656   5.935   6.908   7.922  3.5565 -3.1711 -0.8687
  831MOL0     H 9657   5.670   6.905   7.894 -1.3797 -1.0174 -1.4611
  831MOL0     H 9658   5.516   6.624   7.883 -2.9628  2.6532  1.4575
  831MOL0     H 9659   5.504   6.549   7.720 -0.3430 -1.3670  1.5087
  831MOL0     H 9660   5.319   6.761   7.832  0.8205 -1.3005  1.0288
  831MOL0     H 9661   5.286   6.582   7.835  0.5236 -1.1025 -0.6272
  831MOL0     H 9662   5.313   6.593   7.587  2.9141  0.5524  1.3090
  831MOL0     H 9663   5.288   6.759   7.581 -0.9098 -1.1083 -3.8775
  831MOL0     H 9664   5.092   6.570   7.692 -1.5236 -1.8602 -2.5941
  831MOL0     H 9665   5.089   6.751   7.714  2.8043 -1.9509  2.6796
  831MOL0     H 9666   5.075   6.595   7.454 -3.8572 -1.3399  1.8189
  831MOL0     H 9667   5.109   6.787   7.466  0.8250  1.2642  2.0655
  831MOL0     H 9668   4.881   6.806   7.541 -2.3702 -0.6875 -0.3417
  831MOL0     H 9669   4.875   6.628   7.568  1.9710  0.2909  0.0945
  831MOL0     H 9670   4.913   6.762   7.288  0.4099 -0.7518 -0.4681
  831MOL0     H 9671   4.859   6.589   7.322 -3.0503 -1.2481  2.7523
  831MOL0     H 9672   4.673   6.736   7.265  5.4221  0.5800 -1.9761
  831MOL0     H 9673   4.691   6.833   7.405  1.3988  0.1015  1.4642
  831MOL0     H 9674   5.719   6.600   7.602  2.4204 -0.7243 -0.8492
  831MOL0     H 9675   5.966   6.618   7.615  1.8769 -0.4535  1.4200
  831MOL0     H 9676   6.421   7.009   7.760 -1.5845  1.0875  1.5685
  831MOL0     H 9677   6.648   6.940   7.794 -2.2983  1.4709 -1.6037
  831MOL0     H 9678   7.899   6.135   7.889  2.1871  1.4980  3.1420
  831MOL0     H 9679   7.925   6.017   7.690 -0.1148 -2.0062 -1.3883
  831MOL0     H 9680   8.007   5.381   7.521  0.4321  0.8171  0.9598
  831MOL0     H 9681   7.990   5.309   7.290  1.5106  0.6241 -0.0685
  831MOL0     H 9682   8.043   5.625   6.963  1.0641 -1.4380  2.5636
  831MOL0     H 9683   7.890   5.579   6.954  0.9804  1.8563 -0.0104
  831MOL0     H 9684   8.124   5.418   6.866  1.2101  3.9785  2.6165
  831MOL0     H 9685   7.958   5.358   6.842  0.7947  0.2424 -1.2764
  831MOL0     H 9686   8.076   5.461   6.649  1.2560  0.7821 -0.5645
  831MOL0     H 9687   8.056   5.617   6.734  0.1895 -0.3288  0.3031
  831MOL0     H 9688   7.817   5.452   6.676  2.5574 -1.0651  2.0387
  831MOL0     H 9689   7.831   5.623   6.726 -1.8004 -0.5275  0.0327
  831MOL0     H 9690   7.791   5.620   6.301 -0.8424 -1.3604 -0.3335
  831MOL0     H 9691   8.026   5.714   7.152 -0.1853 -0.9980 -0.7705
  831MOL0     H 9692   8.013   5.796   7.401  1.7047  0.1767 -1.7061
  832MOL0     O 9693   1.929  10.704   9.239  0.4414  0.2367  0.0731
  832MOL0     C 9694   1.864  10.738   9.333 -0.0771  0.9983 -0.1594
  832MOL0     O 9695   1.897  10.834   9.427 -0.8325 -0.3885  0.6751
  832MOL0     C 9696   1.989  10.930   9.388  1.0280 -0.7927 -0.6126
  832MOL0     C 9697   2.109  10.942   9.453 -0.5693  0.3799 -0.2205
  832MOL0     C 9698   2.203  11.035   9.405 -0.3253 -0.1981 -0.5341
  832MOL0     C 9699   2.180  11.114   9.292  0.0932 -0.5211 -0.3646
  832MOL0     O 9700   2.281  11.196   9.253  0.0927  1.1954  0.2538
  832MOL0     C 9701   2.278  11.259   9.126 -0.1713 -0.4756 -0.0328
  832MOL0     C 9702   2.406  11.317   9.089 -1.3365 -0.9314 -0.9116
  832MOL0     C 9703   2.445  11.433   9.182  0.4298  0.6065  0.3072
  832MOL0     C 9704   2.590  11.462   9.173 -0.2244 -0.4503 -0.6523
  832MOL0     C 9705   2.606  11.603   9.230 -0.5256  0.2808 -0.0666
  832MOL0     C 9706   2.755  11.656   9.228  0.6607  0.5991 -0.4417
  832MOL0     C 9707   2.846  11.573   9.326  0.4232  0.3270  0.4260
  832MOL0     C 9708   2.927  11.659   9.420 -0.0149  0.3696 -0.2017
  832MOL0     N 9709   3.006  11.578   9.511  0.5090  0.2491  0.0659
  832MOL0     C 9710   3.092  11.479   9.472  0.2720 -0.7267 -0.4676
  832MOL0     C 9711   3.153  11.448   9.590 -0.2370 -0.3382  1.1459
  832MOL0     C 9712   3.251  11.334   9.589 -0.4504  0.0564 -0.0159
  832MOL0     C 9713   3.226  11.244   9.708  1.3301  0.0985 -0.4805
  832MOL0     C 9714   3.328  11.129   9.711  0.2586 -0.3999 -0.4544
  832MOL0     C 9715   3.444  11.147   9.810  0.2997 -0.5279  0.8608
  832MOL0     O 9716   3.542  11.214   9.732  0.1610 -0.1818 -0.2883
  832MOL0     C 9717   3.659  11.253   9.800 -0.0567  0.6279 -0.2783
  832MOL0     C 9718   3.768  11.281   9.724 -0.2525  0.1648  0.7528
  832MOL0     C 9719   3.884  11.326   9.784  0.9872 -0.3347  0.5548
  832MOL0     C 9720   3.902  11.339   9.923  0.2340 -0.0951  0.2197
  832MOL0     C 9721   4.038  11.390   9.974 -0.4007 -0.2579  0.1448
  832MOL0     O 9722   4.052  11.404  10.109  0.0781  0.5368 -0.6102
  832MOL0     C 9723   4.180  11.436  10.150 -0.4335  0.3077 -0.4361
  832MOL0     C 9724   4.283  11.339  10.156  0.5403  0.7721 -0.9097
  832MOL0     C 9725   4.409  11.365  10.211  0.1312  0.1223 -0.3703
  832MOL0     C 9726   4.450  11.498  10.229 -0.8294 -0.3385 -0.1285
  832MOL0     O 9727   4.582  11.546  10.262 -0.0358  0.0792  0.9560
  832MOL0     C 9728   4.694  11.451  10.261  0.3378  0.0275  0.0896
  832MOL0     C 9729   4.831  11.510  10.285  0.4076 -0.3846  0.5066
  832MOL0     C 9730   4.939  11.401  10.334  1.0654 -0.5511  1.0058
  832MOL0     C 9731   5.075  11.472  10.365 -0.1733 -0.2221 -0.9156
  832MOL0     C 9732   5.162  11.381  10.454  0.1087  0.2007 -0.2550
  832MOL0     C 9733   5.187  11.238  10.394 -0.5077 -0.1787 -0.2386
  832MOL0     C 9734   5.311  11.233  10.301  0.4030  0.4220  0.5232
  832MOL0     C 9735   5.293  11.123  10.198 -0.2398  0.1361  0.0285
  832MOL0    Cl 9736   5.441  11.084  10.110  0.1834 -0.5482  0.1362
  832MOL0     C 9737   4.357  11.598  10.211  0.9130 -0.4303  0.3916
  832MOL0     C 9738   4.223  11.569  10.168  0.2382  0.3640  0.6627
  832MOL0     O 9739   4.125  11.405   9.899 -0.6410 -0.5444  0.4428
  832MOL0     C 9740   3.796  11.303   9.999 -0.2255  0.5333 -0.1350
  832MOL0     C 9741   3.677  11.252   9.941  0.5413 -0.4181 -0.0214
  832MOL0     N 9742   3.108  11.520   9.701 -0.3603 -0.4469  0.3908
  832MOL0     N 9743   3.026  11.603   9.646 -1.1758 -0.3383 -1.6109
  832MOL0     C 9744   2.061  11.101   9.228  0.1440  0.6457  0.2193
  832MOL0     C 9745   1.971  11.008   9.273 -0.7279  1.2079  0.2910
  832MOL0     C 9746   1.742  10.661   9.358  0.6559  0.2556  0.8688
  832MOL0     C 9747   1.688  10.648   9.489  1.5087  0.4828  0.6823
  832MOL0     C 9748   1.572  10.573   9.502  0.3486 -0.6731 -0.5168
  832MOL0     C 9749   1.505  10.516   9.402  0.1350 -0.3573  0.5193
  832MOL0     O 9750   1.386  10.442   9.414  0.6807 -0.2032  0.0220
  832MOL0     C 9751   1.359  10.393   9.545  0.4328 -0.0476  0.1102
  832MOL0     C 9752   1.240  10.303   9.558 -0.1489 -0.7380 -0.3965
  832MOL0     C 9753   1.113  10.385   9.589  0.6021  0.3587 -0.0362
  832MOL0     C 9754   1.122  10.409   9.746 -0.3281 -0.1609  0.8431
  832MOL0     C 9755   1.006  10.489   9.792 -0.5718  0.0798  0.1004
  832MOL0     C 9756   0.902  10.547   9.821 -0.2123  0.9936 -0.1540
  832MOL0     C 9757   1.557  10.534   9.276  0.2311 -0.4835 -0.2529
  832MOL0     C 9758   1.673  10.608   9.246 -0.3717  0.7711 -0.0010
  832MOL0     H 9759   2.125  10.892   9.548 -0.5995  1.6984  0.4853
  832MOL0     H 9760   2.299  11.041   9.455 -1.0818  0.7643  0.8611
  832MOL0     H 9761   2.207  11.341   9.112 -1.3300 -1.8163 -2.7483
  832MOL0     H 9762   2.250  11.184   9.051 -0.5027  0.0061 -0.3937
  832MOL0     H 9763   2.405  11.357   8.987  1.8358  0.3986 -0.5137
  832MOL0     H 9764   2.486  11.242   9.089  0.6404  1.0755  0.3679
  832MOL0     H 9765   2.429  11.416   9.289  3.7485  2.6720  1.2839
  832MOL0     H 9766   2.372  11.512   9.160 -1.7059 -0.7352  2.0658
  832MOL0     H 9767   2.652  11.381   9.211 -1.0694 -0.0818  1.6460
  832MOL0     H 9768   2.613  11.472   9.066  0.0262 -2.2259 -0.7980
  832MOL0     H 9769   2.584  11.579   9.334 -0.5591 -3.8416 -0.8502
  832MOL0     H 9770   2.537  11.680   9.194 -0.0414  1.9397  2.3528
  832MOL0     H 9771   2.741  11.758   9.267 -0.8277  0.0523  0.5585
  832MOL0     H 9772   2.799  11.671   9.129  1.0333  1.7928 -0.1160
  832MOL0     H 9773   2.774  11.507   9.377 -0.1332 -0.3268 -1.1551
  832MOL0     H 9774   2.912  11.507   9.270 -0.4728  0.0437 -0.3202
  832MOL0     H 9775   2.873  11.732   9.482 -0.9988 -1.0906  0.7522
  832MOL0     H 9776   2.988  11.714   9.349 -1.1680  0.4472 -1.1596
  832MOL0     H 9777   3.115  11.441   9.374 -1.0458 -1.4353 -0.5304
  832MOL0     H 9778   3.344  11.388   9.608 -0.3767  0.7957 -2.1902
  832MOL0     H 9779   3.250  11.293   9.488  3.3765  3.9837 -1.9910
  832MOL0     H 9780   3.126  11.200   9.709  2.7951 -3.4994  0.2311
  832MOL0     H 9781   3.236  11.310   9.796 -1.2900  0.8108 -0.6323
  832MOL0     H 9782   3.268  11.041   9.734 -1.3003  0.4734 -1.0058
  832MOL0     H 9783   3.372  11.127   9.611  1.6198  1.4276  0.0365
  832MOL0     H 9784   3.481  11.054   9.853 -0.2049  0.0504  2.6509
  832MOL0     H 9785   3.412  11.211   9.894 -3.4076  0.8823 -1.3512
  832MOL0     H 9786   3.753  11.276   9.617 -1.7529  0.9771  0.8980
  832MOL0     H 9787   3.943  11.370   9.705 -0.3749  2.0777  0.7596
  832MOL0     H 9788   4.267  11.232  10.144  1.0509 -0.0734  4.0869
  832MOL0     H 9789   4.478  11.283  10.229 -1.9117 -1.2107  1.8921
  832MOL0     H 9790   4.680  11.387  10.173 -0.5560 -0.1455  0.3366
  832MOL0     H 9791   4.686  11.379  10.344  1.9605  0.8868  1.0241
  832MOL0     H 9792   4.820  11.593  10.355  0.8724 -1.0042  1.3293
  832MOL0     H 9793   4.861  11.547  10.186 -0.0007  2.4469  1.3622
  832MOL0     H 9794   4.954  11.330  10.252 -0.7018  0.5415 -0.3480
  832MOL0     H 9795   4.899  11.354  10.423 -2.7391 -2.0174 -1.2348
  832MOL0     H 9796   5.140  11.493  10.280  0.2838  3.3433  0.1986
  832MOL0     H 9797   5.049  11.570  10.405  3.1369  0.3965 -0.0120
  832MOL0     H 9798   5.109  11.371  10.549 -2.5190  1.3494 -1.4754
  832MOL0     H 9799   5.260  11.425  10.474  0.2490  0.7979 -2.0697
  832MOL0     H 9800   5.100  11.200  10.340 -1.2247  3.4752 -1.9287
  832MOL0     H 9801   5.208  11.170  10.478 -1.4459  1.5460  1.4744
  832MOL0     H 9802   5.317  11.327  10.246 -3.3114  0.1421 -0.6197
  832MOL0     H 9803   5.402  11.210  10.357  1.1074 -2.3406 -1.6073
  832MOL0     H 9804   5.218  11.154  10.125  0.6909 -0.4214 -1.2004
  832MOL0     H 9805   5.262  11.036  10.257  1.7617 -1.1087 -0.6553
  832MOL0     H 9806   4.397  11.699  10.214  0.9711 -0.4654  1.2566
  832MOL0     H 9807   4.162  11.657  10.148  0.2597  0.5655  1.4668
  832MOL0     H 9808   3.798  11.309  10.107 -0.3799 -0.8619 -0.0458
  832MOL0     H 9809   3.595  11.233  10.009  1.6553 -2.8026  0.7255
  832MOL0     H 9810   2.024  11.140   9.134 -0.5813 -1.4273 -0.4102
  832MOL0     H 9811   1.880  10.990   9.215 -0.3362  0.2004 -0.0454
  832MOL0     H 9812   1.731  10.693   9.578  0.8145  0.3900  1.0705
  832MOL0     H 9813   1.538  10.578   9.605 -2.0231  0.0641 -1.2599
  832MOL0     H 9814   1.346  10.479   9.611  1.8467 -0.4560  0.9754
  832MOL0     H 9815   1.446  10.335   9.579 -0.0804  0.2304  1.9844
  832MOL0     H 9816   1.239  10.242   9.467  1.3953  2.7722 -2.9768
  832MOL0     H 9817   1.249  10.222   9.631  0.2224  1.0475  1.6183
  832MOL0     H 9818   1.030  10.327   9.548  1.3049  0.5508 -1.8082
  832MOL0     H 9819   1.124  10.480   9.535  0.1547  1.6167  1.9728
  832MOL0     H 9820   1.125  10.314   9.799 -1.7407 -1.1503 -0.7617
  832MOL0     H 9821   1.213  10.469   9.758  0.5082 -0.8915 -1.2665
  832MOL0     H 9822   0.808  10.590   9.849 -1.7241 -2.7741  1.2269
  832MOL0     H 9823   1.494  10.503   9.193 -1.3733  2.4573 -0.2793
  832MOL0     H 9824   1.710  10.624   9.145  1.7197 -2.8049  0.0314
  833MOL0     O 9825   8.534   3.878   1.087 -0.3437 -0.0629 -0.6912
  833MOL0     C 9826   8.460   3.969   1.082  0.0982  0.1097  0.8528
  833MOL0     O 9827   8.366   3.993   0.977  0.0128 -0.9709 -0.2180
  833MOL0     C 9828   8.372   3.946   0.848 -0.0339  0.5852  0.6729
  833MOL0     C 9829   8.499   3.929   0.791 -0.2260  0.2147  0.6624
  833MOL0     C 9830   8.523   3.881   0.653  0.1017  0.0393 -0.3668
  833MOL0     C 9831   8.412   3.847   0.578 -0.9185 -0.3115 -0.8252
  833MOL0     O 9832   8.440   3.815   0.450 -0.1779 -0.4125  0.2216
  833MOL0     C 9833   8.367   3.712   0.381  0.7463  0.1868 -0.5364
  833MOL0     C 9834   8.359   3.742   0.227  0.6541 -0.1255 -0.3964
  833MOL0     C 9835   8.285   3.630   0.150  0.3629  0.2759  0.4410
  833MOL0     C 9836   8.333   3.616   0.004  0.5269  0.2405  0.3815
  833MOL0     C 9837   8.245   3.522  -0.085 -0.8241 -0.2485  0.3267
  833MOL0     C 9838   8.122   3.606  -0.118  0.9624  0.3573  0.0413
  833MOL0     C 9839   8.022   3.507  -0.188 -0.6933  0.5472  0.0760
  833MOL0     C 9840   7.886   3.567  -0.246  0.3943 -0.1666  0.7798
  833MOL0     N 9841   7.927   3.661  -0.355  0.0924 -0.3123  0.4278
  833MOL0     C 9842   7.886   3.795  -0.364  0.5898 -0.1293 -0.4777
  833MOL0     C 9843   7.866   3.820  -0.504  0.4092 -0.3546 -1.0945
  833MOL0     C 9844   7.818   3.948  -0.571  0.0127  0.8471 -0.7189
  833MOL0     C 9845   7.891   4.075  -0.517  0.1438  0.1563 -0.2763
  833MOL0     C 9846   7.812   4.204  -0.554 -0.6164 -0.4872  0.8814
  833MOL0     C 9847   7.813   4.226  -0.711  0.1053  0.4287 -0.0157
  833MOL0     O 9848   7.691   4.178  -0.759 -0.0376 -0.4410 -0.3751
  833MOL0     C 9849   7.647   4.199  -0.890 -0.7859 -0.0911  0.4871
  833MOL0     C 9850   7.748   4.231  -0.984 -0.4591 -0.0543 -0.4867
  833MOL0     C 9851   7.714   4.240  -1.124 -0.6493 -0.8181  0.4500
  833MOL0     C 9852   7.591   4.201  -1.173  0.6657 -0.6940 -0.3451
  833MOL0     C 9853   7.563   4.191  -1.316  0.5522  1.4280 -1.0818
  833MOL0     O 9854   7.669   4.195  -1.408 -0.3701 -0.2648 -0.2574
  833MOL0     C 9855   7.653   4.204  -1.545  0.3601  0.2164 -1.0701
  833MOL0     C 9856   7.556   4.272  -1.604  1.1565 -0.2990 -1.0594
  833MOL0     C 9857   7.551   4.281  -1.742  0.2866  0.6054 -0.0288
  833MOL0     C 9858   7.641   4.216  -1.824  0.1402 -0.7748  0.3526
  833MOL0     O 9859   7.656   4.244  -1.956  0.9363 -0.1510  0.2460
  833MOL0     C 9860   7.584   4.347  -2.024 -0.4769 -0.4371 -1.1302
  833MOL0     C 9861   7.629   4.373  -2.164 -0.2549 -0.6354  0.3940
  833MOL0     C 9862   7.767   4.381  -2.200 -0.5333 -0.4622 -0.4594
  833MOL0     C 9863   7.836   4.503  -2.130  1.5987 -0.2786 -0.1115
  833MOL0     C 9864   7.810   4.631  -2.194  0.0246 -0.6266 -0.3351
  833MOL0     C 9865   7.903   4.735  -2.143 -0.0396  0.0839 -0.2366
  833MOL0     C 9866   7.879   4.869  -2.219 -0.8519  0.1347  0.3329
  833MOL0     C 9867   7.924   4.985  -2.132  0.3851  0.8084  0.6804
  833MOL0    Cl 9868   7.793   4.995  -2.000  0.4407 -0.5070  0.0425
  833MOL0     C 9869   7.736   4.139  -1.766  0.8369  0.2337  0.2855
  833MOL0     C 9870   7.737   4.129  -1.623 -0.0087  0.0103  0.9020
  833MOL0     O 9871   7.443   4.179  -1.340 -0.6722  0.0731  0.1080
  833MOL0     C 9872   7.492   4.179  -1.076 -0.2353  0.4697 -0.1435
  833MOL0     C 9873   7.523   4.176  -0.939  0.1600 -1.0998  0.2654
  833MOL0     N 9874   7.895   3.709  -0.570  0.1322  0.3669  0.4154
  833MOL0     N 9875   7.928   3.618  -0.487  0.6421  0.5293  0.4099
  833MOL0     C 9876   8.282   3.863   0.637  0.4066 -0.2261  0.7666
  833MOL0     C 9877   8.265   3.911   0.766 -0.3144  0.0993  0.2922
  833MOL0     C 9878   8.453   4.056   1.194  0.1778  0.2926  0.1543
  833MOL0     C 9879   8.346   4.139   1.216 -0.2250  0.0813 -0.0937
  833MOL0     C 9880   8.328   4.207   1.339 -0.0208 -0.4418 -0.2721
  833MOL0     C 9881   8.423   4.186   1.448 -0.9129  0.1935  0.5821
  833MOL0     O 9882   8.413   4.253   1.565 -0.0321  0.2387 -0.1090
  833MOL0     C 9883   8.331   4.183   1.651  0.1577  0.9833 -0.2962
  833MOL0     C 9884   8.326   4.246   1.786  0.8644 -0.1287  0.1619
  833MOL0     C 9885   8.307   4.145   1.900  0.6933  0.7020 -0.3030
  833MOL0     C 9886   8.245   4.209   2.022  0.3476 -0.5284 -1.1176
  833MOL0     C 9887   8.341   4.291   2.101 -0.2679 -0.3843  0.4329
  833MOL0     C 9888   8.431   4.350   2.158 -0.4796 -0.5471  0.7612
  833MOL0     C 9889   8.533   4.107   1.421 -0.2798 -1.1435  0.7372
  833MOL0     C 9890   8.535   4.039   1.299  0.0673 -0.6052  0.0114
  833MOL0     H 9891   8.589   3.962   0.843  2.1762  0.2727 -3.1043
  833MOL0     H 9892   8.618   3.875   0.601 -0.6139 -0.3496 -1.6790
  833MOL0     H 9893   8.264   3.697   0.414  0.1866  0.6713 -1.9696
  833MOL0     H 9894   8.408   3.612   0.395  2.9459  0.6543 -2.8456
  833MOL0     H 9895   8.463   3.742   0.192  1.1792 -1.4919  1.0305
  833MOL0     H 9896   8.310   3.838   0.209 -0.6283 -0.9490 -1.5440
  833MOL0     H 9897   8.179   3.656   0.164  0.6930  2.7428 -0.9985
  833MOL0     H 9898   8.300   3.534   0.198 -1.9146 -1.6034 -2.2341
  833MOL0     H 9899   8.344   3.712  -0.048  0.9012 -0.3064 -0.5712
  833MOL0     H 9900   8.434   3.574  -0.000  0.1116 -0.7139 -0.4749
  833MOL0     H 9901   8.210   3.426  -0.046 -1.5442 -0.0373  0.2123
  833MOL0     H 9902   8.289   3.521  -0.185  0.9211  2.8531  0.9444
  833MOL0     H 9903   8.141   3.703  -0.165  0.8306 -0.3107 -1.4297
  833MOL0     H 9904   8.060   3.624  -0.029 -0.0980 -1.5394 -0.2555
  833MOL0     H 9905   8.076   3.454  -0.268  1.4226  2.1798  0.3410
  833MOL0     H 9906   8.001   3.428  -0.115  2.3463  0.7984  1.3597
  833MOL0     H 9907   7.841   3.626  -0.166  0.2695  0.9256 -0.0789
  833MOL0     H 9908   7.823   3.486  -0.284 -0.2927  1.2387 -1.2358
  833MOL0     H 9909   7.866   3.854  -0.276 -0.2772 -4.9999  3.0499
  833MOL0     H 9910   7.712   3.955  -0.545  0.1862  0.2494  0.1744
  833MOL0     H 9911   7.825   3.938  -0.680 -1.8884 -1.5294 -0.6968
  833MOL0     H 9912   7.991   4.090  -0.558 -0.4231  0.9721 -1.3999
  833MOL0     H 9913   7.906   4.082  -0.409  2.6080  0.3580 -0.5618
  833MOL0     H 9914   7.710   4.198  -0.513 -0.6143 -1.2726  0.7841
  833MOL0     H 9915   7.860   4.286  -0.499  1.2058 -2.9132  3.1682
  833MOL0     H 9916   7.902   4.178  -0.752 -0.5432 -0.6836 -0.1571
  833MOL0     H 9917   7.830   4.333  -0.729  0.4064  0.5475  0.9145
  833MOL0     H 9918   7.850   4.256  -0.956 -0.5042 -0.9274  0.5401
  833MOL0     H 9919   7.805   4.251  -1.181 -0.6591 -1.0729  0.3852
  833MOL0     H 9920   7.479   4.326  -1.550 -2.6333 -3.2823 -2.9962
  833MOL0     H 9921   7.470   4.338  -1.786 -2.0541 -3.8239 -2.2068
  833MOL0     H 9922   7.570   4.444  -1.977 -5.9123  0.4486 -3.7998
  833MOL0     H 9923   7.479   4.317  -2.020 -0.7791  0.5949  3.3358
  833MOL0     H 9924   7.574   4.462  -2.197  2.1911  1.2881  1.2096
  833MOL0     H 9925   7.595   4.284  -2.219 -1.8253  0.4632 -0.4818
  833MOL0     H 9926   7.771   4.377  -2.309  2.6580 -1.3700 -0.4086
  833MOL0     H 9927   7.819   4.289  -2.172  3.6018  1.7673 -0.1502
  833MOL0     H 9928   7.820   4.505  -2.022 -4.0094  2.9053 -0.6170
  833MOL0     H 9929   7.940   4.476  -2.150  1.3524 -0.2338 -1.5682
  833MOL0     H 9930   7.712   4.664  -2.160  0.6357  2.1237 -1.0281
  833MOL0     H 9931   7.816   4.643  -2.302  0.5770  0.3993 -0.1995
  833MOL0     H 9932   8.005   4.699  -2.161 -0.6899 -2.5093  0.8153
  833MOL0     H 9933   7.886   4.737  -2.035  1.4539 -1.0857  0.0547
  833MOL0     H 9934   7.939   4.870  -2.311  0.2222  4.3545  0.8580
  833MOL0     H 9935   7.773   4.873  -2.246 -0.8999 -1.6881  0.1481
  833MOL0     H 9936   7.932   5.074  -2.195 -1.4258  0.9924  0.6463
  833MOL0     H 9937   8.026   4.980  -2.092  1.1113  1.6596 -0.9913
  833MOL0     H 9938   7.814   4.093  -1.825  1.9824 -1.7517  3.1153
  833MOL0     H 9939   7.818   4.077  -1.572 -0.1419 -1.2984 -0.1589
  833MOL0     H 9940   7.388   4.157  -1.098 -1.1627  0.3338  3.5932
  833MOL0     H 9941   7.439   4.184  -0.870 -0.8328  0.8884 -1.0872
  833MOL0     H 9942   8.192   3.836   0.583 -0.5401 -0.8803  2.5884
  833MOL0     H 9943   8.167   3.898   0.810  0.6374  1.3070  2.9842
  833MOL0     H 9944   8.262   4.155   1.150 -1.0232 -1.4701  0.4814
  833MOL0     H 9945   8.234   4.258   1.358  0.6115  0.0911  1.5933
  833MOL0     H 9946   8.372   4.082   1.652  0.8462  1.2345 -1.2383
  833MOL0     H 9947   8.228   4.180   1.615  0.0830 -1.0265 -0.0159
  833MOL0     H 9948   8.420   4.294   1.814 -1.1512  2.1338  3.9086
  833MOL0     H 9949   8.245   4.320   1.792  2.1616  1.2770  1.2998
  833MOL0     H 9950   8.394   4.083   1.926 -0.6919 -0.7956  0.9408
  833MOL0     H 9951   8.233   4.076   1.858  1.6995  0.2964 -1.5158
  833MOL0     H 9952   8.163   4.280   2.006  2.2379  1.4950 -2.4258
  833MOL0     H 9953   8.198   4.133   2.084  0.1841 -1.0402 -1.8570
  833MOL0     H 9954   8.498   4.425   2.195 -1.7597  0.4001  1.2152
  833MOL0     H 9955   8.614   4.083   1.490 -0.3403 -1.4084  0.7177
  833MOL0     H 9956   8.618   3.970   1.298  1.0454  0.4567  1.7388
  834MOL0     O 9957   1.470  10.835   5.917 -0.5002 -0.2847 -0.1816
  834MOL0     C 9958   1.394  10.907   5.850 -1.0798  0.5778 -0.0594
  834MOL0     O 9959   1.430  11.022   5.786  0.2013 -0.5764  0.7383
  834MOL0     C 9960   1.563  11.043   5.768 -0.2583 -0.3603  0.1257
  834MOL0     C 9961   1.655  10.958   5.700  0.0003  0.4697  0.0048
  834MOL0     C 9962   1.795  10.993   5.681 -0.2382  0.0658  0.1138
  834MOL0     C 9963   1.846  11.114   5.732  0.2554 -0.8432 -0.2611
  834MOL0     O 9964   1.979  11.129   5.707  0.2681 -0.0031 -0.8180
  834MOL0     C 9965   2.050  11.233   5.777  0.6182 -0.2092  0.5689
  834MOL0     C 9966   2.192  11.237   5.723 -0.5775  0.6057 -0.7174
  834MOL0     C 9967   2.213  11.186   5.581 -0.2455 -0.1075  0.0673
  834MOL0     C 9968   2.127  11.265   5.477 -0.1002 -0.8441  0.3804
  834MOL0     C 9969   2.204  11.258   5.340  0.4373  0.7949 -0.4385
  834MOL0     C 9970   2.135  11.341   5.228  1.1976 -0.5704  0.2215
  834MOL0     C 9971   1.988  11.317   5.219  0.9196  1.3555  0.5573
  834MOL0     C 9972   1.931  11.346   5.078 -0.4780 -0.3089 -0.7914
  834MOL0     N 9973   1.788  11.306   5.074  0.4016  0.9556 -0.3430
  834MOL0     C 9974   1.757  11.175   5.082  0.4641  0.6724  0.3152
  834MOL0     C 9975   1.621  11.183   5.047 -0.4382  0.9749  0.8926
  834MOL0     C 9976   1.526  11.067   5.057 -0.3058  0.4452 -0.7120
  834MOL0     C 9977   1.477  11.007   4.922  0.2759 -0.2693  0.1422
  834MOL0     C 9978   1.355  11.087   4.850 -0.4245  0.2770 -0.6412
  834MOL0     C 9979   1.406  11.120   4.715 -0.1072  0.3938  0.2817
  834MOL0     O 9980   1.405  10.985   4.656  0.8951  0.1485 -0.0597
  834MOL0     C 9981   1.514  10.952   4.583 -0.5438  0.5005  0.2445
  834MOL0     C 9982   1.558  11.040   4.490  0.6725 -0.9269 -0.2103
  834MOL0     C 9983   1.661  11.012   4.406  0.5685  0.4116 -0.0939
  834MOL0     C 9984   1.735  10.898   4.426 -0.2034 -0.2584 -0.1235
  834MOL0     C 9985   1.852  10.861   4.336 -0.9831 -0.2142  0.1946
  834MOL0     O 9986   1.882  10.728   4.334 -0.3096  0.6820 -0.1123
  834MOL0     C 9987   2.013  10.686   4.352  0.6896  0.7176 -0.0598
  834MOL0     C 9988   2.113  10.710   4.262  0.4519  0.3157  0.4160
  834MOL0     C 9989   2.243  10.671   4.279  0.8774 -0.8045  0.5390
  834MOL0     C 9990   2.276  10.605   4.401  0.1627  0.1540 -0.0810
  834MOL0     O 9991   2.401  10.560   4.425  0.4297 -0.0551 -0.1530
  834MOL0     C 9992   2.493  10.659   4.473 -0.9282 -0.1379 -0.1604
  834MOL0     C 9993   2.601  10.616   4.570 -0.1495 -0.3401 -0.7016
  834MOL0     C 9994   2.545  10.546   4.694 -0.3848 -0.0060 -1.1015
  834MOL0     C 9995   2.663  10.493   4.771  0.5576 -0.1366 -0.7494
  834MOL0     C 9996   2.637  10.446   4.917 -0.4320 -0.5811  0.7876
  834MOL0     C 9997   2.510  10.363   4.926  0.9101 -1.0226 -0.1883
  834MOL0     C 9998   2.524  10.224   4.862  0.8764  0.2202  0.4470
  834MOL0     C 9999   2.424  10.137   4.927  0.0086  0.7790 -1.1198
  834MOL0    Cl10000   2.378   9.995   4.824 -0.0604  0.3847  0.3397
  834MOL0     C10001   2.174  10.579   4.499  0.2393 -0.6069  0.4729
  834MOL0     C10002   2.042  10.621   4.470 -0.3446 -0.1266  0.6990
  834MOL0     O10003   1.901  10.951   4.265  0.5404  0.1380  0.0992
  834MOL0     C10004   1.701  10.809   4.525 -0.2320  0.4976 -0.8853
  834MOL0     C10005   1.588  10.837   4.612 -1.2655  0.0276 -0.6948
  834MOL0     N10006   1.589  11.301   4.997  0.2520  0.3177 -0.1271
  834MOL0     N10007   1.685  11.380   5.022  0.6315  0.0380  0.4080
  834MOL0     C10008   1.752  11.199   5.798 -0.0420 -0.2189  0.0308
  834MOL0     C10009   1.609  11.167   5.796 -0.4905 -0.7672  0.2687
  834MOL0     C10010   1.248  10.874   5.853 -0.2776  0.4630  0.6278
  834MOL0     C10011   1.151  10.935   5.766 -0.0190  0.2942  0.0102
  834MOL0     C10012   1.012  10.907   5.782 -0.5253 -0.1155 -0.2359
  834MOL0     C10013   0.973  10.823   5.881  0.2609  0.6098 -1.0008
  834MOL0     O10014   0.837  10.805   5.894 -0.5915  0.2406 -0.1390
  834MOL0     C10015   0.782  10.713   5.983  0.3145 -0.3164  0.2624
  834MOL0     C10016   0.630  10.722   5.997  0.1918 -0.5844 -0.2700
  834MOL0     C10017   0.580  10.864   6.047  0.1624 -1.2250  0.9347
  834MOL0     C10018   0.477  10.931   5.950 -0.1045 -0.4199 -0.2440
  834MOL0     C10019   0.557  11.003   5.845  1.0536 -0.1620  0.9480
  834MOL0     C10020   0.623  11.070   5.767 -0.5020 -0.1603 -0.0317
  834MOL0     C10021   1.080  10.753   5.961  0.7153 -0.1617 -0.3233
  834MOL0     C10022   1.205  10.787   5.950  0.0191  0.7901  0.2229
  834MOL0     H10023   1.624  10.863   5.658  2.8261 -0.5326 -0.0615
  834MOL0     H10024   1.845  10.915   5.626 -1.1312 -0.2655 -0.2518
  834MOL0     H10025   2.047  11.200   5.881 -2.7193 -2.0793  0.0248
  834MOL0     H10026   2.003  11.330   5.759  0.2993 -0.5311 -0.4076
  834MOL0     H10027   2.259  11.182   5.789 -1.2086  1.8704  1.0492
  834MOL0     H10028   2.221  11.341   5.744 -0.6058  0.5284 -0.2929
  834MOL0     H10029   2.198  11.078   5.568 -4.4454  0.4382 -0.9244
  834MOL0     H10030   2.317  11.212   5.558  0.6713 -1.4057  2.3900
  834MOL0     H10031   2.025  11.228   5.465 -0.0104 -0.7649 -0.7964
  834MOL0     H10032   2.105  11.366   5.512 -4.0648 -0.8525 -1.5276
  834MOL0     H10033   2.225  11.155   5.309 -1.1101  0.2183  0.2852
  834MOL0     H10034   2.306  11.295   5.343  2.3370 -3.7854  0.5526
  834MOL0     H10035   2.186  11.312   5.136 -1.4524 -2.2627 -0.8247
  834MOL0     H10036   2.156  11.445   5.254  0.1685 -0.3359  0.1757
  834MOL0     H10037   1.976  11.212   5.244  0.8185  1.9829  3.6154
  834MOL0     H10038   1.926  11.373   5.290  0.4631  0.4500  0.8795
  834MOL0     H10039   1.992  11.286   5.010 -0.0501 -0.9058  0.0984
  834MOL0     H10040   1.941  11.452   5.053 -1.4555 -0.1297 -0.4983
  834MOL0     H10041   1.818  11.095   5.122 -1.8300 -1.6789 -0.6389
  834MOL0     H10042   1.439  11.101   5.114 -0.9573  0.4308 -1.6601
  834MOL0     H10043   1.585  10.988   5.105 -1.6908  0.1579  0.5886
  834MOL0     H10044   1.435  10.906   4.930 -2.0681  0.6993  1.2997
  834MOL0     H10045   1.562  10.994   4.856  0.3383  3.8199 -0.8535
  834MOL0     H10046   1.256  11.040   4.849  0.1105 -1.0510  1.7160
  834MOL0     H10047   1.344  11.178   4.910  5.6567  0.3315  0.9743
  834MOL0     H10048   1.507  11.162   4.721  1.3979 -2.7096 -1.1164
  834MOL0     H10049   1.337  11.184   4.659  2.1779  0.3337 -2.8819
  834MOL0     H10050   1.504  11.133   4.474 -0.4047 -1.7865 -1.8974
  834MOL0     H10051   1.691  11.088   4.334  0.7413 -0.0510 -0.5150
  834MOL0     H10052   2.094  10.758   4.167  0.0334 -0.9646 -0.1738
  834MOL0     H10053   2.325  10.687   4.210  1.1723 -2.1544  0.5462
  834MOL0     H10054   2.428  10.736   4.518  0.0036  1.1195 -0.8949
  834MOL0     H10055   2.526  10.708   4.381 -2.4744  1.4968  0.0848
  834MOL0     H10056   2.663  10.704   4.591  0.0011 -0.7807  0.8084
  834MOL0     H10057   2.661  10.535   4.527  2.0871 -0.3080  2.0529
  834MOL0     H10058   2.467  10.473   4.674 -1.7058  0.8452  0.6821
  834MOL0     H10059   2.496  10.616   4.761  1.6451  0.1174  0.3664
  834MOL0     H10060   2.709  10.421   4.703 -0.7452 -0.5728 -1.1983
  834MOL0     H10061   2.726  10.580   4.790 -0.0021 -0.4051  3.0511
  834MOL0     H10062   2.632  10.532   4.984 -0.9537 -0.2136  0.2867
  834MOL0     H10063   2.721  10.384   4.949  0.1749  0.6632  1.6590
  834MOL0     H10064   2.421  10.412   4.885  1.2176 -1.5236 -1.4742
  834MOL0     H10065   2.490  10.348   5.033  1.5433 -1.3203 -0.1084
  834MOL0     H10066   2.526  10.227   4.753  1.7665 -2.0372  0.3415
  834MOL0     H10067   2.620  10.184   4.899 -0.0173 -1.8779  0.6363
  834MOL0     H10068   2.338  10.198   4.958  0.8139  0.6196  1.7700
  834MOL0     H10069   2.469  10.104   5.021 -0.3393  1.3156 -0.7579
  834MOL0     H10070   2.207  10.551   4.599 -0.2208  2.3724  1.5642
  834MOL0     H10071   1.962  10.606   4.541 -1.1144 -0.1353 -0.1473
  834MOL0     H10072   1.759  10.720   4.551  0.5687  1.2159 -0.1544
  834MOL0     H10073   1.551  10.782   4.698  2.9032 -0.8747  0.7516
  834MOL0     H10074   1.786  11.292   5.843  0.7337 -0.3269 -0.3052
  834MOL0     H10075   1.542  11.242   5.838  0.9163  0.6906 -0.0063
  834MOL0     H10076   1.187  11.004   5.691 -0.6412 -0.5813 -1.1261
  834MOL0     H10077   0.948  10.976   5.728  2.5475  4.2647  1.1644
  834MOL0     H10078   0.824  10.733   6.082  0.7942  0.3001 -0.0641
  834MOL0     H10079   0.811  10.610   5.959 -1.0053 -1.2392  2.3138
  834MOL0     H10080   0.581  10.692   5.904  1.1947 -3.5859  0.0774
  834MOL0     H10081   0.604  10.650   6.074  0.5667  1.4208  1.8456
  834MOL0     H10082   0.670  10.925   6.063  0.1920 -1.0310  0.0981
  834MOL0     H10083   0.532  10.860   6.145  1.2004  1.3921  1.6322
  834MOL0     H10084   0.409  10.859   5.904  2.5019 -2.7702 -0.7106
  834MOL0     H10085   0.416  11.006   6.000 -0.6689  0.5445 -2.2588
  834MOL0     H10086   0.690  11.131   5.709 -1.1826  0.7354  0.1153
  834MOL0     H10087   1.066  10.672   6.032  2.4357 -1.2438 -1.1412
  834MOL0     H10088   1.271  10.741   6.023 -1.7213 -1.4763  0.4775
  835MOL0     O10089   3.534   3.993   6.115  0.2124  0.0835  0.1185
  835MOL0     C10090   3.529   3.983   6.243 -0.2454 -1.0951 -0.1224
  835MOL0     O10091   3.518   3.867   6.317  0.5243  0.2859 -0.1042
  835MOL0     C10092   3.460   3.761   6.255 -0.6613 -0.2477 -0.4634
  835MOL0     C10093   3.497   3.636   6.306  1.0930  0.4713 -0.4182
  835MOL0     C10094   3.453   3.519   6.240 -0.5546  0.6512 -0.0779
  835MOL0     C10095   3.352   3.523   6.142  0.0902 -0.0171  0.0703
  835MOL0     O10096   3.304   3.405   6.098 -0.5359  0.1884  0.3426
  835MOL0     C10097   3.404   3.365   6.007  0.7897 -0.5981  0.1880
  835MOL0     C10098   3.351   3.289   5.889 -1.0673 -0.3948  0.2139
  835MOL0     C10099   3.259   3.371   5.799 -0.2940  0.4826  0.5090
  835MOL0     C10100   3.110   3.336   5.826 -0.0976  0.3371 -0.6636
  835MOL0     C10101   3.006   3.440   5.773 -0.2165 -0.4732  0.3051
  835MOL0     C10102   2.869   3.412   5.834  0.1078 -0.3788 -0.3627
  835MOL0     C10103   2.792   3.285   5.786  0.0330 -0.1477  0.2757
  835MOL0     C10104   2.653   3.276   5.838 -0.6803  1.0084  0.0140
  835MOL0     N10105   2.578   3.171   5.768 -0.2937  0.0157  0.2030
  835MOL0     C10106   2.519   3.174   5.643  0.5105 -0.1350 -1.3218
  835MOL0     C10107   2.453   3.055   5.628  0.5570 -0.4610  0.3143
  835MOL0     C10108   2.391   3.037   5.497 -0.0027 -0.3996 -0.0051
  835MOL0     C10109   2.311   2.909   5.496  0.0550 -1.3013  0.3276
  835MOL0     C10110   2.399   2.779   5.513  0.7100 -0.1929  0.1665
  835MOL0     C10111   2.330   2.647   5.476 -0.9663 -1.1749 -0.6122
  835MOL0     O10112   2.214   2.629   5.562  0.2908  0.3392 -0.2409
  835MOL0     C10113   2.146   2.512   5.547 -0.4629  0.4218  0.9996
  835MOL0     C10114   2.187   2.405   5.461 -0.8522 -0.1455 -0.4447
  835MOL0     C10115   2.126   2.283   5.472  0.1604 -0.2363 -0.3170
  835MOL0     C10116   2.005   2.262   5.561 -0.5337 -0.3501  0.0558
  835MOL0     C10117   1.938   2.127   5.567  0.1347  0.1999 -0.2870
  835MOL0     O10118   1.825   2.117   5.649  0.3187 -0.4814 -0.5032
  835MOL0     C10119   1.763   1.997   5.669 -0.0234  0.7128  0.2356
  835MOL0     C10120   1.821   1.872   5.677  0.1981  1.1071  0.8230
  835MOL0     C10121   1.743   1.757   5.686  1.2312  0.0999  0.2183
  835MOL0     C10122   1.597   1.776   5.681 -0.0703  0.2408  0.4259
  835MOL0     O10123   1.507   1.673   5.682 -0.4205  0.7818 -0.1011
  835MOL0     C10124   1.523   1.579   5.785 -0.4349  0.6444 -0.0441
  835MOL0     C10125   1.386   1.500   5.792 -0.4010 -0.0648 -0.3625
  835MOL0     C10126   1.344   1.409   5.674  0.0174 -0.5080  0.2914
  835MOL0     C10127   1.192   1.384   5.681 -0.5112  0.3233 -0.4034
  835MOL0     C10128   1.146   1.270   5.596 -0.3401  0.4602  0.3376
  835MOL0     C10129   0.995   1.299   5.569  0.6101  0.2053 -0.4362
  835MOL0     C10130   0.921   1.189   5.495 -0.7539  0.0211  0.5143
  835MOL0     C10131   0.987   1.153   5.364  0.4307 -0.1565  0.1198
  835MOL0    Cl10132   0.878   1.046   5.266 -0.2207 -0.0861  0.7643
  835MOL0     C10133   1.540   1.903   5.682  0.5923 -0.1042 -0.3686
  835MOL0     C10134   1.621   2.014   5.683  1.0529  0.3657  0.0269
  835MOL0     O10135   1.978   2.031   5.496  0.2015 -0.7101  0.3150
  835MOL0     C10136   1.962   2.378   5.631  0.0800 -0.1531  0.0972
  835MOL0     C10137   2.036   2.494   5.631 -0.1517 -0.6280 -0.0203
  835MOL0     N10138   2.463   2.995   5.747  0.5347  0.3900  0.3985
  835MOL0     N10139   2.544   3.056   5.826  0.0944  0.9003 -0.7152
  835MOL0     C10140   3.307   3.650   6.096 -0.9800 -0.3585  0.1557
  835MOL0     C10141   3.359   3.769   6.149 -0.3870 -0.0389 -0.4105
  835MOL0     C10142   3.554   4.104   6.321  1.0583  0.0699 -0.2440
  835MOL0     C10143   3.520   4.227   6.272 -0.8685 -0.7219  0.2799
  835MOL0     C10144   3.535   4.344   6.353  0.7863  0.2397  1.3519
  835MOL0     C10145   3.588   4.334   6.480 -0.5866 -0.0049  0.2570
  835MOL0     O10146   3.609   4.445   6.555  1.1923 -0.6446 -0.2056
  835MOL0     C10147   3.602   4.579   6.496  0.9001  0.7926  0.5064
  835MOL0     C10148   3.712   4.608   6.386 -0.3848  0.3901  0.0284
  835MOL0     C10149   3.755   4.755   6.377  0.0745  0.0835  0.4449
  835MOL0     C10150   3.865   4.781   6.271 -0.1007  1.1750 -0.3102
  835MOL0     C10151   3.941   4.907   6.296  1.3158 -0.0482 -0.4297
  835MOL0     C10152   3.998   5.016   6.317 -0.4144  0.7791  0.1994
  835MOL0     C10153   3.621   4.201   6.533 -0.3830 -0.6881  1.1141
  835MOL0     C10154   3.603   4.086   6.449 -1.1015 -0.5684 -0.4647
  835MOL0     H10155   3.574   3.623   6.381 -0.7824  0.9912  1.6772
  835MOL0     H10156   3.489   3.421   6.267 -1.8810 -0.4315 -2.0408
  835MOL0     H10157   3.470   3.297   6.062  1.1259  0.5085  1.2014
  835MOL0     H10158   3.469   3.447   5.974  1.2998 -0.9761  0.2311
  835MOL0     H10159   3.306   3.192   5.915  0.4563 -2.4360 -3.7780
  835MOL0     H10160   3.432   3.273   5.817 -1.8862  1.2994 -1.1653
  835MOL0     H10161   3.274   3.333   5.697 -3.6221  1.4435 -0.4777
  835MOL0     H10162   3.286   3.477   5.793 -1.7876  0.9065  1.0480
  835MOL0     H10163   3.090   3.233   5.796  0.0342 -0.3719  1.5309
  835MOL0     H10164   3.104   3.322   5.934  1.1804 -2.2804 -0.8479
  835MOL0     H10165   2.994   3.436   5.664 -1.3778  0.5611  0.3731
  835MOL0     H10166   3.031   3.539   5.813 -0.8442 -0.3280  0.3501
  835MOL0     H10167   2.799   3.493   5.813 -1.2280 -1.7974 -1.7034
  835MOL0     H10168   2.870   3.421   5.943  1.5636  0.1005 -0.3992
  835MOL0     H10169   2.796   3.292   5.677  3.7571  0.2929  0.2857
  835MOL0     H10170   2.861   3.203   5.812 -0.1930 -1.0015 -1.6671
  835MOL0     H10171   2.604   3.373   5.829  0.1000  1.1689 -4.6836
  835MOL0     H10172   2.669   3.250   5.944  0.7202 -1.0402 -0.6183
  835MOL0     H10173   2.534   3.251   5.568  2.0696  1.1426  0.2155
  835MOL0     H10174   2.468   3.023   5.422 -3.0168 -3.2945 -2.8983
  835MOL0     H10175   2.328   3.121   5.468  1.1426  1.1028  1.6429
  835MOL0     H10176   2.250   2.901   5.405 -1.5021  1.4832  1.0108
  835MOL0     H10177   2.239   2.916   5.578  1.4818  2.5551  1.4706
  835MOL0     H10178   2.493   2.770   5.457 -0.7266 -2.9067 -2.0883
  835MOL0     H10179   2.427   2.765   5.617 -0.7233  0.5538  0.6734
  835MOL0     H10180   2.409   2.580   5.512  1.2337  1.0116 -1.0881
  835MOL0     H10181   2.317   2.639   5.368 -1.6552 -1.1146 -0.5373
  835MOL0     H10182   2.285   2.426   5.419 -0.0023  1.4814  2.1134
  835MOL0     H10183   2.174   2.204   5.416  1.2308 -0.4290  0.8493
  835MOL0     H10184   1.928   1.870   5.662  0.3595  3.5013  1.1989
  835MOL0     H10185   1.785   1.657   5.694  1.4660  0.3034  2.0496
  835MOL0     H10186   1.535   1.625   5.884 -3.3303  0.9094  0.2735
  835MOL0     H10187   1.607   1.510   5.769 -0.8136  0.3172 -0.6440
  835MOL0     H10188   1.315   1.579   5.815 -0.0066 -0.2877  1.8409
  835MOL0     H10189   1.392   1.441   5.885  3.2198 -0.5495 -0.7356
  835MOL0     H10190   1.391   1.311   5.679 -1.2272 -1.0927  0.9831
  835MOL0     H10191   1.373   1.453   5.578  1.2905  1.6768  1.6048
  835MOL0     H10192   1.158   1.385   5.785 -0.6894 -1.5181 -0.4202
  835MOL0     H10193   1.134   1.472   5.651 -0.0436  0.1340 -1.9582
  835MOL0     H10194   1.159   1.175   5.649 -0.0310 -0.2006 -0.8800
  835MOL0     H10195   1.200   1.276   5.502 -1.1063 -0.6662 -0.1993
  835MOL0     H10196   0.981   1.389   5.508 -2.1025 -1.6560 -2.8609
  835MOL0     H10197   0.953   1.317   5.668  2.6403  0.4178  0.4197
  835MOL0     H10198   0.917   1.094   5.549 -3.4956  1.6430  3.5972
  835MOL0     H10199   0.819   1.227   5.487  0.2041  2.4593 -1.2422
  835MOL0     H10200   1.084   1.110   5.387  1.1969  1.9072  0.9843
  835MOL0     H10201   1.000   1.247   5.309  1.5805  2.3812  4.2970
  835MOL0     H10202   1.431   1.901   5.685  0.3192 -6.5146 -0.9865
  835MOL0     H10203   1.578   2.114   5.684  0.5855  0.1641  0.0177
  835MOL0     H10204   1.888   2.370   5.710 -0.0253  1.5356  0.2059
  835MOL0     H10205   2.007   2.575   5.698  2.5157  1.6141 -1.3567
  835MOL0     H10206   3.233   3.664   6.018 -1.1681 -0.2006  0.3649
  835MOL0     H10207   3.335   3.871   6.120  3.1084  0.7114 -1.2287
  835MOL0     H10208   3.484   4.235   6.170 -0.5251 -1.6032  0.0820
  835MOL0     H10209   3.504   4.438   6.309  1.7566 -0.7253 -1.6492
  835MOL0     H10210   3.598   4.641   6.586  2.0040 -0.9100  1.8027
  835MOL0     H10211   3.501   4.606   6.464  0.7136 -0.6596 -0.2192
  835MOL0     H10212   3.799   4.551   6.420  0.1566  1.0337 -0.2643
  835MOL0     H10213   3.688   4.564   6.288  0.7913 -0.7210  0.2126
  835MOL0     H10214   3.788   4.791   6.475  2.4259  2.0062 -0.9307
  835MOL0     H10215   3.660   4.807   6.364 -0.6634 -1.1955  0.5645
  835MOL0     H10216   3.936   4.699   6.282  0.4265  1.1832 -2.8936
  835MOL0     H10217   3.821   4.762   6.172  2.1281  1.7173 -1.4746
  835MOL0     H10218   4.050   5.109   6.305  3.1334 -1.0223  0.4635
  835MOL0     H10219   3.666   4.192   6.632  1.8053 -2.4852  0.0600
  835MOL0     H10220   3.634   3.990   6.488 -2.2105 -0.4964  0.6630
  836MOL0     O10221   4.886   6.530   3.276  0.2265  0.0510  0.5547
  836MOL0     C10222   4.874   6.637   3.327  0.4707  0.0875 -0.5307
  836MOL0     O10223   4.933   6.677   3.446 -0.4053 -0.3283 -0.2667
  836MOL0     C10224   4.975   6.562   3.504 -0.5223 -0.1060  0.3124
  836MOL0     C10225   4.877   6.492   3.583 -1.4645 -0.2248  0.3326
  836MOL0     C10226   4.914   6.377   3.650 -0.9110 -0.6105 -0.0148
  836MOL0     C10227   5.041   6.318   3.622 -0.5765  0.3904  0.4425
  836MOL0     O10228   5.079   6.195   3.677 -0.3314 -0.4900 -0.5000
  836MOL0     C10229   5.067   6.195   3.819 -0.0340  0.1242  0.2081
  836MOL0     C10230   5.196   6.133   3.877 -0.4883 -0.5070  0.0827
  836MOL0     C10231   5.224   5.982   3.852  0.3634  0.2204  0.4100
  836MOL0     C10232   5.363   5.931   3.912  0.2563  0.5160  0.0173
  836MOL0     C10233   5.378   5.781   3.880  0.0298  0.2640 -0.6185
  836MOL0     C10234   5.511   5.721   3.905  0.6476 -0.2349 -0.1241
  836MOL0     C10235   5.509   5.576   3.879 -1.3074 -0.0606 -0.1558
  836MOL0     C10236   5.554   5.537   3.740 -0.7895  0.7083 -0.2796
  836MOL0     N10237   5.696   5.546   3.720  0.1677 -1.5506  0.1039
  836MOL0     C10238   5.755   5.630   3.627  0.0453  1.0167 -0.0136
  836MOL0     C10239   5.883   5.613   3.641  0.8194 -0.7767 -0.1771
  836MOL0     C10240   5.991   5.703   3.584  1.7244  0.4550  0.2824
  836MOL0     C10241   6.030   5.808   3.692  0.2266  0.0385 -0.6673
  836MOL0     C10242   6.104   5.773   3.823  0.0042 -0.0276  0.0134
  836MOL0     C10243   6.223   5.678   3.803  0.9861  0.4640  0.4966
  836MOL0     O10244   6.307   5.718   3.692 -1.0476  0.5026 -0.6068
  836MOL0     C10245   6.428   5.645   3.683  0.6447  0.1716  0.1906
  836MOL0     C10246   6.498   5.575   3.787 -0.3565 -0.2408  0.2313
  836MOL0     C10247   6.612   5.498   3.761  0.2119  0.7822  1.1857
  836MOL0     C10248   6.667   5.502   3.632  0.0520 -0.7447  0.8998
  836MOL0     C10249   6.795   5.431   3.615 -0.1664  0.9796  0.1728
  836MOL0     O10250   6.825   5.322   3.696 -0.0613  0.3920  0.1324
  836MOL0     C10251   6.951   5.279   3.723 -0.1954 -0.2687  0.0724
  836MOL0     C10252   6.955   5.151   3.782 -0.3845 -0.8461 -0.4797
  836MOL0     C10253   7.065   5.083   3.819 -0.2067  0.0481  0.0550
  836MOL0     C10254   7.187   5.152   3.813  0.3943 -0.3180 -0.8057
  836MOL0     O10255   7.299   5.083   3.854 -0.3764  0.7045 -0.4535
  836MOL0     C10256   7.432   5.137   3.831 -0.3985 -0.3205  0.2873
  836MOL0     C10257   7.543   5.056   3.894 -0.8794  0.1810  0.0785
  836MOL0     C10258   7.685   5.121   3.864  0.7927  0.6469  0.4606
  836MOL0     C10259   7.795   5.043   3.931 -0.1932 -0.6408  0.7337
  836MOL0     C10260   7.936   5.110   3.918 -0.7634 -0.2524 -0.5424
  836MOL0     C10261   7.978   5.117   3.768  0.1543  0.0415  0.7994
  836MOL0     C10262   7.999   4.980   3.699 -0.9639 -0.3957  0.5106
  836MOL0     C10263   7.986   4.989   3.537  0.5452 -0.7018  0.6124
  836MOL0    Cl10264   7.814   5.056   3.496 -0.2565 -0.1625 -0.1874
  836MOL0     C10265   7.196   5.289   3.772  0.1476 -0.8203 -0.5635
  836MOL0     C10266   7.077   5.341   3.713 -0.4277 -0.6968 -0.5982
  836MOL0     O10267   6.866   5.465   3.523  0.5052  0.6991  0.5985
  836MOL0     C10268   6.609   5.581   3.532  0.3849  0.0834 -0.2395
  836MOL0     C10269   6.488   5.641   3.555  0.3728 -1.0512  0.0374
  836MOL0     N10270   5.903   5.509   3.734  0.5730  0.4190  0.1647
  836MOL0     N10271   5.786   5.474   3.783 -0.5875 -0.0929 -0.2306
  836MOL0     C10272   5.141   6.390   3.539  0.0070  0.8374  0.8301
  836MOL0     C10273   5.117   6.518   3.489  0.8491  0.1196 -0.8540
  836MOL0     C10274   4.781   6.729   3.272  0.2728 -0.1028 -0.0662
  836MOL0     C10275   4.720   6.817   3.365 -0.3471  0.3048  0.7223
  836MOL0     C10276   4.612   6.891   3.315  0.4789  0.1787  0.7290
  836MOL0     C10277   4.565   6.874   3.185  0.6324 -0.7533  0.6832
  836MOL0     O10278   4.450   6.919   3.125  0.7023 -0.5155 -0.6223
  836MOL0     C10279   4.386   7.042   3.166 -0.4589  0.3449 -0.2518
  836MOL0     C10280   4.356   7.125   3.046  0.5248 -0.5613  0.0379
  836MOL0     C10281   4.478   7.141   2.945  0.4526 -0.3529  0.3602
  836MOL0     C10282   4.428   7.216   2.821 -0.1345  0.0235  0.5620
  836MOL0     C10283   4.431   7.366   2.826 -0.5212  0.0007  0.4847
  836MOL0     C10284   4.417   7.490   2.833  0.3228  0.0382  0.1027
  836MOL0     C10285   4.635   6.794   3.094  1.1354  0.5082 -0.2027
  836MOL0     C10286   4.742   6.724   3.139 -0.8817  0.9195  0.0326
  836MOL0     H10287   4.778   6.535   3.591 -1.2513  0.5812 -1.0875
  836MOL0     H10288   4.838   6.328   3.710  0.2749 -0.8215  1.3633
  836MOL0     H10289   4.981   6.134   3.849  0.4507 -0.6126  0.1228
  836MOL0     H10290   5.046   6.294   3.862 -2.7436 -1.2367  2.3495
  836MOL0     H10291   5.204   6.160   3.982 -1.8688  0.6984 -0.0832
  836MOL0     H10292   5.278   6.189   3.832 -1.8730  4.9272  3.4391
  836MOL0     H10293   5.215   5.965   3.745 -0.9194  0.7461  0.4259
  836MOL0     H10294   5.156   5.910   3.898  1.3186 -1.8630 -1.2686
  836MOL0     H10295   5.446   5.980   3.860 -0.3208  0.1299 -1.3102
  836MOL0     H10296   5.356   5.950   4.020 -2.0119 -2.6851  0.5671
  836MOL0     H10297   5.351   5.756   3.777  0.3678  0.1666 -0.6860
  836MOL0     H10298   5.302   5.728   3.938  1.1514 -0.5485  0.1498
  836MOL0     H10299   5.537   5.736   4.010 -0.7583  0.0995  0.1955
  836MOL0     H10300   5.589   5.774   3.850  2.7965  0.7804  3.5285
  836MOL0     H10301   5.577   5.524   3.947 -3.7141  0.6133  3.0284
  836MOL0     H10302   5.407   5.549   3.910 -0.4907 -0.5505  2.3528
  836MOL0     H10303   5.488   5.585   3.667  0.3095  0.4717 -1.4538
  836MOL0     H10304   5.535   5.430   3.728  2.2734 -0.1131  1.2623
  836MOL0     H10305   5.705   5.701   3.562 -1.7625  2.0218  2.3028
  836MOL0     H10306   5.954   5.750   3.493 -0.1535  0.9542  1.2561
  836MOL0     H10307   6.085   5.650   3.563  1.3283  0.5684 -1.9158
  836MOL0     H10308   5.938   5.858   3.724 -0.8449 -1.0765 -1.9114
  836MOL0     H10309   6.087   5.891   3.649  1.7622 -1.1327 -1.0189
  836MOL0     H10310   6.134   5.864   3.876 -2.1921 -0.6523  2.5228
  836MOL0     H10311   6.030   5.720   3.884 -1.2554 -0.7476 -2.0433
  836MOL0     H10312   6.181   5.581   3.777  1.0214  0.5352  0.1713
  836MOL0     H10313   6.284   5.685   3.894 -0.9486  3.1630  1.7115
  836MOL0     H10314   6.458   5.569   3.887 -2.5531 -0.1064 -0.5950
  836MOL0     H10315   6.650   5.443   3.847  0.1854 -1.6028 -0.2389
  836MOL0     H10316   6.856   5.114   3.807 -0.8089 -0.6821 -1.8246
  836MOL0     H10317   7.060   4.984   3.861 -1.2229 -1.2318 -2.8177
  836MOL0     H10318   7.446   5.241   3.861  2.5184  0.8080 -4.0359
  836MOL0     H10319   7.454   5.122   3.724 -2.0230 -0.9354  0.0069
  836MOL0     H10320   7.546   4.954   3.855  4.1988  0.5752 -1.3297
  836MOL0     H10321   7.518   5.055   4.001 -1.6941 -0.5304 -0.1107
  836MOL0     H10322   7.680   5.225   3.898 -0.1551  0.5624  0.6100
  836MOL0     H10323   7.705   5.137   3.758 -0.6317  4.0173  0.5801
  836MOL0     H10324   7.766   5.040   4.037 -0.0648  1.2832  0.8555
  836MOL0     H10325   7.802   4.937   3.905  0.0116 -1.3165  3.2891
  836MOL0     H10326   8.018   5.062   3.973  0.2793  1.0561 -0.9093
  836MOL0     H10327   7.934   5.207   3.968  2.2066 -0.7465  0.7464
  836MOL0     H10328   8.075   5.168   3.774  1.1929 -1.7039 -0.1659
  836MOL0     H10329   7.908   5.184   3.716  0.0034 -1.4423 -1.0294
  836MOL0     H10330   8.103   4.953   3.720  0.6055  3.6988 -0.9493
  836MOL0     H10331   7.929   4.904   3.735  0.1213 -1.6164  0.0803
  836MOL0     H10332   7.994   4.888   3.495 -0.2493 -0.4579 -0.1720
  836MOL0     H10333   8.060   5.063   3.504 -1.2768  0.5500 -0.9200
  836MOL0     H10334   7.284   5.350   3.784 -0.1628 -0.3261 -0.7860
  836MOL0     H10335   7.088   5.444   3.681 -2.7101 -0.4824 -0.8372
  836MOL0     H10336   6.665   5.590   3.439  1.2191  1.5179  0.3695
  836MOL0     H10337   6.456   5.702   3.472  2.0981 -1.2452 -0.8297
  836MOL0     H10338   5.238   6.345   3.516 -0.1326  0.9771 -0.0930
  836MOL0     H10339   5.185   6.567   3.419 -0.0005 -0.2261 -1.9559
  836MOL0     H10340   4.766   6.827   3.463  0.3289  1.0615  0.3387
  836MOL0     H10341   4.576   6.958   3.392  0.0826 -0.8982  1.5101
  836MOL0     H10342   4.438   7.098   3.244  2.0074 -2.0488 -0.0123
  836MOL0     H10343   4.288   7.021   3.209  1.0514 -0.8086  2.8924
  836MOL0     H10344   4.279   7.068   2.993  2.6365 -4.7337  1.0131
  836MOL0     H10345   4.311   7.219   3.079 -1.7372 -1.0993 -1.3294
  836MOL0     H10346   4.509   7.038   2.926  0.0177 -0.1840 -1.5274
  836MOL0     H10347   4.567   7.197   2.973 -0.1131  0.6676  0.1478
  836MOL0     H10348   4.496   7.185   2.742  1.9215  1.8347  1.5176
  836MOL0     H10349   4.327   7.190   2.788 -0.6717  0.9374  1.4275
  836MOL0     H10350   4.407   7.594   2.860 -0.4918 -0.3016  1.1761
  836MOL0     H10351   4.609   6.779   2.990  1.7044 -0.5695 -0.2067
  836MOL0     H10352   4.803   6.656   3.080 -0.7034  1.1246 -0.0199
  837MOL0     O10353   2.184   4.694   3.344  0.7181  0.0641  0.4296
  837MOL0     C10354   2.133   4.594   3.385  0.4067  0.2111 -0.9623
  837MOL0     O10355   2.056   4.587   3.496  0.0792 -0.4107 -1.1770
  837MOL0     C10356   2.091   4.658   3.613  0.0178  0.5975 -0.6077
  837MOL0     C10357   1.994   4.646   3.709 -0.3515  0.3219 -0.0455
  837MOL0     C10358   2.004   4.712   3.831  0.9582 -0.6796 -0.5112
  837MOL0     C10359   2.118   4.797   3.859  0.4020  0.5495  0.2351
  837MOL0     O10360   2.131   4.888   3.966 -0.1798  0.0381 -0.0342
  837MOL0     C10361   2.045   4.868   4.082 -0.6537 -0.1184 -0.0369
  837MOL0     C10362   2.107   4.920   4.212  0.4149  0.6704  0.2781
  837MOL0     C10363   2.262   4.908   4.212 -0.0068 -0.1802 -1.1466
  837MOL0     C10364   2.306   4.763   4.208 -0.5359 -0.0631 -0.5106
  837MOL0     C10365   2.457   4.761   4.187 -0.2044 -0.1284  0.5074
  837MOL0     C10366   2.509   4.619   4.176 -0.1614 -0.9491  0.3440
  837MOL0     C10367   2.669   4.620   4.203 -0.6333 -0.4030  0.5062
  837MOL0     C10368   2.733   4.485   4.192  0.2126  0.8436 -0.3977
  837MOL0     N10369   2.875   4.492   4.193 -0.0596 -0.0386 -0.1350
  837MOL0     C10370   2.945   4.480   4.085  0.0652 -0.1347  0.3323
  837MOL0     C10371   3.072   4.478   4.125  0.2748  0.7321  0.3869
  837MOL0     C10372   3.203   4.464   4.048  0.4266  0.4319  0.5785
  837MOL0     C10373   3.298   4.580   4.087 -1.2106  0.1255 -0.4988
  837MOL0     C10374   3.430   4.559   4.017 -0.2989 -0.5218  0.4319
  837MOL0     C10375   3.523   4.455   4.091  0.0691  0.6036 -0.1205
  837MOL0     O10376   3.648   4.448   4.027 -0.1954 -0.2300  0.5025
  837MOL0     C10377   3.759   4.401   4.084 -0.0534 -0.3462  0.1770
  837MOL0     C10378   3.880   4.469   4.087  0.6716 -0.0511 -0.7441
  837MOL0     C10379   4.001   4.409   4.129  0.2858  0.1694  0.1204
  837MOL0     C10380   3.998   4.278   4.181 -0.0648 -0.3971 -0.0684
  837MOL0     C10381   4.112   4.212   4.238  0.0125  0.2393  0.3347
  837MOL0     O10382   4.223   4.285   4.286 -0.6515  0.3689  0.6460
  837MOL0     C10383   4.340   4.224   4.318  0.7067 -0.0466 -0.3200
  837MOL0     C10384   4.411   4.127   4.238  1.4011  0.6287  0.4963
  837MOL0     C10385   4.534   4.071   4.273  0.2873 -0.2078 -0.4686
  837MOL0     C10386   4.598   4.120   4.392 -1.3284 -0.4184  0.2302
  837MOL0     O10387   4.730   4.077   4.424  0.2655  0.5489  0.2790
  837MOL0     C10388   4.799   4.110   4.547  1.0236  0.6883  0.2625
  837MOL0     C10389   4.938   4.116   4.494 -0.2889  0.8129 -0.3609
  837MOL0     C10390   5.036   4.075   4.601 -0.2997  0.0596 -0.1413
  837MOL0     C10391   5.180   4.079   4.550  0.6309  0.8222  0.2120
  837MOL0     C10392   5.289   4.051   4.653  0.3502  0.5091  0.3814
  837MOL0     C10393   5.292   4.159   4.774  0.4240 -0.2655 -0.2459
  837MOL0     C10394   5.438   4.183   4.812 -0.1537 -0.6116 -0.5969
  837MOL0     C10395   5.459   4.230   4.957 -0.1883  1.1672  0.7428
  837MOL0    Cl10396   5.612   4.176   5.010 -0.3622  0.3059  0.1385
  837MOL0     C10397   4.531   4.218   4.469  0.4062 -0.2138  0.0455
  837MOL0     C10398   4.401   4.262   4.435 -0.4577 -0.9687 -0.0383
  837MOL0     O10399   4.102   4.087   4.255 -0.4461 -0.6210  0.0967
  837MOL0     C10400   3.871   4.228   4.205  0.1752 -0.0843 -0.4623
  837MOL0     C10401   3.758   4.281   4.144 -0.3874  0.6420 -0.0000
  837MOL0     N10402   3.068   4.465   4.263  0.8380 -0.1043 -0.7244
  837MOL0     N10403   2.949   4.484   4.311  0.0475 -1.4166  0.6804
  837MOL0     C10404   2.215   4.809   3.754 -0.4128  0.0584 -0.5375
  837MOL0     C10405   2.201   4.734   3.638 -0.6731 -0.5204 -0.2368
  837MOL0     C10406   2.125   4.470   3.302 -0.7227 -0.8937 -0.3440
  837MOL0     C10407   2.227   4.444   3.202 -0.1185 -0.1125  0.2644
  837MOL0     C10408   2.218   4.332   3.120 -0.4213  0.1565  0.1807
  837MOL0     C10409   2.117   4.235   3.148 -0.7258 -0.1188 -0.5595
  837MOL0     O10410   2.132   4.120   3.073  0.6541  0.4017 -0.0589
  837MOL0     C10411   2.043   4.013   3.088 -0.7898 -0.5501  0.2799
  837MOL0     C10412   2.073   3.891   2.994  0.3718 -0.0860  0.7507
  837MOL0     C10413   2.212   3.840   3.026 -0.6575 -0.0378  0.0768
  837MOL0     C10414   2.251   3.730   2.922  0.1564 -0.2378  0.5191
  837MOL0     C10415   2.392   3.686   2.947  0.5620  0.2854 -0.6529
  837MOL0     C10416   2.502   3.638   2.973  0.6455 -0.2252 -0.3525
  837MOL0     C10417   2.012   4.255   3.240 -0.9931  0.6952  0.3506
  837MOL0     C10418   2.027   4.367   3.329 -0.0009  0.5034  0.2645
  837MOL0     H10419   1.906   4.594   3.675 -1.1858  1.7103 -0.0813
  837MOL0     H10420   1.924   4.700   3.903  0.8964 -0.0407 -0.4693
  837MOL0     H10421   2.044   4.759   4.086  1.5575 -0.1470  1.2023
  837MOL0     H10422   1.945   4.904   4.056  0.7563  4.9004  0.4992
  837MOL0     H10423   2.062   4.861   4.292 -1.2149  2.4277  0.7470
  837MOL0     H10424   2.071   5.023   4.226 -3.2419 -0.4624  0.0989
  837MOL0     H10425   2.289   4.952   4.308 -0.2199 -0.0172 -1.1609
  837MOL0     H10426   2.312   4.964   4.133  0.5455  0.7067 -0.1963
  837MOL0     H10427   2.273   4.732   4.308 -0.5886 -1.1882 -0.8658
  837MOL0     H10428   2.248   4.701   4.139 -1.8442 -3.0152  2.8757
  837MOL0     H10429   2.504   4.808   4.274 -1.6561  0.4714  0.9830
  837MOL0     H10430   2.475   4.817   4.095 -1.7982  0.0089  0.2503
  837MOL0     H10431   2.477   4.575   4.081  0.4624  1.3980 -1.0291
  837MOL0     H10432   2.459   4.557   4.250 -1.9087 -0.1803 -0.1325
  837MOL0     H10433   2.719   4.688   4.133 -1.0756  0.5384  1.0866
  837MOL0     H10434   2.693   4.665   4.300 -2.0119 -1.5625  1.4277
  837MOL0     H10435   2.704   4.429   4.103 -0.9828  2.7008 -1.2215
  837MOL0     H10436   2.702   4.421   4.276 -1.1693 -1.0779 -2.2584
  837MOL0     H10437   2.906   4.489   3.984 -1.1824  0.6747  0.8618
  837MOL0     H10438   3.181   4.477   3.942 -1.8106 -1.2794  0.7611
  837MOL0     H10439   3.245   4.363   4.053  2.8037  1.2257 -1.3106
  837MOL0     H10440   3.328   4.575   4.192  0.5929  0.0386 -0.9743
  837MOL0     H10441   3.264   4.678   4.051  1.0275  1.0543 -0.2965
  837MOL0     H10442   3.416   4.524   3.914 -0.5299 -0.3110  0.3894
  837MOL0     H10443   3.481   4.653   3.992 -1.5015 -0.0750 -0.4665
  837MOL0     H10444   3.479   4.355   4.102  0.3480  0.4441 -0.4193
  837MOL0     H10445   3.540   4.482   4.196 -0.9878 -0.9908  0.4935
  837MOL0     H10446   3.888   4.569   4.046  1.2673  0.3914  0.4245
  837MOL0     H10447   4.093   4.466   4.131  1.6647 -1.9079 -0.5597
  837MOL0     H10448   4.380   4.089   4.141  0.8199 -1.6872  1.5419
  837MOL0     H10449   4.590   3.992   4.224 -0.7604 -3.2916  2.8639
  837MOL0     H10450   4.786   4.038   4.628 -0.6858  1.2104  0.4924
  837MOL0     H10451   4.778   4.212   4.581 -1.6198 -0.5334  2.6590
  837MOL0     H10452   4.960   4.211   4.445  2.2373  0.7480  0.5223
  837MOL0     H10453   4.941   4.037   4.418  0.0827  1.4068 -0.9711
  837MOL0     H10454   5.019   3.975   4.641  1.4211 -0.9570 -1.7861
  837MOL0     H10455   5.017   4.152   4.677 -0.0581  2.4981 -2.3708
  837MOL0     H10456   5.183   4.002   4.473  4.6130  0.9363  0.0394
  837MOL0     H10457   5.204   4.175   4.503  0.2937  0.7170 -0.1783
  837MOL0     H10458   5.388   4.042   4.608  0.5576 -1.1348  1.1084
  837MOL0     H10459   5.263   3.953   4.694  0.8628  0.8607  1.6015
  837MOL0     H10460   5.238   4.123   4.862  0.9191 -4.0831 -1.3047
  837MOL0     H10461   5.241   4.248   4.737  0.0028 -0.9186 -1.2950
  837MOL0     H10462   5.489   4.086   4.811 -2.0380 -1.6884  0.9527
  837MOL0     H10463   5.480   4.251   4.737  1.2180 -0.1165  0.5882
  837MOL0     H10464   5.387   4.184   5.026 -0.4405 -1.4630 -1.1132
  837MOL0     H10465   5.457   4.339   4.955  1.3551  1.2153  0.0235
  837MOL0     H10466   4.572   4.245   4.565 -0.0499  0.4909  0.0514
  837MOL0     H10467   4.370   4.338   4.507  3.7016  1.9613 -0.9852
  837MOL0     H10468   3.864   4.132   4.254 -0.1866  1.1068  1.9519
  837MOL0     H10469   3.663   4.229   4.152  1.0161 -2.0069  0.3590
  837MOL0     H10470   2.289   4.887   3.769  0.9733 -0.2524 -4.5668
  837MOL0     H10471   2.266   4.749   3.552  0.9823 -1.7600  0.7319
  837MOL0     H10472   2.301   4.523   3.194 -0.6972  0.3169 -1.0110
  837MOL0     H10473   2.287   4.324   3.037 -0.6809  0.5139 -0.0700
  837MOL0     H10474   1.936   4.036   3.080 -0.3529  1.2386 -1.0151
  837MOL0     H10475   2.067   3.968   3.184 -1.6216 -2.0498 -0.1749
  837MOL0     H10476   2.001   3.812   3.019 -0.0733  0.1622  0.2624
  837MOL0     H10477   2.065   3.915   2.888 -1.2981 -1.9732  0.3896
  837MOL0     H10478   2.229   3.794   3.124 -2.4165 -1.6949 -0.3335
  837MOL0     H10479   2.287   3.919   3.018 -0.3805 -0.1381  1.3692
  837MOL0     H10480   2.187   3.643   2.940 -0.1767  0.6275  4.6163
  837MOL0     H10481   2.249   3.765   2.819 -1.5488  1.6737  1.1498
  837MOL0     H10482   2.598   3.591   2.985  0.5692 -0.2243  0.3112
  837MOL0     H10483   1.927   4.187   3.246 -1.9928  1.5735 -2.1475
  837MOL0     H10484   1.950   4.387   3.403  0.6473  2.0084  0.5689
  838MOL0     O10485   5.315   0.133   3.840 -0.0505 -0.4205 -0.5075
  838MOL0     C10486   5.359   0.045   3.909 -0.6746 -0.0522 -0.6806
  838MOL0     O10487   5.416   0.066   4.030  0.1345 -0.3503 -0.1146
  838MOL0     C10488   5.436   0.201   4.059  0.6990  0.7770  0.0921
  838MOL0     C10489   5.325   0.290   4.071  0.5720  0.1094 -0.2895
  838MOL0     C10490   5.337   0.426   4.091  1.1875  0.5523  0.7600
  838MOL0     C10491   5.465   0.476   4.086  0.2644  0.1810  0.9715
  838MOL0     O10492   5.481   0.615   4.084 -0.3100  0.2787 -0.5195
  838MOL0     C10493   5.414   0.692   4.179 -0.4317  0.3645 -0.4050
  838MOL0     C10494   5.470   0.832   4.191 -0.2925 -0.3297 -0.9184
  838MOL0     C10495   5.425   0.902   4.326  0.4891  0.0751  0.0642
  838MOL0     C10496   5.279   0.961   4.309  0.9715  0.2879 -0.3855
  838MOL0     C10497   5.261   1.083   4.400 -0.9651  0.3934  0.6590
  838MOL0     C10498   5.276   1.054   4.550 -0.2143  0.9788  0.5397
  838MOL0     C10499   5.368   1.148   4.623 -0.2579  0.1924  0.1791
  838MOL0     C10500   5.366   1.123   4.776  0.5184 -0.0865  0.7374
  838MOL0     N10501   5.242   1.188   4.831  0.1904 -0.6859 -0.5479
  838MOL0     C10502   5.227   1.317   4.888  0.6807  0.4129 -0.8107
  838MOL0     C10503   5.098   1.331   4.903  0.4022  0.2426  0.6147
  838MOL0     C10504   5.029   1.449   4.959 -0.9247  0.7866  0.2358
  838MOL0     C10505   4.873   1.447   4.949 -0.3709  1.8724 -0.0600
  838MOL0     C10506   4.830   1.451   4.800  0.4037 -0.3779 -0.7310
  838MOL0     C10507   4.690   1.395   4.768 -0.5742 -0.8523 -0.4879
  838MOL0     O10508   4.609   1.484   4.850  0.7185  0.0082  0.0578
  838MOL0     C10509   4.474   1.479   4.825  0.2676  0.4231 -0.4394
  838MOL0     C10510   4.418   1.378   4.748 -0.6619 -0.4219 -0.8495
  838MOL0     C10511   4.279   1.390   4.719  0.0171 -0.3437  0.5696
  838MOL0     C10512   4.202   1.504   4.765 -0.2690 -0.3232 -0.5989
  838MOL0     C10513   4.062   1.521   4.736  1.1634 -1.0242 -0.0668
  838MOL0     O10514   3.976   1.604   4.798  0.4225  0.5866 -0.2885
  838MOL0     C10515   3.852   1.624   4.751 -0.2507  0.3040 -0.6035
  838MOL0     C10516   3.748   1.552   4.795  0.1723  0.2207 -1.1060
  838MOL0     C10517   3.619   1.565   4.749  0.2909 -0.1213 -0.1126
  838MOL0     C10518   3.595   1.642   4.629 -0.5675  0.6655 -0.0442
  838MOL0     O10519   3.476   1.667   4.570 -0.0303 -0.5479 -0.2918
  838MOL0     C10520   3.365   1.608   4.629  0.3780 -0.2650 -0.1046
  838MOL0     C10521   3.242   1.656   4.564 -0.4090  0.2917  0.4452
  838MOL0     C10522   3.114   1.585   4.599  0.3505 -0.1565  0.7455
  838MOL0     C10523   3.002   1.629   4.501 -0.5330  0.4484 -0.5949
  838MOL0     C10524   2.864   1.559   4.534 -0.7070  0.3568  0.5961
  838MOL0     C10525   2.787   1.631   4.647 -0.3985 -0.9599 -0.2858
  838MOL0     C10526   2.668   1.557   4.681  0.9012 -0.6380  0.0755
  838MOL0     C10527   2.593   1.615   4.799  0.2801  0.3036 -0.3132
  838MOL0    Cl10528   2.437   1.523   4.806  0.1652  0.5540  0.1597
  838MOL0     C10529   3.707   1.705   4.569  0.4134 -0.1008  0.2134
  838MOL0     C10530   3.837   1.692   4.624  0.5042 -0.7414 -0.2141
  838MOL0     O10531   4.023   1.444   4.653  0.6943 -0.3742 -0.7305
  838MOL0     C10532   4.264   1.601   4.851  0.6318  0.6677 -0.3363
  838MOL0     C10533   4.392   1.585   4.882 -0.0352  0.9847 -0.0595
  838MOL0     N10534   5.033   1.209   4.873  0.3338  0.4104 -0.3264
  838MOL0     N10535   5.121   1.122   4.832 -0.4435  0.1012  0.0664
  838MOL0     C10536   5.576   0.390   4.058 -0.0275 -0.7846  0.0526
  838MOL0     C10537   5.566   0.251   4.046 -0.0025 -0.2955 -0.2344
  838MOL0     C10538   5.341  -0.097   3.865 -0.3647  0.5672 -1.1046
  838MOL0     C10539   5.298  -0.123   3.741  0.0999  0.2187  0.4397
  838MOL0     C10540   5.290  -0.265   3.701  0.4972 -0.6160  0.5521
  838MOL0     C10541   5.324  -0.365   3.791 -1.1241  0.6121 -0.3539
  838MOL0     O10542   5.326  -0.495   3.741 -0.2331  0.4513 -0.1855
  838MOL0     C10543   5.357  -0.597   3.835 -0.2637  0.7181  0.9047
  838MOL0     C10544   5.346  -0.730   3.761 -1.0640  0.4631  0.7870
  838MOL0     C10545   5.436  -0.744   3.631 -0.1720 -0.5902 -0.2839
  838MOL0     C10546   5.353  -0.717   3.503 -0.1943 -0.9197  0.2534
  838MOL0     C10547   5.427  -0.769   3.385 -0.7043 -0.2547  0.6998
  838MOL0     C10548   5.495  -0.801   3.289 -0.7845 -0.3394 -0.3573
  838MOL0     C10549   5.359  -0.323   3.923  0.3121  0.3585  0.2227
  838MOL0     C10550   5.364  -0.194   3.960 -0.9062  0.0351 -0.3905
  838MOL0     H10551   5.226   0.247   4.064  0.6491 -0.0128 -0.6436
  838MOL0     H10552   5.248   0.487   4.098  0.3728 -0.6052  0.6667
  838MOL0     H10553   5.442   0.645   4.274  1.1989 -3.5577 -2.5991
  838MOL0     H10554   5.305   0.690   4.177 -0.5880  3.6225 -0.4545
  838MOL0     H10555   5.452   0.909   4.115  1.5511 -0.0303 -1.1044
  838MOL0     H10556   5.578   0.824   4.206 -0.3132  1.6677  0.9155
  838MOL0     H10557   5.495   0.985   4.344 -0.1204  0.3987  0.9869
  838MOL0     H10558   5.438   0.830   4.407 -1.1469 -0.8042 -0.4173
  838MOL0     H10559   5.277   1.009   4.211  2.9387 -0.3666 -0.8029
  838MOL0     H10560   5.198   0.888   4.319  1.1002 -0.1514 -2.2226
  838MOL0     H10561   5.162   1.121   4.374 -1.0600 -0.0628  0.3469
  838MOL0     H10562   5.335   1.157   4.366 -0.9008 -0.9000 -2.3369
  838MOL0     H10563   5.312   0.954   4.575 -0.3784  0.5304 -0.9620
  838MOL0     H10564   5.175   1.062   4.590 -0.6870  2.2030 -0.8300
  838MOL0     H10565   5.473   1.127   4.598 -0.3953 -0.9986  0.5646
  838MOL0     H10566   5.342   1.254   4.617  1.3042  0.8207  2.7740
  838MOL0     H10567   5.462   1.146   4.823 -0.0493 -0.5238  2.1348
  838MOL0     H10568   5.357   1.016   4.797  0.7216  0.3983  3.6252
  838MOL0     H10569   5.303   1.390   4.913 -1.1718  1.7875  1.0769
  838MOL0     H10570   5.072   1.533   4.904 -1.3126  0.8881  0.0879
  838MOL0     H10571   5.051   1.459   5.066 -2.1379  0.4864  0.5216
  838MOL0     H10572   4.833   1.537   4.998 -1.0917  2.7796 -2.1943
  838MOL0     H10573   4.842   1.356   5.002  3.1759  1.5588  1.8132
  838MOL0     H10574   4.821   1.555   4.767 -0.7539 -0.6276 -1.2739
  838MOL0     H10575   4.902   1.400   4.735  0.0196  0.2309 -1.6622
  838MOL0     H10576   4.681   1.289   4.793 -0.6130 -0.3786  1.7946
  838MOL0     H10577   4.670   1.407   4.662 -1.5570  1.6441 -0.0946
  838MOL0     H10578   4.478   1.297   4.707  0.8108  0.8308 -1.2880
  838MOL0     H10579   4.222   1.321   4.659 -1.9978  0.9698  0.8585
  838MOL0     H10580   3.769   1.481   4.875 -0.8022  1.7837  0.6093
  838MOL0     H10581   3.545   1.518   4.813 -0.1590 -1.7067 -1.6982
  838MOL0     H10582   3.352   1.645   4.731  1.0789  0.7964 -0.3861
  838MOL0     H10583   3.372   1.499   4.630 -1.5769 -0.4426  1.4452
  838MOL0     H10584   3.259   1.642   4.457 -0.1883 -0.4848  0.5790
  838MOL0     H10585   3.227   1.762   4.586  1.7824  1.6024 -3.3628
  838MOL0     H10586   3.085   1.601   4.703  0.2229  0.0802  0.6752
  838MOL0     H10587   3.124   1.478   4.580  0.2537 -0.1315  0.5492
  838MOL0     H10588   2.997   1.738   4.498  1.8860  0.6393  0.2166
  838MOL0     H10589   3.050   1.591   4.410  3.0378  0.4816  1.1262
  838MOL0     H10590   2.875   1.454   4.562 -1.7591  0.4582  1.4435
  838MOL0     H10591   2.814   1.569   4.437  0.6700  4.9775  0.1337
  838MOL0     H10592   2.768   1.733   4.613  0.8064 -0.0002  1.7058
  838MOL0     H10593   2.849   1.641   4.737  1.5673  1.7692 -1.7999
  838MOL0     H10594   2.609   1.553   4.589  1.7047 -0.6221 -0.4457
  838MOL0     H10595   2.691   1.452   4.697 -1.8040 -1.4494 -0.8005
  838MOL0     H10596   2.576   1.723   4.798 -1.4212  0.0712 -1.4019
  838MOL0     H10597   2.640   1.589   4.894  1.2915  0.8286 -0.6552
  838MOL0     H10598   3.693   1.765   4.479  0.1014  0.4016  0.5918
  838MOL0     H10599   3.924   1.732   4.574 -0.6331 -0.4665 -2.0505
  838MOL0     H10600   4.210   1.687   4.890 -0.2391  0.8994 -1.9581
  838MOL0     H10601   4.446   1.660   4.938  1.0054 -0.5427  1.0659
  838MOL0     H10602   5.675   0.434   4.047  0.6167 -2.8153 -4.1206
  838MOL0     H10603   5.646   0.189   4.007  0.9914  0.3944  0.6431
  838MOL0     H10604   5.280  -0.047   3.666  2.4437 -0.5641 -1.0215
  838MOL0     H10605   5.243  -0.286   3.606 -1.6807  1.6267  1.0338
  838MOL0     H10606   5.281  -0.607   3.913  0.6520 -1.0535  1.6211
  838MOL0     H10607   5.459  -0.599   3.874  0.2603  1.2666 -0.3801
  838MOL0     H10608   5.375  -0.821   3.815  4.2025  2.1578  1.3657
  838MOL0     H10609   5.242  -0.742   3.729 -0.1766  0.9634 -2.5624
  838MOL0     H10610   5.481  -0.842   3.650 -1.4025 -0.4756  4.6692
  838MOL0     H10611   5.522  -0.676   3.640  0.9791 -2.1324  1.1161
  838MOL0     H10612   5.262  -0.778   3.509 -0.6159 -0.8250 -3.0384
  838MOL0     H10613   5.325  -0.612   3.504 -1.0525 -1.1394 -0.2160
  838MOL0     H10614   5.562  -0.814   3.206 -0.8090  1.1421 -0.6489
  838MOL0     H10615   5.388  -0.395   3.999 -0.4506  2.1608  2.3346
  838MOL0     H10616   5.394  -0.162   4.059  0.4932  3.8331 -1.8418
  839MOL0     O10617   9.859   2.153   3.697  0.3836  0.2047 -0.3647
  839MOL0     C10618   9.975   2.133   3.732 -0.6391  1.7091 -0.8724
  839MOL0     O10619  10.076   2.225   3.753  0.3914 -0.2218  0.7043
  839MOL0     C10620  10.029   2.351   3.712 -0.0724  0.2950 -0.3634
  839MOL0     C10621   9.985   2.451   3.799  0.9637 -0.4535 -0.0510
  839MOL0     C10622   9.955   2.574   3.750  0.0943  0.4430 -0.3116
  839MOL0     C10623   9.976   2.611   3.614  0.1020 -0.6344 -0.9843
  839MOL0     O10624   9.954   2.736   3.559 -0.2971 -0.3896 -0.7985
  839MOL0     C10625   9.933   2.857   3.632 -0.6289  0.2423  0.3982
  839MOL0     C10626  10.068   2.924   3.667  0.1103  0.3038 -0.1883
  839MOL0     C10627  10.060   3.030   3.787 -0.2528  0.0493  0.6774
  839MOL0     C10628   9.928   3.104   3.780 -0.6173 -0.2058  0.3860
  839MOL0     C10629   9.939   3.227   3.870 -0.4455 -0.4681 -0.2744
  839MOL0     C10630   9.991   3.352   3.790  0.1727 -0.3685  0.0222
  839MOL0     C10631   9.905   3.377   3.669  1.3921  1.4024  0.4328
  839MOL0     C10632   9.923   3.510   3.595  0.2478 -1.0835  0.7215
  839MOL0     N10633  10.063   3.548   3.575 -0.3722 -0.1395  0.8340
  839MOL0     C10634  10.162   3.472   3.528  0.6328  0.8795  0.4855
  839MOL0     C10635  10.277   3.535   3.551 -0.5720 -0.7964 -1.4368
  839MOL0     C10636  10.418   3.501   3.511  0.9596  0.8689 -0.0560
  839MOL0     C10637  10.468   3.384   3.604 -0.0090 -1.4622  0.5231
  839MOL0     C10638  10.598   3.332   3.544  0.5461 -0.2269  0.6453
  839MOL0     C10639  10.580   3.229   3.436  0.6403 -0.2977  0.0315
  839MOL0     O10640  10.583   3.095   3.490 -0.1551  0.0720  0.3512
  839MOL0     C10641  10.611   2.984   3.415 -0.0639  0.2033 -0.4198
  839MOL0     C10642  10.592   2.971   3.279  0.8891  0.3648 -0.4686
  839MOL0     C10643  10.604   2.853   3.207  0.5103  0.5287 -0.0493
  839MOL0     C10644  10.636   2.735   3.277 -0.2513  0.0462 -0.3302
  839MOL0     C10645  10.654   2.614   3.199  0.0708  0.9939 -0.1244
  839MOL0     O10646  10.706   2.513   3.260 -0.3669 -0.3146 -0.0858
  839MOL0     C10647  10.705   2.391   3.188 -0.6236 -0.1570  0.3975
  839MOL0     C10648  10.795   2.352   3.086  1.2179  0.3288 -0.0228
  839MOL0     C10649  10.791   2.222   3.040 -0.2694  1.0184 -0.3220
  839MOL0     C10650  10.686   2.134   3.075 -0.4848 -0.3158  0.3314
  839MOL0     O10651  10.684   2.008   3.026  0.2317 -0.9246  0.1309
  839MOL0     C10652  10.788   1.952   2.948 -0.6953 -0.1360  0.1070
  839MOL0     C10653  10.789   1.797   2.983  0.3873 -0.2695 -1.1821
  839MOL0     C10654  10.816   1.698   2.867 -0.0662  0.5260  0.6224
  839MOL0     C10655  10.795   1.555   2.909  0.5430 -0.1375 -0.1630
  839MOL0     C10656  10.909   1.485   2.976  0.2681  0.5216  0.0316
  839MOL0     C10657  10.984   1.551   3.099  1.0315  0.3411 -0.0547
  839MOL0     C10658  11.082   1.465   3.179  0.0918 -0.9237  0.1158
  839MOL0     C10659  11.016   1.348   3.252  0.0647 -0.0494  0.1265
  839MOL0    Cl10660  10.885   1.414   3.368 -0.2758  0.2715 -0.0061
  839MOL0     C10661  10.587   2.183   3.163 -0.0962 -1.2753  0.2416
  839MOL0     C10662  10.599   2.311   3.223  0.2125 -0.8566 -0.2215
  839MOL0     O10663  10.613   2.610   3.075  0.0820 -0.1692 -0.2411
  839MOL0     C10664  10.658   2.744   3.416 -0.4296 -0.0688 -0.3490
  839MOL0     C10665  10.651   2.861   3.482 -0.6293 -0.5130  0.3743
  839MOL0     N10666  10.241   3.654   3.617 -0.5530 -0.3416 -0.0482
  839MOL0     N10667  10.111   3.660   3.633 -0.9130 -0.0926  0.7340
  839MOL0     C10668  10.034   2.514   3.530  0.4412  0.1967  0.3170
  839MOL0     C10669  10.059   2.382   3.581  0.6904  0.4668  0.0020
  839MOL0     C10670  10.023   1.993   3.775 -0.3616 -0.6120 -0.2534
  839MOL0     C10671  10.151   1.976   3.833 -0.2360 -0.5155 -0.2168
  839MOL0     C10672  10.194   1.848   3.876  0.0374  0.0096  0.1244
  839MOL0     C10673  10.117   1.732   3.855  0.0515 -0.7637  0.1010
  839MOL0     O10674  10.153   1.599   3.870 -0.5172 -0.6209  0.3885
  839MOL0     C10675  10.277   1.587   3.940  0.1762  1.0182 -0.7597
  839MOL0     C10676  10.297   1.438   3.942 -0.7091 -0.4090  0.0868
  839MOL0     C10677  10.420   1.404   4.030 -0.7058  1.1109  0.1627
  839MOL0     C10678  10.466   1.257   4.018 -0.0048  0.4267 -0.0919
  839MOL0     C10679  10.389   1.170   4.108 -0.3697 -0.6489 -0.0450
  839MOL0     C10680  10.328   1.090   4.176 -0.1283  0.3969  0.5368
  839MOL0     C10681   9.997   1.756   3.792  0.0624  0.4722  0.1894
  839MOL0     C10682   9.948   1.882   3.760 -0.0260  0.0480  0.4896
  839MOL0     H10683   9.979   2.439   3.907  0.4789  1.3761  0.1584
  839MOL0     H10684   9.902   2.639   3.819 -0.1207 -0.1946  0.1269
  839MOL0     H10685   9.878   2.833   3.723  0.8496 -2.1487  0.7582
  839MOL0     H10686   9.886   2.934   3.569 -1.7783  1.4399  2.6241
  839MOL0     H10687  10.117   2.969   3.580  3.4630 -4.9798 -1.5030
  839MOL0     H10688  10.137   2.850   3.708  2.4207  3.1462  1.4544
  839MOL0     H10689  10.153   3.087   3.790  0.1340 -0.5877  0.9375
  839MOL0     H10690  10.063   2.962   3.873  1.1764 -0.9728 -0.1278
  839MOL0     H10691   9.884   3.130   3.683  1.9866  4.2966  0.1574
  839MOL0     H10692   9.862   3.034   3.832  1.6909 -0.9256  2.5039
  839MOL0     H10693  10.000   3.197   3.955 -0.6263 -2.7972 -0.9181
  839MOL0     H10694   9.842   3.249   3.915 -0.8923  1.2103 -1.8878
  839MOL0     H10695  10.088   3.325   3.747 -0.5195 -1.5320 -0.8738
  839MOL0     H10696   9.990   3.443   3.851 -5.8798  3.4087 -4.5604
  839MOL0     H10697   9.921   3.308   3.586 -0.0250 -0.4101  1.5957
  839MOL0     H10698   9.800   3.367   3.697  1.5756  0.9837  0.9783
  839MOL0     H10699   9.864   3.588   3.644 -0.6691 -1.4508  0.2361
  839MOL0     H10700   9.878   3.507   3.495  1.3224  0.3802  0.1637
  839MOL0     H10701  10.153   3.386   3.463 -0.6499  3.0447 -2.4604
  839MOL0     H10702  10.484   3.589   3.513  3.1553 -0.7051  1.2207
  839MOL0     H10703  10.417   3.458   3.411 -1.5482 -2.1057  1.0955
  839MOL0     H10704  10.398   3.300   3.611  0.2463 -1.7433 -0.1998
  839MOL0     H10705  10.499   3.425   3.700  4.2478 -0.7452 -0.9552
  839MOL0     H10706  10.656   3.422   3.520 -0.1069  0.3043  1.0004
  839MOL0     H10707  10.655   3.293   3.629 -0.3512 -0.3782  1.1921
  839MOL0     H10708  10.660   3.239   3.363 -1.2639  0.8379 -2.0523
  839MOL0     H10709  10.487   3.249   3.381  0.4124 -0.5119  0.3327
  839MOL0     H10710  10.551   3.061   3.234 -0.2217 -0.1595 -0.5351
  839MOL0     H10711  10.599   2.845   3.099 -1.4577  2.3297 -0.1492
  839MOL0     H10712  10.859   2.428   3.042 -1.7509  1.4345 -2.8656
  839MOL0     H10713  10.877   2.196   2.978  1.0729  1.6762  1.1990
  839MOL0     H10714  10.888   1.982   2.983 -1.1385 -0.2715  1.5553
  839MOL0     H10715  10.771   1.969   2.841 -4.6126 -0.7657  0.4868
  839MOL0     H10716  10.696   1.779   3.038  0.9856 -1.4354 -0.5233
  839MOL0     H10717  10.863   1.778   3.062 -1.4362 -0.8060  0.4674
  839MOL0     H10718  10.915   1.703   2.822  0.5176  0.1218  1.8306
  839MOL0     H10719  10.741   1.710   2.789  0.1486  1.4886  0.5518
  839MOL0     H10720  10.719   1.551   2.988  0.1429  1.0386 -0.4771
  839MOL0     H10721  10.766   1.494   2.823  0.0083  1.2986 -1.0172
  839MOL0     H10722  10.986   1.462   2.901  2.2131 -0.9132  2.3281
  839MOL0     H10723  10.871   1.387   3.009  0.5490 -0.0938 -1.3909
  839MOL0     H10724  10.916   1.589   3.176  1.5877  0.5459  0.3409
  839MOL0     H10725  11.045   1.627   3.050  2.4814 -0.6527  0.1520
  839MOL0     H10726  11.153   1.429   3.104 -0.5046 -2.3930  0.2267
  839MOL0     H10727  11.129   1.526   3.256  3.1333  1.2007 -3.0810
  839MOL0     H10728  11.087   1.301   3.321 -0.4702  0.2344  0.8864
  839MOL0     H10729  10.971   1.282   3.177 -2.8179  4.0202 -2.0841
  839MOL0     H10730  10.519   2.108   3.201 -0.6744 -0.8223  0.1222
  839MOL0     H10731  10.519   2.337   3.292  2.0357 -2.2729  2.6358
  839MOL0     H10732  10.696   2.665   3.480 -0.4908  1.1414  1.2352
  839MOL0     H10733  10.673   2.883   3.586  0.2056 -0.6657  0.2339
  839MOL0     H10734  10.058   2.550   3.431 -1.1204 -0.9963 -0.5347
  839MOL0     H10735  10.097   2.319   3.501 -0.4922  1.5610 -1.4670
  839MOL0     H10736  10.210   2.063   3.859 -2.6860  1.5548 -1.0917
  839MOL0     H10737  10.292   1.833   3.920 -0.4059 -1.3524  0.7172
  839MOL0     H10738  10.271   1.632   4.040  1.3900 -0.8936  0.2387
  839MOL0     H10739  10.352   1.638   3.879 -0.2557  3.7766  0.8131
  839MOL0     H10740  10.216   1.380   3.988 -1.5736 -1.3748 -2.4873
  839MOL0     H10741  10.310   1.404   3.839 -1.2128  0.8168 -0.4079
  839MOL0     H10742  10.407   1.437   4.134  3.5024 -1.6897  1.8365
  839MOL0     H10743  10.496   1.476   3.998 -0.6549  2.0129  2.1742
  839MOL0     H10744  10.473   1.223   3.915  1.8522  0.3667  0.0195
  839MOL0     H10745  10.570   1.258   4.054  1.8778 -1.8883 -4.6344
  839MOL0     H10746  10.269   1.011   4.219  1.0314 -0.6402  0.2856
  839MOL0     H10747   9.922   1.679   3.777 -0.8027  1.7115 -2.6701
  839MOL0     H10748   9.847   1.883   3.720 -0.2721 -0.9358  1.0611
  840MOL0     O10749   7.306   9.573   3.016 -0.8089  0.2564 -0.0594
  840MOL0     C10750   7.222   9.595   2.931 -0.7863 -0.1840  1.2061
  840MOL0     O10751   7.123   9.511   2.891 -0.8623  0.6048 -0.1371
  840MOL0     C10752   7.125   9.375   2.909 -0.1381  0.1364  0.8864
  840MOL0     C10753   7.182   9.298   3.012  0.1886 -0.1786  0.7481
  840MOL0     C10754   7.152   9.165   3.037 -0.8295 -0.8932 -0.4636
  840MOL0     C10755   7.081   9.095   2.948  0.1574 -0.0446 -0.7989
  840MOL0     O10756   7.064   8.955   2.973  1.2464 -1.1870  0.4488
  840MOL0     C10757   7.144   8.862   2.893  0.1105  0.2017 -0.4925
  840MOL0     C10758   7.086   8.719   2.890 -0.2902  0.1962 -0.3341
  840MOL0     C10759   6.962   8.703   2.802  0.5834 -1.3374 -0.2093
  840MOL0     C10760   6.946   8.552   2.776  0.1209  0.7523  0.4834
  840MOL0     C10761   6.826   8.501   2.683  1.0988 -0.3760  0.0547
  840MOL0     C10762   6.840   8.367   2.626 -0.6267  0.0850  0.1434
  840MOL0     C10763   6.701   8.328   2.562  0.3712 -0.1393  0.2355
  840MOL0     C10764   6.718   8.235   2.446  0.2318  0.2052  0.8249
  840MOL0     N10765   6.753   8.097   2.471  0.0668 -0.6166  0.1578
  840MOL0     C10766   6.808   8.047   2.584  0.2806 -0.8200 -0.2807
  840MOL0     C10767   6.827   7.917   2.554 -0.6616 -0.8303  0.4636
  840MOL0     C10768   6.879   7.811   2.652  0.6172 -0.0902  0.1613
  840MOL0     C10769   6.910   7.677   2.600 -0.5769 -0.1422  0.3154
  840MOL0     C10770   6.801   7.570   2.614  0.3240 -0.0311 -0.3773
  840MOL0     C10771   6.827   7.444   2.537 -0.5311 -0.0689 -0.2755
  840MOL0     O10772   6.706   7.361   2.527 -0.8821 -0.8037  0.0377
  840MOL0     C10773   6.655   7.338   2.398  0.3412  0.3487  0.5764
  840MOL0     C10774   6.565   7.234   2.388  0.6449  0.0615  0.1852
  840MOL0     C10775   6.484   7.213   2.276  0.8277 -0.3724  0.1114
  840MOL0     C10776   6.498   7.301   2.167 -0.0108 -0.6544 -0.5755
  840MOL0     C10777   6.407   7.283   2.053  0.6894 -0.9063  0.0944
  840MOL0     O10778   6.303   7.196   2.062 -0.2881 -0.0114 -0.2529
  840MOL0     C10779   6.205   7.192   1.969  0.2747 -0.0425  0.8267
  840MOL0     C10780   6.209   7.104   1.868 -0.4094  0.2184 -0.4240
  840MOL0     C10781   6.112   7.092   1.775  0.8068  0.6170  0.6691
  840MOL0     C10782   5.989   7.160   1.796  0.0429  0.6230  1.3957
  840MOL0     O10783   5.873   7.139   1.713 -0.2586  0.4166 -1.2396
  840MOL0     C10784   5.889   7.085   1.585  0.2382 -0.2700 -0.0764
  840MOL0     C10785   5.754   7.072   1.516  0.9602 -0.5345 -0.2779
  840MOL0     C10786   5.658   6.968   1.571 -0.3997 -0.2215  0.0074
  840MOL0     C10787   5.527   6.955   1.486 -0.2824 -0.8154  0.1788
  840MOL0     C10788   5.418   6.872   1.553 -0.5127  0.6098  0.0881
  840MOL0     C10789   5.434   6.719   1.552 -0.1564 -0.4792  0.0495
  840MOL0     C10790   5.301   6.659   1.582 -0.3152  0.4633  0.6262
  840MOL0     C10791   5.327   6.507   1.571 -0.9676  0.2469  0.5450
  840MOL0    Cl10792   5.183   6.413   1.581 -0.0306  0.0804 -0.4447
  840MOL0     C10793   5.978   7.236   1.907  0.0543  0.4470 -0.5161
  840MOL0     C10794   6.084   7.258   2.000 -0.2651 -0.6103 -0.1789
  840MOL0     O10795   6.406   7.370   1.971 -0.0380 -0.5138  0.4505
  840MOL0     C10796   6.586   7.406   2.176 -0.5125  0.8368 -1.1169
  840MOL0     C10797   6.665   7.429   2.291  0.7775  0.0825 -0.6328
  840MOL0     N10798   6.789   7.895   2.415  0.1290  0.2309  0.6781
  840MOL0     N10799   6.737   8.004   2.377  0.0008 -0.2712  1.1051
  840MOL0     C10800   7.010   9.164   2.850 -0.0511 -0.1738 -0.1506
  840MOL0     C10801   7.035   9.304   2.826 -0.1356 -0.2999 -0.1059
  840MOL0     C10802   7.209   9.733   2.884 -0.6761  0.0108 -0.2723
  840MOL0     C10803   7.304   9.827   2.917  0.8312 -0.1911  0.1632
  840MOL0     C10804   7.311   9.943   2.851 -0.7488  0.3073 -0.2812
  840MOL0     C10805   7.216   9.978   2.758 -0.4206  0.4249  0.6263
  840MOL0     O10806   7.237  10.094   2.694  0.1831 -0.5271  0.4671
  840MOL0     C10807   7.168  10.204   2.761  0.6109 -0.5867 -0.1118
  840MOL0     C10808   7.255  10.328   2.766 -0.5043 -0.1576  0.5852
  840MOL0     C10809   7.188  10.449   2.842 -0.1183  0.2682 -0.6273
  840MOL0     C10810   7.077  10.522   2.765 -0.1801 -0.3511  1.0314
  840MOL0     C10811   7.015  10.603   2.877  0.2285  1.4633  0.3484
  840MOL0     C10812   6.963  10.663   2.975 -0.3890 -0.2112  0.1796
  840MOL0     C10813   7.120   9.885   2.725 -0.1808 -0.6723 -1.4250
  840MOL0     C10814   7.109   9.762   2.788  0.0817 -0.0418 -0.0987
  840MOL0     H10815   7.245   9.350   3.083  0.4176 -0.6680  0.9054
  840MOL0     H10816   7.199   9.128   3.128 -1.4145  2.4996  1.3668
  840MOL0     H10817   7.244   8.855   2.936 -0.1572 -0.7072  0.0124
  840MOL0     H10818   7.154   8.916   2.798  1.3255  0.4516 -0.2429
  840MOL0     H10819   7.054   8.677   2.986  0.4719  0.2331 -0.0636
  840MOL0     H10820   7.165   8.654   2.852 -1.6225 -0.5004 -2.1015
  840MOL0     H10821   6.968   8.762   2.710 -2.4703 -0.1025  0.2591
  840MOL0     H10822   6.871   8.745   2.846 -1.0733 -1.7891 -2.9078
  840MOL0     H10823   7.035   8.520   2.721 -0.6276  1.1413 -1.0226
  840MOL0     H10824   6.938   8.503   2.874  0.3935 -1.0017 -0.3248
  840MOL0     H10825   6.818   8.567   2.596 -1.4824 -0.2713  0.3038
  840MOL0     H10826   6.732   8.500   2.738  3.6971 -0.6383  5.0385
  840MOL0     H10827   6.882   8.287   2.686 -0.0586 -2.8045 -3.7082
  840MOL0     H10828   6.909   8.385   2.543 -1.5065 -1.3914 -0.9702
  840MOL0     H10829   6.626   8.303   2.639 -0.0006  2.0522  0.6470
  840MOL0     H10830   6.655   8.416   2.517 -1.5000 -1.3476 -0.3450
  840MOL0     H10831   6.791   8.275   2.375  0.2173 -0.3699  0.4731
  840MOL0     H10832   6.623   8.234   2.392  0.0582 -1.8825  1.0568
  840MOL0     H10833   6.838   8.098   2.675  2.2223  1.8088 -2.2390
  840MOL0     H10834   6.816   7.804   2.741  0.9771  1.3897  0.5660
  840MOL0     H10835   6.973   7.848   2.692  1.1789 -0.4374 -0.7941
  840MOL0     H10836   6.998   7.630   2.646 -1.9422 -2.0260  1.1233
  840MOL0     H10837   6.937   7.691   2.495 -0.6189  0.3138  0.3623
  840MOL0     H10838   6.770   7.532   2.712 -1.0820 -4.3705 -2.2854
  840MOL0     H10839   6.706   7.612   2.580  0.7359  0.7520 -0.5803
  840MOL0     H10840   6.895   7.374   2.587 -1.1651 -1.2502 -1.0139
  840MOL0     H10841   6.867   7.478   2.441 -0.0915  1.0268  0.2761
  840MOL0     H10842   6.569   7.163   2.470 -0.0019 -1.2710 -0.8780
  840MOL0     H10843   6.420   7.125   2.270 -0.2234  0.4419 -1.3077
  840MOL0     H10844   6.299   7.046   1.852 -0.6000  0.1726 -1.4160
  840MOL0     H10845   6.132   7.019   1.697 -1.1201  3.2226 -2.4691
  840MOL0     H10846   5.929   6.983   1.591 -0.5921 -0.5178  3.2779
  840MOL0     H10847   5.956   7.137   1.516  0.4669 -2.9696 -2.0965
  840MOL0     H10848   5.783   7.051   1.413 -0.5934 -1.2434 -0.6003
  840MOL0     H10849   5.695   7.163   1.505  1.7565 -0.1887 -1.9183
  840MOL0     H10850   5.643   6.983   1.678 -0.4003  2.3019 -0.2907
  840MOL0     H10851   5.710   6.873   1.556 -2.7980 -1.5504 -0.3675
  840MOL0     H10852   5.487   7.054   1.463 -1.2640 -0.8997  1.4028
  840MOL0     H10853   5.551   6.901   1.394  1.7563 -0.1151  0.2399
  840MOL0     H10854   5.319   6.892   1.511 -1.9533 -1.6458  2.1516
  840MOL0     H10855   5.412   6.920   1.651 -0.4334  2.3034 -0.7034
  840MOL0     H10856   5.501   6.687   1.632  0.2596 -3.6359 -1.4083
  840MOL0     H10857   5.467   6.686   1.453 -2.0172  1.3348 -1.2640
  840MOL0     H10858   5.264   6.686   1.682 -1.2881 -0.6561  0.5891
  840MOL0     H10859   5.231   6.691   1.504  2.1597  3.5978 -0.5405
  840MOL0     H10860   5.393   6.477   1.653 -2.0470 -1.4790  0.8172
  840MOL0     H10861   5.379   6.496   1.475 -1.9383  1.4638 -0.1433
  840MOL0     H10862   5.888   7.287   1.937  0.7078  0.8015  0.9066
  840MOL0     H10863   6.068   7.318   2.089  2.4697 -0.2944  0.1881
  840MOL0     H10864   6.575   7.490   2.108  1.0742  0.9457 -1.2903
  840MOL0     H10865   6.717   7.523   2.305 -1.0675  0.9714  0.7658
  840MOL0     H10866   6.941   9.109   2.787  0.2699 -0.9969  0.1974
  840MOL0     H10867   6.984   9.355   2.745 -0.7931 -0.2384  0.3486
  840MOL0     H10868   7.380   9.823   2.994  0.1605  3.0842  1.1658
  840MOL0     H10869   7.396  10.003   2.882  1.3026 -3.4526  2.2075
  840MOL0     H10870   7.151  10.171   2.863 -0.1916  0.4226  0.0958
  840MOL0     H10871   7.073  10.230   2.713 -0.2614 -0.5171  1.5808
  840MOL0     H10872   7.339  10.307   2.834 -3.0861 -2.9883  3.2201
  840MOL0     H10873   7.277  10.348   2.661 -1.7440  1.1836  0.5499
  840MOL0     H10874   7.259  10.526   2.874  0.9098 -1.0799  0.4215
  840MOL0     H10875   7.144  10.408   2.933 -0.3890 -0.3878 -1.0431
  840MOL0     H10876   7.127  10.584   2.690  0.0758 -1.9837 -0.2066
  840MOL0     H10877   7.007  10.455   2.714  2.4305 -1.2797 -1.5604
  840MOL0     H10878   6.912  10.714   3.054  0.7969  3.4197 -1.1606
  840MOL0     H10879   7.057   9.927   2.648  0.7909  1.1368 -1.3036
  840MOL0     H10880   7.030   9.689   2.770  0.1529  0.3169 -2.0764
  841MOL0     O10881   1.030   9.350   9.914 -0.2604  0.3718 -0.0890
  841MOL0     C10882   0.998   9.422  10.011  0.5149  0.2137  0.2284
  841MOL0     O10883   1.014   9.401  10.142 -0.6647  0.5406  0.8118
  841MOL0     C10884   1.094   9.295  10.180  0.3883  0.4381 -0.4083
  841MOL0     C10885   1.034   9.179  10.233  0.3417  0.1329  0.4130
  841MOL0     C10886   1.107   9.087  10.303 -0.1786 -0.2111 -0.0397
  841MOL0     C10887   1.247   9.091  10.304 -1.1551  0.6251 -0.5663
  841MOL0     O10888   1.327   9.005  10.375 -0.3221 -0.2220  0.2708
  841MOL0     C10889   1.275   8.880  10.416  0.8254  0.3097 -0.4306
  841MOL0     C10890   1.226   8.889  10.560 -0.0906  0.0252  0.3495
  841MOL0     C10891   1.231   8.748  10.628 -0.2925  0.9742 -0.5611
  841MOL0     C10892   1.135   8.740  10.754 -0.1222 -0.3738  0.1506
  841MOL0     C10893   1.151   8.608  10.826  0.4437  0.2294 -0.4027
  841MOL0     C10894   1.065   8.497  10.742 -0.5153 -0.2967  0.5338
  841MOL0     C10895   1.057   8.374  10.821  0.1631  0.1450 -0.0846
  841MOL0     C10896   0.937   8.291  10.766 -0.3928  0.1887 -0.1837
  841MOL0     N10897   0.897   8.185  10.857 -0.2860  0.1191  0.8189
  841MOL0     C10898   0.968   8.074  10.895 -0.4253  0.1711  0.2490
  841MOL0     C10899   0.876   7.994  10.948 -0.2341  0.3937 -0.6028
  841MOL0     C10900   0.904   7.861  11.013 -0.3634 -0.9288  0.6845
  841MOL0     C10901   0.825   7.839  11.139  0.1141 -0.4609  0.4533
  841MOL0     C10902   0.870   7.909  11.269 -0.5077  0.0203 -0.6311
  841MOL0     C10903   0.884   8.057  11.247  0.6468 -0.2183  0.0264
  841MOL0     O10904   0.911   8.148  11.361  0.3073  0.2389 -0.3485
  841MOL0     C10905   0.970   8.267  11.340 -0.0472 -0.4907  0.7400
  841MOL0     C10906   0.943   8.338  11.226  0.1169 -0.2889 -0.4829
  841MOL0     C10907   0.985   8.470  11.205 -1.0636  0.6122  0.5634
  841MOL0     C10908   1.077   8.526  11.301  0.4764  0.2625 -0.2767
  841MOL0     C10909   1.111   8.670  11.297 -0.1794 -0.4089  0.4942
  841MOL0     O10910   1.171   8.737  11.398 -0.3612  0.7503 -0.3092
  841MOL0     C10911   1.159   8.871  11.405 -0.5399 -0.0733 -0.5610
  841MOL0     C10912   1.269   8.929  11.452  0.6867  0.5538 -0.3585
  841MOL0     C10913   1.277   9.065  11.482  0.5361  0.0588 -0.5986
  841MOL0     C10914   1.169   9.149  11.458 -0.6182  0.2895 -0.2369
  841MOL0     O10915   1.196   9.281  11.467  0.0289  0.0343  0.4365
  841MOL0     C10916   1.088   9.375  11.497  0.0419 -0.2793 -0.0714
  841MOL0     C10917   1.007   9.344  11.617  0.9709  0.5222 -0.7694
  841MOL0     C10918   0.905   9.455  11.649  0.0443  0.3817  1.1515
  841MOL0     C10919   0.974   9.573  11.718  0.2971  0.4708  0.3565
  841MOL0     C10920   0.881   9.654  11.799  0.2359 -0.1916 -0.2650
  841MOL0     C10921   0.937   9.768  11.880 -0.1322  0.3122  0.2938
  841MOL0     C10922   0.831   9.817  11.986  0.3853 -0.8072  0.0571
  841MOL0     C10923   0.716   9.906  11.946 -0.1484  0.7616  0.4332
  841MOL0    Cl10924   0.781  10.054  11.880  0.0973 -0.4835  0.0615
  841MOL0     C10925   1.059   9.090  11.403  0.1358 -0.2410 -0.6919
  841MOL0     C10926   1.046   8.950  11.378 -0.8690  0.0728 -0.5758
  841MOL0     O10927   1.092   8.717  11.186 -0.6371  0.1927 -0.2620
  841MOL0     C10928   1.109   8.444  11.419  0.0331  0.0939  0.0079
  841MOL0     C10929   1.059   8.321  11.434  0.1735  0.1752 -0.5700
  841MOL0     N10930   0.754   8.056  10.944  0.3905 -1.0683  0.0554
  841MOL0     N10931   0.771   8.173  10.898 -0.2876 -0.0462 -0.1641
  841MOL0     C10932   1.309   9.195  10.241  0.5859  0.3856  0.0582
  841MOL0     C10933   1.239   9.296  10.185 -0.4466 -0.0949  0.0447
  841MOL0     C10934   0.900   9.529   9.981  0.2744  0.0055  0.3065
  841MOL0     C10935   0.833   9.529   9.860 -0.0378 -0.2272 -0.1340
  841MOL0     C10936   0.734   9.617   9.824 -0.3588  0.6486  0.0398
  841MOL0     C10937   0.696   9.725   9.910 -0.5352  1.2276  0.5659
  841MOL0     O10938   0.608   9.829   9.880 -0.5314  0.1081 -0.0364
  841MOL0     C10939   0.496   9.819   9.789 -0.3040 -0.3006  0.8267
  841MOL0     C10940   0.392   9.714   9.847  0.4278  0.0364  0.9072
  841MOL0     C10941   0.251   9.715   9.773  0.0073 -0.1263 -0.5090
  841MOL0     C10942   0.236   9.643   9.636  0.3721 -0.3576  0.0763
  841MOL0     C10943   0.282   9.507   9.646 -0.2784  0.3666  0.7146
  841MOL0     C10944   0.308   9.391   9.664 -1.1800  0.2193  0.5173
  841MOL0     C10945   0.758   9.718  10.037  0.3253 -0.2342 -0.1130
  841MOL0     C10946   0.859   9.625  10.072  0.7020 -0.2869  0.7045
  841MOL0     H10947   0.927   9.174  10.246  0.3719 -3.6533  0.3705
  841MOL0     H10948   1.056   9.006  10.353 -0.4281 -1.3285 -2.0293
  841MOL0     H10949   1.364   8.817  10.407  0.8068  0.3188 -0.6806
  841MOL0     H10950   1.197   8.853  10.344 -1.3484 -0.4486  2.0613
  841MOL0     H10951   1.121   8.921  10.555 -0.1241  0.1128  1.3481
  841MOL0     H10952   1.289   8.960  10.614 -0.0389 -0.4731  0.9554
  841MOL0     H10953   1.334   8.716  10.650 -1.3838 -1.3523  1.7917
  841MOL0     H10954   1.184   8.675  10.562 -1.2917  0.3220  0.8166
  841MOL0     H10955   1.169   8.819  10.822 -1.0106  1.5667 -1.5694
  841MOL0     H10956   1.030   8.764  10.735 -0.5318  0.7702  3.1969
  841MOL0     H10957   1.098   8.621  10.921  1.6361  0.7933  0.1990
  841MOL0     H10958   1.250   8.569  10.849 -0.2541 -1.2681  0.1857
  841MOL0     H10959   1.119   8.470  10.651 -0.0324 -1.3275  1.1029
  841MOL0     H10960   0.965   8.532  10.716 -0.1790 -0.0367 -0.4455
  841MOL0     H10961   1.147   8.312  10.813  0.9875  1.2579  0.3411
  841MOL0     H10962   1.048   8.386  10.930 -2.5785 -1.8104  0.0086
  841MOL0     H10963   0.963   8.260  10.664  1.8033  2.7720 -0.5154
  841MOL0     H10964   0.850   8.355  10.746  1.1774  3.0315  1.5055
  841MOL0     H10965   1.071   8.045  10.874 -1.4423 -2.1643 -1.9849
  841MOL0     H10966   1.011   7.848  11.028  0.6935  1.6678 -3.0830
  841MOL0     H10967   0.871   7.774  10.954  2.2450 -0.6627 -1.3375
  841MOL0     H10968   0.824   7.733  11.165  0.6633 -0.4136  0.6755
  841MOL0     H10969   0.727   7.877  11.106  0.8990 -1.9708 -4.4727
  841MOL0     H10970   0.801   7.880  11.349  0.4580  1.1201  0.6406
  841MOL0     H10971   0.969   7.869  11.292 -0.6456 -1.0121 -1.7083
  841MOL0     H10972   0.794   8.097  11.200  3.2050  3.0216 -2.6695
  841MOL0     H10973   0.965   8.076  11.176  1.2874 -1.1620  0.4782
  841MOL0     H10974   0.879   8.302  11.146  1.9464 -0.6147 -1.8716
  841MOL0     H10975   0.954   8.523  11.115 -0.2886  0.0768 -0.0315
  841MOL0     H10976   1.362   8.874  11.470 -1.1026 -4.3226 -3.8596
  841MOL0     H10977   1.373   9.093  11.524 -0.2116  1.3944  0.2954
  841MOL0     H10978   1.026   9.395  11.409 -3.7581 -5.2796  1.0047
  841MOL0     H10979   1.149   9.463  11.521 -0.3107 -0.5310  1.8544
  841MOL0     H10980   1.058   9.321  11.710 -0.4175  1.5346  0.2831
  841MOL0     H10981   0.946   9.255  11.600  1.5094  0.5629 -3.2973
  841MOL0     H10982   0.833   9.408  11.717 -0.2429  1.1457  1.3926
  841MOL0     H10983   0.857   9.498  11.561 -0.6241  3.9211  3.0376
  841MOL0     H10984   1.058   9.546  11.783  3.1758 -0.9843 -3.5779
  841MOL0     H10985   1.017   9.634  11.638 -0.9642 -0.3891 -1.0242
  841MOL0     H10986   0.827   9.585  11.864 -0.4665  1.8657  1.4371
  841MOL0     H10987   0.818   9.689  11.716 -0.0240 -0.7939 -0.3304
  841MOL0     H10988   0.946   9.853  11.811 -1.3456 -0.9768 -1.5381
  841MOL0     H10989   1.031   9.747  11.932  1.2627  3.1490 -0.8244
  841MOL0     H10990   0.793   9.735  12.047  1.0354 -2.4034 -1.5827
  841MOL0     H10991   0.886   9.893  12.041  0.4365 -1.2903  0.6761
  841MOL0     H10992   0.652   9.949  12.024 -0.4545  1.2391 -0.0763
  841MOL0     H10993   0.645   9.861  11.875 -0.1516  0.6148  0.5287
  841MOL0     H10994   0.973   9.151  11.378 -0.2003 -0.8379 -1.0234
  841MOL0     H10995   0.962   8.909  11.323 -0.9371  1.2013 -1.3565
  841MOL0     H10996   1.171   8.490  11.496 -0.3435  1.2585 -0.3516
  841MOL0     H10997   1.088   8.274  11.527 -0.5243 -0.1752 -0.5244
  841MOL0     H10998   1.417   9.203  10.253  0.5250 -0.2827  1.1068
  841MOL0     H10999   1.288   9.389  10.157  0.0322 -1.0726 -2.7048
  841MOL0     H11000   0.849   9.446   9.791  3.1579  1.3033 -1.4244
  841MOL0     H11001   0.693   9.613   9.724 -1.0739 -0.4555  0.3620
  841MOL0     H11002   0.516   9.776   9.690  2.5936  0.4739  0.9677
  841MOL0     H11003   0.458   9.918   9.761 -0.3030 -0.8965 -1.4934
  841MOL0     H11004   0.429   9.611   9.841 -2.5063 -1.0234 -3.4527
  841MOL0     H11005   0.371   9.731   9.953  1.5299 -2.0937  1.5279
  841MOL0     H11006   0.224   9.821   9.768  0.6717  0.2135  1.7549
  841MOL0     H11007   0.190   9.670   9.851  1.7982 -3.4021 -0.7952
  841MOL0     H11008   0.134   9.643   9.597  2.0779 -0.4519 -5.0988
  841MOL0     H11009   0.290   9.707   9.565 -2.0948  0.1527 -1.4628
  841MOL0     H11010   0.334   9.288   9.678 -0.1737  0.3476 -0.2843
  841MOL0     H11011   0.730   9.789  10.113  0.5010 -2.0515  1.7343
  841MOL0     H11012   0.911   9.639  10.166  4.2908 -2.4699 -0.7244
  842MOL0     O11013   8.383   7.858   4.536  0.2498  0.3906  0.1544
  842MOL0     C11014   8.355   7.742   4.516  0.0888  0.3044  0.2487
  842MOL0     O11015   8.418   7.654   4.432  0.6219  0.2988 -0.4305
  842MOL0     C11016   8.524   7.685   4.351 -0.9373  1.0521 -0.1209
  842MOL0     C11017   8.544   7.805   4.272  0.7430  0.7874 -0.6936
  842MOL0     C11018   8.661   7.820   4.200 -1.1135  0.3343 -0.4068
  842MOL0     C11019   8.771   7.738   4.226 -0.5499  0.0198  0.7875
  842MOL0     O11020   8.892   7.755   4.164 -1.0428 -0.4385 -0.6130
  842MOL0     C11021   8.905   7.841   4.056  0.3479 -0.2812 -0.3707
  842MOL0     C11022   9.046   7.838   3.995 -0.3033 -0.5249  1.1186
  842MOL0     C11023   9.063   7.957   3.900  0.1778 -0.1359 -0.0758
  842MOL0     C11024   9.178   7.942   3.805 -0.5300  0.4747  0.5428
  842MOL0     C11025   9.226   8.069   3.735  0.0953 -0.4652 -0.3638
  842MOL0     C11026   9.128   8.157   3.655  0.2622  0.5422  0.8965
  842MOL0     C11027   9.090   8.099   3.514  0.1287  0.6154  0.3249
  842MOL0     C11028   8.968   8.014   3.535  0.0396 -0.2769  0.2209
  842MOL0     N11029   8.924   7.952   3.407  0.2954  0.2599 -0.8465
  842MOL0     C11030   8.906   8.023   3.291  0.6209  0.3108 -0.3515
  842MOL0     C11031   8.836   7.932   3.214  1.1912 -0.5743 -0.3905
  842MOL0     C11032   8.806   7.953   3.069  0.3705  0.3224  0.6734
  842MOL0     C11033   8.920   7.911   2.979  0.0628  0.8446  0.3073
  842MOL0     C11034   8.912   7.977   2.847 -0.2871 -0.1218 -0.0582
  842MOL0     C11035   8.962   8.128   2.854 -0.8025 -0.4474 -0.2048
  842MOL0     O11036   9.095   8.137   2.899  0.1707 -0.3862  0.0230
  842MOL0     C11037   9.124   8.211   3.011 -0.0839 -0.2834  0.5269
  842MOL0     C11038   9.051   8.329   3.057  0.3688 -0.1717 -0.3383
  842MOL0     C11039   9.091   8.393   3.178  0.8202 -0.5811  0.6506
  842MOL0     C11040   9.198   8.350   3.246  0.7159 -0.5150  1.0455
  842MOL0     C11041   9.233   8.422   3.376 -0.0845  0.0823 -0.0992
  842MOL0     O11042   9.333   8.373   3.460  0.2999 -0.0100  0.0878
  842MOL0     C11043   9.376   8.431   3.584 -0.1070  1.0041  0.1692
  842MOL0     C11044   9.477   8.346   3.637 -0.7786 -0.1560  0.5384
  842MOL0     C11045   9.518   8.375   3.769  0.0542  0.2512 -0.1480
  842MOL0     C11046   9.479   8.496   3.837 -0.2304 -0.2606  0.2342
  842MOL0     O11047   9.514   8.519   3.971 -0.7151  0.4922 -0.1777
  842MOL0     C11048   9.636   8.457   4.016  0.3616  0.5411 -0.2221
  842MOL0     C11049   9.704   8.557   4.126 -0.3722  0.3319  0.8668
  842MOL0     C11050   9.619   8.568   4.248 -0.6682  0.5480  0.7663
  842MOL0     C11051   9.656   8.673   4.345  0.1924  0.0271 -0.2461
  842MOL0     C11052   9.799   8.648   4.397 -0.9747 -0.4002  0.6036
  842MOL0     C11053   9.841   8.717   4.527  0.5766 -0.6174 -0.1215
  842MOL0     C11054   9.972   8.669   4.573 -0.8346  0.4456  0.4010
  842MOL0     C11055  10.091   8.721   4.492 -0.4531  0.0029  0.0830
  842MOL0    Cl11056  10.243   8.645   4.558  0.2299  0.1910 -0.2666
  842MOL0     C11057   9.400   8.576   3.766  0.3824 -0.3022  0.6625
  842MOL0     C11058   9.336   8.545   3.650 -0.9235 -0.8775  1.3978
  842MOL0     O11059   9.169   8.522   3.399 -0.1946 -0.4936  0.4575
  842MOL0     C11060   9.273   8.241   3.197 -0.2967 -0.2449 -0.1165
  842MOL0     C11061   9.239   8.168   3.083 -0.1889  0.2900  1.1099
  842MOL0     N11062   8.827   7.809   3.284 -0.4093  1.1703 -0.5372
  842MOL0     N11063   8.874   7.824   3.400  0.1190 -0.0231  0.6824
  842MOL0     C11064   8.753   7.633   4.314 -0.5430  0.0833 -0.3890
  842MOL0     C11065   8.633   7.601   4.368 -0.1421 -1.4806  0.0381
  842MOL0     C11066   8.243   7.692   4.595  0.3535  0.2515  0.0687
  842MOL0     C11067   8.179   7.565   4.566  0.0271 -0.3111  0.7688
  842MOL0     C11068   8.083   7.518   4.635 -0.2271 -0.1930 -0.8524
  842MOL0     C11069   8.038   7.580   4.749  0.6590  1.0711  0.2473
  842MOL0     O11070   7.932   7.522   4.811 -0.0743 -0.8301 -0.0156
  842MOL0     C11071   7.947   7.437   4.921 -0.7687  0.3888  0.1112
  842MOL0     C11072   8.080   7.359   4.934  0.7067 -0.4371  0.1526
  842MOL0     C11073   8.164   7.419   5.051 -0.3521  0.0167  0.4926
  842MOL0     C11074   8.305   7.351   5.061 -1.0585  0.6481 -0.3585
  842MOL0     C11075   8.404   7.427   4.977 -0.2447 -0.7005 -0.3672
  842MOL0     C11076   8.475   7.470   4.891 -0.0884  0.3933  0.4009
  842MOL0     C11077   8.101   7.693   4.795  0.4183 -0.7354 -0.1303
  842MOL0     C11078   8.212   7.752   4.720  1.1450  0.6261  0.5893
  842MOL0     H11079   8.464   7.878   4.263 -0.4768 -0.5293 -0.9327
  842MOL0     H11080   8.674   7.909   4.139  0.7785 -0.5083 -1.3030
  842MOL0     H11081   8.898   7.945   4.088  1.9061 -0.4108  0.4978
  842MOL0     H11082   8.831   7.812   3.981  1.0524 -1.2420 -0.7236
  842MOL0     H11083   9.061   7.742   3.944 -0.1443  0.5545 -0.9460
  842MOL0     H11084   9.123   7.860   4.069  1.6376 -1.8048 -0.4161
  842MOL0     H11085   9.075   8.042   3.967  3.1373 -0.9999  0.6358
  842MOL0     H11086   8.976   7.980   3.838  1.3677  1.1078 -1.3773
  842MOL0     H11087   9.252   7.890   3.866 -3.3555 -1.3070  2.7163
  842MOL0     H11088   9.143   7.880   3.722 -4.0619  1.4803  1.1413
  842MOL0     H11089   9.313   8.036   3.679 -0.6589 -4.5447  0.5753
  842MOL0     H11090   9.262   8.123   3.823 -1.6453 -2.1387  1.4756
  842MOL0     H11091   9.181   8.251   3.638  0.8124 -0.0705 -1.1012
  842MOL0     H11092   9.041   8.172   3.719  2.3880  1.1368  3.8742
  842MOL0     H11093   9.061   8.181   3.448 -0.6240 -1.5641 -2.2168
  842MOL0     H11094   9.180   8.055   3.471  1.0196  1.6810  1.0444
  842MOL0     H11095   8.880   8.070   3.569 -0.3954 -0.8988  0.1461
  842MOL0     H11096   8.983   7.926   3.599 -0.3199 -1.0900 -0.7762
  842MOL0     H11097   8.928   8.128   3.276  3.3882  0.6790  4.4144
  842MOL0     H11098   8.756   8.048   3.046  0.1600 -0.3541 -2.0739
  842MOL0     H11099   8.721   7.893   3.035 -0.6731  2.8500 -1.6000
  842MOL0     H11100   8.916   7.802   2.972 -1.6172  0.9821 -1.8524
  842MOL0     H11101   9.018   7.931   3.023  1.1772  0.9728 -2.0957
  842MOL0     H11102   8.981   7.915   2.789  2.6148  2.2887  0.5746
  842MOL0     H11103   8.812   7.967   2.803  0.9168  0.4488 -3.1673
  842MOL0     H11104   8.893   8.184   2.918  1.2336  1.4809  0.4144
  842MOL0     H11105   8.960   8.175   2.754  0.4785 -1.5787 -0.7922
  842MOL0     H11106   8.971   8.364   2.992 -0.7766 -0.9080  0.6286
  842MOL0     H11107   9.023   8.471   3.209 -0.7534 -1.3046 -0.7684
  842MOL0     H11108   9.514   8.252   3.597 -2.1620 -1.0431  1.2496
  842MOL0     H11109   9.581   8.299   3.814 -2.4233 -3.2424 -2.1119
  842MOL0     H11110   9.701   8.457   3.928  1.9701 -1.2290  0.8780
  842MOL0     H11111   9.616   8.359   4.058  1.5853  1.3356  2.4435
  842MOL0     H11112   9.713   8.654   4.077  0.7992 -0.9044 -1.5498
  842MOL0     H11113   9.804   8.515   4.139 -1.1052 -1.7369  0.3260
  842MOL0     H11114   9.623   8.468   4.293 -1.4616 -0.2772 -0.8785
  842MOL0     H11115   9.516   8.581   4.212 -0.4493 -0.8384 -0.4540
  842MOL0     H11116   9.639   8.773   4.303 -0.2091 -0.8235 -2.2238
  842MOL0     H11117   9.594   8.665   4.434  1.9523  0.6494  1.0804
  842MOL0     H11118   9.869   8.657   4.313 -0.3188  0.9539  1.2637
  842MOL0     H11119   9.794   8.543   4.426 -1.6520  0.3800  3.6469
  842MOL0     H11120   9.765   8.696   4.603 -1.6062 -0.1958 -2.0611
  842MOL0     H11121   9.849   8.826   4.521 -3.4517 -0.0862  0.7235
  842MOL0     H11122   9.988   8.688   4.680 -1.3383 -4.4209  1.5865
  842MOL0     H11123   9.986   8.561   4.559 -0.6038  0.5021  0.1851
  842MOL0     H11124  10.103   8.830   4.496  1.7053 -0.2255  2.6673
  842MOL0     H11125  10.072   8.694   4.387 -3.6148 -1.1532  0.8322
  842MOL0     H11126   9.378   8.671   3.812  1.7721  0.8873 -1.0169
  842MOL0     H11127   9.260   8.611   3.610 -0.1587  0.8639  2.6747
  842MOL0     H11128   9.353   8.213   3.264 -0.3957 -0.3666 -0.0486
  842MOL0     H11129   9.296   8.080   3.056 -1.0154  0.0964 -0.1106
  842MOL0     H11130   8.849   7.584   4.329 -1.0048 -0.2714  1.5947
  842MOL0     H11131   8.609   7.515   4.431  0.1496 -1.7014 -0.1491
  842MOL0     H11132   8.213   7.506   4.481 -2.4229 -0.3825 -0.2342
  842MOL0     H11133   8.034   7.425   4.607  1.9069 -1.6680  0.0353
  842MOL0     H11134   7.875   7.355   4.910 -0.7235  0.6889 -4.7481
  842MOL0     H11135   7.931   7.491   5.015 -2.6175 -0.7165  0.4698
  842MOL0     H11136   8.053   7.258   4.963  3.7674 -1.2239  0.6668
  842MOL0     H11137   8.145   7.347   4.846  3.5489 -3.5687  2.4026
  842MOL0     H11138   8.100   7.385   5.134 -1.5355  0.8789 -0.0511
  842MOL0     H11139   8.178   7.527   5.049 -0.9890  0.0843 -0.4710
  842MOL0     H11140   8.351   7.354   5.160  3.2280 -2.3325 -1.9716
  842MOL0     H11141   8.302   7.246   5.029 -0.1090  0.7389 -0.7644
  842MOL0     H11142   8.537   7.504   4.810 -0.9380  0.7715 -0.1133
  842MOL0     H11143   8.056   7.743   4.879  2.2647  1.7008 -0.4611
  842MOL0     H11144   8.256   7.848   4.744 -0.3956  1.3709  0.5241
  843MOL0     O11145   6.119   4.167  10.510  1.2174 -0.2624  0.4958
  843MOL0     C11146   6.016   4.110  10.483  0.0055  0.7187  0.4459
  843MOL0     O11147   5.918   4.150  10.393 -0.1091 -0.0213  0.2042
  843MOL0     C11148   5.954   4.246  10.307 -0.0074 -0.6467 -0.1273
  843MOL0     C11149   5.882   4.364  10.300  0.1243  0.6528  1.2926
  843MOL0     C11150   5.926   4.469  10.209 -0.8056  0.3180 -0.3529
  843MOL0     C11151   6.035   4.449  10.125 -0.2193 -0.0052  0.6286
  843MOL0     O11152   6.067   4.528  10.018  0.3300 -0.8932  1.0924
  843MOL0     C11153   6.013   4.666   9.998 -0.1497 -0.1620  0.1842
  843MOL0     C11154   6.013   4.700   9.845 -0.1023  0.7585  0.1209
  843MOL0     C11155   5.906   4.619   9.776 -0.9340 -0.8501  0.4608
  843MOL0     C11156   5.953   4.486   9.735 -0.9888  0.2741  0.0950
  843MOL0     C11157   5.851   4.368   9.734  0.6255  0.7807  0.6580
  843MOL0     C11158   5.742   4.371   9.620  0.0367  0.4138 -1.6534
  843MOL0     C11159   5.641   4.251   9.636 -0.0170 -0.7079  0.2875
  843MOL0     C11160   5.543   4.237   9.520  0.2434 -0.3255 -0.1006
  843MOL0     N11161   5.484   4.358   9.468 -0.4563  0.1346  0.3330
  843MOL0     C11162   5.549   4.450   9.390 -0.1958  0.7806 -0.4870
  843MOL0     C11163   5.456   4.546   9.371 -0.5850  0.1973  0.3834
  843MOL0     C11164   5.474   4.678   9.307 -0.6014 -0.2680  0.3813
  843MOL0     C11165   5.483   4.681   9.155  0.2676 -0.4557  0.2544
  843MOL0     C11166   5.359   4.631   9.069  0.6878 -1.0952 -0.0245
  843MOL0     C11167   5.251   4.742   9.045 -0.1507  1.0236  0.3637
  843MOL0     O11168   5.303   4.854   8.992  0.2031  0.2625 -0.4397
  843MOL0     C11169   5.226   4.962   8.951  0.0707  0.0179  0.4163
  843MOL0     C11170   5.290   5.078   8.898  1.4005  0.9119  0.4418
  843MOL0     C11171   5.224   5.184   8.835 -0.0676 -0.4774  0.0189
  843MOL0     C11172   5.088   5.180   8.829 -0.6996  0.4903  0.4544
  843MOL0     C11173   5.016   5.291   8.768  0.1256  0.0702 -0.5441
  843MOL0     O11174   5.090   5.407   8.741 -0.2959  0.2371 -0.5871
  843MOL0     C11175   5.037   5.518   8.687  0.1901 -0.6363  0.5184
  843MOL0     C11176   5.030   5.644   8.746 -0.7112 -0.0068  0.1893
  843MOL0     C11177   4.972   5.756   8.671 -0.6443  0.1481 -0.7124
  843MOL0     C11178   4.925   5.726   8.541 -0.5641 -0.1773  0.9249
  843MOL0     O11179   4.860   5.819   8.459 -1.1980  0.2577  0.1777
  843MOL0     C11180   4.916   5.849   8.331  0.2316 -0.6937  0.0621
  843MOL0     C11181   4.838   5.964   8.277  0.9064  0.7317  0.5959
  843MOL0     C11182   4.903   6.014   8.151  0.0697  0.1757  0.0981
  843MOL0     C11183   4.879   6.163   8.135  0.1809 -0.4669  0.0872
  843MOL0     C11184   4.731   6.201   8.089 -0.0278  0.1146  0.8908
  843MOL0     C11185   4.713   6.352   8.088 -1.2325  0.2242  0.4989
  843MOL0     C11186   4.564   6.392   8.060  0.8340  0.5873 -0.4169
  843MOL0     C11187   4.548   6.541   8.016 -0.3547  0.1211 -0.5005
  843MOL0    Cl11188   4.607   6.579   7.857 -0.0513 -0.5952 -0.1804
  843MOL0     C11189   4.930   5.596   8.490 -0.0539 -0.4039  0.1136
  843MOL0     C11190   4.982   5.503   8.557  0.3551  1.0600  0.4917
  843MOL0     O11191   4.901   5.273   8.743  0.2684 -0.0539  0.2173
  843MOL0     C11192   5.017   5.077   8.898 -0.5774 -0.3501 -0.3860
  843MOL0     C11193   5.087   4.974   8.967 -0.8466 -0.4465  0.5171
  843MOL0     N11194   5.331   4.494   9.410 -0.1666 -0.5351 -0.0251
  843MOL0     N11195   5.350   4.376   9.468  0.1629  0.0276  0.0451
  843MOL0     C11196   6.103   4.332  10.130 -0.4331 -0.2959 -0.1889
  843MOL0     C11197   6.068   4.228  10.225 -0.2400  0.1996  0.2099
  843MOL0     C11198   6.001   3.959  10.522  0.5725 -1.1856 -0.5341
  843MOL0     C11199   6.084   3.907  10.631 -0.2257 -0.8744  0.5011
  843MOL0     C11200   6.075   3.773  10.678 -1.0625 -0.0659  0.3578
  843MOL0     C11201   5.988   3.692  10.609 -0.1755 -0.0633  0.9076
  843MOL0     O11202   5.985   3.554  10.619  0.1310  0.1647  0.7369
  843MOL0     C11203   6.090   3.488  10.691  0.3651 -0.4734  0.1593
  843MOL0     C11204   6.075   3.339  10.680  1.4923  0.4408 -0.3868
  843MOL0     C11205   5.949   3.293  10.754 -0.0478  0.6153 -0.0232
  843MOL0     C11206   5.956   3.276  10.908 -0.6447  0.5544  0.8831
  843MOL0     C11207   5.835   3.205  10.956 -0.2961  0.4281  0.9027
  843MOL0     C11208   5.722   3.180  10.985  0.6400 -0.9145  0.4136
  843MOL0     C11209   5.904   3.742  10.507  0.6389  0.3404  0.2913
  843MOL0     C11210   5.908   3.876  10.458 -1.5358  0.5016  0.8475
  843MOL0     H11211   5.788   4.373  10.352 -3.9071  0.2777 -4.8243
  843MOL0     H11212   5.862   4.557  10.211 -0.4135  0.5957  1.1884
  843MOL0     H11213   6.068   4.739  10.059  0.3916 -0.2853 -0.1584
  843MOL0     H11214   5.908   4.663  10.031  0.0510 -0.2859  0.8276
  843MOL0     H11215   6.113   4.684   9.802  1.1096  3.7086  1.5492
  843MOL0     H11216   5.990   4.806   9.833  2.5174  1.6577  2.1490
  843MOL0     H11217   5.862   4.671   9.691 -2.0880  0.9363  2.0563
  843MOL0     H11218   5.826   4.604   9.850 -3.6099  2.6006 -1.4339
  843MOL0     H11219   6.023   4.500   9.652  0.4573  0.3747  1.2752
  843MOL0     H11220   6.021   4.453   9.815 -2.3841 -0.0408  1.1910
  843MOL0     H11221   5.799   4.362   9.830  2.5263  1.8116  1.8064
  843MOL0     H11222   5.895   4.268   9.727 -1.6779 -0.2674  0.2608
  843MOL0     H11223   5.781   4.360   9.518  1.0071  1.6589 -1.4456
  843MOL0     H11224   5.694   4.469   9.614 -2.0572 -0.5456 -1.4108
  843MOL0     H11225   5.701   4.161   9.652  0.7353 -0.7090 -2.2294
  843MOL0     H11226   5.570   4.282   9.714  2.4931  2.2765  1.6183
  843MOL0     H11227   5.467   4.175   9.568  2.8426 -1.7300  2.5331
  843MOL0     H11228   5.586   4.178   9.439 -1.3388 -2.0698  0.2885
  843MOL0     H11229   5.656   4.460   9.380  0.0206 -1.6521 -1.3712
  843MOL0     H11230   5.573   4.714   9.337 -0.8903  1.6841 -0.7809
  843MOL0     H11231   5.403   4.751   9.348  0.4877  0.4057  1.1103
  843MOL0     H11232   5.556   4.602   9.135 -1.1853 -1.9999  0.8186
  843MOL0     H11233   5.507   4.782   9.121  1.2158 -0.4997  0.7906
  843MOL0     H11234   5.404   4.599   8.974 -0.9721  1.7655 -1.9366
  843MOL0     H11235   5.317   4.548   9.126 -0.4824 -1.2363 -1.0517
  843MOL0     H11236   5.185   4.757   9.131 -0.2679 -1.2163  0.7283
  843MOL0     H11237   5.187   4.694   8.970  1.2591 -0.5701  0.1190
  843MOL0     H11238   5.397   5.065   8.885  1.3112  0.7272 -0.1379
  843MOL0     H11239   5.280   5.254   8.774 -0.4643  2.2602  2.5855
  843MOL0     H11240   5.069   5.671   8.844  0.8880 -1.5859  0.0293
  843MOL0     H11241   4.962   5.861   8.696  0.7175  0.0086  0.5254
  843MOL0     H11242   4.886   5.766   8.266  0.2125  0.6554 -1.7303
  843MOL0     H11243   5.023   5.870   8.326  0.2674 -1.0788 -1.0872
  843MOL0     H11244   4.842   6.042   8.354 -2.4131 -0.8419  2.6113
  843MOL0     H11245   4.733   5.936   8.261  1.1198  1.0330 -1.5555
  843MOL0     H11246   4.859   5.956   8.069  0.0504 -1.3159  1.1274
  843MOL0     H11247   5.011   5.997   8.151  0.4418  2.0735 -1.9906
  843MOL0     H11248   4.907   6.213   8.228  0.7931  0.4658 -0.5844
  843MOL0     H11249   4.937   6.205   8.053 -0.8561  0.4962 -0.1727
  843MOL0     H11250   4.650   6.162   8.151 -1.2206 -0.1520 -0.7440
  843MOL0     H11251   4.712   6.167   7.986 -0.7743  3.6896 -0.2829
  843MOL0     H11252   4.780   6.409   8.023  0.6181  0.2969  2.4070
  843MOL0     H11253   4.735   6.381   8.191  0.3010  1.0765 -0.0357
  843MOL0     H11254   4.514   6.328   7.987 -0.3648  2.0712 -0.9365
  843MOL0     H11255   4.513   6.377   8.156 -1.3149 -0.5122 -1.6597
  843MOL0     H11256   4.609   6.598   8.087 -1.8502  2.0782 -0.7289
  843MOL0     H11257   4.443   6.563   8.033 -0.8592 -2.2234 -0.1713
  843MOL0     H11258   4.888   5.578   8.391 -0.8341 -0.4980  0.4535
  843MOL0     H11259   4.979   5.406   8.509  0.0158  3.0111 -3.8464
  843MOL0     H11260   4.911   5.066   8.917 -0.2153  0.7915  3.1202
  843MOL0     H11261   5.024   4.903   9.019 -0.2429 -1.0475  0.4465
  843MOL0     H11262   6.181   4.312  10.058 -0.1245  0.5889 -0.1138
  843MOL0     H11263   6.113   4.130  10.226 -2.0389 -0.7206 -1.9722
  843MOL0     H11264   6.162   3.973  10.670 -0.3392 -1.0052  0.9497
  843MOL0     H11265   6.145   3.735  10.751 -1.5911  0.2827  1.0505
  843MOL0     H11266   6.094   3.511  10.798  1.2217  0.3798 -0.0413
  843MOL0     H11267   6.179   3.529  10.642 -0.3106  0.1025 -0.6209
  843MOL0     H11268   6.065   3.310  10.575  0.3358  0.1165 -0.1939
  843MOL0     H11269   6.156   3.287  10.733  0.0137 -3.9724 -1.9765
  843MOL0     H11270   5.921   3.195  10.715  1.9589 -1.3672  3.1428
  843MOL0     H11271   5.871   3.360  10.716  0.1277  1.5468  1.2048
  843MOL0     H11272   6.045   3.214  10.921 -0.4784  0.7444  0.6556
  843MOL0     H11273   5.967   3.368  10.967  2.7268 -0.1823  1.6153
  843MOL0     H11274   5.625   3.152  11.022  0.9006 -0.2863  1.6172
  843MOL0     H11275   5.853   3.668  10.447 -0.1171  1.9505 -1.1353
  843MOL0     H11276   5.851   3.923  10.378  1.1687  4.5317  0.9592
  844MOL0     O11277   1.430  10.257  11.409  0.1588 -0.0489  0.0447
  844MOL0     C11278   1.345  10.285  11.324  0.1140  0.7116  0.6986
  844MOL0     O11279   1.375  10.319  11.198 -0.2616  0.0395  0.3596
  844MOL0     C11280   1.510  10.313  11.160  0.6926  0.2020 -0.3759
  844MOL0     C11281   1.610  10.396  11.206 -0.0266 -0.4147 -0.3185
  844MOL0     C11282   1.745  10.394  11.160  0.1063  0.2364  0.0931
  844MOL0     C11283   1.774  10.300  11.061 -0.4332 -0.0107 -0.1663
  844MOL0     O11284   1.902  10.292  11.016 -0.4329  0.1015  1.0267
  844MOL0     C11285   2.009  10.358  11.083 -0.4201 -0.8320  0.8765
  844MOL0     C11286   2.130  10.273  11.043 -0.5746 -0.1965 -0.5953
  844MOL0     C11287   2.271  10.332  11.086  0.1013 -0.1993  0.2803
  844MOL0     C11288   2.384  10.256  11.010  0.0369  0.9471  0.0197
  844MOL0     C11289   2.486  10.191  11.111  0.0645 -0.1344 -0.2764
  844MOL0     C11290   2.411  10.072  11.169  0.0305  0.1013  0.5265
  844MOL0     C11291   2.487   9.994  11.279 -0.0604  1.0418  0.1568
  844MOL0     C11292   2.471  10.073  11.409 -0.1395  0.0173 -0.8836
  844MOL0     N11293   2.337  10.124  11.441 -0.2677  0.0748  0.4198
  844MOL0     C11294   2.233  10.037  11.471  0.4825 -0.4174  0.1577
  844MOL0     C11295   2.124  10.119  11.469  0.4725 -0.5076 -0.2762
  844MOL0     C11296   1.986  10.073  11.485  0.7918 -0.0930 -0.4245
  844MOL0     C11297   1.893  10.087  11.361 -0.5077 -0.1845 -0.5430
  844MOL0     C11298   1.755  10.007  11.381 -0.2679  0.1101 -0.4411
  844MOL0     C11299   1.668  10.083  11.479 -0.0906  0.8517  0.3810
  844MOL0     O11300   1.690  10.013  11.602  0.7967 -0.5261 -0.3157
  844MOL0     C11301   1.669  10.077  11.724 -0.2565  0.3477 -0.9167
  844MOL0     C11302   1.605  10.195  11.754  0.6155  1.5214 -0.8059
  844MOL0     C11303   1.597  10.238  11.887  0.0446  0.0625 -0.2467
  844MOL0     C11304   1.640  10.152  12.000  0.3461  0.5997 -0.0378
  844MOL0     C11305   1.637  10.203  12.140  0.0303  0.5264 -0.7404
  844MOL0     O11306   1.700  10.128  12.238 -0.4842 -0.3911 -0.5838
  844MOL0     C11307   1.722  10.181  12.361 -0.3914  0.5209 -0.0814
  844MOL0     C11308   1.833  10.150  12.440  0.0373 -1.4712 -0.3655
  844MOL0     C11309   1.851  10.203  12.574 -0.3162  0.2486  0.2252
  844MOL0     C11310   1.756  10.276  12.639 -0.1356  0.2655 -0.1169
  844MOL0     O11311   1.781  10.303  12.766  0.3661  0.1718  0.5484
  844MOL0     C11312   1.712  10.417  12.820  0.8351  0.1304 -0.1151
  844MOL0     C11313   1.724  10.550  12.743  0.4210 -0.2085  0.2376
  844MOL0     C11314   1.725  10.667  12.844 -0.3543 -0.8420  0.8162
  844MOL0     C11315   1.719  10.800  12.769 -1.3571 -0.3986  0.6060
  844MOL0     C11316   1.699  10.921  12.860  0.2877  0.1974 -0.4205
  844MOL0     C11317   1.637  11.035  12.783 -0.4893 -0.1419  0.1580
  844MOL0     C11318   1.598  11.155  12.872 -0.4418 -0.2990 -0.3938
  844MOL0     C11319   1.593  11.278  12.792  0.5304 -0.4023 -0.1118
  844MOL0    Cl11320   1.439  11.262  12.687  0.3132 -0.1130 -0.0089
  844MOL0     C11321   1.636  10.305  12.566  0.3438  0.6957  1.1281
  844MOL0     C11322   1.623  10.255  12.433  0.2347  0.6530 -0.2518
  844MOL0     O11323   1.602  10.321  12.156 -0.1681 -0.2602 -0.1358
  844MOL0     C11324   1.694  10.031  11.968  0.4116  0.3397  0.5510
  844MOL0     C11325   1.708  10.002  11.830  0.1078  0.0556 -1.2102
  844MOL0     N11326   2.172  10.249  11.450 -0.1459 -0.1094 -0.1975
  844MOL0     N11327   2.297  10.248  11.441 -0.1825 -0.2427 -0.1468
  844MOL0     C11328   1.674  10.211  11.015  1.0387  0.0254 -0.8718
  844MOL0     C11329   1.543  10.225  11.060  0.2298  0.2828  0.4139
  844MOL0     C11330   1.197  10.289  11.352 -0.3697  0.0381 -0.6381
  844MOL0     C11331   1.167  10.281  11.491  0.6420  0.8238 -0.2237
  844MOL0     C11332   1.034  10.284  11.528 -0.2643 -0.3536 -0.2919
  844MOL0     C11333   0.928  10.306  11.424 -0.3096  0.0019  0.1853
  844MOL0     O11334   0.787  10.296  11.456  0.2093  0.2759 -0.4349
  844MOL0     C11335   0.749  10.312  11.592 -0.4281  1.6058 -1.0136
  844MOL0     C11336   0.594  10.339  11.592 -0.2112  0.5945 -0.5692
  844MOL0     C11337   0.554  10.359  11.741  0.4276 -0.3939 -0.6518
  844MOL0     C11338   0.402  10.388  11.744 -0.6658  0.2767 -0.5093
  844MOL0     C11339   0.358  10.474  11.861  0.6708  0.5932 -0.8667
  844MOL0     C11340   0.308  10.539  11.957 -0.3015  0.3242  0.2185
  844MOL0     C11341   0.972  10.317  11.294  0.2874  0.6331  0.0535
  844MOL0     C11342   1.101  10.302  11.255 -0.0294 -0.5565  0.3816
  844MOL0     H11343   1.576  10.462  11.285 -1.0167 -0.7416 -0.4652
  844MOL0     H11344   1.822  10.463  11.194 -2.5330  3.7421 -0.5169
  844MOL0     H11345   2.004  10.357  11.193  1.2757 -1.0406  0.9781
  844MOL0     H11346   2.015  10.459  11.041 -3.0115 -1.1111 -0.3655
  844MOL0     H11347   2.124  10.254  10.935 -3.6192 -0.5803 -0.4497
  844MOL0     H11348   2.118  10.174  11.088  1.4337 -2.5124 -4.6169
  844MOL0     H11349   2.280  10.318  11.194  0.8776  0.9753  0.3973
  844MOL0     H11350   2.271  10.441  11.076  0.3514 -0.1870  0.4217
  844MOL0     H11351   2.347  10.171  10.952  0.1363  0.9812 -0.0945
  844MOL0     H11352   2.426  10.323  10.935 -2.3850  0.3741 -1.9751
  844MOL0     H11353   2.498  10.263  11.193  1.1687 -2.9289  2.2156
  844MOL0     H11354   2.572  10.161  11.051 -0.5627 -1.4419 -0.5549
  844MOL0     H11355   2.426  10.006  11.083  2.0191 -0.0811  0.9624
  844MOL0     H11356   2.304  10.079  11.192 -1.1233 -1.1509 -3.6117
  844MOL0     H11357   2.454   9.892  11.295  0.8515  0.7048 -0.0123
  844MOL0     H11358   2.592   9.989  11.247  0.3963  1.0253  1.5664
  844MOL0     H11359   2.538  10.159  11.410  0.2512 -0.1939  2.4889
  844MOL0     H11360   2.502  10.004  11.488 -0.1851  1.8969  0.8263
  844MOL0     H11361   2.236   9.929  11.481  2.0638 -0.3020  1.2500
  844MOL0     H11362   1.943  10.142  11.557 -1.8099 -0.0451 -1.8981
  844MOL0     H11363   1.999   9.967  11.510  1.3649 -0.4702 -2.1838
  844MOL0     H11364   1.939  10.040  11.274 -0.1980 -0.7081 -0.0984
  844MOL0     H11365   1.877  10.195  11.351 -0.1355 -0.0112  0.5642
  844MOL0     H11366   1.710  10.003  11.282  3.7615  1.6101 -2.5473
  844MOL0     H11367   1.766   9.902  11.408 -1.3496 -0.8027 -3.1970
  844MOL0     H11368   1.564  10.061  11.454  0.5780  0.7018 -2.5973
  844MOL0     H11369   1.676  10.192  11.486  0.0160  0.9315 -0.7701
  844MOL0     H11370   1.561  10.255  11.675 -4.5550 -0.1196  0.4853
  844MOL0     H11371   1.555  10.336  11.905  3.7878  2.0287 -1.2292
  844MOL0     H11372   1.909  10.091  12.390 -1.3250 -3.5989 -0.0700
  844MOL0     H11373   1.936  10.173  12.634 -0.6764 -1.1619  0.0647
  844MOL0     H11374   1.760  10.428  12.917 -0.8456 -3.6406  1.3374
  844MOL0     H11375   1.608  10.392  12.844  1.9427 -1.8338  3.1220
  844MOL0     H11376   1.634  10.558  12.681  1.6702  0.8129 -1.5399
  844MOL0     H11377   1.816  10.551  12.683  0.1265  0.8625 -0.2252
  844MOL0     H11378   1.814  10.665  12.908  0.3999 -0.9953 -0.2083
  844MOL0     H11379   1.639  10.662  12.912 -1.5318  3.8896  0.0315
  844MOL0     H11380   1.806  10.815  12.704 -2.2047  0.8764 -0.2688
  844MOL0     H11381   1.630  10.792  12.707 -1.1229  2.8537 -0.3297
  844MOL0     H11382   1.797  10.942  12.905  0.7490 -3.4026  0.6297
  844MOL0     H11383   1.636  10.895  12.945  0.0674  0.1948 -0.5842
  844MOL0     H11384   1.546  10.995  12.736 -0.8777 -0.6774  1.3305
  844MOL0     H11385   1.715  11.071  12.715 -0.4041  0.9513  0.8135
  844MOL0     H11386   1.504  11.140  12.926 -0.5945 -1.6768 -0.9972
  844MOL0     H11387   1.677  11.174  12.946  1.1304 -0.1270 -2.0352
  844MOL0     H11388   1.682  11.286  12.729  2.2772 -2.8892  1.8647
  844MOL0     H11389   1.579  11.369  12.851 -0.8758 -1.8406  1.9017
  844MOL0     H11390   1.555  10.368  12.601  1.2306  2.8789 -0.5209
  844MOL0     H11391   1.528  10.281  12.388  1.1820  2.7762 -1.1652
  844MOL0     H11392   1.719   9.960  12.046  0.7283 -1.6508 -1.2467
  844MOL0     H11393   1.753   9.905  11.808  1.5634  0.1604  1.0152
  844MOL0     H11394   1.692  10.133  10.942 -1.8206  0.0553 -1.7637
  844MOL0     H11395   1.468  10.153  11.026  2.1908 -2.2035  1.0656
  844MOL0     H11396   1.245  10.268  11.565  1.6381 -1.8715 -1.6123
  844MOL0     H11397   1.010  10.268  11.633  2.5622 -0.0836  0.4831
  844MOL0     H11398   0.809  10.395  11.630  2.4418  0.6985 -3.2139
  844MOL0     H11399   0.770  10.232  11.664 -1.5375  3.1418  1.1247
  844MOL0     H11400   0.561  10.424  11.531  1.5371  1.7303 -0.0184
  844MOL0     H11401   0.543  10.259  11.537 -3.9277  2.1215  0.3385
  844MOL0     H11402   0.600  10.448  11.786 -3.1859  1.8018 -0.9270
  844MOL0     H11403   0.571  10.272  11.804  1.0760 -0.3138 -0.7090
  844MOL0     H11404   0.360  10.440  11.658 -1.7616 -2.6334 -1.9023
  844MOL0     H11405   0.361  10.287  11.759  4.9451 -2.1559  1.3007
  844MOL0     H11406   0.267  10.593  12.040  0.0603  3.3770 -1.4481
  844MOL0     H11407   0.895  10.324  11.218  1.7227  1.8955 -1.3327
  844MOL0     H11408   1.116  10.300  11.148  2.8800  1.3977  0.6300
  845MOL0     O11409   1.454  10.537   6.713 -0.1571 -0.2548  0.3180
  845MOL0     C11410   1.352  10.492   6.767 -1.1835  1.6227 -0.4454
  845MOL0     O11411   1.360  10.378   6.838 -0.3457 -0.2004 -0.5868
  845MOL0     C11412   1.479  10.343   6.898  0.3254  0.1535  0.0781
  845MOL0     C11413   1.499  10.211   6.928  0.3432 -0.0187  0.0898
  845MOL0     C11414   1.619  10.162   6.976 -0.2373 -0.6972 -0.1484
  845MOL0     C11415   1.723  10.256   7.010  0.6448 -0.2139  0.2446
  845MOL0     O11416   1.849  10.224   7.041  0.8504 -0.0719 -0.7234
  845MOL0     C11417   1.896  10.095   6.996  0.2253  0.5018  0.2162
  845MOL0     C11418   2.052  10.096   7.015 -0.4533 -0.7917  0.4761
  845MOL0     C11419   2.144   9.988   6.955  0.4672  0.0542 -0.2969
  845MOL0     C11420   2.112   9.966   6.804 -0.7038 -0.2819  1.1419
  845MOL0     C11421   2.205   9.867   6.737 -0.4225  0.0599  0.2960
  845MOL0     C11422   2.335   9.926   6.689 -0.0418 -0.8354 -0.1756
  845MOL0     C11423   2.427   9.823   6.619  0.9044  1.0838 -1.1828
  845MOL0     C11424   2.498   9.720   6.711  0.2848 -0.2513 -0.5615
  845MOL0     N11425   2.595   9.798   6.794  0.0052  0.0703 -0.0192
  845MOL0     C11426   2.605   9.778   6.924 -0.8598  0.7029 -0.4451
  845MOL0     C11427   2.727   9.814   6.955 -1.1994 -0.5845 -0.1270
  845MOL0     C11428   2.787   9.824   7.087 -0.0024  0.0298 -0.4320
  845MOL0     C11429   2.772   9.961   7.144  0.3979  0.1887  0.2960
  845MOL0     C11430   2.852   9.990   7.265  0.5086 -0.2557 -0.4429
  845MOL0     C11431   2.756  10.034   7.378  0.2217  0.3503 -0.5877
  845MOL0     O11432   2.820  10.040   7.505 -0.3411 -0.4331  0.1250
  845MOL0     C11433   2.877   9.918   7.544 -0.5471  0.0975 -0.2439
  845MOL0     C11434   3.016   9.910   7.549 -0.2820 -0.9785 -0.5349
  845MOL0     C11435   3.069   9.781   7.564  0.1296  0.5869 -0.1982
  845MOL0     C11436   2.998   9.659   7.578 -0.7387 -0.5039 -0.2540
  845MOL0     C11437   3.062   9.533   7.606 -0.2416  0.1724  0.4911
  845MOL0     O11438   2.974   9.422   7.587 -0.1337  0.5750  0.5534
  845MOL0     C11439   3.030   9.299   7.611 -0.3732  0.5883  0.0006
  845MOL0     C11440   3.122   9.244   7.520 -0.5226 -1.1966 -0.3685
  845MOL0     C11441   3.187   9.128   7.556  0.0752  0.4479  0.8523
  845MOL0     C11442   3.162   9.064   7.674 -0.4100 -0.1303  0.4115
  845MOL0     O11443   3.236   8.954   7.708  0.1353 -0.6826 -0.2627
  845MOL0     C11444   3.291   8.970   7.833 -0.7157  0.2310 -1.2848
  845MOL0     C11445   3.388   8.859   7.856 -0.2020 -0.3022  0.0599
  845MOL0     C11446   3.515   8.867   7.762  0.0274  0.3986 -0.0422
  845MOL0     C11447   3.641   8.801   7.830 -0.2336  0.4653 -1.1074
  845MOL0     C11448   3.629   8.650   7.826 -0.4518 -0.5219  0.0166
  845MOL0     C11449   3.754   8.582   7.878 -0.1770  1.0696  0.2877
  845MOL0     C11450   3.889   8.628   7.828 -0.2765 -0.1398  0.0794
  845MOL0     C11451   4.004   8.548   7.879  0.2342  0.8942 -1.0395
  845MOL0    Cl11452   4.026   8.568   8.060  0.0253 -0.0765  0.2729
  845MOL0     C11453   3.053   9.110   7.754 -0.6288 -0.4139  0.3251
  845MOL0     C11454   2.999   9.235   7.735  0.9223  0.5088  0.4828
  845MOL0     O11455   3.176   9.534   7.655  0.4897  0.0020 -0.7995
  845MOL0     C11456   2.858   9.675   7.576 -0.5512  0.3132  1.0584
  845MOL0     C11457   2.803   9.802   7.566  0.1129 -0.3694  0.0945
  845MOL0     N11458   2.794   9.845   6.834 -0.3438  0.0060  0.3356
  845MOL0     N11459   2.712   9.829   6.736 -0.3041 -0.5580 -0.1936
  845MOL0     C11460   1.702  10.392   6.999  0.0749 -0.1181 -0.0099
  845MOL0     C11461   1.577  10.437   6.950  0.1085  0.4072 -0.1235
  845MOL0     C11462   1.221  10.558   6.781  0.9151 -0.1818 -0.1047
  845MOL0     C11463   1.198  10.684   6.737  0.0810 -1.1760 -1.0607
  845MOL0     C11464   1.072  10.741   6.740 -0.7460  0.7984 -0.3892
  845MOL0     C11465   0.959  10.665   6.783  0.3119 -1.1343 -0.6567
  845MOL0     O11466   0.836  10.710   6.803  0.5233  0.4643 -0.7637
  845MOL0     C11467   0.816  10.847   6.770  0.0751  0.2475 -0.0818
  845MOL0     C11468   0.671  10.904   6.792  0.5599 -0.5758  0.9446
  845MOL0     C11469   0.554  10.834   6.720  0.8699  0.0018  0.2665
  845MOL0     C11470   0.415  10.888   6.762  0.4664  0.4789 -0.0903
  845MOL0     C11471   0.311  10.784   6.745 -0.8570  0.5998 -0.0089
  845MOL0     C11472   0.243  10.685   6.730  0.5615 -0.3503 -0.6103
  845MOL0     C11473   0.981  10.530   6.795 -0.3070  0.5426 -0.3152
  845MOL0     C11474   1.109  10.476   6.803  0.8782 -0.0663  1.0430
  845MOL0     H11475   1.421  10.142   6.899  1.2289 -0.7541 -0.5775
  845MOL0     H11476   1.628  10.054   6.978  0.0300 -0.6663  0.5796
  845MOL0     H11477   1.857  10.086   6.894 -0.7651  0.3579  0.6020
  845MOL0     H11478   1.867  10.010   7.059 -0.5278  2.3980  2.5390
  845MOL0     H11479   2.071  10.096   7.122 -1.5114 -4.8626  0.8329
  845MOL0     H11480   2.082  10.191   6.971  1.0490 -0.7616  1.5061
  845MOL0     H11481   2.147   9.895   7.012  0.4218  0.4993  0.4351
  845MOL0     H11482   2.245  10.029   6.958  0.1740  0.8373 -0.8867
  845MOL0     H11483   2.011   9.926   6.790  0.4299 -2.7648 -0.7176
  845MOL0     H11484   2.131  10.057   6.747 -0.7063 -0.9334  0.0720
  845MOL0     H11485   2.153   9.811   6.659  2.4704 -1.4284 -0.7035
  845MOL0     H11486   2.223   9.788   6.811  3.1348  1.7423  1.4596
  845MOL0     H11487   2.385   9.960   6.781  0.8150  2.0063 -1.5735
  845MOL0     H11488   2.327  10.018   6.630  0.7907  0.1006  1.0981
  845MOL0     H11489   2.368   9.760   6.551 -1.2360  0.8450  0.7588
  845MOL0     H11490   2.506   9.861   6.555  1.2082 -2.9952 -3.5666
  845MOL0     H11491   2.551   9.653   6.644 -1.4998  2.1736 -4.7770
  845MOL0     H11492   2.427   9.667   6.776  0.3466  0.2938 -0.0416
  845MOL0     H11493   2.535   9.734   6.994 -1.5222  2.0131 -0.2396
  845MOL0     H11494   2.894   9.808   7.073  0.0396  0.4763 -0.6562
  845MOL0     H11495   2.753   9.741   7.148 -1.8450  0.0015 -1.4246
  845MOL0     H11496   2.668   9.994   7.155  1.4204  3.3534  1.6320
  845MOL0     H11497   2.803  10.023   7.060  2.8002  1.8637  2.2468
  845MOL0     H11498   2.904   9.896   7.281 -2.4941 -2.4273 -2.3709
  845MOL0     H11499   2.916  10.079   7.256 -0.9079  0.7496 -0.9422
  845MOL0     H11500   2.675   9.961   7.384  0.8709 -0.2867  1.2716
  845MOL0     H11501   2.709  10.126   7.342  1.3327  0.9098 -0.6459
  845MOL0     H11502   3.072  10.003   7.552 -0.4581 -0.8770 -0.2990
  845MOL0     H11503   3.177   9.769   7.575  0.6744 -1.4343 -5.1257
  845MOL0     H11504   3.127   9.298   7.427 -0.1940 -1.3468 -0.4415
  845MOL0     H11505   3.255   9.081   7.486  1.2808  0.9783  1.6477
  845MOL0     H11506   3.225   8.967   7.920 -1.5452  0.9750 -1.8654
  845MOL0     H11507   3.348   9.063   7.845  1.7348 -1.3747  0.3686
  845MOL0     H11508   3.325   8.769   7.846  0.3642 -0.6498 -0.4461
  845MOL0     H11509   3.420   8.860   7.961  1.2511 -3.2999 -0.2287
  845MOL0     H11510   3.550   8.971   7.761  0.5184  0.2891  1.7050
  845MOL0     H11511   3.491   8.832   7.661 -1.9489 -1.0637  0.8805
  845MOL0     H11512   3.727   8.836   7.772  1.2480  1.9829  1.7807
  845MOL0     H11513   3.655   8.839   7.931 -1.8785 -0.9371 -0.2952
  845MOL0     H11514   3.603   8.620   7.724 -3.1032 -0.5384  0.6283
  845MOL0     H11515   3.543   8.622   7.888 -2.4817  0.7675 -2.0543
  845MOL0     H11516   3.738   8.474   7.885  3.1778  0.3745 -1.1947
  845MOL0     H11517   3.741   8.596   7.986 -0.2416  0.5922  0.3443
  845MOL0     H11518   3.893   8.628   7.719  0.3559 -1.5583  0.0768
  845MOL0     H11519   3.901   8.729   7.867 -2.3716  0.2258 -0.1354
  845MOL0     H11520   4.092   8.587   7.827 -0.5601  3.5586 -0.5534
  845MOL0     H11521   4.000   8.441   7.861  2.4104  0.1432  2.0826
  845MOL0     H11522   3.010   9.043   7.828  0.3957 -1.2124  0.2176
  845MOL0     H11523   2.915   9.270   7.794 -0.3368  0.5602 -1.2551
  845MOL0     H11524   2.793   9.588   7.575 -0.1488 -0.1688 -3.4693
  845MOL0     H11525   2.695   9.813   7.568  0.3064  2.5281 -0.9713
  845MOL0     H11526   1.781  10.463   7.022  0.0564 -0.0111 -0.2755
  845MOL0     H11527   1.555  10.542   6.933  3.0753  1.2472  0.5403
  845MOL0     H11528   1.283  10.745   6.709 -0.0658 -0.2637  0.3693
  845MOL0     H11529   1.075  10.846   6.712 -0.5366  0.6445 -0.9652
  845MOL0     H11530   0.851  10.857   6.667 -0.2253 -2.9902 -0.6013
  845MOL0     H11531   0.879  10.918   6.825  0.1993  2.1817 -2.5453
  845MOL0     H11532   0.641  10.917   6.896 -1.3815  1.4575  0.2261
  845MOL0     H11533   0.682  11.008   6.758  2.4021 -0.3169  2.2268
  845MOL0     H11534   0.564  10.727   6.740  1.3929  0.5235  3.3459
  845MOL0     H11535   0.569  10.857   6.614  0.9037  0.1352  0.2992
  845MOL0     H11536   0.418  10.937   6.860 -2.2816  0.6495 -0.0104
  845MOL0     H11537   0.401  10.973   6.695  0.8964 -0.3040 -1.2015
  845MOL0     H11538   0.194  10.590   6.735  2.8438 -1.5618  0.2230
  845MOL0     H11539   0.905  10.452   6.796 -0.0030  0.2316  0.8918
  845MOL0     H11540   1.131  10.370   6.816 -3.2570 -1.4756 -1.3234
  846MOL0     O11541   3.140   0.252   6.504 -0.2569  0.1471 -0.3544
  846MOL0     C11542   3.057   0.204   6.587 -0.9685  0.6829  0.6954
  846MOL0     O11543   3.066   0.202   6.722 -0.3489 -0.1594  0.4591
  846MOL0     C11544   3.159   0.284   6.781 -0.4248 -0.0495 -0.4169
  846MOL0     C11545   3.140   0.419   6.789  0.3928  1.3269 -0.8047
  846MOL0     C11546   3.227   0.497   6.873 -0.5426  0.6485 -0.1898
  846MOL0     C11547   3.330   0.437   6.938 -0.8600  0.4483 -0.6580
  846MOL0     O11548   3.428   0.517   6.998  0.1718  0.0826  0.2051
  846MOL0     C11549   3.434   0.660   6.975 -0.5826  0.3734  0.0190
  846MOL0     C11550   3.576   0.710   7.022 -0.3848  0.1193 -0.8275
  846MOL0     C11551   3.602   0.858   7.012  0.6320 -0.5216 -0.9092
  846MOL0     C11552   3.748   0.901   7.050  0.3584  0.6335  0.3861
  846MOL0     C11553   3.756   1.060   7.065 -0.7220 -0.5901  0.2179
  846MOL0     C11554   3.885   1.128   7.125  0.4618  0.5523  0.1067
  846MOL0     C11555   3.982   1.138   7.010 -0.5019  0.2622  0.6816
  846MOL0     C11556   4.088   1.242   7.044  0.7162  0.2915  0.5653
  846MOL0     N11557   4.133   1.239   7.182 -0.6570  0.8776  0.1660
  846MOL0     C11558   4.200   1.129   7.232  1.1385  0.5039 -0.1736
  846MOL0     C11559   4.200   1.153   7.364 -0.6139 -0.3881 -0.7527
  846MOL0     C11560   4.250   1.053   7.473  0.5072 -0.4895  0.9835
  846MOL0     C11561   4.136   0.973   7.529  0.0465  0.0846  0.3272
  846MOL0     C11562   4.084   0.855   7.437 -0.8738  0.5694  1.4224
  846MOL0     C11563   3.994   0.759   7.526 -0.1903  0.1631  0.5188
  846MOL0     O11564   4.085   0.675   7.607  0.2071  0.5399  0.1007
  846MOL0     C11565   4.021   0.578   7.684  0.3245  0.4549  0.6513
  846MOL0     C11566   3.881   0.565   7.701  0.2259 -0.2541  0.0007
  846MOL0     C11567   3.824   0.447   7.758 -0.3638 -0.8697 -0.6839
  846MOL0     C11568   3.909   0.349   7.810  0.4612  0.6860  0.1929
  846MOL0     C11569   3.846   0.230   7.871 -0.4791  0.2593  0.3798
  846MOL0     O11570   3.919   0.177   7.973  0.6378  0.7214  0.0752
  846MOL0     C11571   3.853   0.067   8.034  0.1480 -0.7655 -1.2232
  846MOL0     C11572   3.904  -0.062   8.025  0.4407  0.6850 -0.2454
  846MOL0     C11573   3.834  -0.174   8.093 -0.2734  0.2163  0.2937
  846MOL0     C11574   3.718  -0.152   8.165  0.9840  0.1876 -0.3659
  846MOL0     O11575   3.660  -0.265   8.218 -0.7336  0.1851  0.0718
  846MOL0     C11576   3.532  -0.261   8.285 -0.2986  0.2924  0.5301
  846MOL0     C11577   3.419  -0.235   8.187  1.2125 -0.7006 -0.2236
  846MOL0     C11578   3.300  -0.207   8.268  0.9287 -0.2427 -0.9545
  846MOL0     C11579   3.172  -0.197   8.196 -0.2054 -0.1658  0.4700
  846MOL0     C11580   3.064  -0.153   8.301  0.1174 -0.4922  0.3277
  846MOL0     C11581   2.918  -0.200   8.260 -0.3299  0.0298 -0.2201
  846MOL0     C11582   2.872  -0.131   8.130  0.1036 -0.5199 -0.0748
  846MOL0     C11583   2.740  -0.191   8.084  0.9884  0.1007 -0.5529
  846MOL0    Cl11584   2.618  -0.135   8.210 -0.1789 -0.3996 -0.0516
  846MOL0     C11585   3.669  -0.022   8.185  0.4006 -0.0556  0.0031
  846MOL0     C11586   3.734   0.085   8.120 -0.1256 -0.1106  0.4402
  846MOL0     O11587   3.747   0.181   7.818  0.2903 -0.6912  0.3820
  846MOL0     C11588   4.048   0.371   7.803  0.6374 -0.1262 -0.3838
  846MOL0     C11589   4.099   0.482   7.744  0.7226  0.2219 -0.1579
  846MOL0     N11590   4.156   1.283   7.385 -0.4075  0.8376  0.8426
  846MOL0     N11591   4.117   1.334   7.278 -0.4240 -0.1838  0.4142
  846MOL0     C11592   3.355   0.305   6.929  0.0014 -0.5450  1.3135
  846MOL0     C11593   3.269   0.229   6.854  0.6790  0.8330 -0.0320
  846MOL0     C11594   2.934   0.142   6.538  0.0423 -0.2621 -0.3086
  846MOL0     C11595   2.878   0.186   6.420 -0.2131 -0.0556  0.0485
  846MOL0     C11596   2.748   0.139   6.378  0.4478 -1.2431  0.2268
  846MOL0     C11597   2.693   0.031   6.440 -1.5630  0.5449 -0.4719
  846MOL0     O11598   2.580  -0.028   6.393  0.3008 -0.1973 -0.3398
  846MOL0     C11599   2.556  -0.027   6.255  0.1214  0.6628 -0.4405
  846MOL0     C11600   2.480  -0.150   6.224  1.0155  0.0803 -0.0524
  846MOL0     C11601   2.343  -0.122   6.154 -0.2524  0.1885  0.0602
  846MOL0     C11602   2.241  -0.065   6.250  0.2456 -0.5536  0.0730
  846MOL0     C11603   2.100  -0.096   6.206 -0.3701 -0.6266 -0.6930
  846MOL0     C11604   1.988  -0.123   6.173 -0.4548 -0.2161 -0.5792
  846MOL0     C11605   2.751  -0.013   6.556  0.3796  0.4701  0.0233
  846MOL0     C11606   2.872   0.037   6.604 -0.3025 -0.0001 -0.5029
  846MOL0     H11607   3.047   0.454   6.745 -0.7794  0.2733  0.7085
  846MOL0     H11608   3.200   0.602   6.883 -1.1622  0.6634 -1.6880
  846MOL0     H11609   3.368   0.719   7.040 -0.2508 -1.8800  2.6342
  846MOL0     H11610   3.417   0.680   6.869 -1.3707 -2.2255 -0.4135
  846MOL0     H11611   3.652   0.668   6.954 -1.6875  1.2751 -3.1169
  846MOL0     H11612   3.595   0.687   7.127 -0.9138 -1.2142 -1.0022
  846MOL0     H11613   3.539   0.905   7.088  0.9466 -0.6778 -0.5483
  846MOL0     H11614   3.582   0.897   6.912  1.6036 -0.0666 -0.9373
  846MOL0     H11615   3.779   0.852   7.143 -0.1000 -1.1463 -0.3420
  846MOL0     H11616   3.820   0.860   6.978  1.5288  0.8104  1.4224
  846MOL0     H11617   3.678   1.076   7.140 -1.8260 -1.9061 -0.5908
  846MOL0     H11618   3.729   1.107   6.969  0.6821 -1.7576 -0.7910
  846MOL0     H11619   3.928   1.061   7.200 -1.1027 -0.6717 -0.0476
  846MOL0     H11620   3.863   1.230   7.157 -1.9292  0.1886 -0.2116
  846MOL0     H11621   4.026   1.041   6.986 -0.7504  0.2077  0.4500
  846MOL0     H11622   3.930   1.154   6.915  1.1618 -0.7452 -0.4447
  846MOL0     H11623   4.053   1.343   7.022  2.3492  0.9489  0.8980
  846MOL0     H11624   4.174   1.225   6.979  0.6116 -0.0648  0.5201
  846MOL0     H11625   4.239   1.039   7.185  2.1487  0.7418  0.1823
  846MOL0     H11626   4.296   1.116   7.551 -1.7655  0.3663  1.7305
  846MOL0     H11627   4.319   0.979   7.432 -1.3683 -2.4365  1.1890
  846MOL0     H11628   4.049   1.034   7.556 -1.5667 -2.3956  1.1329
  846MOL0     H11629   4.174   0.921   7.617  1.8784 -1.0343 -1.0488
  846MOL0     H11630   4.026   0.898   7.355  0.1467 -0.9469 -0.1697
  846MOL0     H11631   4.165   0.798   7.391 -1.9306  0.8304 -0.8985
  846MOL0     H11632   3.935   0.688   7.466  1.2178 -2.6892  2.2930
  846MOL0     H11633   3.926   0.819   7.587  0.3125 -0.2636  1.5188
  846MOL0     H11634   3.815   0.640   7.658  2.1433  3.0708  2.4785
  846MOL0     H11635   3.720   0.449   7.787  0.5342  0.6872  2.9718
  846MOL0     H11636   3.997  -0.076   7.970  1.0991 -1.5070  1.2906
  846MOL0     H11637   3.872  -0.276   8.090  0.1764  0.4123 -1.6197
  846MOL0     H11638   3.534  -0.188   8.367  0.1255  0.6775  0.1859
  846MOL0     H11639   3.507  -0.351   8.342  1.9914  0.3977  1.8210
  846MOL0     H11640   3.395  -0.317   8.119 -1.2258  1.0114 -1.5897
  846MOL0     H11641   3.442  -0.162   8.109 -3.8065  0.2919 -1.1425
  846MOL0     H11642   3.307  -0.107   8.313 -1.5652 -1.0154  1.3595
  846MOL0     H11643   3.286  -0.279   8.348  1.5265  0.9340  0.2486
  846MOL0     H11644   3.175  -0.118   8.121 -2.2924 -0.1927  0.3121
  846MOL0     H11645   3.144  -0.293   8.151  2.3391 -1.9073  2.3576
  846MOL0     H11646   3.063  -0.046   8.325 -0.1905 -0.8807  2.2440
  846MOL0     H11647   3.083  -0.190   8.403 -0.1331  1.4485  1.1259
  846MOL0     H11648   2.848  -0.160   8.334  1.6735  0.4738  1.5368
  846MOL0     H11649   2.911  -0.308   8.250  0.6657  0.0836 -1.9151
  846MOL0     H11650   2.862  -0.022   8.131  1.8605 -0.2836 -1.9001
  846MOL0     H11651   2.932  -0.151   8.041 -2.1857  0.6262 -1.9855
  846MOL0     H11652   2.743  -0.300   8.079 -0.9791  0.0725 -3.7747
  846MOL0     H11653   2.728  -0.152   7.983  3.5416  4.1447  0.4865
  846MOL0     H11654   3.575  -0.007   8.236 -0.5772  0.2139 -1.8123
  846MOL0     H11655   3.692   0.184   8.124 -0.1603 -0.1004 -0.1382
  846MOL0     H11656   4.125   0.303   7.837  1.3511  1.9182  2.4205
  846MOL0     H11657   4.206   0.495   7.735  1.0325 -1.8352  0.0292
  846MOL0     H11658   3.444   0.253   6.964  0.2862 -2.3305 -1.6996
  846MOL0     H11659   3.281   0.123   6.833 -0.9298  0.5897  0.1669
  846MOL0     H11660   2.925   0.255   6.351  0.0743 -3.5458 -3.6036
  846MOL0     H11661   2.709   0.181   6.286 -1.6658 -0.5188  1.3881
  846MOL0     H11662   2.653  -0.038   6.206  1.3814 -2.2478  2.3169
  846MOL0     H11663   2.506   0.063   6.218  1.6942  1.0464 -1.7754
  846MOL0     H11664   2.546  -0.221   6.174  1.0362  0.0245  0.0533
  846MOL0     H11665   2.464  -0.201   6.319  0.4929 -0.2103 -0.2898
  846MOL0     H11666   2.295  -0.216   6.123 -0.3565  0.1660  0.2846
  846MOL0     H11667   2.363  -0.054   6.072 -1.4216  1.8489  1.0991
  846MOL0     H11668   2.262  -0.085   6.355 -1.0097 -0.2254  0.4050
  846MOL0     H11669   2.253   0.043   6.248  0.8343 -0.6205 -0.5971
  846MOL0     H11670   1.889  -0.147   6.141 -2.0554  3.7422  0.8889
  846MOL0     H11671   2.713  -0.095   6.616  0.9926  1.1704  1.4038
  846MOL0     H11672   2.919   0.009   6.697  0.8621 -0.1882 -1.1336
  847MOL0     O11673   6.010   1.775  10.017  0.0961  0.2069 -0.7427
  847MOL0     C11674   6.092   1.689  10.056  0.3211  0.3707 -0.1697
  847MOL0     O11675   6.228   1.702  10.058  0.0377 -0.3899  1.3169
  847MOL0     C11676   6.300   1.820  10.003  0.6881  1.4552 -0.7801
  847MOL0     C11677   6.435   1.796   9.976 -0.2861 -0.3734 -0.4426
  847MOL0     C11678   6.520   1.902   9.933  0.3728  1.3842 -0.0984
  847MOL0     C11679   6.470   2.034   9.929  0.5785  0.5858 -0.1052
  847MOL0     O11680   6.548   2.146   9.905  0.7859  0.7108  0.1551
  847MOL0     C11681   6.678   2.146   9.948 -1.1613  0.3784 -0.3637
  847MOL0     C11682   6.724   2.287   9.946 -1.0709 -1.1169  0.2912
  847MOL0     C11683   6.855   2.314  10.015 -0.0985 -0.1491  0.3294
  847MOL0     C11684   6.895   2.456   9.997  0.2496 -0.3066 -0.1729
  847MOL0     C11685   6.975   2.493  10.125 -0.5157  0.6603 -0.6811
  847MOL0     C11686   7.027   2.640  10.120  0.7836  0.4627  0.0490
  847MOL0     C11687   7.094   2.674  10.245 -0.0480 -0.5918 -0.5791
  847MOL0     C11688   7.238   2.619  10.276 -0.3468 -0.0624  0.3682
  847MOL0     N11689   7.340   2.685  10.204  0.2097 -0.9213  0.4351
  847MOL0     C11690   7.329   2.783  10.111  0.5241  0.4036 -0.3532
  847MOL0     C11691   7.456   2.830  10.092  0.6353 -0.1720 -0.2239
  847MOL0     C11692   7.484   2.910   9.972 -0.4192 -1.2605  0.5763
  847MOL0     C11693   7.433   3.060   9.987 -0.1031 -0.0374  1.1194
  847MOL0     C11694   7.528   3.147   9.906  0.1032  0.8543 -0.2475
  847MOL0     C11695   7.561   3.104   9.759 -0.7108 -0.0936 -0.5892
  847MOL0     O11696   7.437   3.073   9.681  0.1523  0.2896  0.2800
  847MOL0     C11697   7.379   3.170   9.606 -0.2141 -0.0408  0.2270
  847MOL0     C11698   7.413   3.308   9.607  0.2185  0.7369 -0.0490
  847MOL0     C11699   7.353   3.401   9.524  0.0371 -0.5913  0.1809
  847MOL0     C11700   7.248   3.368   9.441 -0.7762 -0.0339  0.4832
  847MOL0     C11701   7.181   3.455   9.344 -0.2367 -0.4355  0.1137
  847MOL0     O11702   7.065   3.409   9.271  0.1457 -0.2584  0.1876
  847MOL0     C11703   7.001   3.506   9.193  0.5347  0.2824 -0.5444
  847MOL0     C11704   6.984   3.479   9.056  0.1487 -1.2454 -0.8818
  847MOL0     C11705   6.928   3.575   8.975 -0.2348  0.0947 -0.1223
  847MOL0     C11706   6.875   3.690   9.034  0.2530 -0.8419  0.1831
  847MOL0     O11707   6.824   3.785   8.941 -0.1534  0.4689 -0.1685
  847MOL0     C11708   6.731   3.881   8.987 -0.0775 -0.4602  0.2301
  847MOL0     C11709   6.661   3.950   8.870  0.2420  0.1015  0.1039
  847MOL0     C11710   6.752   4.010   8.759 -0.7905 -0.7611 -0.4216
  847MOL0     C11711   6.810   4.143   8.806  0.3098  0.5541 -0.5472
  847MOL0     C11712   6.921   4.174   8.718 -0.3369 -0.4786  0.6341
  847MOL0     C11713   7.035   4.259   8.795 -0.0276 -0.1972 -0.0804
  847MOL0     C11714   7.109   4.357   8.700  0.3596  0.6174  0.1465
  847MOL0     C11715   7.202   4.286   8.598  0.4581  0.5525 -0.1483
  847MOL0    Cl11716   7.331   4.187   8.702  0.1002 -0.0352  0.6301
  847MOL0     C11717   6.892   3.720   9.169  1.2544 -0.3772  0.0518
  847MOL0     C11718   6.950   3.623   9.246  0.6077 -0.0921 -0.3837
  847MOL0     O11719   7.231   3.568   9.338  0.7993 -0.0006  0.8043
  847MOL0     C11720   7.216   3.230   9.443  1.1928 -0.4845 -0.3160
  847MOL0     C11721   7.273   3.141   9.525  0.4200  0.2818  1.6018
  847MOL0     N11722   7.550   2.758  10.161 -1.6875 -0.2918  0.7302
  847MOL0     N11723   7.482   2.669  10.223  0.4427  0.2071 -0.4534
  847MOL0     C11724   6.333   2.050   9.958 -0.0070 -1.2737  0.4832
  847MOL0     C11725   6.243   1.950  10.005 -1.3645 -0.5624 -0.0181
  847MOL0     C11726   6.046   1.548  10.088 -0.2951 -0.4733 -0.1535
  847MOL0     C11727   5.913   1.535  10.076 -0.0018 -0.0201  0.0785
  847MOL0     C11728   5.847   1.417  10.131 -0.8804 -0.4066 -0.2552
  847MOL0     C11729   5.923   1.322  10.200 -0.2391 -0.6669 -1.1775
  847MOL0     O11730   5.872   1.211  10.264  1.3157 -0.3933 -0.5858
  847MOL0     C11731   5.735   1.179  10.244  0.9164  0.0437 -0.6855
  847MOL0     C11732   5.654   1.194  10.370  0.1168  1.0725 -0.0820
  847MOL0     C11733   5.681   1.328  10.428 -0.9655 -0.1527 -0.0472
  847MOL0     C11734   5.582   1.351  10.547  0.3043 -0.0361  0.7946
  847MOL0     C11735   5.588   1.262  10.662  0.6003 -0.2729  0.0908
  847MOL0     C11736   5.595   1.181  10.758 -0.9354 -0.8771  0.3065
  847MOL0     C11737   6.062   1.336  10.215  0.0274  0.1755  0.3359
  847MOL0     C11738   6.124   1.450  10.155  0.1301  0.2111 -0.5406
  847MOL0     H11739   6.482   1.700   9.995 -0.5778 -1.0189 -2.7596
  847MOL0     H11740   6.619   1.872   9.902  1.0851  2.4840  1.0002
  847MOL0     H11741   6.747   2.089   9.885 -0.0946  1.4029 -0.1568
  847MOL0     H11742   6.691   2.110  10.050  0.8033 -4.3537 -1.9819
  847MOL0     H11743   6.650   2.354   9.992 -0.4431  1.3873 -2.0747
  847MOL0     H11744   6.726   2.316   9.841  2.5144 -0.4000  0.4339
  847MOL0     H11745   6.932   2.247   9.977 -2.3256 -1.7191 -1.6970
  847MOL0     H11746   6.841   2.291  10.121 -4.9214 -1.1876 -0.2844
  847MOL0     H11747   6.950   2.474   9.904  2.9534 -1.3752  1.1060
  847MOL0     H11748   6.808   2.521   9.991  0.4806  0.0028 -0.1849
  847MOL0     H11749   7.061   2.425  10.132 -0.6537  0.5595  0.0972
  847MOL0     H11750   6.910   2.491  10.213 -0.7900 -3.7567 -0.7825
  847MOL0     H11751   6.937   2.702  10.124 -0.7672 -1.6714 -0.3927
  847MOL0     H11752   7.092   2.650  10.033 -0.9412 -3.5652 -1.9466
  847MOL0     H11753   7.091   2.782  10.258 -1.4253 -0.5238 -1.3021
  847MOL0     H11754   7.036   2.628  10.325  0.4457  0.7292  0.5811
  847MOL0     H11755   7.246   2.515  10.243 -0.4461  0.4364 -1.2948
  847MOL0     H11756   7.254   2.624  10.384 -3.0441 -1.2679  0.8891
  847MOL0     H11757   7.238   2.827  10.072 -0.4972  1.3100  2.7384
  847MOL0     H11758   7.418   2.863   9.898 -3.6459  0.7724  1.9340
  847MOL0     H11759   7.590   2.897   9.948 -0.6484  0.2408 -1.4657
  847MOL0     H11760   7.419   3.080  10.094  0.4881 -0.5886  1.3078
  847MOL0     H11761   7.335   3.075   9.941 -0.6779 -3.1392  1.1345
  847MOL0     H11762   7.505   3.254   9.895 -2.9446  0.2859 -0.2191
  847MOL0     H11763   7.624   3.147   9.958 -0.5215  0.1157  0.9266
  847MOL0     H11764   7.616   3.013   9.781 -1.8279 -0.6612 -0.0413
  847MOL0     H11765   7.623   3.177   9.707  1.2885 -0.2819  1.3884
  847MOL0     H11766   7.482   3.341   9.684  1.3811 -2.0554  0.1927
  847MOL0     H11767   7.403   3.497   9.529  0.5264 -0.6436 -2.2396
  847MOL0     H11768   7.035   3.389   9.023  0.9618 -1.2967  0.4380
  847MOL0     H11769   6.928   3.554   8.868  2.2687 -1.4622  0.0979
  847MOL0     H11770   6.783   3.961   9.041  1.7548  0.9961 -3.3486
  847MOL0     H11771   6.651   3.846   9.054 -4.1841  1.9347 -2.9812
  847MOL0     H11772   6.588   4.023   8.907 -1.2327 -1.2289 -0.0378
  847MOL0     H11773   6.592   3.887   8.812  0.0039  1.1066 -0.7348
  847MOL0     H11774   6.689   4.029   8.672  0.1765  1.1046 -0.7668
  847MOL0     H11775   6.831   3.938   8.734  0.7671 -0.1075  2.1742
  847MOL0     H11776   6.737   4.223   8.817 -3.4380 -2.7073  0.3454
  847MOL0     H11777   6.847   4.127   8.908  3.4962  2.2261 -1.2821
  847MOL0     H11778   6.883   4.224   8.628  0.5933 -1.1368 -0.1466
  847MOL0     H11779   6.969   4.079   8.696 -3.6986 -2.6284  1.7233
  847MOL0     H11780   7.100   4.183   8.840 -2.7927 -1.2112  2.5087
  847MOL0     H11781   6.991   4.307   8.883  0.1453 -1.0039  0.4550
  847MOL0     H11782   7.044   4.415   8.635  5.2517  3.1001 -3.2348
  847MOL0     H11783   7.165   4.440   8.745 -1.5997  2.1882 -0.2093
  847MOL0     H11784   7.235   4.366   8.531 -0.8219  0.5593 -0.8047
  847MOL0     H11785   7.138   4.216   8.543  0.7303  0.6688 -0.6191
  847MOL0     H11786   6.859   3.814   9.213  0.7322 -1.3297  1.8213
  847MOL0     H11787   6.956   3.639   9.353 -2.6975  2.3166 -0.3894
  847MOL0     H11788   7.127   3.200   9.388  0.5087 -1.4714  1.2596
  847MOL0     H11789   7.249   3.035   9.527 -0.1832  0.3810  0.4152
  847MOL0     H11790   6.297   2.152   9.951  3.8325  0.1397 -1.3040
  847MOL0     H11791   6.138   1.964  10.028 -0.8694  2.3088  0.8374
  847MOL0     H11792   5.850   1.602  10.018  1.4065 -0.5030 -2.1253
  847MOL0     H11793   5.740   1.405  10.118 -0.9624  0.3956 -0.4213
  847MOL0     H11794   5.708   1.079  10.206 -3.3928 -0.3840  2.7283
  847MOL0     H11795   5.680   1.240  10.172 -0.0972 -0.2569 -0.1821
  847MOL0     H11796   5.545   1.190  10.361 -0.0991 -0.7101  2.3869
  847MOL0     H11797   5.682   1.118  10.443  1.8801  0.3676 -1.4226
  847MOL0     H11798   5.666   1.409  10.356 -0.0263 -0.9305 -1.1413
  847MOL0     H11799   5.784   1.320  10.464 -0.6877  1.6181 -0.3523
  847MOL0     H11800   5.587   1.452  10.588 -3.8051 -0.0684  1.7878
  847MOL0     H11801   5.480   1.348  10.507  1.5198  0.1617 -2.7140
  847MOL0     H11802   5.616   1.102  10.827  1.0012 -4.2018 -3.6597
  847MOL0     H11803   6.110   1.247  10.256 -2.9490 -0.3676  3.0997
  847MOL0     H11804   6.232   1.465  10.161 -0.1194  1.5976  1.3295
  848MOL0     O11805   6.138   3.128   6.381  0.3705 -0.2370 -0.1148
  848MOL0     C11806   6.170   3.218   6.299 -0.6360  0.5292  0.6862
  848MOL0     O11807   6.274   3.212   6.202  0.2373 -0.5739  0.3272
  848MOL0     C11808   6.351   3.112   6.181 -1.2300  0.2779  0.4334
  848MOL0     C11809   6.319   2.973   6.187  0.5702 -1.1811  0.3207
  848MOL0     C11810   6.406   2.867   6.180  0.0114 -0.3393  0.5803
  848MOL0     C11811   6.539   2.903   6.158 -0.4750 -0.4281 -0.2939
  848MOL0     O11812   6.631   2.799   6.156 -0.3756 -0.4575  0.9360
  848MOL0     C11813   6.774   2.832   6.151 -0.3303 -1.0843 -0.0240
  848MOL0     C11814   6.833   2.847   6.006  0.2810  0.2141 -0.0698
  848MOL0     C11815   6.843   2.735   5.901  0.0924  0.2651 -0.4301
  848MOL0     C11816   6.696   2.677   5.867  0.0678 -1.3207  0.4958
  848MOL0     C11817   6.701   2.580   5.748  0.4686  0.4864  0.0266
  848MOL0     C11818   6.732   2.639   5.612  0.2638 -0.5939 -0.0797
  848MOL0     C11819   6.611   2.724   5.573  0.1343  1.0479 -0.1394
  848MOL0     C11820   6.615   2.770   5.427 -0.8037  0.4859  0.0903
  848MOL0     N11821   6.484   2.813   5.384  0.4115 -0.0326  0.1613
  848MOL0     C11822   6.422   2.908   5.452  0.7226 -0.4360 -0.0708
  848MOL0     C11823   6.323   2.952   5.367  1.1470  0.4001 -0.5418
  848MOL0     C11824   6.217   3.049   5.390  0.0792 -0.2085 -0.6581
  848MOL0     C11825   6.069   3.004   5.358 -1.2578  0.0469  1.2947
  848MOL0     C11826   5.979   3.117   5.409 -0.2064 -0.3147  0.1155
  848MOL0     C11827   5.842   3.056   5.413 -0.3385  0.4493 -0.0022
  848MOL0     O11828   5.830   2.957   5.520 -0.0349  0.7617  1.3893
  848MOL0     C11829   5.708   2.905   5.549 -0.1301 -0.6677  0.5705
  848MOL0     C11830   5.707   2.802   5.646  0.4658 -0.7503  0.6928
  848MOL0     C11831   5.587   2.732   5.668 -0.5542 -0.2220  0.3056
  848MOL0     C11832   5.465   2.756   5.599  0.5431  0.4296  0.0894
  848MOL0     C11833   5.342   2.680   5.631 -0.2798  0.1429 -0.6594
  848MOL0     O11834   5.248   2.688   5.541 -0.0016  0.9361 -0.2943
  848MOL0     C11835   5.121   2.633   5.555 -0.1888  0.9016  0.0137
  848MOL0     C11836   5.052   2.616   5.673 -0.6120 -0.3314 -0.2646
  848MOL0     C11837   4.914   2.580   5.681  0.0131 -0.2070  0.2329
  848MOL0     C11838   4.855   2.537   5.562  0.0200 -0.6794  0.1268
  848MOL0     O11839   4.722   2.502   5.558  0.1307 -0.1181  0.7447
  848MOL0     C11840   4.631   2.460   5.666  0.4357  0.8346  0.1519
  848MOL0     C11841   4.585   2.582   5.754  0.5523  0.4117  0.5438
  848MOL0     C11842   4.530   2.540   5.885  0.0031 -0.5264  0.2763
  848MOL0     C11843   4.477   2.648   5.971  0.3770 -0.8991 -0.1608
  848MOL0     C11844   4.416   2.591   6.097 -0.2952 -0.6271  0.1164
  848MOL0     C11845   4.266   2.568   6.094 -0.1773  0.3944 -0.4390
  848MOL0     C11846   4.225   2.546   6.240 -0.6580 -0.8450  0.1607
  848MOL0     C11847   4.088   2.475   6.249  0.1900 -0.0662  0.5655
  848MOL0    Cl11848   3.972   2.573   6.161  0.2181 -0.2470 -0.3312
  848MOL0     C11849   4.927   2.542   5.447  0.2026  1.2337 -0.0834
  848MOL0     C11850   5.052   2.586   5.445  0.2598 -0.4726  0.3776
  848MOL0     O11851   5.346   2.605   5.729  0.0595  1.0290 -0.0830
  848MOL0     C11852   5.475   2.854   5.499 -0.0524 -0.0749 -0.1774
  848MOL0     C11853   5.589   2.924   5.479 -0.0164 -0.1996  0.3806
  848MOL0     N11854   6.340   2.889   5.247  0.5706 -0.2772 -0.4005
  848MOL0     N11855   6.438   2.808   5.257  0.3544  0.0544  0.7859
  848MOL0     C11856   6.579   3.035   6.136  0.8086 -0.5755  0.5835
  848MOL0     C11857   6.486   3.141   6.144  0.2714  0.1663 -1.0404
  848MOL0     C11858   6.084   3.340   6.322 -0.6885  0.0694 -0.5415
  848MOL0     C11859   6.000   3.357   6.433 -0.5407  0.0882  0.6757
  848MOL0     C11860   5.933   3.479   6.445 -0.0986  0.1767  0.4545
  848MOL0     C11861   5.949   3.584   6.348 -0.5558 -0.0792 -0.2922
  848MOL0     O11862   5.881   3.693   6.354  0.2106  0.4044  0.2982
  848MOL0     C11863   5.960   3.815   6.343 -0.3390  0.0817  0.5364
  848MOL0     C11864   5.894   3.938   6.399  0.0747 -0.0706 -0.6839
  848MOL0     C11865   5.801   3.996   6.294 -0.0612  0.5646 -0.4730
  848MOL0     C11866   5.729   4.123   6.352 -0.5150  0.3320 -0.5614
  848MOL0     C11867   5.657   4.188   6.242  0.1604  0.4514  0.8990
  848MOL0     C11868   5.602   4.236   6.148 -0.0785  0.5523 -0.6657
  848MOL0     C11869   6.031   3.562   6.235  0.6315  0.4126 -0.1333
  848MOL0     C11870   6.107   3.443   6.232 -0.9604  0.2307 -0.0955
  848MOL0     H11871   6.214   2.947   6.203  0.5290  0.8078  4.6823
  848MOL0     H11872   6.363   2.767   6.182 -2.0707  0.4125 -1.5135
  848MOL0     H11873   6.820   2.751   6.207 -3.1095 -1.9585  1.1752
  848MOL0     H11874   6.793   2.923   6.208  2.4934  1.1937 -4.0824
  848MOL0     H11875   6.926   2.903   6.015 -0.7031  1.7676  1.1261
  848MOL0     H11876   6.771   2.924   5.957  0.5282  0.6432  0.2812
  848MOL0     H11877   6.911   2.664   5.947 -1.1113 -1.0039 -0.5366
  848MOL0     H11878   6.892   2.769   5.809 -0.1925 -3.3661 -2.1081
  848MOL0     H11879   6.664   2.612   5.949  0.8674  0.8178  2.6354
  848MOL0     H11880   6.629   2.763   5.859 -0.9283 -1.9127  2.0448
  848MOL0     H11881   6.604   2.530   5.745  0.3941  0.5994  0.5435
  848MOL0     H11882   6.772   2.498   5.764  1.1592  1.0535 -0.0942
  848MOL0     H11883   6.751   2.556   5.544  0.2444  0.3450 -1.2806
  848MOL0     H11884   6.828   2.692   5.617  0.2074 -0.5995  2.5437
  848MOL0     H11885   6.519   2.667   5.589  0.0729  1.5202  1.2683
  848MOL0     H11886   6.601   2.812   5.638 -2.6639  0.6040  0.1515
  848MOL0     H11887   6.645   2.689   5.360  1.0615  1.9324 -0.9433
  848MOL0     H11888   6.694   2.845   5.412  1.3666 -1.9635 -1.8656
  848MOL0     H11889   6.457   2.950   5.545  1.3524 -0.2271 -0.3957
  848MOL0     H11890   6.243   3.139   5.334  1.7616  0.5430  1.1973
  848MOL0     H11891   6.208   3.076   5.496 -0.6022  0.7422 -0.9432
  848MOL0     H11892   6.057   2.911   5.414 -0.3452 -0.5724  0.5004
  848MOL0     H11893   6.049   2.979   5.253  0.4697  1.6086  0.5217
  848MOL0     H11894   5.996   3.149   5.513 -3.4910  2.6501 -0.0481
  848MOL0     H11895   5.968   3.203   5.341 -0.6377  0.2310  0.8504
  848MOL0     H11896   5.822   3.013   5.314  0.8730 -1.2782  0.4785
  848MOL0     H11897   5.764   3.129   5.436 -0.5391  0.5566 -0.9547
  848MOL0     H11898   5.791   2.788   5.713  0.6958 -1.2160  0.3152
  848MOL0     H11899   5.612   2.664   5.749  0.0231  1.5883  1.6979
  848MOL0     H11900   5.113   2.624   5.763  1.7536 -0.0975 -1.8072
  848MOL0     H11901   4.873   2.573   5.782 -2.8171 -5.5685 -0.9247
  848MOL0     H11902   4.670   2.379   5.728  0.7164 -0.8865 -2.1298
  848MOL0     H11903   4.542   2.424   5.614  2.0129 -0.9808 -1.4603
  848MOL0     H11904   4.517   2.633   5.685 -1.1037 -2.5184 -0.1454
  848MOL0     H11905   4.669   2.652   5.765  0.4584  1.1199 -2.3530
  848MOL0     H11906   4.618   2.494   5.930  2.2732  2.3177 -0.9237
  848MOL0     H11907   4.454   2.464   5.865 -0.0656 -0.2235 -0.7086
  848MOL0     H11908   4.558   2.708   6.014  0.5685 -0.8424 -0.6007
  848MOL0     H11909   4.399   2.711   5.926  1.3083 -0.0793 -0.6522
  848MOL0     H11910   4.441   2.663   6.175  0.4263 -1.8155  1.0314
  848MOL0     H11911   4.473   2.502   6.126  0.5880 -0.1115  0.0107
  848MOL0     H11912   4.255   2.479   6.030 -1.8239  0.0107  0.3257
  848MOL0     H11913   4.210   2.652   6.051 -1.1333 -1.4981 -3.2264
  848MOL0     H11914   4.294   2.480   6.294 -1.2078 -0.2571  1.6039
  848MOL0     H11915   4.209   2.642   6.290  0.0764 -1.0083  0.7215
  848MOL0     H11916   4.045   2.459   6.349 -4.6923 -1.2081 -1.4236
  848MOL0     H11917   4.100   2.381   6.193  0.3982  0.2155  0.1380
  848MOL0     H11918   4.879   2.488   5.366  0.0640 -1.1190  1.4928
  848MOL0     H11919   5.111   2.599   5.355 -2.8713  2.9460 -1.4661
  848MOL0     H11920   5.394   2.891   5.436 -1.9587 -4.2857 -0.5110
  848MOL0     H11921   5.586   2.989   5.391 -1.1922 -2.7072 -1.5661
  848MOL0     H11922   6.682   3.066   6.119  0.0864  0.6408 -2.2568
  848MOL0     H11923   6.525   3.243   6.146  0.5183  0.0785  0.9986
  848MOL0     H11924   5.994   3.279   6.508  0.7948 -0.2098  0.5130
  848MOL0     H11925   5.873   3.503   6.532  1.5475  4.5202  0.6169
  848MOL0     H11926   5.984   3.832   6.237 -1.0227  0.0194  0.3635
  848MOL0     H11927   6.051   3.797   6.400 -0.4943 -1.2120  0.4047
  848MOL0     H11928   5.842   3.924   6.494  1.2757  0.7390  0.1212
  848MOL0     H11929   5.976   4.005   6.426 -1.6880  1.0211  2.3998
  848MOL0     H11930   5.724   3.919   6.284  0.2270  0.3450 -1.0255
  848MOL0     H11931   5.851   4.024   6.201  0.9583  3.3329  0.8140
  848MOL0     H11932   5.657   4.079   6.422 -1.9044 -3.0047 -3.7876
  848MOL0     H11933   5.800   4.194   6.396  1.1088 -1.9135  0.6498
  848MOL0     H11934   5.556   4.283   6.063 -1.7574  1.8875  0.9062
  848MOL0     H11935   6.050   3.645   6.168 -1.6962  1.4208  0.3583
  848MOL0     H11936   6.179   3.422   6.154 -2.6308 -1.5469 -1.2555
  849MOL0     O11937   2.159   3.069   4.707  0.7262  0.1970 -0.3964
  849MOL0     C11938   2.117   3.118   4.816  0.0899  0.5365  0.3253
  849MOL0     O11939   1.987   3.127   4.854  0.0971  0.5915 -0.1306
  849MOL0     C11940   1.889   3.088   4.771  0.5492 -0.4425 -0.0514
  849MOL0     C11941   1.791   3.026   4.841 -0.0338 -0.8004 -1.0986
  849MOL0     C11942   1.666   3.001   4.782 -0.9536  0.3933 -0.7031
  849MOL0     C11943   1.647   3.022   4.641  0.3560 -0.2938 -1.1178
  849MOL0     O11944   1.529   2.979   4.575  0.6061  0.0863 -0.2101
  849MOL0     C11945   1.558   2.875   4.479  0.8171 -0.3011 -0.6037
  849MOL0     C11946   1.430   2.793   4.447 -0.2873 -0.1672  0.2846
  849MOL0     C11947   1.375   2.728   4.567 -0.2999  0.9410 -0.3642
  849MOL0     C11948   1.260   2.634   4.549  0.1407  0.4348 -0.8921
  849MOL0     C11949   1.128   2.694   4.539 -0.1631 -0.7878 -0.2507
  849MOL0     C11950   1.018   2.589   4.540  0.8177 -0.2040  0.0522
  849MOL0     C11951   0.873   2.647   4.568 -0.7834 -0.0210  0.0571
  849MOL0     C11952   0.762   2.584   4.493 -0.1170 -0.5720  1.1595
  849MOL0     N11953   0.628   2.623   4.554 -0.6446 -0.0237  0.3862
  849MOL0     C11954   0.551   2.540   4.632  0.5866  0.3909 -0.0482
  849MOL0     C11955   0.461   2.633   4.677  0.7954  1.0086  0.0174
  849MOL0     C11956   0.366   2.575   4.771 -0.5562  0.5679 -0.4355
  849MOL0     C11957   0.281   2.692   4.820  0.2434  0.3516 -0.1277
  849MOL0     C11958   0.165   2.659   4.913  0.2769 -0.8609 -0.4984
  849MOL0     C11959   0.106   2.778   4.976 -1.2170 -0.4182 -0.2619
  849MOL0     O11960   0.024   2.725   5.082 -0.7633  0.5973  0.4248
  849MOL0     C11961  -0.008   2.802   5.189 -0.1876  0.3772 -0.3497
  849MOL0     C11962  -0.000   2.936   5.193 -0.5107 -0.4180 -0.0592
  849MOL0     C11963  -0.025   3.005   5.314  0.4341  0.4857 -0.0941
  849MOL0     C11964  -0.077   2.953   5.433  0.3759  0.3073  0.1935
  849MOL0     C11965  -0.114   3.027   5.557  0.1134 -0.1968  0.4823
  849MOL0     O11966  -0.203   2.969   5.629  0.0279  0.3428  0.4526
  849MOL0     C11967  -0.265   3.030   5.735 -0.6366 -0.1626  0.0997
  849MOL0     C11968  -0.251   2.965   5.856 -0.2123  1.1639  0.7689
  849MOL0     C11969  -0.337   2.995   5.961  0.0811 -0.4458  0.3074
  849MOL0     C11970  -0.417   3.106   5.961  0.3504  0.9724 -0.1777
  849MOL0     O11971  -0.484   3.150   6.075  1.2308 -0.3481 -0.0989
  849MOL0     C11972  -0.487   3.076   6.199 -0.1717  0.2514 -0.8161
  849MOL0     C11973  -0.589   2.955   6.199  0.1263 -0.1967  0.2016
  849MOL0     C11974  -0.738   2.996   6.212  0.4070 -0.5371  0.5249
  849MOL0     C11975  -0.766   3.001   6.358 -0.4489 -0.1530  0.4019
  849MOL0     C11976  -0.914   3.041   6.384 -0.6218 -0.3837 -0.0743
  849MOL0     C11977  -0.933   3.101   6.521 -0.1449  0.6842 -0.5182
  849MOL0     C11978  -0.915   2.995   6.628  0.1302 -0.4954  0.5225
  849MOL0     C11979  -0.944   3.073   6.755 -0.3977 -0.2949  0.8474
  849MOL0    Cl11980  -0.802   3.170   6.822  0.3976 -0.4819  0.5173
  849MOL0     C11981  -0.430   3.177   5.843 -1.2169 -0.7991  0.4332
  849MOL0     C11982  -0.353   3.133   5.734 -0.4293 -1.4853  0.3905
  849MOL0     O11983  -0.070   3.134   5.582  0.1304 -0.3441  0.1761
  849MOL0     C11984  -0.107   2.814   5.420 -0.8118 -0.9636 -0.6862
  849MOL0     C11985  -0.062   2.737   5.312  0.1275  0.6760  0.4245
  849MOL0     N11986   0.477   2.758   4.625 -0.3905  0.0972  0.2173
  849MOL0     N11987   0.579   2.748   4.549 -0.0366 -1.3621 -0.8979
  849MOL0     C11988   1.753   3.073   4.570  0.0470 -0.6013  0.7346
  849MOL0     C11989   1.867   3.112   4.636 -0.2067 -0.3310 -0.3323
  849MOL0     C11990   2.220   3.164   4.907  1.2301  0.0150 -0.6750
  849MOL0     C11991   2.353   3.148   4.868  0.2462 -0.3677 -0.2648
  849MOL0     C11992   2.457   3.199   4.950  0.0836  0.3860 -0.3327
  849MOL0     C11993   2.427   3.262   5.078 -0.5056 -0.6906 -0.4112
  849MOL0     O11994   2.526   3.304   5.163  0.2942 -0.1889  0.1429
  849MOL0     C11995   2.657   3.334   5.118 -0.7831 -0.3568  0.0300
  849MOL0     C11996   2.720   3.426   5.223 -0.1546 -1.0291  1.0302
  849MOL0     C11997   2.731   3.383   5.359  0.0053 -0.1925  0.6519
  849MOL0     C11998   2.684   3.490   5.458  0.6440  0.3460  0.9024
  849MOL0     C11999   2.538   3.508   5.455 -0.6970 -0.0240 -0.4649
  849MOL0     C12000   2.421   3.512   5.471 -0.3329  0.2890  0.4877
  849MOL0     C12001   2.290   3.273   5.115  0.0204  0.7901  0.3051
  849MOL0     C12002   2.191   3.229   5.027  0.5845 -0.0169 -0.3064
  849MOL0     H12003   1.814   3.008   4.946 -1.6175  1.2846 -0.3235
  849MOL0     H12004   1.579   2.951   4.824 -0.4876 -0.4756 -0.7618
  849MOL0     H12005   1.625   2.804   4.529  0.1756 -1.4156 -1.3005
  849MOL0     H12006   1.605   2.921   4.391 -0.1442  0.9700 -0.4832
  849MOL0     H12007   1.454   2.707   4.384  0.7570 -0.8282  1.5241
  849MOL0     H12008   1.352   2.854   4.399  0.7537  0.8654 -0.1667
  849MOL0     H12009   1.343   2.812   4.629 -1.7142  1.0740 -1.2332
  849MOL0     H12010   1.446   2.667   4.624 -0.3060 -0.5431 -1.8695
  849MOL0     H12011   1.275   2.559   4.471  1.1259 -1.9876  1.4717
  849MOL0     H12012   1.252   2.584   4.646 -2.1347 -0.3292 -1.4132
  849MOL0     H12013   1.116   2.756   4.449 -1.0716 -1.2082 -0.4319
  849MOL0     H12014   1.114   2.754   4.629 -2.4761 -2.1389  0.3924
  849MOL0     H12015   1.041   2.512   4.614 -1.0129  0.2196  1.1432
  849MOL0     H12016   1.016   2.544   4.440 -1.3354  2.0824 -1.0544
  849MOL0     H12017   0.856   2.647   4.676 -3.8610  2.4683 -0.2938
  849MOL0     H12018   0.874   2.755   4.549  0.1244  0.2388  1.4432
  849MOL0     H12019   0.784   2.477   4.496 -1.7164 -1.1278 -2.1669
  849MOL0     H12020   0.766   2.615   4.388  0.0725 -3.9575  0.0327
  849MOL0     H12021   0.557   2.435   4.661  2.7985  1.2165  2.9552
  849MOL0     H12022   0.418   2.528   4.856  2.2846 -1.9401 -3.2846
  849MOL0     H12023   0.310   2.503   4.710  1.8218 -0.3622 -1.6754
  849MOL0     H12024   0.246   2.735   4.726  0.1717  2.1443  0.6821
  849MOL0     H12025   0.350   2.767   4.861  1.0447 -0.0124 -0.7727
  849MOL0     H12026   0.086   2.620   4.848  0.5212  0.9589 -1.9947
  849MOL0     H12027   0.200   2.592   4.991  5.4428  1.3192 -0.5732
  849MOL0     H12028   0.054   2.848   4.910 -0.3887  0.9591  0.4888
  849MOL0     H12029   0.187   2.827   5.032  2.4783 -2.7473 -3.1202
  849MOL0     H12030   0.035   3.000   5.113 -1.3528 -2.8470 -2.5449
  849MOL0     H12031  -0.008   3.112   5.313  2.1069  0.3213  2.1252
  849MOL0     H12032  -0.183   2.881   5.860 -0.7503  0.7741  2.1846
  849MOL0     H12033  -0.344   2.935   6.051 -0.3128  1.3170  1.5149
  849MOL0     H12034  -0.517   3.133   6.287  0.5702  0.4663 -0.6917
  849MOL0     H12035  -0.387   3.038   6.224  0.1979  1.5484 -0.2344
  849MOL0     H12036  -0.566   2.872   6.265 -3.0152 -2.6576 -1.5172
  849MOL0     H12037  -0.593   2.910   6.099 -1.8094 -2.9648  1.4100
  849MOL0     H12038  -0.798   2.914   6.169 -3.0597  2.1348 -0.2234
  849MOL0     H12039  -0.775   3.082   6.156 -1.7221 -1.5301  0.2861
  849MOL0     H12040  -0.751   2.900   6.398  2.3165 -1.1325 -2.6367
  849MOL0     H12041  -0.698   3.069   6.411 -1.9969  0.1255  2.1504
  849MOL0     H12042  -0.979   2.955   6.373 -0.9599 -0.0750 -0.5112
  849MOL0     H12043  -0.940   3.114   6.307 -0.3743 -0.8471 -0.6006
  849MOL0     H12044  -1.030   3.148   6.541 -0.6054  0.0092 -1.1460
  849MOL0     H12045  -0.859   3.181   6.534 -0.5365  0.8281  1.1178
  849MOL0     H12046  -0.993   2.920   6.612  0.0830 -0.0196 -1.8144
  849MOL0     H12047  -0.811   2.962   6.631 -0.0125 -1.0762  4.5436
  849MOL0     H12048  -0.956   3.005   6.840 -1.3771  0.0835  1.0180
  849MOL0     H12049  -1.032   3.137   6.752  1.1722  2.0474  2.0592
  849MOL0     H12050  -0.495   3.264   5.848 -0.3484 -0.1266  0.2046
  849MOL0     H12051  -0.369   3.182   5.638  1.7522 -0.8288  0.3241
  849MOL0     H12052  -0.138   2.753   5.504 -0.0612  1.8612  1.8062
  849MOL0     H12053  -0.081   2.631   5.298 -1.3727  1.0103 -0.2776
  849MOL0     H12054   1.753   3.096   4.464 -2.8685 -2.2585  0.2928
  849MOL0     H12055   1.940   3.156   4.568 -1.5311 -0.7006 -2.0530
  849MOL0     H12056   2.389   3.099   4.778  0.4887 -2.0680  0.7232
  849MOL0     H12057   2.556   3.174   4.913 -0.3262 -1.2821 -0.3474
  849MOL0     H12058   2.675   3.377   5.019  1.8513  0.6242  0.8557
  849MOL0     H12059   2.720   3.246   5.131  2.9840  2.0084 -0.7737
  849MOL0     H12060   2.817   3.456   5.182 -1.0430  1.4639  0.5829
  849MOL0     H12061   2.659   3.516   5.212 -0.1233 -0.8879  1.9425
  849MOL0     H12062   2.835   3.368   5.389 -0.2608 -0.4653  1.4678
  849MOL0     H12063   2.678   3.290   5.382 -1.9153  0.0256 -2.3343
  849MOL0     H12064   2.710   3.476   5.563  2.8346 -0.5082  0.2994
  849MOL0     H12065   2.733   3.583   5.427  0.1978  0.3133  0.0589
  849MOL0     H12066   2.317   3.518   5.495 -0.6824  1.9873 -1.1808
  849MOL0     H12067   2.274   3.333   5.204  0.5261  2.6854 -0.8112
  849MOL0     H12068   2.086   3.242   5.048  0.1399 -1.9140 -1.1099
  850MOL0     O12069   3.741   0.051  10.756  0.3756  0.0252 -0.0634
  850MOL0     C12070   3.773   0.026  10.872  1.1109  0.5862 -0.7903
  850MOL0     O12071   3.793   0.118  10.965  0.4515 -0.0679  0.1470
  850MOL0     C12072   3.782   0.257  10.956 -0.5159 -0.1507  0.1994
  850MOL0     C12073   3.723   0.326  10.839  0.5959  0.0820 -0.0399
  850MOL0     C12074   3.690   0.458  10.854 -0.9282  0.9936 -0.6757
  850MOL0     C12075   3.723   0.530  10.975  0.1250  0.4394  0.7262
  850MOL0     O12076   3.726   0.668  10.994  0.0777 -0.4245 -0.0729
  850MOL0     C12077   3.606   0.738  10.941 -0.9087  0.3542  1.3656
  850MOL0     C12078   3.664   0.809  10.822  0.3255 -0.2667 -0.1102
  850MOL0     C12079   3.561   0.865  10.724 -0.6238  0.1776 -0.0331
  850MOL0     C12080   3.615   0.952  10.608  0.1290  0.4804 -0.1533
  850MOL0     C12081   3.501   1.004  10.525  0.0035  0.9743 -0.6850
  850MOL0     C12082   3.551   1.083  10.401 -0.0498 -0.7505  0.3272
  850MOL0     C12083   3.452   1.125  10.296 -0.5725  0.3674 -0.6969
  850MOL0     C12084   3.359   1.233  10.352  0.0716 -0.8250  0.1316
  850MOL0     N12085   3.289   1.281  10.239  0.5876 -0.6689  0.6775
  850MOL0     C12086   3.340   1.361  10.141 -0.6315 -0.1424  0.5776
  850MOL0     C12087   3.230   1.405  10.069  0.3228  0.1310 -0.6304
  850MOL0     C12088   3.257   1.501   9.952  0.3842  0.6199 -0.0812
  850MOL0     C12089   3.231   1.437   9.817 -0.1332  0.6433  1.5179
  850MOL0     C12090   3.320   1.321   9.778  0.4573 -0.2546  0.2460
  850MOL0     C12091   3.307   1.258   9.638  0.5270 -0.3920 -0.1999
  850MOL0     O12092   3.283   1.361   9.544  0.2964 -0.2225 -0.2111
  850MOL0     C12093   3.157   1.370   9.495  0.9308 -0.4964 -0.1934
  850MOL0     C12094   3.038   1.321   9.553  0.0203 -0.3027  0.0623
  850MOL0     C12095   2.920   1.365   9.495  0.2902  0.4396 -1.1401
  850MOL0     C12096   2.911   1.443   9.380 -1.0163  0.3634 -0.4953
  850MOL0     C12097   2.785   1.497   9.321  0.5669 -0.1950 -0.6638
  850MOL0     O12098   2.675   1.435   9.366  0.3179  0.3236  0.3986
  850MOL0     C12099   2.564   1.510   9.345 -0.2675 -0.4043 -0.2283
  850MOL0     C12100   2.480   1.513   9.229  0.0614  0.5588  0.1401
  850MOL0     C12101   2.381   1.606   9.208  0.2886  0.0664  0.5819
  850MOL0     C12102   2.349   1.692   9.306  0.7498  0.1134  0.5929
  850MOL0     O12103   2.233   1.760   9.287  0.1729 -0.0292 -0.1663
  850MOL0     C12104   2.196   1.863   9.383  0.2859  0.2885 -0.2424
  850MOL0     C12105   2.050   1.881   9.341 -1.2886  0.5273 -0.6909
  850MOL0     C12106   1.989   2.003   9.398 -0.1530 -0.7137  0.4759
  850MOL0     C12107   2.044   2.134   9.323 -0.0277  0.4430  0.1299
  850MOL0     C12108   1.975   2.261   9.368 -0.9259  0.1491  0.2831
  850MOL0     C12109   1.981   2.364   9.251 -0.9061  0.5959  0.3174
  850MOL0     C12110   1.900   2.485   9.273  0.1242 -0.0122 -0.4990
  850MOL0     C12111   1.913   2.581   9.151  0.6787 -0.1786  0.2432
  850MOL0    Cl12112   2.068   2.669   9.137  0.0518  0.4966 -0.0460
  850MOL0     C12113   2.421   1.690   9.435 -0.6862  0.2281 -0.1854
  850MOL0     C12114   2.537   1.607   9.443 -0.0418  0.4811 -0.1152
  850MOL0     O12115   2.793   1.589   9.240  0.2856  0.1367  0.3414
  850MOL0     C12116   3.034   1.474   9.320 -0.0183  0.9315 -0.0404
  850MOL0     C12117   3.157   1.439   9.378 -0.4760  0.6624  0.1498
  850MOL0     N12118   3.123   1.327  10.107  0.1979  0.1116 -0.0576
  850MOL0     N12119   3.165   1.264  10.210  0.0147 -0.3897 -0.6288
  850MOL0     C12120   3.789   0.461  11.080  0.8949  0.1512  0.3883
  850MOL0     C12121   3.818   0.326  11.070 -0.1153  0.3599  0.4038
  850MOL0     C12122   3.769  -0.118  10.911 -0.0085 -0.2660  0.6747
  850MOL0     C12123   3.787  -0.161  11.044  0.0331 -0.2165  0.1304
  850MOL0     C12124   3.766  -0.296  11.085  0.2447  0.3034  0.5104
  850MOL0     C12125   3.754  -0.390  10.980 -0.8014 -0.3086 -0.0854
  850MOL0     O12126   3.715  -0.519  10.996  0.6274  0.1537  0.3214
  850MOL0     C12127   3.746  -0.593  11.109 -0.8288 -0.0770 -0.3920
  850MOL0     C12128   3.718  -0.735  11.079  0.4729 -0.4871  0.3630
  850MOL0     C12129   3.805  -0.814  11.165  0.3046 -0.4987 -0.1086
  850MOL0     C12130   3.780  -0.956  11.135  0.5584  0.4111  0.6598
  850MOL0     C12131   3.829  -1.037  11.248  0.2244 -0.2358 -0.1705
  850MOL0     C12132   3.874  -1.088  11.352 -0.5737  1.0666 -0.2619
  850MOL0     C12133   3.772  -0.355  10.843 -0.1722 -0.7042 -0.2310
  850MOL0     C12134   3.775  -0.219  10.803  0.3145 -0.1813  0.7366
  850MOL0     H12135   3.714   0.274  10.744  0.3478  0.9573 -0.5010
  850MOL0     H12136   3.654   0.514  10.768 -0.8737  0.8493 -0.7930
  850MOL0     H12137   3.572   0.811  11.015  0.8131  0.0240  2.5280
  850MOL0     H12138   3.519   0.684  10.902 -0.1766  0.7463 -0.9580
  850MOL0     H12139   3.742   0.752  10.771  0.9453 -0.6293  1.2020
  850MOL0     H12140   3.715   0.896  10.866  2.0782 -1.7568  0.9204
  850MOL0     H12141   3.489   0.924  10.782  0.9903  0.9430  1.2792
  850MOL0     H12142   3.517   0.783  10.667  2.1774 -0.8726 -0.8062
  850MOL0     H12143   3.672   1.036  10.649  3.5434 -0.0320 -3.2648
  850MOL0     H12144   3.688   0.893  10.551  2.0001  1.8084  0.7411
  850MOL0     H12145   3.438   1.067  10.589 -1.0001 -0.7429  0.0816
  850MOL0     H12146   3.421   0.938  10.489 -0.4051  1.3482 -0.4844
  850MOL0     H12147   3.617   1.022  10.339  0.1674 -1.7429  1.4749
  850MOL0     H12148   3.606   1.168  10.440 -1.0038 -0.6694  1.5773
  850MOL0     H12149   3.502   1.167  10.208  1.0621  3.8245  1.6378
  850MOL0     H12150   3.383   1.047  10.264 -0.5882 -0.7288  1.7770
  850MOL0     H12151   3.412   1.321  10.390  0.0320  0.3189 -2.2373
  850MOL0     H12152   3.285   1.191  10.420 -0.2465  0.1688  0.4217
  850MOL0     H12153   3.440   1.392  10.112 -1.3528  2.6590  0.7645
  850MOL0     H12154   3.360   1.536   9.960 -0.4603  2.9619  1.6826
  850MOL0     H12155   3.205   1.595   9.970  1.6041  1.1680  0.7197
  850MOL0     H12156   3.239   1.519   9.745  2.9246 -0.6925  0.1620
  850MOL0     H12157   3.128   1.401   9.809  1.2397 -3.3964 -1.3945
  850MOL0     H12158   3.420   1.365   9.775  1.1401 -1.7177  0.3815
  850MOL0     H12159   3.317   1.239   9.851  3.1698 -1.1606 -0.5164
  850MOL0     H12160   3.231   1.180   9.630 -0.0168  0.0507  0.5213
  850MOL0     H12161   3.403   1.208   9.625 -0.1321 -0.9283 -4.1898
  850MOL0     H12162   3.039   1.262   9.644 -0.9428  2.5637  2.0688
  850MOL0     H12163   2.824   1.337   9.538  1.2847 -2.1147 -0.4076
  850MOL0     H12164   2.494   1.434   9.156 -1.5330  0.8062 -0.4733
  850MOL0     H12165   2.321   1.609   9.118  0.5050 -1.4120  0.3618
  850MOL0     H12166   2.262   1.949   9.377  0.9033 -0.2186 -0.9946
  850MOL0     H12167   2.193   1.823   9.485 -3.2542  2.2262  0.5537
  850MOL0     H12168   2.000   1.788   9.369 -1.0988  0.3046 -1.0876
  850MOL0     H12169   2.049   1.889   9.232 -2.0105  3.0467 -0.5560
  850MOL0     H12170   1.989   1.991   9.506 -0.0680 -1.8385  0.3715
  850MOL0     H12171   1.882   2.003   9.373 -0.2953  0.8230  0.9796
  850MOL0     H12172   2.153   2.123   9.323 -0.1960 -1.7528  0.3479
  850MOL0     H12173   2.022   2.118   9.217  1.5410  0.4398 -0.2198
  850MOL0     H12174   2.021   2.295   9.461  2.5558 -0.3371 -1.1327
  850MOL0     H12175   1.870   2.236   9.388 -0.2247 -2.8308  0.7192
  850MOL0     H12176   1.939   2.309   9.166  0.5776 -1.2086  0.6915
  850MOL0     H12177   2.088   2.379   9.237 -0.5105 -1.1396  1.0993
  850MOL0     H12178   1.795   2.459   9.290  0.7572 -1.6623  1.1648
  850MOL0     H12179   1.932   2.540   9.362 -0.2253  1.9912 -1.5432
  850MOL0     H12180   1.830   2.650   9.168  0.1161 -0.8682  0.3480
  850MOL0     H12181   1.868   2.539   9.061 -4.1020  0.3270  2.0951
  850MOL0     H12182   2.393   1.764   9.510 -2.2258 -0.6045  0.0994
  850MOL0     H12183   2.592   1.622   9.535 -0.7350  3.4017 -0.0848
  850MOL0     H12184   3.021   1.537   9.233  0.3394 -1.2771 -1.7739
  850MOL0     H12185   3.251   1.470   9.334 -0.1374 -3.2212 -2.4010
  850MOL0     H12186   3.806   0.524  11.167  0.7060  1.7332 -0.6823
  850MOL0     H12187   3.857   0.273  11.156  0.6710  2.0603  1.1545
  850MOL0     H12188   3.816  -0.089  11.121  1.5839  0.0170 -0.6442
  850MOL0     H12189   3.770  -0.328  11.189 -1.2329  1.0677  0.8320
  850MOL0     H12190   3.699  -0.542  11.193  1.3075  0.8276  0.3281
  850MOL0     H12191   3.853  -0.573  11.123 -0.7602 -0.3256 -0.5613
  850MOL0     H12192   3.614  -0.756  11.105  0.5326 -0.5970  0.5210
  850MOL0     H12193   3.735  -0.775  10.979  0.1798 -1.8759  0.8447
  850MOL0     H12194   3.785  -0.791  11.271 -0.8449  0.0433 -0.4239
  850MOL0     H12195   3.912  -0.793  11.153  0.2129  1.8957  2.2525
  850MOL0     H12196   3.678  -0.989  11.113  0.0741  0.7950  2.1453
  850MOL0     H12197   3.848  -0.989  11.056 -1.1305 -0.7897 -0.3550
  850MOL0     H12198   3.913  -1.140  11.438  2.7511  0.8802 -1.7530
  850MOL0     H12199   3.746  -0.428  10.767 -4.3973  0.7353 -0.4165
  850MOL0     H12200   3.758  -0.193  10.699 -3.3784 -4.7908 -0.1572
  851MOL0     O12201  11.071   6.964   4.973  1.1760  0.2522 -0.0303
  851MOL0     C12202  11.010   7.027   5.064  0.0849 -0.5342  0.4591
  851MOL0     O12203  11.031   7.015   5.195 -0.0141  0.5583 -0.8078
  851MOL0     C12204  11.127   6.924   5.232  0.0885  0.9458  0.3589
  851MOL0     C12205  11.121   6.793   5.184 -0.6714  0.1813  0.4639
  851MOL0     C12206  11.218   6.706   5.237  0.2366 -0.1856  1.0066
  851MOL0     C12207  11.314   6.755   5.325  0.4050  0.2472 -0.4262
  851MOL0     O12208  11.422   6.682   5.376 -1.5274 -0.3704 -0.1149
  851MOL0     C12209  11.386   6.540   5.409 -0.1171  0.0389  0.2490
  851MOL0     C12210  11.517   6.460   5.411  0.7912  1.1904  0.1969
  851MOL0     C12211  11.475   6.303   5.410 -0.4307  0.2957 -0.8940
  851MOL0     C12212  11.592   6.199   5.424 -0.5439  0.4699  0.6221
  851MOL0     C12213  11.673   6.236   5.534 -0.2375  0.0442  0.3373
  851MOL0     C12214  11.732   6.117   5.618 -0.0741 -0.4718 -1.3838
  851MOL0     C12215  11.798   6.170   5.748 -0.2432  0.3996  0.1208
  851MOL0     C12216  11.689   6.178   5.864  0.1255 -0.2038  0.2492
  851MOL0     N12217  11.569   6.257   5.834  0.4899  0.6411 -0.6647
  851MOL0     C12218  11.557   6.391   5.852 -0.3697 -0.0518 -0.9597
  851MOL0     C12219  11.440   6.423   5.809  0.4148 -0.3573  0.5880
  851MOL0     C12220  11.375   6.555   5.802 -0.1031  0.0635  0.4504
  851MOL0     C12221  11.278   6.589   5.914  0.4130 -0.0013 -0.0616
  851MOL0     C12222  11.175   6.703   5.880 -0.6544 -0.8322  0.4437
  851MOL0     C12223  11.234   6.816   5.802 -0.0598 -0.3086  0.0431
  851MOL0     O12224  11.168   6.943   5.776 -0.5427 -0.0891  0.3065
  851MOL0     C12225  11.055   6.943   5.688 -0.7450  0.5989  1.4569
  851MOL0     C12226  11.033   6.844   5.594  0.4464 -0.0061 -0.1204
  851MOL0     C12227  10.908   6.837   5.525  0.2422 -0.1490 -0.7531
  851MOL0     C12228  10.813   6.939   5.536  0.3443  0.3248 -0.1103
  851MOL0     C12229  10.683   6.943   5.462 -0.7874  0.0947 -0.3498
  851MOL0     O12230  10.576   7.023   5.521  0.1582  0.0033 -0.1285
  851MOL0     C12231  10.459   7.022   5.443 -0.2671  0.0410 -0.0708
  851MOL0     C12232  10.351   6.982   5.509  0.1933 -0.0486 -0.7572
  851MOL0     C12233  10.225   6.967   5.454 -0.0503  0.4949  0.1636
  851MOL0     C12234  10.218   6.993   5.313  0.0511  0.3958  0.3670
  851MOL0     O12235  10.103   6.962   5.253  0.0576  0.3813 -0.1567
  851MOL0     C12236  10.003   7.067   5.253 -0.3698 -0.6555  0.1070
  851MOL0     C12237  10.008   7.141   5.120  0.6526 -0.8972 -0.7407
  851MOL0     C12238   9.993   7.043   5.005 -0.3662  0.0148 -0.0181
  851MOL0     C12239   9.973   7.127   4.879 -0.6045 -0.9386  0.2036
  851MOL0     C12240   9.953   7.042   4.749 -0.9326 -0.1423 -0.2576
  851MOL0     C12241   9.847   6.928   4.766 -0.3986  0.0059  0.6055
  851MOL0     C12242   9.708   6.981   4.780 -0.5304 -0.4459  0.1244
  851MOL0     C12243   9.615   6.869   4.773  0.0261  0.3552  0.1700
  851MOL0    Cl12244   9.631   6.743   4.905 -0.2621  0.2395 -0.3016
  851MOL0     C12245  10.332   7.043   5.241 -0.3736 -0.0985 -0.8454
  851MOL0     C12246  10.451   7.058   5.308  0.2964  0.2378 -0.2084
  851MOL0     O12247  10.677   6.871   5.367 -0.2825  0.5727 -0.3696
  851MOL0     C12248  10.847   7.047   5.622 -0.8625 -0.4629  0.6529
  851MOL0     C12249  10.967   7.049   5.695  0.8831 -0.2833 -0.2039
  851MOL0     N12250  11.381   6.308   5.756 -0.0892 -0.7061 -0.0886
  851MOL0     N12251  11.457   6.207   5.784  0.2412 -0.0276  0.6160
  851MOL0     C12252  11.303   6.884   5.379 -0.1602  0.4564 -0.2277
  851MOL0     C12253  11.210   6.974   5.330  0.0904  1.0819  0.4676
  851MOL0     C12254  10.902   7.127   5.030  0.2384  0.6584 -0.4837
  851MOL0     C12255  10.872   7.162   4.897  0.0425  0.6404 -0.0811
  851MOL0     C12256  10.764   7.244   4.870  0.5368 -0.1012  0.2250
  851MOL0     C12257  10.684   7.296   4.971  0.5591  0.1518 -0.0919
  851MOL0     O12258  10.575   7.368   4.935 -0.3258 -0.4120  0.0122
  851MOL0     C12259  10.493   7.323   4.834 -0.1717 -0.2319  0.5993
  851MOL0     C12260  10.349   7.377   4.841 -0.7771  0.0039  0.4085
  851MOL0     C12261  10.266   7.354   4.712  0.1545  0.5806 -0.3554
  851MOL0     C12262  10.140   7.432   4.706  0.2730 -0.6292  0.1983
  851MOL0     C12263  10.174   7.569   4.705  0.8439  0.3429 -0.0156
  851MOL0     C12264  10.205   7.680   4.701  0.4980 -0.0183 -0.2427
  851MOL0     C12265  10.719   7.248   5.105  0.6761 -0.5892 -1.2530
  851MOL0     C12266  10.824   7.173   5.134  0.8168  0.3621  0.6000
  851MOL0     H12267  11.048   6.757   5.113 -0.1794  4.3337 -2.4578
  851MOL0     H12268  11.232   6.604   5.203 -2.2544 -0.1584 -0.3417
  851MOL0     H12269  11.311   6.489   5.347 -1.8740  0.9250  1.5274
  851MOL0     H12270  11.345   6.543   5.511  3.0433  1.2769  1.5960
  851MOL0     H12271  11.589   6.487   5.489  0.0936  2.0370  0.5696
  851MOL0     H12272  11.564   6.487   5.315  2.4702  0.1912  0.6961
  851MOL0     H12273  11.416   6.292   5.318 -0.1670 -0.4404 -0.9841
  851MOL0     H12274  11.398   6.286   5.487  0.2022 -0.6962 -0.4510
  851MOL0     H12275  11.541   6.106   5.450 -1.0483  0.4696 -0.3334
  851MOL0     H12276  11.645   6.173   5.333 -0.4642 -2.8788  1.4934
  851MOL0     H12277  11.619   6.305   5.601 -0.4536  1.3548 -1.1269
  851MOL0     H12278  11.749   6.300   5.489 -0.5539  0.9751  1.0929
  851MOL0     H12279  11.811   6.073   5.557 -0.8548 -2.4777 -1.0266
  851MOL0     H12280  11.656   6.042   5.642  0.2835 -0.4514 -0.1452
  851MOL0     H12281  11.878   6.099   5.772  0.8864  1.1895 -1.1872
  851MOL0     H12282  11.830   6.272   5.728 -4.1544  2.0827  1.5523
  851MOL0     H12283  11.738   6.222   5.951  0.5874  1.7425 -0.9053
  851MOL0     H12284  11.651   6.080   5.893 -4.6955  0.9575 -1.1239
  851MOL0     H12285  11.628   6.462   5.895 -2.8499 -0.0524  3.7635
  851MOL0     H12286  11.325   6.547   5.704  2.5427  0.2502 -0.9964
  851MOL0     H12287  11.448   6.633   5.779 -0.1536 -0.0623 -0.1816
  851MOL0     H12288  11.330   6.610   6.008  0.3439 -1.4797  0.3364
  851MOL0     H12289  11.216   6.502   5.937 -0.5490 -0.0424 -2.4921
  851MOL0     H12290  11.083   6.662   5.837 -1.6638  2.0501 -0.3570
  851MOL0     H12291  11.156   6.756   5.974  0.9236  1.5352 -0.4892
  851MOL0     H12292  11.283   6.789   5.708  0.5794  4.0805 -1.1380
  851MOL0     H12293  11.323   6.849   5.856  1.1772 -0.8728 -1.5683
  851MOL0     H12294  11.100   6.758   5.601  0.5831  0.1595  0.8193
  851MOL0     H12295  10.892   6.758   5.453 -0.7471 -0.3802 -0.3041
  851MOL0     H12296  10.345   6.957   5.614 -4.4675 -0.4586 -0.9194
  851MOL0     H12297  10.139   6.930   5.509  1.2084 -2.6175  0.2734
  851MOL0     H12298  10.014   7.136   5.337  1.4567 -4.4576  3.3418
  851MOL0     H12299   9.908   7.013   5.258  0.1426 -1.5798  0.2850
  851MOL0     H12300  10.098   7.204   5.121 -0.9532  1.5399 -1.5306
  851MOL0     H12301   9.928   7.214   5.129  2.6834  1.2755  0.7893
  851MOL0     H12302   9.906   6.979   5.023 -1.7277  1.2048 -2.0015
  851MOL0     H12303  10.084   6.982   4.997  0.6664  1.4026  0.6781
  851MOL0     H12304   9.887   7.193   4.895 -0.0133  0.1416 -0.8514
  851MOL0     H12305  10.064   7.187   4.865 -0.6254 -0.8185  0.5726
  851MOL0     H12306  10.043   6.981   4.744  0.0549  1.0398  1.8614
  851MOL0     H12307   9.942   7.109   4.663  1.2936 -0.6091 -0.9702
  851MOL0     H12308   9.878   6.864   4.850  0.7576  0.5636  0.6350
  851MOL0     H12309   9.846   6.868   4.674  1.8970  2.9139 -1.5168
  851MOL0     H12310   9.703   7.022   4.881  0.9937 -2.8299  1.2806
  851MOL0     H12311   9.692   7.053   4.699 -0.4215 -1.2536 -0.6408
  851MOL0     H12312   9.627   6.802   4.687 -2.1396 -1.9695  1.5502
  851MOL0     H12313   9.516   6.914   4.772  1.0381  2.8074  1.0922
  851MOL0     H12314  10.336   7.059   5.133 -1.0330  2.0191 -0.6112
  851MOL0     H12315  10.536   7.101   5.255 -1.1475  1.8691 -1.3104
  851MOL0     H12316  10.789   7.139   5.628 -2.0916 -0.8448 -3.0977
  851MOL0     H12317  10.992   7.130   5.762  2.1319  0.7714 -1.8569
  851MOL0     H12318  11.362   6.915   5.465 -1.2767 -0.4017  0.8858
  851MOL0     H12319  11.196   7.077   5.361 -3.2441  0.2680  2.0611
  851MOL0     H12320  10.937   7.123   4.819 -1.5683 -1.5199 -0.4461
  851MOL0     H12321  10.749   7.253   4.763  0.2259 -1.4971  0.1371
  851MOL0     H12322  10.489   7.216   4.857  1.9051 -0.7332 -0.9983
  851MOL0     H12323  10.545   7.328   4.737  1.7860 -1.4027  1.5328
  851MOL0     H12324  10.286   7.335   4.920 -1.4657 -2.6104 -1.3771
  851MOL0     H12325  10.364   7.485   4.849  0.4517 -0.3038  3.2247
  851MOL0     H12326  10.243   7.247   4.714 -2.0114  0.9870  1.4972
  851MOL0     H12327  10.322   7.372   4.620 -1.6762  1.2884 -1.3782
  851MOL0     H12328  10.088   7.394   4.618  1.8867 -1.3019 -0.5190
  851MOL0     H12329  10.077   7.414   4.794  0.2834  1.1807  0.6067
  851MOL0     H12330  10.251   7.776   4.709  0.3780 -0.0447  1.0200
  851MOL0     H12331  10.643   7.277   5.177  0.7737  2.5306 -2.2282
  851MOL0     H12332  10.834   7.140   5.237 -0.8016 -4.3857 -0.4967
  852MOL0     O12333   7.189   3.602   0.960 -0.2528  0.0561 -0.2968
  852MOL0     C12334   7.082   3.571   0.906 -1.1549  0.8284 -0.2275
  852MOL0     O12335   6.965   3.646   0.907  0.8022 -0.3202 -0.2289
  852MOL0     C12336   6.989   3.779   0.925  0.0679  0.3215  0.4099
  852MOL0     C12337   6.957   3.871   0.826  0.4872 -0.1509 -0.2325
  852MOL0     C12338   6.984   4.007   0.843 -0.8297  0.5862 -0.4935
  852MOL0     C12339   7.031   4.049   0.965 -0.3871  0.2968  0.9033
  852MOL0     O12340   7.033   4.186   0.998  0.1825 -0.0950 -0.2099
  852MOL0     C12341   6.942   4.274   0.921 -0.8706  0.2350 -0.3833
  852MOL0     C12342   6.960   4.406   0.978 -0.0445  1.2827  0.4162
  852MOL0     C12343   6.880   4.524   0.913  1.3915 -0.2125  0.5000
  852MOL0     C12344   6.817   4.620   1.011  0.7647 -0.0432 -0.5139
  852MOL0     C12345   6.712   4.552   1.104  0.1246  0.0013  1.3255
  852MOL0     C12346   6.637   4.665   1.180  0.0408 -0.4445  1.1479
  852MOL0     C12347   6.543   4.622   1.297 -0.1501  0.8004 -0.4783
  852MOL0     C12348   6.406   4.577   1.251  0.1950  0.2229  0.6301
  852MOL0     N12349   6.361   4.445   1.302  0.0061 -0.3822 -0.3548
  852MOL0     C12350   6.382   4.320   1.251 -0.7019 -0.2113 -0.5299
  852MOL0     C12351   6.299   4.235   1.315 -0.4021 -0.0213 -0.8421
  852MOL0     C12352   6.305   4.085   1.294  0.5827 -0.1138 -1.3568
  852MOL0     C12353   6.167   4.015   1.315  0.1068  0.2865 -0.2030
  852MOL0     C12354   6.150   3.881   1.243 -0.3166 -0.2256  0.0136
  852MOL0     C12355   6.024   3.790   1.271  0.1450 -0.4289  0.3634
  852MOL0     O12356   6.025   3.754   1.408 -0.1076 -0.3207 -0.8428
  852MOL0     C12357   5.987   3.627   1.430  0.7830  0.5358  0.7415
  852MOL0     C12358   6.072   3.521   1.411 -0.8205  0.1465 -1.2271
  852MOL0     C12359   6.041   3.385   1.432  0.3235 -0.3962 -0.3959
  852MOL0     C12360   5.910   3.346   1.462 -0.3648  0.1835  0.3440
  852MOL0     C12361   5.858   3.211   1.484 -0.3542 -0.2930 -1.3633
  852MOL0     O12362   5.728   3.194   1.522  0.8943 -0.0267 -0.1944
  852MOL0     C12363   5.682   3.068   1.542  0.2851 -0.5525  0.0263
  852MOL0     C12364   5.620   2.975   1.443 -0.8184  0.1198  0.3837
  852MOL0     C12365   5.583   2.841   1.475 -0.4173  0.0680 -0.0182
  852MOL0     C12366   5.596   2.798   1.601 -0.0942  0.0503 -0.7347
  852MOL0     O12367   5.566   2.662   1.615  0.3602 -0.3306  0.4679
  852MOL0     C12368   5.597   2.594   1.738  0.0163 -0.4234  0.5594
  852MOL0     C12369   5.527   2.466   1.763  0.1934  0.1294 -0.6903
  852MOL0     C12370   5.607   2.395   1.876  0.6350  1.1337 -0.6815
  852MOL0     C12371   5.558   2.251   1.903  0.5354  0.0286  1.0834
  852MOL0     C12372   5.653   2.172   2.001  0.1108  0.0184 -0.1755
  852MOL0     C12373   5.581   2.078   2.097  0.1503 -0.4417 -0.2234
  852MOL0     C12374   5.533   1.955   2.014  0.1003 -0.6444  0.5866
  852MOL0     C12375   5.626   1.833   2.016  0.0290 -0.3597 -0.8587
  852MOL0    Cl12376   5.732   1.827   1.873  0.1469 -0.0011 -0.2962
  852MOL0     C12377   5.658   2.877   1.698 -1.8939 -0.1855  0.4506
  852MOL0     C12378   5.702   3.013   1.666 -0.9250  1.0253 -1.7685
  852MOL0     O12379   5.936   3.113   1.467 -0.3835 -1.0311  0.0259
  852MOL0     C12380   5.814   3.455   1.474  0.4540 -0.7154 -1.2348
  852MOL0     C12381   5.855   3.589   1.458 -0.2529  0.1688 -0.1498
  852MOL0     N12382   6.226   4.305   1.405  0.4735 -0.2772 -0.4175
  852MOL0     N12383   6.263   4.436   1.394 -0.1903  0.4802 -0.7880
  852MOL0     C12384   7.059   3.960   1.068 -1.0216  0.8103 -0.3076
  852MOL0     C12385   7.039   3.821   1.049  0.1317  0.0559 -0.4050
  852MOL0     C12386   7.094   3.436   0.839 -0.2283  0.1186 -0.4771
  852MOL0     C12387   6.971   3.387   0.793  0.3082 -0.4805 -0.9197
  852MOL0     C12388   6.957   3.262   0.743 -0.4590 -0.2956 -0.0948
  852MOL0     C12389   7.065   3.175   0.738 -0.1609  0.1577  0.0640
  852MOL0     O12390   7.040   3.049   0.664 -0.0933 -0.5036 -0.5139
  852MOL0     C12391   7.144   2.955   0.669 -0.4215  0.0964 -0.2116
  852MOL0     C12392   7.154   2.862   0.790  0.4378  0.2397  0.1275
  852MOL0     C12393   7.259   2.760   0.753  0.4804  0.5580 -0.4062
  852MOL0     C12394   7.312   2.660   0.867 -0.1223 -0.5137 -0.0180
  852MOL0     C12395   7.398   2.556   0.812 -0.7473  0.1587  1.4285
  852MOL0     C12396   7.489   2.493   0.757  0.3857  0.3912 -0.0600
  852MOL0     C12397   7.197   3.215   0.791  0.3810  0.4626  1.0395
  852MOL0     C12398   7.209   3.354   0.837  0.6927 -0.2558  1.1378
  852MOL0     H12399   6.909   3.840   0.734 -1.3619 -2.5972  1.4509
  852MOL0     H12400   6.960   4.073   0.760  1.2054  2.0503 -0.0306
  852MOL0     H12401   6.839   4.240   0.928 -0.1214 -1.8999  1.9729
  852MOL0     H12402   6.970   4.270   0.816 -2.5234  1.8023 -0.9204
  852MOL0     H12403   7.066   4.432   0.982  0.1963  0.5054 -0.7699
  852MOL0     H12404   6.922   4.395   1.081 -3.3075 -3.1754 -0.9584
  852MOL0     H12405   6.791   4.485   0.864  0.7953  0.2858  1.1603
  852MOL0     H12406   6.938   4.573   0.834  1.5964 -1.7623 -0.3360
  852MOL0     H12407   6.896   4.660   1.076 -0.6685  0.5523  0.9427
  852MOL0     H12408   6.765   4.708   0.972 -1.6775 -0.2571  1.8876
  852MOL0     H12409   6.760   4.480   1.170  1.6803  0.2022  0.4630
  852MOL0     H12410   6.643   4.501   1.035 -0.0316 -1.4215  2.5002
  852MOL0     H12411   6.593   4.746   1.123  3.6676  0.2601 -0.9270
  852MOL0     H12412   6.714   4.714   1.240  2.2152 -0.3514 -1.5505
  852MOL0     H12413   6.586   4.533   1.345 -1.0485  2.1074  3.0879
  852MOL0     H12414   6.546   4.700   1.374 -0.1456 -0.7900  1.2106
  852MOL0     H12415   6.404   4.580   1.141  0.7411  1.2237  0.6391
  852MOL0     H12416   6.331   4.654   1.274  3.7703  3.6660  1.7453
  852MOL0     H12417   6.461   4.290   1.183  0.3795 -0.7134  0.9061
  852MOL0     H12418   6.382   4.038   1.356 -0.8706 -0.2307  0.4899
  852MOL0     H12419   6.343   4.072   1.193  3.5362 -0.6040 -0.2890
  852MOL0     H12420   6.084   4.081   1.286  0.8643  0.9722 -0.8624
  852MOL0     H12421   6.149   3.997   1.422  1.4092 -0.6066 -0.1207
  852MOL0     H12422   6.158   3.889   1.134 -2.9937  2.1152 -0.1561
  852MOL0     H12423   6.238   3.819   1.260 -0.2326 -0.5546 -1.4724
  852MOL0     H12424   6.041   3.700   1.211  0.2206  0.7325 -1.4335
  852MOL0     H12425   5.930   3.841   1.250 -1.2127 -0.2109  5.5829
  852MOL0     H12426   6.178   3.546   1.411 -0.3501 -0.8539  3.7908
  852MOL0     H12427   6.121   3.312   1.431  0.1709 -0.5719 -0.0186
  852MOL0     H12428   5.614   3.011   1.340 -2.1627 -0.0630  0.3827
  852MOL0     H12429   5.542   2.776   1.399 -2.8624  1.7411 -0.2177
  852MOL0     H12430   5.568   2.657   1.823  0.4130  1.7479 -0.8413
  852MOL0     H12431   5.704   2.576   1.749  0.2475  1.9454  3.9139
  852MOL0     H12432   5.515   2.401   1.675  1.7820 -0.3645 -0.5716
  852MOL0     H12433   5.426   2.479   1.804  0.6359  0.4785  0.2967
  852MOL0     H12434   5.594   2.462   1.962  0.0832  2.6749 -1.9032
  852MOL0     H12435   5.711   2.382   1.846  0.6204  1.4481 -0.8751
  852MOL0     H12436   5.455   2.258   1.942  0.0776  0.2056 -0.1219
  852MOL0     H12437   5.544   2.196   1.810  0.2987  1.5461  0.1889
  852MOL0     H12438   5.705   2.242   2.066  0.5164  0.6466 -1.1580
  852MOL0     H12439   5.726   2.116   1.941  0.5160  1.0902 -0.7080
  852MOL0     H12440   5.497   2.128   2.146  1.6506  0.6819  1.3248
  852MOL0     H12441   5.647   2.050   2.180  0.9052  0.9617 -0.3259
  852MOL0     H12442   5.446   1.918   2.069  1.0244 -3.0705  0.5270
  852MOL0     H12443   5.498   1.976   1.912  0.0068 -3.2299  0.0083
  852MOL0     H12444   5.556   1.749   2.013  0.0786 -0.4100 -0.6554
  852MOL0     H12445   5.681   1.818   2.110  0.9132  0.0078 -1.3036
  852MOL0     H12446   5.674   2.839   1.799  0.4999 -2.0153 -0.5291
  852MOL0     H12447   5.766   3.063   1.738 -1.3511  1.2627 -1.5481
  852MOL0     H12448   5.711   3.431   1.501  1.1288 -1.3147  1.0090
  852MOL0     H12449   5.776   3.662   1.444 -0.1447  0.2573 -0.3123
  852MOL0     H12450   7.088   3.986   1.170  0.8819 -2.1637  0.0674
  852MOL0     H12451   7.053   3.750   1.129 -0.0170 -0.7709 -1.0959
  852MOL0     H12452   6.876   3.440   0.794 -0.4191 -1.6573 -2.6218
  852MOL0     H12453   6.873   3.234   0.680 -0.0799 -0.3399 -0.5945
  852MOL0     H12454   7.235   3.011   0.649 -1.9499  3.9085  2.3503
  852MOL0     H12455   7.121   2.889   0.585 -3.0457 -3.3349  2.8264
  852MOL0     H12456   7.196   2.920   0.873  4.4583 -1.0617 -0.7348
  852MOL0     H12457   7.064   2.803   0.807  1.3293 -1.4087 -0.6227
  852MOL0     H12458   7.340   2.812   0.701  0.1942  0.8413 -0.5742
  852MOL0     H12459   7.209   2.695   0.680 -1.6541  1.6070  0.0539
  852MOL0     H12460   7.358   2.717   0.948  0.2650  1.0601 -1.3078
  852MOL0     H12461   7.221   2.619   0.914 -0.1316 -1.1016 -0.5279
  852MOL0     H12462   7.571   2.448   0.704  0.8033  1.9174 -0.7805
  852MOL0     H12463   7.284   3.151   0.785  1.3384  1.8162 -3.3260
  852MOL0     H12464   7.303   3.386   0.881  0.8030 -0.4108  1.0176
  853MOL0     O12465   0.268  10.978  10.222 -0.0000  0.2618  0.2284
  853MOL0     C12466   0.188  10.944  10.309  0.0341  0.2890 -0.0284
  853MOL0     O12467   0.061  10.994  10.309  0.2413  0.5857  0.0925
  853MOL0     C12468   0.010  11.058  10.202 -0.0084  0.6874  0.1124
  853MOL0     C12469  -0.031  11.186  10.224  0.2879  0.5629 -0.3239
  853MOL0     C12470  -0.084  11.268  10.119 -1.3713  1.2236 -0.0550
  853MOL0     C12471  -0.099  11.208   9.997 -0.2944  0.1011 -0.2645
  853MOL0     O12472  -0.152  11.281   9.896  0.6662 -0.2386  0.5950
  853MOL0     C12473  -0.297  11.302   9.914 -0.5993  0.2175  0.4612
  853MOL0     C12474  -0.363  11.402   9.811 -0.3293 -0.0382  0.8721
  853MOL0     C12475  -0.363  11.349   9.666  0.8133  0.0669 -0.7703
  853MOL0     C12476  -0.498  11.277   9.642 -0.4145 -0.2275 -0.1247
  853MOL0     C12477  -0.499  11.183   9.524 -0.2058 -0.1397 -0.9648
  853MOL0     C12478  -0.514  11.271   9.402 -0.4320 -0.2271 -0.4506
  853MOL0     C12479  -0.576  11.196   9.277  0.2667  0.0869  0.6023
  853MOL0     C12480  -0.727  11.229   9.262  0.5499  0.3661 -0.8128
  853MOL0     N12481  -0.805  11.156   9.364  0.7656 -0.9010  0.4524
  853MOL0     C12482  -0.815  11.020   9.366 -0.3446 -0.2969  0.4275
  853MOL0     C12483  -0.897  10.998   9.469 -0.3587 -0.1827  0.3361
  853MOL0     C12484  -0.940  10.866   9.521  0.2608  0.6518  0.1405
  853MOL0     C12485  -0.837  10.797   9.609 -0.6037  0.0203  1.0969
  853MOL0     C12486  -0.707  10.738   9.533  0.2463 -0.2777  0.6337
  853MOL0     C12487  -0.723  10.651   9.409 -0.0559 -0.0072 -0.2998
  853MOL0     O12488  -0.660  10.712   9.299  0.9862 -0.2591  0.3347
  853MOL0     C12489  -0.526  10.708   9.289 -0.9495 -0.0798 -1.0424
  853MOL0     C12490  -0.479  10.772   9.173 -0.1134 -0.7065 -0.8493
  853MOL0     C12491  -0.350  10.770   9.137 -0.8405 -0.8101  0.5951
  853MOL0     C12492  -0.253  10.694   9.216  0.4960 -0.5147  0.9540
  853MOL0     C12493  -0.117  10.687   9.165 -0.8189 -0.4203  0.3062
  853MOL0     O12494  -0.032  10.636   9.258 -0.3242 -0.3203 -0.2839
  853MOL0     C12495   0.102  10.604   9.238  0.2104 -0.5877 -0.0439
  853MOL0     C12496   0.185  10.677   9.158 -0.1021 -0.2566 -0.0961
  853MOL0     C12497   0.322  10.642   9.157 -0.6696  0.2030 -0.0847
  853MOL0     C12498   0.377  10.538   9.235 -1.4740 -1.1032  0.6865
  853MOL0     O12499   0.510  10.506   9.220  0.0619 -0.2661  0.2781
  853MOL0     C12500   0.598  10.471   9.321  0.3853  0.4252  0.0592
  853MOL0     C12501   0.615  10.576   9.425 -0.0735  0.3521 -0.7594
  853MOL0     C12502   0.702  10.699   9.386 -0.1544  0.2316 -0.3244
  853MOL0     C12503   0.760  10.773   9.508 -0.0765 -1.0016  0.5154
  853MOL0     C12504   0.821  10.911   9.470  0.1201 -0.2648 -0.6591
  853MOL0     C12505   0.934  10.911   9.367  0.2188 -0.3496  0.1008
  853MOL0     C12506   0.986  11.061   9.354 -0.1817 -0.3471  0.9783
  853MOL0     C12507   1.082  11.118   9.465  0.1692 -0.1205 -0.7225
  853MOL0    Cl12508   1.082  11.298   9.450 -0.2164 -0.3855 -0.6300
  853MOL0     C12509   0.286  10.458   9.311 -0.2926 -0.2528  0.8833
  853MOL0     C12510   0.150  10.501   9.316  0.5290  1.5412 -0.2400
  853MOL0     O12511  -0.089  10.703   9.044 -0.1886  0.2915  0.8253
  853MOL0     C12512  -0.298  10.631   9.331  0.0103  0.4560  0.2658
  853MOL0     C12513  -0.430  10.638   9.371  0.6057 -0.1482  1.1067
  853MOL0     N12514  -0.936  11.119   9.523 -0.4706  0.1709  0.1155
  853MOL0     N12515  -0.868  11.213   9.461  0.8590  0.5581  0.1086
  853MOL0     C12516  -0.056  11.075   9.973  0.6316  0.5113 -0.3168
  853MOL0     C12517  -0.007  11.004  10.076 -0.1988  0.4052 -0.4848
  853MOL0     C12518   0.237  10.856  10.412  0.4510 -1.1325  0.2493
  853MOL0     C12519   0.369  10.804  10.409 -0.0285  0.5239 -0.9259
  853MOL0     C12520   0.411  10.716  10.512 -0.1748  0.9766  0.0623
  853MOL0     C12521   0.328  10.687  10.623  0.7680  0.5276  0.7417
  853MOL0     O12522   0.372  10.616  10.727 -1.2471  0.4831 -0.6253
  853MOL0     C12523   0.446  10.497  10.710 -0.4413  0.1611  1.0063
  853MOL0     C12524   0.500  10.481  10.856  0.3435 -0.8121 -0.7274
  853MOL0     C12525   0.589  10.602  10.896  0.4525 -0.1526 -0.2727
  853MOL0     C12526   0.684  10.565  11.010 -0.7515  0.6633  0.6478
  853MOL0     C12527   0.626  10.476  11.114 -0.0816 -0.3035 -0.1986
  853MOL0     C12528   0.562  10.404  11.193  0.1467  0.6196 -0.8659
  853MOL0     C12529   0.205  10.760  10.629  0.4822  0.2554  0.0793
  853MOL0     C12530   0.163  10.845  10.528  0.1379 -0.1409 -0.6688
  853MOL0     H12531  -0.005  11.231  10.319 -0.6582  3.2342 -1.2452
  853MOL0     H12532  -0.106  11.372  10.136  0.2632  1.9860 -2.1360
  853MOL0     H12533  -0.313  11.345  10.013 -2.8141  1.8326 -0.5364
  853MOL0     H12534  -0.346  11.204   9.912  0.2320 -0.2075 -0.0384
  853MOL0     H12535  -0.317  11.501   9.805 -1.9557  0.7032 -4.1942
  853MOL0     H12536  -0.468  11.420   9.837 -0.1165  2.1535  0.4466
  853MOL0     H12537  -0.275  11.284   9.656  1.7475  1.3912 -1.4352
  853MOL0     H12538  -0.358  11.432   9.595 -3.3860 -0.7747 -2.3358
  853MOL0     H12539  -0.512  11.216   9.732 -4.5476 -2.8580 -2.2355
  853MOL0     H12540  -0.566  11.359   9.619 -0.7155 -0.5940 -0.5560
  853MOL0     H12541  -0.593  11.126   9.530 -0.6050  0.6524  1.4452
  853MOL0     H12542  -0.413  11.116   9.523 -0.7178 -0.8527  0.1864
  853MOL0     H12543  -0.413  11.297   9.366 -0.4215 -0.7187 -0.7843
  853MOL0     H12544  -0.569  11.362   9.424  1.7648  1.5369 -1.7663
  853MOL0     H12545  -0.522  11.234   9.190  1.2262  0.1644  1.2101
  853MOL0     H12546  -0.566  11.087   9.281 -0.1233  0.0365  0.2615
  853MOL0     H12547  -0.766  11.204   9.163 -1.8939 -1.0618  0.4272
  853MOL0     H12548  -0.733  11.337   9.276  0.3916  0.5422 -2.1250
  853MOL0     H12549  -0.765  10.951   9.298  0.7404 -0.0946  1.0069
  853MOL0     H12550  -0.955  10.809   9.429  2.1294  1.9065 -1.0128
  853MOL0     H12551  -1.025  10.890   9.586  0.3572  2.2410 -0.2854
  853MOL0     H12552  -0.884  10.712   9.658 -1.0201  0.7774  2.0386
  853MOL0     H12553  -0.802  10.869   9.684  0.1544  1.3801 -0.4789
  853MOL0     H12554  -0.649  10.825   9.501 -1.4516  0.7746  0.3362
  853MOL0     H12555  -0.643  10.678   9.599 -0.2727 -0.7032  0.7589
  853MOL0     H12556  -0.824  10.641   9.369 -1.0042 -0.5498  2.0150
  853MOL0     H12557  -0.692  10.547   9.425  3.2758  0.9287 -0.0758
  853MOL0     H12558  -0.551  10.819   9.106 -3.2669 -3.0860  0.6166
  853MOL0     H12559  -0.327  10.817   9.042  0.3315  0.1584  1.3281
  853MOL0     H12560   0.144  10.755   9.094  0.8750 -0.1846 -0.6613
  853MOL0     H12561   0.372  10.695   9.076 -2.8294  0.5852 -1.2622
  853MOL0     H12562   0.699  10.450   9.284  0.0819 -0.1755 -0.4439
  853MOL0     H12563   0.561  10.381   9.370 -3.3664  1.4274 -0.6724
  853MOL0     H12564   0.673  10.522   9.500  0.7624  0.4224 -1.3360
  853MOL0     H12565   0.521  10.612   9.467 -0.3932 -1.2054 -0.0630
  853MOL0     H12566   0.641  10.773   9.333 -0.8119  3.2884  4.1532
  853MOL0     H12567   0.787  10.669   9.325  1.9266  1.0170  2.0204
  853MOL0     H12568   0.679  10.792   9.579 -1.5891  0.2040 -1.4078
  853MOL0     H12569   0.832  10.704   9.553  2.6190  0.1011 -1.7976
  853MOL0     H12570   0.864  10.947   9.565 -2.4288  2.4378 -0.3705
  853MOL0     H12571   0.741  10.984   9.450 -0.6909 -1.0729 -0.4397
  853MOL0     H12572   0.884  10.883   9.273 -1.1589  0.8689  0.4377
  853MOL0     H12573   1.023  10.851   9.388  1.1489  1.1341  0.4885
  853MOL0     H12574   1.055  11.056   9.269  1.8018 -0.2028  2.4997
  853MOL0     H12575   0.907  11.134   9.334  0.4697  0.7891  2.3674
  853MOL0     H12576   1.183  11.077   9.450  0.0085 -1.0706  0.6661
  853MOL0     H12577   1.040  11.075   9.556 -2.7984 -1.0667 -2.4315
  853MOL0     H12578   0.319  10.381   9.380  0.2787 -0.1587  0.7195
  853MOL0     H12579   0.083  10.457   9.389 -0.4408 -0.8434 -2.4327
  853MOL0     H12580  -0.235  10.571   9.395 -0.0658 -0.7914 -0.7891
  853MOL0     H12581  -0.472  10.585   9.456  1.2632 -2.7373 -0.0901
  853MOL0     H12582  -0.068  11.019   9.881 -1.3543 -0.3834  0.4141
  853MOL0     H12583   0.006  10.896  10.068 -0.9770  0.4529 -3.6545
  853MOL0     H12584   0.415  10.838  10.317 -3.3504  0.6021 -2.7182
  853MOL0     H12585   0.511  10.672  10.512  0.4737  2.1635  3.6631
  853MOL0     H12586   0.527  10.505  10.637  0.2457  0.3592  1.7794
  853MOL0     H12587   0.385  10.409  10.688  0.6972 -0.3342 -0.3399
  853MOL0     H12588   0.412  10.483  10.920  1.7267  2.3404  1.3488
  853MOL0     H12589   0.548  10.383  10.861  0.0470 -1.0547 -2.0794
  853MOL0     H12590   0.518  10.681  10.923 -0.6257 -0.9128 -0.8064
  853MOL0     H12591   0.658  10.638  10.820 -1.7979  3.1914 -0.9649
  853MOL0     H12592   0.779  10.520  10.978 -2.5569 -3.9151  1.0171
  853MOL0     H12593   0.719  10.651  11.066 -1.5755  0.9751  0.7000
  853MOL0     H12594   0.523  10.340  11.270 -1.3144  2.3731 -0.0693
  853MOL0     H12595   0.133  10.758  10.710 -2.9484  1.4020 -2.6779
  853MOL0     H12596   0.069  10.900  10.529  1.3495  2.1116 -2.5040
  854MOL0     O12597   5.475   2.822   9.364 -0.2254 -0.6456 -0.7278
  854MOL0     C12598   5.550   2.788   9.276  0.0051  0.0902  0.2648
  854MOL0     O12599   5.550   2.666   9.211  0.0561 -0.7432  0.3118
  854MOL0     C12600   5.459   2.573   9.236 -0.2280 -1.0826  0.6155
  854MOL0     C12601   5.320   2.604   9.211 -0.4993 -0.4410  0.1237
  854MOL0     C12602   5.226   2.503   9.234  0.6510  0.6007 -0.9200
  854MOL0     C12603   5.267   2.381   9.300  0.6657 -0.1714 -1.2228
  854MOL0     O12604   5.194   2.276   9.329  0.1620  0.4621  0.0291
  854MOL0     C12605   5.204   2.167   9.235  0.0120 -0.0523 -0.8127
  854MOL0     C12606   5.077   2.085   9.242  0.4836  0.5711  0.1189
  854MOL0     C12607   5.086   1.940   9.313  0.4138 -1.7485  0.6497
  854MOL0     C12608   5.155   1.835   9.226 -0.3292 -1.2094  0.0271
  854MOL0     C12609   5.130   1.686   9.264 -0.4091  0.5689 -0.2194
  854MOL0     C12610   4.998   1.631   9.221  0.6168  0.3585 -0.8646
  854MOL0     C12611   4.973   1.487   9.276 -0.4564 -0.0381 -0.8361
  854MOL0     C12612   4.915   1.471   9.419  0.5180  0.2839  0.5592
  854MOL0     N12613   4.772   1.470   9.436  0.3612  0.6552 -0.3033
  854MOL0     C12614   4.698   1.564   9.495 -0.1210 -0.1724 -0.3268
  854MOL0     C12615   4.564   1.525   9.494  0.5360 -0.9183 -0.0367
  854MOL0     C12616   4.447   1.613   9.547  0.0122  0.0516  0.6397
  854MOL0     C12617   4.465   1.658   9.694  0.2830  0.6537  0.4914
  854MOL0     C12618   4.340   1.738   9.744  0.1396 -0.1079 -0.1730
  854MOL0     C12619   4.342   1.791   9.897 -0.6027  0.7873  0.3016
  854MOL0     O12620   4.306   1.690   9.994  0.1077 -0.3888 -0.2304
  854MOL0     C12621   4.177   1.679  10.036 -0.1649 -0.5111 -0.7967
  854MOL0     C12622   4.123   1.553  10.053  0.2447  1.1949 -0.6225
  854MOL0     C12623   3.987   1.525  10.076 -1.2484  0.5789 -0.3247
  854MOL0     C12624   3.897   1.632  10.103  0.3866  0.5230 -0.2286
  854MOL0     C12625   3.749   1.598  10.125 -0.9815 -0.5102 -0.1584
  854MOL0     O12626   3.664   1.710  10.125 -0.7238  0.3936  0.5313
  854MOL0     C12627   3.537   1.693  10.176  0.6798  1.0945  0.8799
  854MOL0     C12628   3.516   1.625  10.299 -0.3565  0.4042  0.8772
  854MOL0     C12629   3.378   1.628  10.353 -0.3389  0.8335  0.3498
  854MOL0     C12630   3.271   1.690  10.285  1.2305 -0.2034  0.2622
  854MOL0     O12631   3.138   1.697  10.324  0.7373  0.3151  0.4589
  854MOL0     C12632   3.074   1.572  10.360 -0.1365  0.6788 -0.0392
  854MOL0     C12633   2.964   1.587  10.473 -0.1054 -0.4327  0.2243
  854MOL0     C12634   2.867   1.700  10.438  0.7033 -0.1768 -0.0334
  854MOL0     C12635   2.795   1.776  10.559  0.3788  0.8268  0.3406
  854MOL0     C12636   2.739   1.911  10.508 -0.9972  0.3113  0.9202
  854MOL0     C12637   2.598   1.903  10.453 -0.1439 -0.4820 -0.2887
  854MOL0     C12638   2.546   2.040  10.417  0.0705  0.1811  0.6163
  854MOL0     C12639   2.408   2.029  10.345 -0.1375 -0.0897 -0.8092
  854MOL0    Cl12640   2.283   1.961  10.455 -0.2007  0.2321 -0.3041
  854MOL0     C12641   3.301   1.762  10.171 -0.0444 -0.1280  0.7177
  854MOL0     C12642   3.428   1.761  10.113  0.2028 -0.1889 -0.5235
  854MOL0     O12643   3.715   1.483  10.142  0.5098  0.2920  0.5280
  854MOL0     C12644   3.946   1.765  10.091 -0.1203 -0.7407 -0.3478
  854MOL0     C12645   4.086   1.782  10.063 -0.8044  0.1404 -0.2068
  854MOL0     N12646   4.558   1.413   9.414 -0.1153  0.2501 -0.7181
  854MOL0     N12647   4.684   1.373   9.393  0.0913  0.5256  0.0487
  854MOL0     C12648   5.400   2.369   9.334  0.8168  0.4342  0.0806
  854MOL0     C12649   5.497   2.452   9.307 -0.3279 -0.6782 -0.0335
  854MOL0     C12650   5.658   2.883   9.234 -0.0920  0.1684  0.4074
  854MOL0     C12651   5.653   3.014   9.273 -0.1248 -0.1980 -0.5197
  854MOL0     C12652   5.753   3.100   9.233  0.1580  0.0896 -0.8371
  854MOL0     C12653   5.865   3.058   9.165  0.4669  0.2371 -0.1057
  854MOL0     O12654   5.974   3.139   9.133  0.6696  0.3525  0.4274
  854MOL0     C12655   6.017   3.235   9.232  0.0864  0.3751  0.2444
  854MOL0     C12656   6.158   3.276   9.189  0.6592 -0.0190  0.1570
  854MOL0     C12657   6.242   3.161   9.130  0.2625  0.4833  0.2489
  854MOL0     C12658   6.249   3.039   9.227 -0.6792  0.2006  1.0704
  854MOL0     C12659   6.313   3.073   9.358 -0.5338 -1.2693 -0.1677
  854MOL0     C12660   6.369   3.090   9.469 -0.0178 -0.2954  0.2838
  854MOL0     C12661   5.867   2.922   9.125 -0.2065 -0.2511 -0.0660
  854MOL0     C12662   5.764   2.833   9.158 -0.8201  0.2918 -0.4965
  854MOL0     H12663   5.297   2.700   9.165  0.4054  0.4544  1.4382
  854MOL0     H12664   5.122   2.524   9.210 -0.0522 -0.5353  0.8858
  854MOL0     H12665   5.290   2.103   9.258 -1.0659 -1.0651  0.5753
  854MOL0     H12666   5.220   2.201   9.132 -0.6254  1.2100 -0.5152
  854MOL0     H12667   5.033   2.058   9.146 -0.7613 -0.6188  0.9810
  854MOL0     H12668   5.006   2.143   9.300  0.4559  1.6739 -0.9787
  854MOL0     H12669   4.986   1.910   9.346  0.0525 -1.5780 -0.2749
  854MOL0     H12670   5.153   1.951   9.399  2.8645 -2.0379 -1.1198
  854MOL0     H12671   5.137   1.848   9.119 -1.0460 -1.3138  0.1239
  854MOL0     H12672   5.262   1.852   9.233 -1.0592  4.8216  2.9503
  854MOL0     H12673   5.134   1.674   9.373 -1.3731 -2.9065 -0.4781
  854MOL0     H12674   5.218   1.629   9.233  1.7617  3.0184  1.0461
  854MOL0     H12675   5.000   1.632   9.112  2.0883  1.2965 -0.8623
  854MOL0     H12676   4.914   1.697   9.244  0.4366 -0.2743  0.4132
  854MOL0     H12677   4.910   1.435   9.203 -0.8649 -3.3669  1.6614
  854MOL0     H12678   5.069   1.434   9.273 -1.2178 -2.0305  3.0309
  854MOL0     H12679   4.954   1.558   9.472  0.6276  0.4450  0.2174
  854MOL0     H12680   4.950   1.377   9.463 -0.1314  0.1057  0.6965
  854MOL0     H12681   4.724   1.655   9.548 -3.2191  0.2185  0.7715
  854MOL0     H12682   4.352   1.560   9.531 -0.7757  1.3691  0.8431
  854MOL0     H12683   4.441   1.712   9.500  2.0309  0.5661  1.3898
  854MOL0     H12684   4.551   1.725   9.706 -0.0158  1.0264  0.5608
  854MOL0     H12685   4.459   1.568   9.756  0.1697  1.5473  1.8012
  854MOL0     H12686   4.326   1.827   9.682 -0.2200 -0.4271 -0.5576
  854MOL0     H12687   4.247   1.686   9.718  0.1075  1.0124 -2.4700
  854MOL0     H12688   4.278   1.880   9.900 -4.0932 -1.4268 -1.5193
  854MOL0     H12689   4.442   1.823   9.926  0.6301 -0.3603 -2.3720
  854MOL0     H12690   4.198   1.475  10.051  1.1322  2.0273 -2.4596
  854MOL0     H12691   3.954   1.423  10.085 -2.2215  0.9605  0.7350
  854MOL0     H12692   3.592   1.572  10.355  0.2196  1.6776  1.3374
  854MOL0     H12693   3.352   1.580  10.446 -1.7055 -0.4307 -0.6345
  854MOL0     H12694   3.143   1.502  10.408 -1.2890  0.9178  2.1000
  854MOL0     H12695   3.023   1.531  10.273  0.4168 -0.5651  0.2110
  854MOL0     H12696   3.021   1.615  10.562  0.4631 -1.6785  0.2644
  854MOL0     H12697   2.906   1.496  10.490 -0.6789  0.1253  1.3402
  854MOL0     H12698   2.781   1.665  10.379 -0.2097 -1.6511  2.0728
  854MOL0     H12699   2.921   1.781  10.387 -0.2800  2.0765  2.3019
  854MOL0     H12700   2.726   1.711  10.615  0.3135  1.7028  1.3240
  854MOL0     H12701   2.875   1.799  10.631  1.0932  2.5789 -0.9471
  854MOL0     H12702   2.805   1.959  10.436  1.9112 -1.8412  1.9671
  854MOL0     H12703   2.726   1.980  10.592  2.3547  2.0912  0.1463
  854MOL0     H12704   2.526   1.863  10.525 -2.8985  4.1086 -0.0932
  854MOL0     H12705   2.600   1.836  10.366  1.6805 -0.8714  0.0282
  854MOL0     H12706   2.524   2.097  10.508 -5.2728  1.0227 -0.8706
  854MOL0     H12707   2.609   2.100  10.351 -2.3615  1.7938 -0.3684
  854MOL0     H12708   2.414   1.970  10.254  1.4283 -1.2947  0.0108
  854MOL0     H12709   2.377   2.124  10.302 -1.0598 -0.6649 -1.4618
  854MOL0     H12710   3.222   1.814  10.117  0.7243  0.5800  0.2611
  854MOL0     H12711   3.453   1.819  10.025 -2.7347  4.0005  1.0967
  854MOL0     H12712   3.881   1.849  10.112  1.0912 -0.1864  1.4731
  854MOL0     H12713   4.136   1.878  10.063 -1.4773  0.6208  3.4202
  854MOL0     H12714   5.430   2.281   9.390 -0.2260  1.7083  2.8640
  854MOL0     H12715   5.594   2.428   9.349 -1.0732 -1.5527  1.2830
  854MOL0     H12716   5.580   3.054   9.343 -0.1725  2.5840 -2.0387
  854MOL0     H12717   5.749   3.196   9.283  0.5689 -2.4003  4.7733
  854MOL0     H12718   6.029   3.175   9.322  2.1612 -1.3199 -1.0576
  854MOL0     H12719   5.965   3.331   9.243  4.1803  3.7821 -4.9825
  854MOL0     H12720   6.147   3.358   9.118  2.9361 -0.2348 -0.5231
  854MOL0     H12721   6.217   3.324   9.268 -2.0084  0.6894  1.8358
  854MOL0     H12722   6.339   3.198   9.098 -1.2379  3.3318 -1.3856
  854MOL0     H12723   6.191   3.126   9.040  2.3333 -1.7243 -0.1792
  854MOL0     H12724   6.153   2.992   9.252 -0.8122 -1.8879 -2.6723
  854MOL0     H12725   6.305   2.961   9.175 -0.5247  0.3915  0.9504
  854MOL0     H12726   6.412   3.115   9.564 -0.1385  2.3305 -0.2761
  854MOL0     H12727   5.951   2.894   9.063 -0.0278 -0.4913  0.2841
  854MOL0     H12728   5.763   2.730   9.126 -1.3107 -0.3565  1.4898
  855MOL0     O12729   5.527   1.590   2.256  0.5272  0.7090  0.1954
  855MOL0     C12730   5.491   1.562   2.371 -0.1834 -0.6447  0.2177
  855MOL0     O12731   5.493   1.436   2.420  0.1369 -0.4921 -0.0515
  855MOL0     C12732   5.491   1.325   2.343  0.0626 -0.3824 -0.2083
  855MOL0     C12733   5.428   1.315   2.223  0.7722  0.2248  0.3011
  855MOL0     C12734   5.431   1.187   2.154 -0.2025 -0.2616  0.3437
  855MOL0     C12735   5.510   1.080   2.198  0.6204  0.5014 -0.2796
  855MOL0     O12736   5.518   0.957   2.134  0.1132 -0.0506  0.9117
  855MOL0     C12737   5.482   0.943   1.992  0.9941 -0.3412 -0.2451
  855MOL0     C12738   5.428   0.807   1.960  0.9317 -0.6757  0.0057
  855MOL0     C12739   5.309   0.766   2.048 -0.5568 -0.4998 -0.2293
  855MOL0     C12740   5.251   0.629   2.008  0.9650  0.0297 -0.0962
  855MOL0     C12741   5.119   0.587   2.080 -0.7425  0.0224 -0.5201
  855MOL0     C12742   4.993   0.667   2.060  0.0867  0.7134 -0.6515
  855MOL0     C12743   4.881   0.603   2.147  0.4877  0.0858 -0.2294
  855MOL0     C12744   4.803   0.717   2.212  0.1128 -0.0154  0.6705
  855MOL0     N12745   4.859   0.782   2.336 -0.2932  0.4808 -0.4640
  855MOL0     C12746   4.996   0.799   2.361  0.2784  0.4343  0.3336
  855MOL0     C12747   5.011   0.857   2.478  0.7859 -0.6161  0.9052
  855MOL0     C12748   5.152   0.877   2.535  0.3099  0.0196  0.3598
  855MOL0     C12749   5.151   1.027   2.579  0.5246 -0.3459 -0.4411
  855MOL0     C12750   5.279   1.061   2.651  0.1925 -0.9227 -0.0901
  855MOL0     C12751   5.278   1.193   2.742  0.1674  0.7183  0.4660
  855MOL0     O12752   5.407   1.207   2.788 -0.5864  0.7671 -0.3507
  855MOL0     C12753   5.447   1.333   2.836  0.2171  1.0087 -0.8441
  855MOL0     C12754   5.586   1.353   2.841 -0.6646 -0.5313  0.3701
  855MOL0     C12755   5.638   1.471   2.876  0.4783 -0.6261  0.1666
  855MOL0     C12756   5.551   1.580   2.914  0.3071 -0.5512 -0.2317
  855MOL0     C12757   5.620   1.696   2.985  0.4735  0.3939 -0.1023
  855MOL0     O12758   5.536   1.806   3.014 -0.8136  0.2512  0.3084
  855MOL0     C12759   5.577   1.908   3.095  0.3546 -0.1927 -0.1842
  855MOL0     C12760   5.501   2.030   3.077 -0.7103  0.0388 -0.5060
  855MOL0     C12761   5.510   2.129   3.173 -0.4953  0.0139  0.4609
  855MOL0     C12762   5.579   2.108   3.301 -0.2863 -0.2347  0.6314
  855MOL0     O12763   5.574   2.187   3.411  0.1402 -0.0808 -0.0070
  855MOL0     C12764   5.471   2.277   3.418 -0.6252 -0.4015  0.0873
  855MOL0     C12765   5.466   2.349   3.559  0.7709 -0.5313  0.3212
  855MOL0     C12766   5.438   2.242   3.672 -0.0090  0.5538  0.5354
  855MOL0     C12767   5.434   2.309   3.807 -0.8562  0.2705  0.1124
  855MOL0     C12768   5.380   2.227   3.929 -0.0860  0.3048 -0.8538
  855MOL0     C12769   5.473   2.191   4.046  0.1799 -0.4983  0.4619
  855MOL0     C12770   5.542   2.319   4.109 -0.8770  0.4092 -0.1603
  855MOL0     C12771   5.566   2.298   4.259  0.0702  0.5570 -0.0316
  855MOL0    Cl12772   5.409   2.337   4.345  0.0194 -0.2945 -0.1838
  855MOL0     C12773   5.651   1.997   3.309 -0.4403 -0.0735 -0.4300
  855MOL0     C12774   5.657   1.894   3.213 -0.0054  0.0265  0.3644
  855MOL0     O12775   5.736   1.676   3.019  0.1778  0.4300 -0.8789
  855MOL0     C12776   5.419   1.557   2.925  0.1293  0.4736  0.1765
  855MOL0     C12777   5.362   1.435   2.879  0.3441 -0.1795 -0.8398
  855MOL0     N12778   4.881   0.885   2.523  0.2918  0.2917  0.5328
  855MOL0     N12779   4.798   0.841   2.438  0.1362  0.6459 -0.4136
  855MOL0     C12780   5.572   1.092   2.323 -0.9545  0.4309  0.1663
  855MOL0     C12781   5.551   1.214   2.404 -0.2077  0.4820  0.1343
  855MOL0     C12782   5.453   1.680   2.449  0.0226  0.3043  0.2370
  855MOL0     C12783   5.424   1.797   2.378  0.8526  0.2772 -0.2749
  855MOL0     C12784   5.379   1.910   2.440  0.0858  0.0345  0.0690
  855MOL0     C12785   5.372   1.900   2.582 -0.4959 -0.5999  0.3442
  855MOL0     O12786   5.336   2.004   2.660 -0.2881  0.5528 -0.6414
  855MOL0     C12787   5.296   2.136   2.613 -0.1340 -0.5060 -0.2710
  855MOL0     C12788   5.154   2.110   2.563  0.1717  0.3280 -0.3411
  855MOL0     C12789   5.077   2.231   2.514  0.4207  0.0383  0.8264
  855MOL0     C12790   4.950   2.194   2.443 -0.7742  0.3553  0.2369
  855MOL0     C12791   4.861   2.314   2.423  0.0661 -0.4154  0.5235
  855MOL0     C12792   4.780   2.410   2.415 -0.2869  1.2926  0.4398
  855MOL0     C12793   5.406   1.792   2.654  0.0082  0.9027 -0.9873
  855MOL0     C12794   5.433   1.675   2.592 -1.0235  0.3773 -0.5287
  855MOL0     H12795   5.367   1.394   2.181  1.1125 -1.5001 -3.9318
  855MOL0     H12796   5.365   1.174   2.069 -1.8129  0.3368  1.4351
  855MOL0     H12797   5.565   0.957   1.923 -0.0091  2.3038 -1.0484
  855MOL0     H12798   5.410   1.018   1.957  0.3022 -0.9160 -0.0881
  855MOL0     H12799   5.505   0.730   1.969  0.2640 -1.7170 -2.3120
  855MOL0     H12800   5.400   0.815   1.854  0.5095  2.3944  0.2331
  855MOL0     H12801   5.236   0.847   2.046  2.1742  2.1485  0.2615
  855MOL0     H12802   5.342   0.771   2.152 -0.3355  3.2276 -0.3402
  855MOL0     H12803   5.230   0.626   1.901  1.3941  0.2982 -0.1948
  855MOL0     H12804   5.327   0.552   2.025  2.0466  1.2865  1.0579
  855MOL0     H12805   5.142   0.585   2.186 -0.7740  0.4209 -0.5062
  855MOL0     H12806   5.096   0.485   2.046  1.0451 -0.1022 -1.4696
  855MOL0     H12807   4.959   0.672   1.956  0.4015  2.7868 -0.6800
  855MOL0     H12808   5.022   0.766   2.095  1.3683 -0.1766  0.9734
  855MOL0     H12809   4.815   0.542   2.085  0.5697 -1.4552  1.1282
  855MOL0     H12810   4.905   0.539   2.233 -2.8316 -2.6849 -1.1591
  855MOL0     H12811   4.706   0.677   2.245 -0.8504 -0.4156 -2.3491
  855MOL0     H12812   4.780   0.795   2.140 -0.6626  0.9954  1.9659
  855MOL0     H12813   5.075   0.774   2.292 -0.0081 -0.0871  0.1863
  855MOL0     H12814   5.226   0.863   2.455  0.2737 -1.7740  0.6077
  855MOL0     H12815   5.171   0.804   2.614 -0.8203  0.2823  0.8926
  855MOL0     H12816   5.066   1.029   2.647 -2.6969  1.5811 -4.1234
  855MOL0     H12817   5.142   1.098   2.496  3.6058  1.6546  0.7325
  855MOL0     H12818   5.320   0.987   2.720  4.0633  0.0275 -1.1273
  855MOL0     H12819   5.351   1.068   2.569 -0.9833  1.0362 -1.0347
  855MOL0     H12820   5.231   1.183   2.840  0.8943 -1.7809  0.6269
  855MOL0     H12821   5.243   1.279   2.683 -1.8270 -0.7334 -0.6270
  855MOL0     H12822   5.654   1.277   2.804  1.5038 -0.4292  3.7563
  855MOL0     H12823   5.747   1.472   2.874  0.4869 -1.6210 -1.4676
  855MOL0     H12824   5.437   2.035   2.990  0.8967  1.3393 -1.6977
  855MOL0     H12825   5.461   2.221   3.143 -0.1760  0.3040  0.8152
  855MOL0     H12826   5.368   2.241   3.410 -2.0470  2.1783  3.8479
  855MOL0     H12827   5.482   2.359   3.346 -3.0030 -0.7343 -0.7491
  855MOL0     H12828   5.388   2.425   3.547  1.8530  0.4540 -0.7147
  855MOL0     H12829   5.560   2.402   3.576  0.3484  1.9946 -3.8435
  855MOL0     H12830   5.523   2.175   3.653 -0.2994  0.9466 -2.7810
  855MOL0     H12831   5.350   2.181   3.649  0.3067  0.0546  0.6156
  855MOL0     H12832   5.536   2.345   3.826 -0.2751  0.5172 -3.0008
  855MOL0     H12833   5.363   2.390   3.789 -0.2792  0.2930 -2.3632
  855MOL0     H12834   5.338   2.131   3.897 -1.5153  1.1507 -1.5966
  855MOL0     H12835   5.296   2.286   3.966  1.2569  2.8437 -1.5692
  855MOL0     H12836   5.549   2.126   4.003  1.5088  0.3527  1.4322
  855MOL0     H12837   5.430   2.136   4.130  3.5399 -0.5074  2.3545
  855MOL0     H12838   5.632   2.329   4.049  0.6855 -1.9843  1.6104
  855MOL0     H12839   5.470   2.398   4.087 -3.2626 -1.6069 -0.0957
  855MOL0     H12840   5.631   2.379   4.295 -1.3056  3.4437 -3.4573
  855MOL0     H12841   5.604   2.202   4.293 -2.7491 -0.4144  0.6446
  855MOL0     H12842   5.695   1.980   3.407  0.7000 -1.4821 -1.1520
  855MOL0     H12843   5.704   1.797   3.229 -0.4202 -0.0672  1.0807
  855MOL0     H12844   5.350   1.627   2.971 -0.4236 -0.2426  0.4587
  855MOL0     H12845   5.255   1.416   2.874  0.1715 -0.1219  1.4568
  855MOL0     H12846   5.615   1.006   2.372 -0.1939  1.8658  2.1561
  855MOL0     H12847   5.577   1.213   2.509  0.4712  0.5711 -0.0303
  855MOL0     H12848   5.426   1.807   2.270 -0.6390 -0.3882 -0.3818
  855MOL0     H12849   5.362   2.011   2.404  1.8486  0.1897 -0.3966
  855MOL0     H12850   5.361   2.154   2.527 -2.5138  0.9604 -1.8616
  855MOL0     H12851   5.285   2.202   2.699 -2.0723  1.0102 -1.6099
  855MOL0     H12852   5.158   2.029   2.489 -1.2102  0.6181 -0.7682
  855MOL0     H12853   5.090   2.071   2.643 -2.4432 -1.7362 -3.1752
  855MOL0     H12854   5.139   2.286   2.442 -1.7421 -0.3006 -1.4426
  855MOL0     H12855   5.058   2.299   2.597  1.7212  1.3805  0.0601
  855MOL0     H12856   4.980   2.152   2.346 -0.1297  3.4214 -1.0395
  855MOL0     H12857   4.879   2.144   2.509 -1.7632  1.8141  0.3301
  855MOL0     H12858   4.726   2.502   2.416 -1.6262  0.5659 -1.2660
  855MOL0     H12859   5.393   1.780   2.761  2.7725  2.1387 -0.4006
  855MOL0     H12860   5.423   1.584   2.651 -0.2495 -0.5038 -1.7081
  856MOL0     O12861   1.961   5.591   4.051 -0.1071 -0.3952 -0.3673
  856MOL0     C12862   2.075   5.639   4.070 -0.2014  0.3787 -0.5830
  856MOL0     O12863   2.181   5.642   3.977  0.6973 -0.3053  0.5513
  856MOL0     C12864   2.205   5.558   3.872  1.0816  1.0070  0.6906
  856MOL0     C12865   2.275   5.604   3.761 -0.3739 -0.0565 -1.0003
  856MOL0     C12866   2.289   5.532   3.645  0.5052  0.6671 -0.2248
  856MOL0     C12867   2.225   5.406   3.635 -0.2034 -0.2704 -0.3474
  856MOL0     O12868   2.219   5.345   3.512 -0.2544  0.1894 -0.1131
  856MOL0     C12869   2.157   5.214   3.491  0.1773 -0.4288 -0.0624
  856MOL0     C12870   2.264   5.098   3.502 -0.9342 -0.1771  0.3664
  856MOL0     C12871   2.386   5.120   3.399  0.1358  0.9079 -0.0702
  856MOL0     C12872   2.474   4.988   3.401 -0.2349 -0.4807 -1.0711
  856MOL0     C12873   2.545   4.958   3.530  0.2433  0.0980 -0.5245
  856MOL0     C12874   2.639   5.059   3.571 -0.9460  0.6774 -0.3895
  856MOL0     C12875   2.688   5.029   3.715  0.4539  0.8619 -0.1493
  856MOL0     C12876   2.596   5.070   3.828 -0.5296  0.3918  0.1561
  856MOL0     N12877   2.680   5.085   3.951  0.0177 -1.2437  0.5485
  856MOL0     C12878   2.753   5.190   3.980  0.7905  0.3665 -0.2268
  856MOL0     C12879   2.808   5.149   4.097 -0.4000  0.0807 -0.2894
  856MOL0     C12880   2.905   5.233   4.176 -0.1501 -0.0209  0.3802
  856MOL0     C12881   2.840   5.379   4.198 -0.1492  0.7342  0.6490
  856MOL0     C12882   2.948   5.485   4.228  0.2841 -1.1374 -0.0218
  856MOL0     C12883   3.033   5.514   4.107  0.8546  0.1415 -0.1966
  856MOL0     O12884   2.946   5.508   3.990  0.6311  0.8139 -0.4389
  856MOL0     C12885   3.006   5.478   3.876  0.4246 -0.2075  0.6167
  856MOL0     C12886   3.124   5.551   3.830  0.5287 -0.5766 -0.3929
  856MOL0     C12887   3.180   5.516   3.707 -0.5914  0.6608  0.3819
  856MOL0     C12888   3.128   5.410   3.628 -0.2032 -0.2139 -0.7619
  856MOL0     C12889   3.200   5.352   3.514  0.1777 -0.2648  0.6400
  856MOL0     O12890   3.151   5.231   3.470  0.4169 -0.0442 -0.5358
  856MOL0     C12891   3.204   5.167   3.361 -0.0416  0.7724  0.4343
  856MOL0     C12892   3.262   5.227   3.253  0.6017  0.0692  0.2932
  856MOL0     C12893   3.299   5.147   3.138  0.7278 -0.6369  0.6343
  856MOL0     C12894   3.309   5.013   3.149  0.5962 -0.3565 -0.5632
  856MOL0     O12895   3.367   4.936   3.049 -0.4093  0.2337  0.5573
  856MOL0     C12896   3.459   4.837   3.099 -0.1745  0.1099  0.4207
  856MOL0     C12897   3.580   4.833   3.008  0.3844 -0.2915  0.9840
  856MOL0     C12898   3.684   4.733   3.064  0.4124  1.3170  0.8615
  856MOL0     C12899   3.804   4.709   2.973 -0.4886 -1.0831 -0.1617
  856MOL0     C12900   3.876   4.588   3.043  0.2162 -0.3237 -0.4916
  856MOL0     C12901   4.014   4.557   2.994  0.0690 -0.6693 -0.3015
  856MOL0     C12902   4.049   4.411   3.029 -0.6239 -0.0061 -0.2370
  856MOL0     C12903   4.118   4.397   3.173  0.1091  0.6753  0.3428
  856MOL0    Cl12904   4.137   4.238   3.249 -0.1548  0.2652 -0.0195
  856MOL0     C12905   3.241   4.955   3.257  0.6351 -0.4155 -0.9135
  856MOL0     C12906   3.182   5.031   3.364 -0.0532 -0.3166  0.7069
  856MOL0     O12907   3.294   5.415   3.465  0.1874 -0.7746  0.0131
  856MOL0     C12908   3.001   5.365   3.661 -0.0751 -0.0802  0.1769
  856MOL0     C12909   2.940   5.400   3.783 -0.1179  0.3644  0.7296
  856MOL0     N12910   2.765   5.021   4.119  0.0819 -0.9674  0.7574
  856MOL0     N12911   2.681   4.982   4.028 -0.7199  0.1311  0.4925
  856MOL0     C12912   2.160   5.350   3.748  0.4743 -0.3877  0.7361
  856MOL0     C12913   2.152   5.422   3.867 -0.5606  0.2109  0.2643
  856MOL0     C12914   2.095   5.699   4.199  1.2371 -0.4661  0.0520
  856MOL0     C12915   2.016   5.659   4.311 -0.2167  0.1225 -0.4282
  856MOL0     C12916   2.053   5.725   4.431 -0.3028  0.7914  0.1157
  856MOL0     C12917   2.168   5.808   4.442 -0.2220  0.5776 -0.1214
  856MOL0     O12918   2.199   5.840   4.570 -0.6239  0.5614 -0.7175
  856MOL0     C12919   2.270   5.962   4.587  0.1644  0.4494  0.3437
  856MOL0     C12920   2.231   5.993   4.725  0.7461  0.5907 -0.2436
  856MOL0     C12921   2.082   6.021   4.753 -0.8570  0.3997  0.1936
  856MOL0     C12922   2.057   6.068   4.896  0.7654  0.5875 -0.1178
  856MOL0     C12923   1.916   6.096   4.909  0.2846 -1.0460 -0.3278
  856MOL0     C12924   1.793   6.117   4.914  0.6273  0.1924  0.7905
  856MOL0     C12925   2.237   5.853   4.329 -0.5567  0.6027 -0.1034
  856MOL0     C12926   2.188   5.805   4.210 -0.6005  0.0917  0.5091
  856MOL0     H12927   2.325   5.699   3.773  0.9138 -0.7287 -0.8878
  856MOL0     H12928   2.344   5.557   3.555  2.3707 -2.3786 -0.0446
  856MOL0     H12929   2.135   5.202   3.385  3.7128 -1.9370 -0.7852
  856MOL0     H12930   2.069   5.200   3.553  0.6926 -0.1080  0.7610
  856MOL0     H12931   2.211   5.004   3.485 -2.0502  0.9802 -3.4892
  856MOL0     H12932   2.309   5.104   3.601  0.8099  3.3680 -0.4764
  856MOL0     H12933   2.437   5.213   3.425 -0.2222  0.5317  2.2548
  856MOL0     H12934   2.344   5.138   3.300  1.0557  0.3828 -0.5737
  856MOL0     H12935   2.418   4.898   3.378  0.1956 -0.5961 -1.6982
  856MOL0     H12936   2.549   5.000   3.322  0.4247 -3.5248 -1.0059
  856MOL0     H12937   2.601   4.865   3.516 -3.2298 -2.5508  1.4676
  856MOL0     H12938   2.470   4.943   3.609  3.3386 -0.4651  2.5421
  856MOL0     H12939   2.609   5.165   3.570  0.8198  1.2258  0.1324
  856MOL0     H12940   2.726   5.073   3.506 -0.2469  2.1810  0.7866
  856MOL0     H12941   2.712   4.922   3.717  0.4235  0.8688  0.9533
  856MOL0     H12942   2.779   5.089   3.723  1.1553 -0.4235  2.7449
  856MOL0     H12943   2.527   4.985   3.838 -0.4030 -0.0501 -2.0613
  856MOL0     H12944   2.548   5.160   3.788  0.5303 -0.5951 -3.8133
  856MOL0     H12945   2.750   5.292   3.942  3.2597 -0.0142 -1.6919
  856MOL0     H12946   2.999   5.221   4.121 -0.9263  1.1290 -1.2648
  856MOL0     H12947   2.918   5.195   4.278  0.2783  0.3045  0.4544
  856MOL0     H12948   2.768   5.369   4.280  0.7023 -0.1308  1.3219
  856MOL0     H12949   2.780   5.409   4.112 -0.0801 -2.2143 -0.5387
  856MOL0     H12950   2.902   5.581   4.253 -0.9307 -1.4626 -0.9282
  856MOL0     H12951   3.016   5.469   4.312  2.2047 -2.4609 -1.7413
  856MOL0     H12952   3.112   5.439   4.094  0.5676  0.1040 -1.9968
  856MOL0     H12953   3.077   5.614   4.104  1.6022 -0.2054 -1.5645
  856MOL0     H12954   3.163   5.631   3.891  1.5508 -0.0191 -1.7253
  856MOL0     H12955   3.273   5.550   3.662 -0.4514 -0.0986  0.0960
  856MOL0     H12956   3.270   5.334   3.236 -1.2046 -0.1056 -2.2850
  856MOL0     H12957   3.345   5.192   3.050  1.9725 -0.5210  1.3267
  856MOL0     H12958   3.417   4.739   3.122 -0.6533  0.1362 -0.3286
  856MOL0     H12959   3.492   4.867   3.199  0.3917 -0.3745  0.3816
  856MOL0     H12960   3.629   4.930   3.003  2.9316 -1.4493  1.7117
  856MOL0     H12961   3.549   4.806   2.907 -0.6933 -0.0390  1.2420
  856MOL0     H12962   3.627   4.641   3.082  0.6581  1.2315  1.2096
  856MOL0     H12963   3.717   4.767   3.163 -0.0864  2.4153  0.6643
  856MOL0     H12964   3.778   4.703   2.867 -2.4806 -0.6048  0.2491
  856MOL0     H12965   3.858   4.805   2.980 -1.9898 -0.2434  0.4248
  856MOL0     H12966   3.814   4.500   3.022 -0.0302 -0.5929  1.2234
  856MOL0     H12967   3.874   4.609   3.151  1.0976 -2.2121 -0.0620
  856MOL0     H12968   4.084   4.625   3.044 -0.5978  0.3740 -0.7671
  856MOL0     H12969   4.019   4.567   2.885 -1.2953 -1.8500 -0.4909
  856MOL0     H12970   3.958   4.352   3.042 -1.8409  1.7056 -0.6540
  856MOL0     H12971   4.106   4.365   2.948  0.6484  0.2684  0.4766
  856MOL0     H12972   4.059   4.456   3.243 -2.1177 -2.3233  1.1942
  856MOL0     H12973   4.217   4.437   3.146  0.4668 -1.4963 -1.9984
  856MOL0     H12974   3.223   4.848   3.250  1.9774 -0.6138 -1.6332
  856MOL0     H12975   3.141   4.975   3.447  3.8582 -1.1873  2.2737
  856MOL0     H12976   2.955   5.305   3.582  1.4992  2.8180 -3.2541
  856MOL0     H12977   2.836   5.370   3.779 -0.2467  0.8219  0.6268
  856MOL0     H12978   2.102   5.260   3.734 -0.1727 -0.0697  1.2821
  856MOL0     H12979   2.099   5.372   3.947 -2.0295  1.4072  0.0933
  856MOL0     H12980   1.927   5.599   4.295  0.6420 -1.6630  1.2218
  856MOL0     H12981   1.990   5.684   4.509  0.3379 -1.9173 -0.6738
  856MOL0     H12982   2.232   6.049   4.533 -1.2013  0.2245  0.9176
  856MOL0     H12983   2.376   5.943   4.568 -0.4776 -3.9060  0.1019
  856MOL0     H12984   2.264   5.913   4.792 -2.5149 -0.6012  0.1090
  856MOL0     H12985   2.283   6.084   4.756 -0.2830  0.4429  2.1214
  856MOL0     H12986   2.019   5.935   4.729  1.4594 -1.8704  1.7237
  856MOL0     H12987   2.059   6.091   4.672 -0.0422 -0.5652 -0.9055
  856MOL0     H12988   2.077   5.991   4.971 -1.0901 -0.2165 -0.3856
  856MOL0     H12989   2.114   6.159   4.914  2.4952  0.7440 -4.8561
  856MOL0     H12990   1.692   6.144   4.936  0.8547 -0.1415  2.3971
  856MOL0     H12991   2.313   5.930   4.328  0.6423 -0.4934 -2.7625
  856MOL0     H12992   2.234   5.851   4.123  3.6606 -0.8289  2.0528
  857MOL0     O12993   7.635   6.933   8.441 -1.1172  0.2633 -0.4615
  857MOL0     C12994   7.633   6.833   8.370 -0.2361 -0.0146  0.4439
  857MOL0     O12995   7.737   6.736   8.360 -0.3531  0.3335  0.4842
  857MOL0     C12996   7.856   6.753   8.429  0.9482 -0.6039  0.1740
  857MOL0     C12997   7.916   6.638   8.453  0.3341 -0.0486  0.5999
  857MOL0     C12998   8.048   6.634   8.498  0.4563  0.5462 -0.8697
  857MOL0     C12999   8.106   6.749   8.545 -0.2198 -0.7453  0.2934
  857MOL0     O13000   8.231   6.744   8.604 -0.4358  0.0464  0.7842
  857MOL0     C13001   8.300   6.856   8.660 -0.2560  0.5690  0.2360
  857MOL0     C13002   8.385   6.803   8.773 -0.0181  0.0632  0.3256
  857MOL0     C13003   8.530   6.816   8.736  0.2958  0.2043  0.2019
  857MOL0     C13004   8.632   6.770   8.836  0.1277  1.0062  0.1950
  857MOL0     C13005   8.785   6.798   8.804 -0.5233 -0.7489  0.0193
  857MOL0     C13006   8.838   6.729   8.684  0.4740  0.2418  0.0903
  857MOL0     C13007   8.983   6.745   8.683 -0.5786  0.4434  0.0288
  857MOL0     C13008   9.058   6.685   8.557 -0.0867  0.7482 -0.5924
  857MOL0     N13009   9.087   6.545   8.580  0.1487  0.0879  0.0672
  857MOL0     C13010   9.021   6.442   8.520  0.3172 -0.2794  0.8599
  857MOL0     C13011   9.095   6.330   8.545 -0.1080 -0.3596  0.2696
  857MOL0     C13012   9.060   6.185   8.516 -0.5893 -0.0402 -0.5347
  857MOL0     C13013   8.953   6.143   8.613  1.1474  0.9568  0.4851
  857MOL0     C13014   8.949   5.990   8.629 -0.6280 -0.0062  0.8287
  857MOL0     C13015   8.831   5.937   8.700 -0.3979 -0.0342  0.2238
  857MOL0     O13016   8.706   5.956   8.640 -0.0907 -0.1502 -0.3629
  857MOL0     C13017   8.598   5.891   8.698 -0.0628 -0.6568  0.4719
  857MOL0     C13018   8.510   5.831   8.613  0.7402 -0.4520 -0.4540
  857MOL0     C13019   8.408   5.760   8.660  0.2828 -0.0399 -0.3053
  857MOL0     C13020   8.393   5.731   8.800 -0.4753 -0.4072 -0.6821
  857MOL0     C13021   8.304   5.624   8.854  0.2908 -0.3049  1.2340
  857MOL0     O13022   8.261   5.630   8.987 -0.7202 -0.2246 -0.3069
  857MOL0     C13023   8.160   5.544   9.013 -0.7442  0.1553  0.3405
  857MOL0     C13024   8.180   5.401   9.038  1.5811  0.7368 -0.0654
  857MOL0     C13025   8.071   5.328   9.082 -0.6613  0.6795 -0.0496
  857MOL0     C13026   7.935   5.377   9.085 -1.0095 -0.0434 -0.0072
  857MOL0     O13027   7.829   5.294   9.116 -0.0750 -0.3701 -0.0170
  857MOL0     C13028   7.698   5.341   9.083 -0.1546  0.0726 -0.3980
  857MOL0     C13029   7.592   5.226   9.098 -0.0692 -0.5660  0.0400
  857MOL0     C13030   7.455   5.291   9.119 -1.0617 -0.6293  1.1852
  857MOL0     C13031   7.339   5.188   9.121  0.3654  0.1924 -0.4339
  857MOL0     C13032   7.201   5.246   9.120 -0.2830 -0.1921  0.0152
  857MOL0     C13033   7.099   5.133   9.151  0.0593  0.3104  0.4859
  857MOL0     C13034   7.081   5.109   9.304 -0.4588  0.1212  0.5355
  857MOL0     C13035   7.009   4.986   9.345  0.7279 -0.4075  0.8646
  857MOL0    Cl13036   6.836   5.004   9.319 -0.0096 -0.5099 -0.2180
  857MOL0     C13037   7.918   5.512   9.057 -0.2551 -1.0030 -0.3145
  857MOL0     C13038   8.025   5.589   9.026 -0.0986  0.0667  0.4824
  857MOL0     O13039   8.265   5.538   8.769 -0.4130  0.5924 -0.6076
  857MOL0     C13040   8.473   5.800   8.888 -0.4457 -0.5647  0.5347
  857MOL0     C13041   8.575   5.883   8.833  0.3271  0.4096 -0.2345
  857MOL0     N13042   9.204   6.369   8.607 -0.4215  0.1686  0.5787
  857MOL0     N13043   9.204   6.495   8.631  0.4353  0.5724  0.0587
  857MOL0     C13044   8.040   6.876   8.523  0.0758  0.3391 -0.3392
  857MOL0     C13045   7.909   6.879   8.467 -0.7210 -0.5230 -0.1429
  857MOL0     C13046   7.520   6.827   8.271 -0.2121 -0.2146  0.0011
  857MOL0     C13047   7.485   6.714   8.194  0.0468  0.3085  0.1662
  857MOL0     C13048   7.382   6.718   8.101 -0.5239 -0.2946 -0.0420
  857MOL0     C13049   7.325   6.844   8.071 -0.1699  0.2441 -0.1740
  857MOL0     O13050   7.225   6.839   7.976 -0.0284 -0.0649  0.0117
  857MOL0     C13051   7.189   6.967   7.902  0.1143  0.0694 -0.8989
  857MOL0     C13052   7.060   7.010   7.960  0.2240 -0.0291 -0.7485
  857MOL0     C13053   7.022   7.146   7.904 -0.2241 -0.3968  1.1138
  857MOL0     C13054   6.898   7.213   7.966  0.2318  0.5770  0.1553
  857MOL0     C13055   6.788   7.129   8.026 -0.2069 -0.8428  0.7425
  857MOL0     C13056   6.689   7.072   8.058 -0.8871 -0.2501  0.7991
  857MOL0     C13057   7.365   6.958   8.142 -0.0035 -0.0794  0.0393
  857MOL0     C13058   7.456   6.945   8.238 -0.4410 -1.1555  0.5572
  857MOL0     H13059   7.883   6.546   8.406 -0.3137  1.6157 -2.4210
  857MOL0     H13060   8.096   6.537   8.493  0.4355  0.5956 -2.5601
  857MOL0     H13061   8.231   6.935   8.692  0.4937  0.9617  0.9084
  857MOL0     H13062   8.361   6.895   8.579 -1.7702 -2.1415 -2.4111
  857MOL0     H13063   8.353   6.701   8.800 -3.0340 -0.7960 -4.9908
  857MOL0     H13064   8.360   6.861   8.862 -0.9956  1.0379 -0.5553
  857MOL0     H13065   8.560   6.919   8.718  3.4562 -0.6443 -0.0266
  857MOL0     H13066   8.550   6.770   8.639  1.3387 -0.6283  0.7933
  857MOL0     H13067   8.619   6.799   8.940  1.2376  0.5212  0.4861
  857MOL0     H13068   8.616   6.662   8.842  2.0361  0.5014 -2.2315
  857MOL0     H13069   8.851   6.770   8.886  1.5470  0.2366 -1.2266
  857MOL0     H13070   8.798   6.906   8.793  2.7809 -0.7555  2.4194
  857MOL0     H13071   8.794   6.775   8.595  0.1645  0.1228  0.1821
  857MOL0     H13072   8.825   6.621   8.691 -1.1713 -0.0439 -4.2757
  857MOL0     H13073   9.003   6.852   8.671 -0.4307  0.3019 -1.0971
  857MOL0     H13074   9.026   6.697   8.772 -0.6690 -0.7653 -0.5624
  857MOL0     H13075   9.151   6.734   8.527  1.6930 -2.1655 -0.2598
  857MOL0     H13076   8.986   6.705   8.477 -1.0239 -0.5760 -0.1186
  857MOL0     H13077   8.928   6.434   8.465  1.8239 -0.2744 -1.8575
  857MOL0     H13078   9.147   6.120   8.532 -1.2114 -0.8207 -0.2659
  857MOL0     H13079   9.025   6.169   8.413 -2.9184 -1.3171  0.3843
  857MOL0     H13080   8.858   6.189   8.585 -0.7019  0.8001  5.4610
  857MOL0     H13081   8.979   6.183   8.711 -0.8397  0.4222  1.2850
  857MOL0     H13082   8.951   5.960   8.524 -4.4082 -1.0150  0.9018
  857MOL0     H13083   9.039   5.956   8.682  0.3125  1.5689  0.2939
  857MOL0     H13084   8.831   5.995   8.792 -2.1734  0.8358 -0.2669
  857MOL0     H13085   8.846   5.832   8.725 -1.0462 -0.0705  0.4662
  857MOL0     H13086   8.534   5.836   8.507  0.6540  0.8433 -0.4293
  857MOL0     H13087   8.349   5.709   8.584 -0.5834  1.8046 -0.9383
  857MOL0     H13088   8.275   5.349   9.025  1.1122 -0.1320 -0.0922
  857MOL0     H13089   8.083   5.223   9.107  2.2083  1.0369  0.3910
  857MOL0     H13090   7.690   5.367   8.977  2.0670  0.2253 -0.5617
  857MOL0     H13091   7.676   5.427   9.147  0.6298  1.0277 -1.3700
  857MOL0     H13092   7.618   5.168   9.186  1.3744  2.7015  1.9267
  857MOL0     H13093   7.575   5.169   9.006 -2.9861 -1.5077  1.0535
  857MOL0     H13094   7.427   5.365   9.043 -0.4152 -2.0918 -0.5568
  857MOL0     H13095   7.474   5.351   9.208  2.1746 -0.9310  0.8089
  857MOL0     H13096   7.357   5.114   9.042  4.1586  0.0183  0.4146
  857MOL0     H13097   7.344   5.117   9.205 -1.2282  0.5235 -0.0309
  857MOL0     H13098   7.193   5.283   9.018  2.0130  0.7770  0.1423
  857MOL0     H13099   7.196   5.334   9.185  1.1580 -0.5005  0.5829
  857MOL0     H13100   7.135   5.045   9.097 -1.2091 -2.6070  3.9990
  857MOL0     H13101   7.002   5.144   9.101  1.2685 -1.1219 -2.4170
  857MOL0     H13102   7.181   5.099   9.345 -1.5331  1.8116  3.9635
  857MOL0     H13103   7.031   5.189   9.359 -0.1873 -0.6887  2.0063
  857MOL0     H13104   7.032   4.966   9.450 -0.9837  0.0999  1.3634
  857MOL0     H13105   7.041   4.902   9.282 -1.2381 -0.5344 -0.0574
  857MOL0     H13106   7.819   5.557   9.060 -0.5184 -1.6013  0.3483
  857MOL0     H13107   8.012   5.690   8.989  1.3352 -0.1593 -0.6969
  857MOL0     H13108   8.473   5.801   8.997 -4.3527 -1.6252  0.6896
  857MOL0     H13109   8.642   5.941   8.896 -1.1587  1.6730  0.2553
  857MOL0     H13110   8.095   6.966   8.546 -0.3199  1.5273 -3.5285
  857MOL0     H13111   7.863   6.977   8.452 -0.9491 -0.9538 -2.7334
  857MOL0     H13112   7.538   6.627   8.231  0.2616  0.7058  0.8242
  857MOL0     H13113   7.346   6.631   8.047  0.7847  0.2225 -1.8434
  857MOL0     H13114   7.184   6.947   7.795  2.5695 -2.5806 -0.6712
  857MOL0     H13115   7.270   7.037   7.925 -0.7472  1.1550 -1.0727
  857MOL0     H13116   6.982   6.936   7.940 -0.9298  0.0068  2.8581
  857MOL0     H13117   7.061   7.021   8.069 -0.8929  0.4585 -0.7684
  857MOL0     H13118   7.004   7.121   7.799  0.5583  3.1086 -0.0064
  857MOL0     H13119   7.107   7.214   7.894 -1.2452  0.8984  0.8985
  857MOL0     H13120   6.929   7.287   8.040  0.5779  3.2704 -2.5027
  857MOL0     H13121   6.851   7.282   7.895 -1.5715  0.8914  1.6074
  857MOL0     H13122   6.608   7.024   8.109 -1.0369  0.2550  1.0512
  857MOL0     H13123   7.325   7.055   8.117 -0.4913 -0.5940 -1.2452
  857MOL0     H13124   7.495   7.035   8.283  0.5011 -0.0906 -2.1835
  858MOL0     O13125   0.457   2.413   5.516  0.5992  0.3938 -0.5636
  858MOL0     C13126   0.446   2.292   5.488  0.2333  0.1681  0.4283
  858MOL0     O13127   0.372   2.197   5.547  0.7372 -0.2008 -0.3031
  858MOL0     C13128   0.275   2.237   5.636 -0.0080 -0.6591 -0.1053
  858MOL0     C13129   0.140   2.261   5.585  0.1786  0.0457 -0.2451
  858MOL0     C13130   0.029   2.284   5.668  0.0541 -0.3151 -0.1667
  858MOL0     C13131   0.048   2.283   5.807 -0.0376  0.2460  0.0506
  858MOL0     O13132  -0.051   2.302   5.896  0.0957 -1.0736 -0.4056
  858MOL0     C13133  -0.059   2.428   5.960  1.0183  0.0939  0.6426
  858MOL0     C13134  -0.195   2.435   6.026 -0.0674  0.5288 -0.0603
  858MOL0     C13135  -0.213   2.556   6.124  0.6957  0.0827  1.0890
  858MOL0     C13136  -0.345   2.553   6.205 -0.5251  0.1646 -0.2979
  858MOL0     C13137  -0.331   2.502   6.348  0.2609  1.0564  0.1973
  858MOL0     C13138  -0.447   2.539   6.443 -0.1189 -0.3082  0.5404
  858MOL0     C13139  -0.428   2.488   6.586 -0.8531 -0.3881 -0.6721
  858MOL0     C13140  -0.515   2.564   6.693 -1.2859 -0.3081  0.2944
  858MOL0     N13141  -0.657   2.574   6.670 -0.3923 -0.5319  0.0250
  858MOL0     C13142  -0.741   2.468   6.680  1.3327 -0.0250 -0.6506
  858MOL0     C13143  -0.861   2.521   6.659 -0.6380  0.3333 -0.1003
  858MOL0     C13144  -0.991   2.443   6.680  0.7190 -0.4230  0.9373
  858MOL0     C13145  -1.015   2.356   6.562 -0.9325  1.0701 -0.5597
  858MOL0     C13146  -1.074   2.438   6.452 -0.1630 -0.1064  0.2457
  858MOL0     C13147  -1.231   2.464   6.471  0.9483 -0.5763  0.3208
  858MOL0     O13148  -1.322   2.386   6.391 -0.7770  0.2229  0.3167
  858MOL0     C13149  -1.357   2.259   6.433 -0.3429 -0.9857  0.7041
  858MOL0     C13150  -1.330   2.209   6.559  0.6124  0.5712  0.9098
  858MOL0     C13151  -1.398   2.090   6.597 -0.0727  0.0728  0.1568
  858MOL0     C13152  -1.478   2.020   6.502 -0.2667  0.0097 -0.4227
  858MOL0     C13153  -1.556   1.901   6.535 -0.8840 -0.5382  0.3513
  858MOL0     O13154  -1.558   1.871   6.664 -0.5283  0.1389  0.4033
  858MOL0     C13155  -1.617   1.757   6.709  0.9377  0.2959 -0.5067
  858MOL0     C13156  -1.529   1.657   6.761  0.4653 -0.2011 -0.4457
  858MOL0     C13157  -1.581   1.548   6.819 -0.1150 -0.5693 -0.3986
  858MOL0     C13158  -1.719   1.533   6.843 -0.3520  0.5506 -0.2818
  858MOL0     O13159  -1.793   1.425   6.898  0.6533  0.4431  0.0381
  858MOL0     C13160  -1.721   1.336   6.980 -0.1228  0.6600 -0.0877
  858MOL0     C13161  -1.758   1.387   7.127  0.0667 -0.5071  0.3408
  858MOL0     C13162  -1.639   1.364   7.216  0.7086  0.3322 -0.0524
  858MOL0     C13163  -1.664   1.425   7.348  0.2130  0.2221  0.5779
  858MOL0     C13164  -1.643   1.570   7.352  0.4159  0.4646 -0.0629
  858MOL0     C13165  -1.642   1.616   7.503  0.2373 -0.5438 -0.4068
  858MOL0     C13166  -1.627   1.763   7.512 -0.8551 -0.8945 -1.4421
  858MOL0     C13167  -1.627   1.824   7.652 -0.3361  0.0935  0.2638
  858MOL0    Cl13168  -1.650   2.000   7.648 -0.5164 -0.2388 -0.1699
  858MOL0     C13169  -1.805   1.624   6.788  0.3375  0.4673  0.3717
  858MOL0     C13170  -1.758   1.751   6.734 -0.3289 -0.2964 -0.6394
  858MOL0     O13171  -1.604   1.830   6.450  0.3452 -0.7378 -0.2315
  858MOL0     C13172  -1.489   2.070   6.371 -0.0190 -0.0417 -0.2076
  858MOL0     C13173  -1.427   2.187   6.334 -0.2820  0.0377  0.1972
  858MOL0     N13174  -0.846   2.658   6.641  0.0627 -0.0251 -0.0266
  858MOL0     N13175  -0.724   2.693   6.659  0.2458  0.4913  0.3894
  858MOL0     C13176   0.174   2.253   5.859 -1.0755 -0.1233  0.9009
  858MOL0     C13177   0.294   2.233   5.774  0.7851 -0.0131  0.4581
  858MOL0     C13178   0.533   2.243   5.378 -0.2884 -0.9471  0.1446
  858MOL0     C13179   0.505   2.131   5.303  0.4798  0.0136  0.3799
  858MOL0     C13180   0.601   2.066   5.232  0.1737  0.6123 -0.3687
  858MOL0     C13181   0.740   2.107   5.230  0.0689 -0.8554 -0.6126
  858MOL0     O13182   0.847   2.059   5.159  0.3041  0.6015 -0.0947
  858MOL0     C13183   0.837   1.934   5.094  0.9793 -0.8576 -0.0210
  858MOL0     C13184   0.967   1.902   5.031  0.9097 -0.4479 -0.8977
  858MOL0     C13185   0.976   1.756   4.992 -1.2709  0.0844 -0.0366
  858MOL0     C13186   1.118   1.730   4.935  0.8041  0.5618 -0.6900
  858MOL0     C13187   1.136   1.788   4.803  0.3468 -0.3560  0.5255
  858MOL0     C13188   1.158   1.850   4.698  0.9756  0.1549  0.2424
  858MOL0     C13189   0.768   2.233   5.294 -0.1957  1.8811 -0.3060
  858MOL0     C13190   0.664   2.297   5.361 -0.9804  0.6279 -0.8745
  858MOL0     H13191   0.127   2.255   5.477 -0.2681  2.4032 -0.3711
  858MOL0     H13192  -0.070   2.294   5.624  0.8550  1.1056 -1.8020
  858MOL0     H13193  -0.062   2.491   5.871 -2.4813  0.5071  0.9071
  858MOL0     H13194   0.032   2.435   6.021  2.2501 -0.3934 -1.0492
  858MOL0     H13195  -0.212   2.343   6.082  0.6129 -0.4563 -1.4086
  858MOL0     H13196  -0.274   2.446   5.951  4.0716  3.7727 -4.6215
  858MOL0     H13197  -0.231   2.640   6.056  1.4314  1.3797  2.4331
  858MOL0     H13198  -0.126   2.581   6.187 -0.6964  4.2656  1.6494
  858MOL0     H13199  -0.382   2.656   6.209 -1.5344 -0.1362 -1.2232
  858MOL0     H13200  -0.417   2.488   6.154 -0.3300 -3.3180  3.3574
  858MOL0     H13201  -0.238   2.538   6.393  0.0459  0.4125  1.1811
  858MOL0     H13202  -0.332   2.394   6.332 -0.4907  1.0121  0.4917
  858MOL0     H13203  -0.543   2.504   6.402  1.4857 -1.5177 -2.5252
  858MOL0     H13204  -0.452   2.649   6.444 -0.2606 -0.1865 -2.4356
  858MOL0     H13205  -0.441   2.380   6.594  2.7581 -0.8806  0.3169
  858MOL0     H13206  -0.322   2.497   6.611 -1.4419 -0.0620  1.9626
  858MOL0     H13207  -0.464   2.658   6.714 -2.7331 -0.0357  3.0484
  858MOL0     H13208  -0.508   2.511   6.789  0.1445 -1.9819 -0.6685
  858MOL0     H13209  -0.728   2.364   6.708  1.5473  0.8725  3.0808
  858MOL0     H13210  -1.080   2.498   6.710  1.6301  1.6869 -0.0128
  858MOL0     H13211  -0.968   2.384   6.769  0.9981  0.9773  1.8225
  858MOL0     H13212  -1.087   2.279   6.587 -0.0166 -0.1559 -1.5572
  858MOL0     H13213  -0.929   2.299   6.525 -0.2231 -0.4120  3.0045
  858MOL0     H13214  -1.024   2.533   6.431 -1.3049  0.5287  0.3706
  858MOL0     H13215  -1.059   2.368   6.369 -1.4621 -2.4694  1.8681
  858MOL0     H13216  -1.262   2.565   6.445 -0.1261 -0.6580  1.2080
  858MOL0     H13217  -1.251   2.456   6.579  0.6818 -3.6110  0.1346
  858MOL0     H13218  -1.272   2.258   6.637  1.5093  1.2434 -0.1405
  858MOL0     H13219  -1.398   2.066   6.702 -3.5022  0.7118  0.4149
  858MOL0     H13220  -1.427   1.683   6.735  0.4040  2.8625  1.8215
  858MOL0     H13221  -1.507   1.474   6.847  2.1350  1.9760  0.8179
  858MOL0     H13222  -1.613   1.339   6.965 -0.4271 -0.3608 -2.9769
  858MOL0     H13223  -1.748   1.230   6.969  1.6835  0.0520  0.9163
  858MOL0     H13224  -1.854   1.346   7.158 -0.7607  2.0648  1.4193
  858MOL0     H13225  -1.768   1.495   7.124 -0.2142 -0.5238  0.6912
  858MOL0     H13226  -1.548   1.409   7.177  0.1602  1.3601 -0.1935
  858MOL0     H13227  -1.628   1.255   7.222 -0.3047  0.2266  0.1114
  858MOL0     H13228  -1.768   1.403   7.376 -0.0784 -0.8099 -1.1334
  858MOL0     H13229  -1.597   1.376   7.419 -1.4845  1.1829  2.9606
  858MOL0     H13230  -1.712   1.628   7.291  0.6640  1.4080  0.5303
  858MOL0     H13231  -1.542   1.589   7.314  0.4633  0.3847  0.0222
  858MOL0     H13232  -1.578   1.563   7.574  1.2017  0.3570 -0.5719
  858MOL0     H13233  -1.747   1.607   7.535 -0.0233  1.5179 -0.5258
  858MOL0     H13234  -1.524   1.787   7.481  0.1297  1.3877  2.7867
  858MOL0     H13235  -1.707   1.801   7.449 -0.2389  1.1630 -1.0590
  858MOL0     H13236  -1.537   1.802   7.710  1.9975  4.4747 -1.2081
  858MOL0     H13237  -1.716   1.778   7.696 -0.1921 -0.0335  0.4230
  858MOL0     H13238  -1.911   1.606   6.799  0.3420 -1.0993 -1.6128
  858MOL0     H13239  -1.825   1.836   6.721  1.6265  1.8666  2.2930
  858MOL0     H13240  -1.550   2.009   6.304  0.4722 -1.8747  0.9409
  858MOL0     H13241  -1.435   2.213   6.229 -2.6407 -1.7790 -0.1492
  858MOL0     H13242   0.174   2.231   5.965 -0.8518 -1.6726  0.6124
  858MOL0     H13243   0.388   2.207   5.820  1.0319 -0.1402 -0.1064
  858MOL0     H13244   0.405   2.087   5.306 -0.0599  0.6289 -3.4357
  858MOL0     H13245   0.600   1.968   5.184 -1.0015  0.5781 -0.3037
  858MOL0     H13246   0.758   1.934   5.018  1.9284  3.2300 -1.2610
  858MOL0     H13247   0.806   1.856   5.165 -0.9034  1.4565  1.8437
  858MOL0     H13248   0.989   1.977   4.956 -0.7496  0.8527 -0.1346
  858MOL0     H13249   1.047   1.919   5.104 -0.6328  2.4562  0.2758
  858MOL0     H13250   0.905   1.734   4.912 -4.2900  0.3861  2.4176
  858MOL0     H13251   0.955   1.696   5.081 -0.2116 -4.3135 -2.4620
  858MOL0     H13252   1.201   1.748   5.003  0.3755 -0.1596  0.0399
  858MOL0     H13253   1.115   1.621   4.922  0.8147  0.4224  0.4237
  858MOL0     H13254   1.174   1.899   4.604 -1.7090  0.9792  0.1498
  858MOL0     H13255   0.866   2.279   5.289  0.0402  1.7083  1.7516
  858MOL0     H13256   0.688   2.397   5.397  1.5839  1.2244 -3.8698
  859MOL0     O13257   9.789   1.889   2.040  0.3793 -0.8463 -0.3829
  859MOL0     C13258   9.834   1.791   1.981 -1.0675  0.5218  0.8016
  859MOL0     O13259   9.782   1.751   1.871  0.1295  0.7022  0.1619
  859MOL0     C13260   9.695   1.831   1.798  0.6175 -0.8253 -0.1052
  859MOL0     C13261   9.743   1.894   1.683 -0.9624  0.8416 -0.3365
  859MOL0     C13262   9.676   1.986   1.611  0.8319 -1.2301 -0.1283
  859MOL0     C13263   9.551   2.017   1.666  0.9522  0.2202  0.3566
  859MOL0     O13264   9.479   2.123   1.604  0.6237  0.0704 -0.1126
  859MOL0     C13265   9.328   2.118   1.614  0.0395  0.0429 -0.0682
  859MOL0     C13266   9.270   2.086   1.483  0.0745 -0.3423  0.1367
  859MOL0     C13267   9.117   2.074   1.500 -0.0980 -0.1047  0.3682
  859MOL0     C13268   9.037   2.078   1.362  0.4099 -0.3762 -0.4953
  859MOL0     C13269   8.906   1.991   1.376 -0.8136 -0.2009  1.2069
  859MOL0     C13270   8.803   2.041   1.478  0.3404  0.6058  0.7983
  859MOL0     C13271   8.764   2.190   1.455  0.0346 -0.1508 -0.1363
  859MOL0     C13272   8.672   2.252   1.574  0.6845 -0.2864  0.3629
  859MOL0     N13273   8.537   2.188   1.574 -0.7288 -0.5102  0.3809
  859MOL0     C13274   8.431   2.224   1.488 -0.1135 -0.7036 -0.3928
  859MOL0     C13275   8.345   2.117   1.483  0.1372 -0.7001  0.7551
  859MOL0     C13276   8.225   2.108   1.404 -0.2946 -0.2631  0.4188
  859MOL0     C13277   8.114   2.051   1.499 -0.3960 -0.4276  0.1061
  859MOL0     C13278   7.993   1.997   1.422 -0.1523 -0.5135 -0.1166
  859MOL0     C13279   7.939   2.073   1.296  0.1180 -0.4619 -0.0645
  859MOL0     O13280   7.903   2.212   1.313 -0.0466 -0.2437 -0.6298
  859MOL0     C13281   7.830   2.235   1.431 -0.7132 -0.4779  0.0147
  859MOL0     C13282   7.708   2.174   1.472  0.4843 -0.4245  0.1216
  859MOL0     C13283   7.647   2.202   1.596  0.1158  0.6472 -0.0692
  859MOL0     C13284   7.703   2.288   1.690  0.6119  0.0035  0.3794
  859MOL0     C13285   7.619   2.328   1.807 -0.6731 -0.4954 -0.0145
  859MOL0     O13286   7.485   2.289   1.806  0.6300 -0.6118  0.0935
  859MOL0     C13287   7.384   2.308   1.898  0.5371 -0.6021 -0.0619
  859MOL0     C13288   7.407   2.344   2.028  0.5845 -0.0147  0.3725
  859MOL0     C13289   7.302   2.369   2.122 -0.5407 -1.1023 -0.0085
  859MOL0     C13290   7.168   2.350   2.083 -0.0719  0.1952  0.2219
  859MOL0     O13291   7.059   2.368   2.165  0.5380  0.3479  0.4990
  859MOL0     C13292   7.067   2.413   2.310 -0.0045 -1.2141  0.7129
  859MOL0     C13293   6.954   2.327   2.367  0.4866 -0.1224 -0.6361
  859MOL0     C13294   6.956   2.379   2.510 -0.1005  1.3242 -0.2809
  859MOL0     C13295   6.866   2.280   2.582 -0.0292  0.1874  0.1193
  859MOL0     C13296   6.950   2.158   2.626 -1.0007  0.2327 -0.6715
  859MOL0     C13297   6.887   2.045   2.709 -0.0400 -0.1255  0.5847
  859MOL0     C13298   6.990   1.982   2.808  0.2306  0.0766  0.3348
  859MOL0     C13299   7.081   1.880   2.742 -0.0692  0.0028  0.6385
  859MOL0    Cl13300   7.250   1.936   2.697  0.5273  0.0153 -0.0168
  859MOL0     C13301   7.139   2.317   1.954 -0.1717  0.2032  0.2755
  859MOL0     C13302   7.242   2.297   1.864 -0.1163  0.5852 -0.3622
  859MOL0     O13303   7.672   2.402   1.889 -0.3795  0.5450 -0.6224
  859MOL0     C13304   7.826   2.343   1.653  0.3263 -0.2238 -0.2206
  859MOL0     C13305   7.899   2.313   1.531  0.6436 -0.6017  0.6592
  859MOL0     N13306   8.395   2.021   1.557 -0.3288 -0.0108  0.1185
  859MOL0     N13307   8.498   2.061   1.618  0.9243 -0.4873  0.0966
  859MOL0     C13308   9.497   1.949   1.780 -0.4568 -0.3427 -1.2512
  859MOL0     C13309   9.568   1.864   1.848  0.1748 -0.1102 -0.8688
  859MOL0     C13310   9.944   1.712   2.042  0.5392 -0.0409 -0.9067
  859MOL0     C13311   9.947   1.712   2.188  0.7851 -0.4212  0.0231
  859MOL0     C13312  10.038   1.628   2.254  0.5635 -0.5218  0.5040
  859MOL0     C13313  10.132   1.558   2.174  0.1182  0.1876 -0.1821
  859MOL0     O13314  10.220   1.489   2.246 -0.5347 -0.3367 -0.1266
  859MOL0     C13315  10.188   1.358   2.282  0.8744 -0.2081 -0.3437
  859MOL0     C13316  10.294   1.310   2.379 -0.3939 -0.4445  0.1853
  859MOL0     C13317  10.269   1.366   2.518 -0.3739 -0.0751  1.1208
  859MOL0     C13318  10.322   1.270   2.619 -0.7194  0.8691  0.5239
  859MOL0     C13319  10.219   1.173   2.666  0.0275  0.3422 -0.0302
  859MOL0     C13320  10.147   1.086   2.701 -0.2432  0.1056 -0.0146
  859MOL0     C13321  10.125   1.554   2.033 -0.2971 -0.5170 -0.5055
  859MOL0     C13322  10.033   1.640   1.969 -0.0002  1.0289 -0.4330
  859MOL0     H13323   9.840   1.851   1.658 -2.6243 -1.0679 -4.4621
  859MOL0     H13324   9.720   2.041   1.529  2.5713 -0.3119  1.3427
  859MOL0     H13325   9.295   2.218   1.644 -0.4649  0.3837 -1.6258
  859MOL0     H13326   9.280   2.060   1.693 -1.5886  0.1744 -0.9188
  859MOL0     H13327   9.312   1.998   1.433  0.6065  0.3292 -0.6245
  859MOL0     H13328   9.287   2.176   1.424 -0.1513 -0.2086  0.2708
  859MOL0     H13329   9.077   2.156   1.560  0.2568  0.0709  0.3699
  859MOL0     H13330   9.099   1.982   1.555  2.1001  0.6067  2.4376
  859MOL0     H13331   9.024   2.185   1.343  0.6302 -0.7746 -3.3480
  859MOL0     H13332   9.099   2.028   1.287  1.0482 -1.5912  0.7982
  859MOL0     H13333   8.935   1.887   1.394  0.9013 -0.3339 -1.6614
  859MOL0     H13334   8.863   1.983   1.276 -2.1239 -0.4549  1.7636
  859MOL0     H13335   8.838   2.032   1.582  0.0539 -2.7679  0.6941
  859MOL0     H13336   8.721   1.971   1.459  1.0009 -0.2177  0.9190
  859MOL0     H13337   8.852   2.255   1.445 -0.3313  0.0725 -2.6230
  859MOL0     H13338   8.709   2.209   1.363 -1.9905  2.8820  1.5127
  859MOL0     H13339   8.675   2.360   1.555  1.7350 -0.0939  1.5285
  859MOL0     H13340   8.724   2.246   1.670  1.9909  2.2009 -0.1004
  859MOL0     H13341   8.414   2.318   1.437  3.3594 -0.1259 -0.7284
  859MOL0     H13342   8.243   2.051   1.312 -0.4241  0.7757 -0.2618
  859MOL0     H13343   8.189   2.204   1.366 -0.9488 -0.6573  0.0181
  859MOL0     H13344   8.092   2.130   1.572  2.1773  0.7418 -0.2825
  859MOL0     H13345   8.153   1.971   1.562 -0.0773  0.9158  1.6743
  859MOL0     H13346   8.034   1.904   1.381  1.4179  0.5029 -0.9358
  859MOL0     H13347   7.917   1.967   1.495  1.4828  0.6716  2.1842
  859MOL0     H13348   7.845   2.024   1.268  0.4564 -1.1430 -0.0276
  859MOL0     H13349   7.996   2.067   1.203 -1.5077 -0.0604 -1.1284
  859MOL0     H13350   7.666   2.099   1.407  3.1421 -2.8154  0.9281
  859MOL0     H13351   7.556   2.145   1.613 -1.1401  1.6432 -2.7976
  859MOL0     H13352   7.511   2.354   2.056  0.7321 -1.7341  0.5356
  859MOL0     H13353   7.328   2.406   2.221  5.2055 -1.9955 -0.8441
  859MOL0     H13354   7.056   2.521   2.318  4.1708 -0.5843  0.0801
  859MOL0     H13355   7.166   2.397   2.353  0.1277 -0.4451  0.7033
  859MOL0     H13356   6.965   2.219   2.367  0.2955 -0.1481 -1.4072
  859MOL0     H13357   6.856   2.356   2.327  0.0600  1.0857  1.1615
  859MOL0     H13358   6.925   2.484   2.511  0.0052  1.4367 -2.6033
  859MOL0     H13359   7.051   2.369   2.562 -1.1719 -1.5154  1.3545
  859MOL0     H13360   6.820   2.334   2.666 -1.2028  1.9181 -1.5390
  859MOL0     H13361   6.779   2.241   2.529 -0.0474 -0.4231  0.5991
  859MOL0     H13362   7.039   2.188   2.681 -0.4044 -1.4124 -0.6847
  859MOL0     H13363   6.978   2.116   2.529 -1.0285  0.7711 -0.9145
  859MOL0     H13364   6.846   1.963   2.649  0.1907 -2.6859  3.6650
  859MOL0     H13365   6.804   2.086   2.768  0.7141  5.5145 -1.6200
  859MOL0     H13366   7.047   2.056   2.865 -0.4614 -0.4001  1.6708
  859MOL0     H13367   6.942   1.940   2.897 -2.5847  5.2065  1.6339
  859MOL0     H13368   7.043   1.855   2.643  0.4420  0.4184  0.3354
  859MOL0     H13369   7.088   1.785   2.797  2.3172  1.4446  3.0717
  859MOL0     H13370   7.038   2.294   1.922 -0.1677 -1.3821  1.2917
  859MOL0     H13371   7.219   2.263   1.763 -2.6750  0.2133  0.2782
  859MOL0     H13372   7.878   2.403   1.727  2.0533 -2.2152  0.2715
  859MOL0     H13373   8.000   2.350   1.514  0.2273 -1.0351 -4.0590
  859MOL0     H13374   9.399   1.979   1.818 -0.0747  0.0769 -0.5753
  859MOL0     H13375   9.526   1.832   1.943  1.2916  0.8554 -0.0134
  859MOL0     H13376   9.885   1.777   2.249  0.4456 -1.0785  0.3864
  859MOL0     H13377  10.034   1.627   2.363 -1.1567  0.9171  0.4950
  859MOL0     H13378  10.189   1.286   2.199  0.0946 -0.8722  0.2076
  859MOL0     H13379  10.094   1.355   2.337 -1.3428 -3.5092 -3.8088
  859MOL0     H13380  10.295   1.200   2.374 -1.5184 -0.4781  0.3186
  859MOL0     H13381  10.391   1.336   2.337 -1.5194  1.1979 -1.5883
  859MOL0     H13382  10.162   1.374   2.538 -1.0969 -1.6747 -1.6396
  859MOL0     H13383  10.319   1.463   2.528  0.7960 -0.3608 -1.2679
  859MOL0     H13384  10.413   1.223   2.579 -1.6489  0.6763 -1.4673
  859MOL0     H13385  10.362   1.324   2.705 -1.8535 -1.3708  2.5767
  859MOL0     H13386  10.094   0.999   2.735 -1.1865  0.4897 -0.4961
  859MOL0     H13387  10.197   1.511   1.963 -2.7481  0.3327 -3.8062
  859MOL0     H13388  10.026   1.646   1.861  0.0758  1.8794 -0.4009
  860MOL0     O13389   0.503   2.045   5.978  0.6384  0.4268  0.7928
  860MOL0     C13390   0.503   2.015   6.097  0.0611  1.0834 -0.0119
  860MOL0     O13391   0.387   2.010   6.175 -0.4690 -0.5886 -0.6457
  860MOL0     C13392   0.261   2.004   6.124 -0.6162 -1.3158 -0.3082
  860MOL0     C13393   0.163   2.068   6.190  0.5055  0.6711 -0.6743
  860MOL0     C13394   0.028   2.066   6.141 -0.1652  0.4436 -0.6360
  860MOL0     C13395  -0.005   1.993   6.030  1.0149  0.1179  0.1501
  860MOL0     O13396  -0.139   1.983   5.988 -0.5689  0.6451  0.1874
  860MOL0     C13397  -0.161   1.975   5.843 -0.8150  0.1831 -0.8062
  860MOL0     C13398  -0.302   1.970   5.798  1.0507 -0.3061 -0.0211
  860MOL0     C13399  -0.392   1.875   5.883  0.5357 -0.0052  0.9788
  860MOL0     C13400  -0.520   1.834   5.802  1.5424  0.6951 -0.9187
  860MOL0     C13401  -0.601   1.722   5.870 -0.4819 -0.2438 -0.0806
  860MOL0     C13402  -0.748   1.721   5.826 -0.0796 -0.2746 -0.5090
  860MOL0     C13403  -0.828   1.619   5.890 -0.3566  1.2731 -0.3474
  860MOL0     C13404  -0.973   1.629   5.846  0.1170  0.6327  0.8833
  860MOL0     N13405  -1.066   1.524   5.903 -0.6363  1.0753  0.1164
  860MOL0     C13406  -1.075   1.504   6.043  0.1747 -0.5210  0.5637
  860MOL0     C13407  -1.101   1.370   6.058 -0.2820 -0.3445  0.2132
  860MOL0     C13408  -1.101   1.287   6.180  0.5051  0.4801 -0.4255
  860MOL0     C13409  -1.221   1.188   6.192 -0.1957 -0.6505  0.2052
  860MOL0     C13410  -1.353   1.247   6.202  0.5093  0.3639 -0.6734
  860MOL0     C13411  -1.453   1.142   6.260  0.3274  0.2702 -0.5128
  860MOL0     O13412  -1.445   1.033   6.169  0.1645  0.0226 -1.1044
  860MOL0     C13413  -1.520   1.016   6.059  0.1103  0.3831  0.6876
  860MOL0     C13414  -1.498   0.908   5.972  0.2367 -0.2441 -0.1248
  860MOL0     C13415  -1.590   0.876   5.867 -0.2645  0.6823 -0.2687
  860MOL0     C13416  -1.702   0.961   5.835 -1.4281  0.4212 -0.3906
  860MOL0     C13417  -1.800   0.942   5.720 -0.2302  0.4210 -0.1334
  860MOL0     O13418  -1.915   1.000   5.737 -0.3191 -1.0489  0.5652
  860MOL0     C13419  -2.006   0.978   5.639 -0.7842  0.3193 -0.3689
  860MOL0     C13420  -1.999   1.065   5.533  0.1406 -0.0333  0.5842
  860MOL0     C13421  -2.094   1.061   5.438  0.2832 -1.0990  0.4394
  860MOL0     C13422  -2.192   0.969   5.440  0.5108  0.2290 -0.0134
  860MOL0     O13423  -2.292   0.972   5.340  0.0940 -0.0792 -0.5445
  860MOL0     C13424  -2.335   0.836   5.298  0.4301  0.2647  0.3921
  860MOL0     C13425  -2.407   0.849   5.168  0.5012  0.2706  0.2528
  860MOL0     C13426  -2.466   0.724   5.105  0.6822 -0.4406  0.1784
  860MOL0     C13427  -2.375   0.621   5.052 -0.1624  0.0331 -0.0490
  860MOL0     C13428  -2.298   0.664   4.927 -0.0498  0.8891 -0.5796
  860MOL0     C13429  -2.169   0.583   4.896 -1.0120 -1.1019 -0.0280
  860MOL0     C13430  -2.098   0.631   4.761  0.3612  0.9229 -0.3787
  860MOL0     C13431  -2.183   0.596   4.627  0.0669 -0.3675 -0.4880
  860MOL0    Cl13432  -2.200   0.420   4.590 -0.5359  0.1159  0.0273
  860MOL0     C13433  -2.193   0.886   5.555  0.4720  0.0706  0.1579
  860MOL0     C13434  -2.112   0.894   5.661  0.1849 -0.8582  0.8639
  860MOL0     O13435  -1.758   0.881   5.619  0.2711  0.4420 -0.6340
  860MOL0     C13436  -1.706   1.076   5.913 -0.7615 -0.7980  1.0313
  860MOL0     C13437  -1.620   1.107   6.017 -0.2882 -0.3625  0.4940
  860MOL0     N13438  -1.113   1.312   5.928  0.1782 -0.0703 -0.7033
  860MOL0     N13439  -1.095   1.402   5.840  0.5351 -0.6659  0.0372
  860MOL0     C13440   0.097   1.927   5.964  0.0829 -0.1598 -0.3969
  860MOL0     C13441   0.228   1.932   6.010 -0.1937 -0.2867 -0.2862
  860MOL0     C13442   0.639   2.019   6.164  0.2795 -0.8001 -0.1687
  860MOL0     C13443   0.757   2.022   6.088  0.2575  0.5382 -0.4879
  860MOL0     C13444   0.883   2.025   6.141 -0.9008  0.4179 -1.5620
  860MOL0     C13445   0.900   2.021   6.286  0.3054 -0.3927  0.3190
  860MOL0     O13446   1.024   2.029   6.335 -0.9833 -0.1408 -0.6873
  860MOL0     C13447   1.028   2.064   6.470  0.2459 -0.0047  0.0247
  860MOL0     C13448   1.009   1.938   6.560  0.2412 -0.4095  1.0440
  860MOL0     C13449   1.041   1.800   6.488  0.0654 -0.7036 -0.2198
  860MOL0     C13450   1.058   1.700   6.596 -0.0495  0.7060 -1.0646
  860MOL0     C13451   0.932   1.664   6.661 -0.5292  0.3938 -1.2330
  860MOL0     C13452   0.835   1.646   6.734  0.1076  0.6074 -0.0647
  860MOL0     C13453   0.774   2.019   6.361  0.2037  0.3146 -0.8912
  860MOL0     C13454   0.652   2.028   6.301 -0.0070  0.3178 -0.7004
  860MOL0     H13455   0.189   2.122   6.280 -0.1739 -2.6658  1.7250
  860MOL0     H13456  -0.053   2.091   6.210  1.6183  2.0885  0.9829
  860MOL0     H13457  -0.116   1.887   5.796 -1.5134 -0.6429  0.0414
  860MOL0     H13458  -0.106   2.059   5.799  0.0379  0.5112  0.7975
  860MOL0     H13459  -0.320   1.941   5.694  0.3625 -0.3509  0.1046
  860MOL0     H13460  -0.334   2.073   5.813  1.5770 -0.3051  1.2374
  860MOL0     H13461  -0.417   1.924   5.978 -1.9466  0.2088  0.2953
  860MOL0     H13462  -0.336   1.781   5.893 -0.8406 -1.0694 -0.7562
  860MOL0     H13463  -0.586   1.921   5.794 -0.0792  0.0345  2.9718
  860MOL0     H13464  -0.489   1.807   5.701  0.4773 -1.6809 -0.6772
  860MOL0     H13465  -0.589   1.745   5.977 -1.1806  1.0948 -0.2736
  860MOL0     H13466  -0.558   1.625   5.846 -0.7937 -0.4037 -0.0064
  860MOL0     H13467  -0.756   1.711   5.717 -1.6602 -2.4726 -0.2587
  860MOL0     H13468  -0.793   1.816   5.857  1.1437  0.6105 -1.3391
  860MOL0     H13469  -0.789   1.517   5.882  0.8709  1.7891 -1.1900
  860MOL0     H13470  -0.829   1.638   5.998 -1.1973  1.8540 -0.4553
  860MOL0     H13471  -0.977   1.623   5.736  2.0082 -1.7619  0.8724
  860MOL0     H13472  -0.995   1.730   5.882 -0.7072  0.0753  2.0101
  860MOL0     H13473  -1.037   1.555   6.131  1.2706  1.4736 -0.9738
  860MOL0     H13474  -1.098   1.355   6.266 -2.0051  1.0011 -0.6522
  860MOL0     H13475  -1.017   1.218   6.188 -1.6991 -2.2307  1.6525
  860MOL0     H13476  -1.209   1.113   6.271  0.3974 -0.4900  0.2711
  860MOL0     H13477  -1.212   1.124   6.103  1.8264 -4.7472  3.0295
  860MOL0     H13478  -1.349   1.336   6.266  1.5145  0.1660 -0.4414
  860MOL0     H13479  -1.395   1.268   6.104  0.8272 -1.5303 -1.2659
  860MOL0     H13480  -1.553   1.183   6.273  1.5352  2.5432  3.1932
  860MOL0     H13481  -1.420   1.107   6.358 -0.4904 -0.9457 -0.6608
  860MOL0     H13482  -1.419   0.844   6.009  1.2826  1.7969  1.4031
  860MOL0     H13483  -1.590   0.792   5.798 -0.1823  1.5415 -1.3389
  860MOL0     H13484  -1.921   1.138   5.515 -2.7185  2.9399 -0.8891
  860MOL0     H13485  -2.114   1.134   5.360 -0.0655 -0.0266  1.5075
  860MOL0     H13486  -2.409   0.812   5.375 -0.1133  1.8334  0.3988
  860MOL0     H13487  -2.257   0.759   5.289  0.6798  0.6321 -0.9376
  860MOL0     H13488  -2.334   0.892   5.098  0.2511 -0.1403 -0.2658
  860MOL0     H13489  -2.489   0.919   5.186  0.0055  0.0113 -0.8803
  860MOL0     H13490  -2.514   0.764   5.015  0.9907 -1.7214 -0.5793
  860MOL0     H13491  -2.539   0.677   5.171  0.1210  0.1645  0.0052
  860MOL0     H13492  -2.309   0.605   5.138  0.7103  1.5590 -0.3926
  860MOL0     H13493  -2.430   0.530   5.028  2.6955 -2.2831  1.5782
  860MOL0     H13494  -2.270   0.762   4.967 -0.4207  0.1165  1.7842
  860MOL0     H13495  -2.367   0.662   4.843 -0.2849  0.8384 -0.3848
  860MOL0     H13496  -2.203   0.479   4.893  0.7488 -1.7579  1.1498
  860MOL0     H13497  -2.091   0.603   4.970  0.8173  0.6416 -2.2642
  860MOL0     H13498  -2.074   0.738   4.769  2.4797  0.4697  0.0226
  860MOL0     H13499  -1.996   0.592   4.752  0.1935  0.2968  0.3378
  860MOL0     H13500  -2.124   0.643   4.549 -0.0440 -1.5793 -1.3269
  860MOL0     H13501  -2.283   0.638   4.635  0.0126 -0.4865 -0.5316
  860MOL0     H13502  -2.272   0.812   5.567  1.0849 -0.3918  1.4837
  860MOL0     H13503  -2.128   0.846   5.757 -0.6245  3.0187  2.8834
  860MOL0     H13504  -1.796   1.133   5.893 -0.3406 -0.3813  0.3031
  860MOL0     H13505  -1.630   1.200   6.072  1.8465 -0.5806  1.3560
  860MOL0     H13506   0.064   1.878   5.872 -1.4968  0.9549 -0.4681
  860MOL0     H13507   0.314   1.889   5.960 -0.2619  0.2630 -0.8927
  860MOL0     H13508   0.749   2.022   5.980  0.1648  1.9062 -0.4949
  860MOL0     H13509   0.971   2.060   6.088  1.4871  0.9144  2.2798
  860MOL0     H13510   0.957   2.144   6.496 -0.3904 -0.9673  1.4014
  860MOL0     H13511   1.124   2.109   6.494 -1.3441  4.1012 -0.4643
  860MOL0     H13512   1.080   1.951   6.643  0.4601  1.7970  0.5813
  860MOL0     H13513   0.904   1.923   6.588  0.0412 -0.9524  0.0581
  860MOL0     H13514   1.134   1.806   6.431  0.7990 -0.6025  0.9426
  860MOL0     H13515   0.962   1.771   6.418 -0.3253  2.0033 -1.0182
  860MOL0     H13516   1.096   1.602   6.568  0.2123  1.3977 -3.3062
  860MOL0     H13517   1.118   1.738   6.679 -1.8139 -2.5904  2.0251
  860MOL0     H13518   0.758   1.638   6.809  2.5412 -0.2898  2.5514
  860MOL0     H13519   0.756   2.015   6.468 -2.0357 -3.7890 -1.1737
  860MOL0     H13520   0.562   2.041   6.359  0.1427 -2.0377  0.1326
  861MOL0     O13521   0.933   3.701   8.772  0.2179  0.6810  0.1063
  861MOL0     C13522   0.889   3.583   8.782 -0.4038  0.6173  1.1293
  861MOL0     O13523   0.905   3.501   8.893  0.1434  0.2531  0.0675
  861MOL0     C13524   0.977   3.554   9.000  1.1697 -0.5573  0.0425
  861MOL0     C13525   1.113   3.514   9.010  0.7534 -0.0125  0.2073
  861MOL0     C13526   1.188   3.563   9.111 -0.2661  0.0621 -0.2313
  861MOL0     C13527   1.133   3.641   9.218 -0.1812 -0.6052  0.1284
  861MOL0     O13528   1.209   3.673   9.323  0.6132  0.6676  0.1172
  861MOL0     C13529   1.196   3.810   9.373  0.4909  0.8069 -0.4982
  861MOL0     C13530   1.224   3.800   9.526  0.0468  1.3879  0.0606
  861MOL0     C13531   1.103   3.730   9.588  0.1919  0.5182  0.1297
  861MOL0     C13532   1.116   3.685   9.735  0.1020 -1.3747 -0.1585
  861MOL0     C13533   1.012   3.578   9.765 -0.9877  0.5589  0.1662
  861MOL0     C13534   0.864   3.619   9.750  0.3414 -0.3537 -0.2287
  861MOL0     C13535   0.760   3.517   9.803  0.6855  0.2011 -0.6157
  861MOL0     C13536   0.734   3.512   9.956  0.2305 -0.7799  0.1402
  861MOL0     N13537   0.648   3.631   9.996  0.9318  0.4022 -0.3348
  861MOL0     C13538   0.519   3.646   9.962  0.1393  0.3486 -0.2857
  861MOL0     C13539   0.472   3.758  10.023  0.2855  0.1207 -0.2877
  861MOL0     C13540   0.329   3.796  10.015  1.4559 -0.4724  0.4985
  861MOL0     C13541   0.302   3.939  10.049  0.7035 -0.4799 -0.3421
  861MOL0     C13542   0.153   3.970  10.007  0.4047 -1.0375  0.3825
  861MOL0     C13543   0.139   4.120  10.021 -0.1822  0.1111 -0.3378
  861MOL0     O13544   0.017   4.170   9.971  0.1292 -0.4470 -0.1659
  861MOL0     C13545  -0.031   4.287  10.013  0.3617 -0.7901 -0.6979
  861MOL0     C13546  -0.135   4.340   9.945 -0.4025  0.1609  1.0412
  861MOL0     C13547  -0.173   4.473   9.960 -0.9771 -0.2261  0.0766
  861MOL0     C13548  -0.120   4.556  10.051  0.1704  0.6702  1.1808
  861MOL0     C13549  -0.172   4.692  10.066 -0.7069  0.5859  1.1533
  861MOL0     O13550  -0.305   4.714  10.028 -0.2464 -0.9436 -1.0049
  861MOL0     C13551  -0.368   4.836  10.007 -0.3632 -0.9664 -0.2089
  861MOL0     C13552  -0.500   4.850  10.036 -0.6085  0.3164  0.1546
  861MOL0     C13553  -0.563   4.970  10.005  0.1557  0.3503 -0.4183
  861MOL0     C13554  -0.490   5.083   9.965  0.7549 -0.7908  0.1238
  861MOL0     O13555  -0.542   5.210   9.956  0.3399 -0.5697  0.2406
  861MOL0     C13556  -0.688   5.231   9.944  0.1221 -0.5385 -0.1964
  861MOL0     C13557  -0.730   5.369   9.908 -0.7268  0.2708 -0.4706
  861MOL0     C13558  -0.877   5.381   9.881  1.1090  0.2143  0.6677
  861MOL0     C13559  -0.921   5.527   9.880  0.4548 -0.5304 -0.2135
  861MOL0     C13560  -1.074   5.542   9.882 -0.0765 -0.1603 -0.5857
  861MOL0     C13561  -1.115   5.687   9.907 -0.7432 -0.3431 -0.2441
  861MOL0     C13562  -1.161   5.744   9.773  0.2516  0.2316  0.5684
  861MOL0     C13563  -1.217   5.885   9.803  0.1001 -0.0192 -0.9390
  861MOL0    Cl13564  -1.308   5.929   9.661 -0.0236  0.0451  0.1745
  861MOL0     C13565  -0.352   5.071   9.942  0.2333  0.1108  0.1383
  861MOL0     C13566  -0.301   4.948   9.955  0.1616  0.6488  0.1639
  861MOL0     O13567  -0.092   4.784  10.103  0.2394  0.2065  0.0276
  861MOL0     C13568  -0.027   4.499  10.138 -0.4635 -0.0483  0.0029
  861MOL0     C13569   0.016   4.364  10.123 -0.2457 -0.0596 -0.4747
  861MOL0     N13570   0.576   3.807  10.098  0.0334  0.1042  0.1273
  861MOL0     N13571   0.682   3.729  10.076  0.5083  0.1033 -0.1749
  861MOL0     C13572   0.988   3.662   9.217  0.4538 -0.8391  0.7780
  861MOL0     C13573   0.905   3.625   9.101 -1.0458  0.5527 -1.0601
  861MOL0     C13574   0.831   3.523   8.657  0.0697 -0.1389 -0.5595
  861MOL0     C13575   0.798   3.600   8.545  0.2687  0.0269  0.1587
  861MOL0     C13576   0.714   3.545   8.442 -0.1913  0.1290 -0.2715
  861MOL0     C13577   0.668   3.414   8.445 -0.2186  0.0207  0.3649
  861MOL0     O13578   0.594   3.369   8.343  0.6241 -0.1638 -0.4325
  861MOL0     C13579   0.545   3.237   8.342  0.7520  0.3464 -0.1735
  861MOL0     C13580   0.460   3.220   8.218 -1.2664 -0.0636 -0.3327
  861MOL0     C13581   0.438   3.069   8.193 -0.2681 -0.4957  0.7854
  861MOL0     C13582   0.347   3.028   8.074  0.3550 -1.2572  0.6231
  861MOL0     C13583   0.205   3.043   8.128 -0.4704 -0.0027 -0.6723
  861MOL0     C13584   0.090   3.048   8.175 -0.6392 -0.3725 -0.3122
  861MOL0     C13585   0.703   3.333   8.559 -0.3500  0.0468  0.3100
  861MOL0     C13586   0.787   3.385   8.655 -0.4429 -0.0479  1.5053
  861MOL0     H13587   1.155   3.451   8.933  0.1458 -3.7343  2.6344
  861MOL0     H13588   1.292   3.533   9.114  0.1667  1.5594  1.4895
  861MOL0     H13589   1.099   3.852   9.348 -1.0160 -3.6075 -3.1529
  861MOL0     H13590   1.279   3.864   9.327  0.1050  0.3213 -1.8060
  861MOL0     H13591   1.236   3.896   9.578  0.9052  0.8066  0.9522
  861MOL0     H13592   1.319   3.750   9.544  0.4288  2.6667  1.8902
  861MOL0     H13593   1.079   3.638   9.533  1.1823  1.1509 -1.4382
  861MOL0     H13594   1.012   3.790   9.587 -0.5443 -0.4795  2.0653
  861MOL0     H13595   1.219   3.655   9.754  1.3942  2.5119 -0.1602
  861MOL0     H13596   1.089   3.771   9.797  1.5214  1.0204 -2.6434
  861MOL0     H13597   1.028   3.528   9.861  3.4422 -0.4602 -0.9026
  861MOL0     H13598   1.011   3.501   9.688 -1.2315  1.0106 -0.2874
  861MOL0     H13599   0.838   3.644   9.646  1.5662  0.2425 -0.4032
  861MOL0     H13600   0.860   3.718   9.796  0.7484 -1.5010  2.4445
  861MOL0     H13601   0.660   3.522   9.758  0.7564 -2.7577 -1.2769
  861MOL0     H13602   0.797   3.419   9.772  0.6549 -0.7324  1.9907
  861MOL0     H13603   0.827   3.511  10.015  0.1189 -3.5354  0.3975
  861MOL0     H13604   0.671   3.428   9.984 -1.4926  0.5649  0.4504
  861MOL0     H13605   0.464   3.584   9.893 -1.2733 -2.5034  3.0709
  861MOL0     H13606   0.275   3.735  10.087  2.4453  0.0862  1.7643
  861MOL0     H13607   0.291   3.783   9.914  0.2664  0.1067  0.8521
  861MOL0     H13608   0.368   4.005   9.993  0.4824  2.5253  2.6460
  861MOL0     H13609   0.322   3.970  10.152 -0.2939  1.3778 -0.6616
  861MOL0     H13610   0.141   3.960   9.899  1.1940  0.7160  0.0999
  861MOL0     H13611   0.068   3.933  10.066 -2.6237  6.5637  1.9759
  861MOL0     H13612   0.225   4.173   9.979  1.8748  0.1708  3.5940
  861MOL0     H13613   0.130   4.150  10.125 -1.8454  3.0434 -1.2123
  861MOL0     H13614  -0.184   4.285   9.866  0.4180  0.2220  0.4820
  861MOL0     H13615  -0.244   4.502   9.883  0.5991 -2.7521 -2.5543
  861MOL0     H13616  -0.560   4.764  10.066 -1.9147 -0.1633 -3.3010
  861MOL0     H13617  -0.669   4.989  10.019  0.3259  1.1646 -0.2071
  861MOL0     H13618  -0.741   5.197  10.034 -1.8936  0.1806 -1.0550
  861MOL0     H13619  -0.727   5.156   9.876 -0.6457 -1.3243  1.0649
  861MOL0     H13620  -0.673   5.417   9.827 -1.5515  1.4316 -0.3971
  861MOL0     H13621  -0.696   5.442   9.982 -0.7695  1.2384 -1.3633
  861MOL0     H13622  -0.913   5.316   9.961  1.7972  0.0441  0.8507
  861MOL0     H13623  -0.902   5.324   9.791  0.4898 -2.5354  2.4604
  861MOL0     H13624  -0.880   5.575   9.969 -0.6701 -2.8393  1.6679
  861MOL0     H13625  -0.882   5.588   9.798  2.1146  2.2299  2.4442
  861MOL0     H13626  -1.114   5.477   9.961 -2.4769 -1.9479 -3.0850
  861MOL0     H13627  -1.108   5.508   9.784  0.5345  0.0393 -0.8729
  861MOL0     H13628  -1.038   5.751   9.951 -0.6478  1.2199 -2.4686
  861MOL0     H13629  -1.199   5.684   9.977  0.0248 -1.0609  0.6680
  861MOL0     H13630  -1.089   5.759   9.692 -1.6307 -1.1665 -1.4732
  861MOL0     H13631  -1.247   5.687   9.736 -0.6805  0.9898  1.5038
  861MOL0     H13632  -1.146   5.967   9.820 -0.7863  0.3639  1.1741
  861MOL0     H13633  -1.287   5.886   9.887 -2.5916  0.5462 -3.0512
  861MOL0     H13634  -0.290   5.157   9.919 -0.5581  0.8234  0.6609
  861MOL0     H13635  -0.194   4.956   9.939  0.5776 -0.3774  2.1345
  861MOL0     H13636   0.017   4.560  10.216 -1.8983 -1.7497  2.2810
  861MOL0     H13637   0.105   4.330  10.176  0.6408 -0.2037 -1.9869
  861MOL0     H13638   0.933   3.708   9.298 -2.2478 -1.4524 -0.5905
  861MOL0     H13639   0.799   3.644   9.090 -1.0488  0.0156 -1.9888
  861MOL0     H13640   0.831   3.703   8.533 -3.0110  1.0809 -0.9648
  861MOL0     H13641   0.681   3.609   8.361 -1.3472 -0.1641 -0.0575
  861MOL0     H13642   0.474   3.235   8.425  0.7086  1.5280 -0.1542
  861MOL0     H13643   0.614   3.153   8.337 -1.9406 -1.9512 -3.9212
  861MOL0     H13644   0.366   3.275   8.221 -0.1328  1.9734 -0.6605
  861MOL0     H13645   0.529   3.256   8.141 -1.2969  0.4190 -0.1381
  861MOL0     H13646   0.389   3.030   8.283 -1.0595 -0.0557  0.5479
  861MOL0     H13647   0.530   3.010   8.194 -1.1154 -1.8530  1.9265
  861MOL0     H13648   0.371   3.098   7.994  1.7744  0.1811  2.2050
  861MOL0     H13649   0.364   2.925   8.042 -0.3270 -0.4691 -2.5340
  861MOL0     H13650  -0.006   3.037   8.222 -2.0509  0.2413 -2.8367
  861MOL0     H13651   0.677   3.228   8.563 -1.3705  0.1983 -1.2486
  861MOL0     H13652   0.803   3.328   8.746 -1.0362 -1.2024  0.9139
  862MOL0     O13653   4.192   4.705   8.481  0.4731 -0.1457 -0.5116
  862MOL0     C13654   4.136   4.665   8.586 -1.0702  0.0567  0.5058
  862MOL0     O13655   4.039   4.573   8.598 -0.0419 -0.4581  0.3600
  862MOL0     C13656   3.964   4.556   8.483 -0.8987  0.4486  0.1707
  862MOL0     C13657   3.932   4.422   8.450  0.5855 -0.0914  0.4041
  862MOL0     C13658   3.838   4.395   8.346 -0.4030  0.5974  0.7281
  862MOL0     C13659   3.762   4.495   8.278  0.9172  0.5009 -0.9555
  862MOL0     O13660   3.664   4.454   8.190  0.3366 -0.9550 -0.6095
  862MOL0     C13661   3.547   4.532   8.182 -0.3307  0.0100  0.2938
  862MOL0     C13662   3.432   4.444   8.136  0.5634 -0.2984  0.3154
  862MOL0     C13663   3.353   4.383   8.246  0.5480  0.3257  0.6599
  862MOL0     C13664   3.225   4.310   8.181 -1.6258  0.0229  0.4411
  862MOL0     C13665   3.105   4.405   8.182 -0.0392 -1.1572 -0.8148
  862MOL0     C13666   2.992   4.345   8.106  0.1924 -0.2807  0.5215
  862MOL0     C13667   2.873   4.446   8.081  0.4750 -0.4861 -0.0437
  862MOL0     C13668   2.789   4.410   7.968  0.9578  0.5215  0.4217
  862MOL0     N13669   2.657   4.477   7.971 -0.0297 -0.6697 -0.4302
  862MOL0     C13670   2.609   4.543   7.862  0.0089  0.8370 -0.3944
  862MOL0     C13671   2.479   4.543   7.884  1.3534 -0.2602  0.2220
  862MOL0     C13672   2.379   4.625   7.811 -0.0979 -0.2121  0.1930
  862MOL0     C13673   2.367   4.768   7.861  0.9827  0.6105 -0.5832
  862MOL0     C13674   2.233   4.835   7.832 -0.7797 -0.2846  0.2332
  862MOL0     C13675   2.144   4.824   7.951 -0.3559  1.0086  0.2897
  862MOL0     O13676   2.009   4.848   7.911 -0.1340 -0.0644 -0.1812
  862MOL0     C13677   1.916   4.761   7.960 -0.5292  0.2124  0.3393
  862MOL0     C13678   1.913   4.720   8.092 -0.7562  0.1624  0.2668
  862MOL0     C13679   1.819   4.631   8.140  0.0665  0.5706 -0.3309
  862MOL0     C13680   1.712   4.592   8.055 -0.7861 -0.3646 -0.0541
  862MOL0     C13681   1.618   4.491   8.107  0.1004  1.0163 -0.9067
  862MOL0     O13682   1.623   4.469   8.243  0.3793  0.1131  0.1166
  862MOL0     C13683   1.536   4.384   8.303  0.1661  0.0971  0.5830
  862MOL0     C13684   1.504   4.425   8.434  0.9957  0.5484  0.5811
  862MOL0     C13685   1.410   4.359   8.506  0.5513 -0.1108 -0.9497
  862MOL0     C13686   1.349   4.238   8.466  0.6870 -0.2330 -0.3582
  862MOL0     O13687   1.237   4.195   8.545  1.1404  0.0812  0.2138
  862MOL0     C13688   1.224   4.057   8.563  0.5721  0.6248  0.2794
  862MOL0     C13689   1.310   4.015   8.678 -0.7233  0.0416 -0.8059
  862MOL0     C13690   1.292   3.862   8.707 -0.3914 -0.1171  0.2112
  862MOL0     C13691   1.344   3.820   8.844  0.0578 -0.7474 -0.5199
  862MOL0     C13692   1.479   3.843   8.877 -0.0755 -0.0244  1.0637
  862MOL0     C13693   1.511   3.755   8.999  1.2432  0.6352  0.8868
  862MOL0     C13694   1.657   3.752   9.021  0.0425 -0.1088 -0.9320
  862MOL0     C13695   1.680   3.704   9.166 -0.2560 -0.1283  0.3551
  862MOL0    Cl13696   1.665   3.525   9.178 -0.1825 -0.0318 -0.1964
  862MOL0     C13697   1.381   4.201   8.334  0.1700  0.0848  0.5713
  862MOL0     C13698   1.468   4.267   8.253 -0.6620 -0.0945 -0.0537
  862MOL0     O13699   1.555   4.422   8.033 -0.3283 -0.0574 -0.4159
  862MOL0     C13700   1.714   4.638   7.923 -0.1917  0.0305  0.0674
  862MOL0     C13701   1.818   4.724   7.873 -0.6660  0.4371  0.6462
  862MOL0     N13702   2.447   4.465   7.998  0.7930 -0.2361  1.0130
  862MOL0     N13703   2.554   4.438   8.056  0.0436  0.0526  0.3414
  862MOL0     C13704   3.787   4.632   8.316 -0.5999 -0.2413 -0.8278
  862MOL0     C13705   3.898   4.663   8.412  0.2907  0.3365 -0.1355
  862MOL0     C13706   4.189   4.729   8.708  0.1255 -0.0260  0.4586
  862MOL0     C13707   4.311   4.798   8.709 -0.7999  1.4600  0.2679
  862MOL0     C13708   4.349   4.873   8.816  1.3175 -0.7775  0.0639
  862MOL0     C13709   4.276   4.864   8.935  0.3774 -0.4139  0.4123
  862MOL0     O13710   4.310   4.937   9.053  0.4754  0.7250  0.5812
  862MOL0     C13711   4.358   5.075   9.036 -0.0577 -0.1451 -0.0844
  862MOL0     C13712   4.509   5.090   9.070 -0.1966 -0.3984 -0.3442
  862MOL0     C13713   4.543   5.239   9.032 -0.0936  0.1001 -0.2734
  862MOL0     C13714   4.676   5.285   9.094  0.3279 -0.5170  0.0233
  862MOL0     C13715   4.734   5.400   9.029 -0.1355 -0.3026 -0.2291
  862MOL0     C13716   4.786   5.499   8.981  0.5867  0.3181  0.0775
  862MOL0     C13717   4.172   4.771   8.947 -0.7948 -0.2837 -0.1077
  862MOL0     C13718   4.132   4.701   8.834  1.1634  0.0997 -0.5051
  862MOL0     H13719   3.979   4.335   8.493 -0.0149 -0.5527  0.1439
  862MOL0     H13720   3.819   4.294   8.311 -0.2585  0.5503  0.7844
  862MOL0     H13721   3.553   4.614   8.110 -3.1382  0.5899  0.5755
  862MOL0     H13722   3.514   4.573   8.278 -3.4904 -0.6127 -0.3993
  862MOL0     H13723   3.457   4.376   8.054  2.2675  0.9826 -0.2971
  862MOL0     H13724   3.358   4.511   8.092  1.4848  1.3088  1.1120
  862MOL0     H13725   3.322   4.454   8.323  0.1701  0.0285  0.7843
  862MOL0     H13726   3.417   4.305   8.286 -0.5560 -1.0083 -0.0933
  862MOL0     H13727   3.254   4.268   8.084  4.3769 -4.3394  3.5214
  862MOL0     H13728   3.201   4.219   8.237  0.8616 -2.1120 -1.7017
  862MOL0     H13729   3.130   4.503   8.139 -1.2786  0.0274  1.0368
  862MOL0     H13730   3.079   4.426   8.286 -0.0770 -0.2403 -1.0027
  862MOL0     H13731   2.956   4.261   8.166  0.6097 -0.8059  0.0530
  862MOL0     H13732   3.031   4.306   8.012  0.7256 -0.2019  0.7061
  862MOL0     H13733   2.810   4.440   8.170 -0.8828  1.1142 -0.8313
  862MOL0     H13734   2.911   4.547   8.066 -0.5493 -0.2848 -1.4328
  862MOL0     H13735   2.767   4.303   7.977  1.0811  0.6241  2.1603
  862MOL0     H13736   2.835   4.439   7.873  1.2802 -2.9243 -0.6285
  862MOL0     H13737   2.669   4.609   7.800  2.5891  0.3510  1.4398
  862MOL0     H13738   2.284   4.572   7.820  0.2307 -1.0312 -0.9956
  862MOL0     H13739   2.413   4.622   7.708  2.9322 -0.7120  1.1183
  862MOL0     H13740   2.442   4.823   7.803 -0.2741  3.1818  0.0373
  862MOL0     H13741   2.396   4.781   7.966 -0.9006  0.2234  0.0306
  862MOL0     H13742   2.256   4.941   7.813 -0.1017 -0.4862 -0.0726
  862MOL0     H13743   2.186   4.815   7.735  0.9349  4.2653 -1.8725
  862MOL0     H13744   2.170   4.892   8.034 -0.5563  2.1380 -0.5495
  862MOL0     H13745   2.146   4.722   7.989 -0.1552  0.6602 -0.6333
  862MOL0     H13746   1.986   4.754   8.165 -1.4637 -2.4123  2.3376
  862MOL0     H13747   1.830   4.584   8.237  0.6371  0.6604 -0.3434
  862MOL0     H13748   1.550   4.513   8.478 -1.2844  0.4938  3.2936
  862MOL0     H13749   1.378   4.393   8.604  1.8816 -0.0875 -0.5128
  862MOL0     H13750   1.248   3.995   8.476 -1.5737  1.3469 -0.9267
  862MOL0     H13751   1.122   4.024   8.587 -0.6392  3.6082 -0.3533
  862MOL0     H13752   1.278   4.074   8.764  1.2774  0.7213 -0.4777
  862MOL0     H13753   1.416   4.036   8.658 -1.3714  1.5513 -2.9878
  862MOL0     H13754   1.347   3.830   8.618  3.5410  1.2807  1.8820
  862MOL0     H13755   1.191   3.820   8.701 -0.4228  0.0468 -0.4970
  862MOL0     H13756   1.271   3.867   8.911 -0.0270 -1.9958  0.2867
  862MOL0     H13757   1.334   3.712   8.841  0.7291 -0.9217  1.7504
  862MOL0     H13758   1.491   3.949   8.901  0.5460  0.3462 -0.6920
  862MOL0     H13759   1.547   3.831   8.792  0.0092 -1.5111  1.3223
  862MOL0     H13760   1.490   3.650   8.979 -0.1021  0.2133  4.0008
  862MOL0     H13761   1.459   3.785   9.090  0.5959  0.3755  0.6074
  862MOL0     H13762   1.705   3.680   8.952 -1.1132 -3.0343  1.1091
  862MOL0     H13763   1.709   3.847   9.005 -2.0109  1.1772 -0.2547
  862MOL0     H13764   1.610   3.759   9.229 -1.0459  1.5013 -1.8450
  862MOL0     H13765   1.776   3.734   9.209 -0.6285 -1.0190  1.9238
  862MOL0     H13766   1.336   4.119   8.278 -0.3479 -0.8936  2.3264
  862MOL0     H13767   1.488   4.226   8.155 -1.0948 -0.6182  0.0739
  862MOL0     H13768   1.631   4.606   7.860  1.2074 -2.6518 -0.5278
  862MOL0     H13769   1.810   4.767   7.774 -0.7591 -0.1869  0.3768
  862MOL0     H13770   3.723   4.704   8.267 -2.6030 -0.2314  1.5509
  862MOL0     H13771   3.919   4.764   8.447  0.2882 -0.1492  1.3692
  862MOL0     H13772   4.367   4.805   8.616 -1.3034 -1.1283 -0.3161
  862MOL0     H13773   4.417   4.956   8.805 -1.8756  1.6534 -4.3933
  862MOL0     H13774   4.292   5.137   9.097 -1.2179  0.0370 -1.4421
  862MOL0     H13775   4.351   5.112   8.933  4.2811  1.5598  0.0543
  862MOL0     H13776   4.514   5.074   9.178  1.6825  2.9954  0.2100
  862MOL0     H13777   4.574   5.023   9.014 -2.0075 -3.7263  1.2283
  862MOL0     H13778   4.460   5.302   9.066 -1.1396 -0.9269 -0.8561
  862MOL0     H13779   4.548   5.238   8.922  0.3016 -5.0912 -0.4550
  862MOL0     H13780   4.658   5.304   9.200  0.1779  2.3533 -0.4520
  862MOL0     H13781   4.755   5.210   9.082 -0.1945 -0.6147 -5.0957
  862MOL0     H13782   4.845   5.578   8.939  0.9215  0.0316  0.0021
  862MOL0     H13783   4.136   4.767   9.049  0.5411  0.7881  0.4530
  862MOL0     H13784   4.047   4.635   8.851  2.3520 -1.0823  1.1302
  863MOL0     O13785   9.857   2.780   9.383 -0.1728 -0.3536  0.4148
  863MOL0     C13786   9.815   2.788   9.500 -0.2663  0.4525  0.3812
  863MOL0     O13787   9.701   2.855   9.537  0.1934  0.2097 -0.0785
  863MOL0     C13788   9.620   2.897   9.443  0.5710  0.1964 -0.1476
  863MOL0     C13789   9.569   3.027   9.455 -0.4076 -0.4791  0.2909
  863MOL0     C13790   9.460   3.062   9.377  0.2557  0.2393  0.0069
  863MOL0     C13791   9.408   2.973   9.289 -0.0567  0.4233 -0.7957
  863MOL0     O13792   9.311   2.992   9.195 -0.1296  0.5281 -0.3740
  863MOL0     C13793   9.194   3.063   9.248  0.1613  0.1371 -0.0040
  863MOL0     C13794   9.074   3.040   9.154 -0.5257  0.7649  0.0924
  863MOL0     C13795   8.946   3.113   9.200  0.0431 -0.5364 -0.5931
  863MOL0     C13796   8.827   3.077   9.112  0.0985 -0.5905  0.6016
  863MOL0     C13797   8.714   3.190   9.128 -0.2644 -0.0361 -0.9837
  863MOL0     C13798   8.586   3.160   9.047 -0.4756 -0.3341 -0.7340
  863MOL0     C13799   8.610   3.147   8.892  0.4595 -0.5254 -0.0403
  863MOL0     C13800   8.472   3.164   8.820 -0.6477 -0.0328 -0.4100
  863MOL0     N13801   8.377   3.063   8.862  0.0550 -0.5647  0.4682
  863MOL0     C13802   8.403   2.935   8.835  0.0889  1.0359 -0.4967
  863MOL0     C13803   8.281   2.886   8.834  0.5589 -0.0049  0.4728
  863MOL0     C13804   8.255   2.742   8.798  0.4497 -0.2774 -0.1586
  863MOL0     C13805   8.264   2.653   8.930  0.0714 -0.9294 -0.0434
  863MOL0     C13806   8.150   2.690   9.037 -0.4696  0.8188  0.2406
  863MOL0     C13807   8.016   2.706   8.975  0.4779 -0.7379  0.3858
  863MOL0     O13808   7.921   2.679   9.075  0.4438  0.0635  0.6323
  863MOL0     C13809   7.807   2.752   9.050 -0.4755  0.3314  0.3007
  863MOL0     C13810   7.719   2.720   9.144  0.5400  0.4936 -0.6126
  863MOL0     C13811   7.583   2.758   9.144 -0.6553  0.2345 -0.0901
  863MOL0     C13812   7.531   2.825   9.031  0.3876  0.0817  0.0809
  863MOL0     C13813   7.393   2.873   9.022 -0.5635 -0.3303 -0.8011
  863MOL0     O13814   7.315   2.862   9.142 -0.1240  0.2627  0.3611
  863MOL0     C13815   7.190   2.916   9.117 -0.0740  1.2605 -0.3107
  863MOL0     C13816   7.160   3.054   9.131  0.4962 -1.0915 -0.5143
  863MOL0     C13817   7.029   3.102   9.123 -1.2572  0.8580 -0.0521
  863MOL0     C13818   6.926   3.018   9.086 -1.0210  0.4845 -0.4396
  863MOL0     O13819   6.806   3.071   9.053  0.6646  0.6041  0.2586
  863MOL0     C13820   6.740   3.162   9.140  0.3463 -0.3332  0.5541
  863MOL0     C13821   6.699   3.092   9.269 -0.6854  0.6989  0.1567
  863MOL0     C13822   6.816   3.068   9.385  0.2751 -0.1966  0.1300
  863MOL0     C13823   6.748   3.057   9.520 -0.5815 -0.7544 -0.4140
  863MOL0     C13824   6.855   3.069   9.628 -1.0465  0.3553  0.0016
  863MOL0     C13825   6.936   2.933   9.642  0.4025  0.3506  0.7765
  863MOL0     C13826   7.002   2.906   9.778 -0.5617  0.2521  0.1437
  863MOL0     C13827   7.093   3.023   9.820 -0.5452  0.5343 -0.6310
  863MOL0    Cl13828   7.076   3.060  10.002  0.1601 -0.2494 -0.1081
  863MOL0     C13829   6.949   2.880   9.065  0.5282  0.3845 -0.0319
  863MOL0     C13830   7.086   2.830   9.087  1.0361  0.5407 -0.0537
  863MOL0     O13831   7.358   2.927   8.918  0.5621  0.2744  0.2392
  863MOL0     C13832   7.623   2.865   8.931 -0.2228  0.3164 -0.4365
  863MOL0     C13833   7.762   2.823   8.937  0.5655 -0.5426  0.3977
  863MOL0     N13834   8.185   2.983   8.860 -0.2289 -0.5929 -0.4988
  863MOL0     N13835   8.244   3.095   8.889 -0.0516 -0.2687 -0.4450
  863MOL0     C13836   9.456   2.840   9.290  0.3617  0.5868  0.0754
  863MOL0     C13837   9.566   2.799   9.360  1.0516  0.3403  0.1645
  863MOL0     C13838   9.903   2.737   9.611  0.5478 -0.1446  0.3731
  863MOL0     C13839   9.841   2.693   9.730  0.4148  0.0029  0.3363
  863MOL0     C13840   9.929   2.645   9.824  0.5872  0.4783 -0.6959
  863MOL0     C13841  10.068   2.627   9.802 -0.3761  0.0479  0.0071
  863MOL0     O13842  10.137   2.577   9.914 -0.5684  0.1235  0.0603
  863MOL0     C13843  10.280   2.592   9.917  0.5282 -0.4675 -0.4150
  863MOL0     C13844  10.323   2.539  10.057 -0.4780 -0.2268 -0.2665
  863MOL0     C13845  10.310   2.397  10.075  0.0322 -0.2705 -0.1965
  863MOL0     C13846  10.437   2.336  10.011 -0.0721  0.2489  0.1191
  863MOL0     C13847  10.555   2.367  10.093 -0.0831 -0.4226  0.3974
  863MOL0     C13848  10.646   2.399  10.165 -0.1585  0.8958  0.1225
  863MOL0     C13849  10.118   2.671   9.683 -0.3753  0.6443  0.7823
  863MOL0     C13850  10.042   2.727   9.586  0.2178  0.6935 -0.0272
  863MOL0     H13851   9.605   3.088   9.537 -1.1465  2.7872 -1.6073
  863MOL0     H13852   9.431   3.166   9.383  0.3719  0.2247  0.9461
  863MOL0     H13853   9.218   3.170   9.249  1.9283 -0.1304 -2.7279
  863MOL0     H13854   9.159   3.026   9.345  2.7382 -3.1694 -0.1698
  863MOL0     H13855   9.047   2.935   9.145  0.0601  0.6591 -0.4997
  863MOL0     H13856   9.120   3.060   9.056 -1.5419 -1.3305 -0.8683
  863MOL0     H13857   8.969   3.219   9.184  4.0055 -0.7310  2.2956
  863MOL0     H13858   8.926   3.092   9.306  0.8409 -1.9000 -0.6952
  863MOL0     H13859   8.855   3.068   9.006  1.3728 -5.9214  1.0875
  863MOL0     H13860   8.803   2.977   9.149  2.5059 -1.1173  0.9105
  863MOL0     H13861   8.757   3.283   9.091  1.7714  0.3188  1.9529
  863MOL0     H13862   8.689   3.210   9.232  1.5880  1.3244 -0.7474
  863MOL0     H13863   8.519   3.245   9.062  0.8390  0.8482 -1.3367
  863MOL0     H13864   8.549   3.063   9.080 -0.5711 -0.4903 -1.3004
  863MOL0     H13865   8.687   3.216   8.858  1.5341 -1.6116  0.1308
  863MOL0     H13866   8.664   3.053   8.873 -0.7106 -1.1858 -0.1998
  863MOL0     H13867   8.491   3.158   8.712 -1.1913 -0.7407 -0.4740
  863MOL0     H13868   8.437   3.265   8.844 -0.7368  0.5221 -2.6079
  863MOL0     H13869   8.493   2.877   8.815  0.8761  0.8760  2.8764
  863MOL0     H13870   8.337   2.711   8.732  1.2406  0.1774  0.5834
  863MOL0     H13871   8.154   2.726   8.758  0.8381 -2.7379 -0.3203
  863MOL0     H13872   8.361   2.674   8.976 -1.2841  3.1117  1.4389
  863MOL0     H13873   8.254   2.547   8.908 -1.8524 -0.5601 -1.1666
  863MOL0     H13874   8.150   2.615   9.116  0.4039 -1.0010 -1.4020
  863MOL0     H13875   8.173   2.789   9.079 -5.2019  1.4490  1.8584
  863MOL0     H13876   7.996   2.643   8.888  0.5707 -0.8520  0.4466
  863MOL0     H13877   8.014   2.806   8.929 -0.0158 -2.0439 -2.6959
  863MOL0     H13878   7.758   2.673   9.234 -0.7910 -1.9421 -1.2424
  863MOL0     H13879   7.521   2.739   9.231 -0.9317 -0.7957 -0.4956
  863MOL0     H13880   7.238   3.124   9.158 -1.0002 -0.2154  1.7648
  863MOL0     H13881   7.012   3.209   9.126  1.7818  1.4216  0.1617
  863MOL0     H13882   6.648   3.186   9.085  1.1064 -3.2588 -2.3096
  863MOL0     H13883   6.803   3.249   9.160 -1.1607  1.7195 -2.8423
  863MOL0     H13884   6.653   2.999   9.235 -2.6162  2.7090 -3.1965
  863MOL0     H13885   6.624   3.148   9.326 -0.3707 -1.2153  2.6588
  863MOL0     H13886   6.894   3.143   9.395 -0.9922  0.9959  1.4325
  863MOL0     H13887   6.854   2.967   9.363  2.6142  0.6364  0.1058
  863MOL0     H13888   6.671   3.129   9.548  1.4153  2.3658 -2.2274
  863MOL0     H13889   6.690   2.966   9.508  2.0484 -2.4631 -1.0415
  863MOL0     H13890   6.810   3.100   9.723 -4.8590 -1.2543 -1.0579
  863MOL0     H13891   6.935   3.141   9.609 -1.0294  0.6717  1.1684
  863MOL0     H13892   7.019   2.946   9.571  1.4964  2.9786  2.3556
  863MOL0     H13893   6.872   2.847   9.621  1.2144  0.4976 -3.2600
  863MOL0     H13894   6.928   2.881   9.854 -1.1967 -0.8944 -0.8161
  863MOL0     H13895   7.061   2.815   9.767 -1.9480 -0.4817 -1.8981
  863MOL0     H13896   7.055   3.120   9.785  0.3592  1.3939  0.6975
  863MOL0     H13897   7.187   2.993   9.774 -1.1702 -1.6846 -0.5935
  863MOL0     H13898   6.872   2.811   9.031 -0.8826  1.7570  0.3104
  863MOL0     H13899   7.091   2.722   9.076  1.3682  0.5000  0.4357
  863MOL0     H13900   7.609   2.935   8.850 -0.0361  3.7068  2.2328
  863MOL0     H13901   7.826   2.857   8.856 -3.8676  1.5096 -2.6735
  863MOL0     H13902   9.408   2.772   9.221  0.6476  1.8060 -1.3780
  863MOL0     H13903   9.606   2.699   9.341  2.3046  1.3218 -3.0154
  863MOL0     H13904   9.733   2.688   9.729  0.4356 -0.8630  1.2232
  863MOL0     H13905   9.891   2.618   9.922  3.2856  2.6046  1.0835
  863MOL0     H13906  10.304   2.698   9.926  0.9273 -0.4429 -1.5456
  863MOL0     H13907  10.319   2.535   9.832  2.3117 -1.4093  0.9824
  863MOL0     H13908  10.418   2.578  10.094 -0.1691  0.7316 -1.9641
  863MOL0     H13909  10.250   2.577  10.130  1.2671  1.8491  0.5162
  863MOL0     H13910  10.218   2.358  10.031 -1.7165 -0.3738  3.2439
  863MOL0     H13911  10.312   2.378  10.183 -0.5421  4.2979  0.7931
  863MOL0     H13912  10.435   2.227  10.016  2.9085  0.0128 -1.3063
  863MOL0     H13913  10.447   2.364   9.906 -2.0491  2.5126  0.4573
  863MOL0     H13914  10.732   2.423  10.225 -0.7725 -1.3512  2.1015
  863MOL0     H13915  10.226   2.660   9.670 -0.1685  1.7142  1.5031
  863MOL0     H13916  10.073   2.772   9.493 -4.2443 -1.7802 -3.0938
  864MOL0     O13917   3.436   7.344   0.434  0.1764 -1.0527  0.2866
  864MOL0     C13918   3.509   7.446   0.446  0.6523  0.6828  0.1576
  864MOL0     O13919   3.463   7.580   0.439 -0.3814  0.3860 -0.1639
  864MOL0     C13920   3.336   7.615   0.422 -0.5596  0.3240  0.4987
  864MOL0     C13921   3.236   7.546   0.346  0.4067 -0.2517  0.4630
  864MOL0     C13922   3.104   7.583   0.342  0.0283  0.1262 -0.7515
  864MOL0     C13923   3.063   7.687   0.413  0.0226 -0.3740  0.4884
  864MOL0     O13924   2.936   7.741   0.417  0.6632 -0.4194 -0.4756
  864MOL0     C13925   2.848   7.729   0.306  0.3079  1.4806  0.4129
  864MOL0     C13926   2.710   7.776   0.353  0.8453  0.0138 -0.6388
  864MOL0     C13927   2.592   7.735   0.262 -0.1842  0.2164  0.1284
  864MOL0     C13928   2.456   7.770   0.329  0.4560  0.0188  0.3524
  864MOL0     C13929   2.348   7.703   0.246  0.0335 -0.1839  0.0207
  864MOL0     C13930   2.201   7.726   0.298 -0.8430  0.3473 -0.8356
  864MOL0     C13931   2.095   7.660   0.201 -0.3101  1.1993 -0.4967
  864MOL0     C13932   1.945   7.651   0.242 -0.1418 -0.4292  0.2255
  864MOL0     N13933   1.931   7.549   0.349 -0.0615 -0.0392 -0.2529
  864MOL0     C13934   1.964   7.422   0.337  1.4597  0.6827 -0.0559
  864MOL0     C13935   1.901   7.359   0.444 -0.5657 -0.3416 -0.0725
  864MOL0     C13936   1.931   7.218   0.484  0.2391 -0.8742 -0.4244
  864MOL0     C13937   1.908   7.122   0.374  0.5762 -0.2418 -0.3590
  864MOL0     C13938   1.908   6.965   0.412  0.1551 -0.4736 -0.1922
  864MOL0     C13939   1.966   6.917   0.541  0.5484 -0.7935 -0.4404
  864MOL0     O13940   1.896   6.958   0.661 -0.2671 -0.2352  0.1758
  864MOL0     C13941   1.934   6.902   0.783  0.1669 -0.4955 -0.0367
  864MOL0     C13942   1.849   6.923   0.893  0.0278 -0.0776 -0.1104
  864MOL0     C13943   1.873   6.862   1.019  1.0448 -1.0016 -0.5398
  864MOL0     C13944   1.989   6.807   1.043 -0.5386 -0.4825  0.2136
  864MOL0     C13945   2.017   6.747   1.178 -0.5370 -0.5168  0.3502
  864MOL0     O13946   2.140   6.686   1.202 -0.1699  0.2137 -0.2626
  864MOL0     C13947   2.183   6.647   1.327  0.1021  0.0075 -0.6826
  864MOL0     C13948   2.284   6.552   1.325  0.0066  0.3530 -0.2921
  864MOL0     C13949   2.326   6.499   1.448  0.0365  0.1050  0.3168
  864MOL0     C13950   2.268   6.541   1.568  0.2001 -0.6213 -0.8811
  864MOL0     O13951   2.296   6.504   1.693 -0.2241  0.0461 -0.8294
  864MOL0     C13952   2.326   6.363   1.723 -0.7288 -0.0368  0.3634
  864MOL0     C13953   2.209   6.301   1.793 -0.0139  0.1699 -0.2869
  864MOL0     C13954   2.101   6.264   1.700  0.3779  0.4133 -0.5035
  864MOL0     C13955   2.144   6.177   1.588 -0.0399  0.8168  0.1833
  864MOL0     C13956   2.029   6.120   1.500  0.9265  0.2670  0.2507
  864MOL0     C13957   1.950   6.224   1.436  0.4736 -0.0536  0.0765
  864MOL0     C13958   1.837   6.159   1.344 -0.3448 -0.9400  0.3894
  864MOL0     C13959   1.764   6.270   1.275  0.8309 -0.3555  0.1015
  864MOL0    Cl13960   1.643   6.208   1.160 -0.1394 -0.0504  0.0094
  864MOL0     C13961   2.206   6.661   1.563  0.2357 -0.5684  0.5376
  864MOL0     C13962   2.154   6.705   1.445 -0.1456  1.0189  0.1936
  864MOL0     O13963   1.933   6.760   1.264 -0.4554 -0.0991 -0.4779
  864MOL0     C13964   2.084   6.783   0.935  0.3797 -0.4847 -0.4085
  864MOL0     C13965   2.052   6.825   0.805  0.0035  0.2632 -0.0514
  864MOL0     N13966   1.842   7.455   0.522  0.5290  0.3042  0.7101
  864MOL0     N13967   1.860   7.571   0.464 -0.5993  1.0396 -0.3851
  864MOL0     C13968   3.159   7.761   0.492  0.7410 -1.2241  0.2782
  864MOL0     C13969   3.291   7.724   0.495 -1.1101  0.1332  1.1155
  864MOL0     C13970   3.651   7.419   0.472  0.2124 -1.7823  0.0724
  864MOL0     C13971   3.706   7.292   0.446  0.1483  0.4814 -0.3044
  864MOL0     C13972   3.840   7.271   0.445 -0.3560 -0.4469 -0.2410
  864MOL0     C13973   3.936   7.375   0.483  0.4350  0.6473 -0.2435
  864MOL0     O13974   4.073   7.372   0.468  0.5144 -0.3220  0.5803
  864MOL0     C13975   4.134   7.256   0.518  0.4491 -0.3096 -0.7513
  864MOL0     C13976   4.283   7.270   0.474  1.2337  0.3556  0.6080
  864MOL0     C13977   4.337   7.409   0.518  0.2850 -0.2796  0.0878
  864MOL0     C13978   4.485   7.434   0.492  0.4820 -0.7403 -0.5752
  864MOL0     C13979   4.506   7.458   0.345  0.6206 -0.3518 -0.5770
  864MOL0     C13980   4.529   7.481   0.237  0.0123 -0.6536  0.5067
  864MOL0     C13981   3.881   7.497   0.510  0.9950 -0.0760  0.2539
  864MOL0     C13982   3.741   7.524   0.501 -0.2750  0.9183 -0.0662
  864MOL0     H13983   3.265   7.474   0.270 -0.5094  2.8946 -3.1487
  864MOL0     H13984   3.028   7.537   0.280 -1.4844 -0.6447  1.5570
  864MOL0     H13985   2.838   7.623   0.282 -0.5572  2.0508 -1.9858
  864MOL0     H13986   2.883   7.790   0.222  2.9074 -0.3163  0.0445
  864MOL0     H13987   2.703   7.882   0.379  2.4836 -0.2263  1.0925
  864MOL0     H13988   2.690   7.728   0.450 -0.6094  0.4718 -0.7025
  864MOL0     H13989   2.581   7.634   0.222 -0.7511 -0.6111  2.2162
  864MOL0     H13990   2.616   7.793   0.172  0.5781 -0.6167 -0.2160
  864MOL0     H13991   2.465   7.723   0.427 -2.7176  1.4402  1.4581
  864MOL0     H13992   2.448   7.879   0.338  2.6291  0.2292  0.3449
  864MOL0     H13993   2.369   7.596   0.234  0.2255 -0.0082 -1.2901
  864MOL0     H13994   2.356   7.752   0.149  2.5868 -1.1810 -0.3550
  864MOL0     H13995   2.185   7.834   0.306 -0.9109  0.2649  0.4530
  864MOL0     H13996   2.199   7.678   0.396 -0.6956 -1.5752 -1.7329
  864MOL0     H13997   2.099   7.717   0.107  0.6296  2.7277  0.4343
  864MOL0     H13998   2.133   7.560   0.177 -2.1889  0.6533 -1.4124
  864MOL0     H13999   1.882   7.637   0.154  2.4171  2.9260 -2.3956
  864MOL0     H14000   1.912   7.749   0.277  0.7136  0.1117 -0.4447
  864MOL0     H14001   2.025   7.375   0.261 -2.3863  1.6347 -4.2142
  864MOL0     H14002   1.874   7.192   0.574 -1.1031  1.6372 -0.4431
  864MOL0     H14003   2.034   7.210   0.519 -0.2940  0.7849  1.7251
  864MOL0     H14004   1.992   7.134   0.304  3.1891 -0.2728  2.5697
  864MOL0     H14005   1.813   7.143   0.324  0.5273 -1.2534 -0.7355
  864MOL0     H14006   1.804   6.931   0.410 -0.2358  0.6631  0.1064
  864MOL0     H14007   1.968   6.923   0.330 -0.9827  0.8924 -1.7860
  864MOL0     H14008   2.067   6.958   0.547 -0.2640  1.4818 -1.1183
  864MOL0     H14009   1.957   6.809   0.553 -0.9096 -0.5856  0.6285
  864MOL0     H14010   1.762   6.986   0.881 -0.0949 -0.2555 -0.1669
  864MOL0     H14011   1.798   6.882   1.095  0.8977 -3.7758  0.1374
  864MOL0     H14012   2.321   6.497   1.239 -0.6804 -0.3977 -0.1220
  864MOL0     H14013   2.398   6.419   1.459  4.5042  3.9479  3.1632
  864MOL0     H14014   2.407   6.365   1.797  0.2022 -0.6277 -0.5956
  864MOL0     H14015   2.354   6.303   1.635 -0.5896 -3.0914  2.3607
  864MOL0     H14016   2.177   6.363   1.876  0.5753  0.9609 -0.6332
  864MOL0     H14017   2.246   6.206   1.833 -1.7551  0.5968  2.6115
  864MOL0     H14018   2.063   6.355   1.652  1.5432 -0.9560 -4.4557
  864MOL0     H14019   2.016   6.214   1.746  0.5905 -1.4051 -1.9918
  864MOL0     H14020   2.212   6.223   1.516  2.4696 -0.5831  1.5039
  864MOL0     H14021   2.202   6.096   1.634  0.2473  1.0255  0.1837
  864MOL0     H14022   1.966   6.063   1.569 -0.1743  1.6980  0.4760
  864MOL0     H14023   2.059   6.052   1.420 -2.9633 -2.2525  0.6596
  864MOL0     H14024   2.016   6.294   1.383  2.1174 -0.3602  1.6109
  864MOL0     H14025   1.906   6.287   1.514  3.1544 -0.7602  2.3391
  864MOL0     H14026   1.880   6.105   1.259  0.7903  3.0755 -1.8325
  864MOL0     H14027   1.763   6.099   1.398 -1.2965  0.4001  0.6362
  864MOL0     H14028   1.832   6.344   1.233  0.6985 -1.2566 -1.8253
  864MOL0     H14029   1.709   6.319   1.356 -0.6320  0.8506 -1.5557
  864MOL0     H14030   2.179   6.710   1.656 -0.8201  0.9025 -0.4875
  864MOL0     H14031   2.077   6.783   1.445 -1.8632 -0.4929  2.7513
  864MOL0     H14032   2.178   6.733   0.957 -0.1866 -1.7724 -0.7629
  864MOL0     H14033   2.120   6.806   0.722 -4.0917  1.1045 -4.0170
  864MOL0     H14034   3.128   7.848   0.548 -0.6112 -1.9175  0.6645
  864MOL0     H14035   3.371   7.773   0.551  0.7020  2.5761 -3.1534
  864MOL0     H14036   3.644   7.207   0.419 -3.1843  2.2701  1.1514
  864MOL0     H14037   3.877   7.173   0.418  3.2916  0.8810 -0.6749
  864MOL0     H14038   4.080   7.172   0.473 -0.5820 -0.0434 -0.0543
  864MOL0     H14039   4.121   7.263   0.626 -1.5815  4.5537 -1.0518
  864MOL0     H14040   4.348   7.192   0.515  2.1889  2.4033  3.2444
  864MOL0     H14041   4.288   7.249   0.366  2.1796 -0.2838  0.7593
  864MOL0     H14042   4.313   7.425   0.623  0.0689 -0.4648  0.0678
  864MOL0     H14043   4.281   7.481   0.458 -0.5173 -3.6791 -3.7178
  864MOL0     H14044   4.506   7.530   0.541 -0.5468  0.6932 -2.7911
  864MOL0     H14045   4.556   7.357   0.523  1.9795  0.3941 -1.0694
  864MOL0     H14046   4.554   7.527   0.143  1.1034  1.0473  1.5620
  864MOL0     H14047   3.946   7.579   0.536  3.6318 -1.3575 -1.7708
  864MOL0     H14048   3.708   7.623   0.528 -2.4623  1.3679 -3.7463
  865MOL0     O14049  10.441   6.103   9.712 -0.3137  0.0279  0.0686
  865MOL0     C14050  10.490   6.015   9.638 -0.3928 -0.3053  0.0436
  865MOL0     O14051  10.487   6.013   9.503 -0.2906 -0.5678 -0.0870
  865MOL0     C14052  10.405   6.096   9.439 -0.4058  0.0097  0.4696
  865MOL0     C14053  10.418   6.238   9.441  0.5430  0.3692 -0.3851
  865MOL0     C14054  10.311   6.315   9.378 -0.0187  0.3892  0.4091
  865MOL0     C14055  10.203   6.252   9.320  0.0104  0.2215  0.4930
  865MOL0     O14056  10.091   6.308   9.264  0.3094 -0.3806  0.5424
  865MOL0     C14057  10.097   6.434   9.204  0.5096 -0.5404 -0.5940
  865MOL0     C14058  10.003   6.475   9.086  0.3336 -0.0640 -0.5873
  865MOL0     C14059  10.028   6.392   8.960 -0.3615  0.1353  0.0395
  865MOL0     C14060  10.013   6.241   8.982  1.5776 -0.0675 -0.0138
  865MOL0     C14061   9.939   6.180   8.861 -0.4255  0.4176 -0.1682
  865MOL0     C14062  10.018   6.194   8.734  0.1715  0.5796  0.1688
  865MOL0     C14063   9.912   6.177   8.608 -0.1854 -0.3171 -0.0362
  865MOL0     C14064   9.987   6.198   8.468  0.7939 -1.3143 -0.6608
  865MOL0     N14065  10.031   6.343   8.456  0.7461  0.3735 -0.4912
  865MOL0     C14066   9.968   6.439   8.392  0.0212  0.3676 -0.2725
  865MOL0     C14067  10.046   6.553   8.393  0.0766 -0.1789  0.0377
  865MOL0     C14068  10.006   6.678   8.318  0.8486  0.1086  0.4785
  865MOL0     C14069  10.095   6.704   8.197  0.3022  0.6016 -0.1493
  865MOL0     C14070  10.051   6.840   8.121  0.0323 -0.0594 -0.1788
  865MOL0     C14071  10.128   6.836   7.992  0.1963 -0.9323  0.8048
  865MOL0     O14072  10.117   6.959   7.913 -0.2858  0.3646  0.3379
  865MOL0     C14073  10.167   6.954   7.791 -0.2709  0.3239 -0.1141
  865MOL0     C14074  10.169   7.079   7.730  0.1632  0.6006  0.9032
  865MOL0     C14075  10.213   7.087   7.600 -0.3428 -0.3996 -0.2505
  865MOL0     C14076  10.255   6.977   7.523 -0.8115  0.4145  1.0340
  865MOL0     C14077  10.275   6.984   7.377  0.1282  0.0232 -1.1269
  865MOL0     O14078  10.320   6.868   7.320  0.3272  0.4095  0.0043
  865MOL0     C14079  10.304   6.844   7.186  0.8348 -0.1799 -0.6791
  865MOL0     C14080  10.403   6.779   7.108  0.9052  0.3429 -1.2161
  865MOL0     C14081  10.371   6.738   6.978  0.6974 -0.7253  1.3042
  865MOL0     C14082  10.247   6.757   6.915 -0.2729  0.0824 -0.2120
  865MOL0     O14083  10.227   6.707   6.791  0.6391 -0.5910  0.1730
  865MOL0     C14084  10.199   6.806   6.691  0.2762 -0.4823 -0.4812
  865MOL0     C14085  10.159   6.738   6.559  0.5305 -0.1409  0.0911
  865MOL0     C14086  10.039   6.636   6.584  0.0647  0.2421  1.1179
  865MOL0     C14087  10.008   6.547   6.467  1.2621  0.8703 -0.5836
  865MOL0     C14088   9.960   6.611   6.334  0.1172 -0.1331 -0.7165
  865MOL0     C14089   9.965   6.518   6.213  0.6537  0.3793 -0.1807
  865MOL0     C14090   9.962   6.577   6.077  0.1897 -0.6425 -0.1282
  865MOL0     C14091   9.985   6.468   5.967  0.0967  0.3751 -0.1496
  865MOL0    Cl14092  10.147   6.397   5.984  0.0624 -0.0243 -0.3660
  865MOL0     C14093  10.154   6.826   6.985  1.4772 -0.4967 -1.1394
  865MOL0     C14094  10.175   6.869   7.123 -0.4095  0.5164  0.3894
  865MOL0     O14095  10.255   7.086   7.321 -0.2951  0.5748  0.1512
  865MOL0     C14096  10.244   6.844   7.583 -0.2728 -0.3833  0.0088
  865MOL0     C14097  10.210   6.837   7.723  0.2783 -0.3269 -0.3029
  865MOL0     N14098  10.157   6.521   8.463  0.8699 -0.8756 -0.5393
  865MOL0     N14099  10.146   6.396   8.495 -0.2194  0.7403  0.6082
  865MOL0     C14100  10.195   6.115   9.315  0.1144 -0.1923  0.0083
  865MOL0     C14101  10.299   6.036   9.371 -0.0228 -0.5314 -0.6781
  865MOL0     C14102  10.577   5.917   9.710 -0.9470  0.5935 -0.5908
  865MOL0     C14103  10.654   5.839   9.619 -0.5723  0.9426 -0.2274
  865MOL0     C14104  10.750   5.757   9.675 -0.2041 -0.0590 -0.5225
  865MOL0     C14105  10.779   5.754   9.810  1.5402  0.4785  0.0975
  865MOL0     O14106  10.885   5.674   9.839  0.1282 -0.7114 -0.4847
  865MOL0     C14107  10.974   5.713   9.948  0.7345 -0.6552  0.2778
  865MOL0     C14108  11.115   5.658   9.924  0.1294 -0.2937  0.7487
  865MOL0     C14109  11.123   5.498   9.922  1.0889 -0.1522  0.1008
  865MOL0     C14110  11.257   5.451   9.878  0.0561  0.5298  0.4126
  865MOL0     C14111  11.303   5.510   9.751  0.4979 -0.2626  0.3394
  865MOL0     C14112  11.328   5.574   9.650  0.5636 -0.1784  0.1655
  865MOL0     C14113  10.710   5.840   9.898 -0.7749 -0.1553  0.1020
  865MOL0     C14114  10.605   5.921   9.850 -0.4326  0.4490 -0.3495
  865MOL0     H14115  10.499   6.296   9.483 -0.2910 -0.2918  2.4067
  865MOL0     H14116  10.326   6.421   9.391  0.9131  0.0622  2.2982
  865MOL0     H14117  10.195   6.454   9.159 -0.0894 -2.0094 -2.6685
  865MOL0     H14118  10.076   6.499   9.289  1.5891 -1.5415  0.4806
  865MOL0     H14119  10.018   6.578   9.053  0.0122  0.4455  0.8096
  865MOL0     H14120   9.899   6.470   9.119  1.1169 -0.9244  1.9203
  865MOL0     H14121  10.130   6.416   8.929  0.6632 -0.4675  2.6670
  865MOL0     H14122   9.952   6.418   8.886 -1.6443 -1.4671  0.7287
  865MOL0     H14123  10.108   6.192   9.005  1.4657  0.7583  2.4557
  865MOL0     H14124   9.951   6.218   9.069 -3.4702 -0.6703 -3.3154
  865MOL0     H14125   9.839   6.220   8.845 -0.5516 -0.2755 -1.1791
  865MOL0     H14126   9.916   6.075   8.878 -2.6108  0.9166  0.2443
  865MOL0     H14127  10.091   6.112   8.731 -1.2314 -0.6841 -0.5459
  865MOL0     H14128  10.072   6.288   8.719  0.8129  0.2019  0.0593
  865MOL0     H14129   9.860   6.081   8.601 -0.6685 -0.1755  1.3652
  865MOL0     H14130   9.834   6.254   8.610  0.3754  0.2653 -0.1115
  865MOL0     H14131   9.914   6.184   8.388 -0.0568 -1.1011  0.0649
  865MOL0     H14132  10.064   6.121   8.461  2.0549 -0.3901  1.9409
  865MOL0     H14133   9.869   6.429   8.349 -1.2391  0.5537  2.3806
  865MOL0     H14134  10.007   6.763   8.387 -1.3156 -0.6979  1.6051
  865MOL0     H14135   9.903   6.662   8.287  1.3313 -1.5758 -0.4256
  865MOL0     H14136  10.073   6.627   8.122 -0.6081  2.0852 -1.4602
  865MOL0     H14137  10.203   6.703   8.210  0.6838 -1.4891 -2.6761
  865MOL0     H14138   9.944   6.829   8.100  0.4742 -3.3791 -1.3712
  865MOL0     H14139  10.075   6.936   8.168  0.1300 -1.2252  2.3198
  865MOL0     H14140  10.068   6.764   7.934 -0.7777  1.3788 -1.2592
  865MOL0     H14141  10.235   6.814   7.995  0.6274  0.8655  0.2389
  865MOL0     H14142  10.126   7.167   7.776 -0.2354  0.8431  0.0926
  865MOL0     H14143  10.221   7.188   7.561 -0.7786 -0.1836  0.2086
  865MOL0     H14144  10.497   6.756   7.156 -0.2746 -0.2868  0.9488
  865MOL0     H14145  10.461   6.687   6.943  1.5011  0.3794  1.7259
  865MOL0     H14146  10.275   6.884   6.684  1.0926 -0.8999  2.5113
  865MOL0     H14147  10.105   6.849   6.726 -1.7131 -4.1386 -0.8211
  865MOL0     H14148  10.247   6.691   6.514  1.0328  0.7440  0.1267
  865MOL0     H14149  10.114   6.819   6.501  0.9190  0.3346  0.4449
  865MOL0     H14150   9.945   6.685   6.613 -0.1852  1.5214 -1.5746
  865MOL0     H14151  10.050   6.557   6.659 -0.4024 -0.4289  0.4916
  865MOL0     H14152  10.093   6.482   6.444 -1.9164 -2.4208 -4.5392
  865MOL0     H14153   9.927   6.480   6.497  0.8592  1.3187 -0.6577
  865MOL0     H14154  10.014   6.703   6.310  0.1422  0.0058 -0.1435
  865MOL0     H14155   9.857   6.634   6.362 -0.0851 -0.8818 -0.8479
  865MOL0     H14156   9.880   6.449   6.220 -1.1162  2.5003  0.4369
  865MOL0     H14157  10.057   6.462   6.230  0.9314  1.2150  1.3094
  865MOL0     H14158   9.866   6.627   6.060 -0.0085 -0.7125  0.7352
  865MOL0     H14159  10.040   6.654   6.078 -1.3743  1.0136 -0.0297
  865MOL0     H14160   9.963   6.510   5.868  2.4303 -1.5276 -1.5822
  865MOL0     H14161   9.910   6.389   5.974 -0.6450  0.9399 -1.3535
  865MOL0     H14162  10.053   6.845   6.949  0.5198  1.7918  2.2071
  865MOL0     H14163  10.090   6.922   7.165 -0.1341  0.4870  0.9995
  865MOL0     H14164  10.262   6.749   7.535 -0.8934  1.0668 -3.3935
  865MOL0     H14165  10.201   6.741   7.772  4.5926 -1.5894 -1.6199
  865MOL0     H14166  10.127   6.044   9.269 -0.0271 -2.7309  3.7005
  865MOL0     H14167  10.300   5.927   9.372  2.3419 -0.5712 -0.5390
  865MOL0     H14168  10.662   5.857   9.513 -0.6846  0.1255 -0.3734
  865MOL0     H14169  10.804   5.690   9.610 -3.4815 -0.7966 -2.6906
  865MOL0     H14170  10.940   5.685  10.048  0.2873  1.1206  0.6536
  865MOL0     H14171  10.974   5.822   9.947 -4.2535 -0.4400  0.3605
  865MOL0     H14172  11.148   5.707   9.832 -0.5503 -1.4376 -0.1270
  865MOL0     H14173  11.188   5.702   9.993  2.1758 -2.1373 -0.1481
  865MOL0     H14174  11.044   5.459   9.857  0.1801  2.0256 -0.1717
  865MOL0     H14175  11.114   5.451  10.021  2.5108  1.1845  0.9112
  865MOL0     H14176  11.326   5.452   9.964 -1.2274  1.9133  1.4714
  865MOL0     H14177  11.238   5.344   9.873 -1.6860  0.6242  3.1415
  865MOL0     H14178  11.371   5.635   9.573  3.4804 -2.1288  0.0895
  865MOL0     H14179  10.739   5.848  10.003 -0.0741 -0.8930 -0.0315
  865MOL0     H14180  10.553   5.987   9.919 -0.0001  1.0100 -0.5566
  866MOL0     O14181   8.218   2.421   5.616 -1.3023  0.3705 -0.8283
  866MOL0     C14182   8.257   2.525   5.560  0.4998  0.4338  0.2144
  866MOL0     O14183   8.375   2.572   5.562 -0.2150 -0.0109  0.2609
  866MOL0     C14184   8.468   2.514   5.651 -0.5686 -0.2037 -0.2637
  866MOL0     C14185   8.595   2.476   5.603 -0.4576  0.1712  0.5637
  866MOL0     C14186   8.681   2.419   5.697  0.4781  0.1338 -0.1489
  866MOL0     C14187   8.658   2.411   5.833 -0.2146 -0.1299  0.3885
  866MOL0     O14188   8.764   2.378   5.908  0.6499  0.0911  0.2687
  866MOL0     C14189   8.754   2.356   6.050 -0.9104  0.2424  0.3775
  866MOL0     C14190   8.681   2.226   6.083 -0.2326  0.7245  0.8510
  866MOL0     C14191   8.746   2.113   6.004  0.2909  0.1021  0.1139
  866MOL0     C14192   8.709   1.978   6.066 -0.4018 -0.1949  0.0328
  866MOL0     C14193   8.742   1.858   5.974 -0.0249  0.5273 -0.4874
  866MOL0     C14194   8.898   1.840   5.951  0.1372 -0.1251  0.5911
  866MOL0     C14195   8.929   1.737   5.833  0.1411 -0.0427  0.3991
  866MOL0     C14196   9.078   1.715   5.806  0.2691 -0.4489 -0.1933
  866MOL0     N14197   9.122   1.842   5.750 -0.1373  0.6327  0.6555
  866MOL0     C14198   9.125   1.879   5.610  0.2866  0.1842 -0.7210
  866MOL0     C14199   9.216   1.979   5.602  1.1998 -0.7509  0.0233
  866MOL0     C14200   9.263   2.044   5.472  0.0662  0.9151 -0.2582
  866MOL0     C14201   9.143   2.045   5.366 -0.7901 -0.4611  0.1528
  866MOL0     C14202   9.153   2.135   5.240 -0.1834 -0.2332 -0.2987
  866MOL0     C14203   9.020   2.122   5.173 -0.5910 -0.8134  0.5882
  866MOL0     O14204   8.922   2.204   5.237  0.3754 -0.2621  0.3425
  866MOL0     C14205   8.790   2.168   5.215  0.4354  0.3639  0.0552
  866MOL0     C14206   8.734   2.097   5.110 -0.0861  1.3157  0.2805
  866MOL0     C14207   8.597   2.075   5.104  0.6222  0.5976 -0.0401
  866MOL0     C14208   8.511   2.125   5.200  0.2259 -0.7146  1.0970
  866MOL0     C14209   8.373   2.080   5.211  0.3795 -0.0334 -0.3464
  866MOL0     O14210   8.313   2.061   5.334  0.2766 -0.9007 -0.3552
  866MOL0     C14211   8.191   2.009   5.346  0.2107  0.6844  0.0915
  866MOL0     C14212   8.096   2.074   5.425  0.0378  0.5844 -0.4328
  866MOL0     C14213   7.969   2.020   5.458 -0.4623 -0.4404  0.5565
  866MOL0     C14214   7.935   1.895   5.407  0.2354  0.2477  0.0972
  866MOL0     O14215   7.801   1.851   5.403  0.2993  0.6881  0.6937
  866MOL0     C14216   7.746   1.779   5.511  0.9602 -0.0920 -0.0677
  866MOL0     C14217   7.684   1.877   5.610  0.1776  0.1893  0.5761
  866MOL0     C14218   7.598   1.979   5.548 -0.3131 -0.1172 -0.4947
  866MOL0     C14219   7.510   2.065   5.644  0.0120 -0.1225 -0.9847
  866MOL0     C14220   7.386   2.114   5.572 -0.1041  0.1261 -0.4092
  866MOL0     C14221   7.322   2.223   5.658 -0.2416  0.2420  0.5237
  866MOL0     C14222   7.183   2.281   5.598 -0.1247  0.2720  0.2477
  866MOL0     C14223   7.087   2.348   5.691  0.4985 -0.3347 -0.0893
  866MOL0    Cl14224   7.136   2.521   5.703 -0.2795 -0.4207 -0.3688
  866MOL0     C14225   8.028   1.830   5.327 -0.1349  0.0814  0.4416
  866MOL0     C14226   8.148   1.888   5.289  0.6544 -1.0049 -0.1226
  866MOL0     O14227   8.318   2.059   5.105 -0.0107  0.1530  0.3682
  866MOL0     C14228   8.564   2.203   5.304 -0.7958  0.8867  0.6347
  866MOL0     C14229   8.700   2.221   5.308  0.0844 -0.9893  0.6954
  866MOL0     N14230   9.265   2.007   5.724 -0.7097 -0.0073  0.4512
  866MOL0     N14231   9.213   1.927   5.814  0.1075  0.4516  0.1754
  866MOL0     C14232   8.537   2.453   5.880  0.3589 -0.2874  0.1647
  866MOL0     C14233   8.440   2.506   5.793 -0.4250 -0.0739  0.2949
  866MOL0     C14234   8.156   2.596   5.479  0.4491  0.1789 -0.4527
  866MOL0     C14235   8.025   2.543   5.472 -1.0823 -0.4275 -0.4909
  866MOL0     C14236   7.928   2.607   5.398 -0.7984  0.2249  0.2977
  866MOL0     C14237   7.957   2.724   5.333 -0.6857 -0.3899  0.6692
  866MOL0     O14238   7.869   2.805   5.264 -0.5048  0.0261  1.3480
  866MOL0     C14239   7.734   2.782   5.267  0.1523  1.2018 -0.1942
  866MOL0     C14240   7.662   2.885   5.188  0.1228  0.0153 -0.8771
  866MOL0     C14241   7.643   2.839   5.035  0.7064 -0.6369 -0.1957
  866MOL0     C14242   7.615   2.954   4.934  0.0070  0.0276 -0.2834
  866MOL0     C14243   7.484   3.014   4.953 -0.4278 -0.3268 -0.5949
  866MOL0     C14244   7.376   3.074   4.967 -0.0663  0.2953  0.4811
  866MOL0     C14245   8.092   2.766   5.323 -0.4241 -0.7778 -0.0837
  866MOL0     C14246   8.187   2.698   5.393 -1.1144 -1.0327  0.0332
  866MOL0     H14247   8.612   2.486   5.496 -3.5135 -0.1592 -0.0221
  866MOL0     H14248   8.779   2.400   5.655  0.0979  0.0495 -1.0280
  866MOL0     H14249   8.719   2.441   6.109 -2.8394  0.4484 -0.9875
  866MOL0     H14250   8.857   2.352   6.088 -0.2513  0.6445 -1.2560
  866MOL0     H14251   8.576   2.229   6.054 -0.1101 -3.3385 -0.5425
  866MOL0     H14252   8.696   2.203   6.189  2.5570  1.6302  0.7339
  866MOL0     H14253   8.853   2.136   6.008  0.2015  0.3661  2.0097
  866MOL0     H14254   8.706   2.118   5.902 -2.3576  1.6979  1.1336
  866MOL0     H14255   8.749   1.970   6.168 -0.3364  0.3370  0.0495
  866MOL0     H14256   8.600   1.980   6.080 -0.2815  0.8898  1.0160
  866MOL0     H14257   8.693   1.878   5.879 -2.8467  2.0120  1.1458
  866MOL0     H14258   8.700   1.768   6.020 -1.2771  1.6386  0.6158
  866MOL0     H14259   8.938   1.796   6.043  2.1931  3.6360  1.6872
  866MOL0     H14260   8.945   1.936   5.932 -1.3789  0.4831 -0.2994
  866MOL0     H14261   8.873   1.645   5.856 -0.5490  0.4040  0.5268
  866MOL0     H14262   8.885   1.765   5.737  0.6058  1.0248  0.4929
  866MOL0     H14263   9.099   1.633   5.737  0.6732 -2.0367  1.7212
  866MOL0     H14264   9.127   1.687   5.899 -0.7673 -1.3740  0.0827
  866MOL0     H14265   9.063   1.837   5.532 -1.2280  0.4049  0.3042
  866MOL0     H14266   9.344   1.986   5.426 -0.5297 -0.5696  0.4916
  866MOL0     H14267   9.292   2.149   5.483 -0.9168  1.0747  1.0549
  866MOL0     H14268   9.054   2.074   5.423 -0.0621  0.4996  0.8490
  866MOL0     H14269   9.137   1.944   5.324 -2.2835  0.1611 -1.2238
  866MOL0     H14270   9.161   2.238   5.276 -1.0098 -1.3104  3.4538
  866MOL0     H14271   9.243   2.101   5.189  0.3952 -1.6242  1.5530
  866MOL0     H14272   8.976   2.022   5.173 -2.1275 -0.2276 -1.8243
  866MOL0     H14273   9.034   2.147   5.068  2.6134  1.1565  1.3466
  866MOL0     H14274   8.795   2.042   5.038 -0.3159 -0.9828  1.7690
  866MOL0     H14275   8.565   2.011   5.023 -0.1552  1.4022 -0.3886
  866MOL0     H14276   8.118   2.173   5.464 -1.5784  0.6294  0.4221
  866MOL0     H14277   7.901   2.080   5.520 -1.4176 -0.8224 -0.0984
  866MOL0     H14278   7.833   1.725   5.550 -0.0346 -1.4323  0.3489
  866MOL0     H14279   7.667   1.712   5.477  0.5646  1.6894 -3.0216
  866MOL0     H14280   7.766   1.932   5.657  1.8518 -0.3715 -1.5668
  866MOL0     H14281   7.624   1.828   5.687  1.0967 -0.0522  1.1550
  866MOL0     H14282   7.535   1.935   5.470 -0.1817  2.5679 -2.2370
  866MOL0     H14283   7.661   2.050   5.494 -1.5236  1.0519 -0.4156
  866MOL0     H14284   7.489   2.007   5.734 -1.4990 -0.6569 -1.6513
  866MOL0     H14285   7.575   2.149   5.672 -0.2610 -0.4589  0.7670
  866MOL0     H14286   7.309   2.040   5.551 -1.3751  1.4519 -0.5927
  866MOL0     H14287   7.422   2.151   5.475 -2.4541 -0.0475 -1.4185
  866MOL0     H14288   7.391   2.306   5.675 -2.3467  1.5759  3.6163
  866MOL0     H14289   7.315   2.176   5.757  2.9192 -0.9544  0.2810
  866MOL0     H14290   7.198   2.341   5.508 -0.7910 -1.5675 -1.1422
  866MOL0     H14291   7.130   2.189   5.573 -0.2434 -0.2648  2.2779
  866MOL0     H14292   7.095   2.289   5.782  1.9041 -1.9056 -1.1775
  866MOL0     H14293   6.989   2.350   5.642  0.4257  2.7323 -0.0215
  866MOL0     H14294   7.988   1.734   5.297 -0.7144  0.4855 -0.0875
  866MOL0     H14295   8.209   1.827   5.224  0.8131 -0.8916 -0.0792
  866MOL0     H14296   8.502   2.247   5.380 -1.5796  4.3655 -1.7702
  866MOL0     H14297   8.748   2.281   5.384  1.7726  0.3863 -1.3475
  866MOL0     H14298   8.518   2.462   5.987  1.9584  0.8565  0.3821
  866MOL0     H14299   8.340   2.530   5.828 -0.5276 -2.2566  1.7164
  866MOL0     H14300   7.998   2.457   5.532 -2.1866  0.1794 -0.0861
  866MOL0     H14301   7.829   2.563   5.384 -4.2675  5.6331  3.9789
  866MOL0     H14302   7.709   2.790   5.373  0.1655 -2.4982  0.2344
  866MOL0     H14303   7.706   2.681   5.234  1.7656  1.3933 -2.4281
  866MOL0     H14304   7.567   2.889   5.241  0.3545 -3.1754 -0.0025
  866MOL0     H14305   7.713   2.982   5.188 -0.7004  0.5387 -3.6213
  866MOL0     H14306   7.555   2.776   5.019 -1.3207  1.5243  1.6586
  866MOL0     H14307   7.733   2.795   4.993  1.4543  0.4226  0.2547
  866MOL0     H14308   7.691   3.032   4.943  4.4547 -3.8698 -0.7997
  866MOL0     H14309   7.622   2.915   4.832  1.2958  0.4675 -0.3761
  866MOL0     H14310   7.279   3.120   4.958 -0.3490 -0.4317 -0.2625
  866MOL0     H14311   8.105   2.837   5.242 -1.4625 -0.0339  0.3887
  866MOL0     H14312   8.286   2.742   5.389 -2.4632  2.2051 -1.7520
  867MOL0     O14313   8.275   9.708  10.678 -0.0541 -0.5479  0.6191
  867MOL0     C14314   8.255   9.604  10.614  0.0142  0.7327 -0.9572
  867MOL0     O14315   8.351   9.519  10.560 -0.7547 -0.0081 -0.0717
  867MOL0     C14316   8.481   9.569  10.564  0.0010  0.5635  0.3533
  867MOL0     C14317   8.575   9.515  10.663 -0.4117 -1.0129 -0.6595
  867MOL0     C14318   8.705   9.569  10.669  0.6140  0.1444  0.1175
  867MOL0     C14319   8.737   9.683  10.591 -0.6234 -1.1400  0.6647
  867MOL0     O14320   8.856   9.748  10.593 -0.1413 -0.6869 -1.0727
  867MOL0     C14321   8.961   9.705  10.681 -0.3184 -0.0335  0.7796
  867MOL0     C14322   9.094   9.766  10.631 -0.5096 -0.4714  1.3824
  867MOL0     C14323   9.219   9.692  10.690  0.8115  0.3615  0.3323
  867MOL0     C14324   9.256   9.712  10.839 -0.2190  1.0491 -0.9035
  867MOL0     C14325   9.351   9.593  10.888  0.5166 -1.0456 -0.1230
  867MOL0     C14326   9.293   9.453  10.872 -0.2441  0.1393  0.0321
  867MOL0     C14327   9.399   9.342  10.920  1.0622 -0.3141  0.0173
  867MOL0     C14328   9.446   9.361  11.062 -0.4429  0.4225 -0.0177
  867MOL0     N14329   9.493   9.227  11.097 -0.3813  0.6269 -0.7603
  867MOL0     C14330   9.624   9.192  11.084  0.7650  0.3938  0.1411
  867MOL0     C14331   9.630   9.060  11.126  0.4579 -0.2918  0.9833
  867MOL0     C14332   9.755   8.977  11.130  0.3345 -0.0973 -0.2248
  867MOL0     C14333   9.742   8.852  11.034 -0.5657  1.0082  0.5452
  867MOL0     C14334   9.690   8.722  11.102  0.6421 -0.5362 -0.1598
  867MOL0     C14335   9.660   8.621  10.994 -0.3416 -0.0779  0.5375
  867MOL0     O14336   9.615   8.496  11.051 -0.3313 -0.8547  1.0240
  867MOL0     C14337   9.699   8.399  11.095 -0.8016 -0.2125 -1.0367
  867MOL0     C14338   9.652   8.278  11.152 -0.4839  0.8934 -0.0948
  867MOL0     C14339   9.737   8.187  11.212  1.0004  0.2276 -0.1320
  867MOL0     C14340   9.875   8.197  11.199 -1.3434  0.2339  0.7390
  867MOL0     C14341   9.960   8.096  11.250  0.1116  0.3136  0.2955
  867MOL0     O14342   9.910   7.964  11.254  0.3104 -0.8491  0.5567
  867MOL0     C14343   9.986   7.858  11.301  0.1515 -0.3771 -0.7557
  867MOL0     C14344   9.934   7.776  11.398  0.4894 -0.6173 -0.8467
  867MOL0     C14345  10.010   7.682  11.467 -0.6299  1.0834 -0.0602
  867MOL0     C14346  10.141   7.664  11.435 -0.0157  0.3220 -0.1724
  867MOL0     O14347  10.221   7.561  11.483 -0.1978  0.5923  0.0956
  867MOL0     C14348  10.172   7.472  11.595 -0.8951  0.5129  0.7619
  867MOL0     C14349  10.289   7.372  11.621  0.5900  1.0285 -0.5585
  867MOL0     C14350  10.339   7.284  11.507 -0.0805  0.6546 -0.5608
  867MOL0     C14351  10.458   7.205  11.560  1.3164 -0.8178 -0.8021
  867MOL0     C14352  10.502   7.102  11.456  0.0847  0.0120  0.3246
  867MOL0     C14353  10.641   7.052  11.482 -0.4416 -0.2215 -0.0541
  867MOL0     C14354  10.686   6.949  11.377 -0.3120  0.0869  0.0506
  867MOL0     C14355  10.796   6.859  11.432  0.6545 -0.7211  0.3142
  867MOL0    Cl14356  10.727   6.736  11.542  0.0243 -0.0634 -0.1181
  867MOL0     C14357  10.197   7.747  11.340 -0.6420  0.3926  0.1620
  867MOL0     C14358  10.118   7.836  11.271 -0.9529  0.2605  0.2710
  867MOL0     O14359  10.076   8.129  11.277  0.6911  0.8556  0.2302
  867MOL0     C14360   9.924   8.315  11.138  0.1440 -0.0363 -1.0598
  867MOL0     C14361   9.839   8.412  11.087  0.3752 -0.2793  0.9011
  867MOL0     N14362   9.504   9.028  11.174 -0.0041 -0.4398  0.4549
  867MOL0     N14363   9.423   9.122  11.154 -0.8529  0.0977  0.5986
  867MOL0     C14364   8.648   9.723  10.494 -0.1173 -0.0770 -0.4424
  867MOL0     C14365   8.521   9.660  10.476 -0.2350 -0.9447 -0.2690
  867MOL0     C14366   8.120   9.549  10.605 -0.3735  1.2116  0.2316
  867MOL0     C14367   8.091   9.433  10.536  1.2243  0.2780  0.8381
  867MOL0     C14368   7.958   9.395  10.527 -0.5037  0.3138  0.7175
  867MOL0     C14369   7.846   9.468  10.576 -0.3766  0.0248 -0.9351
  867MOL0     O14370   7.717   9.431  10.581  0.1460  0.4864 -0.0145
  867MOL0     C14371   7.678   9.354  10.475  0.3526  0.7079  0.4710
  867MOL0     C14372   7.573   9.431  10.394  0.5113  0.6033  0.2051
  867MOL0     C14373   7.442   9.426  10.452  0.7327  1.1313 -0.3677
  867MOL0     C14374   7.341   9.466  10.343 -0.1488  0.4179 -0.4062
  867MOL0     C14375   7.207   9.492  10.399 -0.9659 -0.1593 -0.1111
  867MOL0     C14376   7.098   9.494  10.460 -0.3892 -0.3688  0.0960
  867MOL0     C14377   7.880   9.579  10.643  0.0470 -0.3233 -0.3979
  867MOL0     C14378   8.012   9.620  10.660 -0.4308 -0.4019 -0.1769
  867MOL0     H14379   8.540   9.430  10.720 -1.1320 -1.7783 -2.1544
  867MOL0     H14380   8.782   9.531  10.736  1.4732  3.3966  1.1704
  867MOL0     H14381   8.968   9.598  10.699 -2.3139 -0.1058  1.3903
  867MOL0     H14382   8.932   9.757  10.773 -3.1866  2.7492 -1.4761
  867MOL0     H14383   9.100   9.869  10.670 -0.6594 -1.5191  4.4937
  867MOL0     H14384   9.100   9.758  10.522  2.0963 -3.9675  1.5917
  867MOL0     H14385   9.314   9.720  10.644  2.0457 -0.6232  2.1487
  867MOL0     H14386   9.189   9.591  10.661 -2.0725  0.5486  2.1706
  867MOL0     H14387   9.325   9.797  10.843  2.0430 -0.7283  2.3576
  867MOL0     H14388   9.173   9.715  10.910 -2.2931  1.0478 -3.1901
  867MOL0     H14389   9.404   9.608  10.982 -4.1191 -2.8662  3.1918
  867MOL0     H14390   9.427   9.607  10.811  0.8580  1.5027  0.5923
  867MOL0     H14391   9.264   9.440  10.767 -0.8905  3.6059 -0.3323
  867MOL0     H14392   9.204   9.431  10.932  0.6813 -0.9747  1.0594
  867MOL0     H14393   9.365   9.239  10.902 -2.6017  0.9418 -1.1565
  867MOL0     H14394   9.481   9.357  10.848 -0.6281  3.3875 -1.3650
  867MOL0     H14395   9.362   9.387  11.127  0.6517  1.5063  1.0107
  867MOL0     H14396   9.528   9.429  11.087 -0.5753  1.0265 -1.1947
  867MOL0     H14397   9.709   9.248  11.048  1.3870 -0.6033  0.0149
  867MOL0     H14398   9.783   8.947  11.232  2.5859  2.4610  0.0192
  867MOL0     H14399   9.842   9.035  11.096  0.2504 -0.5614 -1.2856
  867MOL0     H14400   9.840   8.822  10.995  0.0692  0.8456  2.1878
  867MOL0     H14401   9.685   8.861  10.941 -0.1122  1.8123  0.3336
  867MOL0     H14402   9.774   8.698  11.168  0.5114  0.5571  0.4444
  867MOL0     H14403   9.592   8.740  11.148 -0.2131 -0.4223 -1.9470
  867MOL0     H14404   9.751   8.597  10.938 -0.9070 -0.6551 -0.1505
  867MOL0     H14405   9.580   8.660  10.931 -0.7267  2.5123  2.5099
  867MOL0     H14406   9.546   8.262  11.166  0.0560 -1.7670  1.7652
  867MOL0     H14407   9.687   8.093  11.235  3.4502 -1.6483 -1.8893
  867MOL0     H14408   9.833   7.806  11.423  1.5248  3.6508 -1.1110
  867MOL0     H14409   9.973   7.623  11.550  2.2949 -1.1351 -0.1836
  867MOL0     H14410  10.092   7.408  11.556 -0.0380  1.1998 -2.4482
  867MOL0     H14411  10.154   7.526  11.688  2.1402 -0.2474  1.9214
  867MOL0     H14412  10.248   7.303  11.696 -1.2313  0.7315 -1.7813
  867MOL0     H14413  10.369   7.434  11.661 -1.2060  1.1387  3.3184
  867MOL0     H14414  10.381   7.343  11.425  0.2858  2.9167  1.1285
  867MOL0     H14415  10.254   7.220  11.481  0.7524 -0.8231  0.2493
  867MOL0     H14416  10.542   7.273  11.573  1.2391 -0.3476 -2.4739
  867MOL0     H14417  10.434   7.163  11.658  1.9298  3.7210  1.5374
  867MOL0     H14418  10.484   7.143  11.356 -1.1374  0.5072  0.7322
  867MOL0     H14419  10.432   7.022  11.482 -1.7128  2.1658  2.6130
  867MOL0     H14420  10.642   7.022  11.587  0.5217 -0.8985 -0.2521
  867MOL0     H14421  10.720   7.128  11.480 -1.1757  0.7383  2.5084
  867MOL0     H14422  10.608   6.885  11.336 -1.8599  0.8117  1.7273
  867MOL0     H14423  10.734   7.004  11.295  2.4438 -1.5341  0.4319
  867MOL0     H14424  10.866   6.927  11.483  0.1932 -0.5914  0.7790
  867MOL0     H14425  10.855   6.801  11.360 -0.8673 -1.4648 -0.3613
  867MOL0     H14426  10.290   7.712  11.295 -0.8193 -0.3461  0.3575
  867MOL0     H14427  10.149   7.894  11.184  1.4367 -1.2436  0.0379
  867MOL0     H14428  10.032   8.324  11.130  0.0591  0.5626 -1.6328
  867MOL0     H14429   9.893   8.500  11.054  1.6111 -0.8386  1.3518
  867MOL0     H14430   8.677   9.810  10.436  0.0080  0.4361  0.3665
  867MOL0     H14431   8.457   9.699  10.398 -0.9988 -0.1046  0.7427
  867MOL0     H14432   8.164   9.362  10.497  1.8826  0.5811  1.4965
  867MOL0     H14433   7.950   9.294  10.487 -0.0184  0.0107  1.3565
  867MOL0     H14434   7.633   9.267  10.524 -2.2224  1.6579 -0.0694
  867MOL0     H14435   7.751   9.320  10.401 -0.6226  2.3722 -1.3308
  867MOL0     H14436   7.607   9.534  10.378  1.2831  0.3575  0.1849
  867MOL0     H14437   7.580   9.384  10.296  1.2281  1.1146  0.0048
  867MOL0     H14438   7.427   9.493  10.538  1.0915  0.2452  0.3980
  867MOL0     H14439   7.417   9.324  10.480  2.0598  0.2345 -2.2550
  867MOL0     H14440   7.363   9.557  10.287 -1.3175  2.0270  1.5713
  867MOL0     H14441   7.342   9.393  10.262  0.3588  0.9286 -0.8614
  867MOL0     H14442   7.006   9.511  10.512 -0.0297  1.0901  0.3047
  867MOL0     H14443   7.797   9.638  10.682 -0.2284 -0.5635 -0.6131
  867MOL0     H14444   8.027   9.716  10.707  0.1665 -0.6067  0.0662
  868MOL0     O14445   3.134   4.530   4.681  0.2371 -0.3853 -0.2031
  868MOL0     C14446   3.132   4.618   4.593 -0.0098  0.8126 -0.4893
  868MOL0     O14447   3.236   4.647   4.511 -0.1149 -0.3844  0.5666
  868MOL0     C14448   3.348   4.565   4.510 -0.0946  0.5413 -1.0841
  868MOL0     C14449   3.336   4.446   4.458  0.3396 -0.1256  0.5631
  868MOL0     C14450   3.432   4.350   4.453 -0.4842 -1.1329 -0.1735
  868MOL0     C14451   3.558   4.376   4.499 -0.1092  0.0081  0.1323
  868MOL0     O14452   3.672   4.305   4.470 -0.3173  0.4146 -0.2930
  868MOL0     C14453   3.793   4.323   4.544  0.0024  0.2130  0.2565
  868MOL0     C14454   3.854   4.180   4.554  0.2473  0.7554  0.5645
  868MOL0     C14455   4.006   4.190   4.604  0.4897  0.1248 -0.2097
  868MOL0     C14456   4.061   4.057   4.649 -0.1557  0.3080 -0.3186
  868MOL0     C14457   4.185   4.063   4.727 -0.3098  0.5189 -0.4516
  868MOL0     C14458   4.238   3.925   4.760 -0.6843 -0.3693 -0.7281
  868MOL0     C14459   4.369   3.928   4.853  0.3064 -0.4318  1.6380
  868MOL0     C14460   4.484   3.946   4.755 -0.9671  0.5508  0.4813
  868MOL0     N14461   4.617   3.950   4.829 -0.7606  0.1621 -0.2521
  868MOL0     C14462   4.690   3.843   4.873 -0.1423  1.0923 -0.5143
  868MOL0     C14463   4.800   3.890   4.926 -0.3460  0.1350 -0.4318
  868MOL0     C14464   4.912   3.811   4.997 -0.3405 -0.3740 -0.0277
  868MOL0     C14465   5.050   3.863   4.956  0.4598 -0.6081  0.8879
  868MOL0     C14466   5.148   3.778   5.032  0.4728 -0.0652  0.2505
  868MOL0     C14467   5.292   3.822   5.018  1.2523 -0.2287  0.8067
  868MOL0     O14468   5.358   3.778   4.896 -0.0201 -0.1862 -0.2640
  868MOL0     C14469   5.494   3.747   4.910  0.0347  0.0248  0.2007
  868MOL0     C14470   5.577   3.807   5.002 -0.2838  0.4524  0.4064
  868MOL0     C14471   5.717   3.809   4.993 -0.6049 -0.0642  0.2330
  868MOL0     C14472   5.775   3.741   4.876 -0.0763  0.2346 -0.3892
  868MOL0     C14473   5.922   3.752   4.845 -0.0296  0.3868  0.5977
  868MOL0     O14474   5.962   3.664   4.746 -0.2820  0.2395  0.8423
  868MOL0     C14475   6.092   3.663   4.710 -0.6892  0.2348 -0.4418
  868MOL0     C14476   6.185   3.592   4.783  0.8405 -0.8312 -0.2068
  868MOL0     C14477   6.323   3.581   4.754 -0.6082  0.7539 -0.0081
  868MOL0     C14478   6.370   3.655   4.643  0.4609 -0.0013 -0.7336
  868MOL0     O14479   6.502   3.636   4.612  0.0287 -0.1995  0.8453
  868MOL0     C14480   6.568   3.714   4.521 -0.3007 -0.3108 -0.2788
  868MOL0     C14481   6.593   3.859   4.586 -0.1128 -1.1774 -0.4689
  868MOL0     C14482   6.718   3.938   4.546  0.1112 -0.4888 -0.6714
  868MOL0     C14483   6.689   3.999   4.405 -0.2347 -0.4010  1.2235
  868MOL0     C14484   6.806   4.090   4.372  0.0752 -1.2150  0.1877
  868MOL0     C14485   6.803   4.226   4.442 -0.2778 -0.5538 -0.5385
  868MOL0     C14486   6.898   4.327   4.384 -0.7500 -0.3694 -0.2797
  868MOL0     C14487   6.933   4.445   4.475  0.2022 -0.3067 -0.0278
  868MOL0    Cl14488   6.931   4.438   4.648 -0.4947 -0.3335 -0.4140
  868MOL0     C14489   6.276   3.726   4.566  0.5875 -0.2409 -0.1779
  868MOL0     C14490   6.138   3.744   4.603 -0.1720  0.2994 -0.7522
  868MOL0     O14491   5.997   3.825   4.904 -0.0055 -0.0297  0.1192
  868MOL0     C14492   5.693   3.675   4.786 -0.0660  0.3169  0.3038
  868MOL0     C14493   5.547   3.675   4.802  0.0418 -0.1475  0.7029
  868MOL0     N14494   4.788   4.026   4.911 -0.1626 -0.5284 -0.5578
  868MOL0     N14495   4.682   4.070   4.857  0.5762 -0.3569 -0.2574
  868MOL0     C14496   3.577   4.502   4.556  0.4352 -0.4491 -0.3185
  868MOL0     C14497   3.473   4.596   4.567 -0.0959  0.1157  0.5379
  868MOL0     C14498   3.001   4.693   4.575 -0.4190 -0.1970 -0.5118
  868MOL0     C14499   2.915   4.690   4.684 -0.0239 -0.5422 -0.1928
  868MOL0     C14500   2.799   4.769   4.684 -0.3043  0.3123  0.0314
  868MOL0     C14501   2.768   4.858   4.580 -0.6140  0.4885 -0.0257
  868MOL0     O14502   2.655   4.937   4.587 -0.3920  0.8792 -0.2689
  868MOL0     C14503   2.636   5.037   4.489 -0.8674  0.5390 -0.4215
  868MOL0     C14504   2.512   5.111   4.520  0.0324 -0.6418  0.9379
  868MOL0     C14505   2.506   5.251   4.451  0.1696 -0.5908  0.4329
  868MOL0     C14506   2.361   5.297   4.439 -0.0517  0.1007  0.1854
  868MOL0     C14507   2.348   5.374   4.323  0.9194 -0.0282  0.5495
  868MOL0     C14508   2.348   5.433   4.217 -0.8046 -0.8919  0.7850
  868MOL0     C14509   2.863   4.866   4.477 -0.2805  0.8331 -0.2454
  868MOL0     C14510   2.981   4.781   4.475  0.3067 -0.0830 -0.3624
  868MOL0     H14511   3.242   4.404   4.423  0.7873 -2.2171  1.7447
  868MOL0     H14512   3.427   4.257   4.397  2.9167 -0.8277 -1.2554
  868MOL0     H14513   3.771   4.352   4.648  0.2354  1.3483  0.0064
  868MOL0     H14514   3.869   4.396   4.513  3.4672 -1.9893  2.7366
  868MOL0     H14515   3.854   4.122   4.461  0.5932  0.2483  0.8739
  868MOL0     H14516   3.786   4.133   4.626 -4.1071  2.1119 -2.2931
  868MOL0     H14517   4.002   4.247   4.697 -0.1992  0.8291 -0.6656
  868MOL0     H14518   4.077   4.236   4.535  1.6439  1.5774  1.8425
  868MOL0     H14519   3.990   4.010   4.717  1.0313  0.6755  1.2363
  868MOL0     H14520   4.065   3.983   4.568 -2.2777  0.1270 -0.3173
  868MOL0     H14521   4.165   4.102   4.828 -1.0951 -0.3378 -0.2661
  868MOL0     H14522   4.259   4.125   4.676  0.5325  0.1990  0.3530
  868MOL0     H14523   4.263   3.880   4.663  0.3239  1.4708 -1.3863
  868MOL0     H14524   4.163   3.870   4.817  0.9052 -0.2812  1.6074
  868MOL0     H14525   4.365   4.007   4.929 -1.4569 -0.1851  1.3316
  868MOL0     H14526   4.379   3.831   4.902 -0.7525 -0.5924  1.5626
  868MOL0     H14527   4.468   4.032   4.689  0.8327  0.5633  0.0028
  868MOL0     H14528   4.504   3.865   4.684  0.8769  0.1914  1.3367
  868MOL0     H14529   4.662   3.740   4.853 -1.7737  1.7556 -1.8557
  868MOL0     H14530   4.913   3.704   4.972  0.2768  0.1171 -2.2642
  868MOL0     H14531   4.890   3.818   5.104 -1.5867  0.4671 -0.3207
  868MOL0     H14532   5.060   3.969   4.984  2.6259  0.0692 -1.9672
  868MOL0     H14533   5.064   3.853   4.848  0.4391  2.3215  0.5248
  868MOL0     H14534   5.125   3.770   5.139 -0.6479  1.2584  0.1373
  868MOL0     H14535   5.140   3.671   5.007 -0.9704 -0.4792  2.2026
  868MOL0     H14536   5.355   3.793   5.103  4.1128  2.8525 -0.0591
  868MOL0     H14537   5.289   3.931   5.020 -4.2724 -0.0906  0.3724
  868MOL0     H14538   5.536   3.880   5.072  0.7482  3.5706 -1.9869
  868MOL0     H14539   5.777   3.864   5.065  1.9421 -2.8308  0.3884
  868MOL0     H14540   6.158   3.544   4.877  4.7328 -0.5249  1.2662
  868MOL0     H14541   6.381   3.519   4.821 -2.8585  0.2948  1.6265
  868MOL0     H14542   6.512   3.730   4.429 -0.1420  0.5119 -0.2391
  868MOL0     H14543   6.666   3.669   4.506  1.2201  2.1933  1.2867
  868MOL0     H14544   6.620   3.856   4.692  0.9858  0.4352 -0.6672
  868MOL0     H14545   6.510   3.929   4.580 -0.3782 -1.6020 -2.5447
  868MOL0     H14546   6.805   3.871   4.547  0.6281  0.1423 -1.6933
  868MOL0     H14547   6.725   4.023   4.614 -3.6340 -1.9990  1.9134
  868MOL0     H14548   6.688   3.919   4.331  1.7775 -1.5392  2.3253
  868MOL0     H14549   6.587   4.036   4.387 -1.3748 -3.2011  1.4236
  868MOL0     H14550   6.810   4.105   4.264  0.0316 -2.2974  0.0272
  868MOL0     H14551   6.896   4.029   4.377  0.3454 -1.2601 -3.2118
  868MOL0     H14552   6.831   4.209   4.546 -0.5403 -1.3826 -0.6010
  868MOL0     H14553   6.703   4.271   4.438 -0.6107 -0.9767  1.7099
  868MOL0     H14554   6.995   4.285   4.355 -0.9970 -0.2923 -1.2441
  868MOL0     H14555   6.844   4.360   4.295 -2.0725  0.2046  0.6941
  868MOL0     H14556   6.856   4.523   4.467 -1.0700 -1.3379  1.5571
  868MOL0     H14557   7.022   4.486   4.426  1.3512 -0.6441  1.7051
  868MOL0     H14558   6.300   3.762   4.466 -0.2192 -1.8176 -0.9827
  868MOL0     H14559   6.068   3.808   4.551  1.6247  3.0128 -0.0708
  868MOL0     H14560   5.730   3.621   4.700  2.7549 -0.5206  1.9287
  868MOL0     H14561   5.482   3.627   4.731  2.4487 -0.7606 -1.2125
  868MOL0     H14562   3.670   4.533   4.604 -0.0833 -1.3832  1.3945
  868MOL0     H14563   3.487   4.694   4.612  1.8600  0.1197  0.0272
  868MOL0     H14564   2.938   4.614   4.758  0.1888 -0.6116 -0.3303
  868MOL0     H14565   2.736   4.767   4.772 -1.7033  0.9876 -0.9176
  868MOL0     H14566   2.643   4.993   4.389  2.6783  0.3127 -0.2219
  868MOL0     H14567   2.726   5.099   4.493 -0.2549 -0.2648 -1.2715
  868MOL0     H14568   2.429   5.057   4.474  0.0183  2.1700 -2.8772
  868MOL0     H14569   2.492   5.119   4.627 -1.8275 -0.0212  0.5903
  868MOL0     H14570   2.559   5.247   4.355  2.5733 -0.2041  1.6686
  868MOL0     H14571   2.554   5.329   4.511 -0.7258  0.4653 -0.1952
  868MOL0     H14572   2.289   5.215   4.424 -1.5257  1.4875 -0.6027
  868MOL0     H14573   2.325   5.362   4.520  1.7776 -1.3743  2.3045
  868MOL0     H14574   2.341   5.471   4.117  1.7178 -3.7957 -0.6699
  868MOL0     H14575   2.846   4.933   4.393 -1.0903 -1.5427 -2.0734
  868MOL0     H14576   3.033   4.791   4.381  1.4132  0.6511  0.3109
  869MOL0     O14577   9.207   1.072   0.090  0.4428 -0.5765  0.1351
  869MOL0     C14578   9.210   0.963   0.045 -0.0786  0.4643  0.0442
  869MOL0     O14579   9.220   0.852   0.117  0.5841 -0.7381  0.4329
  869MOL0     C14580   9.227   0.843   0.260 -0.0461 -0.7417 -0.3052
  869MOL0     C14581   9.256   0.945   0.357 -0.7086 -0.2308  0.4916
  869MOL0     C14582   9.274   0.918   0.490 -0.5175 -0.1205  0.8851
  869MOL0     C14583   9.244   0.790   0.534 -0.6644  0.4123  0.4755
  869MOL0     O14584   9.286   0.745   0.661 -0.3695  0.1376 -0.6943
  869MOL0     C14585   9.407   0.800   0.710  1.4121  0.2254 -0.6710
  869MOL0     C14586   9.466   0.713   0.827  0.1120 -0.4127  0.1495
  869MOL0     C14587   9.589   0.781   0.899  0.6672  0.6587  0.5248
  869MOL0     C14588   9.704   0.809   0.807 -0.2973 -0.1118  0.2843
  869MOL0     C14589   9.811   0.888   0.877  0.8592 -0.5265  0.3481
  869MOL0     C14590   9.890   0.828   0.992 -0.5606 -0.4173 -0.1078
  869MOL0     C14591  10.004   0.745   0.925  0.2056  0.2980 -0.0296
  869MOL0     C14592  10.125   0.828   0.878 -0.6532  0.2388 -0.4025
  869MOL0     N14593  10.244   0.734   0.868  0.4142 -0.4865 -0.2040
  869MOL0     C14594  10.288   0.671   0.752 -0.3974 -0.5242 -0.4812
  869MOL0     C14595  10.362   0.574   0.792 -0.2598  0.4982 -0.7198
  869MOL0     C14596  10.430   0.456   0.731  0.2965  0.0370  0.8341
  869MOL0     C14597  10.562   0.505   0.663  0.3791  0.7440  0.3315
  869MOL0     C14598  10.542   0.617   0.554  0.2957 -0.3950 -0.2664
  869MOL0     C14599  10.490   0.558   0.419  0.2052 -0.5621  0.1766
  869MOL0     O14600  10.350   0.591   0.410 -1.0430 -0.2106  0.6171
  869MOL0     C14601  10.300   0.673   0.317  0.2480  0.4635 -1.0706
  869MOL0     C14602  10.160   0.685   0.309 -0.9677  0.4260 -0.5382
  869MOL0     C14603  10.094   0.785   0.242 -1.2423 -0.6902  0.3061
  869MOL0     C14604  10.169   0.878   0.171 -0.9616 -0.1056 -0.1774
  869MOL0     C14605  10.102   0.990   0.113 -0.5216  0.2123  0.7019
  869MOL0     O14606   9.968   0.991   0.132  0.5497  0.3361 -0.0833
  869MOL0     C14607   9.887   1.082   0.072 -0.2642 -0.5420 -0.2964
  869MOL0     C14608   9.867   1.090  -0.067 -0.1811  0.2559  0.2522
  869MOL0     C14609   9.759   1.165  -0.124  0.4801  0.7041  0.4357
  869MOL0     C14610   9.665   1.232  -0.047  0.9825 -1.1693 -0.7730
  869MOL0     O14611   9.562   1.308  -0.103 -0.4295  0.2763 -0.2829
  869MOL0     C14612   9.429   1.288  -0.043 -0.3947  0.8868 -0.2643
  869MOL0     C14613   9.334   1.384  -0.113  0.9571 -0.3814 -0.1289
  869MOL0     C14614   9.336   1.354  -0.265  0.4126 -0.0965  0.9074
  869MOL0     C14615   9.218   1.420  -0.345 -0.5204  0.7134 -0.3129
  869MOL0     C14616   9.203   1.373  -0.490 -0.0650  1.0329 -0.2458
  869MOL0     C14617   9.075   1.435  -0.551  0.0946  0.0639  0.6949
  869MOL0     C14618   9.096   1.486  -0.694 -0.5240  0.1857  0.5877
  869MOL0     C14619   9.075   1.379  -0.809  0.1494 -0.0262  0.4123
  869MOL0    Cl14620   9.206   1.403  -0.927 -0.2026 -0.2635  0.0300
  869MOL0     C14621   9.692   1.239   0.092  0.6887 -0.9036  0.0600
  869MOL0     C14622   9.792   1.163   0.148 -0.3682  0.5280  0.5446
  869MOL0     O14623  10.167   1.078   0.053  0.3594 -0.6085  0.0862
  869MOL0     C14624  10.306   0.858   0.165 -0.6349 -0.5203 -0.0743
  869MOL0     C14625  10.369   0.757   0.238 -0.0511 -0.0638 -0.6933
  869MOL0     N14626  10.378   0.590   0.931 -0.0614 -0.2150  0.5922
  869MOL0     N14627  10.292   0.680   0.978  0.5786 -0.1526 -0.5389
  869MOL0     C14628   9.201   0.696   0.439 -0.0621  1.2325 -0.3955
  869MOL0     C14629   9.196   0.718   0.303  1.0778  0.3617  0.7441
  869MOL0     C14630   9.196   0.956  -0.105  0.1546  0.4208  0.1678
  869MOL0     C14631   9.143   1.067  -0.179 -0.8842 -0.0284  0.8935
  869MOL0     C14632   9.108   1.050  -0.312 -0.5847 -0.6843 -0.0969
  869MOL0     C14633   9.128   0.923  -0.376 -0.2517 -0.4502 -0.0567
  869MOL0     O14634   9.101   0.901  -0.511 -0.9124 -0.6999  0.4371
  869MOL0     C14635   9.181   0.806  -0.580  0.3437  0.4665 -0.2441
  869MOL0     C14636   9.154   0.824  -0.732  0.1621 -0.3320 -0.3489
  869MOL0     C14637   9.215   0.966  -0.779  0.2610 -0.1933  0.0217
  869MOL0     C14638   9.368   0.959  -0.810  0.1786  0.2629 -0.5221
  869MOL0     C14639   9.411   1.052  -0.916 -0.1072 -0.1553  0.3039
  869MOL0     C14640   9.454   1.110  -1.011 -0.0588 -0.6014 -0.0440
  869MOL0     C14641   9.182   0.817  -0.300  0.8849  0.4005 -0.8000
  869MOL0     C14642   9.220   0.827  -0.162  0.2559 -0.0961 -0.6632
  869MOL0     H14643   9.269   1.052   0.338  1.3128 -0.5957 -0.4415
  869MOL0     H14644   9.314   0.996   0.555  0.6240  0.4181 -0.4204
  869MOL0     H14645   9.375   0.893   0.756 -2.4927 -0.1375 -2.2814
  869MOL0     H14646   9.484   0.815   0.633  1.1334  0.2302 -0.9489
  869MOL0     H14647   9.472   0.612   0.787  1.3351 -0.3120  0.0498
  869MOL0     H14648   9.395   0.712   0.910  1.6765 -1.1868  1.5327
  869MOL0     H14649   9.607   0.717   0.985  0.0616 -0.5010 -0.1751
  869MOL0     H14650   9.556   0.879   0.933 -1.0299  1.0520 -1.9503
  869MOL0     H14651   9.747   0.713   0.778  0.1945  0.9851 -2.9621
  869MOL0     H14652   9.680   0.857   0.712 -1.1303 -0.3771  0.3518
  869MOL0     H14653   9.771   0.978   0.924 -1.1489 -2.3606  2.3568
  869MOL0     H14654   9.889   0.919   0.806  0.7378 -0.4983  0.2262
  869MOL0     H14655   9.832   0.760   1.056  3.2209 -3.4507  0.4842
  869MOL0     H14656   9.931   0.904   1.059  1.5361 -0.3058 -1.4271
  869MOL0     H14657  10.038   0.662   0.988 -1.8090 -1.0509 -0.5960
  869MOL0     H14658   9.963   0.685   0.843  4.2742 -3.0886  0.0923
  869MOL0     H14659  10.139   0.904   0.956 -0.3656  1.8587 -1.9639
  869MOL0     H14660  10.114   0.885   0.786  2.0006  2.2370  0.3917
  869MOL0     H14661  10.255   0.692   0.651  2.8163  2.2713 -1.1121
  869MOL0     H14662  10.355   0.429   0.657  0.2567  3.2880 -0.4691
  869MOL0     H14663  10.446   0.385   0.813 -1.7539  0.2093  1.4326
  869MOL0     H14664  10.603   0.420   0.608 -1.5032 -0.2937  0.4409
  869MOL0     H14665  10.640   0.538   0.732 -0.3313  1.5294  0.7789
  869MOL0     H14666  10.485   0.702   0.593  2.7187  1.5100 -0.6099
  869MOL0     H14667  10.638   0.664   0.531  0.8212  0.1035  2.6302
  869MOL0     H14668  10.494   0.449   0.431  4.7180 -0.3703  3.3401
  869MOL0     H14669  10.555   0.585   0.335 -0.5069 -0.6036 -0.3918
  869MOL0     H14670  10.096   0.625   0.372  2.3845 -2.1182  0.7255
  869MOL0     H14671   9.988   0.795   0.259 -0.6116  2.2923  3.7366
  869MOL0     H14672   9.946   1.049  -0.128 -1.9766 -1.1860 -1.2045
  869MOL0     H14673   9.751   1.153  -0.232  0.2257  2.9193  0.1579
  869MOL0     H14674   9.423   1.312   0.063 -0.7639 -0.7593  0.1179
  869MOL0     H14675   9.411   1.180  -0.051 -0.6085  0.9691 -0.9799
  869MOL0     H14676   9.350   1.490  -0.088  0.0825 -0.5975  1.4749
  869MOL0     H14677   9.231   1.366  -0.082 -0.0569  0.4168 -2.7797
  869MOL0     H14678   9.329   1.247  -0.286  2.7299 -0.2222  0.5200
  869MOL0     H14679   9.438   1.381  -0.296  0.1706  2.1841  1.9097
  869MOL0     H14680   9.127   1.383  -0.296  1.0973 -2.3596  0.5637
  869MOL0     H14681   9.220   1.529  -0.333 -1.1396  0.6725  0.1837
  869MOL0     H14682   9.199   1.264  -0.496 -1.1586  0.9999  0.6911
  869MOL0     H14683   9.289   1.416  -0.542  0.8973  0.0023  0.4265
  869MOL0     H14684   9.051   1.529  -0.501  3.3482  1.9229 -0.9012
  869MOL0     H14685   8.995   1.360  -0.546  1.8607 -2.2314 -2.2994
  869MOL0     H14686   9.022   1.566  -0.710  0.6736  1.4567  1.1879
  869MOL0     H14687   9.197   1.526  -0.707 -0.0911 -0.2217  2.4788
  869MOL0     H14688   8.977   1.392  -0.855  0.0866  3.5091  1.2514
  869MOL0     H14689   9.107   1.280  -0.775 -0.4276 -0.4162 -0.1602
  869MOL0     H14690   9.643   1.302   0.165 -1.8525 -1.6521 -0.9220
  869MOL0     H14691   9.797   1.147   0.255  1.2217 -3.9468  0.0187
  869MOL0     H14692  10.374   0.933   0.125 -0.8954  0.0270  0.4984
  869MOL0     H14693  10.477   0.755   0.241 -0.0602 -2.2036 -0.2347
  869MOL0     H14694   9.193   0.599   0.486  5.2709  1.7939  2.5480
  869MOL0     H14695   9.164   0.644   0.230  0.0468  2.2934 -0.8744
  869MOL0     H14696   9.147   1.159  -0.123  3.0369  0.6105 -0.0823
  869MOL0     H14697   9.074   1.127  -0.380  1.2836 -0.2865 -0.6608
  869MOL0     H14698   9.156   0.706  -0.543 -2.3192  1.2586  0.2881
  869MOL0     H14699   9.288   0.812  -0.555  0.0584 -2.3740  2.1911
  869MOL0     H14700   9.209   0.739  -0.774 -3.9439 -3.3137 -0.2344
  869MOL0     H14701   9.051   0.806  -0.763 -0.7193 -1.2554  2.7710
  869MOL0     H14702   9.202   1.037  -0.697  0.1611  1.7050 -1.5422
  869MOL0     H14703   9.155   0.992  -0.867 -1.9414  0.2282  1.5659
  869MOL0     H14704   9.417   0.972  -0.713  0.5397  0.2239 -0.6955
  869MOL0     H14705   9.389   0.856  -0.843  1.6909  0.3854 -0.0346
  869MOL0     H14706   9.488   1.176  -1.089  1.4223  3.0366  3.3371
  869MOL0     H14707   9.193   0.719  -0.345  0.9080  0.5257 -1.0709
  869MOL0     H14708   9.252   0.737  -0.109 -1.5472  0.4923  1.5871
  870MOL0     O14709   2.490   4.027  10.563 -0.0875  0.5229  0.5586
  870MOL0     C14710   2.570   4.077  10.637  0.3720  0.2708 -0.9448
  870MOL0     O14711   2.687   4.139  10.610  0.2105  0.2279  0.3188
  870MOL0     C14712   2.737   4.145  10.484 -0.7552 -0.1267  0.0709
  870MOL0     C14713   2.663   4.190  10.384 -0.4751  0.0089 -0.2994
  870MOL0     C14714   2.713   4.206  10.247 -0.4174 -0.6702 -1.1175
  870MOL0     C14715   2.852   4.180  10.232  0.7014 -1.0555  0.2645
  870MOL0     O14716   2.906   4.173  10.106  0.2992  0.2438  0.0587
  870MOL0     C14717   3.051   4.185  10.095 -0.4605  0.1126  0.6401
  870MOL0     C14718   3.075   4.232   9.952  0.2490 -0.4821  0.6865
  870MOL0     C14719   3.127   4.138   9.845  0.1285  0.8684 -0.0033
  870MOL0     C14720   3.010   4.053   9.787  0.0765 -0.2034 -1.1717
  870MOL0     C14721   3.047   4.014   9.641 -0.6401  0.6077  0.9195
  870MOL0     C14722   3.019   4.120   9.532 -0.1152 -0.3093  0.1570
  870MOL0     C14723   3.135   4.119   9.419  0.0962  0.0277 -0.9648
  870MOL0     C14724   3.252   4.214   9.450  0.1532  0.8464  0.8100
  870MOL0     N14725   3.349   4.218   9.336 -0.3510 -0.6162 -0.3057
  870MOL0     C14726   3.322   4.184   9.210  0.2370  0.1994  1.0493
  870MOL0     C14727   3.437   4.198   9.144 -0.1534 -0.2854 -0.6377
  870MOL0     C14728   3.440   4.192   8.991  0.1768 -0.5820 -0.2846
  870MOL0     C14729   3.409   4.324   8.924  0.7272 -0.5232 -0.0493
  870MOL0     C14730   3.253   4.351   8.897  0.1686  0.6855 -0.8583
  870MOL0     C14731   3.244   4.475   8.797  0.2557  0.8458 -0.8793
  870MOL0     O14732   3.106   4.487   8.744 -0.1448 -0.2016 -0.1427
  870MOL0     C14733   3.058   4.396   8.657  0.8490  0.2418  1.0854
  870MOL0     C14734   3.136   4.294   8.595  0.5531 -0.0704  0.2370
  870MOL0     C14735   3.077   4.205   8.510  0.1266  0.5351  0.7978
  870MOL0     C14736   2.945   4.216   8.462 -0.1003  0.1465 -0.2117
  870MOL0     C14737   2.883   4.113   8.375 -0.1672  0.2060  1.2053
  870MOL0     O14738   2.750   4.102   8.369  0.2318  0.3975 -0.1402
  870MOL0     C14739   2.695   4.007   8.277 -0.5459  0.6559 -0.6099
  870MOL0     C14740   2.601   4.052   8.184 -0.0214 -0.3062  0.3609
  870MOL0     C14741   2.545   3.965   8.094  0.4190  0.7873 -0.6926
  870MOL0     C14742   2.569   3.828   8.102 -0.0096 -0.2197 -0.4356
  870MOL0     O14743   2.506   3.750   8.008 -0.5360  0.8378 -0.3717
  870MOL0     C14744   2.562   3.617   7.983  0.4084 -0.1877  0.5507
  870MOL0     C14745   2.484   3.551   7.870  0.4479  0.1526 -0.5910
  870MOL0     C14746   2.531   3.599   7.733  0.4861  0.5529  0.8099
  870MOL0     C14747   2.440   3.548   7.617  0.1572  0.0692  0.1909
  870MOL0     C14748   2.466   3.627   7.486  0.6637 -0.2556 -0.3542
  870MOL0     C14749   2.364   3.589   7.373 -0.2651 -0.4461 -0.3697
  870MOL0     C14750   2.368   3.447   7.322 -0.3914  0.5742  0.3602
  870MOL0     C14751   2.269   3.422   7.207  0.1636 -0.0946 -0.7671
  870MOL0    Cl14752   2.090   3.436   7.260 -0.5721 -1.0153 -0.0249
  870MOL0     C14753   2.666   3.787   8.191  0.3592 -0.6463  0.6471
  870MOL0     C14754   2.726   3.871   8.286  0.1317 -0.6936 -0.7359
  870MOL0     O14755   2.962   4.048   8.301  0.4368  0.7802 -0.7209
  870MOL0     C14756   2.872   4.331   8.513  0.1666  0.3083 -0.1760
  870MOL0     C14757   2.926   4.410   8.615  0.4677 -0.6196  0.6442
  870MOL0     N14758   3.535   4.239   9.238 -0.1745 -0.9564 -0.3509
  870MOL0     N14759   3.473   4.266   9.350 -0.3861 -0.2903 -0.5560
  870MOL0     C14760   2.930   4.139  10.339 -0.0181  0.2366 -1.1645
  870MOL0     C14761   2.875   4.120  10.467  0.8301 -0.4006 -0.0297
  870MOL0     C14762   2.518   4.081  10.778  0.1606 -0.3988 -0.4265
  870MOL0     C14763   2.579   4.144  10.883 -0.5621  0.5498 -0.2907
  870MOL0     C14764   2.545   4.118  11.014 -0.6285 -0.6373 -0.4381
  870MOL0     C14765   2.432   4.047  11.052 -0.3243 -0.2042  0.5491
  870MOL0     O14766   2.394   4.024  11.183  0.1721  0.0547 -0.5228
  870MOL0     C14767   2.441   4.103  11.295 -0.5653 -0.8636 -0.5827
  870MOL0     C14768   2.379   4.063  11.425 -0.1920  1.3790  0.8276
  870MOL0     C14769   2.369   3.909  11.443  0.2137  0.5300 -0.2377
  870MOL0     C14770   2.381   3.870  11.591 -1.0918 -0.0803 -0.0523
  870MOL0     C14771   2.526   3.881  11.640 -0.7243  0.4596 -0.1175
  870MOL0     C14772   2.641   3.863  11.675  0.1045  0.1467 -0.2830
  870MOL0     C14773   2.363   3.993  10.946  0.2919  0.0055  0.1000
  870MOL0     C14774   2.404   4.008  10.816  0.0377  0.0729  0.2644
  870MOL0     H14775   2.560   4.220  10.401 -1.0323 -1.7376 -0.4405
  870MOL0     H14776   2.647   4.214  10.160 -2.5827  0.3285  0.5195
  870MOL0     H14777   3.100   4.093  10.125 -2.2537  0.2966  4.7686
  870MOL0     H14778   3.086   4.271  10.153 -1.5319  3.0829 -2.7531
  870MOL0     H14779   3.160   4.299   9.968  0.3792 -0.6913  0.8727
  870MOL0     H14780   2.989   4.284   9.906  0.6412 -0.0253  0.4567
  870MOL0     H14781   3.210   4.082   9.889 -3.0318 -3.2893  1.2148
  870MOL0     H14782   3.164   4.194   9.758 -0.1916 -1.4976 -1.7492
  870MOL0     H14783   3.007   3.962   9.848  2.4477  0.7206  0.4848
  870MOL0     H14784   2.913   4.103   9.793  0.4076  0.5693 -2.0051
  870MOL0     H14785   3.000   3.921   9.606 -1.3275  1.4720 -0.5084
  870MOL0     H14786   3.156   4.004   9.647 -0.2772  2.0751 -1.8282
  870MOL0     H14787   3.008   4.213   9.589 -0.8875 -1.2988  1.7308
  870MOL0     H14788   2.924   4.104   9.480  0.4961  2.1225 -1.9115
  870MOL0     H14789   3.177   4.021   9.395 -0.5106 -1.0016  1.7987
  870MOL0     H14790   3.088   4.154   9.327 -1.8388 -2.6981 -1.1407
  870MOL0     H14791   3.305   4.181   9.539  2.5906  1.6775 -0.2538
  870MOL0     H14792   3.202   4.311   9.457 -3.3918 -0.6734 -0.8785
  870MOL0     H14793   3.235   4.152   9.153  2.0917 -1.7159 -0.8941
  870MOL0     H14794   3.386   4.110   8.944  3.7779 -2.8623 -0.8532
  870MOL0     H14795   3.545   4.168   8.973 -0.0998 -1.9975 -0.1158
  870MOL0     H14796   3.464   4.317   8.830  2.1427  2.8928  0.3734
  870MOL0     H14797   3.440   4.406   8.990  1.7729 -1.8598  1.1999
  870MOL0     H14798   3.215   4.263   8.844 -1.0229  0.0495  0.9753
  870MOL0     H14799   3.215   4.376   8.996 -0.2550  0.4637 -0.9614
  870MOL0     H14800   3.320   4.460   8.719 -0.7781  2.8440 -2.3773
  870MOL0     H14801   3.270   4.566   8.852  0.8612 -1.3225  2.7521
  870MOL0     H14802   3.244   4.284   8.602  0.5269 -1.8367 -1.0525
  870MOL0     H14803   3.137   4.125   8.470 -1.7845  0.2891 -1.8407
  870MOL0     H14804   2.581   4.158   8.174  1.8666  0.0839  0.4276
  870MOL0     H14805   2.470   4.006   8.028  0.7072  3.3040  0.4331
  870MOL0     H14806   2.549   3.559   8.075  1.7770 -3.0014 -0.8903
  870MOL0     H14807   2.667   3.613   7.951  0.5651 -2.1495  1.1683
  870MOL0     H14808   2.377   3.575   7.865  0.4452 -0.0315 -1.8410
  870MOL0     H14809   2.491   3.443   7.886 -1.0499  0.3347  1.8130
  870MOL0     H14810   2.632   3.575   7.698  0.7457 -0.2100  1.9946
  870MOL0     H14811   2.538   3.708   7.726 -0.5935  0.4982 -3.4222
  870MOL0     H14812   2.458   3.444   7.591 -1.4983 -0.0933 -0.4655
  870MOL0     H14813   2.334   3.554   7.645  0.0313  0.3188 -0.3289
  870MOL0     H14814   2.567   3.589   7.467  1.5607  1.4168  0.8932
  870MOL0     H14815   2.475   3.735   7.496 -7.6588  1.6199 -4.0064
  870MOL0     H14816   2.389   3.651   7.286  5.4875 -3.8396 -1.6680
  870MOL0     H14817   2.260   3.606   7.404  0.3618  1.1948  0.9867
  870MOL0     H14818   2.468   3.438   7.279 -1.6438  2.3442 -3.3787
  870MOL0     H14819   2.368   3.382   7.410 -1.3471 -0.2649 -0.2376
  870MOL0     H14820   2.291   3.325   7.160 -0.7588  0.2174 -1.8983
  870MOL0     H14821   2.280   3.490   7.122  0.7131  0.3607 -0.3383
  870MOL0     H14822   2.702   3.685   8.197 -0.1249 -0.9766 -1.3506
  870MOL0     H14823   2.793   3.825   8.358 -0.0875 -1.8599 -1.2614
  870MOL0     H14824   2.766   4.346   8.491 -0.4406 -0.5739  1.9008
  870MOL0     H14825   2.857   4.476   8.667  1.1581 -0.7137  1.7284
  870MOL0     H14826   3.033   4.111  10.320 -0.9217 -1.6917 -3.8298
  870MOL0     H14827   2.940   4.091  10.549 -0.0185 -1.1372  0.4079
  870MOL0     H14828   2.670   4.203  10.872 -1.1627  2.0466  2.1085
  870MOL0     H14829   2.602   4.171  11.090  1.7619 -0.0395 -2.5125
  870MOL0     H14830   2.434   4.210  11.273  3.6615  0.3204  2.3865
  870MOL0     H14831   2.549   4.087  11.305 -0.5325  0.1759  1.1987
  870MOL0     H14832   2.440   4.093  11.511  1.7237 -1.5672  0.6622
  870MOL0     H14833   2.280   4.108  11.420  0.1501  1.9702 -2.2419
  870MOL0     H14834   2.441   3.856  11.379 -0.1614  1.5628 -1.5581
  870MOL0     H14835   2.271   3.873  11.410  0.2218 -1.0050  1.2505
  870MOL0     H14836   2.308   3.932  11.644 -1.2827 -0.1688 -0.2102
  870MOL0     H14837   2.349   3.766  11.607 -1.2047 -0.2476 -1.2662
  870MOL0     H14838   2.742   3.849  11.709  1.4559 -0.4889 -4.1112
  870MOL0     H14839   2.277   3.932  10.972 -0.9329  2.5770  2.6719
  870MOL0     H14840   2.341   3.960  10.741 -2.4421  0.2887  2.0859
  871MOL0     O14841   8.611   5.604   7.108  0.4560  0.8154 -1.0925
  871MOL0     C14842   8.502   5.559   7.161  0.4891  0.4188  0.2503
  871MOL0     O14843   8.432   5.448   7.122  0.4492 -0.0968 -0.0139
  871MOL0     C14844   8.479   5.380   7.016  0.4084  0.5290 -0.0815
  871MOL0     C14845   8.441   5.415   6.887 -0.3087 -0.4293 -0.5069
  871MOL0     C14846   8.473   5.337   6.780 -0.2705  0.1995  0.2220
  871MOL0     C14847   8.568   5.233   6.801  0.0140  0.8230 -0.3619
  871MOL0     O14848   8.617   5.179   6.686  0.4605 -0.3105 -0.1505
  871MOL0     C14849   8.681   5.054   6.705 -0.0211  0.6265 -0.0166
  871MOL0     C14850   8.721   4.969   6.580  0.1731  0.2539 -0.2706
  871MOL0     C14851   8.776   4.828   6.593 -0.3328  0.8275 -1.0945
  871MOL0     C14852   8.772   4.741   6.471  0.7906 -0.5509 -0.6788
  871MOL0     C14853   8.859   4.815   6.366  0.6597  0.1796  1.6496
  871MOL0     C14854   8.875   4.704   6.251 -0.0530  0.0933 -0.9014
  871MOL0     C14855   8.895   4.777   6.119  0.4449  0.1224 -0.4302
  871MOL0     C14856   8.770   4.833   6.056 -0.1358  0.8816 -0.3486
  871MOL0     N14857   8.676   4.733   6.004  0.2883  0.2729 -1.0600
  871MOL0     C14858   8.681   4.686   5.871  0.0617 -0.2772 -0.0767
  871MOL0     C14859   8.576   4.599   5.862  0.2953 -0.2908  0.1455
  871MOL0     C14860   8.532   4.520   5.738 -0.4126 -1.0352 -0.3087
  871MOL0     C14861   8.394   4.462   5.740  0.7816  0.4421  0.4657
  871MOL0     C14862   8.368   4.350   5.644  0.7397  0.1994 -0.3856
  871MOL0     C14863   8.267   4.267   5.709 -0.2536  0.2251 -0.1538
  871MOL0     O14864   8.218   4.176   5.607 -0.2864  1.0586 -0.0846
  871MOL0     C14865   8.110   4.211   5.528  0.4568 -0.9530 -0.2479
  871MOL0     C14866   8.036   4.324   5.537 -0.6730  0.9062 -0.6137
  871MOL0     C14867   7.920   4.343   5.461  0.5170  0.3132  0.7500
  871MOL0     C14868   7.867   4.252   5.366 -0.2657  0.2469  0.5031
  871MOL0     C14869   7.756   4.286   5.287 -0.2142  0.0349  0.5878
  871MOL0     O14870   7.730   4.431   5.274  0.0854  0.4349  0.6465
  871MOL0     C14871   7.628   4.480   5.196 -0.7373  0.1151 -0.8158
  871MOL0     C14872   7.511   4.420   5.155  0.9258 -1.5901 -0.5913
  871MOL0     C14873   7.425   4.483   5.065  0.5949  0.0622  0.5778
  871MOL0     C14874   7.453   4.616   5.025  0.4176  0.2461  0.3492
  871MOL0     O14875   7.366   4.693   4.957  1.1769  0.1506 -0.1373
  871MOL0     C14876   7.301   4.652   4.838 -0.2755 -0.2079 -0.5250
  871MOL0     C14877   7.264   4.782   4.777 -0.6394 -0.1621 -0.5081
  871MOL0     C14878   7.220   4.761   4.629 -0.7079 -0.9786 -0.7983
  871MOL0     C14879   7.120   4.869   4.602 -0.3252  0.3563  0.2320
  871MOL0     C14880   6.966   4.833   4.630 -0.9796  0.6609 -0.3457
  871MOL0     C14881   6.874   4.958   4.616  1.5171 -0.0338 -0.3903
  871MOL0     C14882   6.724   4.916   4.630 -0.3834  0.4694 -0.4517
  871MOL0     C14883   6.684   4.844   4.765  0.5411 -0.5645  0.9995
  871MOL0    Cl14884   6.515   4.876   4.828 -0.0999 -0.4040  0.1083
  871MOL0     C14885   7.564   4.682   5.076  0.8603 -0.3685 -0.4829
  871MOL0     C14886   7.662   4.608   5.158  0.2644  0.0328 -0.3825
  871MOL0     O14887   7.692   4.195   5.234 -0.5676 -1.2120 -0.8489
  871MOL0     C14888   7.940   4.131   5.364  0.0461  0.7274  0.6638
  871MOL0     C14889   8.060   4.114   5.439  0.9733 -0.3577  0.1682
  871MOL0     N14890   8.530   4.589   5.991  0.1747 -0.2819 -0.1972
  871MOL0     N14891   8.583   4.670   6.081  0.5673  0.0167  0.2121
  871MOL0     C14892   8.602   5.192   6.934 -0.0558  0.7025  0.3036
  871MOL0     C14893   8.557   5.269   7.046  0.1464 -0.1753  0.6603
  871MOL0     C14894   8.451   5.623   7.285  0.5386 -0.2239  0.5558
  871MOL0     C14895   8.385   5.552   7.381  0.8086 -0.2745  0.6142
  871MOL0     C14896   8.344   5.614   7.501  0.2965  1.1366  0.7108
  871MOL0     C14897   8.371   5.742   7.528  0.1380 -0.2688 -0.0344
  871MOL0     O14898   8.349   5.780   7.660 -0.6282  0.1713  0.1287
  871MOL0     C14899   8.336   5.915   7.695  0.5166 -0.1609  0.6527
  871MOL0     C14900   8.466   5.980   7.744  0.8363  0.3454  0.0941
  871MOL0     C14901   8.439   6.127   7.793 -0.6251 -0.5004  0.1650
  871MOL0     C14902   8.568   6.187   7.851  0.1384  0.1912  0.2460
  871MOL0     C14903   8.684   6.188   7.761  0.1277 -0.9755 -0.1328
  871MOL0     C14904   8.782   6.208   7.695  0.9866  1.5339 -0.2033
  871MOL0     C14905   8.436   5.813   7.429 -0.6559 -0.6385 -0.5946
  871MOL0     C14906   8.484   5.756   7.313 -0.4058 -0.5062  0.8358
  871MOL0     H14907   8.395   5.514   6.877  1.5491  0.3641 -1.8103
  871MOL0     H14908   8.423   5.358   6.686 -1.8114 -0.4768  0.8533
  871MOL0     H14909   8.612   4.992   6.761 -1.8518  2.2068 -0.4189
  871MOL0     H14910   8.769   5.062   6.770  0.5925 -2.0820 -0.4223
  871MOL0     H14911   8.800   5.030   6.537 -0.0851  0.8663  0.1047
  871MOL0     H14912   8.630   4.970   6.520  0.8256  0.1906 -1.2718
  871MOL0     H14913   8.724   4.786   6.679 -0.3457 -1.3104 -2.0794
  871MOL0     H14914   8.878   4.832   6.632 -0.7332  0.5418  0.0033
  871MOL0     H14915   8.796   4.640   6.503 -0.7151 -0.2078  1.7870
  871MOL0     H14916   8.673   4.734   6.426 -0.3864  5.9749 -0.1113
  871MOL0     H14917   8.958   4.840   6.406  0.2364  0.8216  2.2951
  871MOL0     H14918   8.812   4.910   6.341  2.1229  0.4468 -0.4572
  871MOL0     H14919   8.795   4.630   6.257  0.8064 -0.9191 -1.6033
  871MOL0     H14920   8.965   4.645   6.267  0.4556  1.2247  0.7221
  871MOL0     H14921   8.960   4.863   6.135 -0.5185  1.4598 -3.1527
  871MOL0     H14922   8.948   4.715   6.045 -0.2410 -0.2887 -0.5844
  871MOL0     H14923   8.794   4.902   5.974 -0.4645  2.8707  1.1628
  871MOL0     H14924   8.719   4.889   6.135 -1.4277 -0.6639 -0.0272
  871MOL0     H14925   8.737   4.734   5.791 -4.1593  1.7834 -2.1206
  871MOL0     H14926   8.604   4.437   5.740 -0.9315 -1.5601  2.9599
  871MOL0     H14927   8.559   4.572   5.646  1.2150 -3.2015 -1.1409
  871MOL0     H14928   8.321   4.538   5.711  0.8340 -0.1452 -1.3656
  871MOL0     H14929   8.383   4.420   5.840  0.9615 -1.1548 -0.1579
  871MOL0     H14930   8.314   4.392   5.559  0.5351 -0.7076 -0.7213
  871MOL0     H14931   8.450   4.292   5.601 -2.5482 -2.4823 -3.7187
  871MOL0     H14932   8.186   4.329   5.748 -0.8927 -0.6983  0.0068
  871MOL0     H14933   8.288   4.209   5.800 -3.0984 -1.6484 -0.5835
  871MOL0     H14934   8.045   4.403   5.611  0.5296  1.5391 -1.3930
  871MOL0     H14935   7.860   4.431   5.483  0.0506  0.3092 -0.4184
  871MOL0     H14936   7.487   4.318   5.184 -0.5860 -1.4992 -1.4235
  871MOL0     H14937   7.346   4.430   5.012  0.7410 -0.0614  0.4848
  871MOL0     H14938   7.205   4.601   4.853 -0.6414  0.4650 -0.5566
  871MOL0     H14939   7.367   4.589   4.777  0.5858 -1.1802  1.3241
  871MOL0     H14940   7.352   4.845   4.791  0.2449 -1.5458  0.4316
  871MOL0     H14941   7.184   4.828   4.836 -1.0533  0.7964 -1.7965
  871MOL0     H14942   7.171   4.666   4.607  0.7440 -1.4595 -2.1082
  871MOL0     H14943   7.306   4.778   4.563  1.1192 -3.8852  0.6676
  871MOL0     H14944   7.143   4.957   4.663  2.6820 -1.0185  1.3151
  871MOL0     H14945   7.126   4.900   4.498  0.9028 -4.3340 -1.3549
  871MOL0     H14946   6.956   4.817   4.738  2.3717  2.2040  0.3310
  871MOL0     H14947   6.929   4.745   4.577 -0.2936  1.6952 -2.6412
  871MOL0     H14948   6.880   5.001   4.516 -1.7998 -0.3377 -0.8326
  871MOL0     H14949   6.899   5.034   4.691  1.2142 -1.6751  1.4859
  871MOL0     H14950   6.672   5.011   4.615 -1.3202  0.1403  0.5716
  871MOL0     H14951   6.691   4.860   4.541 -1.0878 -0.4150  0.3465
  871MOL0     H14952   6.750   4.854   4.852  1.5564  1.6567  0.0504
  871MOL0     H14953   6.689   4.738   4.739  1.2962 -0.1956 -0.4640
  871MOL0     H14954   7.575   4.783   5.038  0.3205 -0.3232 -0.5211
  871MOL0     H14955   7.748   4.666   5.189  0.4680  0.1514 -1.1412
  871MOL0     H14956   7.916   4.044   5.304 -1.0459 -0.0932  2.2414
  871MOL0     H14957   8.125   4.028   5.424  0.5256 -0.5196 -0.9761
  871MOL0     H14958   8.672   5.112   6.957 -1.3247 -1.0605 -1.5851
  871MOL0     H14959   8.588   5.239   7.145 -0.1385 -3.4672 -0.1342
  871MOL0     H14960   8.369   5.446   7.359  3.8798 -0.8174  0.4980
  871MOL0     H14961   8.291   5.546   7.567 -1.8296  0.4740 -1.5137
  871MOL0     H14962   8.283   5.923   7.790 -2.6278  2.5227 -1.0978
  871MOL0     H14963   8.275   5.966   7.620 -2.3901 -4.5503 -0.3505
  871MOL0     H14964   8.497   5.912   7.824 -5.0024 -2.3783  0.5332
  871MOL0     H14965   8.542   5.968   7.666 -1.4390  1.3906 -2.4555
  871MOL0     H14966   8.365   6.130   7.873 -1.6399  3.6131 -0.6821
  871MOL0     H14967   8.408   6.181   7.703  0.2540  0.3081  0.3204
  871MOL0     H14968   8.544   6.290   7.879  2.3873  0.9785 -0.4692
  871MOL0     H14969   8.593   6.132   7.941 -0.6928 -0.1802  0.2611
  871MOL0     H14970   8.871   6.234   7.643  0.3867 -0.8392 -2.6018
  871MOL0     H14971   8.463   5.918   7.435  0.7927 -1.0042 -0.4024
  871MOL0     H14972   8.542   5.815   7.243 -1.1371 -1.4385 -0.6288
  872MOL0     O14973   8.831   0.820   6.169 -0.8113 -0.2335 -0.1807
  872MOL0     C14974   8.860   0.932   6.128 -0.4407 -0.6124 -0.5015
  872MOL0     O14975   8.959   0.964   6.043  0.2611 -0.3683  0.7245
  872MOL0     C14976   9.041   0.872   5.994 -0.2467  0.4609  0.2981
  872MOL0     C14977   9.152   0.831   6.062  0.2986 -0.4535 -0.1272
  872MOL0     C14978   9.226   0.714   6.021  0.4671 -0.0700 -0.5801
  872MOL0     C14979   9.193   0.643   5.908  0.4143  0.3028 -0.8063
  872MOL0     O14980   9.259   0.535   5.853  0.5331 -0.5914 -1.1040
  872MOL0     C14981   9.346   0.452   5.917 -0.0642  0.1073 -0.7631
  872MOL0     C14982   9.353   0.315   5.843  0.7141 -0.3209 -0.4605
  872MOL0     C14983   9.404   0.331   5.700  0.3720 -1.1010  0.3023
  872MOL0     C14984   9.541   0.283   5.684 -1.0873  0.5322  1.3322
  872MOL0     C14985   9.613   0.307   5.552 -0.1959 -0.7131 -0.1895
  872MOL0     C14986   9.762   0.271   5.564  0.6087  0.0241 -0.2219
  872MOL0     C14987   9.831   0.292   5.436 -0.1779 -0.6118  0.9970
  872MOL0     C14988   9.798   0.204   5.321  0.1898 -0.2697 -0.2500
  872MOL0     N14989   9.878   0.248   5.199 -0.4935  0.4382  0.0432
  872MOL0     C14990   9.847   0.332   5.093 -1.1319 -0.2807 -0.7309
  872MOL0     C14991   9.953   0.329   5.006  0.9506 -0.0752  0.0430
  872MOL0     C14992   9.938   0.387   4.868  0.1038 -0.4676  0.2565
  872MOL0     C14993  10.032   0.508   4.830  0.3591  0.2590 -0.2240
  872MOL0     C14994  10.049   0.539   4.684 -0.1023 -0.2339  0.7477
  872MOL0     C14995  10.130   0.667   4.673 -0.1431  0.3203 -0.1938
  872MOL0     O14996  10.124   0.731   4.547 -0.1942 -0.1795 -0.3181
  872MOL0     C14997  10.126   0.866   4.525  0.2618  0.3210 -0.7158
  872MOL0     C14998  10.032   0.911   4.427 -0.5540  0.5132 -0.4237
  872MOL0     C14999  10.038   1.044   4.389 -0.9685  0.1938  0.8434
  872MOL0     C15000  10.124   1.142   4.458  0.2628 -0.5477 -0.0894
  872MOL0     C15001  10.136   1.292   4.438  2.1683  0.0796 -0.4223
  872MOL0     O15002  10.040   1.342   4.363 -0.3109  0.1354  0.9373
  872MOL0     C15003  10.019   1.479   4.339 -1.0488 -0.1647  0.9740
  872MOL0     C15004  10.007   1.527   4.202 -0.0864  0.0956 -0.0576
  872MOL0     C15005   9.975   1.668   4.187 -0.6734  1.0478 -0.4760
  872MOL0     C15006   9.978   1.761   4.291 -0.5618  0.3815  0.3125
  872MOL0     O15007   9.982   1.896   4.269 -0.1874  0.1573 -0.4553
  872MOL0     C15008  10.038   1.952   4.156 -0.1635 -0.1389  0.7159
  872MOL0     C15009  10.012   2.107   4.172  0.3544  0.5314 -0.3448
  872MOL0     C15010   9.853   2.145   4.185 -0.0821  0.2665  0.0135
  872MOL0     C15011   9.771   2.089   4.072  0.3212  0.1347  0.4839
  872MOL0     C15012   9.643   2.169   4.059  0.7901  1.4424  0.1266
  872MOL0     C15013   9.667   2.290   3.973  0.4923 -0.6136  0.0742
  872MOL0     C15014   9.538   2.345   3.908 -0.7344 -0.2975 -0.3649
  872MOL0     C15015   9.486   2.259   3.786 -0.0761  0.1430  0.0978
  872MOL0    Cl15016   9.357   2.357   3.711  0.1646 -0.6259 -0.4309
  872MOL0     C15017  10.014   1.712   4.420 -0.6527 -0.7933 -0.0566
  872MOL0     C15018  10.031   1.572   4.441 -0.2209  0.1055  0.0194
  872MOL0     O15019  10.221   1.355   4.498 -0.5161 -0.0184 -0.5758
  872MOL0     C15020  10.215   1.087   4.554 -0.7092 -0.4144 -0.3373
  872MOL0     C15021  10.216   0.952   4.586  0.2192 -0.5880  0.3231
  872MOL0     N15022  10.046   0.261   5.066 -0.2844  0.7179  1.0301
  872MOL0     N15023  10.002   0.208   5.175  0.6609 -0.3339  0.0501
  872MOL0     C15024   9.081   0.688   5.840 -0.7892  0.3538  0.6983
  872MOL0     C15025   9.005   0.797   5.877  0.5415 -0.6965  0.2011
  872MOL0     C15026   8.775   1.041   6.168 -0.3478 -0.6512 -0.4331
  872MOL0     C15027   8.746   1.157   6.103 -0.3792  1.1295  0.0546
  872MOL0     C15028   8.671   1.256   6.158 -0.6106 -0.3726  0.1274
  872MOL0     C15029   8.618   1.246   6.285 -0.5263 -0.6400  0.6905
  872MOL0     O15030   8.538   1.347   6.341  0.4843  0.4030 -0.0695
  872MOL0     C15031   8.432   1.392   6.249 -0.2574 -0.8284  1.1674
  872MOL0     C15032   8.430   1.544   6.247  0.8280 -0.3030  0.2126
  872MOL0     C15033   8.309   1.595   6.160 -1.1005 -0.1926  0.2515
  872MOL0     C15034   8.353   1.694   6.057 -0.5665  0.0660  0.3985
  872MOL0     C15035   8.442   1.625   5.962  0.9529  0.5649 -0.9511
  872MOL0     C15036   8.513   1.559   5.895 -1.1952  0.2626 -0.3881
  872MOL0     C15037   8.650   1.140   6.363  0.1895 -0.4578 -0.1811
  872MOL0     C15038   8.720   1.035   6.299 -0.0163  0.0702  0.7809
  872MOL0     H15039   9.175   0.891   6.150 -0.7790  0.3792 -0.3778
  872MOL0     H15040   9.308   0.681   6.084  0.8485 -0.6607 -1.3757
  872MOL0     H15041   9.320   0.437   6.022 -0.7607  1.2515 -0.7511
  872MOL0     H15042   9.438   0.508   5.896  1.8705 -2.1278  1.1309
  872MOL0     H15043   9.256   0.264   5.850  0.5582  0.0501  0.1761
  872MOL0     H15044   9.420   0.253   5.904 -0.0733 -0.6883  0.0502
  872MOL0     H15045   9.389   0.429   5.654  1.2182 -0.6805  0.9018
  872MOL0     H15046   9.342   0.260   5.644  0.8724  0.2366 -2.1202
  872MOL0     H15047   9.600   0.330   5.763 -0.2483 -3.5053  3.3907
  872MOL0     H15048   9.542   0.174   5.699 -0.3043  0.3332 -0.1105
  872MOL0     H15049   9.607   0.413   5.525 -4.4926 -0.8003 -0.1905
  872MOL0     H15050   9.564   0.246   5.476  0.3548  0.8393 -1.8669
  872MOL0     H15051   9.786   0.170   5.597 -0.0228 -0.5938 -1.5960
  872MOL0     H15052   9.800   0.348   5.632 -0.3678 -0.7704  1.2886
  872MOL0     H15053   9.811   0.396   5.410 -0.1688 -0.9320 -0.3399
  872MOL0     H15054   9.937   0.277   5.457  0.5049  1.6744 -0.4800
  872MOL0     H15055   9.695   0.218   5.288 -0.2481 -4.5401 -1.2947
  872MOL0     H15056   9.826   0.103   5.354  1.2795 -0.3838 -1.4566
  872MOL0     H15057   9.753   0.386   5.084 -0.3465  1.7474  1.9225
  872MOL0     H15058   9.832   0.407   4.846  0.6205  0.6617 -1.4008
  872MOL0     H15059   9.952   0.307   4.795 -1.1492 -0.5074  0.0365
  872MOL0     H15060  10.134   0.496   4.869  0.2825  3.2428  1.1787
  872MOL0     H15061   9.996   0.599   4.878  1.4826  0.3759  0.4432
  872MOL0     H15062  10.112   0.462   4.637  0.4830  0.7066 -0.0390
  872MOL0     H15063   9.955   0.551   4.628  0.1092 -2.1168 -0.0973
  872MOL0     H15064  10.234   0.651   4.703  0.5872 -2.6774 -3.5998
  872MOL0     H15065  10.075   0.738   4.736  0.8524 -0.8633  2.1213
  872MOL0     H15066   9.975   0.833   4.379  2.0235 -1.8995  0.1301
  872MOL0     H15067   9.970   1.064   4.306 -0.2249 -4.7113 -1.2976
  872MOL0     H15068  10.001   1.456   4.120  1.4118 -2.2336  1.7067
  872MOL0     H15069   9.958   1.713   4.089  2.6052 -0.8488 -2.1048
  872MOL0     H15070   9.994   1.926   4.060 -4.0289  0.9110  1.9835
  872MOL0     H15071  10.146   1.938   4.162 -0.2612 -0.3444  3.1281
  872MOL0     H15072  10.060   2.149   4.084  0.9213  0.1899 -0.2038
  872MOL0     H15073  10.065   2.132   4.264  1.0081 -1.8923  0.0118
  872MOL0     H15074   9.850   2.255   4.181 -1.1230  0.2779  0.7115
  872MOL0     H15075   9.812   2.108   4.279 -0.3805 -0.8347 -0.5412
  872MOL0     H15076   9.830   2.081   3.981 -0.7598  0.2803 -0.2522
  872MOL0     H15077   9.749   1.987   4.107 -3.0073 -0.1812 -2.0235
  872MOL0     H15078   9.593   2.199   4.152 -1.3767 -0.0502 -0.4624
  872MOL0     H15079   9.571   2.109   4.002  0.3437  2.3380 -0.2743
  872MOL0     H15080   9.720   2.266   3.880  0.0688  0.3345 -0.4259
  872MOL0     H15081   9.726   2.372   4.017 -1.5937  2.5421 -2.4980
  872MOL0     H15082   9.457   2.362   3.981 -1.7766 -0.0350 -1.5511
  872MOL0     H15083   9.572   2.445   3.880 -0.5781 -0.5404 -1.0470
  872MOL0     H15084   9.444   2.164   3.821  0.9354 -1.6872 -3.2665
  872MOL0     H15085   9.565   2.246   3.712  2.0335  3.4780  1.5516
  872MOL0     H15086  10.022   1.788   4.497 -2.0980  2.6868 -3.0340
  872MOL0     H15087  10.060   1.536   4.540 -1.4790 -0.3572  0.2415
  872MOL0     H15088  10.288   1.143   4.611 -0.7998 -0.1117 -0.5107
  872MOL0     H15089  10.289   0.917   4.659  0.3317 -1.1511 -0.0594
  872MOL0     H15090   9.066   0.643   5.743  5.0167 -1.0366  0.0802
  872MOL0     H15091   8.912   0.818   5.826 -1.0605 -3.3034  1.7689
  872MOL0     H15092   8.792   1.178   6.007  1.4984  0.1146  0.6718
  872MOL0     H15093   8.662   1.347   6.101  0.2966  0.0857  0.6848
  872MOL0     H15094   8.338   1.350   6.286 -2.4898  2.1749 -0.5942
  872MOL0     H15095   8.456   1.353   6.150  2.3562  0.1866  1.3233
  872MOL0     H15096   8.415   1.563   6.354 -0.6705 -0.1417 -0.0054
  872MOL0     H15097   8.526   1.586   6.218  0.4976  0.7978  0.6530
  872MOL0     H15098   8.243   1.647   6.230  1.1900  1.2320  1.4783
  872MOL0     H15099   8.256   1.514   6.110 -1.8805  1.2774 -1.4304
  872MOL0     H15100   8.266   1.725   5.998 -2.2277 -3.1152  0.9802
  872MOL0     H15101   8.410   1.775   6.105 -0.1873  0.8984 -1.3629
  872MOL0     H15102   8.563   1.491   5.830 -0.1420  0.1096  0.5520
  872MOL0     H15103   8.623   1.147   6.467 -1.7673 -0.9498 -0.6196
  872MOL0     H15104   8.739   0.943   6.355  1.1164 -0.0470  0.2293
  873MOL0     O15105   8.519   9.821   1.934  0.0469  0.2089  0.4865
  873MOL0     C15106   8.495   9.862   1.819  1.1549  0.2075 -0.3131
  873MOL0     O15107   8.512   9.787   1.707  0.7936  0.1010 -0.3690
  873MOL0     C15108   8.571   9.663   1.716  0.0884  0.2309 -0.0441
  873MOL0     C15109   8.692   9.638   1.781 -0.0230 -0.4128  0.0552
  873MOL0     C15110   8.748   9.508   1.781 -0.0625 -0.0629  0.3063
  873MOL0     C15111   8.682   9.404   1.733 -0.6743  0.1523 -0.2586
  873MOL0     O15112   8.728   9.277   1.757 -0.0517  0.1496  0.3090
  873MOL0     C15113   8.865   9.253   1.731  0.3290  0.0527 -0.0936
  873MOL0     C15114   8.892   9.120   1.658  0.5846 -0.2052  0.7528
  873MOL0     C15115   9.039   9.065   1.671 -0.3904  0.2995 -0.3854
  873MOL0     C15116   9.151   9.166   1.653  1.0070  0.0634 -0.6473
  873MOL0     C15117   9.291   9.108   1.655  1.5511 -0.1030 -0.0773
  873MOL0     C15118   9.373   9.173   1.541 -1.0015  0.0929  0.4850
  873MOL0     C15119   9.527   9.121   1.547  0.6679 -0.2916 -1.0103
  873MOL0     C15120   9.599   9.163   1.417  0.8809  0.6069 -0.8930
  873MOL0     N15121   9.734   9.115   1.413 -0.4728  0.5974 -0.5775
  873MOL0     C15122   9.853   9.169   1.474  2.0718 -0.0892  0.3294
  873MOL0     C15123   9.960   9.103   1.429 -0.6829  0.6749 -0.1607
  873MOL0     C15124  10.104   9.140   1.468  0.3668 -0.1384  0.2198
  873MOL0     C15125  10.187   9.026   1.519  0.0403 -0.4633 -0.1932
  873MOL0     C15126  10.312   9.080   1.596  0.5511  0.5556  0.3868
  873MOL0     C15127  10.431   9.039   1.514 -0.0195 -0.6621  0.4381
  873MOL0     O15128  10.444   8.901   1.520 -0.0792 -0.9740 -0.6671
  873MOL0     C15129  10.549   8.831   1.474 -0.2517 -0.7549  0.3894
  873MOL0     C15130  10.640   8.891   1.388 -0.2065 -0.2726  0.1820
  873MOL0     C15131  10.751   8.815   1.332 -0.4296  0.1295 -0.5194
  873MOL0     C15132  10.763   8.681   1.364 -0.0618  0.2816  0.5117
  873MOL0     C15133  10.867   8.598   1.300 -0.8184  0.4585  0.1450
  873MOL0     O15134  10.920   8.650   1.184  0.0942  0.8667 -0.4116
  873MOL0     C15135  11.015   8.573   1.122 -0.1859 -1.5530 -0.8507
  873MOL0     C15136  11.138   8.556   1.195  0.5021  0.3868  0.4462
  873MOL0     C15137  11.241   8.470   1.152  0.0779  0.7676  0.4322
  873MOL0     C15138  11.221   8.410   1.027  0.8259 -0.7498 -0.0137
  873MOL0     O15139  11.312   8.331   0.961 -0.6488  0.2024  0.5205
  873MOL0     C15140  11.443   8.323   1.020  0.5635 -0.5339 -0.5384
  873MOL0     C15141  11.546   8.266   0.918 -0.0140 -0.1996  0.1023
  873MOL0     C15142  11.568   8.360   0.793 -0.4672 -0.4104  0.4415
  873MOL0     C15143  11.606   8.501   0.823  0.0282  0.2831  0.9604
  873MOL0     C15144  11.749   8.496   0.880 -0.3430 -0.3267 -0.0308
  873MOL0     C15145  11.784   8.643   0.921  0.2025  0.4791  0.6240
  873MOL0     C15146  11.925   8.660   0.963  0.1692  0.1385 -0.9009
  873MOL0     C15147  11.951   8.805   1.007  0.3082  0.1331 -0.0537
  873MOL0    Cl15148  12.122   8.823   1.040 -0.3564  0.1254 -0.2399
  873MOL0     C15149  11.091   8.412   0.969 -1.1203 -0.3708 -0.2448
  873MOL0     C15150  10.991   8.491   1.012 -0.5857 -0.8080 -0.0640
  873MOL0     O15151  10.894   8.487   1.346  0.2595 -0.5461 -0.8526
  873MOL0     C15152  10.658   8.621   1.446  0.1670  0.0838 -0.0167
  873MOL0     C15153  10.559   8.699   1.503 -0.3037 -0.0408  0.1180
  873MOL0     N15154   9.909   9.011   1.337 -0.1301  0.1930  0.7169
  873MOL0     N15155   9.779   9.014   1.331  0.0308  0.5192 -0.0227
  873MOL0     C15156   8.559   9.415   1.667 -0.1918 -0.0914  0.2356
  873MOL0     C15157   8.507   9.545   1.660 -1.3318  0.1655 -0.1932
  873MOL0     C15158   8.511  10.004   1.801 -0.0323  0.0347  0.0837
  873MOL0     C15159   8.574  10.059   1.692  0.4028  0.4981  0.7384
  873MOL0     C15160   8.612  10.192   1.675 -0.4671 -0.8899  0.4629
  873MOL0     C15161   8.573  10.282   1.779 -0.1415 -0.1595 -0.4713
  873MOL0     O15162   8.612  10.416   1.749 -0.3677 -0.0065  0.0073
  873MOL0     C15163   8.583  10.520   1.846 -0.4719  0.1562 -0.0504
  873MOL0     C15164   8.454  10.587   1.824  0.0476  0.3001  0.0572
  873MOL0     C15165   8.418  10.681   1.940  0.6178  0.1716 -0.4957
  873MOL0     C15166   8.286  10.764   1.933  0.1368 -0.2398  0.4117
  873MOL0     C15167   8.301  10.851   1.815 -0.0448 -0.2657  0.2659
  873MOL0     C15168   8.326  10.928   1.734 -0.1831 -0.9381  0.3803
  873MOL0     C15169   8.509  10.242   1.894  1.0124  0.3089 -0.2975
  873MOL0     C15170   8.479  10.102   1.900 -0.2926  0.2970  0.2765
  873MOL0     H15171   8.742   9.718   1.834 -0.2671 -0.9397  1.1014
  873MOL0     H15172   8.841   9.483   1.832  0.6320 -1.4957 -1.5695
  873MOL0     H15173   8.919   9.255   1.826 -1.5226 -0.8757  1.0316
  873MOL0     H15174   8.894   9.342   1.673 -4.9737  0.5775 -2.4843
  873MOL0     H15175   8.871   9.133   1.552  0.2853  2.3775  1.0564
  873MOL0     H15176   8.826   9.043   1.699 -0.2559  0.3614  0.4685
  873MOL0     H15177   9.054   8.989   1.593  0.7974  0.8475 -0.7262
  873MOL0     H15178   9.047   9.013   1.766  2.0049  0.3416 -0.5004
  873MOL0     H15179   9.127   9.225   1.565 -0.8145  0.1339 -0.1430
  873MOL0     H15180   9.153   9.241   1.732  3.2574  1.3156 -1.7969
  873MOL0     H15181   9.279   9.003   1.626 -1.3067 -0.1747  1.0327
  873MOL0     H15182   9.336   9.115   1.754  0.2229 -0.0001  0.5306
  873MOL0     H15183   9.380   9.281   1.561 -1.5844  0.1792  0.2455
  873MOL0     H15184   9.328   9.171   1.441 -1.7781  4.5687  0.4987
  873MOL0     H15185   9.578   9.165   1.633  2.2178  1.2687 -2.6349
  873MOL0     H15186   9.523   9.013   1.561 -0.8504 -0.1029  0.3230
  873MOL0     H15187   9.598   9.268   1.385  6.5840  1.7007  1.2878
  873MOL0     H15188   9.553   9.104   1.337 -0.1689 -1.7416  1.3014
  873MOL0     H15189   9.856   9.255   1.540  1.0814  0.3079 -0.1206
  873MOL0     H15190  10.091   9.203   1.556  1.7792 -5.0196  4.3670
  873MOL0     H15191  10.148   9.199   1.387 -1.0695  1.2438  0.3887
  873MOL0     H15192  10.205   8.965   1.430  0.0011 -1.5981  0.5528
  873MOL0     H15193  10.126   8.967   1.589  2.0334  0.1635  2.2141
  873MOL0     H15194  10.306   9.188   1.613 -1.2729  0.2537  2.0484
  873MOL0     H15195  10.309   9.024   1.690 -1.1344  2.1374  1.3340
  873MOL0     H15196  10.529   9.078   1.540  0.0298  1.2101 -2.1439
  873MOL0     H15197  10.416   9.057   1.407 -3.3217 -2.4725  0.4480
  873MOL0     H15198  10.639   8.993   1.352 -0.3401 -0.0778  0.7264
  873MOL0     H15199  10.819   8.874   1.272  0.9363 -0.4569  0.3984
  873MOL0     H15200  11.151   8.621   1.281  2.3655  0.2444  0.3109
  873MOL0     H15201  11.332   8.459   1.209  0.8868 -1.9874 -1.1943
  873MOL0     H15202  11.447   8.263   1.111  1.4940  2.5087  1.6160
  873MOL0     H15203  11.478   8.422   1.054 -0.3525 -0.2612 -0.3670
  873MOL0     H15204  11.494   8.174   0.890 -0.1204 -0.5406  1.3422
  873MOL0     H15205  11.633   8.241   0.980 -1.3412 -0.6134  1.8805
  873MOL0     H15206  11.475   8.378   0.737 -0.9732  0.9670  1.6714
  873MOL0     H15207  11.645   8.312   0.733 -0.4125  2.5839 -2.1627
  873MOL0     H15208  11.614   8.569   0.738 -0.3686  0.7879  1.3158
  873MOL0     H15209  11.530   8.548   0.886  0.3672 -0.9716  2.3870
  873MOL0     H15210  11.804   8.459   0.793  1.6039 -1.7080  1.6973
  873MOL0     H15211  11.769   8.424   0.959  2.2777  0.3684  0.0407
  873MOL0     H15212  11.717   8.672   1.002  1.6934 -1.8671  2.8393
  873MOL0     H15213  11.771   8.709   0.835  0.6843  0.8657  0.8364
  873MOL0     H15214  11.948   8.593   1.046 -0.1368 -1.1854 -1.8636
  873MOL0     H15215  11.996   8.622   0.889  1.2325 -2.2670  1.2061
  873MOL0     H15216  11.900   8.835   1.099  0.8742  2.8685 -0.5742
  873MOL0     H15217  11.923   8.865   0.921  2.4256  1.8622  0.3951
  873MOL0     H15218  11.072   8.358   0.877 -3.3930  5.4480 -3.7419
  873MOL0     H15219  10.906   8.512   0.948 -0.1591  3.9708  0.5904
  873MOL0     H15220  10.673   8.515   1.467 -1.3805 -0.0363  0.6362
  873MOL0     H15221  10.481   8.661   1.569 -3.3862  3.9001 -0.8443
  873MOL0     H15222   8.505   9.326   1.634  2.6556 -0.8617 -2.8534
  873MOL0     H15223   8.423   9.571   1.595  0.9324 -1.6492 -4.2037
  873MOL0     H15224   8.618   9.992   1.618  2.6616 -0.2032  2.6227
  873MOL0     H15225   8.673  10.221   1.590 -1.5575 -1.7426 -0.6513
  873MOL0     H15226   8.665  10.592   1.834  0.3589 -1.0463 -2.2926
  873MOL0     H15227   8.578  10.488   1.950 -0.2085  1.0235  0.2403
  873MOL0     H15228   8.459  10.646   1.732  0.7542 -0.1484 -0.1954
  873MOL0     H15229   8.371  10.516   1.823 -0.3996  0.7614  2.0544
  873MOL0     H15230   8.508  10.742   1.954  2.2640 -2.5049  1.5856
  873MOL0     H15231   8.413  10.616   2.028 -1.4944  0.8574 -0.0494
  873MOL0     H15232   8.206  10.692   1.916  2.2611 -3.0805  1.5887
  873MOL0     H15233   8.267  10.835   2.014 -3.6003  1.4856 -1.7189
  873MOL0     H15234   8.326  11.001   1.655  2.7779 -0.5946  0.5793
  873MOL0     H15235   8.495  10.308   1.978 -1.9544  0.1993 -0.5897
  873MOL0     H15236   8.429  10.067   1.990  0.5397  0.6684  0.8999
  874MOL0     O15237  11.376   4.526   1.664 -0.5931  0.3277  1.2261
  874MOL0     C15238  11.433   4.611   1.729  0.6635  0.0105 -0.0735
  874MOL0     O15239  11.567   4.622   1.752 -0.2639  0.3632  0.3665
  874MOL0     C15240  11.659   4.523   1.713 -0.1545 -0.7073 -0.2764
  874MOL0     C15241  11.780   4.581   1.686 -1.1228  0.4066  0.8401
  874MOL0     C15242  11.885   4.502   1.632 -0.2930 -0.5322 -0.6244
  874MOL0     C15243  11.865   4.369   1.589  1.1411 -0.0579 -0.3185
  874MOL0     O15244  11.974   4.305   1.544 -0.5694  0.2347  0.1814
  874MOL0     C15245  11.968   4.160   1.537  0.2148 -0.2004 -0.6433
  874MOL0     C15246  12.099   4.115   1.476 -0.3975 -0.0714  0.2951
  874MOL0     C15247  12.228   4.120   1.568  0.7809  0.0564  0.2881
  874MOL0     C15248  12.224   4.023   1.688  0.1311  0.4207 -0.6598
  874MOL0     C15249  12.362   3.984   1.730 -0.0524 -0.3237 -0.2645
  874MOL0     C15250  12.417   4.098   1.819 -0.4783  0.0211  0.1753
  874MOL0     C15251  12.366   4.089   1.960 -1.3973 -0.3878 -0.9698
  874MOL0     C15252  12.434   4.190   2.053 -0.1989  0.3395  0.0151
  874MOL0     N15253  12.398   4.325   2.032 -0.4397 -0.4473  0.0452
  874MOL0     C15254  12.438   4.413   2.116 -0.4696 -0.1255 -0.7048
  874MOL0     C15255  12.381   4.532   2.087 -0.3881 -0.6688 -0.4466
  874MOL0     C15256  12.418   4.659   2.153 -0.1304  0.1026  0.1103
  874MOL0     C15257  12.543   4.701   2.086 -0.5732 -0.3290  0.7159
  874MOL0     C15258  12.597   4.827   2.131 -0.0672 -0.0377  0.0222
  874MOL0     C15259  12.506   4.951   2.126  0.3993 -0.5496  0.4076
  874MOL0     O15260  12.583   5.066   2.155  0.4740  0.0408 -0.3567
  874MOL0     C15261  12.513   5.177   2.132  0.7463 -0.6017 -0.9667
  874MOL0     C15262  12.377   5.203   2.162 -0.4284 -0.1034 -1.2079
  874MOL0     C15263  12.322   5.321   2.129 -0.8732 -1.0328 -0.7244
  874MOL0     C15264  12.390   5.426   2.065 -1.1611  0.2127  0.0869
  874MOL0     C15265  12.323   5.542   2.009 -0.1834  0.2286 -0.0573
  874MOL0     O15266  12.399   5.645   1.942  0.0106  0.2661  0.4088
  874MOL0     C15267  12.332   5.728   1.857  0.1738 -1.2870  0.7686
  874MOL0     C15268  12.258   5.690   1.738  0.3199 -0.6233 -0.0597
  874MOL0     C15269  12.199   5.778   1.647  0.6200 -1.0627 -0.1502
  874MOL0     C15270  12.215   5.914   1.668  1.1171 -0.0006  0.2551
  874MOL0     O15271  12.161   6.010   1.597  0.0434 -0.6567 -0.4675
  874MOL0     C15272  12.072   5.977   1.483 -0.1733  0.1118 -0.2704
  874MOL0     C15273  12.137   5.931   1.351  0.2219 -0.0509  0.3905
  874MOL0     C15274  12.033   5.866   1.267 -0.8431  0.5387  0.1036
  874MOL0     C15275  12.097   5.784   1.151 -0.4482 -0.4165  0.5210
  874MOL0     C15276  11.991   5.707   1.075  0.2489 -0.0027  1.1589
  874MOL0     C15277  12.060   5.615   0.971  0.6908  0.6265  0.6044
  874MOL0     C15278  11.955   5.548   0.886 -1.0368  0.0874  0.5457
  874MOL0     C15279  12.004   5.435   0.798  0.1704 -0.9578 -0.5323
  874MOL0    Cl15280  11.869   5.385   0.689 -0.3173 -0.1682  0.1527
  874MOL0     C15281  12.284   5.956   1.785  0.3047  0.6503 -0.4047
  874MOL0     C15282  12.344   5.868   1.876  0.1801 -0.7303 -0.4455
  874MOL0     O15283  12.196   5.541   2.024 -0.7234  0.7212  0.3347
  874MOL0     C15284  12.525   5.395   2.032  1.7722 -0.8280 -0.1404
  874MOL0     C15285  12.585   5.282   2.073  0.1129 -0.2527 -0.0362
  874MOL0     N15286  12.298   4.512   1.969 -0.0271 -0.1289 -0.0023
  874MOL0     N15287  12.324   4.390   1.939 -0.1286  0.0056  1.5375
  874MOL0     C15288  11.737   4.312   1.620 -0.7077 -0.9026  0.4629
  874MOL0     C15289  11.641   4.386   1.687 -0.1893 -1.3560  0.0685
  874MOL0     C15290  11.347   4.729   1.765  0.3203  0.4129  0.7799
  874MOL0     C15291  11.220   4.743   1.715 -0.2439 -0.4497 -0.4775
  874MOL0     C15292  11.133   4.835   1.764  0.1705 -0.2925  0.3344
  874MOL0     C15293  11.180   4.934   1.857  0.6078 -0.2881 -0.1802
  874MOL0     O15294  11.102   5.045   1.890  0.9563  0.4925  0.4349
  874MOL0     C15295  11.172   5.169   1.868 -1.2449 -0.5764 -0.5490
  874MOL0     C15296  11.081   5.278   1.814  0.1397 -0.1245 -0.3188
  874MOL0     C15297  11.052   5.270   1.660 -0.3119  0.6798  1.4917
  874MOL0     C15298  10.930   5.194   1.632  0.3839  0.7663  1.0178
  874MOL0     C15299  10.927   5.140   1.494 -1.0026  0.0504  0.0959
  874MOL0     C15300  10.942   5.101   1.377 -0.6345 -0.6078 -0.2687
  874MOL0     C15301  11.311   4.922   1.902  1.1139 -0.3935  0.2028
  874MOL0     C15302  11.401   4.830   1.851  0.4085 -0.1584  0.6420
  874MOL0     H15303  11.783   4.689   1.704 -1.3954  0.1602  2.6050
  874MOL0     H15304  11.972   4.554   1.592 -2.4402  1.7202 -2.6881
  874MOL0     H15305  11.890   4.136   1.465 -1.6478  1.6674  0.6067
  874MOL0     H15306  11.937   4.129   1.638 -1.1662  1.6522 -0.4301
  874MOL0     H15307  12.117   4.178   1.389 -3.6515  1.2949  0.4724
  874MOL0     H15308  12.088   4.017   1.430 -2.2339  0.2767 -0.0827
  874MOL0     H15309  12.252   4.222   1.601 -0.3740 -0.0326  1.4664
  874MOL0     H15310  12.308   4.096   1.498 -0.0901  1.4463 -1.2601
  874MOL0     H15311  12.165   4.071   1.767  0.6689 -2.6529  1.7919
  874MOL0     H15312  12.168   3.930   1.670  0.0980  0.5243 -1.1215
  874MOL0     H15313  12.426   3.979   1.642  1.1712  1.8818  0.4269
  874MOL0     H15314  12.352   3.889   1.784 -2.4524 -0.3248 -0.5987
  874MOL0     H15315  12.398   4.199   1.781  2.5753  0.2413 -1.0425
  874MOL0     H15316  12.526   4.092   1.825 -0.3204  1.4589 -0.7913
  874MOL0     H15317  12.258   4.107   1.959 -1.5022 -0.8934  0.2942
  874MOL0     H15318  12.388   3.991   2.002  1.5154  1.3069  1.9209
  874MOL0     H15319  12.541   4.183   2.031 -0.4302  0.4113 -1.1399
  874MOL0     H15320  12.407   4.170   2.157 -0.8366 -1.6466 -0.4935
  874MOL0     H15321  12.512   4.400   2.194  1.1866  0.7889 -2.0508
  874MOL0     H15322  12.439   4.636   2.258  0.9495  1.6159  0.2530
  874MOL0     H15323  12.341   4.736   2.141 -0.3065  0.0017  0.5863
  874MOL0     H15324  12.529   4.695   1.978  1.0325  1.7559  0.3262
  874MOL0     H15325  12.620   4.628   2.109  2.9981  2.1024 -2.3379
  874MOL0     H15326  12.596   4.817   2.240 -5.3808  0.0484  0.2270
  874MOL0     H15327  12.700   4.841   2.095 -0.1466  1.2740  0.2381
  874MOL0     H15328  12.417   4.943   2.188  0.4381  1.2468  0.7642
  874MOL0     H15329  12.461   4.966   2.027 -2.3493  0.5085  1.7288
  874MOL0     H15330  12.316   5.140   2.226 -1.2518  0.3465 -1.5361
  874MOL0     H15331  12.214   5.328   2.133 -0.8477 -1.1040  0.1333
  874MOL0     H15332  12.258   5.583   1.720 -0.0339 -1.4658  3.9805
  874MOL0     H15333  12.164   5.733   1.554  1.0468 -1.4250 -0.1384
  874MOL0     H15334  12.013   6.066   1.461  1.6866  1.7266  1.0062
  874MOL0     H15335  11.997   5.905   1.518 -1.1909  1.3025  0.0602
  874MOL0     H15336  12.215   5.860   1.381 -2.2046 -1.8471  3.0298
  874MOL0     H15337  12.167   6.022   1.300  1.4848 -1.3057 -1.2217
  874MOL0     H15338  11.958   5.939   1.235 -0.6472  1.5237  1.7722
  874MOL0     H15339  11.980   5.791   1.327 -0.5210 -0.7469 -1.1699
  874MOL0     H15340  12.155   5.850   1.085 -3.1063  1.4620 -0.0795
  874MOL0     H15341  12.169   5.715   1.195  1.3746 -0.2797 -2.0086
  874MOL0     H15342  11.919   5.774   1.029 -0.9747 -0.1605  2.7640
  874MOL0     H15343  11.925   5.648   1.140  0.5815 -0.6548  0.9167
  874MOL0     H15344  12.117   5.534   1.018  1.4517 -0.5312 -2.1124
  874MOL0     H15345  12.129   5.668   0.904 -1.4868 -0.4854 -2.7481
  874MOL0     H15346  11.868   5.509   0.941 -2.0660 -0.6004 -1.4794
  874MOL0     H15347  11.923   5.628   0.819  3.7470 -0.0213 -2.2781
  874MOL0     H15348  12.020   5.350   0.866  1.0221 -2.2354 -2.2703
  874MOL0     H15349  12.098   5.457   0.749  1.1519 -0.5175  1.4331
  874MOL0     H15350  12.299   6.060   1.813  0.7830  0.1989  1.1311
  874MOL0     H15351  12.401   5.915   1.954 -0.9227 -1.7935  1.0591
  874MOL0     H15352  12.583   5.455   1.963  2.5178 -1.6008 -0.2050
  874MOL0     H15353  12.691   5.274   2.050  0.4367 -0.5739  1.4613
  874MOL0     H15354  11.700   4.215   1.589 -1.5042 -0.2549 -0.7351
  874MOL0     H15355  11.549   4.329   1.690  0.2930 -2.2950 -1.4891
  874MOL0     H15356  11.187   4.676   1.635 -0.2184  2.3545 -3.0040
  874MOL0     H15357  11.037   4.862   1.721  1.2413  0.0042 -2.0360
  874MOL0     H15358  11.260   5.168   1.803 -1.3438  1.4204 -0.7887
  874MOL0     H15359  11.211   5.193   1.967 -1.6387 -3.3455  0.3595
  874MOL0     H15360  11.005   5.313   1.885  1.6928  2.1760  0.3374
  874MOL0     H15361  11.135   5.373   1.814 -0.3321  0.1491 -1.1085
  874MOL0     H15362  11.129   5.220   1.601 -1.5203  1.2869 -0.7226
  874MOL0     H15363  11.050   5.370   1.613 -1.2881  0.1683  0.3849
  874MOL0     H15364  10.912   5.109   1.698  1.0664 -1.9924 -2.0649
  874MOL0     H15365  10.842   5.258   1.639  2.4008  3.8371  0.1313
  874MOL0     H15366  10.949   5.071   1.274 -2.3836  0.3068 -0.6939
  874MOL0     H15367  11.358   4.991   1.971  2.5123  1.5686 -2.5283
  874MOL0     H15368  11.504   4.826   1.886  0.8822 -1.1410 -0.7923
  875MOL0     O15369   0.065   0.698   3.431 -0.1897  0.5075 -0.9606
  875MOL0     C15370  -0.013   0.667   3.342 -0.8894  0.7420 -0.3799
  875MOL0     O15371  -0.079   0.758   3.263 -0.0306  0.0701  0.3257
  875MOL0     C15372  -0.097   0.879   3.325 -0.4920  0.2782  0.3224
  875MOL0     C15373  -0.220   0.918   3.364  0.1544 -0.5197 -0.2311
  875MOL0     C15374  -0.245   1.039   3.431  0.8400 -0.2558  0.8141
  875MOL0     C15375  -0.142   1.126   3.465  0.2531 -0.3369  0.5982
  875MOL0     O15376  -0.169   1.241   3.526  0.3597 -0.2396 -1.0087
  875MOL0     C15377  -0.077   1.346   3.538 -0.4765 -0.0701  0.5624
  875MOL0     C15378  -0.138   1.456   3.630  0.3023 -0.1231  0.3312
  875MOL0     C15379  -0.261   1.538   3.569 -0.7952 -0.0945  0.0198
  875MOL0     C15380  -0.311   1.632   3.674 -0.2118  0.0957 -0.5078
  875MOL0     C15381  -0.450   1.675   3.627  0.8171  0.1479  0.5724
  875MOL0     C15382  -0.509   1.760   3.742 -0.0260 -0.5774 -0.1981
  875MOL0     C15383  -0.603   1.869   3.689 -0.3309 -0.5048  0.8579
  875MOL0     C15384  -0.615   1.993   3.784  0.0428  1.5782 -0.1032
  875MOL0     N15385  -0.748   2.055   3.775  0.3317 -0.5268 -0.0948
  875MOL0     C15386  -0.796   2.113   3.658 -0.8241  0.0731 -0.1834
  875MOL0     C15387  -0.921   2.158   3.688 -0.3001 -0.0210  0.3040
  875MOL0     C15388  -1.021   2.237   3.607 -0.1084  0.6619 -0.0355
  875MOL0     C15389  -0.970   2.378   3.571  0.3633  0.3646  0.0754
  875MOL0     C15390  -0.999   2.480   3.671 -0.1346  0.4800  1.6698
  875MOL0     C15391  -0.872   2.519   3.742  0.1355 -1.4032  0.9166
  875MOL0     O15392  -0.911   2.585   3.872  0.0593  0.2650  0.0551
  875MOL0     C15393  -0.948   2.722   3.870  0.2693 -0.3375  0.3336
  875MOL0     C15394  -0.956   2.809   3.757 -0.4133 -0.8285 -0.4140
  875MOL0     C15395  -0.986   2.946   3.791  0.2619 -0.9155  1.4111
  875MOL0     C15396  -1.004   2.992   3.914  0.4383  0.6895 -1.0201
  875MOL0     C15397  -1.018   3.130   3.943 -0.2144  0.2855 -0.1134
  875MOL0     O15398  -1.048   3.170   4.067 -1.0074 -0.1349  0.1920
  875MOL0     C15399  -1.065   3.300   4.108 -0.0691  1.2597  0.0477
  875MOL0     C15400  -1.002   3.341   4.223  0.5148  0.3996 -0.4177
  875MOL0     C15401  -1.011   3.476   4.264  0.5949  0.3200 -1.4713
  875MOL0     C15402  -1.085   3.564   4.190 -0.3384 -0.5636 -0.1389
  875MOL0     O15403  -1.107   3.692   4.233  0.3331  0.2247  0.3119
  875MOL0     C15404  -0.999   3.776   4.277  1.3281 -1.0540 -0.3511
  875MOL0     C15405  -1.050   3.924   4.289  0.3585  0.9879  0.7952
  875MOL0     C15406  -1.150   3.966   4.401 -0.2747  0.5398 -0.3380
  875MOL0     C15407  -1.127   4.115   4.422  0.4071  0.4100  0.0223
  875MOL0     C15408  -1.244   4.189   4.462 -0.1134 -0.3356 -0.1075
  875MOL0     C15409  -1.219   4.340   4.507 -0.1882 -0.7064 -0.3004
  875MOL0     C15410  -1.349   4.418   4.528 -0.6642  0.0896  0.1521
  875MOL0     C15411  -1.312   4.572   4.530  0.4282  0.0371  0.2844
  875MOL0    Cl15412  -1.468   4.667   4.498  0.1472  0.2298 -0.3850
  875MOL0     C15413  -1.151   3.518   4.072 -0.4249 -0.5116  0.5684
  875MOL0     C15414  -1.142   3.389   4.032 -0.6255 -0.5566 -0.5011
  875MOL0     O15415  -0.995   3.210   3.854 -0.5960 -0.2872 -0.4153
  875MOL0     C15416  -0.989   2.906   4.021  0.4581  0.2486 -1.2391
  875MOL0     C15417  -0.963   2.769   3.999 -0.1710  0.6362  0.5265
  875MOL0     N15418  -0.948   2.125   3.818 -0.8283  0.9856  0.8768
  875MOL0     N15419  -0.849   2.059   3.868  1.2278  0.2066 -0.1929
  875MOL0     C15420  -0.018   1.093   3.421 -0.6618  0.4150  0.4196
  875MOL0     C15421   0.005   0.967   3.348  0.0857  0.1049 -0.7960
  875MOL0     C15422  -0.041   0.529   3.322  0.4606  0.0127 -0.3766
  875MOL0     C15423  -0.062   0.451   3.439 -0.6507  0.6741  0.2235
  875MOL0     C15424  -0.098   0.317   3.426 -0.0130 -0.2916  0.4528
  875MOL0     C15425  -0.099   0.259   3.296 -0.6870 -0.1809  0.7607
  875MOL0     O15426  -0.104   0.120   3.285 -0.3509 -0.1590  0.0346
  875MOL0     C15427  -0.131   0.050   3.167 -1.1418  0.1664  0.0892
  875MOL0     C15428  -0.003   0.020   3.094 -0.2306 -0.2314  1.1106
  875MOL0     C15429   0.076  -0.104   3.142 -0.2186  0.0080 -0.2890
  875MOL0     C15430   0.108  -0.094   3.301  0.3438  0.4780 -0.4583
  875MOL0     C15431   0.226  -0.180   3.338  0.3078 -0.2534 -0.9532
  875MOL0     C15432   0.326  -0.239   3.371 -0.1752  0.2447  1.0561
  875MOL0     C15433  -0.085   0.342   3.185  0.3679  0.4123  0.2127
  875MOL0     C15434  -0.054   0.476   3.198 -0.2906  0.3108 -0.4072
  875MOL0     H15435  -0.292   0.837   3.363  1.2876 -1.5689  0.6833
  875MOL0     H15436  -0.347   1.064   3.461  0.3037 -1.3572 -0.0160
  875MOL0     H15437  -0.046   1.372   3.437  0.9003 -0.9054  0.7450
  875MOL0     H15438   0.003   1.305   3.601 -0.5498  0.9809  1.3684
  875MOL0     H15439  -0.064   1.535   3.649 -1.0427  1.6247 -1.2660
  875MOL0     H15440  -0.169   1.404   3.721  1.7674  0.5357  1.2621
  875MOL0     H15441  -0.339   1.463   3.554  0.2916 -0.7981 -2.9421
  875MOL0     H15442  -0.237   1.592   3.477  2.5430  0.5556  1.1325
  875MOL0     H15443  -0.322   1.578   3.768  1.5446 -0.3224 -0.5211
  875MOL0     H15444  -0.241   1.713   3.694  1.7259 -0.9374 -2.5850
  875MOL0     H15445  -0.517   1.593   3.599  0.2862  0.6957  0.2232
  875MOL0     H15446  -0.433   1.743   3.543  1.5622  0.2756  0.8163
  875MOL0     H15447  -0.426   1.799   3.802  0.7709  0.3439 -1.8337
  875MOL0     H15448  -0.565   1.704   3.818  0.1441 -0.4324  0.0379
  875MOL0     H15449  -0.581   1.899   3.586  0.8770 -0.7796  1.0208
  875MOL0     H15450  -0.697   1.814   3.695  0.6816 -2.1131  3.8989
  875MOL0     H15451  -0.533   2.060   3.758  1.0499  0.0887 -0.8568
  875MOL0     H15452  -0.601   1.953   3.885  2.0720  2.2574 -0.0752
  875MOL0     H15453  -0.766   2.109   3.554  0.0889  0.3195  0.0615
  875MOL0     H15454  -1.121   2.243   3.652  1.0179 -0.0231  2.7140
  875MOL0     H15455  -1.032   2.181   3.513  1.7514  0.6847 -0.2924
  875MOL0     H15456  -1.028   2.404   3.482 -0.4786  2.2233  1.1088
  875MOL0     H15457  -0.865   2.370   3.544  0.0088 -2.9531 -0.7700
  875MOL0     H15458  -1.033   2.564   3.610  1.1723 -0.6986 -0.8446
  875MOL0     H15459  -1.083   2.449   3.735  0.3781 -1.0375  1.6466
  875MOL0     H15460  -0.807   2.583   3.683  0.2004  0.3568  2.7876
  875MOL0     H15461  -0.818   2.430   3.776  1.2178 -0.9034  0.5385
  875MOL0     H15462  -0.922   2.767   3.663 -1.3629  0.0965 -1.1900
  875MOL0     H15463  -1.000   3.013   3.707  0.0997 -2.8057 -0.1370
  875MOL0     H15464  -0.946   3.265   4.276  2.8942  0.4948 -2.6040
  875MOL0     H15465  -0.977   3.516   4.359 -2.0420  0.6632 -0.6104
  875MOL0     H15466  -0.927   3.789   4.196 -3.2814 -1.7166 -5.1062
  875MOL0     H15467  -0.962   3.738   4.373  2.7142 -0.4066 -0.6048
  875MOL0     H15468  -1.092   3.945   4.190  1.9882 -0.6762 -0.3323
  875MOL0     H15469  -0.961   3.988   4.289  2.2365 -1.4769  0.3345
  875MOL0     H15470  -1.133   3.907   4.491 -2.6668 -0.4084 -0.4274
  875MOL0     H15471  -1.255   3.946   4.377  0.2800 -1.6584 -1.1817
  875MOL0     H15472  -1.050   4.131   4.498 -1.0916  3.0932  1.0879
  875MOL0     H15473  -1.086   4.161   4.331 -0.8558  0.3204 -0.6060
  875MOL0     H15474  -1.288   4.119   4.534 -0.2192 -0.7119 -0.5354
  875MOL0     H15475  -1.309   4.190   4.374 -1.5454 -1.7383  0.8844
  875MOL0     H15476  -1.174   4.395   4.423  3.5321 -0.5147  1.6136
  875MOL0     H15477  -1.162   4.333   4.600 -3.9859 -4.0645  2.1051
  875MOL0     H15478  -1.420   4.394   4.448 -0.2849 -2.7119  0.5548
  875MOL0     H15479  -1.389   4.386   4.625 -3.3929 -0.2765 -1.0015
  875MOL0     H15480  -1.242   4.609   4.454 -0.9245  1.4668 -0.3274
  875MOL0     H15481  -1.265   4.595   4.626  1.1301 -1.0542  0.2225
  875MOL0     H15482  -1.203   3.585   4.005  0.2161 -0.5318  0.0337
  875MOL0     H15483  -1.188   3.356   3.939 -2.2851  1.1306 -0.3409
  875MOL0     H15484  -1.004   2.946   4.121 -3.7713  1.1623 -2.0392
  875MOL0     H15485  -0.952   2.697   4.079  0.1050 -2.2400 -1.9197
  875MOL0     H15486   0.075   1.144   3.445 -1.6886  0.9776  3.6645
  875MOL0     H15487   0.096   0.961   3.289  0.9135  3.5390 -0.0704
  875MOL0     H15488  -0.055   0.490   3.540 -4.2241  0.6655  0.6214
  875MOL0     H15489  -0.110   0.249   3.510 -2.9719 -0.4475 -0.0187
  875MOL0     H15490  -0.202   0.106   3.105 -4.4693 -2.2253  1.4438
  875MOL0     H15491  -0.167  -0.051   3.187 -2.4815  0.7601  0.8008
  875MOL0     H15492  -0.048   0.014   2.995  1.4370 -0.8330  0.3476
  875MOL0     H15493   0.079   0.093   3.088  0.4128 -1.0557 -1.0926
  875MOL0     H15494   0.166  -0.117   3.082  0.5039  1.3359  0.4304
  875MOL0     H15495   0.015  -0.192   3.123 -1.0770  0.6135 -0.4434
  875MOL0     H15496   0.131   0.006   3.339  2.0952 -0.5113  1.2955
  875MOL0     H15497   0.018  -0.115   3.360 -0.0292 -0.8271 -1.4608
  875MOL0     H15498   0.422  -0.285   3.389  0.4173  1.4143  0.9800
  875MOL0     H15499  -0.098   0.294   3.089  2.7749 -1.7136  0.8593
  875MOL0     H15500  -0.034   0.543   3.115  1.0712  2.5710  1.6137
  876MOL0     O15501   9.477   7.936   3.328 -0.1138  0.1370  0.1157
  876MOL0     C15502   9.477   7.874   3.435  0.6039 -0.3905 -0.5411
  876MOL0     O15503   9.433   7.744   3.443 -0.0173 -0.0656  0.2003
  876MOL0     C15504   9.354   7.685   3.340  1.1059 -0.1046  0.5655
  876MOL0     C15505   9.385   7.556   3.302 -0.2867 -1.0620 -0.4446
  876MOL0     C15506   9.298   7.504   3.204  0.2610 -0.7271 -0.0273
  876MOL0     C15507   9.182   7.571   3.165  0.5883 -0.2253 -0.2890
  876MOL0     O15508   9.085   7.499   3.098  0.2642  0.0865 -0.6475
  876MOL0     C15509   8.941   7.498   3.120 -0.2027 -0.4563 -0.3373
  876MOL0     C15510   8.872   7.377   3.055 -0.0188  0.1646  0.2890
  876MOL0     C15511   8.923   7.364   2.907 -0.5473 -0.4809 -0.2336
  876MOL0     C15512   8.899   7.492   2.830 -0.1856  0.4677  0.1957
  876MOL0     C15513   8.862   7.474   2.677 -0.2377  0.2835  0.5399
  876MOL0     C15514   8.712   7.450   2.654 -0.2087  0.1029  0.4076
  876MOL0     C15515   8.660   7.494   2.520  0.4726  0.6647 -0.8285
  876MOL0     C15516   8.510   7.486   2.504  0.7335 -0.3040  0.3921
  876MOL0     N15517   8.466   7.554   2.381  0.8248 -0.4150  0.6041
  876MOL0     C15518   8.424   7.494   2.267  0.5829 -1.1393 -0.0271
  876MOL0     C15519   8.418   7.593   2.169  0.8344  1.2864 -0.6811
  876MOL0     C15520   8.382   7.571   2.026 -0.5140 -0.5106 -0.6054
  876MOL0     C15521   8.242   7.606   2.002 -0.8319 -0.0432 -0.0620
  876MOL0     C15522   8.229   7.645   1.849  0.1584  0.3393 -0.6374
  876MOL0     C15523   8.077   7.676   1.810 -0.3443  0.3615 -0.4227
  876MOL0     O15524   8.061   7.714   1.674  0.0235  0.6067  0.2929
  876MOL0     C15525   7.997   7.628   1.585  0.3590 -0.2865 -0.7396
  876MOL0     C15526   8.057   7.611   1.465 -0.5606 -0.0473 -0.2110
  876MOL0     C15527   7.996   7.540   1.365  0.1986 -1.3307  0.3513
  876MOL0     C15528   7.871   7.487   1.375 -0.7221  0.0844  0.9259
  876MOL0     C15529   7.802   7.436   1.253 -0.2289 -0.0594 -0.2922
  876MOL0     O15530   7.857   7.424   1.125  0.0504 -0.9830 -0.5863
  876MOL0     C15531   7.792   7.399   1.006 -0.4447 -0.5434 -0.3178
  876MOL0     C15532   7.878   7.389   0.895  0.1801 -0.2504 -0.2586
  876MOL0     C15533   7.819   7.386   0.766 -0.0230  0.2792 -0.1749
  876MOL0     C15534   7.685   7.384   0.746  0.2916  0.1440 -0.1460
  876MOL0     O15535   7.623   7.396   0.620  0.1196  0.1125  0.0212
  876MOL0     C15536   7.709   7.424   0.507 -0.4793 -0.1346 -0.4562
  876MOL0     C15537   7.629   7.447   0.377 -0.2184  0.3414 -0.2558
  876MOL0     C15538   7.499   7.536   0.396  1.0471  0.4310 -0.8251
  876MOL0     C15539   7.363   7.464   0.454 -0.0873  0.4042  0.0216
  876MOL0     C15540   7.256   7.576   0.449 -0.3895  0.8142 -0.2764
  876MOL0     C15541   7.108   7.537   0.488  0.2041 -0.3730  0.6253
  876MOL0     C15542   7.007   7.644   0.478  0.3126 -0.0816 -0.0281
  876MOL0     C15543   6.989   7.713   0.348  0.3312  0.7353  0.3968
  876MOL0    Cl15544   6.970   7.589   0.219  0.0274 -0.2772 -0.0707
  876MOL0     C15545   7.594   7.388   0.860  0.9343 -0.5739 -0.5600
  876MOL0     C15546   7.651   7.395   0.988  0.0708 -0.4294 -0.1137
  876MOL0     O15547   7.689   7.396   1.285 -0.0195 -0.9895  0.2406
  876MOL0     C15548   7.808   7.494   1.501 -0.8588 -0.5985  0.2449
  876MOL0     C15549   7.872   7.569   1.607 -0.1044 -0.2605 -0.0837
  876MOL0     N15550   8.454   7.716   2.228  0.5237 -0.1291  0.8153
  876MOL0     N15551   8.478   7.691   2.353 -0.2704  0.1821  0.1821
  876MOL0     C15552   9.154   7.704   3.206 -0.8714 -0.3129  0.0018
  876MOL0     C15553   9.246   7.758   3.293  0.0855 -0.2790  0.3438
  876MOL0     C15554   9.543   7.928   3.557 -0.5409 -0.7008  0.0144
  876MOL0     C15555   9.632   8.032   3.556  0.5017 -0.6216  0.2284
  876MOL0     C15556   9.691   8.068   3.676 -0.8855  0.5776  0.1928
  876MOL0     C15557   9.684   7.994   3.792 -0.3042  1.7189 -0.1771
  876MOL0     O15558   9.747   8.036   3.904  0.0622  0.1881 -0.6053
  876MOL0     C15559   9.770   7.946   4.016  0.2885 -0.1970  0.4594
  876MOL0     C15560   9.831   8.007   4.140  0.0963  0.7484 -0.5626
  876MOL0     C15561   9.744   8.122   4.205 -0.9035 -0.0792  1.0419
  876MOL0     C15562   9.805   8.167   4.346 -0.3355  0.1350 -1.4803
  876MOL0     C15563   9.927   8.247   4.315 -0.4652 -0.1257  0.3422
  876MOL0     C15564  10.033   8.299   4.290  0.4027 -1.1400  0.5015
  876MOL0     C15565   9.612   7.880   3.778 -0.6979  0.3474 -0.4414
  876MOL0     C15566   9.541   7.848   3.668  0.5418 -0.0971  0.0849
  876MOL0     H15567   9.471   7.509   3.349  0.4714  0.3264 -0.3827
  876MOL0     H15568   9.329   7.405   3.174  0.3145 -1.1835  1.4766
  876MOL0     H15569   8.908   7.592   3.075 -0.8034 -2.1943 -3.9032
  876MOL0     H15570   8.929   7.502   3.229 -0.3506  1.4022 -0.3835
  876MOL0     H15571   8.764   7.388   3.064 -0.3184 -0.7267 -1.5394
  876MOL0     H15572   8.901   7.287   3.110 -0.2730 -0.9885 -1.3858
  876MOL0     H15573   8.864   7.278   2.873  0.4429 -1.3600  0.1994
  876MOL0     H15574   9.027   7.331   2.920 -1.4441 -2.4010  3.0546
  876MOL0     H15575   8.817   7.537   2.886  0.8620  0.0729  2.1231
  876MOL0     H15576   8.975   7.568   2.851  0.0444 -0.2121  1.9268
  876MOL0     H15577   8.905   7.383   2.635 -3.3911 -2.1916  2.3329
  876MOL0     H15578   8.890   7.570   2.632 -0.1687  0.5390  1.1188
  876MOL0     H15579   8.663   7.502   2.737 -1.3407 -0.2298 -0.0235
  876MOL0     H15580   8.697   7.342   2.656 -1.2600  0.2336  0.4574
  876MOL0     H15581   8.696   7.594   2.496  1.8127  0.3942 -0.0313
  876MOL0     H15582   8.697   7.422   2.446  3.1102  1.9359 -0.8786
  876MOL0     H15583   8.455   7.540   2.581 -0.2211  1.8440 -1.6771
  876MOL0     H15584   8.468   7.385   2.508 -3.8652  1.3539 -0.0267
  876MOL0     H15585   8.403   7.391   2.243  0.6930 -0.7859 -1.8020
  876MOL0     H15586   8.382   7.468   1.991  2.4778 -1.2958  1.3425
  876MOL0     H15587   8.456   7.625   1.966 -0.8467  2.4775  1.4257
  876MOL0     H15588   8.197   7.688   2.060 -0.3141  0.6182 -0.5712
  876MOL0     H15589   8.180   7.519   2.024 -0.8844  0.4135  1.6814
  876MOL0     H15590   8.289   7.732   1.822  0.7223 -0.1537 -0.9918
  876MOL0     H15591   8.258   7.560   1.787 -3.2489 -0.0100 -2.0169
  876MOL0     H15592   8.034   7.766   1.853 -2.3959 -1.1172  0.8205
  876MOL0     H15593   8.019   7.584   1.825  2.8408 -1.6747  0.5908
  876MOL0     H15594   8.147   7.669   1.447 -0.6168  0.3409  0.6830
  876MOL0     H15595   8.059   7.538   1.277  3.3815  2.4274  2.2457
  876MOL0     H15596   7.985   7.377   0.908  1.1291  2.1221 -4.1642
  876MOL0     H15597   7.887   7.370   0.683 -0.2230  1.2070 -0.5329
  876MOL0     H15598   7.773   7.340   0.479 -0.3761  0.1546 -1.1011
  876MOL0     H15599   7.765   7.511   0.543 -2.0273  0.7115  0.0133
  876MOL0     H15600   7.601   7.351   0.333  0.9682 -0.1099 -0.0637
  876MOL0     H15601   7.700   7.495   0.309  0.0897  0.5750  0.2220
  876MOL0     H15602   7.480   7.574   0.295 -0.7629 -0.0559 -0.7159
  876MOL0     H15603   7.505   7.623   0.462 -0.5765  0.2828 -0.4220
  876MOL0     H15604   7.341   7.385   0.383  0.1682  0.4667 -0.1270
  876MOL0     H15605   7.374   7.432   0.558  1.0201 -0.1735 -0.2683
  876MOL0     H15606   7.275   7.628   0.355  0.7482 -0.4145 -0.7751
  876MOL0     H15607   7.286   7.649   0.525  0.3415  0.7353 -0.4774
  876MOL0     H15608   7.106   7.499   0.590 -1.3560 -0.3750  0.6141
  876MOL0     H15609   7.074   7.449   0.432  0.0779  0.9643 -1.5227
  876MOL0     H15610   6.908   7.604   0.499  1.2199 -1.9371  0.9358
  876MOL0     H15611   7.019   7.722   0.554 -0.7357  0.0609 -0.0003
  876MOL0     H15612   7.075   7.777   0.326 -0.6363  2.3733  1.1812
  876MOL0     H15613   6.899   7.774   0.342 -3.0254 -3.6324  1.5287
  876MOL0     H15614   7.486   7.388   0.858  0.8173 -0.4430  2.1521
  876MOL0     H15615   7.587   7.411   1.074 -0.5438 -1.3716 -0.3851
  876MOL0     H15616   7.712   7.450   1.524  0.2738 -1.8232  3.2355
  876MOL0     H15617   7.823   7.589   1.702 -0.2019 -3.1249  0.5814
  876MOL0     H15618   9.072   7.767   3.173 -1.6762 -1.4415 -0.2154
  876MOL0     H15619   9.221   7.857   3.331 -4.2268 -0.7240 -0.8719
  876MOL0     H15620   9.652   8.082   3.462  0.5923 -1.3925 -0.1666
  876MOL0     H15621   9.751   8.158   3.666  1.5967 -1.2208 -2.2484
  876MOL0     H15622   9.822   7.853   3.989  0.5034 -0.0532  0.3735
  876MOL0     H15623   9.669   7.915   4.043  0.1749  0.4425  0.7772
  876MOL0     H15624   9.843   7.932   4.219 -0.1876  0.0396 -1.1717
  876MOL0     H15625   9.928   8.049   4.112 -0.2741  1.2767 -1.0685
  876MOL0     H15626   9.637   8.103   4.212 -1.4156  2.1622  0.2211
  876MOL0     H15627   9.754   8.206   4.135  1.3711  1.0526  2.6286
  876MOL0     H15628   9.737   8.243   4.384 -1.1109 -0.2832 -2.0006
  876MOL0     H15629   9.821   8.083   4.414  1.0856 -2.6139 -4.8933
  876MOL0     H15630  10.128   8.347   4.275 -0.1809  0.2226  1.0450
  876MOL0     H15631   9.597   7.818   3.866  0.9005 -0.2304 -0.5417
  876MOL0     H15632   9.486   7.755   3.661  2.6219 -1.3020 -1.3758
  877MOL0     O15633   6.959   9.965   6.930  0.9370 -0.2251 -0.2989
  877MOL0     C15634   6.860   9.937   7.006 -0.2350 -0.0587 -0.4099
  877MOL0     O15635   6.744   9.877   6.964 -0.1836  0.4937 -0.8100
  877MOL0     C15636   6.711   9.860   6.831  0.6285 -1.0802 -0.7217
  877MOL0     C15637   6.626   9.754   6.812  0.5194 -0.4376  0.4951
  877MOL0     C15638   6.561   9.734   6.692 -1.2096 -0.5281 -0.2841
  877MOL0     C15639   6.579   9.823   6.580 -0.7684  0.4231  0.2896
  877MOL0     O15640   6.515   9.823   6.461  0.1521 -0.4271 -0.5081
  877MOL0     C15641   6.412   9.725   6.433 -0.2826 -0.0791 -0.6895
  877MOL0     C15642   6.355   9.777   6.297 -0.3388  0.6981 -1.0823
  877MOL0     C15643   6.223   9.720   6.260 -0.4078  0.5006  0.6261
  877MOL0     C15644   6.190   9.770   6.120 -0.1223  1.1533  0.1696
  877MOL0     C15645   6.033   9.744   6.109 -0.3763 -0.2366  0.8328
  877MOL0     C15646   5.991   9.770   5.961 -0.1803  0.4104 -0.1486
  877MOL0     C15647   6.013   9.913   5.916  0.1102  0.0283  0.5835
  877MOL0     C15648   5.916   9.952   5.806  0.2698 -0.4027  0.4018
  877MOL0     N15649   5.775   9.974   5.853 -0.4039  0.3103 -0.3311
  877MOL0     C15650   5.736  10.059   5.955  0.1334 -0.1227 -0.9047
  877MOL0     C15651   5.604  10.026   5.969 -0.7666  0.3759 -0.0004
  877MOL0     C15652   5.504  10.101   6.055  0.4830  0.1534 -0.5445
  877MOL0     C15653   5.467  10.021   6.178  0.2640  0.1467  0.5106
  877MOL0     C15654   5.591   9.999   6.269 -0.2023  0.0193 -0.0738
  877MOL0     C15655   5.576  10.051   6.411 -0.0381 -0.0108  0.4177
  877MOL0     O15656   5.706  10.073   6.465 -0.3149  0.7738  0.0594
  877MOL0     C15657   5.717  10.087   6.595 -0.0159  0.5632 -0.2608
  877MOL0     C15658   5.618  10.158   6.671  0.3690 -1.0026  0.2143
  877MOL0     C15659   5.641  10.199   6.805  0.2097  0.2080  0.9099
  877MOL0     C15660   5.763  10.162   6.867  0.5956 -0.2553 -0.2247
  877MOL0     C15661   5.792  10.206   7.006  0.2499 -0.4121  0.2653
  877MOL0     O15662   5.917  10.174   7.048 -0.2539  0.8670  0.8449
  877MOL0     C15663   5.961  10.196   7.178  1.1095  0.6911  0.1434
  877MOL0     C15664   6.015  10.078   7.223 -0.6013 -0.6010 -0.4358
  877MOL0     C15665   6.051  10.059   7.357 -0.1935  0.4317  0.6441
  877MOL0     C15666   6.033  10.171   7.439 -1.0409  0.4599 -0.7124
  877MOL0     O15667   6.060  10.151   7.573 -0.0707  0.2638  0.4511
  877MOL0     C15668   5.946  10.132   7.659  0.4331 -0.6297  0.2348
  877MOL0     C15669   5.946  10.240   7.769  0.0886 -0.4329  0.4578
  877MOL0     C15670   5.830  10.215   7.869  0.3959 -0.0949  0.3777
  877MOL0     C15671   5.857  10.136   7.992 -0.8525  0.1604 -0.6781
  877MOL0     C15672   5.943  10.206   8.098  0.1697 -0.7124  0.6049
  877MOL0     C15673   5.990  10.117   8.212  0.0108 -0.5638  0.1498
  877MOL0     C15674   6.083  10.203   8.308  0.6806  1.1656  0.0118
  877MOL0     C15675   6.142  10.107   8.404  0.0583  0.5512  0.1452
  877MOL0    Cl15676   6.018  10.000   8.477 -0.1035 -0.2197  0.0310
  877MOL0     C15677   5.978  10.294   7.397  0.1861  0.7416 -0.3208
  877MOL0     C15678   5.931  10.306   7.259 -1.1028  0.2262 -0.3638
  877MOL0     O15679   5.720  10.285   7.066  1.3026  0.7528 -0.4083
  877MOL0     C15680   5.859  10.091   6.795 -0.6308  0.1175 -0.0514
  877MOL0     C15681   5.832  10.047   6.666 -0.1137 -0.7707  0.8258
  877MOL0     N15682   5.564   9.947   5.857 -0.4764  0.1678 -0.1607
  877MOL0     N15683   5.666   9.919   5.788  0.1244 -0.6196 -0.1073
  877MOL0     C15684   6.686   9.907   6.596 -0.2822 -0.4114 -0.1077
  877MOL0     C15685   6.755   9.927   6.717 -0.4049 -0.0403  0.3114
  877MOL0     C15686   6.878   9.947   7.157 -0.7173  0.4163  0.5768
  877MOL0     C15687   6.987  10.018   7.218  0.6998  0.7833 -0.3725
  877MOL0     C15688   7.011  10.013   7.358  0.5935  0.1207 -0.4379
  877MOL0     C15689   6.921   9.936   7.440  0.2654 -0.8285 -0.2956
  877MOL0     O15690   6.931   9.932   7.581 -0.1635  0.4008  0.1502
  877MOL0     C15691   7.001  10.033   7.665 -0.5058  0.2084 -0.9823
  877MOL0     C15692   7.079   9.972   7.780  0.1570  0.7102 -0.9425
  877MOL0     C15693   7.158   9.842   7.755  0.1640 -0.2521 -0.7052
  877MOL0     C15694   7.275   9.861   7.660  0.1665  0.7024  0.8887
  877MOL0     C15695   7.388   9.766   7.680  0.5209  0.9533 -0.6529
  877MOL0     C15696   7.472   9.698   7.706 -0.3498  0.5379 -0.5026
  877MOL0     C15697   6.805   9.890   7.380 -0.3877 -0.2381  0.1791
  877MOL0     C15698   6.783   9.891   7.240 -0.2111 -0.0762  0.0707
  877MOL0     H15699   6.599   9.693   6.898 -0.3113 -1.2712 -0.3302
  877MOL0     H15700   6.479   9.664   6.681 -0.3430 -1.7094  0.5795
  877MOL0     H15701   6.342   9.730   6.517 -1.2194  2.2433 -1.5304
  877MOL0     H15702   6.451   9.625   6.415  0.1987  0.1143 -0.7353
  877MOL0     H15703   6.427   9.747   6.220  0.6030  1.5787 -0.5699
  877MOL0     H15704   6.350   9.886   6.308  0.2756  0.4956  2.2264
  877MOL0     H15705   6.141   9.745   6.327 -2.1094  0.7702 -1.4346
  877MOL0     H15706   6.235   9.611   6.258  1.8106  0.6985  0.2857
  877MOL0     H15707   6.226   9.873   6.117  0.8021  0.8613  0.8423
  877MOL0     H15708   6.243   9.708   6.047 -0.8742 -1.0439  1.3789
  877MOL0     H15709   5.969   9.804   6.174 -0.2674 -1.3170  1.9802
  877MOL0     H15710   6.011   9.644   6.147 -1.2795  0.3017  1.7949
  877MOL0     H15711   5.884   9.746   5.955 -1.0159  3.6158 -0.3138
  877MOL0     H15712   6.052   9.708   5.895 -0.8900  1.5241 -1.9368
  877MOL0     H15713   6.013   9.986   5.997  1.9676  3.4351 -2.2293
  877MOL0     H15714   6.113   9.924   5.873 -0.3289 -1.4621 -0.9311
  877MOL0     H15715   5.921   9.882   5.723 -0.7437  2.6276 -2.4301
  877MOL0     H15716   5.957  10.044   5.762  0.8212 -0.2058  1.2917
  877MOL0     H15717   5.807  10.116   6.013 -1.0874  0.2384  0.2763
  877MOL0     H15718   5.407  10.120   6.009 -0.5005  3.0574  2.3422
  877MOL0     H15719   5.544  10.197   6.089 -0.8659  0.4522  0.2418
  877MOL0     H15720   5.407   9.934   6.150 -2.7894  2.4400 -0.5230
  877MOL0     H15721   5.403  10.088   6.237  1.2773  1.7472 -0.1408
  877MOL0     H15722   5.618   9.894   6.282 -1.5616 -0.7358 -2.4951
  877MOL0     H15723   5.679  10.049   6.230  1.3397 -1.7473  0.9889
  877MOL0     H15724   5.537   9.968   6.471  1.1878 -1.3354 -0.5733
  877MOL0     H15725   5.522  10.146   6.404  1.5208  0.8018 -1.6918
  877MOL0     H15726   5.535  10.204   6.618 -0.8360  0.1127  2.9008
  877MOL0     H15727   5.559  10.255   6.849  0.6530  1.5021  0.1695
  877MOL0     H15728   6.044  10.007   7.146  0.8005  1.1488 -1.6046
  877MOL0     H15729   6.096   9.963   7.380  1.7877  1.9319  3.6249
  877MOL0     H15730   5.949  10.031   7.700 -0.0092 -0.9531 -0.5022
  877MOL0     H15731   5.853  10.143   7.602  0.7475  2.1261  0.1196
  877MOL0     H15732   5.939  10.339   7.722 -1.2556 -1.0940 -0.7677
  877MOL0     H15733   6.038  10.250   7.828 -0.3873  3.0393  0.8715
  877MOL0     H15734   5.754  10.174   7.801 -0.1909  1.2802  0.1606
  877MOL0     H15735   5.801  10.319   7.890 -2.0397 -0.4379 -0.9379
  877MOL0     H15736   5.763  10.105   8.039 -1.3260  0.5698 -1.3444
  877MOL0     H15737   5.919  10.052   7.958  0.5038  1.2524 -1.0164
  877MOL0     H15738   5.891  10.292   8.141  1.8280  1.6792 -1.8342
  877MOL0     H15739   6.032  10.249   8.050 -0.3449 -0.4100 -0.0913
  877MOL0     H15740   6.045  10.031   8.171  3.2748  1.4380  0.0117
  877MOL0     H15741   5.904  10.093   8.274  2.3572 -1.5548  3.2933
  877MOL0     H15742   6.164  10.248   8.249 -0.4274  1.7937 -1.0606
  877MOL0     H15743   6.018  10.267   8.367 -5.0679 -0.9069 -3.2946
  877MOL0     H15744   6.196  10.165   8.479  3.0801  1.5774 -2.5982
  877MOL0     H15745   6.214  10.041   8.356  1.8308 -0.8036  4.1715
  877MOL0     H15746   5.958  10.376   7.466  1.4996  0.8641 -0.0722
  877MOL0     H15747   5.889  10.393   7.212 -4.0972  0.0390  1.6651
  877MOL0     H15748   5.945  10.051   6.846  1.4333  3.7471 -0.3569
  877MOL0     H15749   5.903   9.996   6.602 -0.2819  2.5514 -2.3488
  877MOL0     H15750   6.724   9.963   6.511 -1.7803  4.0303  1.8647
  877MOL0     H15751   6.832  10.003   6.723  3.7931 -3.4425 -3.5070
  877MOL0     H15752   7.067  10.073   7.169 -0.4781  2.5047 -0.4534
  877MOL0     H15753   7.094  10.068   7.399  0.2740  1.7772 -1.8893
  877MOL0     H15754   6.934  10.111   7.700 -0.2281 -0.7708  2.0677
  877MOL0     H15755   7.081  10.079   7.606  1.1722  0.7946  1.5720
  877MOL0     H15756   7.142  10.053   7.818 -2.7363  3.6089 -1.8007
  877MOL0     H15757   7.009   9.948   7.861 -1.1918  0.6260 -2.0953
  877MOL0     H15758   7.082   9.770   7.722 -1.3974  0.0234  2.0308
  877MOL0     H15759   7.200   9.811   7.851 -0.3766 -0.9011 -0.6683
  877MOL0     H15760   7.232   9.857   7.559  0.7800 -1.8787  0.6531
  877MOL0     H15761   7.327   9.957   7.664 -0.0337  1.1051 -2.7811
  877MOL0     H15762   7.547   9.622   7.718  0.6007  1.3190 -1.3252
  877MOL0     H15763   6.725   9.850   7.441 -1.3959  0.3378 -0.7343
  877MOL0     H15764   6.701   9.841   7.191  0.8855 -1.6060 -0.2627
  878MOL0     O15765   6.827  11.018   8.391  0.7133  0.3927  0.2304
  878MOL0     C15766   6.765  10.912   8.423 -0.4012  0.1271  0.2299
  878MOL0     O15767   6.714  10.820   8.341  0.1334  0.2849 -0.9707
  878MOL0     C15768   6.646  10.859   8.234  0.5606 -0.7909  0.3124
  878MOL0     C15769   6.625  10.762   8.132  0.2313 -0.5793  0.0172
  878MOL0     C15770   6.566  10.803   8.013  0.7717 -0.5759  0.8572
  878MOL0     C15771   6.500  10.928   7.995 -0.1759 -0.1986  0.4583
  878MOL0     O15772   6.409  10.937   7.894  0.1182 -0.2082  0.8169
  878MOL0     C15773   6.436  11.053   7.814  0.4887 -0.0387  0.0767
  878MOL0     C15774   6.364  11.043   7.685  0.2852 -0.2934 -0.6175
  878MOL0     C15775   6.213  11.070   7.698  0.7910  0.6254 -0.0174
  878MOL0     C15776   6.142  11.055   7.562 -0.7972 -1.0440  0.1719
  878MOL0     C15777   5.990  11.094   7.582 -1.2970  0.0894  0.8066
  878MOL0     C15778   5.919  11.084   7.448 -0.6364  1.6461  1.0643
  878MOL0     C15779   5.775  11.105   7.450 -0.1262  0.6324 -0.0652
  878MOL0     C15780   5.712  11.152   7.329  0.2437 -0.6959  0.6452
  878MOL0     N15781   5.568  11.179   7.361  0.5694 -0.2562 -0.1080
  878MOL0     C15782   5.462  11.096   7.339  0.6757  0.3130  0.8024
  878MOL0     C15783   5.357  11.165   7.396 -0.5514 -0.3472  0.0684
  878MOL0     C15784   5.230  11.110   7.426  0.6924  0.2369 -0.2446
  878MOL0     C15785   5.177  11.102   7.569  0.0328 -0.2396 -0.2722
  878MOL0     C15786   5.101  10.968   7.585  0.8259  0.3276 -0.3122
  878MOL0     C15787   5.014  10.956   7.716  0.4146  0.3896  1.0936
  878MOL0     O15788   4.925  10.843   7.732 -0.0450 -0.9022 -0.5039
  878MOL0     C15789   4.881  10.808   7.861 -0.1668  0.2863 -0.3512
  878MOL0     C15790   4.800  10.700   7.875  0.5346 -1.0218 -0.0213
  878MOL0     C15791   4.729  10.682   7.989  0.6524  0.4670  0.1139
  878MOL0     C15792   4.754  10.758   8.105 -0.4543  0.2801 -0.0540
  878MOL0     C15793   4.689  10.728   8.241 -0.9031  0.5692 -0.0547
  878MOL0     O15794   4.741  10.788   8.347 -0.8114 -0.7437  0.1229
  878MOL0     C15795   4.679  10.750   8.467  0.5211 -0.3607  0.9391
  878MOL0     C15796   4.689  10.622   8.519  0.1884  0.5848  0.4485
  878MOL0     C15797   4.637  10.594   8.651  0.6751  0.8568 -0.6355
  878MOL0     C15798   4.589  10.690   8.725 -0.1406 -0.6623 -0.7635
  878MOL0     O15799   4.556  10.664   8.848 -0.1543 -0.0443 -0.0603
  878MOL0     C15800   4.413  10.678   8.871  0.2739 -0.4557 -0.7770
  878MOL0     C15801   4.375  10.640   9.014 -0.1945 -0.7044  0.1283
  878MOL0     C15802   4.301  10.513   9.047 -0.4614 -0.3072 -1.0381
  878MOL0     C15803   4.273  10.496   9.197 -0.4198 -0.1897  0.4722
  878MOL0     C15804   4.194  10.374   9.236  0.7342  0.1360  0.4817
  878MOL0     C15805   4.152  10.387   9.382  0.3576 -0.6116  0.5114
  878MOL0     C15806   4.255  10.419   9.488  0.6218 -0.0622 -0.7436
  878MOL0     C15807   4.225  10.369   9.633  0.1467  0.6986  0.2252
  878MOL0    Cl15808   4.340  10.432   9.754  0.1350  0.2597  0.1006
  878MOL0     C15809   4.584  10.824   8.671  0.1539  0.8057 -0.6466
  878MOL0     C15810   4.644  10.851   8.552 -0.2481  0.1722 -0.6952
  878MOL0     O15811   4.593  10.643   8.241 -0.0686  0.1132  0.2264
  878MOL0     C15812   4.858  10.857   8.094 -0.5396 -0.5590  0.3466
  878MOL0     C15813   4.911  10.893   7.972  0.1464 -0.3415  0.7742
  878MOL0     N15814   5.403  11.291   7.436 -0.8330  0.4590  0.0352
  878MOL0     N15815   5.532  11.295   7.412  0.0829  0.1515 -0.4493
  878MOL0     C15816   6.517  11.018   8.100  0.1167 -0.3058  0.2164
  878MOL0     C15817   6.598  10.986   8.210  0.6386  0.6833 -0.7305
  878MOL0     C15818   6.744  10.897   8.567  0.3173 -0.3081 -0.4372
  878MOL0     C15819   6.762  11.015   8.654 -0.2714  1.3866  0.1506
  878MOL0     C15820   6.724  11.007   8.787 -0.0052  0.0648 -0.6463
  878MOL0     C15821   6.661  10.891   8.836 -0.4881  0.3952 -0.8115
  878MOL0     O15822   6.634  10.903   8.970 -0.3333  0.1597 -0.0593
  878MOL0     C15823   6.540  10.810   9.025 -0.3485  0.2191  0.6259
  878MOL0     C15824   6.570  10.803   9.178 -0.4833 -0.8473  0.4372
  878MOL0     C15825   6.699  10.717   9.188 -0.1553 -0.3307 -0.8220
  878MOL0     C15826   6.717  10.698   9.336  0.4502 -0.1333 -0.3284
  878MOL0     C15827   6.853  10.665   9.378  0.4941 -0.1541  0.4095
  878MOL0     C15828   6.957  10.612   9.413  0.0056  0.3719 -0.5766
  878MOL0     C15829   6.641  10.783   8.748  0.0265  0.3433  0.4163
  878MOL0     C15830   6.677  10.783   8.620  0.8465  0.1994 -0.7093
  878MOL0     H15831   6.659  10.660   8.146 -1.5058 -1.1247  0.4794
  878MOL0     H15832   6.555  10.741   7.924 -2.7193 -1.8491  1.9877
  878MOL0     H15833   6.542  11.058   7.784  0.4393  0.9450  0.0515
  878MOL0     H15834   6.406  11.145   7.864 -4.9948 -0.6892 -1.4296
  878MOL0     H15835   6.383  10.945   7.642  0.2956 -0.3874 -0.4002
  878MOL0     H15836   6.401  11.122   7.619 -2.1477  2.5923  1.1638
  878MOL0     H15837   6.199  11.170   7.740 -0.8024  0.5244 -0.2496
  878MOL0     H15838   6.169  10.985   7.750  1.3260 -0.5458 -1.4449
  878MOL0     H15839   6.181  11.138   7.502 -0.5293  1.2687  3.3368
  878MOL0     H15840   6.166  10.960   7.513 -0.2863 -2.1524  2.4677
  878MOL0     H15841   5.988  11.197   7.617 -0.8281  0.6968 -0.8848
  878MOL0     H15842   5.936  11.024   7.647  0.3542 -1.1682  0.9009
  878MOL0     H15843   5.919  10.981   7.412 -4.0880  1.3148  1.6683
  878MOL0     H15844   5.963  11.156   7.378 -2.7369 -0.9334 -3.3174
  878MOL0     H15845   5.715  11.013   7.461 -0.4588  0.7323 -1.0002
  878MOL0     H15846   5.747  11.155   7.543 -0.8109  1.4334 -0.6925
  878MOL0     H15847   5.713  11.086   7.242 -0.0251  0.5260 -0.3219
  878MOL0     H15848   5.758  11.243   7.289 -2.9032  0.1365 -1.4513
  878MOL0     H15849   5.474  11.005   7.281 -0.3603  0.5720  0.1677
  878MOL0     H15850   5.242  11.004   7.402  1.1784 -0.3525  2.2646
  878MOL0     H15851   5.154  11.154   7.361 -1.1296 -0.2597  1.4348
  878MOL0     H15852   5.106  11.181   7.594 -0.8003 -0.5235 -1.5969
  878MOL0     H15853   5.257  11.109   7.643  1.0013 -0.2322 -1.2944
  878MOL0     H15854   5.041  10.952   7.495  1.3875  3.0242 -1.2855
  878MOL0     H15855   5.178  10.890   7.586  0.6671  0.1633 -0.6393
  878MOL0     H15856   4.961  11.051   7.724 -0.7074  0.1263 -1.9075
  878MOL0     H15857   5.086  10.953   7.799  3.7243 -0.1099 -1.5352
  878MOL0     H15858   4.773  10.653   7.781  0.4780  1.8144 -1.5527
  878MOL0     H15859   4.645  10.614   7.974  0.1654  1.2057 -0.5734
  878MOL0     H15860   4.737  10.538   8.470 -1.3011  0.0499 -0.1578
  878MOL0     H15861   4.648  10.497   8.698 -2.0229  0.5597 -0.4571
  878MOL0     H15862   4.370  10.610   8.796  2.1441 -2.8660  0.2063
  878MOL0     H15863   4.384  10.783   8.863  3.0134  0.7594  2.8136
  878MOL0     H15864   4.318  10.727   9.048  2.0235  0.8611  0.0754
  878MOL0     H15865   4.471  10.641   9.067 -0.3410 -3.0532  0.5302
  878MOL0     H15866   4.365  10.427   9.023 -1.5083 -1.8960  1.5092
  878MOL0     H15867   4.202  10.522   9.002  0.0949 -0.3384 -2.3150
  878MOL0     H15868   4.363  10.507   9.258 -0.6240  2.0154  0.4651
  878MOL0     H15869   4.219  10.587   9.224  2.5170  1.5304  1.0624
  878MOL0     H15870   4.262  10.289   9.241 -1.0299 -1.3811 -0.0981
  878MOL0     H15871   4.113  10.349   9.166 -0.4469 -2.0995  2.4903
  878MOL0     H15872   4.113  10.288   9.404  0.8699 -0.2842  3.1285
  878MOL0     H15873   4.066  10.454   9.389 -1.0078 -2.2447 -0.0407
  878MOL0     H15874   4.343  10.369   9.447  1.2165  0.2363  0.1513
  878MOL0     H15875   4.254  10.528   9.478 -2.5705 -0.1074 -2.5453
  878MOL0     H15876   4.233  10.260   9.625 -1.4904  0.5295  0.5002
  878MOL0     H15877   4.124  10.387   9.670  0.3569  0.5640  0.8661
  878MOL0     H15878   4.547  10.904   8.735  1.4664 -0.9411  2.5418
  878MOL0     H15879   4.649  10.956   8.524 -2.8459  0.5997  0.0949
  878MOL0     H15880   4.890  10.912   8.182  3.1410 -2.9909  0.7409
  878MOL0     H15881   4.976  10.979   7.961 -1.0127  0.2600 -2.6667
  878MOL0     H15882   6.472  11.117   8.095 -1.6221 -1.1319 -1.5621
  878MOL0     H15883   6.606  11.060   8.289  2.6677 -2.2636  2.0795
  878MOL0     H15884   6.799  11.108   8.613 -0.2706  1.8711  1.2097
  878MOL0     H15885   6.732  11.086   8.862 -1.1288 -0.1388 -0.2954
  878MOL0     H15886   6.555  10.709   8.985 -1.5287  0.8305 -1.5050
  878MOL0     H15887   6.439  10.849   9.009 -0.1560  1.0687  1.4126
  878MOL0     H15888   6.596  10.901   9.218 -0.5682  0.6126 -2.7756
  878MOL0     H15889   6.490  10.750   9.229 -1.4959  0.3114  0.1007
  878MOL0     H15890   6.782  10.779   9.151  0.2120  0.7704  1.6647
  878MOL0     H15891   6.697  10.620   9.138  1.5186 -1.3082  0.8711
  878MOL0     H15892   6.691  10.784   9.397 -0.0027 -0.7155  0.3183
  878MOL0     H15893   6.656  10.612   9.367  0.3014 -0.7723 -2.2062
  878MOL0     H15894   7.056  10.577   9.436  0.4677  1.6383 -0.6024
  878MOL0     H15895   6.595  10.688   8.770 -2.3217  1.1638 -0.5950
  878MOL0     H15896   6.649  10.695   8.563 -0.6706 -0.3026  0.7561
  879MOL0     O15897   4.620   5.234   7.154  0.7497  0.0400 -0.6969
  879MOL0     C15898   4.510   5.238   7.098 -0.2793 -1.0121 -0.1352
  879MOL0     O15899   4.496   5.248   6.964 -0.2182 -0.0944 -0.1985
  879MOL0     C15900   4.609   5.289   6.885  0.5590 -0.1643  0.3053
  879MOL0     C15901   4.696   5.400   6.926  0.6789 -0.6486 -0.2669
  879MOL0     C15902   4.800   5.437   6.835  0.8177 -0.0752  0.0927
  879MOL0     C15903   4.820   5.378   6.722 -0.0989  1.4124 -0.5981
  879MOL0     O15904   4.920   5.434   6.641 -0.1817  0.6729  0.0757
  879MOL0     C15905   4.930   5.410   6.506 -1.1537 -0.0065 -0.0903
  879MOL0     C15906   4.831   5.491   6.427 -0.6871 -0.4185 -0.0384
  879MOL0     C15907   4.849   5.494   6.271 -0.4918 -0.4434  0.3283
  879MOL0     C15908   4.842   5.353   6.216 -0.0329  0.1883 -0.4175
  879MOL0     C15909   4.820   5.347   6.062 -0.4143  0.0733  0.0162
  879MOL0     C15910   4.858   5.209   6.004 -0.8132  0.2891  0.0058
  879MOL0     C15911   4.830   5.197   5.855 -0.8411 -0.6153  0.2336
  879MOL0     C15912   4.931   5.274   5.769 -0.3373  0.0091 -0.6406
  879MOL0     N15913   4.911   5.244   5.631 -0.7060 -1.3834  0.1919
  879MOL0     C15914   4.992   5.166   5.552 -0.4656  0.0643 -0.2080
  879MOL0     C15915   4.943   5.186   5.426 -0.3277 -0.2905  0.5621
  879MOL0     C15916   4.968   5.097   5.310  0.0490 -0.1025 -0.1188
  879MOL0     C15917   5.120   5.102   5.270  0.0614  0.6822  1.1851
  879MOL0     C15918   5.163   5.229   5.192  0.0202  0.3515 -0.0382
  879MOL0     C15919   5.079   5.258   5.068 -0.6001 -0.8325  0.2662
  879MOL0     O15920   5.143   5.186   4.966 -0.5155 -0.1294 -1.1310
  879MOL0     C15921   5.084   5.190   4.844  0.0793 -1.0041 -1.0499
  879MOL0     C15922   5.162   5.134   4.744 -0.4683  0.3925  0.2614
  879MOL0     C15923   5.124   5.134   4.613  1.4697  0.1332 -0.1248
  879MOL0     C15924   5.009   5.215   4.581 -0.4109  1.0253  0.0245
  879MOL0     C15925   4.963   5.240   4.441 -0.1951  0.7997 -0.9099
  879MOL0     O15926   5.041   5.163   4.358  1.5646 -0.2441 -0.0565
  879MOL0     C15927   5.041   5.182   4.223 -0.2195 -0.8479 -0.4139
  879MOL0     C15928   4.933   5.167   4.132  0.2478  0.2451  0.6178
  879MOL0     C15929   4.957   5.197   3.990  0.4896 -0.7002 -0.1163
  879MOL0     C15930   5.085   5.244   3.947  1.0806  0.4270  0.8872
  879MOL0     O15931   5.102   5.274   3.816  0.6066 -0.0544 -0.4850
  879MOL0     C15932   5.217   5.360   3.778 -0.7395  0.8655 -0.5427
  879MOL0     C15933   5.198   5.432   3.633  0.0013  0.3144 -0.7909
  879MOL0     C15934   5.056   5.476   3.607  0.0210 -0.6234 -0.1223
  879MOL0     C15935   5.007   5.581   3.709 -0.0891 -0.3318  0.3155
  879MOL0     C15936   4.880   5.650   3.653  0.2551 -0.4883  0.0566
  879MOL0     C15937   4.805   5.749   3.750  0.5811  0.0084 -0.2743
  879MOL0     C15938   4.689   5.817   3.687 -0.2459 -0.1959  0.2227
  879MOL0     C15939   4.622   5.905   3.788  1.0052  0.4862  0.6138
  879MOL0    Cl15940   4.470   5.962   3.709 -0.0914 -0.2966 -0.6494
  879MOL0     C15941   5.188   5.249   4.041  0.3473 -0.0279  0.2201
  879MOL0     C15942   5.164   5.226   4.171  0.6772  1.0951 -0.1666
  879MOL0     O15943   4.886   5.327   4.410 -0.2518  0.5211 -0.7268
  879MOL0     C15944   4.933   5.276   4.676 -0.2762  0.1003 -0.2315
  879MOL0     C15945   4.971   5.267   4.811 -0.0319 -0.4275  0.5540
  879MOL0     N15946   4.836   5.272   5.428 -0.1294 -0.4141  0.4371
  879MOL0     N15947   4.816   5.303   5.553  0.4401  0.0183  0.7310
  879MOL0     C15948   4.745   5.259   6.684 -0.9916  0.9461  0.0164
  879MOL0     C15949   4.639   5.216   6.761 -1.1035 -0.0587 -0.3481
  879MOL0     C15950   4.380   5.229   7.186 -0.8815  0.5802  0.3093
  879MOL0     C15951   4.254   5.228   7.129 -0.4799 -0.0870  0.6189
  879MOL0     C15952   4.143   5.201   7.210 -0.0027 -0.2724 -0.3082
  879MOL0     C15953   4.150   5.200   7.355  0.1623 -0.1362 -0.1042
  879MOL0     O15954   4.027   5.197   7.417 -0.6246 -0.6551 -0.3326
  879MOL0     C15955   4.023   5.208   7.560 -0.1391 -0.7326  0.1248
  879MOL0     C15956   3.880   5.197   7.620  0.5053 -0.3113 -0.7224
  879MOL0     C15957   3.875   5.159   7.766  0.5022  0.9769 -0.3854
  879MOL0     C15958   3.937   5.258   7.868  0.3160 -0.8686 -0.1122
  879MOL0     C15959   4.079   5.245   7.867 -0.4438  0.1626 -0.3052
  879MOL0     C15960   4.203   5.235   7.867 -0.1661  0.3150  0.6121
  879MOL0     C15961   4.278   5.221   7.407 -0.2539 -0.1005 -0.2736
  879MOL0     C15962   4.392   5.229   7.327  0.2166 -0.5031 -0.8858
  879MOL0     H15963   4.682   5.448   7.023  0.9471 -2.1872  0.5640
  879MOL0     H15964   4.856   5.529   6.853  1.8818  0.3822 -4.4121
  879MOL0     H15965   4.922   5.305   6.479  0.4770  0.6191 -3.5305
  879MOL0     H15966   5.028   5.441   6.468  0.9643  0.2080  4.7892
  879MOL0     H15967   4.828   5.596   6.455 -4.2061  0.0353 -1.5605
  879MOL0     H15968   4.728   5.456   6.441 -2.4597  4.0804 -0.2351
  879MOL0     H15969   4.946   5.539   6.247  0.1465 -2.1440 -0.4534
  879MOL0     H15970   4.760   5.541   6.229  0.5328  0.9485 -0.3395
  879MOL0     H15971   4.939   5.315   6.250  1.5518  2.6578 -1.7614
  879MOL0     H15972   4.768   5.292   6.267 -0.1277  1.1204  0.5970
  879MOL0     H15973   4.896   5.413   6.018  4.4546 -1.5554  4.9020
  879MOL0     H15974   4.715   5.373   6.044 -1.2870 -2.7993  0.4308
  879MOL0     H15975   4.806   5.130   6.059 -1.8582 -0.0044 -1.3482
  879MOL0     H15976   4.965   5.194   6.021 -0.5999  0.3132 -1.1937
  879MOL0     H15977   4.830   5.092   5.823  0.1302 -0.8602  1.0080
  879MOL0     H15978   4.731   5.236   5.828 -0.3539  0.9336  0.6105
  879MOL0     H15979   5.034   5.246   5.793 -0.3352 -0.4254 -1.1321
  879MOL0     H15980   4.913   5.381   5.777  2.5547  0.4924  0.5591
  879MOL0     H15981   5.054   5.082   5.582 -1.6842 -0.1591  1.8839
  879MOL0     H15982   4.911   5.134   5.224 -1.2776  1.5188  1.3855
  879MOL0     H15983   4.935   4.994   5.327 -2.9261  0.8110  0.2110
  879MOL0     H15984   5.142   5.009   5.215 -0.5513 -0.2271  2.4248
  879MOL0     H15985   5.183   5.081   5.357 -1.6643 -4.2222  1.5800
  879MOL0     H15986   5.171   5.316   5.257 -4.3086  1.7292 -1.0419
  879MOL0     H15987   5.272   5.227   5.177 -0.0393  0.0534 -0.4605
  879MOL0     H15988   5.087   5.363   5.039  4.2002 -0.6334  1.4798
  879MOL0     H15989   4.973   5.230   5.073 -0.6335 -0.8170 -0.2431
  879MOL0     H15990   5.244   5.069   4.773 -1.7108 -0.5308  1.9034
  879MOL0     H15991   5.190   5.100   4.534  3.8426  3.7810  0.0265
  879MOL0     H15992   4.832   5.142   4.162 -0.2707 -0.6512 -1.6199
  879MOL0     H15993   4.875   5.192   3.919 -1.7318 -3.5574  2.4095
  879MOL0     H15994   5.306   5.297   3.780 -1.3920 -0.0562  1.0607
  879MOL0     H15995   5.231   5.428   3.863  0.9886 -0.5967  0.4104
  879MOL0     H15996   5.234   5.363   3.556 -2.3253 -1.1605 -0.6657
  879MOL0     H15997   5.254   5.524   3.617  0.5057 -0.4423 -4.2074
  879MOL0     H15998   4.986   5.395   3.628 -0.9317  0.4394  0.9128
  879MOL0     H15999   5.034   5.524   3.511 -0.3237  3.0182  1.6313
  879MOL0     H16000   4.984   5.546   3.810  1.3679  3.1443  1.9945
  879MOL0     H16001   5.090   5.652   3.707  1.4529 -2.0117  0.8261
  879MOL0     H16002   4.803   5.579   3.619  0.0121 -0.1822 -0.0379
  879MOL0     H16003   4.897   5.707   3.562 -1.6315  1.2108  0.6982
  879MOL0     H16004   4.874   5.832   3.767 -0.5971  0.4973  3.0210
  879MOL0     H16005   4.785   5.707   3.849  1.7131 -1.2601 -0.5526
  879MOL0     H16006   4.717   5.881   3.602  0.3529 -1.1922 -0.3600
  879MOL0     H16007   4.622   5.737   3.653  1.0244 -0.2732 -2.4001
  879MOL0     H16008   4.686   5.991   3.813  0.9400  1.1287 -1.2569
  879MOL0     H16009   4.593   5.859   3.882 -1.5339  2.6167  1.0022
  879MOL0     H16010   5.290   5.268   4.006  0.0022  0.1192 -0.7408
  879MOL0     H16011   5.244   5.232   4.245 -1.0395 -1.1994  2.0085
  879MOL0     H16012   4.854   5.345   4.646 -1.8055 -1.7088 -0.5559
  879MOL0     H16013   4.905   5.316   4.882 -0.3708 -0.3910  0.2240
  879MOL0     H16014   4.763   5.195   6.598  0.5206  0.1687  0.8700
  879MOL0     H16015   4.574   5.132   6.739  1.5661 -2.0643 -1.0516
  879MOL0     H16016   4.251   5.227   7.020 -1.7934  2.8669  0.5190
  879MOL0     H16017   4.049   5.194   7.156  0.1227  3.3101 -1.2263
  879MOL0     H16018   4.053   5.312   7.576  1.4436 -0.6061 -2.9109
  879MOL0     H16019   4.085   5.135   7.613  0.9334  1.7139  2.4502
  879MOL0     H16020   3.844   5.299   7.603  4.3856  2.1262  3.6260
  879MOL0     H16021   3.824   5.124   7.561 -0.4731  0.3791 -0.6767
  879MOL0     H16022   3.919   5.060   7.777 -3.2661 -0.7890  0.2712
  879MOL0     H16023   3.768   5.147   7.786  0.3475 -0.7502 -2.0635
  879MOL0     H16024   3.900   5.361   7.864  2.8447  0.2095  1.8986
  879MOL0     H16025   3.899   5.219   7.963 -2.7225  0.0305 -0.8227
  879MOL0     H16026   4.307   5.221   7.848 -0.7169 -2.7886 -0.7509
  879MOL0     H16027   4.285   5.223   7.515 -1.2534  1.1264 -0.2235
  879MOL0     H16028   4.479   5.229   7.391  0.6397  2.1459 -1.3723
  880MOL0     O16029   8.717  10.050   3.733 -0.8266 -0.8295  0.2039
  880MOL0     C16030   8.678  10.087   3.626  1.1718  0.2531  1.0442
  880MOL0     O16031   8.584  10.184   3.609  0.4124  0.6669  0.2748
  880MOL0     C16032   8.534  10.230   3.725 -1.1508  0.9655 -0.7818
  880MOL0     C16033   8.432  10.169   3.793  1.2988  0.6899 -0.5809
  880MOL0     C16034   8.372  10.205   3.912 -0.0722  0.3405 -0.3157
  880MOL0     C16035   8.415  10.317   3.974 -0.2060 -0.1685  0.0871
  880MOL0     O16036   8.368  10.379   4.087  0.3750  0.1981  0.1193
  880MOL0     C16037   8.253  10.330   4.161  0.0075  0.6435 -0.2332
  880MOL0     C16038   8.143  10.423   4.146  0.4737 -0.0829 -0.3284
  880MOL0     C16039   8.036  10.396   4.251  1.0910  0.3144 -0.4805
  880MOL0     C16040   7.898  10.477   4.249 -0.6456  0.0973 -0.8417
  880MOL0     C16041   7.804  10.427   4.139 -0.4108  0.1448  0.5387
  880MOL0     C16042   7.685  10.525   4.132 -0.9709 -0.1042  0.7395
  880MOL0     C16043   7.546  10.457   4.112  0.0577 -1.0153  0.8202
  880MOL0     C16044   7.472  10.405   4.236 -1.2777 -0.0745 -0.1738
  880MOL0     N16045   7.438  10.520   4.318 -0.0298 -0.3681 -0.5858
  880MOL0     C16046   7.299  10.536   4.355 -0.6649  0.2638 -0.6436
  880MOL0     C16047   7.302  10.606   4.476  0.0810 -0.1015 -0.4319
  880MOL0     C16048   7.184  10.634   4.557 -0.2685 -0.1369 -0.1055
  880MOL0     C16049   7.061  10.670   4.473 -0.0985 -0.4374 -0.2515
  880MOL0     C16050   6.955  10.722   4.579 -1.0823  0.1745 -0.0035
  880MOL0     C16051   6.819  10.759   4.514 -0.4713 -0.0047  0.0374
  880MOL0     O16052   6.718  10.774   4.611 -0.3927 -0.1905  0.4517
  880MOL0     C16053   6.613  10.847   4.575  0.3364  0.3956  0.3876
  880MOL0     C16054   6.561  10.942   4.669  0.2770  0.9768 -0.0796
  880MOL0     C16055   6.435  10.998   4.647  0.1931  0.0600  0.0944
  880MOL0     C16056   6.356  10.955   4.533  0.9429  0.0724 -0.1284
  880MOL0     C16057   6.217  11.008   4.525  0.3511  0.4424  0.1514
  880MOL0     O16058   6.177  11.112   4.613  0.4801 -0.2958  0.2997
  880MOL0     C16059   6.049  11.163   4.596 -1.5763 -0.2439  0.7751
  880MOL0     C16060   5.933  11.110   4.565  0.5517 -0.5048  0.9959
  880MOL0     C16061   5.813  11.185   4.530 -0.9609  0.2981  0.4407
  880MOL0     C16062   5.805  11.320   4.551 -0.3728 -0.1584 -0.6065
  880MOL0     O16063   5.684  11.385   4.542  0.7950 -0.1076  0.0734
  880MOL0     C16064   5.686  11.523   4.507  0.3558 -0.5938  0.4226
  880MOL0     C16065   5.544  11.579   4.494  0.1083  0.5864 -0.1615
  880MOL0     C16066   5.448  11.489   4.412  0.5234 -0.0905 -0.2222
  880MOL0     C16067   5.305  11.526   4.440 -0.3211 -0.1379 -0.2033
  880MOL0     C16068   5.207  11.448   4.350  0.9234 -1.4118  0.5786
  880MOL0     C16069   5.068  11.509   4.373  0.0191  0.0506  1.2942
  880MOL0     C16070   5.043  11.648   4.322 -0.3764 -0.3070  0.7010
  880MOL0     C16071   4.908  11.716   4.365 -1.5985 -0.3910  0.1289
  880MOL0    Cl16072   4.768  11.633   4.316  0.4015  0.2157  0.1542
  880MOL0     C16073   5.930  11.377   4.595  0.5533 -0.3329  1.4373
  880MOL0     C16074   6.044  11.302   4.614  0.6038  0.4379  0.4849
  880MOL0     O16075   6.150  10.969   4.427  0.0303  1.2272  0.1661
  880MOL0     C16076   6.411  10.857   4.442  0.0923  0.1127 -0.2324
  880MOL0     C16077   6.540  10.811   4.464  0.3337 -0.0109 -0.0938
  880MOL0     N16078   7.436  10.620   4.512  0.7178 -0.5889  0.0983
  880MOL0     N16079   7.511  10.573   4.423  0.2007 -0.3631  0.8577
  880MOL0     C16080   8.534  10.376   3.915 -0.5252 -0.9021 -0.3059
  880MOL0     C16081   8.599  10.324   3.800 -1.0711  0.9758  0.0761
  880MOL0     C16082   8.746  10.018   3.511 -0.7033  0.7471 -0.0518
  880MOL0     C16083   8.837   9.918   3.532  0.4836  0.8493 -0.4730
  880MOL0     C16084   8.898   9.851   3.422  0.3143 -0.1848 -0.2392
  880MOL0     C16085   8.840   9.859   3.296 -0.1924 -0.3394  0.0335
  880MOL0     O16086   8.880   9.774   3.196 -1.0375 -0.9547 -0.7261
  880MOL0     C16087   8.774   9.718   3.126  0.5228  0.3824  0.5043
  880MOL0     C16088   8.698   9.620   3.206 -0.0905  0.4037 -0.6000
  880MOL0     C16089   8.564   9.668   3.267 -0.9800 -0.4879 -0.3306
  880MOL0     C16090   8.446   9.698   3.176  0.2796  0.0187  0.2413
  880MOL0     C16091   8.348   9.590   3.162  0.5462 -0.0362  0.1888
  880MOL0     C16092   8.258   9.510   3.142 -0.4551  0.6971  0.5474
  880MOL0     C16093   8.733   9.954   3.281 -0.2696  0.1248 -0.9541
  880MOL0     C16094   8.690  10.037   3.383 -0.2311 -1.0235  0.4512
  880MOL0     H16095   8.402  10.077   3.744  1.8115 -0.4074  1.0450
  880MOL0     H16096   8.285  10.152   3.950 -0.9237 -1.6344 -4.5119
  880MOL0     H16097   8.288  10.331   4.264  2.3047  0.6776 -0.9649
  880MOL0     H16098   8.211  10.232   4.134 -0.8345 -0.4200  4.1027
  880MOL0     H16099   8.093  10.414   4.049 -2.5613  1.8635  0.8958
  880MOL0     H16100   8.175  10.523   4.175  0.9807 -0.2813 -0.1875
  880MOL0     H16101   8.083  10.415   4.348 -0.0854 -0.8282  0.3504
  880MOL0     H16102   7.999  10.293   4.244  0.5868  0.3053  1.7230
  880MOL0     H16103   7.854  10.458   4.348  0.9472  0.4366 -0.0213
  880MOL0     H16104   7.928  10.583   4.249  0.4740 -0.1337  1.9033
  880MOL0     H16105   7.784  10.324   4.168  0.3068 -0.1035  0.1950
  880MOL0     H16106   7.859  10.432   4.044  0.5774  2.7020  1.1431
  880MOL0     H16107   7.702  10.605   4.060 -1.1429 -0.8153 -0.0977
  880MOL0     H16108   7.686  10.570   4.232  1.2748  0.5225  0.4871
  880MOL0     H16109   7.495  10.545   4.074  0.1805 -1.2138  0.1975
  880MOL0     H16110   7.546  10.382   4.033  1.1855 -0.2590  0.0682
  880MOL0     H16111   7.542  10.350   4.300  1.4658  3.4473  0.1276
  880MOL0     H16112   7.380  10.352   4.209 -0.8909 -2.0698  2.0540
  880MOL0     H16113   7.202  10.516   4.309 -1.6068  3.0372 -0.0638
  880MOL0     H16114   7.210  10.708   4.634  0.5762  2.0528 -2.3465
  880MOL0     H16115   7.170  10.534   4.599  0.7078 -0.5121 -0.6289
  880MOL0     H16116   7.011  10.589   4.420 -2.7446  0.1437  1.1487
  880MOL0     H16117   7.092  10.749   4.405 -1.6889 -0.3177 -0.8964
  880MOL0     H16118   6.934  10.638   4.645 -1.3030 -0.8609 -1.3321
  880MOL0     H16119   6.999  10.808   4.631 -2.3366 -0.0663  1.5388
  880MOL0     H16120   6.784  10.685   4.441  1.1088  2.0059 -3.0076
  880MOL0     H16121   6.832  10.851   4.455  1.4245 -0.4338 -0.2551
  880MOL0     H16122   6.623  10.982   4.749 -0.7500 -0.5483  1.5344
  880MOL0     H16123   6.400  11.083   4.704 -0.8388  0.3052 -0.8579
  880MOL0     H16124   5.933  11.002   4.551  0.4760 -0.0697 -5.4079
  880MOL0     H16125   5.723  11.129   4.508 -0.2436 -1.3996  1.5854
  880MOL0     H16126   5.728  11.547   4.408 -1.4968  0.2297 -0.2129
  880MOL0     H16127   5.721  11.587   4.588 -3.7087  1.6954  0.6549
  880MOL0     H16128   5.536  11.679   4.450 -1.3781  1.0628  1.0786
  880MOL0     H16129   5.511  11.590   4.598  4.5928  0.5330  1.4898
  880MOL0     H16130   5.456  11.386   4.449 -2.4413  0.2899  1.8322
  880MOL0     H16131   5.471  11.504   4.306  0.9957  0.8027 -0.0022
  880MOL0     H16132   5.279  11.506   4.545 -0.8709 -0.9243 -0.4876
  880MOL0     H16133   5.299  11.635   4.429  0.3141 -0.1724 -0.9452
  880MOL0     H16134   5.210  11.343   4.380  2.6542 -1.9389 -1.2026
  880MOL0     H16135   5.238  11.451   4.245  1.4400  0.2871  0.7489
  880MOL0     H16136   5.059  11.514   4.482 -0.5231 -3.7518  1.5840
  880MOL0     H16137   4.992  11.442   4.331  0.1664 -0.4137  1.7536
  880MOL0     H16138   5.126  11.715   4.345  1.1345 -0.9638 -2.2987
  880MOL0     H16139   5.040  11.654   4.212  0.1384  1.6787  0.7446
  880MOL0     H16140   4.915  11.808   4.306  0.8098 -2.6746 -3.6347
  880MOL0     H16141   4.904  11.739   4.472 -1.5331  0.1794  0.0117
  880MOL0     H16142   5.947  11.481   4.620  5.3944 -0.2354 -1.0753
  880MOL0     H16143   6.133  11.357   4.642 -0.4510  1.2528  2.4063
  880MOL0     H16144   6.350  10.821   4.360 -2.1877 -0.4816  1.6003
  880MOL0     H16145   6.579  10.738   4.393  1.8007  0.6269  0.0248
  880MOL0     H16146   8.575  10.465   3.962  0.2809 -0.7365 -1.2910
  880MOL0     H16147   8.702  10.344   3.769 -1.0723 -1.7061 -1.9967
  880MOL0     H16148   8.876   9.904   3.632 -1.0485 -2.9962 -0.2368
  880MOL0     H16149   8.973   9.778   3.450 -1.0873 -1.3317  0.6688
  880MOL0     H16150   8.797   9.669   3.031 -2.1206  1.1452 -0.6302
  880MOL0     H16151   8.702   9.790   3.088 -1.0623 -0.6474  1.4036
  880MOL0     H16152   8.676   9.541   3.134  1.4840  3.9536 -5.5062
  880MOL0     H16153   8.765   9.575   3.280 -3.5218 -0.4046  2.3287
  880MOL0     H16154   8.590   9.743   3.343 -3.3605 -1.9557  2.1193
  880MOL0     H16155   8.519   9.587   3.325  0.0203 -2.9864 -2.8150
  880MOL0     H16156   8.399   9.783   3.226  0.9130  1.5749 -1.7037
  880MOL0     H16157   8.483   9.738   3.082  2.7551  1.5927  1.7625
  880MOL0     H16158   8.191   9.439   3.098  0.3607  1.5683 -2.3430
  880MOL0     H16159   8.683   9.961   3.184 -1.5030 -0.5479 -0.3930
  880MOL0     H16160   8.607  10.105   3.363  0.1009 -0.7717 -0.0906
  881MOL0     O16161   1.302   5.184   5.597 -0.0852 -0.1155  0.8720
  881MOL0     C16162   1.357   5.171   5.704  0.7438  0.3882 -0.6050
  881MOL0     O16163   1.286   5.159   5.826 -0.5930  0.1916 -0.2745
  881MOL0     C16164   1.155   5.160   5.816 -0.1585  0.5805 -0.1666
  881MOL0     C16165   1.094   5.282   5.783  0.1492  0.2843 -0.7209
  881MOL0     C16166   0.955   5.283   5.769 -1.5586  0.0220  0.5282
  881MOL0     C16167   0.877   5.164   5.773 -0.1435 -0.5586 -0.9039
  881MOL0     O16168   0.738   5.161   5.751 -1.1373 -0.1310  1.0313
  881MOL0     C16169   0.669   5.294   5.744  0.3211 -0.2226 -0.6372
  881MOL0     C16170   0.519   5.296   5.734  0.5699  0.3777 -0.2802
  881MOL0     C16171   0.483   5.243   5.597 -0.1162 -0.0014 -1.0600
  881MOL0     C16172   0.337   5.200   5.579 -0.3394 -0.0926 -0.3252
  881MOL0     C16173   0.302   5.177   5.427  0.0955  0.4352  0.0284
  881MOL0     C16174   0.176   5.089   5.431 -0.3248 -0.4150  0.9499
  881MOL0     C16175   0.098   5.072   5.300 -0.7332 -0.5717 -0.1801
  881MOL0     C16176   0.018   4.941   5.294 -0.0150  0.7401 -0.7041
  881MOL0     N16177  -0.106   4.959   5.369 -0.1507 -0.4349  0.3351
  881MOL0     C16178  -0.122   4.999   5.498  0.4578 -1.1977 -1.0248
  881MOL0     C16179  -0.248   4.977   5.535 -0.3882 -1.1757  1.2021
  881MOL0     C16180  -0.313   4.992   5.672  0.8052  0.2123  0.4935
  881MOL0     C16181  -0.424   4.886   5.700 -0.4552 -0.0415 -0.3197
  881MOL0     C16182  -0.478   4.881   5.851  0.2232  0.4523 -0.0780
  881MOL0     C16183  -0.563   5.000   5.902  0.6340 -0.6362  0.2463
  881MOL0     O16184  -0.676   5.009   5.819 -0.5775  0.0786  0.0683
  881MOL0     C16185  -0.774   5.101   5.849  0.2563 -0.2185  1.0058
  881MOL0     C16186  -0.826   5.122   5.980 -0.0575 -0.1141  0.4069
  881MOL0     C16187  -0.941   5.203   6.000  0.3170  0.5274  0.5630
  881MOL0     C16188  -0.995   5.269   5.893 -0.2860  0.1358 -0.4812
  881MOL0     C16189  -1.124   5.341   5.909 -0.3764  0.4560  0.0421
  881MOL0     O16190  -1.159   5.355   6.038 -0.0538  0.1737  0.3410
  881MOL0     C16191  -1.291   5.356   6.069  0.4280  0.0462  0.1851
  881MOL0     C16192  -1.332   5.442   6.178  0.7194  1.0685 -0.7662
  881MOL0     C16193  -1.462   5.471   6.195  0.6795 -1.0549  0.4467
  881MOL0     C16194  -1.557   5.403   6.117 -0.5734  0.3175 -0.3775
  881MOL0     O16195  -1.691   5.432   6.134 -0.7335  0.7078 -0.0078
  881MOL0     C16196  -1.750   5.347   6.235  0.2900  0.0103  0.1490
  881MOL0     C16197  -1.862   5.416   6.303 -1.0591 -0.2108 -1.1076
  881MOL0     C16198  -1.822   5.547   6.376  0.0842 -0.1279  0.3932
  881MOL0     C16199  -1.936   5.599   6.474 -0.1593 -0.2779  1.0116
  881MOL0     C16200  -1.891   5.702   6.582  0.2526  0.0858 -0.3002
  881MOL0     C16201  -1.983   5.738   6.690  1.0235 -0.5217  0.6298
  881MOL0     C16202  -2.068   5.623   6.765 -0.1640 -0.5616 -0.5103
  881MOL0     C16203  -2.050   5.640   6.912  0.6949 -0.9227 -0.0220
  881MOL0    Cl16204  -2.152   5.518   6.996 -0.0012 -0.3104 -0.0126
  881MOL0     C16205  -1.517   5.321   6.014  0.1564  0.0442 -0.0926
  881MOL0     C16206  -1.383   5.290   5.999  0.4426  0.0867 -0.2739
  881MOL0     O16207  -1.182   5.393   5.810 -0.5458 -0.7017 -0.7240
  881MOL0     C16208  -0.931   5.273   5.772  0.5914 -0.7006  0.7893
  881MOL0     C16209  -0.824   5.188   5.748 -0.8520  1.1013  0.1500
  881MOL0     N16210  -0.312   4.923   5.428 -0.9712  0.5604 -0.3231
  881MOL0     N16211  -0.234   4.911   5.331 -0.6214  0.0608 -0.4144
  881MOL0     C16212   0.940   5.038   5.814 -0.0275 -0.2177 -0.1658
  881MOL0     C16213   1.079   5.040   5.834  0.8948 -0.1939 -0.0843
  881MOL0     C16214   1.504   5.134   5.712 -0.1247  0.1651 -0.1300
  881MOL0     C16215   1.574   5.082   5.826  0.6220  0.8214  0.0260
  881MOL0     C16216   1.710   5.071   5.824  0.3415 -0.6057  0.0561
  881MOL0     C16217   1.794   5.100   5.711  0.0825  0.7392  0.1667
  881MOL0     O16218   1.922   5.067   5.733  0.0200 -0.3535  0.4540
  881MOL0     C16219   1.953   4.932   5.681 -0.2842 -0.2418 -0.9335
  881MOL0     C16220   2.059   4.859   5.763  0.6265 -0.1907 -0.1028
  881MOL0     C16221   2.193   4.924   5.741  0.5274  0.5099  0.2978
  881MOL0     C16222   2.285   4.845   5.848 -0.1480  0.5663  0.8922
  881MOL0     C16223   2.424   4.894   5.851 -0.7738 -0.6760  0.5058
  881MOL0     C16224   2.534   4.943   5.837 -0.5876 -0.3666  0.4309
  881MOL0     C16225   1.735   5.149   5.603 -0.4460 -0.7160  0.3244
  881MOL0     C16226   1.594   5.166   5.602 -0.8093  0.6422 -0.4705
  881MOL0     H16227   1.147   5.372   5.750 -0.5863  0.4524 -1.4858
  881MOL0     H16228   0.916   5.381   5.743 -1.3654 -0.2385 -0.8560
  881MOL0     H16229   0.709   5.353   5.661  1.8901  0.5937  0.6418
  881MOL0     H16230   0.705   5.360   5.823  0.3982 -0.5536 -0.3909
  881MOL0     H16231   0.476   5.393   5.760  0.4956  0.1866  0.3192
  881MOL0     H16232   0.475   5.221   5.801  1.8954  1.8765  2.4535
  881MOL0     H16233   0.541   5.151   5.582 -0.2716 -0.2414 -0.2506
  881MOL0     H16234   0.508   5.320   5.524  3.6964 -1.2501 -1.2936
  881MOL0     H16235   0.315   5.110   5.637  0.8914 -0.5924 -0.5920
  881MOL0     H16236   0.262   5.266   5.623 -0.7262 -0.7297 -0.0222
  881MOL0     H16237   0.374   5.134   5.357 -0.7382  1.7539 -1.7415
  881MOL0     H16238   0.280   5.274   5.381 -2.3888 -1.8913 -4.3521
  881MOL0     H16239   0.107   5.119   5.510  0.0426  1.3042  0.6629
  881MOL0     H16240   0.211   4.990   5.462 -0.2507 -0.6042  0.2829
  881MOL0     H16241   0.036   5.155   5.264 -0.3597 -0.7315 -1.2274
  881MOL0     H16242   0.174   5.060   5.223 -0.2074  1.7971 -0.0979
  881MOL0     H16243   0.077   4.856   5.330  1.3742  1.2060 -1.7856
  881MOL0     H16244  -0.014   4.926   5.190 -0.2464 -1.5208 -0.3476
  881MOL0     H16245  -0.049   5.032   5.571 -0.5360  0.7364 -0.8318
  881MOL0     H16246  -0.362   5.090   5.678  1.4855  0.6562 -0.8955
  881MOL0     H16247  -0.241   4.991   5.755 -0.0174  0.7235  1.2383
  881MOL0     H16248  -0.394   4.783   5.679 -1.3659 -1.2095  3.4822
  881MOL0     H16249  -0.508   4.906   5.633 -0.0782  0.7675 -0.5761
  881MOL0     H16250  -0.517   4.779   5.862 -1.6859  1.3050  1.9967
  881MOL0     H16251  -0.391   4.879   5.917  0.8304 -0.1650 -0.8751
  881MOL0     H16252  -0.506   5.094   5.895 -1.6944  0.7246 -2.5233
  881MOL0     H16253  -0.590   4.989   6.007 -1.2237 -0.3710 -0.1760
  881MOL0     H16254  -0.778   5.069   6.062 -0.8391  1.1648  1.7426
  881MOL0     H16255  -0.978   5.203   6.102 -1.7928 -1.7583 -0.1146
  881MOL0     H16256  -1.256   5.480   6.246 -0.8976 -2.2331  3.3445
  881MOL0     H16257  -1.495   5.535   6.277 -1.1446 -2.4745  0.8966
  881MOL0     H16258  -1.676   5.306   6.303 -1.1617 -1.4918  0.8997
  881MOL0     H16259  -1.797   5.264   6.180  4.1221 -1.1948 -1.6361
  881MOL0     H16260  -1.897   5.352   6.384  2.6509  0.9638  1.7117
  881MOL0     H16261  -1.946   5.449   6.242 -1.3045  0.8656 -0.2107
  881MOL0     H16262  -1.795   5.622   6.302 -1.0317  2.4129  2.3830
  881MOL0     H16263  -1.729   5.520   6.427  0.9600 -0.1743 -1.1704
  881MOL0     H16264  -2.016   5.647   6.415  3.4333  4.4236 -0.6534
  881MOL0     H16265  -1.972   5.507   6.521  2.1083 -2.1490 -0.7324
  881MOL0     H16266  -1.856   5.795   6.536  2.7172 -0.9902 -0.7755
  881MOL0     H16267  -1.799   5.659   6.624  1.1947  1.6106 -0.7270
  881MOL0     H16268  -2.059   5.799   6.641  1.5497  0.1609  0.6492
  881MOL0     H16269  -1.931   5.796   6.767  0.4427  0.2072  0.4931
  881MOL0     H16270  -2.175   5.629   6.747 -0.2700  2.7402  0.6056
  881MOL0     H16271  -2.023   5.528   6.733  1.7972 -1.2253  3.5501
  881MOL0     H16272  -2.075   5.740   6.949 -2.4463  0.0039 -3.9507
  881MOL0     H16273  -1.946   5.619   6.937  0.3848 -0.1651  2.1586
  881MOL0     H16274  -1.596   5.281   5.950 -3.0331  1.0906  2.8658
  881MOL0     H16275  -1.354   5.224   5.917  2.3293 -0.9671  1.1558
  881MOL0     H16276  -0.966   5.341   5.696  3.8314 -0.2625 -0.4621
  881MOL0     H16277  -0.778   5.182   5.650 -1.5656 -0.7936 -0.1147
  881MOL0     H16278   0.884   4.945   5.821  1.0550 -0.9745 -1.1125
  881MOL0     H16279   1.133   4.952   5.867 -0.9282 -0.4660  2.5459
  881MOL0     H16280   1.511   5.050   5.909 -0.6346 -0.6981 -1.4465
  881MOL0     H16281   1.737   5.034   5.923 -1.9505  1.7948  1.7134
  881MOL0     H16282   1.987   4.931   5.577  1.3748 -0.7643 -0.4024
  881MOL0     H16283   1.858   4.877   5.680 -0.2301 -0.5317 -4.4581
  881MOL0     H16284   2.031   4.862   5.869 -1.7547  2.7974 -0.6724
  881MOL0     H16285   2.062   4.753   5.737  0.6305 -0.1592 -0.2297
  881MOL0     H16286   2.185   5.030   5.769 -0.5753 -0.2456  3.3127
  881MOL0     H16287   2.218   4.914   5.635  0.7359  1.9460  0.1906
  881MOL0     H16288   2.251   4.854   5.952  3.8474  1.7075  2.2788
  881MOL0     H16289   2.286   4.739   5.821 -1.6208  0.6991  0.1985
  881MOL0     H16290   2.634   4.975   5.816 -1.7279  3.2728 -0.3313
  881MOL0     H16291   1.800   5.173   5.519  1.1480  2.0888  2.2321
  881MOL0     H16292   1.550   5.208   5.512 -0.1244  0.3262 -0.9660
  882MOL0     O16293   5.582  10.663   2.883  0.1637 -0.1278 -0.9504
  882MOL0     C16294   5.564  10.768   2.940 -0.8511 -0.5836  1.1763
  882MOL0     O16295   5.452  10.848   2.937 -0.3144 -0.5725  0.1836
  882MOL0     C16296   5.352  10.781   2.866  0.4728  0.1971  0.5571
  882MOL0     C16297   5.327  10.816   2.730 -0.6548 -0.1070  0.3093
  882MOL0     C16298   5.225  10.744   2.661 -0.1530 -0.2114 -0.3517
  882MOL0     C16299   5.144  10.642   2.727  0.3231  1.1556 -1.2620
  882MOL0     O16300   5.032  10.579   2.678 -0.1319  0.3883  0.0612
  882MOL0     C16301   4.966  10.635   2.564 -1.6644 -0.7643  0.1443
  882MOL0     C16302   4.844  10.560   2.534  0.0842  0.9379  0.0397
  882MOL0     C16303   4.753  10.523   2.657 -1.0604 -0.3295  0.1852
  882MOL0     C16304   4.617  10.469   2.615 -0.2272 -0.5895  0.0057
  882MOL0     C16305   4.586  10.344   2.692 -0.4797  0.5118  0.2116
  882MOL0     C16306   4.464  10.263   2.637  0.1315  0.3560 -0.3314
  882MOL0     C16307   4.334  10.318   2.688 -0.4310  0.7694 -0.9281
  882MOL0     C16308   4.221  10.247   2.606 -0.5214  0.3400 -0.0732
  882MOL0     N16309   4.087  10.276   2.664 -0.0622 -0.4453 -0.6749
  882MOL0     C16310   3.975  10.285   2.585  0.3925 -0.1320 -0.8438
  882MOL0     C16311   3.864  10.271   2.664 -1.0224  0.1360  0.8857
  882MOL0     C16312   3.719  10.288   2.629 -0.3903  0.3728 -0.2278
  882MOL0     C16313   3.642  10.390   2.718 -0.6595 -0.4769  0.7303
  882MOL0     C16314   3.681  10.551   2.689 -0.4329 -0.3288  0.5830
  882MOL0     C16315   3.601  10.618   2.563  0.3805  1.9480 -0.7316
  882MOL0     O16316   3.464  10.595   2.577  0.0550 -0.5537 -0.5053
  882MOL0     C16317   3.387  10.563   2.463  0.4944  0.0117  0.1444
  882MOL0     C16318   3.415  10.623   2.343  0.3329  0.4107  0.1694
  882MOL0     C16319   3.347  10.596   2.225  0.4067  1.1470 -0.1728
  882MOL0     C16320   3.247  10.505   2.215 -0.3312  0.3442 -0.2044
  882MOL0     C16321   3.178  10.462   2.092 -0.0860  0.1823  0.6024
  882MOL0     O16322   3.240  10.504   1.981  0.2282 -0.2335  0.6824
  882MOL0     C16323   3.207  10.479   1.847 -0.1511 -0.5459  0.3593
  882MOL0     C16324   3.125  10.366   1.814 -0.5722 -0.5435  0.3897
  882MOL0     C16325   3.101  10.339   1.671  0.8997 -0.1485  0.2735
  882MOL0     C16326   3.165  10.417   1.566 -0.4703 -0.2137 -0.0013
  882MOL0     O16327   3.150  10.409   1.427  0.1376 -0.0152 -0.2179
  882MOL0     C16328   3.019  10.369   1.387 -0.0257 -0.6825 -0.3236
  882MOL0     C16329   2.916  10.490   1.417 -0.1478  0.7193  0.1584
  882MOL0     C16330   2.780  10.474   1.347 -0.7468  0.3642 -0.4339
  882MOL0     C16331   2.694  10.378   1.431 -0.1359  0.0454  0.0911
  882MOL0     C16332   2.580  10.343   1.352 -0.3154 -0.2444  0.9528
  882MOL0     C16333   2.462  10.273   1.428 -0.4224 -0.6550 -0.6290
  882MOL0     C16334   2.350  10.228   1.339  0.0520  0.2930 -0.1211
  882MOL0     C16335   2.312  10.336   1.243  0.1210 -0.3141  0.1719
  882MOL0    Cl16336   2.189  10.307   1.111  0.2101 -0.2093 -0.0623
  882MOL0     C16337   3.249  10.515   1.608  0.1411 -0.0427  0.4174
  882MOL0     C16338   3.271  10.552   1.744  0.1856 -0.0441  0.2700
  882MOL0     O16339   3.064  10.416   2.102  0.9421  0.2368 -0.4856
  882MOL0     C16340   3.217  10.445   2.339 -0.1671  0.3201  0.3639
  882MOL0     C16341   3.284  10.469   2.464  0.8924  0.1464 -0.2214
  882MOL0     N16342   3.914  10.268   2.791  0.4905 -0.2930  0.2406
  882MOL0     N16343   4.047  10.272   2.799  0.7764  0.0971  0.6682
  882MOL0     C16344   5.163  10.609   2.861  0.5477  0.9849 -0.8555
  882MOL0     C16345   5.275  10.676   2.929 -1.3703  0.7709  0.3566
  882MOL0     C16346   5.692  10.810   3.006 -0.1339 -0.1350 -0.0462
  882MOL0     C16347   5.809  10.735   2.995  0.0668 -0.7937 -0.2196
  882MOL0     C16348   5.917  10.775   3.071  0.8374  0.2034 -0.8850
  882MOL0     C16349   5.912  10.883   3.154 -0.4400  0.1089 -0.2984
  882MOL0     O16350   6.015  10.896   3.237  0.9772  0.5213  0.0250
  882MOL0     C16351   5.986  10.854   3.366  0.5672  0.9639  0.7808
  882MOL0     C16352   6.060  10.927   3.471  0.9803 -0.4158  0.3200
  882MOL0     C16353   6.043  11.082   3.453 -0.3250 -0.2510 -0.5529
  882MOL0     C16354   6.067  11.166   3.578  0.1344  0.6308  0.1561
  882MOL0     C16355   6.045  11.311   3.551  0.5508  0.3671  0.2228
  882MOL0     C16356   6.036  11.434   3.527  0.0021 -0.5032  0.1849
  882MOL0     C16357   5.797  10.958   3.165 -0.3716 -0.3765 -0.1124
  882MOL0     C16358   5.679  10.924   3.095  0.2607  0.1827 -0.0727
  882MOL0     H16359   5.390  10.891   2.685  0.1261  1.9524  4.4089
  882MOL0     H16360   5.206  10.770   2.558 -1.4064 -0.1776 -0.1270
  882MOL0     H16361   5.040  10.628   2.483 -0.2027 -0.8295  1.4422
  882MOL0     H16362   4.948  10.743   2.569 -1.3657 -0.4748 -3.0082
  882MOL0     H16363   4.864  10.466   2.482  0.5462  1.4215 -0.6748
  882MOL0     H16364   4.786  10.618   2.461  1.3293  0.6800 -1.1795
  882MOL0     H16365   4.729  10.613   2.715 -3.4355 -1.6961  1.5015
  882MOL0     H16366   4.807  10.452   2.721 -0.8372  0.4408  0.8672
  882MOL0     H16367   4.535  10.540   2.630  0.4960  0.4882 -0.9741
  882MOL0     H16368   4.626  10.451   2.507  4.9047  2.5517 -0.3842
  882MOL0     H16369   4.584  10.342   2.801  0.0381 -2.7858  0.2627
  882MOL0     H16370   4.670  10.275   2.678 -0.9740 -0.4155  1.7115
  882MOL0     H16371   4.479  10.158   2.664 -3.1948 -0.3777 -0.9677
  882MOL0     H16372   4.458  10.280   2.529 -1.7526  2.5120  0.0268
  882MOL0     H16373   4.317  10.284   2.791 -0.5501 -1.5554 -1.6701
  882MOL0     H16374   4.334  10.427   2.688  0.3833  0.7758 -0.7469
  882MOL0     H16375   4.242  10.140   2.597  0.9805  0.7351 -1.8201
  882MOL0     H16376   4.227  10.287   2.505 -2.1468  0.1027 -0.2884
  882MOL0     H16377   3.973  10.303   2.478  2.6101 -0.4847 -0.9981
  882MOL0     H16378   3.670  10.190   2.639  0.8597 -0.6392 -3.0382
  882MOL0     H16379   3.719  10.312   2.523  0.6298 -0.1575 -0.3627
  882MOL0     H16380   3.667  10.359   2.820 -0.5305  3.0928  1.8928
  882MOL0     H16381   3.533  10.383   2.722 -0.7587  0.7106  0.4858
  882MOL0     H16382   3.637  10.597   2.777  1.7120  2.0993  0.5067
  882MOL0     H16383   3.786  10.574   2.670 -0.6554  0.0692 -0.2468
  882MOL0     H16384   3.637  10.562   2.476  1.4131  1.5768 -0.0839
  882MOL0     H16385   3.621  10.725   2.554 -1.7657  2.2617 -2.6929
  882MOL0     H16386   3.496  10.695   2.325  1.9055 -1.5301 -0.9042
  882MOL0     H16387   3.370  10.645   2.131 -0.0785 -0.2046 -1.0224
  882MOL0     H16388   3.089  10.298   1.890 -0.0407 -2.0901 -0.6755
  882MOL0     H16389   3.044  10.249   1.650 -1.8107  1.6383 -0.5530
  882MOL0     H16390   2.996  10.274   1.436 -0.0342  0.6768  2.5015
  882MOL0     H16391   3.006  10.348   1.281 -3.0404  4.9362 -1.4493
  882MOL0     H16392   2.967  10.579   1.379  0.5052 -0.4914 -2.0105
  882MOL0     H16393   2.916  10.509   1.524  1.7379 -1.2466  0.5905
  882MOL0     H16394   2.783  10.434   1.245  4.5794  2.5127 -1.4802
  882MOL0     H16395   2.742  10.577   1.339  3.0113  2.0672  1.1071
  882MOL0     H16396   2.757  10.294   1.463  0.8294  1.0879  1.0030
  882MOL0     H16397   2.664  10.432   1.521  1.8513  2.9898 -0.8682
  882MOL0     H16398   2.607  10.278   1.268 -2.0749 -1.0639  0.9764
  882MOL0     H16399   2.540  10.437   1.315  2.1283  0.1784 -0.8903
  882MOL0     H16400   2.423  10.331   1.512  4.3834 -1.6659  2.7452
  882MOL0     H16401   2.514  10.187   1.471  0.3380  0.3197  0.4779
  882MOL0     H16402   2.391  10.146   1.281  1.7827  1.4869 -0.6651
  882MOL0     H16403   2.269  10.186   1.399 -0.6515  1.6992 -0.0303
  882MOL0     H16404   2.399  10.359   1.181 -1.6989  1.3777 -1.9153
  882MOL0     H16405   2.280  10.430   1.291  1.1564  0.8081 -1.2422
  882MOL0     H16406   3.297  10.577   1.533 -0.3282 -0.4624 -0.2403
  882MOL0     H16407   3.336  10.638   1.758  1.5448 -0.9238 -0.3776
  882MOL0     H16408   3.135  10.373   2.343 -0.7430  0.9503  0.0091
  882MOL0     H16409   3.255  10.420   2.556  2.1412  1.2272  0.7902
  882MOL0     H16410   5.099  10.536   2.910  1.9954  1.3126  1.7236
  882MOL0     H16411   5.296  10.635   3.027 -4.4948 -0.9911  0.4264
  882MOL0     H16412   5.821  10.649   2.929  0.4431 -0.1830 -0.9649
  882MOL0     H16413   6.007  10.714   3.064  2.2948  2.1859 -0.2227
  882MOL0     H16414   6.019  10.751   3.382 -0.3896  0.7621  1.5937
  882MOL0     H16415   5.878  10.859   3.385  0.0064  1.0136 -2.0090
  882MOL0     H16416   6.024  10.886   3.566  0.9150 -3.2196 -0.8157
  882MOL0     H16417   6.167  10.905   3.470  1.2547  0.7897 -1.4547
  882MOL0     H16418   5.943  11.099   3.413 -0.9425  1.8682  1.6803
  882MOL0     H16419   6.111  11.115   3.373 -1.0141  0.2630 -0.9330
  882MOL0     H16420   6.002  11.140   3.662  0.9861 -0.5772  0.4734
  882MOL0     H16421   6.171  11.136   3.598 -0.6065 -0.2087  3.3925
  882MOL0     H16422   6.035  11.539   3.504  2.9458 -0.9548 -2.8478
  882MOL0     H16423   5.791  11.040   3.236 -4.0042  1.4040 -2.1811
  882MOL0     H16424   5.591  10.987   3.105  1.6560  2.2723 -0.5084
  883MOL0     O16425  10.441  10.484   9.513  0.2896 -0.0449  0.1075
  883MOL0     C16426  10.360  10.405   9.463 -0.0210 -0.2736  0.4990
  883MOL0     O16427  10.229  10.436   9.433 -0.3139  0.4655  0.6922
  883MOL0     C16428  10.182  10.561   9.460 -0.4083  1.3079 -0.5216
  883MOL0     C16429  10.206  10.657   9.366 -0.5609  0.3568  0.9143
  883MOL0     C16430  10.168  10.791   9.386 -0.9172  0.4418  0.0124
  883MOL0     C16431  10.086  10.820   9.497  0.9230  0.5874  0.7518
  883MOL0     O16432  10.040  10.948   9.536  0.1140  0.4490  0.8026
  883MOL0     C16433  10.118  11.061   9.494 -0.8655  1.2607 -0.1209
  883MOL0     C16434  10.051  11.130   9.371 -0.1283 -0.4947  0.2528
  883MOL0     C16435   9.923  11.209   9.421  1.0035 -0.7541 -0.0258
  883MOL0     C16436   9.841  11.278   9.305  0.1433 -0.0620 -0.3826
  883MOL0     C16437   9.756  11.401   9.337  0.0965  0.5780 -0.2314
  883MOL0     C16438   9.653  11.365   9.453 -0.0816  0.6123  0.3363
  883MOL0     C16439   9.510  11.402   9.413  0.4393  0.7188 -0.5681
  883MOL0     C16440   9.402  11.358   9.514 -0.9111  0.4445  0.2989
  883MOL0     N16441   9.269  11.384   9.470 -0.4737 -0.1913  0.1930
  883MOL0     C16442   9.228  11.492   9.388 -0.2161  0.5646 -0.0027
  883MOL0     C16443   9.093  11.474   9.384 -0.8285  0.4570  1.0120
  883MOL0     C16444   8.991  11.558   9.327  0.5173  0.6576  0.0590
  883MOL0     C16445   8.968  11.693   9.392 -0.0168 -0.2302 -0.2301
  883MOL0     C16446   8.865  11.683   9.504 -0.8672 -0.8183 -0.7571
  883MOL0     C16447   8.877  11.803   9.606 -0.3628 -0.1046  0.0388
  883MOL0     O16448   8.863  11.935   9.548 -0.2370 -1.1494 -0.0347
  883MOL0     C16449   8.940  12.025   9.611 -1.1658  1.3089  0.2340
  883MOL0     C16450   9.054  12.068   9.534 -0.4744 -0.0817 -0.8594
  883MOL0     C16451   9.150  12.158   9.584  1.3954  0.3484  0.1311
  883MOL0     C16452   9.127  12.218   9.709  0.3829  0.4077 -0.4335
  883MOL0     C16453   9.227  12.306   9.775 -0.1145 -0.6232 -0.4954
  883MOL0     O16454   9.349  12.323   9.705 -0.3368  0.2672  0.1133
  883MOL0     C16455   9.454  12.398   9.769 -0.7816  0.0582  0.8456
  883MOL0     C16456   9.443  12.515   9.847  0.1967  0.6706 -0.8601
  883MOL0     C16457   9.562  12.581   9.896 -0.2116 -0.5322  0.6478
  883MOL0     C16458   9.690  12.539   9.849 -0.1212 -0.0878  0.2636
  883MOL0     O16459   9.800  12.604   9.892 -0.3150 -1.0199 -0.7322
  883MOL0     C16460   9.898  12.645   9.801  0.6303  0.5505  0.2938
  883MOL0     C16461  10.009  12.710   9.885  0.3279 -0.5162 -0.0736
  883MOL0     C16462  10.121  12.779   9.800  1.4577  0.8749 -0.6703
  883MOL0     C16463  10.078  12.912   9.741 -0.0777 -1.2612  1.2887
  883MOL0     C16464  10.076  13.024   9.845  0.2084  0.0698 -0.0247
  883MOL0     C16465  10.209  13.085   9.868  0.1784  0.0513  0.0285
  883MOL0     C16466  10.223  13.161   9.993 -0.9856  0.1547 -1.0995
  883MOL0     C16467  10.368  13.203  10.029 -0.7527 -0.3565  0.6184
  883MOL0    Cl16468  10.463  13.054  10.062 -0.2792  0.1272 -0.0645
  883MOL0     C16469   9.697  12.427   9.768 -0.4421 -0.2948 -0.3038
  883MOL0     C16470   9.582  12.357   9.732  0.9597 -0.3114  0.0578
  883MOL0     O16471   9.198  12.350   9.882  0.1918 -0.2819 -0.6621
  883MOL0     C16472   9.002  12.177   9.781  0.8089 -0.3515  0.3287
  883MOL0     C16473   8.915  12.078   9.732  1.4420  0.5564  0.3278
  883MOL0     N16474   9.061  11.361   9.470 -0.1252 -0.3417  0.3417
  883MOL0     N16475   9.168  11.313   9.523  0.0173  0.2635  0.2411
  883MOL0     C16476  10.046  10.721   9.586 -0.8921 -0.1037 -0.5531
  883MOL0     C16477  10.105  10.596   9.572  0.1093 -0.1384  0.8410
  883MOL0     C16478  10.397  10.265   9.445  0.5264 -0.2160  0.3712
  883MOL0     C16479  10.526  10.223   9.476  0.9355 -0.6072  0.4727
  883MOL0     C16480  10.572  10.104   9.428 -0.0814  0.0362 -1.1045
  883MOL0     C16481  10.499  10.009   9.363 -0.0552 -0.7736 -0.2577
  883MOL0     O16482  10.539   9.893   9.300 -0.2335 -0.0211  0.0053
  883MOL0     C16483  10.676   9.866   9.277 -0.1491  0.3764 -0.3827
  883MOL0     C16484  10.726   9.955   9.160 -0.1489  0.1211  0.4958
  883MOL0     C16485  10.875   9.983   9.153 -0.3508  0.7101  0.2764
  883MOL0     C16486  10.952   9.854   9.119 -0.6359 -0.0363 -0.2813
  883MOL0     C16487  10.975   9.773   9.244  0.3113  0.1068 -0.2026
  883MOL0     C16488  10.975   9.713   9.356 -0.0999 -0.4751 -0.3869
  883MOL0     C16489  10.360  10.038   9.359  0.2011 -1.4689  0.8771
  883MOL0     C16490  10.311  10.164   9.393 -0.2542  0.2096 -0.8871
  883MOL0     H16491  10.263  10.628   9.278 -0.6150 -1.0167  1.3166
  883MOL0     H16492  10.197  10.875   9.324 -0.2598  0.9632  1.0054
  883MOL0     H16493  10.218  11.032   9.462 -1.3153 -0.3052 -0.2066
  883MOL0     H16494  10.134  11.134   9.574 -2.7971  0.4959  1.0505
  883MOL0     H16495  10.016  11.049   9.305 -2.0470  2.6923 -3.0163
  883MOL0     H16496  10.120  11.198   9.321  1.0300  0.0865  2.5574
  883MOL0     H16497   9.961  11.294   9.480  0.8241  0.9855 -2.2792
  883MOL0     H16498   9.844  11.152   9.469 -0.9787 -0.7504 -3.0492
  883MOL0     H16499   9.915  11.312   9.232 -0.2074 -2.3641 -1.9275
  883MOL0     H16500   9.782  11.206   9.248  0.3227  1.1766 -2.2214
  883MOL0     H16501   9.710  11.439   9.245 -0.4633  0.8660  0.1612
  883MOL0     H16502   9.832  11.475   9.362 -1.3160  2.4466 -1.2348
  883MOL0     H16503   9.693  11.435   9.527  0.0496  0.9778 -0.0721
  883MOL0     H16504   9.655  11.259   9.480  4.2865  0.9237  2.1199
  883MOL0     H16505   9.498  11.510   9.408  2.9781  1.5805  4.6389
  883MOL0     H16506   9.494  11.351   9.318  5.3268  3.0270 -2.9669
  883MOL0     H16507   9.425  11.416   9.604 -0.7550 -1.1252  1.3016
  883MOL0     H16508   9.417  11.250   9.525  2.3237  0.7579  0.0774
  883MOL0     H16509   9.290  11.570   9.346  1.4787 -0.6612  0.1102
  883MOL0     H16510   8.899  11.500   9.319  0.2684  1.0041  0.3512
  883MOL0     H16511   9.023  11.580   9.225 -2.0753  1.5989 -0.6392
  883MOL0     H16512   8.937  11.771   9.322 -1.8302 -1.8519 -1.3066
  883MOL0     H16513   9.066  11.728   9.427 -0.5433 -0.1391  1.2325
  883MOL0     H16514   8.769  11.685   9.450  0.0655 -1.0097 -2.4938
  883MOL0     H16515   8.878  11.588   9.557 -0.6626  0.0589  0.8439
  883MOL0     H16516   8.976  11.791   9.652  0.2098  2.4609 -0.3502
  883MOL0     H16517   8.793  11.806   9.676 -0.2921  1.4442  0.0990
  883MOL0     H16518   9.072  12.018   9.440 -0.9156  0.2278 -1.1150
  883MOL0     H16519   9.235  12.171   9.519  1.5026 -2.0964 -0.3150
  883MOL0     H16520   9.349  12.553   9.886  0.2050 -2.6181  3.1316
  883MOL0     H16521   9.555  12.659   9.971  0.4444  2.3921 -2.1405
  883MOL0     H16522   9.855  12.713   9.726  1.4753 -2.1182 -2.8418
  883MOL0     H16523   9.940  12.563   9.743 -0.0178 -0.0604  0.6657
  883MOL0     H16524  10.044  12.619   9.934 -4.8941 -2.4835  0.6688
  883MOL0     H16525   9.977  12.782   9.962  2.5320 -1.1048  1.4912
  883MOL0     H16526  10.160  12.719   9.717 -2.1994 -0.0889 -1.8692
  883MOL0     H16527  10.214  12.780   9.857  2.1259 -2.6962 -1.4812
  883MOL0     H16528  10.154  12.935   9.665  0.6716  1.7549  2.7728
  883MOL0     H16529   9.975  12.911   9.703 -1.3211  0.3988  4.2461
  883MOL0     H16530  10.032  12.987   9.938 -0.3697 -2.2465 -1.1630
  883MOL0     H16531  10.007  13.101   9.810  1.3373  0.3384 -1.7921
  883MOL0     H16532  10.237  13.137   9.776  3.1109  0.5310  1.0666
  883MOL0     H16533  10.273  12.999   9.888  0.8580 -0.5438 -3.9102
  883MOL0     H16534  10.160  13.251   9.997 -0.2424  0.7558 -2.3052
  883MOL0     H16535  10.190  13.103  10.080  1.3155  1.4298  0.7478
  883MOL0     H16536  10.370  13.269  10.117 -1.4152 -1.8767  1.8158
  883MOL0     H16537  10.412  13.256   9.944  1.0951 -1.0675  1.0809
  883MOL0     H16538   9.800  12.415   9.735  0.6492  3.4022  1.2591
  883MOL0     H16539   9.600  12.274   9.664 -1.7921 -0.6312 -0.3857
  883MOL0     H16540   8.977  12.211   9.881 -1.5735  0.4864 -0.4851
  883MOL0     H16541   8.827  12.045   9.787  1.1115  1.7684  0.5414
  883MOL0     H16542  10.000  10.750   9.680  1.2364  1.7654 -0.0066
  883MOL0     H16543  10.085  10.515   9.641  0.5093 -2.0067 -1.1028
  883MOL0     H16544  10.584  10.293   9.537  2.6523 -0.6547 -1.0430
  883MOL0     H16545  10.670  10.072   9.462 -0.1334 -1.5659 -2.3417
  883MOL0     H16546  10.683   9.758   9.265 -0.9486  0.1625  0.8388
  883MOL0     H16547  10.726   9.892   9.371 -0.7261  3.7106 -0.8774
  883MOL0     H16548  10.684   9.900   9.075 -1.6976  0.3745  1.0611
  883MOL0     H16549  10.677  10.053   9.165 -1.5674 -0.5379 -0.1236
  883MOL0     H16550  10.914  10.022   9.247 -1.0835  1.4303  0.2883
  883MOL0     H16551  10.881  10.050   9.067 -2.5750  0.0426 -0.4654
  883MOL0     H16552  10.908   9.798   9.036 -2.0083  1.3695 -0.5516
  883MOL0     H16553  11.046   9.884   9.073 -0.2736  1.7256  1.4783
  883MOL0     H16554  10.964   9.655   9.446  0.2609  1.3900  0.9416
  883MOL0     H16555  10.294   9.970   9.305 -0.6359 -0.7787  1.0080
  883MOL0     H16556  10.208  10.194   9.380 -0.0651  0.7105 -1.2745
  884MOL0     O16557   7.625   2.016   8.333 -0.2745  0.3780  0.0103
  884MOL0     C16558   7.712   2.099   8.365  0.0344 -0.4741 -0.5479
  884MOL0     O16559   7.688   2.224   8.415  0.1562 -0.4966 -0.2537
  884MOL0     C16560   7.552   2.254   8.433  0.3580  0.4058  0.4881
  884MOL0     C16561   7.522   2.290   8.565  0.4721  0.4528  0.1226
  884MOL0     C16562   7.391   2.339   8.595 -0.1366  0.0004 -0.5307
  884MOL0     C16563   7.292   2.351   8.493 -0.2568 -0.5146 -0.2102
  884MOL0     O16564   7.165   2.411   8.523 -0.3158  0.3895 -0.3299
  884MOL0     C16565   7.151   2.557   8.520  0.6846  0.4875 -0.1630
  884MOL0     C16566   7.151   2.601   8.660  0.8242  1.0630  0.1107
  884MOL0     C16567   7.044   2.529   8.753 -0.5232 -0.3619 -0.4450
  884MOL0     C16568   6.911   2.506   8.686 -0.2998  0.6409  1.0387
  884MOL0     C16569   6.787   2.486   8.780  0.5366 -1.1132 -0.1671
  884MOL0     C16570   6.669   2.430   8.702 -0.1779  0.2980 -0.4174
  884MOL0     C16571   6.532   2.476   8.747 -0.2391  0.0747  0.5208
  884MOL0     C16572   6.468   2.397   8.862  0.2812 -0.4906  0.1531
  884MOL0     N16573   6.380   2.294   8.804 -0.2624  0.7054  0.1809
  884MOL0     C16574   6.409   2.162   8.797 -0.4059  0.0135 -0.8016
  884MOL0     C16575   6.302   2.112   8.739 -0.7113  0.4053 -0.7728
  884MOL0     C16576   6.285   1.963   8.760  0.5562  0.4563  0.9572
  884MOL0     C16577   6.325   1.875   8.633 -0.2293  0.5122 -0.3441
  884MOL0     C16578   6.409   1.745   8.657 -0.6539  0.1943 -0.8162
  884MOL0     C16579   6.346   1.625   8.728  0.2732 -0.9006  0.6946
  884MOL0     O16580   6.219   1.583   8.669 -0.1585  0.3842 -0.0726
  884MOL0     C16581   6.213   1.521   8.551 -0.6741 -0.3585  1.2989
  884MOL0     C16582   6.078   1.504   8.499 -0.2611 -0.9590  0.0095
  884MOL0     C16583   6.066   1.429   8.379 -0.0615 -0.3297 -0.1305
  884MOL0     C16584   6.186   1.386   8.305 -0.4387 -0.1459 -0.3416
  884MOL0     C16585   6.181   1.328   8.172 -0.0930  0.8420  0.6878
  884MOL0     O16586   6.075   1.380   8.090 -1.3151 -0.1186 -0.4230
  884MOL0     C16587   6.051   1.319   7.967 -0.1955 -0.6426 -0.1730
  884MOL0     C16588   6.107   1.363   7.848  0.2830  0.2192 -0.5499
  884MOL0     C16589   6.058   1.309   7.729  0.6554  0.0771 -0.3745
  884MOL0     C16590   5.963   1.209   7.734  0.0803  0.8701  0.5873
  884MOL0     O16591   5.922   1.144   7.624  0.0677 -0.3325 -0.6282
  884MOL0     C16592   5.882   1.219   7.507  0.4581 -0.3952 -0.7776
  884MOL0     C16593   5.783   1.138   7.427 -0.2339  0.5137  0.3689
  884MOL0     C16594   5.755   1.209   7.295 -0.2796  0.2282  1.1230
  884MOL0     C16595   5.651   1.154   7.209  0.9928 -0.4419  0.7110
  884MOL0     C16596   5.655   1.225   7.064  0.8553 -0.4878 -0.8272
  884MOL0     C16597   5.597   1.371   7.071  0.6509  0.8837 -0.3036
  884MOL0     C16598   5.450   1.392   7.097 -0.4986  0.2149  0.5629
  884MOL0     C16599   5.425   1.486   7.213  0.2094 -0.3647 -0.2803
  884MOL0    Cl16600   5.252   1.504   7.226 -0.1437  0.3169 -0.1419
  884MOL0     C16601   5.906   1.164   7.849  1.1386  0.0587 -0.0810
  884MOL0     C16602   5.948   1.229   7.968  0.3934 -0.6303  0.4232
  884MOL0     O16603   6.255   1.238   8.148 -0.1939  0.1675  0.3537
  884MOL0     C16604   6.315   1.403   8.367 -0.3791 -0.3990 -0.1567
  884MOL0     C16605   6.332   1.469   8.494  0.7914  0.8764 -1.3086
  884MOL0     N16606   6.202   2.210   8.729  0.5181  1.2618 -0.0053
  884MOL0     N16607   6.252   2.318   8.768 -0.4647  0.2795 -0.4455
  884MOL0     C16608   7.324   2.308   8.367  0.2805 -0.1794  0.2911
  884MOL0     C16609   7.454   2.267   8.334  0.8582 -1.1311  0.5186
  884MOL0     C16610   7.860   2.066   8.336  0.4852  0.2693  0.0504
  884MOL0     C16611   7.956   2.161   8.324 -0.0554 -0.5919 -0.8178
  884MOL0     C16612   8.088   2.121   8.297 -0.7645 -0.2045  0.3141
  884MOL0     C16613   8.121   1.981   8.287 -0.1831 -0.0621  0.2871
  884MOL0     O16614   8.250   1.941   8.290 -0.0029 -0.2599 -0.3212
  884MOL0     C16615   8.360   2.032   8.333 -0.0546  0.6784  0.0946
  884MOL0     C16616   8.496   1.945   8.313  0.1210 -0.3754  0.3526
  884MOL0     C16617   8.492   1.820   8.398 -0.1137  0.1551 -0.6889
  884MOL0     C16618   8.632   1.746   8.423  0.2308 -1.3647 -0.6814
  884MOL0     C16619   8.752   1.828   8.443  0.5481  0.0699  0.2023
  884MOL0     C16620   8.839   1.906   8.484 -0.1134  0.4467  0.2923
  884MOL0     C16621   8.025   1.883   8.302  0.2887  0.2523 -0.0090
  884MOL0     C16622   7.890   1.931   8.328 -0.0742  1.4286 -0.7776
  884MOL0     H16623   7.602   2.298   8.639 -0.7397  2.3529  1.3036
  884MOL0     H16624   7.379   2.368   8.699 -0.6480  0.7449 -0.7887
  884MOL0     H16625   7.059   2.587   8.470  1.4503  0.7604 -1.4430
  884MOL0     H16626   7.233   2.602   8.464  1.2845  1.0933  1.1541
  884MOL0     H16627   7.120   2.705   8.656  2.4830  1.6260  1.0358
  884MOL0     H16628   7.245   2.599   8.716 -1.0958  1.4390  3.6809
  884MOL0     H16629   7.032   2.598   8.837  0.4645  3.3538 -3.0834
  884MOL0     H16630   7.088   2.432   8.778 -0.2195 -0.1378 -0.0826
  884MOL0     H16631   6.878   2.592   8.628  0.2639 -0.0711 -0.3930
  884MOL0     H16632   6.920   2.421   8.617 -3.2566  1.4823 -0.5257
  884MOL0     H16633   6.759   2.573   8.840 -0.9754 -2.2930  0.9165
  884MOL0     H16634   6.815   2.411   8.855  0.7000 -0.1199  0.7965
  884MOL0     H16635   6.685   2.322   8.693  2.6106 -0.0934  5.1835
  884MOL0     H16636   6.683   2.461   8.598 -0.3223 -0.5985 -0.7127
  884MOL0     H16637   6.530   2.579   8.782 -2.8289  0.1891  0.1697
  884MOL0     H16638   6.474   2.490   8.656 -0.5827  1.7033  0.9646
  884MOL0     H16639   6.407   2.473   8.911  1.3986  0.2851  0.3781
  884MOL0     H16640   6.539   2.355   8.934 -1.0641 -0.6594  1.4211
  884MOL0     H16641   6.499   2.111   8.829 -0.8753 -0.2114  0.2091
  884MOL0     H16642   6.186   1.933   8.794 -0.7037  1.7599 -1.3312
  884MOL0     H16643   6.362   1.935   8.832  1.9186  0.5488 -0.3962
  884MOL0     H16644   6.389   1.943   8.576  0.6597  2.0846  2.3221
  884MOL0     H16645   6.236   1.846   8.576  1.7026 -3.2903 -1.7367
  884MOL0     H16646   6.447   1.713   8.560  2.3353  3.2797 -0.8417
  884MOL0     H16647   6.497   1.771   8.716 -1.3827 -1.4695  1.1267
  884MOL0     H16648   6.317   1.659   8.827 -4.7122 -2.3353 -0.0078
  884MOL0     H16649   6.407   1.533   8.730 -0.6223 -1.6525 -2.0224
  884MOL0     H16650   5.999   1.565   8.541 -0.4279  0.0546 -1.7033
  884MOL0     H16651   5.969   1.410   8.333  0.1059 -0.8145 -0.2903
  884MOL0     H16652   6.176   1.447   7.844 -1.6279  2.0374  1.8347
  884MOL0     H16653   6.086   1.356   7.635 -0.2385  2.4886  0.4956
  884MOL0     H16654   5.967   1.241   7.442  1.5180 -0.7045  0.4646
  884MOL0     H16655   5.820   1.303   7.540 -1.4805 -2.5453  1.3632
  884MOL0     H16656   5.678   1.134   7.459 -0.1812  0.2913  0.5162
  884MOL0     H16657   5.813   1.036   7.399 -3.0300 -0.0730 -0.8594
  884MOL0     H16658   5.852   1.222   7.245  0.3302  2.4320  2.7048
  884MOL0     H16659   5.725   1.312   7.319 -3.7739 -0.7714  1.4790
  884MOL0     H16660   5.675   1.048   7.204 -1.0259 -1.2122  3.9843
  884MOL0     H16661   5.556   1.158   7.262  0.4446 -0.3697 -0.2572
  884MOL0     H16662   5.589   1.160   7.006  1.0521 -1.6386  0.2102
  884MOL0     H16663   5.747   1.222   7.004 -0.0358  2.3271 -2.5166
  884MOL0     H16664   5.617   1.422   6.977 -1.0242  1.7750 -0.2154
  884MOL0     H16665   5.659   1.423   7.144  0.5762 -0.0457  0.4465
  884MOL0     H16666   5.408   1.437   7.007  0.8937  2.4989  0.9701
  884MOL0     H16667   5.402   1.295   7.111 -1.8437  0.9400  1.1227
  884MOL0     H16668   5.476   1.580   7.192  1.4247 -0.8380  0.4221
  884MOL0     H16669   5.481   1.448   7.299  0.3862  0.8387  0.1512
  884MOL0     H16670   5.829   1.089   7.857  3.6012 -2.4278  2.1304
  884MOL0     H16671   5.893   1.206   8.059 -2.4279  0.1114 -1.0095
  884MOL0     H16672   6.402   1.378   8.306  0.0700  2.3782 -0.8061
  884MOL0     H16673   6.429   1.483   8.541 -0.2959  2.0484  0.6965
  884MOL0     H16674   7.246   2.328   8.294  0.6332 -0.3177 -0.1263
  884MOL0     H16675   7.478   2.237   8.232 -4.1219 -0.5794 -1.1208
  884MOL0     H16676   7.941   2.268   8.322  2.1707 -0.2205 -0.5955
  884MOL0     H16677   8.161   2.201   8.289 -1.8903  0.9392  1.1156
  884MOL0     H16678   8.338   2.060   8.436  0.9438 -3.3363  1.5841
  884MOL0     H16679   8.361   2.118   8.266 -2.6662  0.5407 -0.2135
  884MOL0     H16680   8.513   1.928   8.206  0.1696  0.9550  0.1401
  884MOL0     H16681   8.572   2.003   8.366  0.3712 -1.5530  1.3518
  884MOL0     H16682   8.409   1.753   8.373 -0.6981  0.5316  0.1732
  884MOL0     H16683   8.463   1.859   8.496 -0.3828 -0.9752 -0.2975
  884MOL0     H16684   8.631   1.682   8.511  3.0213 -1.0766 -0.3365
  884MOL0     H16685   8.653   1.690   8.331 -0.0357  1.4356 -2.5875
  884MOL0     H16686   8.914   1.974   8.520  2.3470 -1.1715 -1.4847
  884MOL0     H16687   8.040   1.775   8.295 -1.4380  0.0332 -0.9395
  884MOL0     H16688   7.816   1.852   8.326  1.0086  0.4128 -2.7864
  885MOL0     O16689   6.613   1.877   6.220  0.1814  1.0226  0.4114
  885MOL0     C16690   6.687   1.966   6.175 -0.9413  0.0167 -0.1254
  885MOL0     O16691   6.826   1.959   6.161 -0.7074  0.1379 -0.0112
  885MOL0     C16692   6.899   1.863   6.216  0.5785  0.2448 -0.3826
  885MOL0     C16693   6.872   1.730   6.198 -0.3091  0.4822  0.5273
  885MOL0     C16694   6.954   1.633   6.256  0.0095 -0.2088  0.0805
  885MOL0     C16695   7.059   1.672   6.338  0.7770  0.1096 -0.2002
  885MOL0     O16696   7.140   1.578   6.398 -0.1048  0.1451  0.4644
  885MOL0     C16697   7.155   1.593   6.542  0.2829  0.1924  0.3508
  885MOL0     C16698   7.158   1.453   6.606  0.0625 -0.9164 -0.5369
  885MOL0     C16699   7.262   1.350   6.572 -1.0421  0.4522 -0.0198
  885MOL0     C16700   7.269   1.317   6.421  0.1081 -1.2340  0.6260
  885MOL0     C16701   7.314   1.169   6.391 -0.2475 -0.1055 -0.1378
  885MOL0     C16702   7.279   1.128   6.247 -0.0279 -0.4073  0.5255
  885MOL0     C16703   7.338   1.003   6.198 -0.2308  0.1354  0.0510
  885MOL0     C16704   7.273   0.868   6.241 -0.1418  0.2995 -0.0583
  885MOL0     N16705   7.292   0.834   6.376  0.2152 -0.7834  0.4796
  885MOL0     C16706   7.412   0.823   6.437 -0.2220  0.1408 -0.3547
  885MOL0     C16707   7.374   0.808   6.569 -0.0408 -0.0943 -0.2794
  885MOL0     C16708   7.485   0.793   6.683  0.4773 -0.2041  0.0320
  885MOL0     C16709   7.528   0.924   6.740  0.4382  0.6507  0.4207
  885MOL0     C16710   7.409   0.984   6.816  0.5787  0.0013 -0.5807
  885MOL0     C16711   7.460   1.111   6.897  0.1459  0.4590 -0.3090
  885MOL0     O16712   7.564   1.082   6.990 -0.5040  0.2733  0.2707
  885MOL0     C16713   7.526   1.020   7.109  0.0282 -0.6188 -0.0808
  885MOL0     C16714   7.643   1.002   7.191  0.1261  1.3094 -0.2139
  885MOL0     C16715   7.627   0.952   7.321  0.4067 -0.2622 -0.0686
  885MOL0     C16716   7.500   0.928   7.370  0.4651  0.7317 -0.2974
  885MOL0     C16717   7.475   0.890   7.507  0.0416  0.7140 -0.0168
  885MOL0     O16718   7.585   0.855   7.584  0.0191 -0.4809  0.4419
  885MOL0     C16719   7.576   0.862   7.723  0.2997  0.1290  0.1628
  885MOL0     C16720   7.637   0.765   7.803  0.8444  0.6274 -0.5481
  885MOL0     C16721   7.644   0.768   7.946 -0.5836 -0.8109  0.3658
  885MOL0     C16722   7.578   0.879   8.014 -0.2801 -0.0498 -0.5175
  885MOL0     O16723   7.594   0.876   8.152  0.1046  0.0345  0.1893
  885MOL0     C16724   7.534   0.979   8.233 -0.5978  0.2625 -0.0920
  885MOL0     C16725   7.576   0.936   8.375  0.2731 -0.4934  0.3246
  885MOL0     C16726   7.520   1.038   8.481 -0.5822 -0.7417  0.2083
  885MOL0     C16727   7.577   0.984   8.613 -0.5055  0.4831 -0.2179
  885MOL0     C16728   7.720   1.027   8.639 -0.0851 -0.6313 -0.2804
  885MOL0     C16729   7.778   0.967   8.771  0.7648 -0.0548  0.3514
  885MOL0     C16730   7.928   0.932   8.763  0.4740  0.6980 -0.2809
  885MOL0     C16731   8.014   1.051   8.732  0.5977 -0.0409 -0.5064
  885MOL0    Cl16732   8.203   1.002   8.735 -0.1064 -0.0825 -0.2553
  885MOL0     C16733   7.510   0.973   7.935 -0.7159 -0.9771 -0.6852
  885MOL0     C16734   7.514   0.970   7.792 -0.2250  0.5402 -0.4323
  885MOL0     O16735   7.354   0.876   7.549 -0.6441 -0.2644 -0.2062
  885MOL0     C16736   7.387   0.933   7.289 -0.8474  0.2459  0.0216
  885MOL0     C16737   7.401   0.994   7.152  0.3368  0.5353 -0.3892
  885MOL0     N16738   7.236   0.813   6.585  0.1136  0.8468 -1.0668
  885MOL0     N16739   7.189   0.832   6.469  0.4001 -0.1493 -0.0077
  885MOL0     C16740   7.069   1.802   6.378  0.0959 -0.4803 -0.2664
  885MOL0     C16741   6.990   1.901   6.313  0.2588  0.4814 -0.2102
  885MOL0     C16742   6.625   2.087   6.121 -0.1714  0.4619 -0.1503
  885MOL0     C16743   6.487   2.103   6.123  0.6704 -0.2764 -0.2859
  885MOL0     C16744   6.419   2.223   6.078 -0.3526 -0.1713 -0.2565
  885MOL0     C16745   6.501   2.323   6.017 -0.7968  0.2185  0.4447
  885MOL0     O16746   6.450   2.437   5.954 -0.1986  0.3377  0.5100
  885MOL0     C16747   6.313   2.475   5.964 -0.3158 -0.1391  0.0292
  885MOL0     C16748   6.305   2.614   5.898 -0.3729  0.5266 -0.4971
  885MOL0     C16749   6.175   2.693   5.932 -0.3040  0.6319 -1.0888
  885MOL0     C16750   6.167   2.840   5.899 -1.5879 -0.3970 -0.5808
  885MOL0     C16751   6.067   2.911   5.978  0.3989  0.2716  0.8530
  885MOL0     C16752   5.979   2.969   6.028 -0.3142  1.1016  0.3967
  885MOL0     C16753   6.637   2.300   6.019  0.1885 -0.1606  0.6958
  885MOL0     C16754   6.706   2.184   6.065  0.7167  0.7301 -0.2566
  885MOL0     H16755   6.787   1.694   6.141 -0.4650  0.7220  0.6078
  885MOL0     H16756   6.937   1.527   6.241 -0.2288 -0.4212  1.6884
  885MOL0     H16757   7.064   1.636   6.584 -1.0396 -2.8022  0.7882
  885MOL0     H16758   7.237   1.661   6.566 -1.0327  2.4365 -1.2031
  885MOL0     H16759   7.071   1.396   6.570 -0.0424 -0.7668 -0.5174
  885MOL0     H16760   7.166   1.467   6.714 -1.3842  3.9415 -0.8270
  885MOL0     H16761   7.243   1.264   6.637  1.1058 -0.2431 -0.2415
  885MOL0     H16762   7.358   1.395   6.599 -1.4595  2.1555 -1.1979
  885MOL0     H16763   7.171   1.333   6.374  0.9378 -0.5245 -0.9365
  885MOL0     H16764   7.338   1.391   6.380 -0.2869 -0.7371  0.8312
  885MOL0     H16765   7.255   1.104   6.456  0.2425  0.0764  0.4905
  885MOL0     H16766   7.421   1.159   6.409  0.2069  2.1572 -1.2455
  885MOL0     H16767   7.325   1.215   6.199 -1.1796 -0.0841 -0.0261
  885MOL0     H16768   7.173   1.140   6.223  0.2266  1.0201  0.0261
  885MOL0     H16769   7.348   0.999   6.089 -2.6627  0.8614 -0.2609
  885MOL0     H16770   7.442   1.004   6.234  0.5472 -0.5617 -2.0021
  885MOL0     H16771   7.315   0.794   6.171  1.8072  0.8691  0.4455
  885MOL0     H16772   7.165   0.877   6.224 -0.2389 -0.2262  0.2636
  885MOL0     H16773   7.511   0.832   6.393 -0.9558  1.1489 -1.8544
  885MOL0     H16774   7.571   0.752   6.629  1.1618 -0.5936  1.3736
  885MOL0     H16775   7.451   0.718   6.756  1.7909 -0.8207  0.0518
  885MOL0     H16776   7.564   0.990   6.660 -0.3874  2.4347  1.4534
  885MOL0     H16777   7.614   0.901   6.804  1.6932 -1.0281 -1.7313
  885MOL0     H16778   7.322   1.010   6.755 -0.8072 -1.9954  0.4010
  885MOL0     H16779   7.375   0.912   6.891  1.3604  0.8291  0.5928
  885MOL0     H16780   7.380   1.173   6.939 -0.4172  0.0602 -0.7804
  885MOL0     H16781   7.502   1.184   6.827 -3.2239  3.2566  0.2855
  885MOL0     H16782   7.743   1.026   7.155 -0.5094 -0.5550 -3.6270
  885MOL0     H16783   7.701   0.939   7.400 -1.6589 -0.6726  1.9262
  885MOL0     H16784   7.700   0.696   7.748  3.3564  0.6540  2.0193
  885MOL0     H16785   7.696   0.693   8.005 -2.6167 -0.3775  2.8920
  885MOL0     H16786   7.425   0.977   8.230 -0.6103 -2.9876 -0.8807
  885MOL0     H16787   7.581   1.078   8.221 -1.6582  0.7829 -0.0880
  885MOL0     H16788   7.685   0.939   8.372  0.2427  1.0596 -1.9338
  885MOL0     H16789   7.528   0.840   8.399 -4.0619  1.5797  1.0609
  885MOL0     H16790   7.411   1.045   8.481 -0.6200 -0.4132 -1.9451
  885MOL0     H16791   7.564   1.138   8.473 -1.6265 -0.0808  2.1082
  885MOL0     H16792   7.508   1.022   8.689 -0.5499  0.2384 -0.1371
  885MOL0     H16793   7.585   0.876   8.627  5.6117  0.6469  0.1819
  885MOL0     H16794   7.733   1.135   8.633 -2.1192 -0.0743  2.8406
  885MOL0     H16795   7.779   0.967   8.569 -0.8577 -5.4000  2.6334
  885MOL0     H16796   7.720   0.877   8.793 -1.0252  1.7438  3.7694
  885MOL0     H16797   7.762   1.041   8.850 -1.0128 -0.0401  0.0094
  885MOL0     H16798   7.958   0.894   8.861 -2.2533  2.7170  1.4950
  885MOL0     H16799   7.952   0.855   8.690  0.9853 -2.3031  2.7739
  885MOL0     H16800   7.991   1.132   8.801 -2.7518 -0.8907 -0.4916
  885MOL0     H16801   7.987   1.087   8.632 -3.3261  1.2871  0.8719
  885MOL0     H16802   7.461   1.061   7.975  1.6018 -0.2576  0.7456
  885MOL0     H16803   7.457   1.052   7.750  1.3443  0.9870 -1.8211
  885MOL0     H16804   7.290   0.900   7.325  0.3828 -2.0903  1.4465
  885MOL0     H16805   7.307   0.995   7.098 -0.1097  0.6356  0.3658
  885MOL0     H16806   7.150   1.834   6.444 -1.1533  0.5352  0.8366
  885MOL0     H16807   7.012   2.007   6.321 -2.8042  1.2799 -1.1616
  885MOL0     H16808   6.430   2.019   6.160  0.8814 -0.2659  0.0594
  885MOL0     H16809   6.311   2.236   6.077 -0.3647  1.0558 -4.5274
  885MOL0     H16810   6.300   2.485   6.072  1.8696 -2.2871  0.5804
  885MOL0     H16811   6.242   2.399   5.930  0.7763  0.3799 -3.9288
  885MOL0     H16812   6.389   2.681   5.919  1.5948 -1.5822 -1.2699
  885MOL0     H16813   6.306   2.597   5.790 -0.5737 -0.6245 -0.3244
  885MOL0     H16814   6.165   2.692   6.041  3.2139  1.5248 -0.6569
  885MOL0     H16815   6.088   2.636   5.898 -1.4501  0.4137  1.8840
  885MOL0     H16816   6.266   2.886   5.908 -0.8382 -1.8048 -1.2895
  885MOL0     H16817   6.132   2.848   5.795  0.7544  2.6576 -1.2664
  885MOL0     H16818   5.899   3.027   6.068 -2.3382 -0.0412 -1.7072
  885MOL0     H16819   6.701   2.377   5.978 -2.5949  1.2997 -1.2180
  885MOL0     H16820   6.812   2.165   6.055  0.3903 -2.4054  0.8861
  886MOL0     O16821   7.600   8.569   4.595  0.2540  0.4671  0.2116
  886MOL0     C16822   7.607   8.621   4.708  0.4130 -0.2002 -0.0661
  886MOL0     O16823   7.509   8.697   4.766  0.4398 -0.8021 -0.0912
  886MOL0     C16824   7.397   8.736   4.698  0.3081  0.4815  0.0373
  886MOL0     C16825   7.307   8.795   4.779  0.4239 -0.8010 -0.3550
  886MOL0     C16826   7.192   8.853   4.735 -0.1946 -0.2847  0.1299
  886MOL0     C16827   7.158   8.849   4.601 -0.2076  0.9268  1.0306
  886MOL0     O16828   7.054   8.925   4.553 -0.2455  0.1996 -0.4398
  886MOL0     C16829   6.987   8.878   4.433 -1.4035  0.7072  0.4567
  886MOL0     C16830   6.855   8.951   4.404 -0.0524 -1.1865  0.1905
  886MOL0     C16831   6.861   9.099   4.422  0.7040 -0.1013  0.0446
  886MOL0     C16832   6.790   9.177   4.308 -0.4713 -0.1155  0.1242
  886MOL0     C16833   6.774   9.325   4.352  0.7233 -0.5508  0.1697
  886MOL0     C16834   6.712   9.393   4.230  0.7459 -1.1109 -0.0992
  886MOL0     C16835   6.674   9.538   4.253 -0.6479 -0.3928  0.0755
  886MOL0     C16836   6.784   9.633   4.301 -0.2541 -0.6119  0.3072
  886MOL0     N16837   6.731   9.773   4.311 -0.2531  0.0517  0.1121
  886MOL0     C16838   6.753   9.869   4.411  0.0548  0.0484  0.5757
  886MOL0     C16839   6.703   9.987   4.369 -0.1898  0.0172  0.1856
  886MOL0     C16840   6.709  10.110   4.453  0.0836 -0.2859  0.2016
  886MOL0     C16841   6.862  10.152   4.467  0.1979  0.4405  0.1669
  886MOL0     C16842   6.866  10.286   4.537 -0.7396  0.1302 -0.0562
  886MOL0     C16843   6.861  10.289   4.688  0.7895 -0.1656 -0.3286
  886MOL0     O16844   6.737  10.246   4.743  0.8507  0.1397 -0.2117
  886MOL0     C16845   6.625  10.325   4.749  0.6117 -1.0072 -0.1878
  886MOL0     C16846   6.595  10.453   4.684  0.3276 -0.2167  0.0863
  886MOL0     C16847   6.471  10.517   4.714 -0.2320 -1.5048 -0.4012
  886MOL0     C16848   6.386  10.469   4.818 -0.6791 -0.1168  0.1188
  886MOL0     C16849   6.259  10.542   4.849  0.0494  0.3824  0.6387
  886MOL0     O16850   6.240  10.663   4.792  0.0395  0.0712  0.5056
  886MOL0     C16851   6.122  10.737   4.815 -0.5589 -0.7480  0.5145
  886MOL0     C16852   5.995  10.676   4.833 -0.2438 -0.2817  0.2030
  886MOL0     C16853   5.881  10.756   4.860 -0.5949  0.0046  0.2685
  886MOL0     C16854   5.882  10.892   4.862  0.3096 -0.0755  0.8203
  886MOL0     O16855   5.758  10.954   4.881  0.4004  0.5706 -0.4053
  886MOL0     C16856   5.736  11.089   4.932 -0.7267 -0.1472 -0.3452
  886MOL0     C16857   5.583  11.101   4.940 -0.5400  0.1919  0.3477
  886MOL0     C16858   5.523  11.009   5.052 -0.4669  1.3270  1.1567
  886MOL0     C16859   5.365  11.020   5.066 -1.0812  0.1759 -0.3937
  886MOL0     C16860   5.292  10.919   4.982 -0.4194 -0.0271 -0.7380
  886MOL0     C16861   5.337  10.764   5.015 -0.0147 -0.9058  0.9318
  886MOL0     C16862   5.299  10.733   5.154  0.6569  1.1378  0.7666
  886MOL0     C16863   5.315  10.577   5.181 -0.2405  0.0661 -0.1767
  886MOL0    Cl16864   5.217  10.530   5.326  0.3395  0.0842  0.3162
  886MOL0     C16865   6.007  10.952   4.845  0.1395 -0.5048  0.8155
  886MOL0     C16866   6.122  10.880   4.826 -0.3371  0.9685 -0.5550
  886MOL0     O16867   6.182  10.484   4.927 -0.1272  0.1358  0.2164
  886MOL0     C16868   6.420  10.352   4.882  0.8441 -0.3359  0.4978
  886MOL0     C16869   6.537  10.280   4.848 -0.5213 -0.9181 -0.9717
  886MOL0     N16870   6.644   9.959   4.245  0.9983  0.5328 -0.3095
  886MOL0     N16871   6.667   9.832   4.210 -0.1502  0.1957  0.2520
  886MOL0     C16872   7.249   8.786   4.506  0.1403  0.1400 -0.4472
  886MOL0     C16873   7.364   8.732   4.560 -0.1209  0.3755  0.3806
  886MOL0     C16874   7.718   8.574   4.798 -0.1460  0.3913  1.2810
  886MOL0     C16875   7.762   8.649   4.911  0.0276  0.4580  0.0217
  886MOL0     C16876   7.869   8.600   4.995  0.5477  0.0447  0.0070
  886MOL0     C16877   7.939   8.485   4.950 -0.9881 -0.2059 -0.3695
  886MOL0     O16878   8.043   8.433   5.030  0.1810 -0.2081 -0.2387
  886MOL0     C16879   8.095   8.514   5.129  0.3584  0.1046 -0.1522
  886MOL0     C16880   8.201   8.426   5.206  0.2323 -0.7575  0.6257
  886MOL0     C16881   8.253   8.495   5.328 -0.6717  0.2557  0.4323
  886MOL0     C16882   8.391   8.455   5.385  0.6315 -0.2505  0.3911
  886MOL0     C16883   8.384   8.311   5.412  0.0314 -0.6986  0.0492
  886MOL0     C16884   8.383   8.192   5.442 -1.3959  0.1217  0.2679
  886MOL0     C16885   7.901   8.425   4.834  0.7029  0.5676  0.2757
  886MOL0     C16886   7.794   8.470   4.754 -0.6914  0.6020  0.5002
  886MOL0     H16887   7.312   8.817   4.885 -0.6216  0.9826 -0.6373
  886MOL0     H16888   7.132   8.914   4.802 -0.3859  0.0985 -0.3777
  886MOL0     H16889   6.965   8.772   4.448 -1.2524  0.6516  0.2947
  886MOL0     H16890   7.059   8.881   4.351 -0.7176  0.2935  1.0208
  886MOL0     H16891   6.775   8.900   4.458  1.9252 -2.1309  2.3932
  886MOL0     H16892   6.825   8.941   4.299  1.9180  0.7386 -0.6386
  886MOL0     H16893   6.965   9.132   4.430  0.7257 -0.6558  4.7945
  886MOL0     H16894   6.818   9.114   4.521  0.5888 -3.4304  0.6078
  886MOL0     H16895   6.868   9.176   4.233 -1.4547 -0.6905 -0.9188
  886MOL0     H16896   6.700   9.123   4.276 -0.1858 -0.4030 -0.1967
  886MOL0     H16897   6.860   9.386   4.380  0.6446  1.8786 -3.9611
  886MOL0     H16898   6.690   9.344   4.419  0.8462 -1.2281  0.5174
  886MOL0     H16899   6.623   9.339   4.198 -1.0277  2.0825 -0.9751
  886MOL0     H16900   6.780   9.381   4.145 -0.9441 -0.9969 -1.5337
  886MOL0     H16901   6.626   9.567   4.159  0.8765 -1.9032 -1.2209
  886MOL0     H16902   6.599   9.552   4.331  0.7987  1.5088  1.2399
  886MOL0     H16903   6.871   9.626   4.235  1.5839  0.9934  2.3915
  886MOL0     H16904   6.828   9.617   4.400  2.0568  2.8387  0.0227
  886MOL0     H16905   6.798   9.854   4.509  1.9505 -1.1417 -0.4180
  886MOL0     H16906   6.668  10.094   4.553 -0.4775 -1.5496 -0.2160
  886MOL0     H16907   6.644  10.185   4.407  2.3931  2.6334  1.3574
  886MOL0     H16908   6.893  10.149   4.362 -2.7464 -1.1426 -0.7682
  886MOL0     H16909   6.925  10.084   4.526 -1.3053 -0.3926  0.8899
  886MOL0     H16910   6.966  10.326   4.517 -1.4088  1.8929 -0.0574
  886MOL0     H16911   6.797  10.361   4.495  1.6232  2.4467 -0.0866
  886MOL0     H16912   6.873  10.391   4.726 -1.2648  0.2152 -0.5585
  886MOL0     H16913   6.936  10.223   4.731 -1.0646 -3.5356 -1.8289
  886MOL0     H16914   6.656  10.504   4.610 -1.3854  0.8304 -0.6846
  886MOL0     H16915   6.452  10.600   4.646  2.9426 -0.3892 -0.0996
  886MOL0     H16916   5.981  10.570   4.816 -0.1918 -0.8895  3.3313
  886MOL0     H16917   5.784  10.709   4.876 -1.0093  0.7004 -0.1646
  886MOL0     H16918   5.795  11.162   4.877  2.7820 -0.9872  2.0035
  886MOL0     H16919   5.775  11.091   5.034 -1.4028  0.3290 -0.0897
  886MOL0     H16920   5.544  11.091   4.838  1.9376  2.8595 -1.0257
  886MOL0     H16921   5.559  11.206   4.957 -3.1732 -0.2722 -0.1192
  886MOL0     H16922   5.573  11.029   5.148  1.3163  0.3730  0.4777
  886MOL0     H16923   5.553  10.910   5.018 -0.1440  1.4329  1.1309
  886MOL0     H16924   5.353  11.001   5.173  0.4313 -2.5082 -0.6147
  886MOL0     H16925   5.332  11.123   5.050 -0.6462  0.2657 -0.7484
  886MOL0     H16926   5.311  10.934   4.875  0.7576 -2.2317 -0.9215
  886MOL0     H16927   5.184  10.927   4.997 -0.3416  0.5208 -0.4493
  886MOL0     H16928   5.443  10.752   4.993  0.3488  2.5904  0.1740
  886MOL0     H16929   5.283  10.704   4.941  0.1197  2.9060 -2.6219
  886MOL0     H16930   5.368  10.786   5.220  1.5220  0.9962 -0.0079
  886MOL0     H16931   5.201  10.772   5.183  0.9376  1.2983  1.5309
  886MOL0     H16932   5.422  10.558   5.194 -0.2969  0.2164  0.5207
  886MOL0     H16933   5.297  10.515   5.092  1.0597 -1.0082  0.2924
  886MOL0     H16934   6.008  11.061   4.850  2.0578 -0.5128  1.3048
  886MOL0     H16935   6.208  10.945   4.824  0.6184 -0.1881  1.0289
  886MOL0     H16936   6.358  10.321   4.966  0.9967 -0.7032  0.4798
  886MOL0     H16937   6.565  10.179   4.876  3.2676  0.3772  0.5105
  886MOL0     H16938   7.237   8.786   4.398 -1.6130 -5.7901 -0.6270
  886MOL0     H16939   7.430   8.692   4.484 -1.0330  0.2079 -0.3543
  886MOL0     H16940   7.709   8.736   4.947 -0.4050  0.1599  0.1188
  886MOL0     H16941   7.885   8.662   5.083  0.1241 -0.2021  0.2569
  886MOL0     H16942   8.015   8.543   5.199  0.9471 -1.0813  1.0734
  886MOL0     H16943   8.132   8.605   5.083 -0.4041  2.1817  3.0490
  886MOL0     H16944   8.144   8.335   5.228 -0.8772 -0.3694 -0.4923
  886MOL0     H16945   8.283   8.414   5.135 -1.2775  3.9866 -2.4120
  886MOL0     H16946   8.175   8.485   5.404 -2.1969  1.8060 -0.8360
  886MOL0     H16947   8.256   8.602   5.305  4.0733  0.1339 -0.6042
  886MOL0     H16948   8.462   8.481   5.307 -0.8491 -0.9042 -1.2424
  886MOL0     H16949   8.394   8.507   5.481 -0.5670 -1.5169  1.1609
  886MOL0     H16950   8.387   8.086   5.459  1.2944  0.1882  0.5482
  886MOL0     H16951   7.962   8.341   4.801 -2.2218 -2.1087  1.2015
  886MOL0     H16952   7.783   8.417   4.660  3.1127  1.5941 -0.7004
  887MOL0     O16953   5.985   5.468   3.113  0.1929  0.2828  0.4677
  887MOL0     C16954   6.017   5.569   3.178 -0.5258 -0.0841 -0.6248
  887MOL0     O16955   6.125   5.581   3.268 -0.1916 -0.3468 -0.2453
  887MOL0     C16956   6.214   5.475   3.280 -0.6003 -0.1242  0.3475
  887MOL0     C16957   6.262   5.393   3.179  0.1483  0.8142 -0.0891
  887MOL0     C16958   6.358   5.299   3.192  0.5421  0.4464 -0.4287
  887MOL0     C16959   6.412   5.275   3.312  0.2360 -0.7427 -1.0462
  887MOL0     O16960   6.498   5.170   3.322  0.0342  0.4997 -0.0142
  887MOL0     C16961   6.579   5.151   3.437 -0.4203  0.3928 -0.2972
  887MOL0     C16962   6.671   5.027   3.438 -0.7622 -0.4174 -0.2485
  887MOL0     C16963   6.785   5.045   3.341  0.4102 -0.7388 -0.0449
  887MOL0     C16964   6.841   4.903   3.321  0.2439 -0.6684  0.0338
  887MOL0     C16965   6.903   4.849   3.449  0.4439  0.4544  0.0861
  887MOL0     C16966   7.046   4.903   3.489  0.9127  0.4588  1.0268
  887MOL0     C16967   7.086   4.850   3.623 -0.1858  0.2808 -0.2715
  887MOL0     C16968   7.140   4.708   3.624 -0.4109 -0.1150  0.6349
  887MOL0     N16969   7.254   4.695   3.527 -0.2955  0.1481 -0.1976
  887MOL0     C16970   7.264   4.583   3.445  0.2475 -0.5110  0.5745
  887MOL0     C16971   7.393   4.599   3.398 -0.1423  0.0240 -0.1048
  887MOL0     C16972   7.481   4.521   3.304 -0.5902  0.3889  0.6196
  887MOL0     C16973   7.510   4.378   3.343 -0.5383  0.5685 -0.6239
  887MOL0     C16974   7.430   4.274   3.256  0.3488  0.7953 -0.1042
  887MOL0     C16975   7.275   4.286   3.252  0.0069  0.1265  0.2868
  887MOL0     O16976   7.228   4.267   3.384  0.1405  0.1508  0.1636
  887MOL0     C16977   7.091   4.287   3.406 -0.3785 -0.0459  0.1441
  887MOL0     C16978   7.001   4.292   3.297  0.4548  0.1527 -0.3762
  887MOL0     C16979   6.862   4.312   3.330  0.2535 -0.2453  0.0054
  887MOL0     C16980   6.816   4.325   3.460  0.4038  0.3320 -0.0997
  887MOL0     C16981   6.675   4.319   3.488 -0.1230  0.3568  0.3497
  887MOL0     O16982   6.643   4.318   3.619  0.5271  0.9232  0.8648
  887MOL0     C16983   6.513   4.335   3.655  0.1838 -0.2025  0.1124
  887MOL0     C16984   6.443   4.448   3.626  0.1546  1.1161  0.2104
  887MOL0     C16985   6.314   4.459   3.662 -0.3837  0.6821  0.9218
  887MOL0     C16986   6.245   4.366   3.742  0.1987 -0.5375 -0.5524
  887MOL0     O16987   6.127   4.394   3.785  0.7435 -0.9705 -0.3018
  887MOL0     C16988   6.055   4.300   3.860  0.2231  0.1730  0.6340
  887MOL0     C16989   5.916   4.340   3.910 -0.6281 -0.5929  0.9125
  887MOL0     C16990   5.938   4.463   3.999 -0.0463 -0.4666 -0.0706
  887MOL0     C16991   5.797   4.491   4.071 -0.9476 -0.1198 -0.1396
  887MOL0     C16992   5.814   4.610   4.167 -0.3180 -0.3839 -0.2995
  887MOL0     C16993   5.683   4.658   4.229 -0.6886 -0.2514  1.0290
  887MOL0     C16994   5.713   4.714   4.365 -0.3855  0.9869  0.0841
  887MOL0     C16995   5.576   4.726   4.448  0.7613  0.0368  0.4409
  887MOL0    Cl16996   5.451   4.813   4.364 -0.0640  0.4935 -0.1227
  887MOL0     C16997   6.314   4.243   3.762  0.8403 -0.1072 -0.6513
  887MOL0     C16998   6.445   4.228   3.722  0.1815 -0.1312 -0.2443
  887MOL0     O16999   6.595   4.328   3.394  0.7718 -0.2197  0.8935
  887MOL0     C17000   6.905   4.306   3.561 -0.5615 -0.3056  0.5749
  887MOL0     C17001   7.044   4.298   3.535  0.0271 -0.0199 -0.1819
  887MOL0     N17002   7.461   4.704   3.460 -1.0587 -1.5628 -0.4864
  887MOL0     N17003   7.371   4.762   3.534  0.2983  0.2540 -0.1701
  887MOL0     C17004   6.374   5.355   3.422  0.6032 -0.5548 -0.3038
  887MOL0     C17005   6.279   5.463   3.399 -1.4793 -0.3941 -0.1164
  887MOL0     C17006   5.940   5.692   3.144 -0.7134 -0.4723 -0.8740
  887MOL0     C17007   5.813   5.697   3.077  0.6071  0.0501  0.6217
  887MOL0     C17008   5.734   5.814   3.064  0.0481  0.1177  0.0495
  887MOL0     C17009   5.777   5.930   3.098  0.6457 -0.6618 -0.6729
  887MOL0     O17010   5.694   6.036   3.069  0.3861  0.6806  0.3099
  887MOL0     C17011   5.724   6.163   3.128 -0.1990 -0.1309  0.2001
  887MOL0     C17012   5.840   6.236   3.062 -1.2373  0.4654  0.1859
  887MOL0     C17013   5.807   6.278   2.917  0.6010 -0.1669 -0.4561
  887MOL0     C17014   5.913   6.347   2.839 -0.0071  0.6716  0.3027
  887MOL0     C17015   6.023   6.240   2.815 -0.1119 -0.5658 -0.4101
  887MOL0     C17016   6.102   6.149   2.800 -0.3504  0.2357  0.0232
  887MOL0     C17017   5.884   5.927   3.191  0.8201 -0.5857 -0.1120
  887MOL0     C17018   5.971   5.816   3.204  0.5693  0.2046 -0.1335
  887MOL0     H17019   6.230   5.407   3.076  0.1630 -3.1789 -0.7964
  887MOL0     H17020   6.394   5.245   3.106  2.0532  1.0182 -0.1834
  887MOL0     H17021   6.518   5.140   3.528 -1.0063  1.8819 -0.4836
  887MOL0     H17022   6.650   5.233   3.451  3.0482 -2.3284 -0.5485
  887MOL0     H17023   6.617   4.935   3.415 -0.3813 -0.3476 -1.5353
  887MOL0     H17024   6.703   5.016   3.542  0.5044  1.1464 -0.4417
  887MOL0     H17025   6.861   5.114   3.377  0.6652  1.0328 -3.5892
  887MOL0     H17026   6.751   5.094   3.249 -1.0439 -1.9789 -0.2140
  887MOL0     H17027   6.761   4.833   3.297  1.1423 -1.3769 -0.9886
  887MOL0     H17028   6.914   4.904   3.240  0.0814  0.2554 -0.1120
  887MOL0     H17029   6.908   4.741   3.434 -0.0058 -0.0165  2.7097
  887MOL0     H17030   6.837   4.862   3.536 -2.5124  1.6992 -2.1810
  887MOL0     H17031   7.036   5.011   3.499 -0.4851  0.3381  1.1675
  887MOL0     H17032   7.107   4.879   3.402 -0.0075 -0.3233  0.5678
  887MOL0     H17033   7.166   4.903   3.675 -1.4223  0.3905  1.6197
  887MOL0     H17034   6.995   4.851   3.684 -0.7171 -0.8541 -1.0102
  887MOL0     H17035   7.064   4.640   3.586  0.7578 -1.2076  0.2077
  887MOL0     H17036   7.188   4.678   3.718  2.4948 -1.2770 -1.0953
  887MOL0     H17037   7.193   4.502   3.434  0.5973 -0.7055 -0.2775
  887MOL0     H17038   7.579   4.564   3.281 -0.9455 -0.2400 -2.5234
  887MOL0     H17039   7.442   4.528   3.202  2.4770 -3.0149 -1.0348
  887MOL0     H17040   7.485   4.365   3.448  3.9830 -0.5230  0.5503
  887MOL0     H17041   7.617   4.359   3.349 -0.6468  0.2556  0.4164
  887MOL0     H17042   7.466   4.274   3.153 -2.4729 -0.1110 -1.1800
  887MOL0     H17043   7.464   4.178   3.296  3.6763  1.6671 -0.5827
  887MOL0     H17044   7.227   4.214   3.186 -4.1720  0.0928  2.9789
  887MOL0     H17045   7.252   4.386   3.214 -0.0093  0.2308  0.5654
  887MOL0     H17046   7.016   4.280   3.190  0.4042  5.3115 -1.2104
  887MOL0     H17047   6.786   4.317   3.253  2.6277  1.7399 -2.3666
  887MOL0     H17048   6.494   4.526   3.570  1.4198  1.4332  1.7184
  887MOL0     H17049   6.257   4.548   3.639  0.2004  0.7712 -0.2764
  887MOL0     H17050   6.111   4.266   3.948  0.8210 -0.2645  0.0896
  887MOL0     H17051   6.042   4.209   3.800  1.7713 -0.2051  0.8352
  887MOL0     H17052   5.875   4.249   3.956 -0.3826  0.3739  3.1403
  887MOL0     H17053   5.849   4.375   3.831 -0.0878 -3.5711 -1.0407
  887MOL0     H17054   5.974   4.552   3.946 -2.0887 -0.5187 -1.6446
  887MOL0     H17055   6.012   4.439   4.077 -1.6078 -1.4298  1.1784
  887MOL0     H17056   5.731   4.515   3.987 -2.1898  2.6323  1.4718
  887MOL0     H17057   5.771   4.399   4.124  0.4231 -0.0139  0.7867
  887MOL0     H17058   5.856   4.694   4.109 -0.7451 -0.1512 -0.2753
  887MOL0     H17059   5.881   4.574   4.246 -2.4605 -1.6459  1.0248
  887MOL0     H17060   5.607   4.582   4.244 -1.8698  1.1684  2.6284
  887MOL0     H17061   5.647   4.733   4.159  1.7082 -0.7974 -0.9416
  887MOL0     H17062   5.778   4.636   4.406  0.5216  0.0333 -2.9540
  887MOL0     H17063   5.766   4.808   4.347  0.7266  0.3990  0.2255
  887MOL0     H17064   5.608   4.786   4.533  3.5046  1.1863 -1.2360
  887MOL0     H17065   5.534   4.631   4.482  1.4051  0.0200  1.2219
  887MOL0     H17066   6.277   4.158   3.820  0.4907  1.1968  1.1089
  887MOL0     H17067   6.517   4.149   3.744  2.1787  1.8704  0.7600
  887MOL0     H17068   6.873   4.310   3.664 -2.4286  3.1882  0.0280
  887MOL0     H17069   7.111   4.270   3.616 -0.7595  0.7674  0.7686
  887MOL0     H17070   6.405   5.324   3.521 -2.5497  0.9595  1.3260
  887MOL0     H17071   6.267   5.531   3.483 -1.1734 -1.6142  0.9475
  887MOL0     H17072   5.780   5.603   3.033  1.8927 -0.4604  0.6835
  887MOL0     H17073   5.644   5.811   3.004 -0.0715  3.0576 -0.0634
  887MOL0     H17074   5.757   6.156   3.232 -1.8793 -3.9958  0.6172
  887MOL0     H17075   5.647   6.240   3.126  2.4708  2.8150  1.2800
  887MOL0     H17076   5.852   6.327   3.121  0.3336  0.3505  0.0977
  887MOL0     H17077   5.930   6.174   3.067 -0.8882  0.5724 -2.9212
  887MOL0     H17078   5.727   6.350   2.936 -0.5311 -1.4118 -0.3458
  887MOL0     H17079   5.756   6.202   2.857  0.7292  0.7591 -1.7586
  887MOL0     H17080   5.874   6.362   2.738  0.0435 -0.0574  0.1642
  887MOL0     H17081   5.955   6.436   2.886 -0.0515  1.0048 -0.2883
  887MOL0     H17082   6.189   6.088   2.789 -1.6258 -1.3235 -2.5766
  887MOL0     H17083   5.914   6.013   3.251 -0.4907 -0.2965  0.1607
  887MOL0     H17084   6.053   5.832   3.273 -1.7701  2.2836  2.3874
  888MOL0     O17085   0.590   5.531   1.517 -0.0042 -0.5572 -0.2499
  888MOL0     C17086   0.479   5.499   1.494 -0.1373  0.3714 -0.3236
  888MOL0     O17087   0.367   5.543   1.565  0.0876  0.6076 -0.1670
  888MOL0     C17088   0.386   5.639   1.658  0.0393  0.5832  0.5104
  888MOL0     C17089   0.299   5.749   1.655 -0.4198 -0.0067 -0.0906
  888MOL0     C17090   0.309   5.844   1.747  0.0796 -1.0576 -0.6050
  888MOL0     C17091   0.420   5.851   1.834 -0.4862  1.2415 -0.1441
  888MOL0     O17092   0.437   5.956   1.924 -0.0207 -0.2607  0.3987
  888MOL0     C17093   0.553   5.977   1.991  0.3673  0.1682  0.8070
  888MOL0     C17094   0.544   6.097   2.089  0.1556  0.6779  1.3870
  888MOL0     C17095   0.681   6.166   2.111  0.5604  0.7531 -0.7419
  888MOL0     C17096   0.770   6.087   2.197 -0.0892 -0.1953 -0.7181
  888MOL0     C17097   0.899   6.167   2.230  0.1209 -0.4931  0.0287
  888MOL0     C17098   1.000   6.087   2.317  0.0969  0.2086 -0.1407
  888MOL0     C17099   1.130   6.172   2.339  1.5502  0.5396 -0.3901
  888MOL0     C17100   1.234   6.099   2.431 -0.2290  0.6597  1.2783
  888MOL0     N17101   1.331   6.193   2.488 -0.7401  0.1415  0.3351
  888MOL0     C17102   1.313   6.303   2.580  0.1258  0.3326 -0.4175
  888MOL0     C17103   1.431   6.371   2.581 -1.0280  0.6097 -0.1537
  888MOL0     C17104   1.491   6.488   2.655 -0.3304  0.0237 -0.3239
  888MOL0     C17105   1.384   6.589   2.703 -0.5347 -0.6769 -0.1754
  888MOL0     C17106   1.433   6.707   2.780 -0.3382  1.6788  0.7025
  888MOL0     C17107   1.333   6.764   2.869  0.2420 -1.2670 -0.1734
  888MOL0     O17108   1.384   6.882   2.930 -0.9817  0.1633 -1.1496
  888MOL0     C17109   1.434   6.879   3.059 -0.0577 -0.4714 -0.5288
  888MOL0     C17110   1.471   7.003   3.107  0.2456 -0.6478  0.5870
  888MOL0     C17111   1.535   7.017   3.227 -0.8043 -0.0818 -0.5983
  888MOL0     C17112   1.572   6.907   3.307 -0.7649 -0.5192  0.0554
  888MOL0     C17113   1.645   6.934   3.437  0.9250  0.7006  0.0782
  888MOL0     O17114   1.695   6.819   3.515 -0.1503  0.1529 -0.3606
  888MOL0     C17115   1.768   6.858   3.621 -0.7976 -0.2131  0.1412
  888MOL0     C17116   1.738   6.794   3.740 -0.8715  0.2435 -0.3528
  888MOL0     C17117   1.816   6.824   3.856  0.9368  0.0091  0.4160
  888MOL0     C17118   1.911   6.926   3.852 -0.3250  0.3522  0.6017
  888MOL0     O17119   1.991   6.957   3.958 -0.2267  0.4687  0.3454
  888MOL0     C17120   1.926   6.985   4.078  0.1197  0.1171  0.9079
  888MOL0     C17121   2.005   7.072   4.161 -0.4636 -0.8515 -1.0051
  888MOL0     C17122   1.937   7.181   4.237 -0.0453 -0.0267 -1.4723
  888MOL0     C17123   1.865   7.120   4.358  0.3649 -0.0896  0.2491
  888MOL0     C17124   1.768   7.214   4.417 -0.7086  0.3387  0.4826
  888MOL0     C17125   1.681   7.148   4.517  0.2893 -0.2674 -0.3580
  888MOL0     C17126   1.560   7.076   4.465 -0.3936  0.0975 -0.5453
  888MOL0     C17127   1.427   7.168   4.446 -0.6816  0.8432  0.2824
  888MOL0    Cl17128   1.278   7.061   4.470 -0.1061 -0.0777 -0.0797
  888MOL0     C17129   1.947   6.990   3.736 -0.1617 -0.9261  0.9492
  888MOL0     C17130   1.879   6.949   3.616 -0.4682  0.5039  0.3084
  888MOL0     O17131   1.642   7.050   3.471  0.2935  0.7965  0.5530
  888MOL0     C17132   1.538   6.781   3.261 -0.1285 -0.4249  0.0017
  888MOL0     C17133   1.463   6.768   3.139 -0.4125 -0.0863 -0.4512
  888MOL0     N17134   1.511   6.308   2.493 -0.7233  0.0956  1.0616
  888MOL0     N17135   1.464   6.190   2.448 -0.7380 -0.6938 -0.8633
  888MOL0     C17136   0.501   5.732   1.842 -0.2967 -0.7278 -0.7627
  888MOL0     C17137   0.489   5.625   1.754  0.9942 -0.0072  0.6994
  888MOL0     C17138   0.470   5.418   1.372 -0.1115 -0.2502 -0.3403
  888MOL0     C17139   0.589   5.358   1.316 -1.1958 -0.5119 -0.4480
  888MOL0     C17140   0.587   5.275   1.204  0.3279 -0.3645  0.1870
  888MOL0     C17141   0.457   5.245   1.144 -0.4441 -0.8416 -1.2703
  888MOL0     O17142   0.457   5.167   1.031  0.2048 -0.0298  0.2243
  888MOL0     C17143   0.329   5.144   0.974  0.0117 -0.8208 -0.0351
  888MOL0     C17144   0.338   5.047   0.854  0.3495  0.0497 -0.7125
  888MOL0     C17145   0.208   5.024   0.787 -0.6490  0.0923  0.3603
  888MOL0     C17146   0.129   4.924   0.876 -0.3846 -0.0205 -1.0115
  888MOL0     C17147   0.026   4.856   0.795  0.2694 -0.5303  0.5735
  888MOL0     C17148  -0.030   4.784   0.713  0.4882  0.3438 -0.4185
  888MOL0     C17149   0.338   5.289   1.209  0.2965 -0.1405 -0.1582
  888MOL0     C17150   0.345   5.371   1.314 -0.3275 -0.0380 -0.4078
  888MOL0     H17151   0.227   5.764   1.576  0.4825  2.0207 -0.5960
  888MOL0     H17152   0.233   5.920   1.763 -0.6063 -1.6242 -1.0728
  888MOL0     H17153   0.634   5.988   1.918  1.8764 -2.6503  1.8906
  888MOL0     H17154   0.594   5.891   2.046  2.2745 -2.0324 -3.5451
  888MOL0     H17155   0.505   6.053   2.181  3.8356 -1.4706  2.1322
  888MOL0     H17156   0.485   6.181   2.050  0.7883  1.4181  2.0070
  888MOL0     H17157   0.667   6.252   2.177  2.3223  1.2246 -0.9413
  888MOL0     H17158   0.729   6.191   2.015  2.1344 -3.0266 -1.0846
  888MOL0     H17159   0.719   6.074   2.293  4.2718 -1.0227  1.7913
  888MOL0     H17160   0.788   5.993   2.144  0.8611 -0.7625  0.5471
  888MOL0     H17161   0.898   6.266   2.276  0.1139  0.6484 -2.2790
  888MOL0     H17162   0.952   6.176   2.134  0.2641 -1.2504  0.0348
  888MOL0     H17163   1.007   5.987   2.273  1.5194  1.1474 -2.1608
  888MOL0     H17164   0.945   6.077   2.411 -2.1428 -0.7218 -1.4644
  888MOL0     H17165   1.177   6.205   2.245 -1.9142 -0.5818 -2.7282
  888MOL0     H17166   1.096   6.264   2.387 -0.4677 -0.3884  0.0713
  888MOL0     H17167   1.273   6.026   2.359 -3.2102  0.9822 -0.8786
  888MOL0     H17168   1.189   6.048   2.517  0.1947 -1.4798  0.3037
  888MOL0     H17169   1.218   6.332   2.624  0.9180  0.9963  0.8944
  888MOL0     H17170   1.571   6.537   2.599  1.0635 -2.4047 -0.6074
  888MOL0     H17171   1.539   6.443   2.743 -1.2525  0.4406  0.4133
  888MOL0     H17172   1.296   6.546   2.753 -1.4931  2.6149  1.2418
  888MOL0     H17173   1.345   6.631   2.609 -1.6584 -1.2120  0.0366
  888MOL0     H17174   1.516   6.668   2.839 -0.0386  2.3096  0.7107
  888MOL0     H17175   1.475   6.775   2.705 -0.0123  1.6699  0.8755
  888MOL0     H17176   1.293   6.698   2.947  2.3926 -3.2153 -0.6329
  888MOL0     H17177   1.245   6.794   2.811 -0.0077 -1.6577 -0.0037
  888MOL0     H17178   1.446   7.089   3.046 -0.5169 -1.4189 -0.2118
  888MOL0     H17179   1.542   7.114   3.275 -1.2835 -0.6438  0.6383
  888MOL0     H17180   1.660   6.719   3.738 -0.2211 -0.4718 -2.2935
  888MOL0     H17181   1.786   6.775   3.948  0.8607 -1.9094 -0.5634
  888MOL0     H17182   1.902   6.892   4.129 -0.4796  0.1757  0.7438
  888MOL0     H17183   1.827   7.025   4.053  0.4521  0.1570 -0.4278
  888MOL0     H17184   2.075   7.126   4.097 -1.3514 -0.0162 -1.2880
  888MOL0     H17185   2.067   7.015   4.231  1.1280 -1.5522 -2.9159
  888MOL0     H17186   1.861   7.219   4.169  1.7252  1.3276 -2.8172
  888MOL0     H17187   2.011   7.254   4.272 -0.4033 -0.0542 -0.6581
  888MOL0     H17188   1.804   7.047   4.304 -0.5735  2.2863 -2.1378
  888MOL0     H17189   1.934   7.082   4.433 -0.3786 -2.7655 -0.3176
  888MOL0     H17190   1.711   7.256   4.334 -0.4194 -0.2337 -0.0104
  888MOL0     H17191   1.806   7.294   4.482 -2.6614  1.5529  0.2230
  888MOL0     H17192   1.645   7.224   4.588 -0.3951 -1.4813  0.6311
  888MOL0     H17193   1.740   7.080   4.580  1.1297  0.2283 -0.5837
  888MOL0     H17194   1.584   7.003   4.388  1.6539  2.3228 -2.2067
  888MOL0     H17195   1.519   7.011   4.542 -0.3018 -0.9129 -1.3320
  888MOL0     H17196   1.442   7.200   4.343 -0.2414 -0.4659 -0.0734
  888MOL0     H17197   1.438   7.254   4.513  0.3353 -0.3391  1.7290
  888MOL0     H17198   2.013   7.076   3.743 -2.6778  1.0558  1.9835
  888MOL0     H17199   1.906   7.006   3.528  0.1074 -1.1068 -0.5954
  888MOL0     H17200   1.561   6.686   3.307  0.4998 -1.0418 -1.5192
  888MOL0     H17201   1.438   6.668   3.107 -2.4595  0.9297 -2.2920
  888MOL0     H17202   0.579   5.734   1.918 -1.2501 -0.0992  0.2226
  888MOL0     H17203   0.554   5.539   1.751  1.8220  0.6193 -1.6929
  888MOL0     H17204   0.686   5.378   1.361  0.3070 -0.9332 -3.3314
  888MOL0     H17205   0.671   5.228   1.155  1.1035  0.2139  0.9389
  888MOL0     H17206   0.286   5.240   0.945 -1.9071 -0.5988  3.1257
  888MOL0     H17207   0.255   5.106   1.045 -1.6805  0.5333 -0.9841
  888MOL0     H17208   0.416   5.095   0.794  0.8833  6.6952  4.2076
  888MOL0     H17209   0.387   4.951   0.869  0.2194 -0.1880 -1.7334
  888MOL0     H17210   0.214   4.980   0.687  1.4599 -3.0922  1.7432
  888MOL0     H17211   0.158   5.121   0.777 -1.9521 -0.8114 -3.6313
  888MOL0     H17212   0.197   4.851   0.919 -0.9621 -1.0515 -1.7995
  888MOL0     H17213   0.071   4.977   0.953  1.1303  3.7367 -2.2460
  888MOL0     H17214  -0.063   4.719   0.634  0.5922 -2.8853  2.0006
  888MOL0     H17215   0.237   5.274   1.173  0.9438  1.7303 -3.0701
  888MOL0     H17216   0.246   5.408   1.338 -0.2476 -1.4603  2.5265
  889MOL0     O17217   3.920   5.904  10.188  0.0211 -0.2294  0.1894
  889MOL0     C17218   3.961   6.016  10.235 -0.2491 -0.7156  0.0785
  889MOL0     O17219   4.039   6.036  10.347  0.7219  0.0556 -0.3644
  889MOL0     C17220   4.109   5.940  10.410 -0.5022  1.2547  0.8245
  889MOL0     C17221   4.129   5.812  10.362 -0.5526 -0.4809  0.1837
  889MOL0     C17222   4.209   5.728  10.431  0.6732  0.5836 -2.2131
  889MOL0     C17223   4.263   5.748  10.556 -0.2053 -1.0373  0.2710
  889MOL0     O17224   4.341   5.651  10.612  0.5187 -0.2139 -0.4894
  889MOL0     C17225   4.448   5.672  10.709  0.0076  0.4339  0.3479
  889MOL0     C17226   4.563   5.768  10.654  0.6918 -0.1027 -0.9302
  889MOL0     C17227   4.619   5.731  10.528  0.1864 -0.2452  0.8655
  889MOL0     C17228   4.675   5.857  10.471 -0.5026  0.4804  0.4440
  889MOL0     C17229   4.726   5.820  10.332  0.2299 -0.4100  0.2704
  889MOL0     C17230   4.779   5.937  10.256  0.0132  0.3537 -0.2227
  889MOL0     C17231   4.891   6.003  10.324  0.0438  0.0504 -0.1872
  889MOL0     C17232   4.981   6.075  10.215 -0.6170 -0.2278 -0.8050
  889MOL0     N17233   5.106   6.135  10.280  0.5013  0.2643 -0.6268
  889MOL0     C17234   5.233   6.153  10.228  0.0116  1.5824 -0.3102
  889MOL0     C17235   5.313   6.213  10.318  0.1324 -0.7803 -1.3793
  889MOL0     C17236   5.462   6.242  10.314 -0.6757 -0.4641  0.6613
  889MOL0     C17237   5.500   6.382  10.285 -0.5691  0.2009 -0.3344
  889MOL0     C17238   5.473   6.421  10.147 -0.7700 -0.5621  0.0733
  889MOL0     C17239   5.540   6.547  10.093  0.2850  0.3023  0.4687
  889MOL0     O17240   5.562   6.650  10.194 -0.7345  0.8109  0.0998
  889MOL0     C17241   5.693   6.701  10.206 -0.1434 -0.4436 -0.0961
  889MOL0     C17242   5.717   6.838  10.203  0.5007  0.3158  0.3057
  889MOL0     C17243   5.849   6.896  10.200 -0.3134 -0.1594  0.2977
  889MOL0     C17244   5.959   6.816  10.215  1.1974 -0.3442  0.0115
  889MOL0     C17245   6.089   6.876  10.223 -0.0068  0.6766 -0.3392
  889MOL0     O17246   6.097   7.015  10.236  0.5470 -0.1826 -0.3554
  889MOL0     C17247   6.225   7.076  10.250 -0.7761  0.2079  0.4126
  889MOL0     C17248   6.229   7.212  10.202  0.5763 -0.5291 -0.1273
  889MOL0     C17249   6.354   7.277  10.210 -0.0442 -0.6570  0.6743
  889MOL0     C17250   6.465   7.223  10.264 -0.4124  0.6586 -0.5448
  889MOL0     O17251   6.577   7.302  10.260  0.4563 -0.4087 -0.4692
  889MOL0     C17252   6.715   7.243  10.275  0.4900  0.4745  0.1178
  889MOL0     C17253   6.833   7.336  10.284 -0.2584 -0.1428  0.2319
  889MOL0     C17254   6.859   7.418  10.157  0.7107  0.0354 -0.1912
  889MOL0     C17255   6.985   7.511  10.167 -0.3703  0.1343  0.3812
  889MOL0     C17256   6.978   7.611  10.291 -0.1550 -0.4721  0.7786
  889MOL0     C17257   7.083   7.730  10.272  0.6572 -0.1399 -0.0294
  889MOL0     C17258   7.098   7.808  10.401  0.0110 -0.6419 -1.0364
  889MOL0     C17259   7.198   7.726  10.483 -0.1770 -0.2716  0.3241
  889MOL0    Cl17260   7.374   7.766  10.438  0.1284  0.1266 -0.2064
  889MOL0     C17261   6.461   7.092  10.329  0.2275  0.0143 -0.2573
  889MOL0     C17262   6.341   7.022  10.309  0.4460 -0.5278  0.7186
  889MOL0     O17263   6.182   6.798  10.223  0.2779  0.2952 -0.7417
  889MOL0     C17264   5.937   6.674  10.228 -0.6986 -0.5382  0.3132
  889MOL0     C17265   5.808   6.620  10.215  0.1627 -0.9472 -0.1534
  889MOL0     N17266   5.228   6.236  10.431 -0.1815  0.0866 -0.1652
  889MOL0     N17267   5.102   6.188  10.408 -1.3762 -0.0891  0.3064
  889MOL0     C17268   4.235   5.877  10.612 -0.3646  0.2776 -0.5375
  889MOL0     C17269   4.167   5.971  10.534 -0.9796  0.8168  0.0072
  889MOL0     C17270   3.907   6.134  10.160 -0.1830 -0.6140 -0.7612
  889MOL0     C17271   3.920   6.261  10.215 -0.6921 -0.1571 -0.4120
  889MOL0     C17272   3.869   6.371  10.150 -0.3500  0.2032 -0.8093
  889MOL0     C17273   3.787   6.356  10.040 -0.1898 -0.7685 -0.0725
  889MOL0     O17274   3.737   6.476   9.990  0.8881  0.3021 -0.1947
  889MOL0     C17275   3.688   6.476   9.852  0.4356 -0.7053 -0.3105
  889MOL0     C17276   3.645   6.616   9.812  0.3466  0.2073  0.0330
  889MOL0     C17277   3.524   6.672   9.895  0.3645  0.1416  1.1040
  889MOL0     C17278   3.508   6.830   9.879 -0.5906  0.2200  0.2637
  889MOL0     C17279   3.516   6.866   9.738  0.0234 -1.0632 -0.5835
  889MOL0     C17280   3.513   6.868   9.613 -0.1680 -0.2242 -0.1623
  889MOL0     C17281   3.773   6.233   9.985  0.0582 -0.1746  0.2843
  889MOL0     C17282   3.833   6.117  10.041  1.1441  0.2752 -0.1672
  889MOL0     H17283   4.091   5.784  10.264  1.8735  0.3757 -1.0738
  889MOL0     H17284   4.244   5.638  10.382  2.6141  0.0495 -0.0262
  889MOL0     H17285   4.489   5.573  10.728  0.5087  0.7429  0.9320
  889MOL0     H17286   4.408   5.698  10.808 -0.5418 -0.0877  0.2659
  889MOL0     H17287   4.636   5.769  10.735 -0.6479  0.0839  0.3135
  889MOL0     H17288   4.515   5.866  10.651  1.2731  0.1779 -1.0737
  889MOL0     H17289   4.536   5.692  10.469 -0.5347 -0.3706  1.9406
  889MOL0     H17290   4.696   5.653  10.527 -0.5069 -1.0235 -1.8724
  889MOL0     H17291   4.590   5.926  10.465 -1.3304 -0.3298  2.3251
  889MOL0     H17292   4.756   5.898  10.531  0.1426  1.0085 -0.7371
  889MOL0     H17293   4.651   5.768  10.272 -1.8341  1.7803  0.8059
  889MOL0     H17294   4.814   5.757  10.349  1.1978  1.3381  2.2258
  889MOL0     H17295   4.691   5.999  10.237 -1.3404 -1.5849 -0.5768
  889MOL0     H17296   4.815   5.900  10.160 -0.6363 -3.0267  0.6805
  889MOL0     H17297   4.846   6.081  10.385  0.8899  2.2992 -2.2871
  889MOL0     H17298   4.949   5.934  10.387 -0.3780  0.6980  0.9254
  889MOL0     H17299   4.939   6.156  10.154  2.2309  2.4139  0.4611
  889MOL0     H17300   5.020   5.996  10.151  2.0261 -1.9540  2.6146
  889MOL0     H17301   5.258   6.111  10.131 -0.4860  1.9501 -0.6028
  889MOL0     H17302   5.517   6.167  10.256 -0.9151  0.0394 -0.2495
  889MOL0     H17303   5.499   6.217  10.414  1.5633  1.1832  0.3346
  889MOL0     H17304   5.608   6.384  10.303 -0.3455 -1.8376 -1.2083
  889MOL0     H17305   5.445   6.446  10.355  0.8983  1.5814 -0.3844
  889MOL0     H17306   5.524   6.356  10.076  3.2554  1.8035  0.4771
  889MOL0     H17307   5.367   6.442  10.132 -0.2179  2.4831 -0.3980
  889MOL0     H17308   5.477   6.583  10.011 -2.1532 -0.1910  1.9981
  889MOL0     H17309   5.638   6.525  10.049 -0.5379  0.3782 -1.4909
  889MOL0     H17310   5.627   6.899  10.211  1.0506  0.9183  2.6590
  889MOL0     H17311   5.845   7.005  10.199 -0.1629 -0.1540  0.3753
  889MOL0     H17312   6.148   7.258  10.146  3.0421  0.6882 -3.0129
  889MOL0     H17313   6.357   7.371  10.155  1.0173 -1.6537 -1.0347
  889MOL0     H17314   6.739   7.184  10.186  1.9056  0.5993  0.3919
  889MOL0     H17315   6.724   7.187  10.368 -2.3550 -1.9970 -0.9544
  889MOL0     H17316   6.928   7.282  10.289  0.5283  0.9044 -2.1110
  889MOL0     H17317   6.835   7.401  10.372  1.0982  0.5565 -0.2822
  889MOL0     H17318   6.770   7.469  10.118  0.0426 -2.7320 -2.6365
  889MOL0     H17319   6.890   7.331  10.098 -1.3761  1.0553 -3.0163
  889MOL0     H17320   7.072   7.446  10.181 -0.6751 -0.2683  0.4573
  889MOL0     H17321   7.001   7.559  10.070 -2.2520 -1.8307 -1.0178
  889MOL0     H17322   6.998   7.550  10.379  1.0598 -0.8177  0.2837
  889MOL0     H17323   6.879   7.654  10.307  0.6353  1.7919 -0.0296
  889MOL0     H17324   7.038   7.801  10.201 -0.0800  0.8706  1.3783
  889MOL0     H17325   7.180   7.709  10.228  1.9736  1.7910  1.7556
  889MOL0     H17326   7.132   7.911  10.386 -0.4572  1.3199  6.8223
  889MOL0     H17327   7.008   7.810  10.462 -0.4961 -1.4987 -1.7380
  889MOL0     H17328   7.183   7.618  10.475 -1.0128 -0.0403 -1.8926
  889MOL0     H17329   7.177   7.750  10.587  2.0514  0.2319  0.7220
  889MOL0     H17330   6.544   7.044  10.379 -1.5281 -0.1956  2.6186
  889MOL0     H17331   6.344   6.917  10.335  0.8490 -0.4242  1.0911
  889MOL0     H17332   6.021   6.605  10.227  0.7747  1.2080 -0.0307
  889MOL0     H17333   5.794   6.513  10.229  2.0379 -0.9104  2.7732
  889MOL0     H17334   4.279   5.905  10.708  2.6692  0.2515 -1.8147
  889MOL0     H17335   4.151   6.071  10.574 -1.7605  0.9580 -0.6321
  889MOL0     H17336   3.979   6.273  10.306 -1.4597 -1.9798  0.3891
  889MOL0     H17337   3.880   6.474  10.184 -0.9962  0.9170 -2.6123
  889MOL0     H17338   3.600   6.411   9.850  0.3130 -0.5617  0.1645
  889MOL0     H17339   3.755   6.433   9.777 -1.0136 -1.4570 -1.2241
  889MOL0     H17340   3.737   6.674   9.813  0.6461 -0.2228 -1.2362
  889MOL0     H17341   3.613   6.593   9.710 -1.1706  0.5840  0.3959
  889MOL0     H17342   3.533   6.650  10.002 -0.5566 -2.4297  0.7392
  889MOL0     H17343   3.430   6.623   9.866  0.8381 -0.2351  0.1295
  889MOL0     H17344   3.411   6.851   9.926  0.1838  1.9229  1.1884
  889MOL0     H17345   3.595   6.874   9.930  2.7283 -2.7438 -2.3557
  889MOL0     H17346   3.504   6.872   9.506 -1.2133 -0.8661 -0.1147
  889MOL0     H17347   3.708   6.223   9.900  1.3707  3.1043 -1.2845
  889MOL0     H17348   3.806   6.018  10.004 -0.2054  0.6175 -0.1563
  890MOL0     O17349   1.307   4.386   7.543  0.1497 -1.2170 -0.1195
  890MOL0     C17350   1.237   4.486   7.547 -0.2526 -0.0867 -0.1213
  890MOL0     O17351   1.129   4.501   7.459  0.8471 -0.5103 -0.4479
  890MOL0     C17352   1.034   4.595   7.483 -0.0235 -0.7051  0.8750
  890MOL0     C17353   0.961   4.611   7.602  0.1549  0.2122 -0.5181
  890MOL0     C17354   0.867   4.710   7.626  0.6967  0.3940  1.5774
  890MOL0     C17355   0.851   4.797   7.522 -0.2969 -0.4289  0.5864
  890MOL0     O17356   0.775   4.912   7.528  0.3581  0.4268  0.1052
  890MOL0     C17357   0.651   4.891   7.608  0.5171  0.5046  0.3113
  890MOL0     C17358   0.565   4.770   7.566 -0.0966 -0.9914  0.4279
  890MOL0     C17359   0.436   4.751   7.647 -0.0351 -0.8991 -0.8850
  890MOL0     C17360   0.348   4.645   7.579  0.1847 -0.1976 -0.6276
  890MOL0     C17361   0.234   4.606   7.675  0.0210 -0.4151 -0.9131
  890MOL0     C17362   0.130   4.712   7.707  0.7954 -0.2815  0.4367
  890MOL0     C17363   0.024   4.648   7.800  0.2348 -0.5667 -0.0707
  890MOL0     C17364  -0.084   4.753   7.845  0.0464  0.8302  0.4983
  890MOL0     N17365  -0.174   4.695   7.941  0.8619  0.0539 -1.0059
  890MOL0     C17366  -0.316   4.685   7.936  0.0594 -0.5290  0.2974
  890MOL0     C17367  -0.361   4.615   8.044 -0.1389 -0.1539 -0.7308
  890MOL0     C17368  -0.497   4.584   8.099  0.9457  0.6000 -0.8185
  890MOL0     C17369  -0.602   4.546   7.992  0.1226 -0.1373 -0.1238
  890MOL0     C17370  -0.629   4.677   7.904 -0.1597 -0.3567 -0.0203
  890MOL0     C17371  -0.766   4.660   7.855  0.4135  0.4733  0.5696
  890MOL0     O17372  -0.863   4.662   7.968  0.3321  0.3136 -0.2236
  890MOL0     C17373  -0.993   4.644   7.932 -0.4098 -0.5305  0.4397
  890MOL0     C17374  -1.039   4.640   7.802  0.3396  0.9509  0.0657
  890MOL0     C17375  -1.179   4.629   7.782  0.2043 -0.1254 -0.7572
  890MOL0     C17376  -1.266   4.615   7.889 -0.1641 -0.3319  0.1884
  890MOL0     C17377  -1.409   4.601   7.858 -0.0075  0.0176 -0.6781
  890MOL0     O17378  -1.505   4.597   7.954 -0.6944 -0.1319 -0.3488
  890MOL0     C17379  -1.635   4.618   7.914  0.0230  0.7709 -0.4893
  890MOL0     C17380  -1.717   4.734   7.935 -0.3206  0.4166 -1.4485
  890MOL0     C17381  -1.854   4.725   7.886 -0.4872  0.4205 -0.3733
  890MOL0     C17382  -1.905   4.609   7.829 -0.9121 -0.2200 -0.4637
  890MOL0     O17383  -2.033   4.617   7.769 -0.1690  0.6535 -0.3292
  890MOL0     C17384  -2.072   4.525   7.666 -0.3570 -0.7337 -0.0364
  890MOL0     C17385  -2.204   4.584   7.597  0.2930 -0.2176  0.4281
  890MOL0     C17386  -2.325   4.561   7.686  0.0140  0.0866 -0.5788
  890MOL0     C17387  -2.450   4.564   7.599  0.3378  0.1233 -0.5023
  890MOL0     C17388  -2.577   4.566   7.677  1.0042  1.0733 -0.6501
  890MOL0     C17389  -2.702   4.531   7.592  0.2616 -1.1708  0.6761
  890MOL0     C17390  -2.820   4.479   7.677 -0.0840  0.5437  0.7135
  890MOL0     C17391  -2.941   4.464   7.583 -0.0385  0.6721  1.5056
  890MOL0    Cl17392  -2.993   4.636   7.531 -0.2112  0.6037 -0.1585
  890MOL0     C17393  -1.822   4.506   7.817  0.2458 -0.3137  1.1804
  890MOL0     C17394  -1.693   4.508   7.855 -0.3317  0.5703 -0.2607
  890MOL0     O17395  -1.432   4.589   7.734 -0.3417 -0.0633 -0.0782
  890MOL0     C17396  -1.216   4.623   8.018  0.5660  0.2985 -0.3067
  890MOL0     C17397  -1.076   4.641   8.039  0.0460  0.3458  0.5761
  890MOL0     N17398  -0.257   4.608   8.130  0.0758 -0.2452 -0.6933
  890MOL0     N17399  -0.147   4.639   8.063  0.3567  0.2109  0.0881
  890MOL0     C17400   0.917   4.787   7.397 -1.6475  1.0431  0.2804
  890MOL0     C17401   1.011   4.679   7.379 -0.0556  0.9681  0.4094
  890MOL0     C17402   1.285   4.586   7.637 -0.6275 -0.5407 -0.0212
  890MOL0     C17403   1.299   4.566   7.775  0.2537  0.4235  0.7544
  890MOL0     C17404   1.340   4.668   7.862 -1.5493  0.2947 -0.2976
  890MOL0     C17405   1.371   4.794   7.808 -1.3711 -1.2211 -0.3848
  890MOL0     O17406   1.420   4.896   7.889 -0.3883 -0.5564  0.3771
  890MOL0     C17407   1.414   4.874   8.025 -0.1926  0.1953 -0.5455
  890MOL0     C17408   1.494   4.989   8.088  0.2314 -0.5011  0.7042
  890MOL0     C17409   1.511   4.961   8.236  0.4654 -0.3946 -0.3451
  890MOL0     C17410   1.634   5.030   8.296 -0.4970 -0.4640 -0.5983
  890MOL0     C17411   1.639   5.177   8.273 -0.8986 -0.9198  0.7816
  890MOL0     C17412   1.636   5.303   8.265 -0.1991  0.1265  0.3149
  890MOL0     C17413   1.373   4.807   7.671 -0.0118 -0.9783 -0.1285
  890MOL0     C17414   1.322   4.713   7.581 -0.0404 -0.3149  1.0581
  890MOL0     H17415   0.984   4.543   7.683  2.2906  0.3421 -0.9597
  890MOL0     H17416   0.821   4.721   7.723 -0.8692 -0.0343  0.9149
  890MOL0     H17417   0.597   4.985   7.591  0.5145  0.2579 -1.1397
  890MOL0     H17418   0.672   4.878   7.715 -1.5425  1.6386  0.9128
  890MOL0     H17419   0.625   4.679   7.564 -1.4359 -1.9472 -3.3062
  890MOL0     H17420   0.538   4.790   7.462  0.8099  1.9288  0.6658
  890MOL0     H17421   0.372   4.839   7.648 -2.0656 -2.2966 -0.7312
  890MOL0     H17422   0.445   4.726   7.753 -4.1917  0.6480  0.0196
  890MOL0     H17423   0.314   4.689   7.485 -0.8221 -2.2965 -1.2955
  890MOL0     H17424   0.399   4.551   7.558  0.7146 -0.6656  2.3702
  890MOL0     H17425   0.285   4.574   7.767  2.2001  1.6113 -1.3077
  890MOL0     H17426   0.178   4.521   7.635 -0.2279 -2.2961  2.8997
  890MOL0     H17427   0.099   4.760   7.613 -0.8976 -2.2642 -0.0997
  890MOL0     H17428   0.185   4.785   7.767 -0.6943  0.6956  0.6466
  890MOL0     H17429  -0.017   4.563   7.745 -0.4237  0.7969 -1.7994
  890MOL0     H17430   0.072   4.618   7.894 -2.6048  1.3214  2.1975
  890MOL0     H17431  -0.149   4.793   7.767 -2.1005  3.5066  3.3869
  890MOL0     H17432  -0.020   4.837   7.874 -0.7077  1.0030  1.7096
  890MOL0     H17433  -0.370   4.741   7.861 -0.7998  1.9335  2.5827
  890MOL0     H17434  -0.508   4.671   8.165  3.0671  1.0988 -1.0522
  890MOL0     H17435  -0.494   4.495   8.163 -1.2969  0.7062 -0.4813
  890MOL0     H17436  -0.702   4.525   8.031 -0.1574 -0.5059 -1.0198
  890MOL0     H17437  -0.556   4.464   7.937 -1.7124 -0.3277 -1.4562
  890MOL0     H17438  -0.634   4.768   7.964  4.3045  0.5190 -0.5757
  890MOL0     H17439  -0.558   4.695   7.822 -1.8369  0.2940 -1.3979
  890MOL0     H17440  -0.765   4.565   7.801 -2.1149  2.2839 -3.0967
  890MOL0     H17441  -0.793   4.730   7.775 -1.1646 -0.9420 -0.1879
  890MOL0     H17442  -0.976   4.666   7.718  3.5644  3.7204  3.0174
  890MOL0     H17443  -1.212   4.625   7.678  0.1161 -0.8235 -0.7078
  890MOL0     H17444  -1.672   4.824   7.975  0.2348  0.1638 -1.5024
  890MOL0     H17445  -1.909   4.818   7.886 -1.5006 -0.1661 -0.5411
  890MOL0     H17446  -2.074   4.419   7.693 -1.0293 -0.7411 -0.0936
  890MOL0     H17447  -1.989   4.546   7.598 -1.1786  1.3165 -0.4717
  890MOL0     H17448  -2.221   4.534   7.501 -1.4785 -0.8235  1.0065
  890MOL0     H17449  -2.189   4.692   7.588 -0.7344 -0.1114 -0.1616
  890MOL0     H17450  -2.341   4.638   7.762  0.0706 -0.7448  0.2877
  890MOL0     H17451  -2.324   4.462   7.732  1.6313 -0.1753 -1.1404
  890MOL0     H17452  -2.435   4.657   7.544  2.8844 -1.3701 -2.5572
  890MOL0     H17453  -2.444   4.485   7.524  1.1714  0.2762 -0.6115
  890MOL0     H17454  -2.583   4.666   7.721  1.2126  0.3453  1.1497
  890MOL0     H17455  -2.583   4.487   7.753 -1.5070  1.8328  0.0358
  890MOL0     H17456  -2.686   4.448   7.522 -2.1234 -2.3883  1.4877
  890MOL0     H17457  -2.731   4.620   7.535 -1.3653 -2.2835 -0.3173
  890MOL0     H17458  -2.784   4.386   7.724  2.4807  2.2385  2.3640
  890MOL0     H17459  -2.851   4.546   7.758 -1.6956  2.1468 -1.1540
  890MOL0     H17460  -3.030   4.430   7.637 -1.1614 -3.4327 -2.2820
  890MOL0     H17461  -2.927   4.401   7.494 -0.3969 -1.3326  2.8116
  890MOL0     H17462  -1.856   4.417   7.765 -1.6249  0.8514  0.2644
  890MOL0     H17463  -1.626   4.427   7.830  0.5699  1.3378 -0.3663
  890MOL0     H17464  -1.277   4.626   8.108  1.0578  1.0507  0.0198
  890MOL0     H17465  -1.040   4.642   8.141 -0.5393  0.8180  0.7874
  890MOL0     H17466   0.890   4.858   7.319 -1.5005  0.4721 -0.3046
  890MOL0     H17467   1.066   4.658   7.288  0.0456  1.4541  0.3546
  890MOL0     H17468   1.276   4.469   7.816  4.1434 -0.2647  1.6833
  890MOL0     H17469   1.339   4.634   7.965  0.6016  0.2231 -0.2731
  890MOL0     H17470   1.464   4.778   8.040  0.1044  0.4167 -0.1132
  890MOL0     H17471   1.311   4.873   8.063 -0.0869  3.1448  0.0395
  890MOL0     H17472   1.589   4.973   8.035  0.9784  1.0964  1.5086
  890MOL0     H17473   1.454   5.089   8.070 -1.6353 -0.6719  3.4287
  890MOL0     H17474   1.519   4.854   8.254 -1.6239 -0.6088 -0.4739
  890MOL0     H17475   1.426   4.999   8.293  1.5860  0.3366  0.9072
  890MOL0     H17476   1.617   5.022   8.404 -1.5969  1.9567 -0.5210
  890MOL0     H17477   1.720   4.973   8.262 -0.3658  0.3662 -1.7037
  890MOL0     H17478   1.634   5.407   8.239 -2.3496  0.1584  0.4017
  890MOL0     H17479   1.386   4.906   7.628 -4.3068 -1.2180 -2.5567
  890MOL0     H17480   1.308   4.731   7.475 -0.9034 -0.7028  1.1043
  891MOL0     O17481   5.695   9.098  10.312 -0.3342  0.5496  0.0753
  891MOL0     C17482   5.586   9.159  10.292 -0.2258 -0.1638 -0.1981
  891MOL0     O17483   5.501   9.131  10.189  0.0666 -0.2545  0.0143
  891MOL0     C17484   5.490   9.006  10.128 -0.1508  0.2917  0.1677
  891MOL0     C17485   5.406   8.987  10.017  0.2139 -0.6076  0.4095
  891MOL0     C17486   5.387   8.864   9.954 -0.0853 -0.6105  0.1878
  891MOL0     C17487   5.457   8.747   9.982  0.0944  1.1510 -0.6021
  891MOL0     O17488   5.431   8.627   9.922 -0.3461  0.4062 -0.5226
  891MOL0     C17489   5.542   8.550   9.892 -0.3938 -0.0669  0.5039
  891MOL0     C17490   5.490   8.428   9.819  0.2356 -0.1797 -0.6234
  891MOL0     C17491   5.361   8.461   9.727 -0.6499 -0.0887 -0.1783
  891MOL0     C17492   5.352   8.349   9.632  0.0064  0.5479 -0.6639
  891MOL0     C17493   5.234   8.355   9.539 -0.4201 -0.1677  0.1300
  891MOL0     C17494   5.221   8.233   9.445  0.0691  0.2183  0.4284
  891MOL0     C17495   5.081   8.219   9.374  0.0831 -0.0640  1.4504
  891MOL0     C17496   5.037   8.350   9.311 -0.3019 -0.4959 -0.0114
  891MOL0     N17497   4.910   8.335   9.237 -0.3457 -0.9503 -0.6825
  891MOL0     C17498   4.895   8.300   9.103 -0.0467 -0.4182 -0.0381
  891MOL0     C17499   4.758   8.287   9.101 -0.0948 -0.1100 -0.5515
  891MOL0     C17500   4.683   8.248   8.975 -0.5106 -0.1192 -0.3742
  891MOL0     C17501   4.730   8.128   8.886 -0.4848 -0.5701 -0.3581
  891MOL0     C17502   4.637   8.108   8.772 -0.3842 -0.4871 -0.6601
  891MOL0     C17503   4.666   7.977   8.710 -0.1061  0.0051 -0.8252
  891MOL0     O17504   4.550   7.956   8.615 -0.2052 -0.3467  0.7572
  891MOL0     C17505   4.551   7.836   8.548 -1.5955 -0.3624 -0.2660
  891MOL0     C17506   4.468   7.835   8.433 -0.5919 -0.0767  0.4356
  891MOL0     C17507   4.484   7.742   8.338 -0.3493 -0.7545 -0.2674
  891MOL0     C17508   4.573   7.641   8.351  0.5007  0.6086  0.4340
  891MOL0     C17509   4.594   7.551   8.243  0.3745 -0.1007 -0.1527
  891MOL0     O17510   4.497   7.512   8.157  0.1034  0.5217 -0.1364
  891MOL0     C17511   4.514   7.398   8.087  0.3598 -0.7759 -0.2271
  891MOL0     C17512   4.585   7.292   8.137 -0.9857  0.1419 -0.2365
  891MOL0     C17513   4.617   7.178   8.066 -0.8587  0.7903  0.6290
  891MOL0     C17514   4.553   7.164   7.943  0.1041  0.0770  0.6502
  891MOL0     O17515   4.568   7.034   7.885  0.3639 -0.1393  0.2825
  891MOL0     C17516   4.492   7.006   7.767 -0.8485  0.0714  0.3988
  891MOL0     C17517   4.339   6.973   7.775  0.2827 -0.5399 -0.8831
  891MOL0     C17518   4.300   6.881   7.888 -0.1118  0.5686 -0.3635
  891MOL0     C17519   4.148   6.853   7.885  0.7075 -0.6081  0.3137
  891MOL0     C17520   4.110   6.716   7.821  0.5760 -1.2361 -1.1782
  891MOL0     C17521   4.148   6.593   7.907 -0.0065 -0.0953  0.6638
  891MOL0     C17522   4.099   6.602   8.056  0.6722 -0.1714 -0.5442
  891MOL0     C17523   4.098   6.469   8.132 -0.1259  0.2962  0.5278
  891MOL0    Cl17524   4.237   6.363   8.094  0.0314  0.1971 -0.4672
  891MOL0     C17525   4.474   7.267   7.888  0.6636  0.1422  0.9035
  891MOL0     C17526   4.451   7.378   7.966  0.3224 -0.2271 -0.2218
  891MOL0     O17527   4.712   7.519   8.237 -0.1896 -0.0793  0.0865
  891MOL0     C17528   4.643   7.623   8.473 -0.1446 -0.0434 -0.5373
  891MOL0     C17529   4.626   7.716   8.579  0.1298  0.4296  0.4278
  891MOL0     N17530   4.703   8.306   9.223  0.2142  0.0171 -0.8809
  891MOL0     N17531   4.794   8.335   9.302  0.0849 -0.1898 -0.0724
  891MOL0     C17532   5.549   8.762  10.088 -0.7410  0.0223 -0.2777
  891MOL0     C17533   5.564   8.885  10.160 -0.3751 -0.4172 -0.0467
  891MOL0     C17534   5.587   9.290  10.365 -0.1843 -0.5110  0.1383
  891MOL0     C17535   5.486   9.380  10.343  0.5069 -0.7985 -0.1695
  891MOL0     C17536   5.470   9.497  10.414  0.3020  1.1378  0.2233
  891MOL0     C17537   5.545   9.525  10.524  0.3652 -0.1197  0.3090
  891MOL0     O17538   5.520   9.623  10.611 -0.0657 -0.0186  0.3209
  891MOL0     C17539   5.598   9.740  10.573 -0.4879 -0.6440  0.8863
  891MOL0     C17540   5.724   9.759  10.654 -1.0364 -0.0008  0.0414
  891MOL0     C17541   5.701   9.810  10.800 -0.0044  0.1123 -0.3392
  891MOL0     C17542   5.629   9.700  10.880 -0.1413  0.2785  0.1414
  891MOL0     C17543   5.659   9.736  11.013  0.5243 -0.1166 -0.0884
  891MOL0     C17544   5.697   9.754  11.127 -0.7818 -0.2868 -0.0980
  891MOL0     C17545   5.647   9.436  10.550  0.4018  0.4637 -0.2519
  891MOL0     C17546   5.676   9.318  10.468 -0.0945 -0.5214  0.0510
  891MOL0     H17547   5.362   9.079   9.981  0.7109 -1.2695 -2.0887
  891MOL0     H17548   5.305   8.858   9.884 -2.9886  5.6819  2.3657
  891MOL0     H17549   5.586   8.517   9.986 -0.9094 -0.0844  0.7416
  891MOL0     H17550   5.607   8.607   9.824  0.8985 -2.6930 -0.6226
  891MOL0     H17551   5.469   8.346   9.888  2.2138 -0.3493 -0.1508
  891MOL0     H17552   5.571   8.391   9.756  1.1905 -0.8821  0.9612
  891MOL0     H17553   5.377   8.563   9.689  3.4600 -0.2179  0.7533
  891MOL0     H17554   5.270   8.477   9.784  0.5073  0.4619  1.5952
  891MOL0     H17555   5.445   8.348   9.573  0.8097  2.8060  0.4261
  891MOL0     H17556   5.352   8.254   9.685  1.4603  0.0231 -1.5366
  891MOL0     H17557   5.220   8.442   9.474  0.4620 -1.3534 -1.7616
  891MOL0     H17558   5.152   8.351   9.611 -0.4141  2.3267  0.3564
  891MOL0     H17559   5.231   8.146   9.510  1.7971  0.1756  0.1377
  891MOL0     H17560   5.294   8.237   9.364 -1.0295  1.7074 -0.5644
  891MOL0     H17561   5.085   8.148   9.291 -3.1845  1.8785 -0.6206
  891MOL0     H17562   5.000   8.193   9.443 -0.0741 -1.5564  0.7409
  891MOL0     H17563   5.114   8.386   9.242  0.2906  2.0026  1.8210
  891MOL0     H17564   5.021   8.432   9.382 -0.8144 -0.3560 -0.2863
  891MOL0     H17565   4.979   8.286   9.036 -1.7780  1.9009 -2.9215
  891MOL0     H17566   4.682   8.340   8.915  0.0251  1.6901  2.1922
  891MOL0     H17567   4.579   8.230   9.002 -0.6568  0.2593 -0.6684
  891MOL0     H17568   4.748   8.038   8.946  1.7312 -0.0574 -0.1294
  891MOL0     H17569   4.833   8.148   8.853 -0.0739 -0.8028  0.7392
  891MOL0     H17570   4.536   8.114   8.813 -0.5332 -2.8130 -0.5768
  891MOL0     H17571   4.652   8.181   8.692  1.2989  1.0319  0.9373
  891MOL0     H17572   4.663   7.898   8.785  3.1388  0.7974  0.2927
  891MOL0     H17573   4.764   7.966   8.664 -0.1484 -3.3942 -0.3779
  891MOL0     H17574   4.425   7.929   8.399  0.8734  0.2951 -0.5174
  891MOL0     H17575   4.435   7.735   8.241 -0.7522 -4.1101  0.0617
  891MOL0     H17576   4.630   7.293   8.236 -0.8613 -1.5855 -0.2395
  891MOL0     H17577   4.676   7.097   8.107  0.6067  1.7618  0.5214
  891MOL0     H17578   4.525   6.914   7.718 -0.8489 -1.5939  3.2652
  891MOL0     H17579   4.509   7.078   7.686  0.0650 -2.1079 -1.4615
  891MOL0     H17580   4.302   6.931   7.681 -1.4760  0.8172 -0.8571
  891MOL0     H17581   4.273   7.060   7.777 -2.5827 -2.5740 -1.1847
  891MOL0     H17582   4.305   6.950   7.973 -1.9827 -0.1930  0.4004
  891MOL0     H17583   4.361   6.791   7.901 -1.7181 -0.2612  1.8844
  891MOL0     H17584   4.109   6.858   7.987 -0.2150 -1.5841  0.0299
  891MOL0     H17585   4.099   6.924   7.817 -0.2846 -1.7532 -0.2052
  891MOL0     H17586   4.159   6.703   7.724  1.6805  0.2782 -0.8691
  891MOL0     H17587   4.002   6.719   7.806 -0.1092 -0.3363  2.7500
  891MOL0     H17588   4.256   6.577   7.914 -0.4132 -2.7919  2.4525
  891MOL0     H17589   4.101   6.503   7.866  1.2433 -0.9776  1.1024
  891MOL0     H17590   4.161   6.672   8.112 -0.7057  0.7809 -0.1630
  891MOL0     H17591   4.000   6.649   8.057  1.5516  1.7992  0.7826
  891MOL0     H17592   4.011   6.411   8.101 -0.9660  1.3688  0.8488
  891MOL0     H17593   4.099   6.483   8.240 -0.4263  1.7721  0.3628
  891MOL0     H17594   4.411   7.254   7.800 -1.0006  0.3832  2.0076
  891MOL0     H17595   4.376   7.443   7.924  1.3401  1.1001 -0.0679
  891MOL0     H17596   4.711   7.540   8.492  0.3743 -0.0030 -2.1074
  891MOL0     H17597   4.683   7.708   8.671 -0.3554  1.1081  0.7907
  891MOL0     H17598   5.619   8.686  10.121 -2.6342 -2.1345 -0.9778
  891MOL0     H17599   5.647   8.902  10.227 -0.5001  1.1553 -0.2481
  891MOL0     H17600   5.415   9.358  10.264  0.3386 -1.1049  0.0621
  891MOL0     H17601   5.398   9.566  10.370 -0.2647  0.0674 -0.5474
  891MOL0     H17602   5.547   9.837  10.580 -0.2470 -0.4280 -0.0917
  891MOL0     H17603   5.634   9.740  10.469  3.3103  0.9932  2.0182
  891MOL0     H17604   5.781   9.666  10.657 -1.1767 -0.2482 -2.7886
  891MOL0     H17605   5.786   9.830  10.599  1.3435 -1.3178  0.8826
  891MOL0     H17606   5.639   9.900  10.797 -2.3947 -1.2193  2.8289
  891MOL0     H17607   5.801   9.835  10.837 -0.0843 -0.8007  0.5608
  891MOL0     H17608   5.523   9.692  10.855 -0.6093  2.5149  1.1454
  891MOL0     H17609   5.674   9.601  10.866  1.1791  0.7317  0.9502
  891MOL0     H17610   5.714   9.766  11.232 -0.3160 -0.0340 -0.1989
  891MOL0     H17611   5.711   9.454  10.636  2.1111  1.0227 -1.6051
  891MOL0     H17612   5.755   9.247  10.492 -2.7766 -3.8706 -0.1800
  892MOL0     O17613   2.718  10.964   4.398 -0.4740 -0.5977  0.0016
  892MOL0     C17614   2.661  11.034   4.313 -0.4585 -0.3383  0.3088
  892MOL0     O17615   2.526  11.022   4.265 -0.1986  0.0524 -0.2271
  892MOL0     C17616   2.437  11.012   4.372  0.8067 -0.3948 -0.6345
  892MOL0     C17617   2.457  11.051   4.504 -0.2714  0.1495 -0.3754
  892MOL0     C17618   2.359  11.054   4.597  0.2687  0.0219 -0.7631
  892MOL0     C17619   2.225  11.032   4.565 -0.4882 -0.0722  0.0335
  892MOL0     O17620   2.138  11.055   4.669 -0.8183  0.3871 -0.5339
  892MOL0     C17621   2.006  11.067   4.645 -0.6580  0.2608  0.2530
  892MOL0     C17622   1.930  11.089   4.772 -0.4416 -0.4627  0.1200
  892MOL0     C17623   1.922  10.969   4.871 -1.1400 -0.3469  0.0384
  892MOL0     C17624   1.855  10.848   4.816  0.3536 -0.4252  0.1682
  892MOL0     C17625   1.855  10.727   4.917  0.1050 -0.0134  0.6247
  892MOL0     C17626   1.995  10.655   4.917 -0.5579  0.2071 -1.1883
  892MOL0     C17627   1.983  10.504   4.958  0.9327 -1.0653 -0.0769
  892MOL0     C17628   2.117  10.426   4.966  0.2200 -0.2030  0.1865
  892MOL0     N17629   2.094  10.289   5.032 -0.6056 -0.0430  0.7915
  892MOL0     C17630   2.145  10.246   5.152 -1.3061 -0.2229  0.5558
  892MOL0     C17631   2.108  10.123   5.174  0.2661 -0.5735  0.4389
  892MOL0     C17632   2.133  10.040   5.299 -0.4359  0.1214  0.8403
  892MOL0     C17633   2.262   9.967   5.279  0.7562 -0.3223  0.2161
  892MOL0     C17634   2.281   9.885   5.405 -1.2404  0.0265  0.1592
  892MOL0     C17635   2.400   9.779   5.379  0.1547 -0.2041  0.9644
  892MOL0     O17636   2.384   9.675   5.474  0.9872  0.8294  0.7598
  892MOL0     C17637   2.346   9.548   5.425  0.0343  0.7499 -0.7634
  892MOL0     C17638   2.242   9.526   5.344  0.4834  0.5438  0.1973
  892MOL0     C17639   2.197   9.397   5.311 -0.5304 -0.4154 -0.0909
  892MOL0     C17640   2.256   9.284   5.364  0.0158  0.4734 -0.6341
  892MOL0     C17641   2.217   9.147   5.317 -0.9325  0.3787  0.4123
  892MOL0     O17642   2.147   9.145   5.197 -0.0745  0.2392  0.8118
  892MOL0     C17643   2.072   9.047   5.161  0.1268  0.3836  0.3410
  892MOL0     C17644   2.025   8.935   5.236 -0.4015  0.3764 -0.5799
  892MOL0     C17645   1.955   8.833   5.164 -0.5635 -0.5584 -0.4452
  892MOL0     C17646   1.931   8.839   5.034 -0.7091 -0.8085  0.9403
  892MOL0     O17647   1.858   8.734   4.982 -0.9603  0.5901  0.4621
  892MOL0     C17648   1.873   8.711   4.844  0.1339  0.9453 -0.1475
  892MOL0     C17649   1.788   8.589   4.802 -0.1073 -0.8526 -0.0984
  892MOL0     C17650   1.856   8.466   4.867 -0.2201  0.5593  0.7655
  892MOL0     C17651   1.767   8.345   4.812 -0.6218 -0.5229  1.0799
  892MOL0     C17652   1.805   8.203   4.870  0.4321  0.6389 -1.1576
  892MOL0     C17653   1.730   8.097   4.788 -1.2930  0.1205 -0.4126
  892MOL0     C17654   1.577   8.092   4.777  0.4096 -0.0963  0.8243
  892MOL0     C17655   1.517   8.071   4.920 -0.7645  0.5539  0.5492
  892MOL0    Cl17656   1.342   8.113   4.911  0.3796  0.0689  0.3842
  892MOL0     C17657   1.976   8.954   4.958 -0.4098 -1.4466 -0.3681
  892MOL0     C17658   2.053   9.054   5.017  0.3271  0.4273 -0.0417
  892MOL0     O17659   2.254   9.050   5.375  0.5975 -0.5179 -0.3007
  892MOL0     C17660   2.364   9.310   5.451 -0.1585  0.5079  0.6177
  892MOL0     C17661   2.414   9.444   5.478  0.5472 -0.0664 -0.8159
  892MOL0     N17662   2.018  10.090   5.071  0.1587 -0.7544 -0.7670
  892MOL0     N17663   2.017  10.188   4.986  0.8652 -0.5912  0.2202
  892MOL0     C17664   2.195  10.997   4.437 -0.1279 -0.7375  0.7575
  892MOL0     C17665   2.304  10.993   4.337  0.7901  0.1816  0.0710
  892MOL0     C17666   2.736  11.155   4.264  0.4900 -0.0244  1.4677
  892MOL0     C17667   2.842  11.212   4.339  0.1047  0.2861  0.2499
  892MOL0     C17668   2.891  11.336   4.297  0.1358  0.4920  0.8004
  892MOL0     C17669   2.837  11.404   4.181  0.5218  0.4392  0.4106
  892MOL0     O17670   2.889  11.521   4.139 -0.1829  0.0919  0.0806
  892MOL0     C17671   2.991  11.497   4.043  0.5852  0.2995  0.1862
  892MOL0     C17672   2.942  11.469   3.900  0.3135  0.8169  0.3312
  892MOL0     C17673   3.040  11.474   3.783 -0.6680 -0.6387 -0.0994
  892MOL0     C17674   3.117  11.606   3.759 -1.0606 -0.7519 -0.4730
  892MOL0     C17675   3.081  11.659   3.628  0.0056  0.4092  0.2792
  892MOL0     C17676   3.065  11.691   3.513 -0.0730 -0.0803  0.9052
  892MOL0     C17677   2.738  11.339   4.112 -0.3911 -0.2620  0.1704
  892MOL0     C17678   2.695  11.211   4.143 -0.4385  0.0346  0.3088
  892MOL0     H17679   2.551  11.067   4.556 -0.4125 -0.6292  0.1432
  892MOL0     H17680   2.388  11.066   4.701 -2.6414 -4.3262  0.8730
  892MOL0     H17681   1.957  10.981   4.599  0.4027 -0.7725  1.0074
  892MOL0     H17682   1.990  11.157   4.585  2.4582  1.1690  0.6550
  892MOL0     H17683   1.830  11.124   4.744 -1.0432 -1.2589  1.1514
  892MOL0     H17684   1.973  11.174   4.825 -3.3374  1.2709 -0.0871
  892MOL0     H17685   1.865  11.003   4.958  1.0016  3.2561  0.2568
  892MOL0     H17686   2.019  10.936   4.909 -0.2384 -2.0344 -3.3271
  892MOL0     H17687   1.754  10.891   4.806  1.1473  1.6026  0.4186
  892MOL0     H17688   1.891  10.816   4.718  0.7878 -0.7198  0.4221
  892MOL0     H17689   1.779  10.662   4.871 -0.2151 -0.0465  1.1980
  892MOL0     H17690   1.817  10.769   5.011  0.7692  3.0420 -0.3583
  892MOL0     H17691   2.053  10.713   4.989 -2.6886  0.8334  0.1322
  892MOL0     H17692   2.037  10.667   4.817  0.0148  1.6290 -0.8074
  892MOL0     H17693   1.935  10.513   5.056 -1.9855  2.9834 -1.6133
  892MOL0     H17694   1.934  10.440   4.884  1.1684 -3.6576  1.8548
  892MOL0     H17695   2.181  10.495   5.022 -0.9054  1.6796 -0.7439
  892MOL0     H17696   2.169  10.417   4.871  1.6640  0.6414  0.8473
  892MOL0     H17697   2.204  10.315   5.211  1.1867 -1.1285 -0.7052
  892MOL0     H17698   2.051   9.967   5.301  0.0153 -0.5953 -1.8983
  892MOL0     H17699   2.142  10.109   5.383 -2.4844  1.0544  0.3427
  892MOL0     H17700   2.345  10.038   5.278 -2.4936  3.9549  1.1817
  892MOL0     H17701   2.265   9.911   5.185 -1.2820  1.2831 -0.8893
  892MOL0     H17702   2.306   9.951   5.489 -2.5549  1.1782 -0.3132
  892MOL0     H17703   2.195   9.827   5.440 -0.7157  0.0736  1.5754
  892MOL0     H17704   2.491   9.828   5.415 -0.9288  1.4590  1.5501
  892MOL0     H17705   2.419   9.744   5.277  1.0586 -1.0514  1.4026
  892MOL0     H17706   2.191   9.607   5.293  0.8267 -0.0805 -1.2158
  892MOL0     H17707   2.116   9.386   5.239 -3.3964 -2.4272  3.1497
  892MOL0     H17708   2.044   8.911   5.340  0.0360  2.6575 -0.0843
  892MOL0     H17709   1.925   8.741   5.212  2.1388 -1.1031  0.3628
  892MOL0     H17710   1.974   8.697   4.803 -0.3762  2.7519 -2.2323
  892MOL0     H17711   1.839   8.799   4.787 -1.1040 -0.5151 -1.7640
  892MOL0     H17712   1.778   8.568   4.695 -0.2938 -3.4771  0.3715
  892MOL0     H17713   1.684   8.608   4.831 -0.5674 -1.5396 -1.2212
  892MOL0     H17714   1.859   8.470   4.976  2.9591 -1.9468  0.9070
  892MOL0     H17715   1.957   8.444   4.832 -1.4936 -3.4427 -1.0080
  892MOL0     H17716   1.661   8.370   4.825  0.1007  2.0484  2.8448
  892MOL0     H17717   1.787   8.333   4.705  1.3122 -1.1735  1.4786
  892MOL0     H17718   1.777   8.194   4.975  1.8382 -0.0750 -0.8279
  892MOL0     H17719   1.911   8.190   4.849 -0.0691 -2.0003 -2.5775
  892MOL0     H17720   1.757   7.995   4.813  0.8801  0.7562  0.0121
  892MOL0     H17721   1.765   8.103   4.684 -0.3692 -1.5162 -0.2280
  892MOL0     H17722   1.542   8.189   4.739 -1.5260 -0.9936  0.2076
  892MOL0     H17723   1.549   8.017   4.703  1.0631 -0.0109  0.4796
  892MOL0     H17724   1.575   8.132   4.990  0.0488  0.3509  0.0595
  892MOL0     H17725   1.536   7.971   4.961  0.6354  0.7520  0.4151
  892MOL0     H17726   1.954   8.968   4.853 -1.6050  2.1224  0.2109
  892MOL0     H17727   2.093   9.139   4.963 -0.1390  2.5061  2.6532
  892MOL0     H17728   2.404   9.214   5.483  0.0435 -1.0635 -3.6636
  892MOL0     H17729   2.508   9.459   5.529 -0.6459  2.6357  0.8085
  892MOL0     H17730   2.096  10.978   4.398  0.9725 -0.5545 -2.4479
  892MOL0     H17731   2.294  10.950   4.238 -1.1002  3.0361 -1.1075
  892MOL0     H17732   2.869  11.173   4.437  1.7112  1.5154  0.3473
  892MOL0     H17733   2.965  11.394   4.352  0.3042 -0.8403  2.0367
  892MOL0     H17734   3.063  11.426   4.084  3.1971  1.6494 -1.7217
  892MOL0     H17735   3.048  11.590   4.046  2.1609 -0.6572  1.4941
  892MOL0     H17736   2.896  11.370   3.907  1.7657  0.2168  2.4892
  892MOL0     H17737   2.857  11.536   3.886 -2.9932 -2.9361  0.4682
  892MOL0     H17738   2.972  11.446   3.702 -4.7483  2.9495  1.6981
  892MOL0     H17739   3.115  11.399   3.810 -0.0765  0.3425  1.0886
  892MOL0     H17740   3.099  11.685   3.833 -0.2369  0.3338 -1.3997
  892MOL0     H17741   3.223  11.581   3.769 -0.6449  0.6234 -1.2709
  892MOL0     H17742   3.060  11.708   3.408  2.7577  1.3559  0.9077
  892MOL0     H17743   2.707  11.387   4.020  0.9533 -0.2906 -0.3243
  892MOL0     H17744   2.622  11.166   4.076 -1.1291  2.2617 -0.5366
  893MOL0     O17745   7.467   9.521  10.051  0.3190 -0.1104 -0.5780
  893MOL0     C17746   7.409   9.630  10.021  0.3728 -0.3011  0.1214
  893MOL0     O17747   7.299   9.639   9.944 -0.1634 -0.4948 -0.3080
  893MOL0     C17748   7.265   9.521   9.877  1.0507  0.2409 -0.0281
  893MOL0     C17749   7.224   9.403   9.947 -0.4404  0.4177 -0.2355
  893MOL0     C17750   7.170   9.289   9.884 -0.6133  0.1109  0.1692
  893MOL0     C17751   7.148   9.286   9.746 -0.5016  0.1107 -1.1313
  893MOL0     O17752   7.097   9.176   9.691  0.0645 -0.2528  0.4775
  893MOL0     C17753   6.982   9.209   9.609  0.8025  0.4578  0.6614
  893MOL0     C17754   6.875   9.105   9.589  0.2845  0.6211 -0.6398
  893MOL0     C17755   6.801   9.081   9.723  0.6922 -0.6585 -0.9404
  893MOL0     C17756   6.702   8.970   9.711  0.2730 -0.2136 -0.2720
  893MOL0     C17757   6.574   9.012   9.628 -0.1255  0.0983 -0.1477
  893MOL0     C17758   6.456   8.907   9.650  0.0912 -0.1429 -0.0763
  893MOL0     C17759   6.366   8.946   9.760  0.0173 -0.3627  0.6244
  893MOL0     C17760   6.251   8.842   9.767 -0.0604  0.5113  0.4451
  893MOL0     N17761   6.304   8.707   9.791  0.6193  0.0361  0.3220
  893MOL0     C17762   6.367   8.675   9.908 -0.0199 -0.1337  0.2049
  893MOL0     C17763   6.416   8.553   9.892  0.1957  0.1773  0.1117
  893MOL0     C17764   6.518   8.472   9.968  0.1976  0.7054 -0.3966
  893MOL0     C17765   6.646   8.486   9.878 -0.1756  0.2288  0.1091
  893MOL0     C17766   6.741   8.369   9.877 -0.7441 -0.8596 -0.6659
  893MOL0     C17767   6.699   8.260   9.780 -0.2871 -0.2381 -0.5288
  893MOL0     O17768   6.671   8.314   9.650 -0.0194  0.4815  0.3070
  893MOL0     C17769   6.585   8.238   9.574 -0.7564 -0.3792 -0.3153
  893MOL0     C17770   6.472   8.290   9.521 -0.6651  0.1173 -0.5064
  893MOL0     C17771   6.392   8.231   9.423  0.2314  0.6469 -0.1743
  893MOL0     C17772   6.430   8.100   9.375  0.9078 -0.2493  0.2529
  893MOL0     C17773   6.361   8.037   9.258  0.3788 -0.6590  0.1268
  893MOL0     O17774   6.410   7.920   9.201  0.3560 -0.2901  0.8101
  893MOL0     C17775   6.326   7.831   9.153 -0.1602  0.6956  0.3745
  893MOL0     C17776   6.186   7.847   9.159  0.7051  0.6336 -0.0114
  893MOL0     C17777   6.101   7.746   9.100 -0.4222 -0.2472  0.2751
  893MOL0     C17778   6.162   7.638   9.029  0.6281 -0.3769  0.3479
  893MOL0     O17779   6.077   7.558   8.967 -0.4787  0.7152  0.1902
  893MOL0     C17780   6.093   7.414   8.980 -0.4846 -0.7044  0.3053
  893MOL0     C17781   6.009   7.347   8.874  0.4220  0.6346 -0.6564
  893MOL0     C17782   5.865   7.347   8.903 -0.7894  0.2417 -0.2753
  893MOL0     C17783   5.787   7.238   8.833  1.2186  0.1120 -0.8784
  893MOL0     C17784   5.638   7.235   8.873 -0.0636 -0.5584  0.0956
  893MOL0     C17785   5.562   7.116   8.801  0.2687 -0.0945  0.2941
  893MOL0     C17786   5.411   7.100   8.842  0.1068  0.4573  0.4600
  893MOL0     C17787   5.355   6.968   8.803 -0.5651  1.2926  0.0410
  893MOL0    Cl17788   5.414   6.827   8.894  0.0356 -0.0498  0.2473
  893MOL0     C17789   6.299   7.626   9.025 -0.3715 -0.0434 -1.6920
  893MOL0     C17790   6.379   7.715   9.102  0.0001 -0.3493  0.9075
  893MOL0     O17791   6.279   8.115   9.207 -0.8718  0.0884 -0.7324
  893MOL0     C17792   6.530   8.036   9.439  0.0664  0.1477 -0.7254
  893MOL0     C17793   6.614   8.103   9.534 -0.5901  0.6499 -0.6973
  893MOL0     N17794   6.378   8.500   9.770 -1.4525 -0.0655 -0.3821
  893MOL0     N17795   6.307   8.595   9.713  0.4974 -0.4880  0.9906
  893MOL0     C17796   7.180   9.402   9.675 -0.4771  0.0650 -0.2580
  893MOL0     C17797   7.240   9.514   9.739 -0.1560  0.4654  0.1330
  893MOL0     C17798   7.476   9.764  10.049  0.1746  0.4122  0.6913
  893MOL0     C17799   7.430   9.875   9.983 -0.4268  1.1695 -0.2209
  893MOL0     C17800   7.491   9.993  10.009 -0.8335 -0.6725  0.3060
  893MOL0     C17801   7.597  10.007  10.102  0.0124  0.4379 -0.1509
  893MOL0     O17802   7.649  10.131  10.124  0.3634 -0.0006  0.3818
  893MOL0     C17803   7.701  10.149  10.254  0.6549  0.4307 -0.5307
  893MOL0     C17804   7.696  10.302  10.276 -0.3125  0.4224  0.3481
  893MOL0     C17805   7.701  10.349  10.427 -0.1173  0.8892  0.3135
  893MOL0     C17806   7.846  10.325  10.487  1.1934  1.0167 -1.3481
  893MOL0     C17807   7.877  10.406  10.609  0.0835  0.2190  1.1853
  893MOL0     C17808   7.904  10.477  10.700  0.6667  0.5409 -0.4488
  893MOL0     C17809   7.657   9.888  10.151  1.3007 -0.2131 -0.6690
  893MOL0     C17810   7.599   9.767  10.115  0.1302 -0.0470 -0.9206
  893MOL0     H17811   7.220   9.412  10.055  1.2647 -0.9729 -0.0031
  893MOL0     H17812   7.128   9.211   9.947  1.4134 -2.1395 -1.0882
  893MOL0     H17813   7.033   9.244   9.519  1.5942  0.8759  1.2592
  893MOL0     H17814   6.933   9.299   9.648 -1.8209 -1.6728  2.6770
  893MOL0     H17815   6.934   9.017   9.561  1.5571  1.9570 -2.4138
  893MOL0     H17816   6.808   9.132   9.508  0.7088 -0.1214 -1.2501
  893MOL0     H17817   6.756   9.178   9.746  3.0236  0.6519 -1.5497
  893MOL0     H17818   6.867   9.060   9.808 -2.4442 -1.7705  1.3747
  893MOL0     H17819   6.750   8.885   9.662 -1.1755 -2.3108  1.7430
  893MOL0     H17820   6.675   8.938   9.812 -2.0552  1.3984 -0.2979
  893MOL0     H17821   6.609   9.025   9.525  2.6528 -3.4413  0.1691
  893MOL0     H17822   6.533   9.105   9.669 -0.6224  0.3455 -1.1592
  893MOL0     H17823   6.496   8.806   9.663 -1.4072 -0.5041  2.2084
  893MOL0     H17824   6.393   8.910   9.561  2.1946 -0.6483 -1.6684
  893MOL0     H17825   6.412   8.956   9.859 -1.1021 -0.5725  1.1774
  893MOL0     H17826   6.328   9.043   9.729  2.4920  0.8262  1.0440
  893MOL0     H17827   6.194   8.829   9.674  4.4095  2.1295 -2.8419
  893MOL0     H17828   6.186   8.875   9.849 -1.4912  0.6783 -0.7197
  893MOL0     H17829   6.407   8.732   9.991 -3.3392  0.5767  1.4685
  893MOL0     H17830   6.488   8.370   9.995 -0.9755  1.0169 -0.4571
  893MOL0     H17831   6.546   8.513  10.065  1.9480  0.9053 -0.9484
  893MOL0     H17832   6.702   8.576   9.903 -1.8714  1.2642  0.3464
  893MOL0     H17833   6.622   8.502   9.773  2.3776  1.2701 -0.3801
  893MOL0     H17834   6.845   8.396   9.859 -0.5137 -0.1993  1.3147
  893MOL0     H17835   6.741   8.342   9.983 -0.3812 -1.7275 -0.8797
  893MOL0     H17836   6.611   8.218   9.829  0.6142 -1.0330  0.4472
  893MOL0     H17837   6.771   8.179   9.767  1.2085  1.1590 -1.2972
  893MOL0     H17838   6.445   8.394   9.537  1.0042  0.7874 -1.7771
  893MOL0     H17839   6.327   8.298   9.368 -0.3782  0.1973 -0.0125
  893MOL0     H17840   6.124   7.928   9.196 -2.1851 -1.8991  1.1039
  893MOL0     H17841   5.995   7.769   9.109 -0.1248  0.1519  4.8810
  893MOL0     H17842   6.059   7.402   9.083  0.0740  1.9230  0.8484
  893MOL0     H17843   6.196   7.381   8.963  0.3699  2.4533 -1.3386
  893MOL0     H17844   6.032   7.240   8.877  1.4177  0.8557  1.9467
  893MOL0     H17845   6.048   7.380   8.777  1.9507  1.9389  0.3408
  893MOL0     H17846   5.819   7.441   8.870 -5.2953 -0.7626  2.3091
  893MOL0     H17847   5.849   7.324   9.009  2.8646 -0.3794  0.2598
  893MOL0     H17848   5.803   7.243   8.725  0.6023  1.0832 -0.9443
  893MOL0     H17849   5.830   7.144   8.869  0.9708  1.2048  2.6991
  893MOL0     H17850   5.596   7.327   8.830  0.8695  0.4969  1.3589
  893MOL0     H17851   5.620   7.204   8.976  1.3707 -0.6510  0.3435
  893MOL0     H17852   5.611   7.020   8.822 -2.4833 -1.2213  2.1410
  893MOL0     H17853   5.567   7.135   8.694  0.8763  1.7601  0.6131
  893MOL0     H17854   5.405   7.116   8.950 -0.2970  1.5559  0.2922
  893MOL0     H17855   5.343   7.169   8.791  0.4031 -0.9190 -1.9522
  893MOL0     H17856   5.385   6.953   8.699  2.0661 -0.9365  1.0147
  893MOL0     H17857   5.249   6.972   8.830 -0.5716  2.5299 -0.0997
  893MOL0     H17858   6.343   7.536   8.985  2.2957  0.2181  0.3671
  893MOL0     H17859   6.484   7.688   9.104  0.2507  0.3444 -0.7609
  893MOL0     H17860   6.546   7.931   9.416 -1.9165 -0.6998  1.3723
  893MOL0     H17861   6.701   8.061   9.583 -1.6914  1.5075  2.2160
  893MOL0     H17862   7.166   9.420   9.568 -0.2853  0.7217 -0.1792
  893MOL0     H17863   7.282   9.593   9.677 -0.5893 -0.3345 -1.2062
  893MOL0     H17864   7.353   9.881   9.906 -0.5153 -2.3336 -0.5385
  893MOL0     H17865   7.446  10.081   9.965 -0.7315 -0.6498  0.2467
  893MOL0     H17866   7.801  10.104  10.255  1.7855  2.7733  1.2699
  893MOL0     H17867   7.639  10.103  10.332 -0.1784  2.0213 -0.2105
  893MOL0     H17868   7.782  10.349  10.228 -1.3726 -1.1651 -3.5312
  893MOL0     H17869   7.604  10.348  10.237 -0.9212  0.2920  1.5974
  893MOL0     H17870   7.619  10.297  10.476  0.8655  0.9758  2.1515
  893MOL0     H17871   7.681  10.455  10.415  1.1689  1.3901  2.1761
  893MOL0     H17872   7.848  10.217  10.507 -3.3319  0.4511 -2.7277
  893MOL0     H17873   7.916  10.342  10.405 -0.5977 -0.0567 -3.1967
  893MOL0     H17874   7.898  10.530  10.793 -0.8284  1.2867 -0.9385
  893MOL0     H17875   7.749   9.890  10.208 -0.7948 -0.7583  3.0687
  893MOL0     H17876   7.647   9.678  10.153  0.9709  0.9464  0.4550
  894MOL0     O17877   8.478  11.214   4.691 -0.3017  0.1924  0.2380
  894MOL0     C17878   8.418  11.115   4.723 -0.6368  0.5081  0.7054
  894MOL0     O17879   8.465  10.983   4.695  0.2855 -0.2464  0.9940
  894MOL0     C17880   8.568  10.968   4.613 -0.3042  0.2469  0.5288
  894MOL0     C17881   8.547  10.934   4.481  0.2136 -0.3322 -0.0823
  894MOL0     C17882   8.648  10.898   4.393 -1.0467  1.0153  0.1190
  894MOL0     C17883   8.780  10.885   4.451  1.0819 -0.2642  0.9466
  894MOL0     O17884   8.891  10.830   4.380 -0.3556  0.6520 -1.0653
  894MOL0     C17885   8.904  10.858   4.243  0.5165 -0.9506 -0.8178
  894MOL0     C17886   8.973  10.737   4.173  0.2314  0.1636  1.3191
  894MOL0     C17887   8.960  10.738   4.024  0.5033 -0.4435  0.2465
  894MOL0     C17888   8.827  10.671   3.970 -0.3314  0.0233  0.6620
  894MOL0     C17889   8.823  10.652   3.811  0.3207 -0.0516  0.3720
  894MOL0     C17890   8.877  10.778   3.742  0.6750  0.3010 -0.1328
  894MOL0     C17891   8.848  10.782   3.588 -0.3585  1.0207 -0.6237
  894MOL0     C17892   8.887  10.918   3.536 -0.1012  0.4269 -0.1214
  894MOL0     N17893   8.863  10.949   3.388  0.0408  0.5175 -0.0915
  894MOL0     C17894   8.927  10.887   3.281 -0.7642 -1.1979  1.0937
  894MOL0     C17895   8.865  10.953   3.180 -0.6284  1.4722  0.1955
  894MOL0     C17896   8.892  10.926   3.032  0.0096 -0.2304  0.1270
  894MOL0     C17897   8.849  10.779   2.998 -0.3042  0.4386  1.1858
  894MOL0     C17898   8.839  10.777   2.845 -0.7713 -0.5717 -0.1157
  894MOL0     C17899   8.800  10.643   2.775  0.2056  0.1930  0.2327
  894MOL0     O17900   8.922  10.561   2.789  0.4007 -0.2296 -0.2287
  894MOL0     C17901   8.941  10.446   2.713  0.0682  0.6227 -0.2962
  894MOL0     C17902   8.854  10.391   2.613 -0.3345  0.2776  0.3878
  894MOL0     C17903   8.882  10.274   2.545  0.3079 -0.8503  0.7813
  894MOL0     C17904   8.995  10.202   2.576 -0.5278  0.1538  0.0353
  894MOL0     C17905   9.037  10.078   2.505 -0.1144  0.5090 -0.2167
  894MOL0     O17906   9.162  10.051   2.513  0.0608 -0.1877  0.2279
  894MOL0     C17907   9.225   9.962   2.429  0.1695 -0.4585 -0.3312
  894MOL0     C17908   9.339   9.895   2.479 -0.1056  0.6506 -0.1862
  894MOL0     C17909   9.421   9.818   2.395  0.0310 -0.6199  0.9192
  894MOL0     C17910   9.386   9.796   2.256 -0.0777  0.2708  0.2768
  894MOL0     O17911   9.461   9.713   2.171 -0.2958  0.1596  0.5008
  894MOL0     C17912   9.589   9.655   2.199 -0.5329 -0.7968 -0.2864
  894MOL0     C17913   9.706   9.744   2.150 -0.2917 -1.1064  1.5480
  894MOL0     C17914   9.714   9.739   1.997 -0.8743 -0.4333 -0.2925
  894MOL0     C17915   9.837   9.822   1.957 -0.1031  0.5686  0.1638
  894MOL0     C17916   9.845   9.841   1.805  0.5339  0.5324  0.8067
  894MOL0     C17917   9.906   9.715   1.740  0.2043 -0.1219 -0.7556
  894MOL0     C17918   9.945   9.727   1.588 -0.2127 -0.3171 -1.1054
  894MOL0     C17919  10.006   9.598   1.548  0.3978 -0.5090 -0.0764
  894MOL0    Cl17920  10.178   9.577   1.607  0.5340 -0.2626  0.5301
  894MOL0     C17921   9.278   9.862   2.207  0.4420  0.5082  0.2289
  894MOL0     C17922   9.198   9.939   2.294  0.2448 -0.2824  0.5758
  894MOL0     O17923   8.953  10.021   2.436 -0.5029 -0.3046 -0.2912
  894MOL0     C17924   9.080  10.248   2.683  0.2039 -0.0304 -0.9296
  894MOL0     C17925   9.058  10.380   2.743 -0.2722  0.6855  0.8348
  894MOL0     N17926   8.764  11.041   3.220  0.2993  0.3567 -0.0053
  894MOL0     N17927   8.762  11.030   3.347 -0.4285 -0.0890 -0.2135
  894MOL0     C17928   8.798  10.927   4.591  0.7496  0.0753  0.6939
  894MOL0     C17929   8.694  10.971   4.665 -0.0585  0.7124 -0.9059
  894MOL0     C17930   8.296  11.150   4.791 -0.6827  0.5144 -0.4616
  894MOL0     C17931   8.219  11.053   4.851  0.7417  0.2940  0.2012
  894MOL0     C17932   8.091  11.085   4.910 -0.4171  0.5086  0.2678
  894MOL0     C17933   8.042  11.211   4.885 -0.0240  0.0738  0.3512
  894MOL0     O17934   7.927  11.245   4.932 -0.0822 -0.5266  0.6007
  894MOL0     C17935   7.923  11.300   5.062 -0.5196 -0.1767 -0.0516
  894MOL0     C17936   7.857  11.193   5.142 -0.9197 -0.0649 -0.9059
  894MOL0     C17937   7.814  11.257   5.276 -0.0856 -0.1125 -0.0494
  894MOL0     C17938   7.691  11.349   5.262  0.3883  0.3520 -0.0035
  894MOL0     C17939   7.578  11.293   5.194 -0.4373 -0.2315  0.0742
  894MOL0     C17940   7.483  11.235   5.150  0.4643  0.2480  0.0460
  894MOL0     C17941   8.111  11.306   4.804 -0.6037  1.1928  0.3350
  894MOL0     C17942   8.240  11.269   4.758  0.6135  0.9906 -0.2470
  894MOL0     H17943   8.443  10.929   4.448  0.1532  2.0494 -0.3796
  894MOL0     H17944   8.623  10.862   4.294  0.8116  1.9228 -0.7404
  894MOL0     H17945   8.955  10.953   4.226  3.5671 -2.4582 -0.7810
  894MOL0     H17946   8.808  10.872   4.193  0.9664 -0.7167 -1.6289
  894MOL0     H17947   8.924  10.647   4.211  1.2211  0.2199  2.8300
  894MOL0     H17948   9.079  10.724   4.199  0.7057 -1.8906 -1.2313
  894MOL0     H17949   9.045  10.691   3.972 -1.6162 -1.2818 -2.7329
  894MOL0     H17950   8.951  10.840   3.985  0.2518 -0.2869  0.7136
  894MOL0     H17951   8.797  10.575   4.013 -3.5933  1.3611  1.7051
  894MOL0     H17952   8.743  10.733   4.001 -1.9073 -1.7503  0.1293
  894MOL0     H17953   8.723  10.617   3.783  0.3730 -1.2403  1.5649
  894MOL0     H17954   8.891  10.569   3.790 -0.2964 -0.6204  0.6053
  894MOL0     H17955   8.986  10.776   3.755  0.7687  1.3507 -0.5961
  894MOL0     H17956   8.832  10.862   3.796  1.9089  0.0365  1.3982
  894MOL0     H17957   8.921  10.712   3.546  1.0136 -0.3542  3.5516
  894MOL0     H17958   8.745  10.754   3.563  0.3449  0.7154 -3.5426
  894MOL0     H17959   8.996  10.920   3.548  0.1546  1.3349 -2.1085
  894MOL0     H17960   8.839  10.989   3.603 -0.8056  1.3278 -1.5324
  894MOL0     H17961   9.000  10.807   3.280  0.2271 -0.3324  1.4416
  894MOL0     H17962   9.000  10.910   3.025  0.0401 -1.1710  2.2681
  894MOL0     H17963   8.852  11.008   2.971  1.6771 -0.6775 -1.6811
  894MOL0     H17964   8.752  10.753   3.043 -0.3079  0.3692  1.1385
  894MOL0     H17965   8.918  10.703   3.036 -0.2188  1.5775  3.4613
  894MOL0     H17966   8.757  10.842   2.814  0.3615  1.8588  1.5873
  894MOL0     H17967   8.930  10.819   2.800 -1.7773  2.3763  0.3740
  894MOL0     H17968   8.776  10.667   2.671  2.5940 -0.0749 -0.4619
  894MOL0     H17969   8.711  10.600   2.821 -0.2284  0.5217 -0.3010
  894MOL0     H17970   8.760  10.438   2.587 -0.9038 -0.3881  1.1611
  894MOL0     H17971   8.804  10.245   2.475 -2.5421  1.8690  2.5724
  894MOL0     H17972   9.369   9.920   2.581 -3.6619  1.2405  0.8593
  894MOL0     H17973   9.508   9.779   2.447  0.5566  1.1083  1.3787
  894MOL0     H17974   9.588   9.556   2.153  1.5722 -1.4764  0.9837
  894MOL0     H17975   9.604   9.628   2.304  2.1142 -0.3314 -0.4629
  894MOL0     H17976   9.792   9.698   2.199 -0.6818 -0.1963  3.1560
  894MOL0     H17977   9.711   9.844   2.194  1.3913 -0.0779 -0.7128
  894MOL0     H17978   9.626   9.780   1.946  0.3602  1.7600 -0.7865
  894MOL0     H17979   9.732   9.634   1.975  1.5682 -0.6167  2.0854
  894MOL0     H17980   9.833   9.924   1.998 -0.5887  1.1146 -1.1851
  894MOL0     H17981   9.928   9.777   1.999 -0.3270 -0.2526 -0.2245
  894MOL0     H17982   9.912   9.923   1.777 -0.4717 -0.1698 -4.7793
  894MOL0     H17983   9.749   9.866   1.759  0.7372  0.1304  0.1429
  894MOL0     H17984   9.843   9.626   1.752  1.8425 -1.3948 -1.2335
  894MOL0     H17985  10.007   9.690   1.776 -0.3573 -1.7439 -0.1859
  894MOL0     H17986   9.862   9.762   1.526 -2.4905 -1.5124  1.0729
  894MOL0     H17987  10.032   9.794   1.595  0.2468 -1.0718  2.1408
  894MOL0     H17988  10.013   9.603   1.439 -1.9014 -0.4440 -0.2649
  894MOL0     H17989   9.941   9.514   1.576  0.0651 -0.9057 -1.9187
  894MOL0     H17990   9.266   9.843   2.101 -1.0209 -2.2410  0.7928
  894MOL0     H17991   9.122   9.998   2.243 -0.6007 -0.3752  1.7068
  894MOL0     H17992   9.172  10.197   2.709  1.7427  2.5212 -1.0266
  894MOL0     H17993   9.123  10.419   2.821 -0.7460  2.1009  0.5430
  894MOL0     H17994   8.898  10.923   4.630  1.0686  0.9683  0.0035
  894MOL0     H17995   8.703  10.998   4.770  0.8201  2.1560 -1.3195
  894MOL0     H17996   8.246  10.949   4.860 -3.0243 -0.9006 -0.4144
  894MOL0     H17997   8.033  11.017   4.971  0.7286  0.1241  0.9462
  894MOL0     H17998   7.879  11.400   5.061 -3.3471 -1.3121  0.0042
  894MOL0     H17999   8.024  11.314   5.101 -1.5187  0.8982  2.3052
  894MOL0     H18000   7.781  11.139   5.085 -3.1626  0.8388  1.0594
  894MOL0     H18001   7.941  11.132   5.176  0.0800  2.2232  1.0472
  894MOL0     H18002   7.896  11.308   5.327 -1.9133  3.3794 -0.3370
  894MOL0     H18003   7.780  11.175   5.339 -2.6641  2.2795  1.8658
  894MOL0     H18004   7.662  11.363   5.367  1.8505  0.7452  0.3634
  894MOL0     H18005   7.716  11.448   5.223  1.0302  0.2906  0.2407
  894MOL0     H18006   7.394  11.181   5.124 -0.8474  1.7074  1.2959
  894MOL0     H18007   8.072  11.401   4.769 -1.8822 -0.1860 -2.3382
  894MOL0     H18008   8.293  11.332   4.687 -0.7153  1.4922 -0.8304
  895MOL0     O18009  10.060   5.322   8.781 -0.6487  0.5970 -0.0324
  895MOL0     C18010  10.136   5.340   8.680  0.5420  0.2622 -1.4443
  895MOL0     O18011  10.100   5.317   8.549  0.4587 -0.4446 -0.3502
  895MOL0     C18012   9.976   5.280   8.503  0.0818 -0.4312  0.8339
  895MOL0     C18013   9.851   5.310   8.571  0.4989  0.1715  0.7547
  895MOL0     C18014   9.730   5.278   8.508  0.7011  0.2040 -0.0762
  895MOL0     C18015   9.728   5.213   8.381 -0.0279  0.0943 -0.7326
  895MOL0     O18016   9.610   5.169   8.338  0.1728  0.1233  0.1113
  895MOL0     C18017   9.587   5.106   8.210  0.1430 -0.3108 -0.5122
  895MOL0     C18018   9.456   5.143   8.155  0.6265 -0.2550 -0.6817
  895MOL0     C18019   9.422   5.064   8.036  0.5418  0.2240 -0.0019
  895MOL0     C18020   9.272   5.065   8.002 -0.3790  0.4096  0.1239
  895MOL0     C18021   9.246   5.017   7.852 -0.3907  0.3660  0.3984
  895MOL0     C18022   9.100   5.062   7.818 -0.0770  0.1261 -0.3997
  895MOL0     C18023   9.046   4.994   7.690  0.6105  0.7704 -0.3168
  895MOL0     C18024   8.902   5.040   7.637  0.7306 -0.4060 -0.4233
  895MOL0     N18025   8.775   5.030   7.718  0.2645 -0.7079 -0.9311
  895MOL0     C18026   8.667   4.955   7.684  0.4175  0.1957 -0.7455
  895MOL0     C18027   8.594   4.943   7.798  0.0784  0.0228 -0.5033
  895MOL0     C18028   8.469   4.865   7.822 -0.4551  0.2912  0.6657
  895MOL0     C18029   8.349   4.947   7.814  0.2403 -0.2761  0.0377
  895MOL0     C18030   8.308   4.973   7.668 -0.7229  0.0026 -0.1206
  895MOL0     C18031   8.167   5.037   7.664 -0.5571  0.0236  0.2180
  895MOL0     O18032   8.147   5.133   7.552 -0.4648  0.3207 -0.3154
  895MOL0     C18033   8.171   5.075   7.429  1.1501 -0.3401 -0.2459
  895MOL0     C18034   8.073   4.985   7.378 -0.3548  0.0616 -0.4729
  895MOL0     C18035   8.094   4.938   7.252 -0.4425 -0.0504  0.4896
  895MOL0     C18036   8.194   4.992   7.165  0.6092  0.3255 -0.2314
  895MOL0     C18037   8.211   4.939   7.034  0.2538  0.4987 -0.4286
  895MOL0     O18038   8.303   5.002   6.954 -0.7210  0.0604  0.2786
  895MOL0     C18039   8.310   4.932   6.825 -1.1221 -0.1364  0.1196
  895MOL0     C18040   8.395   4.813   6.795  0.2431 -0.0100 -0.4869
  895MOL0     C18041   8.434   4.778   6.669  0.1597 -0.2693 -0.3735
  895MOL0     C18042   8.376   4.843   6.564  0.2174 -0.4957 -0.3518
  895MOL0     O18043   8.413   4.801   6.438  0.0063 -0.3594 -1.0239
  895MOL0     C18044   8.371   4.860   6.312  0.2529  0.5802 -0.8089
  895MOL0     C18045   8.443   4.987   6.292 -0.3552 -0.5086 -0.0940
  895MOL0     C18046   8.411   5.064   6.163  0.2268  0.9078 -0.8097
  895MOL0     C18047   8.431   4.989   6.029 -0.8458 -0.3463  0.0817
  895MOL0     C18048   8.360   5.064   5.912 -0.5885 -0.1980 -0.1977
  895MOL0     C18049   8.363   4.972   5.791 -0.6995  1.1049 -0.3869
  895MOL0     C18050   8.317   5.039   5.663  0.3393 -0.7341 -0.0807
  895MOL0     C18051   8.285   4.938   5.550 -1.0794 -0.4020  0.4834
  895MOL0    Cl18052   8.429   4.840   5.510 -0.3610 -0.1032  0.4554
  895MOL0     C18053   8.286   4.950   6.584 -0.2301  0.7839  0.6205
  895MOL0     C18054   8.251   4.992   6.718 -0.6318  0.3125 -0.2659
  895MOL0     O18055   8.130   4.856   6.992  0.1969  0.2730 -0.1369
  895MOL0     C18056   8.265   5.106   7.215  0.4369 -0.0177 -0.6013
  895MOL0     C18057   8.251   5.147   7.345 -0.7375  0.2660  0.3663
  895MOL0     N18058   8.660   5.008   7.901 -0.4926 -0.0899  0.6857
  895MOL0     N18059   8.767   5.065   7.853 -0.3629 -0.2256 -0.1652
  895MOL0     C18060   9.844   5.193   8.319  0.1466  0.8972 -0.3545
  895MOL0     C18061   9.975   5.223   8.379  0.5812 -0.5425  0.9109
  895MOL0     C18062  10.271   5.400   8.702  0.7019  0.3385 -0.2880
  895MOL0     C18063  10.308   5.450   8.828  0.6316 -0.1863 -0.2491
  895MOL0     C18064  10.431   5.507   8.853 -0.1679  0.0217 -0.7413
  895MOL0     C18065  10.517   5.542   8.751  0.0346  0.2247  0.7946
  895MOL0     O18066  10.620   5.625   8.776 -0.2248 -0.6381  0.0657
  895MOL0     C18067  10.736   5.613   8.687  0.2149  1.1090  0.5163
  895MOL0     C18068  10.867   5.670   8.749  0.2217 -0.4735  0.0687
  895MOL0     C18069  10.876   5.823   8.740 -0.5783 -0.2661 -0.2080
  895MOL0     C18070  11.007   5.894   8.777 -0.0640  0.1952  0.2486
  895MOL0     C18071  11.053   5.843   8.906 -0.5296  0.6890 -0.7712
  895MOL0     C18072  11.111   5.806   9.007  0.2268  0.2006  0.9762
  895MOL0     C18073  10.485   5.490   8.621 -0.7729  0.5534 -0.4558
  895MOL0     C18074  10.368   5.404   8.599 -0.5049  0.0209 -0.7566
  895MOL0     H18075   9.845   5.353   8.670  0.9805 -0.4558  1.0577
  895MOL0     H18076   9.634   5.299   8.554  1.0466  0.9825  0.2966
  895MOL0     H18077   9.592   4.997   8.219  0.3011 -0.2574  0.1357
  895MOL0     H18078   9.664   5.146   8.144  2.3629 -1.2785  1.3451
  895MOL0     H18079   9.455   5.249   8.132  2.2887  0.2624  1.3039
  895MOL0     H18080   9.382   5.124   8.234  0.7047  3.8789  0.6208
  895MOL0     H18081   9.451   4.963   8.064 -0.4747  0.7993  3.6844
  895MOL0     H18082   9.486   5.103   7.957 -0.4739  2.5545  0.2372
  895MOL0     H18083   9.216   5.005   8.075  2.1760  0.7797  2.5913
  895MOL0     H18084   9.230   5.166   8.004 -3.4660 -0.7724  0.1147
  895MOL0     H18085   9.252   4.908   7.842 -3.0828  0.1807 -0.0224
  895MOL0     H18086   9.316   5.053   7.776  0.7502 -1.5768  0.4554
  895MOL0     H18087   9.108   5.168   7.794  1.6651  0.7548  2.5454
  895MOL0     H18088   9.046   5.041   7.911 -0.2399  1.5476 -0.1611
  895MOL0     H18089   9.117   5.001   7.607 -0.2692  1.4302 -1.0301
  895MOL0     H18090   9.027   4.892   7.726  1.1661  0.9946  0.6372
  895MOL0     H18091   8.862   4.991   7.548  2.0491  2.7928 -2.9652
  895MOL0     H18092   8.912   5.145   7.608  2.7042  0.0898  1.6908
  895MOL0     H18093   8.649   4.913   7.585  1.4872 -2.4207  0.0911
  895MOL0     H18094   8.469   4.818   7.921  1.6988 -2.8502 -0.6669
  895MOL0     H18095   8.477   4.788   7.745  0.8983  1.9910 -1.0004
  895MOL0     H18096   8.371   5.038   7.870  4.2325  0.8401 -2.8753
  895MOL0     H18097   8.262   4.889   7.846  1.3747 -3.1528 -1.6795
  895MOL0     H18098   8.376   5.049   7.628  0.8619 -2.1991 -1.8755
  895MOL0     H18099   8.320   4.889   7.599  1.4865 -0.3145  0.5756
  895MOL0     H18100   8.162   5.092   7.758  0.7494 -2.1736  1.6603
  895MOL0     H18101   8.089   4.961   7.666 -1.3695  0.7321 -1.5479
  895MOL0     H18102   7.995   4.961   7.449  1.2551 -0.4231  1.2342
  895MOL0     H18103   8.023   4.870   7.205 -0.3616  0.5531 -0.5446
  895MOL0     H18104   8.435   4.754   6.877 -0.6547 -0.4577 -0.3594
  895MOL0     H18105   8.497   4.690   6.659 -0.5303 -0.7793 -0.3976
  895MOL0     H18106   8.262   4.871   6.315  0.2522  0.4189  1.2253
  895MOL0     H18107   8.399   4.791   6.232  2.8534  0.7748 -0.1491
  895MOL0     H18108   8.552   4.980   6.291 -0.1707  1.4677 -2.3492
  895MOL0     H18109   8.411   5.045   6.379 -2.4334  1.0768 -1.7740
  895MOL0     H18110   8.460   5.162   6.164 -2.7208  2.5125  1.6776
  895MOL0     H18111   8.307   5.091   6.181 -0.0263  0.3146 -1.3602
  895MOL0     H18112   8.538   4.985   6.006 -0.9006  1.7941 -0.7614
  895MOL0     H18113   8.391   4.888   6.019 -3.6732  0.9722 -4.7652
  895MOL0     H18114   8.418   5.154   5.892  0.8468 -1.1833 -0.5917
  895MOL0     H18115   8.256   5.094   5.931 -0.1664 -0.1290  2.3360
  895MOL0     H18116   8.296   4.885   5.799  0.4183  0.1727 -0.8833
  895MOL0     H18117   8.462   4.925   5.782 -0.8051  1.0694 -1.5067
  895MOL0     H18118   8.239   5.110   5.692  0.6037 -0.7371  0.6572
  895MOL0     H18119   8.390   5.109   5.622 -0.9103 -0.0504 -1.2516
  895MOL0     H18120   8.258   4.982   5.453 -0.6482 -0.6134  0.2638
  895MOL0     H18121   8.211   4.867   5.586 -0.3951 -1.7412 -0.6613
  895MOL0     H18122   8.246   5.010   6.502 -0.0357  0.2201  0.1077
  895MOL0     H18123   8.196   5.083   6.738  0.3027  0.5314  1.5174
  895MOL0     H18124   8.342   5.157   7.158  0.0426  1.5806  0.2341
  895MOL0     H18125   8.324   5.219   7.381  2.6392 -1.8458 -1.6816
  895MOL0     H18126   9.844   5.156   8.216 -0.8395  4.2149 -1.6796
  895MOL0     H18127  10.070   5.225   8.326  0.3949  3.4452  0.3999
  895MOL0     H18128  10.247   5.436   8.917  1.5408 -2.6216  0.0786
  895MOL0     H18129  10.467   5.533   8.953 -0.1183  0.3941 -0.8545
  895MOL0     H18130  10.714   5.653   8.587 -0.3182  1.4831  0.7764
  895MOL0     H18131  10.768   5.509   8.681 -0.4935  0.6006  3.7295
  895MOL0     H18132  10.877   5.643   8.854 -0.3364  2.9307  1.1409
  895MOL0     H18133  10.953   5.630   8.694 -0.8924  0.6174 -2.6422
  895MOL0     H18134  10.799   5.865   8.806 -0.2154 -0.6115  0.4552
  895MOL0     H18135  10.849   5.856   8.640 -1.8062  0.1141  0.2245
  895MOL0     H18136  11.074   5.870   8.694 -1.6552  0.7078 -1.2445
  895MOL0     H18137  11.005   6.003   8.773  3.0913  0.2942 -1.8059
  895MOL0     H18138  11.169   5.764   9.088 -1.3974 -2.4135  0.9096
  895MOL0     H18139  10.556   5.512   8.542 -0.1593  1.2179  0.2693
  895MOL0     H18140  10.363   5.355   8.502 -1.0063 -1.5293  0.0194
  896MOL0     O18141   9.451   3.164   0.649 -0.1613  0.2747  0.4038
  896MOL0     C18142   9.536   3.144   0.564 -1.0146 -0.2331  0.3813
  896MOL0     O18143   9.671   3.163   0.574  0.6833  0.7367 -0.7242
  896MOL0     C18144   9.733   3.212   0.690 -0.1903  0.5654 -0.1942
  896MOL0     C18145   9.850   3.292   0.667  0.0285  0.6406 -0.3477
  896MOL0     C18146   9.915   3.346   0.779  0.4506 -0.5107 -1.0254
  896MOL0     C18147   9.868   3.318   0.911  0.0881  1.2579  0.0120
  896MOL0     O18148   9.925   3.376   1.024  0.3496  0.6510 -0.1618
  896MOL0     C18149  10.059   3.433   1.026  0.8328 -0.1367 -0.1702
  896MOL0     C18150  10.071   3.501   1.158 -0.2090  1.3270 -0.4966
  896MOL0     C18151  10.163   3.618   1.148 -0.4212  0.2798 -0.0595
  896MOL0     C18152  10.150   3.712   1.267 -0.6186 -0.2701  0.7144
  896MOL0     C18153  10.236   3.844   1.247 -0.5136 -0.5170 -0.2727
  896MOL0     C18154  10.266   3.919   1.380 -0.5616 -1.1352 -0.6932
  896MOL0     C18155  10.369   3.852   1.468  0.3289 -0.2360 -0.7464
  896MOL0     C18156  10.385   3.940   1.592 -0.6894  0.0806  0.0598
  896MOL0     N18157  10.496   4.035   1.564 -0.0577  0.3070 -0.4199
  896MOL0     C18158  10.624   4.051   1.617  0.8191  0.2475  0.3664
  896MOL0     C18159  10.664   4.167   1.577 -0.3739  0.6070  0.5614
  896MOL0     C18160  10.776   4.247   1.618 -1.0704 -0.2265  0.6172
  896MOL0     C18161  10.909   4.205   1.538 -0.8216 -0.4077  0.0113
  896MOL0     C18162  11.023   4.291   1.570 -0.2824 -0.0398  0.9086
  896MOL0     C18163  11.157   4.222   1.552 -0.3356 -0.2557  0.6535
  896MOL0     O18164  11.160   4.123   1.446  0.8672 -0.0093  0.1771
  896MOL0     C18165  11.276   4.114   1.370  0.5235 -0.2882 -0.4467
  896MOL0     C18166  11.262   4.069   1.238 -0.5172  0.3605  0.2162
  896MOL0     C18167  11.379   4.070   1.154 -0.0203  0.0884  0.2243
  896MOL0     C18168  11.500   4.112   1.196 -0.2515 -0.5258 -0.0196
  896MOL0     C18169  11.611   4.120   1.100 -0.5840 -1.6607  0.4246
  896MOL0     O18170  11.596   4.084   0.971  0.9137  0.1322  0.6673
  896MOL0     C18171  11.689   4.091   0.875 -0.1104  0.3249 -0.0400
  896MOL0     C18172  11.754   4.216   0.865 -0.5943 -0.4681  0.1321
  896MOL0     C18173  11.852   4.240   0.775  0.7491  0.9608  1.3444
  896MOL0     C18174  11.898   4.136   0.691  0.0940  0.2335  0.2100
  896MOL0     O18175  11.999   4.141   0.595  0.2896 -0.1530 -0.2995
  896MOL0     C18176  12.100   4.243   0.586  0.1897  0.7535 -0.3221
  896MOL0     C18177  12.194   4.193   0.473 -0.6234  1.4422 -0.4732
  896MOL0     C18178  12.261   4.062   0.510 -0.3340  0.0212  0.5429
  896MOL0     C18179  12.367   4.008   0.398  0.3685  0.4864  1.7249
  896MOL0     C18180  12.508   4.068   0.429  0.0864  0.1038 -0.3376
  896MOL0     C18181  12.623   3.992   0.366  0.1880 -0.1588  0.3504
  896MOL0     C18182  12.617   4.001   0.210 -1.0267  0.2900  0.8551
  896MOL0     C18183  12.742   3.933   0.145  0.4193  1.1337 -0.1050
  896MOL0    Cl18184  12.887   4.036   0.168  0.1273  0.6866 -0.1241
  896MOL0     C18185  11.834   4.012   0.697  0.6371 -0.4975  1.3001
  896MOL0     C18186  11.723   3.998   0.783 -0.4298  0.3833  0.0557
  896MOL0     O18187  11.721   4.135   1.153 -0.2220  0.3606  0.9861
  896MOL0     C18188  11.512   4.128   1.338  0.6820  0.7109  0.9418
  896MOL0     C18189  11.403   4.130   1.423  0.4187 -0.2305  0.3336
  896MOL0     N18190  10.576   4.225   1.486  0.3395  0.3925 -0.3282
  896MOL0     N18191  10.475   4.147   1.486 -0.3312  0.5242 -0.3141
  896MOL0     C18192   9.766   3.218   0.935  1.1430  0.2343 -0.0664
  896MOL0     C18193   9.694   3.165   0.822  0.5349  0.1881  0.8994
  896MOL0     C18194   9.492   3.092   0.432  0.4028  1.3047  0.5887
  896MOL0     C18195   9.349   3.058   0.394 -0.4334  0.2635  0.0710
  896MOL0     C18196   9.311   3.008   0.268 -0.4459  0.3645 -0.2130
  896MOL0     C18197   9.404   2.994   0.167 -0.0378  0.4521  0.6975
  896MOL0     O18198   9.365   2.942   0.046 -0.7614  0.7494 -0.3579
  896MOL0     C18199   9.458   2.948  -0.066 -0.4579  0.6741 -0.8858
  896MOL0     C18200   9.400   2.861  -0.171  0.1094  0.3134  0.4142
  896MOL0     C18201   9.409   2.710  -0.135  0.9438 -0.8652  0.6355
  896MOL0     C18202   9.338   2.616  -0.235  0.2849 -0.0262 -1.1138
  896MOL0     C18203   9.190   2.631  -0.243 -0.5373 -0.4411  0.9913
  896MOL0     C18204   9.069   2.635  -0.246 -0.2596  1.3724  0.0167
  896MOL0     C18205   9.536   3.024   0.204 -0.0804  0.7101  0.5040
  896MOL0     C18206   9.582   3.063   0.330  0.4490  0.0505 -0.1188
  896MOL0     H18207   9.871   3.322   0.565  0.5670 -1.0030 -0.7660
  896MOL0     H18208   9.996   3.417   0.761 -2.7227  3.5490 -0.8527
  896MOL0     H18209  10.052   3.506   0.945 -1.9726  0.0280  0.1373
  896MOL0     H18210  10.136   3.359   1.001  0.6949 -0.1144 -0.6796
  896MOL0     H18211  10.099   3.428   1.234 -0.3174 -1.1226 -2.7038
  896MOL0     H18212   9.974   3.536   1.197  1.6745  1.1129  5.4293
  896MOL0     H18213  10.158   3.673   1.054 -0.5627  0.4457  0.0443
  896MOL0     H18214  10.261   3.569   1.146 -0.9518 -0.9437 -4.1138
  896MOL0     H18215  10.046   3.746   1.278 -0.6967 -1.0591  2.9499
  896MOL0     H18216  10.177   3.653   1.355 -2.2254 -1.1406  0.6752
  896MOL0     H18217  10.175   3.913   1.187  0.8141  1.4223  0.4926
  896MOL0     H18218  10.328   3.806   1.202  0.2598  0.5898  0.3159
  896MOL0     H18219  10.170   3.932   1.431 -0.7658  1.5835 -1.5822
  896MOL0     H18220  10.305   4.018   1.354 -0.8706 -0.5943  0.7993
  896MOL0     H18221  10.332   3.753   1.492 -1.6679 -0.0789 -2.8753
  896MOL0     H18222  10.465   3.844   1.416  0.0864 -1.1460 -1.0684
  896MOL0     H18223  10.409   3.886   1.684  0.9977  4.1767  2.2845
  896MOL0     H18224  10.299   4.005   1.611 -0.0449  0.9624  0.0218
  896MOL0     H18225  10.689   3.976   1.661  0.3582 -1.0259 -1.0482
  896MOL0     H18226  10.796   4.230   1.724  3.2033 -2.8570 -0.3501
  896MOL0     H18227  10.754   4.352   1.596  1.1534  0.0561 -0.4927
  896MOL0     H18228  10.891   4.223   1.432  1.0163  1.2332 -0.0832
  896MOL0     H18229  10.926   4.099   1.558  1.5999  0.0723  0.8706
  896MOL0     H18230  11.035   4.381   1.508  0.3506  1.5605  3.1914
  896MOL0     H18231  11.015   4.324   1.674 -1.2535 -0.2428  0.9058
  896MOL0     H18232  11.186   4.171   1.645 -1.9172 -1.0843  0.7203
  896MOL0     H18233  11.232   4.302   1.545  1.2455 -1.1445  4.5275
  896MOL0     H18234  11.171   4.032   1.192 -0.1482 -0.7877  0.3885
  896MOL0     H18235  11.367   4.030   1.054 -3.1199  1.0651  0.1038
  896MOL0     H18236  11.731   4.298   0.933  0.5649  0.2584 -0.3175
  896MOL0     H18237  11.893   4.341   0.772  1.1404  0.8197  1.8398
  896MOL0     H18238  12.154   4.249   0.681  2.8682 -0.4367 -1.6695
  896MOL0     H18239  12.058   4.338   0.554  0.8275  1.0593 -0.2691
  896MOL0     H18240  12.269   4.272   0.463 -1.4298  2.7079  2.5490
  896MOL0     H18241  12.133   4.184   0.383 -1.8509 -4.0419  0.5425
  896MOL0     H18242  12.188   3.981   0.512 -0.6563  0.2906 -0.1873
  896MOL0     H18243  12.285   4.064   0.617 -1.9000 -0.2053  0.9268
  896MOL0     H18244  12.374   3.899   0.409 -0.0142 -0.0445 -2.0576
  896MOL0     H18245  12.349   4.028   0.292  1.6046 -0.4828  1.3146
  896MOL0     H18246  12.527   4.048   0.534  0.2007 -0.0351 -0.3846
  896MOL0     H18247  12.517   4.172   0.396 -0.2995  0.2740  0.0987
  896MOL0     H18248  12.618   3.886   0.392 -4.4361  0.4960  3.1841
  896MOL0     H18249  12.720   4.033   0.397 -0.3939  0.4344  1.4333
  896MOL0     H18250  12.527   3.951   0.174  0.5808 -0.5967 -2.2594
  896MOL0     H18251  12.616   4.107   0.182 -0.9265  0.7908  2.5736
  896MOL0     H18252  12.712   3.901   0.045 -0.9006 -1.0729  0.9107
  896MOL0     H18253  12.746   3.835   0.194 -2.2584  1.2507  0.4992
  896MOL0     H18254  11.869   3.936   0.627 -1.2402 -2.2019  2.1464
  896MOL0     H18255  11.668   3.905   0.790 -0.0538  0.2109  0.8889
  896MOL0     H18256  11.610   4.154   1.375  3.0200 -4.2782 -0.8543
  896MOL0     H18257  11.413   4.157   1.527 -2.4754 -1.0216  0.8874
  896MOL0     H18258   9.743   3.192   1.038  2.7684 -1.0256  0.0143
  896MOL0     H18259   9.605   3.104   0.836 -0.1396  0.8181 -0.4637
  896MOL0     H18260   9.269   3.075   0.465  0.5472 -0.6258  1.4533
  896MOL0     H18261   9.209   2.979   0.247 -0.9129 -0.4513  2.7039
  896MOL0     H18262   9.557   2.910  -0.038 -0.1030  2.0291 -0.2317
  896MOL0     H18263   9.483   3.052  -0.087  0.1050  1.5064  3.1308
  896MOL0     H18264   9.293   2.883  -0.177 -0.7035 -2.9678  0.9027
  896MOL0     H18265   9.445   2.882  -0.268  1.1003  0.0551  0.8053
  896MOL0     H18266   9.363   2.698  -0.036  1.5980  0.0775  1.0685
  896MOL0     H18267   9.516   2.698  -0.120  2.4045  5.3040 -1.6009
  896MOL0     H18268   9.387   2.630  -0.332  1.4322 -0.0238 -0.5482
  896MOL0     H18269   9.354   2.510  -0.212 -2.9516 -0.8742 -2.2114
  896MOL0     H18270   8.963   2.625  -0.251 -0.1043 -0.3913 -0.4493
  896MOL0     H18271   9.616   3.006   0.133 -0.9074  1.7380 -0.7410
  896MOL0     H18272   9.689   3.081   0.340  0.4378  0.7997 -1.1737
  897MOL0     O18273   2.880   5.497   1.243  0.8264  0.4675  0.2227
  897MOL0     C18274   2.951   5.557   1.160  1.4160  0.2110 -0.0760
  897MOL0     O18275   3.077   5.607   1.175  0.3885 -0.0553 -0.1752
  897MOL0     C18276   3.119   5.606   1.304  0.0796 -1.0143 -0.5032
  897MOL0     C18277   3.058   5.689   1.393 -0.3006  0.1432 -0.9485
  897MOL0     C18278   3.112   5.696   1.524  0.0584  0.3812  0.1777
  897MOL0     C18279   3.217   5.610   1.563  0.9342 -0.3588 -0.3350
  897MOL0     O18280   3.266   5.605   1.687  0.2113 -0.7637 -0.0792
  897MOL0     C18281   3.311   5.737   1.728  0.6702 -0.1900 -0.6900
  897MOL0     C18282   3.441   5.732   1.801  0.6654  0.4551  0.5655
  897MOL0     C18283   3.440   5.646   1.925 -0.4903  0.8971  0.1063
  897MOL0     C18284   3.546   5.694   2.031  0.1177 -0.6518  0.7300
  897MOL0     C18285   3.542   5.616   2.171  0.1353 -0.5073 -0.2414
  897MOL0     C18286   3.655   5.642   2.264  0.5248 -0.3828  0.9392
  897MOL0     C18287   3.671   5.542   2.371 -0.5005  0.3446  0.1342
  897MOL0     C18288   3.746   5.608   2.498 -0.2722 -0.1616 -0.3605
  897MOL0     N18289   3.864   5.687   2.460  0.9564 -0.2132 -0.5481
  897MOL0     C18290   3.857   5.823   2.452  0.4933  0.7450 -0.2084
  897MOL0     C18291   3.982   5.864   2.431 -0.4728  0.1034  0.7722
  897MOL0     C18292   4.044   6.001   2.454 -0.4211  0.3983 -0.5550
  897MOL0     C18293   4.146   6.020   2.347 -0.1862 -1.3310  1.1777
  897MOL0     C18294   4.085   6.063   2.215 -0.6765  0.5568  0.5880
  897MOL0     C18295   4.197   6.092   2.114  0.1236  0.0547 -0.3065
  897MOL0     O18296   4.146   6.154   1.996 -0.0332 -0.3048  0.3906
  897MOL0     C18297   4.067   6.087   1.908 -0.6873 -0.3636 -0.0026
  897MOL0     C18298   4.017   6.164   1.806 -0.5608 -0.2121 -0.3789
  897MOL0     C18299   3.925   6.099   1.719 -1.0796 -0.4779 -0.0412
  897MOL0     C18300   3.884   5.965   1.737 -0.5036  0.1538  0.8446
  897MOL0     C18301   3.795   5.897   1.643  0.0314  0.6857  0.0841
  897MOL0     O18302   3.762   5.969   1.532  0.5461 -0.7988  0.2025
  897MOL0     C18303   3.692   5.913   1.435 -0.2335  0.0987 -0.8128
  897MOL0     C18304   3.737   5.903   1.306 -0.9579 -0.2610  0.9644
  897MOL0     C18305   3.662   5.851   1.193 -0.4946  1.2142  0.4461
  897MOL0     C18306   3.528   5.819   1.214  0.0491  0.3691  0.1004
  897MOL0     O18307   3.444   5.779   1.117  0.0754  1.1839 -0.5287
  897MOL0     C18308   3.427   5.871   1.015 -0.5266 -0.3595  1.0285
  897MOL0     C18309   3.280   5.894   1.015  0.2548 -0.2987 -0.7705
  897MOL0     C18310   3.239   5.980   0.901  0.7364 -0.3746  1.0240
  897MOL0     C18311   3.098   6.035   0.897 -0.1156 -0.7133 -0.2460
  897MOL0     C18312   3.057   6.086   0.755  0.3758 -1.0584 -0.2160
  897MOL0     C18313   3.042   5.985   0.647 -0.1311  0.5434 -0.3148
  897MOL0     C18314   2.941   6.021   0.543  0.1174 -1.6103  0.4172
  897MOL0     C18315   2.922   5.904   0.445 -0.4027  0.0838  0.3186
  897MOL0    Cl18316   2.801   5.954   0.324 -0.2761  0.6003 -0.5161
  897MOL0     C18317   3.480   5.826   1.348 -0.4346 -0.1343  0.4713
  897MOL0     C18318   3.563   5.862   1.455 -0.2515 -0.2424  0.3053
  897MOL0     O18319   3.775   5.776   1.657  0.4768 -0.1422  0.4361
  897MOL0     C18320   3.936   5.889   1.839 -0.0771  0.0337 -0.2794
  897MOL0     C18321   4.038   5.951   1.917  0.1885  0.7181 -0.4418
  897MOL0     N18322   4.059   5.753   2.409 -0.6894 -0.2052 -0.1194
  897MOL0     N18323   3.986   5.651   2.429 -0.3817  0.5100  0.3526
  897MOL0     C18324   3.275   5.526   1.467  0.0904 -0.2659 -0.1866
  897MOL0     C18325   3.231   5.516   1.332 -0.4784  0.0895  0.3141
  897MOL0     C18326   2.897   5.564   1.023  0.8655 -0.5465 -0.5133
  897MOL0     C18327   2.760   5.563   0.992  0.8001  0.2612 -0.7569
  897MOL0     C18328   2.718   5.577   0.859 -0.4769 -0.7978  0.5373
  897MOL0     C18329   2.807   5.579   0.744  0.0891  0.3779 -0.3125
  897MOL0     O18330   2.781   5.576   0.610 -0.4622 -0.1965 -0.6004
  897MOL0     C18331   2.656   5.638   0.576 -0.1935  0.8257  0.6521
  897MOL0     C18332   2.649   5.635   0.422 -0.4672  0.7537  1.0146
  897MOL0     C18333   2.515   5.694   0.382 -1.0813 -0.4479 -0.0367
  897MOL0     C18334   2.522   5.753   0.239 -0.4941  0.2787  0.5089
  897MOL0     C18335   2.397   5.734   0.163  0.4005 -0.3146 -0.5859
  897MOL0     C18336   2.286   5.714   0.111 -0.0822 -0.1948 -0.2279
  897MOL0     C18337   2.941   5.586   0.781  0.6670 -0.2689 -0.5164
  897MOL0     C18338   2.980   5.582   0.915 -0.4878  0.6863 -0.2074
  897MOL0     H18339   2.970   5.749   1.377 -1.5263 -1.2491  0.1667
  897MOL0     H18340   3.062   5.776   1.579  1.7545  2.4433 -1.1240
  897MOL0     H18341   3.232   5.772   1.795  0.9898 -0.8322  0.0381
  897MOL0     H18342   3.313   5.813   1.649 -0.1568  1.8085  1.0780
  897MOL0     H18343   3.472   5.832   1.833 -1.7043  1.9129 -1.3552
  897MOL0     H18344   3.516   5.704   1.727  0.5621  0.1551  0.5751
  897MOL0     H18345   3.453   5.539   1.908  1.7776  1.4057 -1.8021
  897MOL0     H18346   3.346   5.666   1.977 -2.0648 -0.8093 -1.9377
  897MOL0     H18347   3.643   5.671   1.986  0.3387  0.3275  0.6944
  897MOL0     H18348   3.537   5.801   2.049 -2.3470 -1.0729  2.4709
  897MOL0     H18349   3.542   5.509   2.152  2.8054 -1.1121  2.2714
  897MOL0     H18350   3.439   5.628   2.206 -1.0663 -4.8811 -1.6811
  897MOL0     H18351   3.640   5.744   2.300 -1.0797 -0.2892  0.0831
  897MOL0     H18352   3.753   5.653   2.217  1.1868  0.2734  2.4164
  897MOL0     H18353   3.580   5.501   2.415 -0.4424  0.2486  0.1652
  897MOL0     H18354   3.723   5.455   2.330 -0.8221  0.5752 -0.7921
  897MOL0     H18355   3.778   5.514   2.545 -2.1405 -0.1288  1.0669
  897MOL0     H18356   3.685   5.664   2.570  1.7089 -1.5821  2.6449
  897MOL0     H18357   3.774   5.883   2.487 -0.7923 -1.9969  1.7752
  897MOL0     H18358   4.095   5.987   2.550  0.6504 -2.6166 -1.4507
  897MOL0     H18359   3.964   6.076   2.456  0.6836  1.5981  1.2572
  897MOL0     H18360   4.213   5.936   2.330  2.6648  1.3100 -2.4266
  897MOL0     H18361   4.206   6.109   2.370 -0.8191 -0.2098 -1.1813
  897MOL0     H18362   4.013   5.991   2.176  0.0096  1.1223 -1.8566
  897MOL0     H18363   4.032   6.158   2.231 -1.3309  0.0258  1.6617
  897MOL0     H18364   4.248   5.997   2.096 -0.1719 -0.0780 -0.4480
  897MOL0     H18365   4.276   6.159   2.150 -0.5966  1.3319 -1.0545
  897MOL0     H18366   4.057   6.264   1.798  0.5912 -0.7472 -1.9766
  897MOL0     H18367   3.868   6.171   1.662  1.2403  0.9629 -0.6897
  897MOL0     H18368   3.839   5.934   1.289 -0.9389 -0.5744  0.4857
  897MOL0     H18369   3.695   5.850   1.090 -0.2038  1.1038  0.5419
  897MOL0     H18370   3.455   5.827   0.919  1.0865  1.2554  0.7115
  897MOL0     H18371   3.485   5.963   1.025  0.9491 -0.7307 -2.5380
  897MOL0     H18372   3.249   5.949   1.104  2.1198  0.5792 -0.6242
  897MOL0     H18373   3.223   5.801   1.005 -0.3331 -0.0824  0.4432
  897MOL0     H18374   3.262   5.914   0.817 -0.5344  2.4643 -1.7732
  897MOL0     H18375   3.300   6.070   0.894  1.2529 -0.6750  1.5948
  897MOL0     H18376   3.049   5.946   0.938 -0.3347  1.0092  3.6351
  897MOL0     H18377   3.091   6.116   0.970  1.9056 -0.2888 -0.4536
  897MOL0     H18378   3.109   6.178   0.726 -0.3353 -0.0368  1.5619
  897MOL0     H18379   2.960   6.130   0.781  0.5342  0.4829 -2.0384
  897MOL0     H18380   3.002   5.895   0.695 -0.0406  0.9622  0.5652
  897MOL0     H18381   3.132   5.935   0.611 -0.8507 -0.1946 -1.1484
  897MOL0     H18382   2.842   6.043   0.585  0.1353  0.6242 -0.5661
  897MOL0     H18383   2.983   6.110   0.495 -1.1588 -1.8209 -1.1452
  897MOL0     H18384   2.893   5.811   0.495 -0.4514 -0.4514 -0.6863
  897MOL0     H18385   3.010   5.897   0.381 -1.0387 -0.8722 -0.4776
  897MOL0     H18386   3.373   5.810   1.358 -0.0483 -1.3732  3.5896
  897MOL0     H18387   3.524   5.868   1.556 -0.0299 -2.1679  0.5445
  897MOL0     H18388   3.934   5.780   1.839  1.7393 -0.0908 -2.4897
  897MOL0     H18389   4.082   5.886   1.992 -2.3002 -1.5220 -0.7809
  897MOL0     H18390   3.360   5.467   1.498 -1.4658 -2.2871  0.4144
  897MOL0     H18391   3.299   5.473   1.259 -0.4054  0.2667  0.2788
  897MOL0     H18392   2.701   5.550   1.082  2.6528 -0.3808  0.4288
  897MOL0     H18393   2.613   5.567   0.834 -0.7076  1.0889  0.6438
  897MOL0     H18394   2.652   5.742   0.608  0.2513  1.6338 -1.7215
  897MOL0     H18395   2.570   5.591   0.624  0.5713 -2.5567 -0.9866
  897MOL0     H18396   2.726   5.693   0.370 -1.9814  0.0350 -2.3210
  897MOL0     H18397   2.642   5.532   0.387 -0.7465  0.9008  0.6220
  897MOL0     H18398   2.495   5.777   0.451 -0.9469  0.5127 -1.1337
  897MOL0     H18399   2.439   5.616   0.391 -0.7622 -0.6234  1.4933
  897MOL0     H18400   2.531   5.861   0.253 -1.3861  0.3215  0.8347
  897MOL0     H18401   2.606   5.711   0.182 -1.3961  0.2004 -0.8017
  897MOL0     H18402   2.187   5.696   0.075  0.6360 -4.0641 -0.6983
  897MOL0     H18403   3.017   5.608   0.706 -0.6594 -0.2923 -1.9179
  897MOL0     H18404   3.086   5.601   0.926 -0.7511  2.3059 -0.1216
  898MOL0     O18405   6.976   6.769   8.263  0.1734  0.6504 -0.6016
  898MOL0     C18406   6.895   6.793   8.356 -0.1225  0.1261 -0.1687
  898MOL0     O18407   6.923   6.807   8.484  0.4214  0.0241 -0.6068
  898MOL0     C18408   7.040   6.775   8.542 -0.1621  0.3275 -0.0900
  898MOL0     C18409   7.028   6.704   8.655 -0.1744 -0.1995  0.0410
  898MOL0     C18410   7.136   6.654   8.729 -0.1800 -0.9423  0.1142
  898MOL0     C18411   7.264   6.673   8.672  0.6965 -0.4374 -0.2165
  898MOL0     O18412   7.379   6.616   8.730 -0.3859  0.6348 -0.5867
  898MOL0     C18413   7.388   6.615   8.875  0.6237 -0.6775 -0.5013
  898MOL0     C18414   7.537   6.633   8.917  0.5422 -0.0051 -0.1750
  898MOL0     C18415   7.620   6.508   8.890 -0.4921  0.3254 -0.3604
  898MOL0     C18416   7.765   6.532   8.942 -0.1654  1.2755 -0.1702
  898MOL0     C18417   7.871   6.443   8.875  0.0236  0.1673  0.2003
  898MOL0     C18418   8.011   6.443   8.937 -0.8250  0.3370 -0.9055
  898MOL0     C18419   8.050   6.570   9.004 -0.0139 -0.0958 -0.4785
  898MOL0     C18420   8.190   6.545   9.068  0.3953  0.4201 -0.0626
  898MOL0     N18421   8.242   6.658   9.145 -0.1247 -0.5236 -0.5936
  898MOL0     C18422   8.286   6.653   9.269  0.7209  0.2606 -1.0184
  898MOL0     C18423   8.305   6.782   9.312  1.0742  0.1217 -0.1937
  898MOL0     C18424   8.373   6.836   9.435  0.5370 -1.2966 -0.5717
  898MOL0     C18425   8.507   6.914   9.428  0.2419 -0.9083 -0.5886
  898MOL0     C18426   8.621   6.823   9.394 -0.0657  1.0384 -0.3010
  898MOL0     C18427   8.751   6.864   9.461  0.0931  0.2614 -0.5445
  898MOL0     O18428   8.810   6.981   9.399 -0.4272  0.4348  0.0746
  898MOL0     C18429   8.930   7.030   9.454  0.1332 -0.0443 -0.0326
  898MOL0     C18430   8.996   6.977   9.573 -0.4909 -0.2018 -0.3122
  898MOL0     C18431   9.125   7.029   9.612 -1.0277  0.0514  0.2772
  898MOL0     C18432   9.187   7.123   9.533 -0.2845  0.2631 -0.3555
  898MOL0     C18433   9.319   7.169   9.572  0.2538  0.4667  0.0715
  898MOL0     O18434   9.361   7.126   9.697 -0.0910 -0.1617 -0.1996
  898MOL0     C18435   9.481   7.146   9.741 -0.4945 -0.2520 -0.8693
  898MOL0     C18436   9.488   7.144   9.880 -0.1908  0.2149 -0.1945
  898MOL0     C18437   9.609   7.168   9.945 -0.2480 -0.1663 -0.7535
  898MOL0     C18438   9.728   7.192   9.863  0.6729  0.8400 -0.9063
  898MOL0     O18439   9.844   7.203   9.926 -0.3260 -0.0055  0.3108
  898MOL0     C18440   9.872   7.149  10.055 -0.3140 -0.1982 -0.7484
  898MOL0     C18441  10.020   7.167  10.105  0.8240  0.0480  0.3740
  898MOL0     C18442  10.034   7.082  10.232 -0.3395 -0.2843 -0.1452
  898MOL0     C18443  10.186   7.093  10.268  1.5495  0.0659  0.7009
  898MOL0     C18444  10.223   7.017  10.394 -0.9028 -0.2875  0.3536
  898MOL0     C18445  10.117   7.049  10.500 -0.9203  0.6602  0.6555
  898MOL0     C18446  10.165   6.984  10.629 -0.9170  0.7864 -0.8180
  898MOL0     C18447  10.069   6.997  10.742  0.0679  0.4474 -0.5587
  898MOL0    Cl18448  10.044   7.169  10.770 -0.0180  0.0395  0.4464
  898MOL0     C18449   9.720   7.190   9.720  0.2446 -0.2066 -0.0640
  898MOL0     C18450   9.592   7.166   9.663  0.4536 -0.2466  0.2556
  898MOL0     O18451   9.371   7.251   9.496  0.1597 -0.6018 -0.3479
  898MOL0     C18452   9.123   7.167   9.411  0.9439 -0.1335 -0.3073
  898MOL0     C18453   8.995   7.130   9.380 -0.4959  0.2181 -0.6723
  898MOL0     N18454   8.271   6.865   9.202 -0.0520  0.9173 -0.0541
  898MOL0     N18455   8.236   6.789   9.102  0.1385 -0.0695 -0.2520
  898MOL0     C18456   7.277   6.737   8.547 -0.1250 -0.1888 -1.5203
  898MOL0     C18457   7.163   6.783   8.479 -0.1176 -0.2546  0.4591
  898MOL0     C18458   6.756   6.815   8.305 -0.5920 -0.2521 -0.5673
  898MOL0     C18459   6.705   6.744   8.194  0.8953  1.1555  0.5174
  898MOL0     C18460   6.573   6.752   8.156  0.0402 -0.4115  0.3559
  898MOL0     C18461   6.482   6.829   8.227  0.6387 -0.0832  0.5329
  898MOL0     O18462   6.345   6.817   8.187 -0.0386 -0.1052  0.4270
  898MOL0     C18463   6.239   6.842   8.283 -0.5312 -0.0533  0.6375
  898MOL0     C18464   6.196   6.980   8.258 -0.6949 -1.1320 -0.2580
  898MOL0     C18465   6.171   7.017   8.108 -0.6306  0.0846 -0.8812
  898MOL0     C18466   6.260   7.133   8.061  0.0512 -0.2116  0.7902
  898MOL0     C18467   6.216   7.255   8.126  0.3534 -0.5525  0.3177
  898MOL0     C18468   6.180   7.359   8.177 -0.2374 -0.4370  0.7625
  898MOL0     C18469   6.524   6.898   8.346 -0.6266  0.0103 -1.1804
  898MOL0     C18470   6.662   6.890   8.380 -0.8070 -0.7950 -0.7879
  898MOL0     H18471   6.934   6.708   8.709  0.8525 -1.9547  2.1486
  898MOL0     H18472   7.120   6.602   8.823 -1.8087  1.6470  1.4029
  898MOL0     H18473   7.364   6.520   8.925  1.9916 -1.5403 -1.4345
  898MOL0     H18474   7.325   6.693   8.920 -1.1101 -1.4090 -1.5464
  898MOL0     H18475   7.548   6.658   9.023  2.2435 -1.8457  0.1281
  898MOL0     H18476   7.568   6.727   8.870 -0.7169  0.0441 -0.9739
  898MOL0     H18477   7.625   6.490   8.783  0.5826 -2.2159  0.0138
  898MOL0     H18478   7.591   6.415   8.941  2.4452 -0.9113 -0.7149
  898MOL0     H18479   7.805   6.633   8.930  0.8996  0.8230 -0.5539
  898MOL0     H18480   7.772   6.519   9.051 -1.1905  1.0126 -0.1305
  898MOL0     H18481   7.877   6.488   8.775 -0.8420  1.1500  0.5719
  898MOL0     H18482   7.839   6.338   8.868  1.7764 -0.2692 -2.5867
  898MOL0     H18483   8.080   6.404   8.861  2.2918 -3.6089  3.3719
  898MOL0     H18484   8.011   6.362   9.011  1.4290 -0.1021 -1.3000
  898MOL0     H18485   8.048   6.651   8.931 -0.7984 -2.5555 -3.3586
  898MOL0     H18486   7.976   6.590   9.083  1.4635  1.1206  0.6557
  898MOL0     H18487   8.261   6.515   8.991  0.0900  2.8227 -1.3986
  898MOL0     H18488   8.190   6.452   9.125 -3.1928 -1.5441 -2.8278
  898MOL0     H18489   8.297   6.566   9.333  0.1971  0.0783 -1.1707
  898MOL0     H18490   8.376   6.751   9.504  0.3083 -0.7640  0.1119
  898MOL0     H18491   8.311   6.913   9.482  1.7605 -0.4434 -0.3129
  898MOL0     H18492   8.522   6.956   9.528  1.9448 -0.3237 -1.0524
  898MOL0     H18493   8.508   7.007   9.371 -1.7877  0.5285  1.5311
  898MOL0     H18494   8.591   6.726   9.435 -0.0698  1.4843  0.7992
  898MOL0     H18495   8.627   6.798   9.288 -2.0843 -2.1226  0.1777
  898MOL0     H18496   8.822   6.783   9.442 -0.3307  0.2091 -2.0085
  898MOL0     H18497   8.734   6.870   9.569  2.4301  0.0747 -0.1134
  898MOL0     H18498   8.959   6.898   9.638 -0.5686 -0.2523 -0.4176
  898MOL0     H18499   9.164   6.994   9.707 -1.1366 -1.2253 -0.1335
  898MOL0     H18500   9.404   7.114   9.943  2.2948 -0.7623  2.9774
  898MOL0     H18501   9.595   7.177  10.052 -3.1771 -0.5816 -1.0354
  898MOL0     H18502   9.846   7.044  10.074  2.0359 -0.3912  2.0607
  898MOL0     H18503   9.808   7.214  10.115  1.6891  3.4852 -2.2729
  898MOL0     H18504  10.039   7.273  10.126 -0.5265  0.5734 -0.9639
  898MOL0     H18505  10.097   7.140  10.032  0.1130  0.6786 -0.6311
  898MOL0     H18506  10.003   6.978  10.214  0.0356 -0.8999  2.3674
  898MOL0     H18507   9.977   7.124  10.315  2.0157  0.8107  1.0146
  898MOL0     H18508  10.235   7.046  10.182  0.4282 -0.7176  0.4608
  898MOL0     H18509  10.216   7.197  10.285 -0.5895  0.7702  0.5707
  898MOL0     H18510  10.320   7.058  10.427  0.4719 -1.1687 -2.3415
  898MOL0     H18511  10.224   6.908  10.387  0.2565 -0.5354  2.9533
  898MOL0     H18512  10.024   7.002  10.465  0.3554 -0.3709 -1.5559
  898MOL0     H18513  10.103   7.156  10.518 -2.7324  0.8472 -1.3440
  898MOL0     H18514  10.157   6.876  10.615 -2.1934  0.3922  2.1530
  898MOL0     H18515  10.266   7.017  10.657 -1.6239  0.1944  2.8875
  898MOL0     H18516  10.099   6.948  10.836  0.2557 -0.3083 -1.0059
  898MOL0     H18517   9.976   6.944  10.722 -0.1046  0.8488 -0.8468
  898MOL0     H18518   9.810   7.194   9.660  0.2812  0.7274  0.0312
  898MOL0     H18519   9.586   7.160   9.555  2.8998 -0.3269  0.0562
  898MOL0     H18520   9.178   7.227   9.340 -0.2202 -1.0746 -2.0726
  898MOL0     H18521   8.948   7.154   9.286 -1.7746  0.6272  0.0425
  898MOL0     H18522   7.375   6.755   8.504  0.3568  0.0285 -0.3717
  898MOL0     H18523   7.160   6.828   8.380 -2.3810 -0.3870  0.4017
  898MOL0     H18524   6.763   6.676   8.133 -2.1947 -2.5936  1.4331
  898MOL0     H18525   6.527   6.711   8.066  2.0989  1.7842 -1.8411
  898MOL0     H18526   6.269   6.813   8.384  3.1122 -1.7518 -0.7597
  898MOL0     H18527   6.150   6.785   8.255  0.0054 -0.7061  0.2596
  898MOL0     H18528   6.096   6.987   8.301 -0.9074 -2.4548 -0.5040
  898MOL0     H18529   6.262   7.055   8.303 -0.3554 -1.0730 -0.8440
  898MOL0     H18530   6.070   7.059   8.103  0.2932  2.6379  0.1075
  898MOL0     H18531   6.180   6.927   8.046 -0.3936  1.2727 -2.6420
  898MOL0     H18532   6.368   7.121   8.068  0.2656  1.5819  0.9604
  898MOL0     H18533   6.235   7.146   7.955  2.6289 -3.0306 -0.3219
  898MOL0     H18534   6.136   7.446   8.221  0.2213 -0.7356  1.8677
  898MOL0     H18535   6.456   6.948   8.414  0.5698  0.4646 -0.2868
  898MOL0     H18536   6.700   6.940   8.469 -1.3863 -1.9906  0.1514
  899MOL0     O18537  10.549   6.546   0.945  0.5263  0.8030  0.1629
  899MOL0     C18538  10.499   6.527   1.058 -0.1645 -1.0790 -1.0435
  899MOL0     O18539  10.493   6.615   1.163  0.7572 -0.0436 -0.3547
  899MOL0     C18540  10.560   6.731   1.172 -0.4605  0.1007  0.9148
  899MOL0     C18541  10.701   6.740   1.167  0.8205  0.3236  0.0525
  899MOL0     C18542  10.767   6.854   1.189 -0.1240  0.4606 -0.7972
  899MOL0     C18543  10.701   6.975   1.202  0.0885 -0.0486 -0.1007
  899MOL0     O18544  10.773   7.086   1.237  0.3853  0.0400  0.8382
  899MOL0     C18545  10.776   7.201   1.140 -0.2729  0.6193  0.7415
  899MOL0     C18546  10.792   7.343   1.202  0.0964 -0.3374 -0.2343
  899MOL0     C18547  10.660   7.392   1.271 -0.0499 -0.4124  0.8595
  899MOL0     C18548  10.544   7.413   1.174  0.0866 -0.0707 -0.9714
  899MOL0     C18549  10.437   7.513   1.231 -0.2068  0.2359 -0.0072
  899MOL0     C18550  10.306   7.492   1.143 -0.4368  0.4243  0.5673
  899MOL0     C18551  10.191   7.582   1.177  0.2912 -0.8023 -0.6583
  899MOL0     C18552  10.216   7.737   1.163  0.3658  0.6244 -0.0361
  899MOL0     N18553  10.228   7.764   1.021  0.2414 -0.0927 -0.1068
  899MOL0     C18554  10.269   7.888   0.969 -0.4756  0.3089 -0.5322
  899MOL0     C18555  10.296   7.870   0.838 -0.3295 -0.2995  0.3801
  899MOL0     C18556  10.330   7.975   0.736 -0.6700  0.2464 -1.0218
  899MOL0     C18557  10.225   8.089   0.737 -1.5556 -0.2033 -0.7769
  899MOL0     C18558  10.289   8.216   0.698  0.1448 -0.6458 -0.5073
  899MOL0     C18559  10.185   8.321   0.639 -0.5646 -0.8769  0.1455
  899MOL0     O18560  10.045   8.307   0.681 -0.3212 -0.7669  0.0442
  899MOL0     C18561   9.968   8.415   0.656 -0.2482 -0.6739  0.0299
  899MOL0     C18562  10.002   8.528   0.566  0.8581 -0.2140  0.5271
  899MOL0     C18563   9.905   8.620   0.548  0.8446 -0.0780 -0.6411
  899MOL0     C18564   9.783   8.612   0.609  0.5211 -0.9080  0.6539
  899MOL0     C18565   9.674   8.715   0.580 -1.1828  0.9224  0.2237
  899MOL0     O18566   9.552   8.672   0.597  0.0583  0.0767 -0.6666
  899MOL0     C18567   9.445   8.747   0.563  0.0854  0.6480 -0.3925
  899MOL0     C18568   9.400   8.857   0.636  0.4214 -0.2503  0.3120
  899MOL0     C18569   9.286   8.932   0.601 -1.3047 -0.1681  0.1030
  899MOL0     C18570   9.214   8.902   0.480 -1.0586  0.3473 -0.8254
  899MOL0     O18571   9.118   8.989   0.443  0.5629  0.0190  0.2947
  899MOL0     C18572   9.022   8.954   0.341  0.0819  1.1815 -0.4703
  899MOL0     C18573   8.922   9.072   0.330  0.4382 -0.8775  0.6935
  899MOL0     C18574   8.850   9.068   0.198  0.1754 -0.5571 -0.0848
  899MOL0     C18575   8.753   8.942   0.195 -0.3182  0.1890  0.3637
  899MOL0     C18576   8.721   8.886   0.053  0.6190 -0.2458  1.1744
  899MOL0     C18577   8.660   8.982  -0.053  0.7275 -0.4437  1.1137
  899MOL0     C18578   8.503   9.008  -0.058 -0.3682  0.7247 -0.6421
  899MOL0     C18579   8.429   8.904   0.021 -0.2100 -0.1798 -0.8871
  899MOL0    Cl18580   8.261   8.951   0.015 -0.0173 -0.0404  0.0367
  899MOL0     C18581   9.258   8.785   0.417  0.6271 -0.3913  0.4237
  899MOL0     C18582   9.370   8.700   0.457 -0.4598  0.1358 -0.8747
  899MOL0     O18583   9.707   8.827   0.540  1.0471  0.8941 -0.2132
  899MOL0     C18584   9.753   8.512   0.703  1.2326  0.4663  1.0421
  899MOL0     C18585   9.846   8.409   0.716 -0.8531  0.3579  0.0176
  899MOL0     N18586  10.261   7.739   0.807  0.1808 -0.5375  0.2442
  899MOL0     N18587  10.226   7.680   0.911 -0.2760  0.1137 -0.7284
  899MOL0     C18588  10.557   6.970   1.215  0.5877  0.4658  0.0801
  899MOL0     C18589  10.490   6.848   1.185 -0.6522 -0.7962  0.0990
  899MOL0     C18590  10.435   6.394   1.081 -0.1126 -0.1552 -0.2657
  899MOL0     C18591  10.393   6.360   1.211 -0.1101  0.6288  0.4105
  899MOL0     C18592  10.303   6.263   1.227  0.6630  0.1388  0.2171
  899MOL0     C18593  10.249   6.184   1.118  0.6189 -0.5433  0.2288
  899MOL0     O18594  10.149   6.094   1.140 -0.0163  0.6361  0.1900
  899MOL0     C18595  10.023   6.151   1.187  0.0771 -0.4077  0.3727
  899MOL0     C18596   9.922   6.046   1.150  0.4301  0.5498 -0.7618
  899MOL0     C18597   9.779   6.069   1.207  0.2533 -0.0253  0.2101
  899MOL0     C18598   9.685   5.981   1.127  0.4206 -0.7836 -1.5211
  899MOL0     C18599   9.556   5.971   1.194 -0.0960 -0.2325  0.8625
  899MOL0     C18600   9.438   5.956   1.221 -0.1129 -0.8222 -0.5181
  899MOL0     C18601  10.298   6.207   0.995  0.0549  0.4431 -0.2259
  899MOL0     C18602  10.395   6.313   0.975  0.3395  0.1991 -0.1493
  899MOL0     H18603  10.752   6.646   1.153 -0.9513 -0.7916  0.7200
  899MOL0     H18604  10.875   6.863   1.183  0.2818 -2.8098 -0.0831
  899MOL0     H18605  10.694   7.195   1.067  0.8103  0.9650 -0.5366
  899MOL0     H18606  10.867   7.192   1.081  0.4200  0.1456  1.8439
  899MOL0     H18607  10.814   7.418   1.125  0.3532 -0.6193 -0.4343
  899MOL0     H18608  10.871   7.345   1.277 -0.7459 -1.2533  0.7041
  899MOL0     H18609  10.668   7.497   1.303 -2.0637 -0.6416  2.2751
  899MOL0     H18610  10.630   7.328   1.354 -2.0655 -1.0486 -0.2908
  899MOL0     H18611  10.571   7.461   1.079  1.2713 -0.4763 -0.8668
  899MOL0     H18612  10.504   7.314   1.152  1.7588 -1.1218  0.4254
  899MOL0     H18613  10.478   7.614   1.221 -0.2697  0.3747  1.0741
  899MOL0     H18614  10.412   7.506   1.337 -0.4751 -2.4964 -0.1842
  899MOL0     H18615  10.255   7.400   1.172  0.1439  0.8214  3.1367
  899MOL0     H18616  10.338   7.508   1.040 -0.1411  0.4300  0.6578
  899MOL0     H18617  10.096   7.575   1.122  0.8417  3.5779 -2.6544
  899MOL0     H18618  10.166   7.573   1.283 -0.4699  1.5668 -0.5774
  899MOL0     H18619  10.306   7.772   1.215  1.2258  0.0047 -1.0628
  899MOL0     H18620  10.138   7.799   1.207  1.1346  1.0275  0.7928
  899MOL0     H18621  10.294   7.982   1.015  0.7527  2.1471 -4.4919
  899MOL0     H18622  10.341   7.940   0.633  1.1812 -0.9336 -0.4572
  899MOL0     H18623  10.423   8.010   0.783  0.0356  0.2976 -2.3984
  899MOL0     H18624  10.178   8.107   0.834 -6.2158  0.5511 -2.9149
  899MOL0     H18625  10.143   8.068   0.668  0.3707 -1.4714 -2.8620
  899MOL0     H18626  10.326   8.271   0.785 -0.0756  0.7833 -1.2941
  899MOL0     H18627  10.368   8.197   0.626  0.8204 -1.5243  0.4350
  899MOL0     H18628  10.189   8.306   0.531 -0.6960 -1.2032  0.1830
  899MOL0     H18629  10.221   8.418   0.674 -0.7727 -1.8872  3.5922
  899MOL0     H18630  10.099   8.524   0.518 -0.6562 -1.3293 -2.7329
  899MOL0     H18631   9.911   8.693   0.469  0.0615 -0.7865 -1.3837
  899MOL0     H18632   9.464   8.893   0.716  2.1533 -1.9808 -0.2068
  899MOL0     H18633   9.254   9.018   0.658 -2.0563  1.3134 -2.3758
  899MOL0     H18634   8.982   8.866   0.391  2.7628 -0.2425 -0.6604
  899MOL0     H18635   9.075   8.929   0.249  0.8882 -0.8181  0.4745
  899MOL0     H18636   8.980   9.165   0.332  0.9693 -1.2077  1.5167
  899MOL0     H18637   8.866   9.064   0.424 -1.1751 -3.9213 -0.3769
  899MOL0     H18638   8.916   9.066   0.111  1.2235  4.8498  0.2774
  899MOL0     H18639   8.786   9.156   0.188  3.0217  1.7513  0.8649
  899MOL0     H18640   8.807   8.862   0.247 -3.2142 -2.6760 -0.6454
  899MOL0     H18641   8.661   8.962   0.250  0.1478 -2.4397  2.2635
  899MOL0     H18642   8.665   8.792   0.065 -0.2305  0.3247  1.8530
  899MOL0     H18643   8.815   8.857   0.006 -0.9537 -1.7377 -1.2831
  899MOL0     H18644   8.670   8.926  -0.146 -2.1010  0.3941  0.1846
  899MOL0     H18645   8.713   9.078  -0.059  1.6700 -0.9933  0.4158
  899MOL0     H18646   8.477   9.103  -0.012 -2.8900 -0.5212  0.7519
  899MOL0     H18647   8.471   9.005  -0.163 -2.2317 -0.2650 -0.0912
  899MOL0     H18648   8.469   8.902   0.123 -2.7119  2.0126  0.2751
  899MOL0     H18649   8.440   8.802  -0.015 -1.9778 -1.3221  1.4892
  899MOL0     H18650   9.204   8.768   0.325  0.6179  1.1284  0.1186
  899MOL0     H18651   9.398   8.611   0.402 -1.7640  0.5233 -2.2558
  899MOL0     H18652   9.653   8.505   0.746  1.2784  0.1494  1.1007
  899MOL0     H18653   9.811   8.329   0.780  1.9439 -2.2706 -1.4792
  899MOL0     H18654  10.496   7.059   1.229  0.7781  0.5943  0.0972
  899MOL0     H18655  10.383   6.856   1.167 -0.5081 -1.0927 -0.9941
  899MOL0     H18656  10.426   6.413   1.299  0.3662 -0.5007  0.9360
  899MOL0     H18657  10.261   6.244   1.325  0.9084  0.3888  0.3748
  899MOL0     H18658  10.000   6.255   1.161 -0.9542 -0.5819  0.5573
  899MOL0     H18659  10.018   6.163   1.295 -2.5508  0.0444  0.2513
  899MOL0     H18660   9.920   6.027   1.042  0.8268 -1.2058 -0.4908
  899MOL0     H18661   9.953   5.954   1.201 -0.4946  2.2133  3.1314
  899MOL0     H18662   9.747   6.174   1.197 -2.1756 -0.8845 -2.3775
  899MOL0     H18663   9.781   6.030   1.309  3.3744  1.1611  0.7106
  899MOL0     H18664   9.658   6.030   1.033  1.4583  1.4236 -0.7351
  899MOL0     H18665   9.728   5.882   1.106  0.4356 -0.8808 -1.0380
  899MOL0     H18666   9.339   5.932   1.255 -1.0202  3.1469  0.0606
  899MOL0     H18667  10.260   6.148   0.913 -0.4705 -0.4638  0.6589
  899MOL0     H18668  10.427   6.334   0.873  2.0237  2.8203  0.8290
  900MOL0     O18669   9.896   1.229   8.187  0.2141  0.6587  0.6697
  900MOL0     C18670   9.936   1.176   8.287 -0.7120  0.5252 -0.4437
  900MOL0     O18671   9.981   1.249   8.395 -0.5361 -0.0443  0.1367
  900MOL0     C18672   9.998   1.382   8.389  0.1866  0.2808 -0.2042
  900MOL0     C18673   9.967   1.454   8.510  0.2749 -0.0331  0.6582
  900MOL0     C18674  10.000   1.592   8.517  0.1733 -1.4075  0.2927
  900MOL0     C18675  10.053   1.653   8.403 -0.1379  0.0273  0.4911
  900MOL0     O18676  10.082   1.782   8.415  0.0989 -0.9979 -0.1407
  900MOL0     C18677  10.218   1.803   8.457  0.4913 -0.7720  0.6478
  900MOL0     C18678  10.232   1.956   8.449  0.3416  1.4427  0.3297
  900MOL0     C18679  10.291   2.012   8.316  0.2423  0.2806 -0.4022
  900MOL0     C18680  10.296   2.157   8.335  1.1001 -0.3976  0.4064
  900MOL0     C18681  10.365   2.226   8.211  0.5051  0.1973  0.0391
  900MOL0     C18682  10.345   2.384   8.217 -0.4798  0.5752  0.4963
  900MOL0     C18683  10.462   2.446   8.150  0.2688 -0.4166 -0.2197
  900MOL0     C18684  10.420   2.595   8.155  0.3780 -0.3425 -0.0481
  900MOL0     N18685  10.524   2.688   8.116 -0.2189 -0.2565  0.1282
  900MOL0     C18686  10.611   2.746   8.203 -0.7138  0.0388 -0.5042
  900MOL0     C18687  10.692   2.813   8.117 -0.0730  0.4290  1.0684
  900MOL0     C18688  10.809   2.894   8.153  0.4242 -0.4027  0.6650
  900MOL0     C18689  10.790   3.025   8.233 -0.1511 -0.5471 -0.0850
  900MOL0     C18690  10.918   3.084   8.294  0.4642  0.6946  0.9723
  900MOL0     C18691  10.985   2.995   8.389  0.0507 -0.0405 -0.6119
  900MOL0     O18692  11.102   2.931   8.331 -0.2928 -0.7057 -0.1749
  900MOL0     C18693  11.182   2.869   8.423 -0.4870  0.3194  0.4711
  900MOL0     C18694  11.189   2.885   8.564  0.0912 -0.5529 -0.4424
  900MOL0     C18695  11.286   2.805   8.631  0.5725 -0.4787  0.8476
  900MOL0     C18696  11.372   2.716   8.564  0.2055 -0.7235  0.1292
  900MOL0     C18697  11.469   2.637   8.638 -1.0631  0.6831 -0.0787
  900MOL0     O18698  11.570   2.572   8.572  0.1408 -0.2647 -0.6391
  900MOL0     C18699  11.684   2.504   8.622  0.2138  1.0448  0.1235
  900MOL0     C18700  11.764   2.425   8.530 -0.5944  1.4216 -0.2153
  900MOL0     C18701  11.871   2.342   8.581 -0.7362 -0.4440 -0.3246
  900MOL0     C18702  11.918   2.367   8.712 -0.0261  0.8797 -0.6056
  900MOL0     O18703  12.023   2.291   8.777  0.6553 -1.1068  0.2811
  900MOL0     C18704  12.090   2.214   8.683  0.1894 -0.4863  0.0787
  900MOL0     C18705  12.213   2.153   8.752 -0.2437 -0.3389 -1.1875
  900MOL0     C18706  12.349   2.231   8.721  0.7790 -0.3442 -0.5396
  900MOL0     C18707  12.458   2.135   8.761  0.6538  0.0558  0.5426
  900MOL0     C18708  12.474   2.022   8.660  0.1465  0.1606  0.0451
  900MOL0     C18709  12.593   1.929   8.697 -0.4225 -0.0011 -0.8433
  900MOL0     C18710  12.684   1.874   8.582  0.8180 -0.1923  0.3118
  900MOL0     C18711  12.763   1.961   8.491  0.0894 -0.0896 -0.9918
  900MOL0    Cl18712  12.866   2.071   8.586  0.0075  0.6799 -0.0342
  900MOL0     C18713  11.852   2.453   8.796 -0.5614 -0.5695  0.0180
  900MOL0     C18714  11.729   2.513   8.755  0.6774 -1.1434  0.3190
  900MOL0     O18715  11.460   2.642   8.757  0.4065  0.3082 -0.0882
  900MOL0     C18716  11.367   2.709   8.426  1.1212 -0.9278  0.2743
  900MOL0     C18717  11.267   2.775   8.358  1.4989  1.2173 -0.2431
  900MOL0     N18718  10.655   2.776   7.984  0.2605 -0.4168  0.7525
  900MOL0     N18719  10.552   2.703   7.987  0.6396 -0.5325  0.3989
  900MOL0     C18720  10.082   1.585   8.280  1.1551 -0.4325 -0.5998
  900MOL0     C18721  10.049   1.451   8.276  0.4755  0.0701  0.3732
  900MOL0     C18722   9.950   1.031   8.279 -0.2652  0.5637  0.7219
  900MOL0     C18723  10.054   0.963   8.340  0.3077 -0.2534 -0.1932
  900MOL0     C18724  10.066   0.822   8.324 -0.2058  0.4317 -0.8636
  900MOL0     C18725   9.965   0.744   8.269  0.0848 -1.1372  0.5586
  900MOL0     O18726   9.971   0.608   8.264 -0.0862 -0.1138  0.6616
  900MOL0     C18727   9.931   0.539   8.387  0.1050 -0.3238 -0.7033
  900MOL0     C18728   9.861   0.407   8.357 -0.0800 -0.8824 -0.0455
  900MOL0     C18729   9.724   0.428   8.288  0.4970 -0.0432  0.4081
  900MOL0     C18730   9.660   0.302   8.238  0.0704  1.0168  0.1507
  900MOL0     C18731   9.719   0.280   8.102  0.7946  1.4372 -0.2567
  900MOL0     C18732   9.768   0.260   7.999  0.7338 -0.4073 -0.1388
  900MOL0     C18733   9.851   0.816   8.217 -0.6673 -0.9381 -0.0396
  900MOL0     C18734   9.854   0.953   8.213 -0.2697  0.6223 -0.2334
  900MOL0     H18735   9.916   1.405   8.593  0.4026 -2.0107 -0.3817
  900MOL0     H18736   9.986   1.645   8.611 -1.3171 -0.3249 -0.5068
  900MOL0     H18737  10.289   1.750   8.392 -0.3935  0.6904 -1.6203
  900MOL0     H18738  10.231   1.763   8.558 -4.0729  0.6602  2.0129
  900MOL0     H18739  10.302   1.986   8.528  1.8798  2.9320 -1.5051
  900MOL0     H18740  10.133   1.998   8.466 -0.8397 -2.0607  3.6045
  900MOL0     H18741  10.234   1.979   8.228 -0.8547  0.6818  0.1388
  900MOL0     H18742  10.390   1.968   8.302 -0.1207 -1.9779  2.8755
  900MOL0     H18743  10.201   2.206   8.359  0.7388 -1.8359  2.1602
  900MOL0     H18744  10.363   2.183   8.418  1.7765  2.0524 -0.8221
  900MOL0     H18745  10.315   2.191   8.120 -1.4287 -0.1548  1.1916
  900MOL0     H18746  10.473   2.207   8.201  0.7811  2.5155 -2.5150
  900MOL0     H18747  10.333   2.420   8.319 -2.0436  2.4277 -0.2717
  900MOL0     H18748  10.253   2.402   8.161  0.4009  2.1347 -0.5555
  900MOL0     H18749  10.550   2.444   8.216 -0.0503 -1.0271  0.1975
  900MOL0     H18750  10.489   2.417   8.048 -0.9170  0.5874 -0.8415
  900MOL0     H18751  10.400   2.623   8.259  0.3932 -1.3842  0.2448
  900MOL0     H18752  10.333   2.614   8.092  0.0276 -1.7444 -0.0186
  900MOL0     H18753  10.596   2.758   8.310 -1.2270  2.1511 -0.7546
  900MOL0     H18754  10.857   2.924   8.059  0.9128  2.0029  1.6023
  900MOL0     H18755  10.878   2.826   8.204  2.1233  0.1167 -0.8383
  900MOL0     H18756  10.709   3.013   8.306 -0.5122 -0.4955 -0.4710
  900MOL0     H18757  10.763   3.102   8.161 -1.1985 -2.1023 -1.4382
  900MOL0     H18758  10.996   3.108   8.221  0.1357 -0.4878  0.2134
  900MOL0     H18759  10.893   3.177   8.346  0.1392  1.1611  0.0032
  900MOL0     H18760  10.910   2.932   8.438  0.7443 -0.1257  0.3650
  900MOL0     H18761  11.019   3.068   8.464  1.3027  0.4141 -1.5787
  900MOL0     H18762  11.116   2.935   8.627 -0.0126  0.5772 -1.4200
  900MOL0     H18763  11.300   2.821   8.737  4.3422 -0.3282  0.4825
  900MOL0     H18764  11.755   2.422   8.422 -2.1243 -2.0175 -0.1405
  900MOL0     H18765  11.928   2.271   8.522  1.1168  0.3208  0.4662
  900MOL0     H18766  12.132   2.278   8.604  3.1118  0.5635  2.2670
  900MOL0     H18767  12.023   2.135   8.649 -0.4809 -0.1650  0.6320
  900MOL0     H18768  12.223   2.048   8.723  0.1264 -0.4528 -0.6637
  900MOL0     H18769  12.197   2.139   8.860  3.0370 -5.4317 -1.0013
  900MOL0     H18770  12.351   2.327   8.773  0.7245 -0.5124 -0.2218
  900MOL0     H18771  12.357   2.247   8.613  2.2842  3.0001 -0.0754
  900MOL0     H18772  12.545   2.200   8.775  0.5682 -0.0971  1.8921
  900MOL0     H18773  12.438   2.092   8.859  1.7570 -2.5009 -0.2695
  900MOL0     H18774  12.497   2.064   8.562 -0.4794 -1.6853 -0.9387
  900MOL0     H18775  12.386   1.958   8.653 -0.6035  1.2085 -0.3732
  900MOL0     H18776  12.554   1.843   8.753  2.0832 -0.6685  0.0112
  900MOL0     H18777  12.657   1.976   8.772 -1.4012 -1.9965  1.3957
  900MOL0     H18778  12.752   1.805   8.632  0.6407  1.2621  2.7147
  900MOL0     H18779  12.609   1.819   8.524 -0.9091  0.6786  1.6343
  900MOL0     H18780  12.694   2.030   8.442  2.3325  1.8083 -1.6522
  900MOL0     H18781  12.808   1.903   8.410 -1.9116 -2.5338 -0.4811
  900MOL0     H18782  11.890   2.476   8.895 -2.1830  1.8807  0.1634
  900MOL0     H18783  11.672   2.572   8.826  0.7753 -1.8882  1.0303
  900MOL0     H18784  11.442   2.652   8.373  1.8621 -1.6346  2.0146
  900MOL0     H18785  11.234   2.748   8.258 -1.7139  2.1117  0.4758
  900MOL0     H18786  10.102   1.641   8.189 -2.0672 -0.0036 -1.1740
  900MOL0     H18787  10.075   1.407   8.180  3.3351  0.2148  0.9920
  900MOL0     H18788  10.139   1.020   8.376  1.0790 -1.6064  0.2086
  900MOL0     H18789  10.153   0.770   8.363  1.7813  2.3715 -2.4603
  900MOL0     H18790   9.853   0.592   8.443  3.8951  1.3642  3.5895
  900MOL0     H18791  10.021   0.523   8.448 -1.1310  0.1842  1.3575
  900MOL0     H18792   9.918   0.342   8.290 -1.7408 -0.8272 -1.5696
  900MOL0     H18793   9.859   0.366   8.459 -0.3340  2.3538  1.3834
  900MOL0     H18794   9.728   0.506   8.211 -2.1880  1.5557  1.7489
  900MOL0     H18795   9.656   0.470   8.363 -0.7582  2.9852 -2.2085
  900MOL0     H18796   9.683   0.216   8.300  0.5909 -0.4974 -2.0258
  900MOL0     H18797   9.551   0.303   8.228  0.2637  0.5646 -2.9534
  900MOL0     H18798   9.795   0.249   7.896 -1.8828  0.0544 -0.9539
  900MOL0     H18799   9.761   0.770   8.179 -3.9555  2.0803  3.3492
  900MOL0     H18800   9.774   1.000   8.157 -0.5333  1.6153  0.9273
  901MOL0     O18801   4.547   2.549   8.538  0.2527 -0.5311 -0.1739
  901MOL0     C18802   4.520   2.492   8.432 -0.1228  0.5018  1.1539
  901MOL0     O18803   4.400   2.425   8.416  0.4191  0.3064 -0.5197
  901MOL0     C18804   4.296   2.438   8.513 -0.5788  0.4937 -0.6129
  901MOL0     C18805   4.224   2.551   8.511  0.1350 -0.3193 -0.0301
  901MOL0     C18806   4.130   2.583   8.615  0.4169  0.2384 -0.1259
  901MOL0     C18807   4.116   2.484   8.720  0.3839 -0.6864 -0.3328
  901MOL0     O18808   4.019   2.509   8.811  0.3008 -0.1812  0.1812
  901MOL0     C18809   3.982   2.405   8.900  0.6755  0.2851  0.4297
  901MOL0     C18810   3.863   2.441   8.990  0.6653 -0.4392 -0.3773
  901MOL0     C18811   3.727   2.437   8.912 -0.1537 -0.3571  0.1662
  901MOL0     C18812   3.628   2.528   8.982  1.3301 -0.1594 -0.5719
  901MOL0     C18813   3.490   2.482   8.942 -0.0667 -0.9040  0.0497
  901MOL0     C18814   3.382   2.582   8.979  0.2824  0.6927 -0.1612
  901MOL0     C18815   3.381   2.698   8.883 -0.2442 -1.2219 -0.2390
  901MOL0     C18816   3.294   2.805   8.957  0.1492 -0.3350  0.0262
  901MOL0     N18817   3.153   2.754   8.951 -0.4902  0.4135 -0.2481
  901MOL0     C18818   3.078   2.715   8.841 -0.2499 -0.5395 -0.3111
  901MOL0     C18819   2.952   2.679   8.898 -0.9480  0.1777  0.3314
  901MOL0     C18820   2.830   2.631   8.843  0.0672  0.9099  0.1558
  901MOL0     C18821   2.814   2.701   8.700 -0.4941  0.0854 -0.1956
  901MOL0     C18822   2.682   2.659   8.649 -0.1204  0.5016 -0.0921
  901MOL0     C18823   2.681   2.668   8.488  0.4711  0.0421 -0.7136
  901MOL0     O18824   2.552   2.662   8.435 -0.1379 -0.8814 -0.1397
  901MOL0     C18825   2.463   2.766   8.443 -0.0084 -0.0448 -0.0334
  901MOL0     C18826   2.338   2.736   8.395  0.6305 -0.2651 -0.4464
  901MOL0     C18827   2.234   2.825   8.408  0.5037 -0.8707 -0.4861
  901MOL0     C18828   2.255   2.957   8.450 -0.0339 -0.3985 -0.4798
  901MOL0     C18829   2.151   3.055   8.439 -0.5300  0.5870 -0.4360
  901MOL0     O18830   2.191   3.173   8.487 -0.1060 -0.1506  0.0815
  901MOL0     C18831   2.092   3.270   8.476 -0.0140  0.2651  0.2056
  901MOL0     C18832   2.003   3.306   8.370  0.3062  0.1560  0.2545
  901MOL0     C18833   1.914   3.422   8.392 -0.7285  0.5148 -0.9248
  901MOL0     C18834   1.911   3.491   8.509  0.0238 -0.6263  0.5601
  901MOL0     O18835   1.830   3.611   8.529 -0.1967  0.0397 -0.0124
  901MOL0     C18836   1.693   3.614   8.474  0.0369  0.0030 -0.3879
  901MOL0     C18837   1.598   3.531   8.556  0.3438 -0.0258 -0.7789
  901MOL0     C18838   1.460   3.509   8.486 -0.8215  0.4348 -0.7237
  901MOL0     C18839   1.346   3.476   8.584  0.1623  0.0929  0.2502
  901MOL0     C18840   1.204   3.438   8.538  0.5836  0.0951  0.4238
  901MOL0     C18841   1.201   3.298   8.482  1.1972 -0.0881 -0.5772
  901MOL0     C18842   1.061   3.239   8.449 -0.2630 -0.8713  0.5332
  901MOL0     C18843   0.999   3.134   8.531  0.0142  1.1131  0.3968
  901MOL0    Cl18844   1.104   2.992   8.579  0.2153  0.3169  0.1832
  901MOL0     C18845   1.995   3.446   8.610  0.6314  0.1751  0.1126
  901MOL0     C18846   2.085   3.342   8.597 -0.1283 -0.1952 -0.1214
  901MOL0     O18847   2.038   3.031   8.407  0.0099 -0.0115  0.2643
  901MOL0     C18848   2.385   2.986   8.488  0.0544  1.2812 -0.1028
  901MOL0     C18849   2.484   2.890   8.494 -0.6077  0.5607  0.3653
  901MOL0     N18850   2.959   2.697   9.030 -0.2143  0.4673 -0.3013
  901MOL0     N18851   3.072   2.749   9.060  0.5724 -0.4896 -0.6973
  901MOL0     C18852   4.192   2.355   8.706  0.3356 -0.3780 -0.9939
  901MOL0     C18853   4.284   2.338   8.610 -0.8628 -0.0873 -0.5873
  901MOL0     C18854   4.631   2.473   8.338 -0.2012  0.8523 -0.0214
  901MOL0     C18855   4.759   2.533   8.354  0.1917 -0.2312  0.1781
  901MOL0     C18856   4.856   2.522   8.256  0.0599 -0.0038 -0.6247
  901MOL0     C18857   4.838   2.439   8.143 -0.1230 -0.7689 -0.3352
  901MOL0     O18858   4.945   2.425   8.050  0.0034  0.3512 -0.0059
  901MOL0     C18859   4.918   2.353   7.932  0.2060 -0.0135  0.1510
  901MOL0     C18860   5.057   2.337   7.864 -0.3216 -0.3389  0.1977
  901MOL0     C18861   5.118   2.475   7.821  0.3144  0.3246 -0.2927
  901MOL0     C18862   5.239   2.455   7.726  0.0083 -1.2322 -0.2804
  901MOL0     C18863   5.356   2.411   7.801  0.3504 -0.6675 -0.2102
  901MOL0     C18864   5.449   2.376   7.874  0.0421 -0.7195 -0.0088
  901MOL0     C18865   4.712   2.371   8.128 -0.6019 -0.0674 -0.5348
  901MOL0     C18866   4.610   2.389   8.221  0.0024 -0.8210 -0.9436
  901MOL0     H18867   4.247   2.623   8.433  1.9290 -0.3917  0.3954
  901MOL0     H18868   4.060   2.665   8.605 -3.1839 -2.6104 -0.5636
  901MOL0     H18869   4.055   2.404   8.982  0.7366 -1.1088  0.3976
  901MOL0     H18870   3.960   2.304   8.863  0.1462  0.1803  1.0044
  901MOL0     H18871   3.878   2.547   9.011  0.8962 -0.6317  0.4783
  901MOL0     H18872   3.863   2.377   9.080  1.2095 -2.5402 -1.7904
  901MOL0     H18873   3.698   2.332   8.912  0.4742 -0.5363 -0.6088
  901MOL0     H18874   3.755   2.464   8.810  2.3564 -0.3134  0.8141
  901MOL0     H18875   3.642   2.521   9.090 -0.6158 -0.7150 -0.3097
  901MOL0     H18876   3.637   2.630   8.945 -2.7132  0.7017  0.2928
  901MOL0     H18877   3.470   2.397   9.007  2.5134 -0.6457  1.2846
  901MOL0     H18878   3.483   2.448   8.838  0.8301  0.9728 -0.6791
  901MOL0     H18879   3.418   2.631   9.070  4.4706  0.9203 -1.7139
  901MOL0     H18880   3.286   2.531   8.988  1.2347 -0.7562  3.2485
  901MOL0     H18881   3.478   2.745   8.866  0.4289 -2.2039  0.7496
  901MOL0     H18882   3.340   2.682   8.782  2.3424 -1.1935 -1.3672
  901MOL0     H18883   3.292   2.902   8.907  2.2708  0.6941  1.8150
  901MOL0     H18884   3.324   2.825   9.060  4.1536 -1.5263 -0.7384
  901MOL0     H18885   3.095   2.701   8.735  1.4975  2.1907 -0.5032
  901MOL0     H18886   2.740   2.640   8.905 -0.3159 -1.3841  0.0412
  901MOL0     H18887   2.836   2.524   8.819 -0.6479  1.2788 -1.7662
  901MOL0     H18888   2.894   2.667   8.634  0.1649  1.3152 -0.0684
  901MOL0     H18889   2.810   2.810   8.708  0.1037  0.0151  1.4387
  901MOL0     H18890   2.663   2.552   8.662 -1.2992  0.2317 -3.0768
  901MOL0     H18891   2.606   2.720   8.699 -0.3573 -2.7920  4.0492
  901MOL0     H18892   2.725   2.575   8.453 -1.7517 -1.4688  0.2506
  901MOL0     H18893   2.744   2.748   8.449 -1.2555  0.9169 -1.8572
  901MOL0     H18894   2.330   2.635   8.356  2.0753 -2.0153  3.2945
  901MOL0     H18895   2.134   2.792   8.383  0.0496  0.1330 -0.0303
  901MOL0     H18896   2.012   3.262   8.271 -1.5764  0.8569 -0.2708
  901MOL0     H18897   1.862   3.457   8.303  1.1024  3.1646 -1.0392
  901MOL0     H18898   1.698   3.594   8.366 -2.0017  2.9968 -1.1899
  901MOL0     H18899   1.644   3.712   8.480  1.6572  0.8156  0.0932
  901MOL0     H18900   1.590   3.571   8.657  0.7290  2.6746 -1.7334
  901MOL0     H18901   1.639   3.430   8.573 -1.8925 -0.5330  2.5796
  901MOL0     H18902   1.471   3.433   8.408  2.8252 -1.0564  0.9565
  901MOL0     H18903   1.425   3.598   8.434  0.4437  0.4906 -1.5101
  901MOL0     H18904   1.367   3.392   8.651 -2.7921  0.1386  1.3852
  901MOL0     H18905   1.319   3.566   8.641  1.0853  0.6132 -0.1135
  901MOL0     H18906   1.179   3.505   8.455  0.6703 -1.2935 -0.7701
  901MOL0     H18907   1.127   3.443   8.616  0.0637  1.2220 -0.1315
  901MOL0     H18908   1.245   3.231   8.558  0.7107  0.0724 -0.1494
  901MOL0     H18909   1.271   3.296   8.398 -0.3784  2.6950 -2.1014
  901MOL0     H18910   0.988   3.318   8.431 -0.2931 -0.7281  1.2716
  901MOL0     H18911   1.066   3.194   8.349  0.3502  1.8755 -0.7888
  901MOL0     H18912   0.905   3.104   8.484 -0.9947  3.0848  1.0324
  901MOL0     H18913   0.986   3.177   8.631  3.2997  0.9996  0.9722
  901MOL0     H18914   1.981   3.503   8.701  0.1582  0.4777 -0.1490
  901MOL0     H18915   2.151   3.324   8.682 -1.8122  2.8366  2.0712
  901MOL0     H18916   2.410   3.088   8.516 -1.0739  2.3011 -2.5683
  901MOL0     H18917   2.574   2.925   8.543 -0.3991  3.5191 -1.8823
  901MOL0     H18918   4.170   2.273   8.772 -1.6261  0.5229 -0.4367
  901MOL0     H18919   4.340   2.246   8.597 -1.4070 -0.3622 -1.0555
  901MOL0     H18920   4.790   2.596   8.437  0.1543 -0.5593  0.4484
  901MOL0     H18921   4.949   2.578   8.258  1.3511 -2.0449 -0.1703
  901MOL0     H18922   4.855   2.408   7.862  1.4067  0.9654 -0.1958
  901MOL0     H18923   4.881   2.251   7.947  0.3987  0.0643  1.1847
  901MOL0     H18924   5.125   2.277   7.926  1.8560  0.5497 -1.1856
  901MOL0     H18925   5.050   2.277   7.773 -0.3005  2.6681 -1.8899
  901MOL0     H18926   5.122   2.546   7.904  1.9229  0.0824 -0.1300
  901MOL0     H18927   5.040   2.524   7.762 -0.0261 -0.9244 -0.9027
  901MOL0     H18928   5.207   2.379   7.655  1.1336 -1.8769 -0.1134
  901MOL0     H18929   5.267   2.550   7.680 -2.0106 -0.5338 -0.1721
  901MOL0     H18930   5.521   2.334   7.942  0.8460 -0.9347 -0.9665
  901MOL0     H18931   4.697   2.302   8.045 -0.8341 -0.4207 -0.2029
  901MOL0     H18932   4.514   2.340   8.212  0.0515 -1.8565  2.6837
  902MOL0     O18933   9.409   9.968  11.296  0.2857 -0.8530 -0.0340
  902MOL0     C18934   9.301   9.910  11.285 -0.1060  0.4466 -0.3871
  902MOL0     O18935   9.299   9.775  11.262  0.5161  0.0449 -0.4551
  902MOL0     C18936   9.421   9.718  11.239 -0.7196  0.1447 -0.3755
  902MOL0     C18937   9.444   9.613  11.325 -0.1999 -1.2663  0.8852
  902MOL0     C18938   9.570   9.549  11.331 -0.3475  0.7540 -1.0396
  902MOL0     C18939   9.664   9.583  11.245 -0.7252  0.1936  0.6064
  902MOL0     O18940   9.795   9.536  11.237  0.2699 -0.3558 -0.5618
  902MOL0     C18941   9.822   9.435  11.328  0.6181  0.7646  0.3273
  902MOL0     C18942   9.977   9.416  11.348 -0.2427 -0.2237  0.6884
  902MOL0     C18943  10.043   9.354  11.229 -0.4419 -0.7320  0.5658
  902MOL0     C18944  10.195   9.320  11.251  0.2886  0.3307 -0.2954
  902MOL0     C18945  10.235   9.196  11.156 -0.2230 -0.7019  0.7506
  902MOL0     C18946  10.165   9.057  11.177  0.9722  0.4923 -0.0306
  902MOL0     C18947  10.187   9.009  11.321 -0.4022  0.2963 -0.3789
  902MOL0     C18948  10.112   8.873  11.332  0.5335  0.2173  0.3026
  902MOL0     N18949  10.150   8.759  11.245 -0.0683 -0.1928 -0.3498
  902MOL0     C18950  10.269   8.689  11.265 -0.0771 -0.0894  0.2889
  902MOL0     C18951  10.267   8.600  11.166  0.0471 -0.8261 -0.0703
  902MOL0     C18952  10.387   8.501  11.156  0.1410 -0.0781 -0.5319
  902MOL0     C18953  10.356   8.420  11.030  0.3556  0.3153  0.7418
  902MOL0     C18954  10.465   8.330  10.988 -0.6702  0.7343 -0.0740
  902MOL0     C18955  10.414   8.232  10.876  0.0658 -0.0252  0.3330
  902MOL0     O18956  10.517   8.208  10.780  0.1655  0.2902 -0.0698
  902MOL0     C18957  10.465   8.168  10.668  0.6924  0.6771  0.7901
  902MOL0     C18958  10.408   8.257  10.577 -0.3948  0.0650  0.3499
  902MOL0     C18959  10.363   8.225  10.454  0.2272 -0.3216 -0.7419
  902MOL0     C18960  10.373   8.090  10.412  1.2701  0.2915 -0.1416
  902MOL0     C18961  10.313   8.046  10.284 -0.0974  0.6848  0.8118
  902MOL0     O18962  10.353   7.927  10.246  0.5475 -0.0408 -0.3694
  902MOL0     C18963  10.337   7.860  10.125  0.7850  0.1035 -0.5750
  902MOL0     C18964  10.285   7.912  10.009 -0.1403  0.2363 -1.3282
  902MOL0     C18965  10.287   7.841   9.891  0.1686  0.1099 -0.5945
  902MOL0     C18966  10.349   7.714   9.883  0.2281  0.4004 -0.6393
  902MOL0     O18967  10.379   7.656   9.769  0.6642  0.2865  0.7547
  902MOL0     C18968  10.327   7.527   9.732 -1.5760 -0.6071 -0.5372
  902MOL0     C18969  10.178   7.539   9.734 -0.4501  0.0211 -0.2079
  902MOL0     C18970  10.094   7.415   9.704 -0.4021  0.1366  0.0065
  902MOL0     C18971  10.078   7.382   9.552  0.8572 -1.0962 -0.5457
  902MOL0     C18972   9.997   7.487   9.469  1.0801 -0.1303  0.3503
  902MOL0     C18973   9.848   7.436   9.448  0.5315  0.4853  0.7119
  902MOL0     C18974   9.747   7.543   9.418 -0.5609  0.4424  0.1589
  902MOL0     C18975   9.605   7.494   9.382 -0.0608 -0.0158  0.3923
  902MOL0    Cl18976   9.585   7.461   9.208 -0.7722  0.3787 -0.0807
  902MOL0     C18977  10.407   7.661  10.004 -0.5771 -0.5489 -0.4445
  902MOL0     C18978  10.403   7.726  10.124  0.5088 -0.5969 -0.3850
  902MOL0     O18979  10.245   8.123  10.218  0.3633  0.2115  0.5448
  902MOL0     C18980  10.430   7.989  10.495  0.3900 -0.3168  0.5049
  902MOL0     C18981  10.488   8.036  10.619 -0.2165  0.5645  0.0472
  902MOL0     N18982  10.150   8.599  11.103  0.1519 -0.2069  0.1424
  902MOL0     N18983  10.077   8.698  11.147 -0.0168 -1.0325  0.1095
  902MOL0     C18984   9.645   9.688  11.153 -0.6548  0.2830  0.5032
  902MOL0     C18985   9.530   9.762  11.157  0.6445 -0.5568  0.3130
  902MOL0     C18986   9.174   9.970  11.328  0.4953  0.6180 -0.2264
  902MOL0     C18987   9.043   9.907  11.324 -0.7245 -0.7473 -0.4225
  902MOL0     C18988   8.917   9.972  11.348 -0.9505  0.4332  0.5039
  902MOL0     C18989   8.924  10.105  11.385  0.2451 -0.3101 -0.1341
  902MOL0     O18990   8.805  10.164  11.407  0.2747  0.2084 -0.1888
  902MOL0     C18991   8.791  10.296  11.455 -0.1807  0.0018  0.2964
  902MOL0     C18992   8.648  10.349  11.412  0.5631 -0.2680  0.1393
  902MOL0     C18993   8.539  10.308  11.517 -0.4506 -0.3933  0.9789
  902MOL0     C18994   8.411  10.354  11.455 -0.1630  0.6807  0.2497
  902MOL0     C18995   8.290  10.304  11.523 -0.2882  0.4110  0.5930
  902MOL0     C18996   8.186  10.266  11.566  0.1311 -0.1642 -0.0756
  902MOL0     C18997   9.045  10.171  11.392 -0.0648  0.6727 -0.1024
  902MOL0     C18998   9.166  10.101  11.372 -0.1382 -0.0054 -0.4289
  902MOL0     H18999   9.362   9.578  11.387 -4.3007  2.0478 -2.0885
  902MOL0     H19000   9.584   9.475  11.409  0.2172  0.1857 -1.6628
  902MOL0     H19001   9.771   9.342  11.301  0.3315  0.8187  0.6848
  902MOL0     H19002   9.788   9.470  11.426 -3.2871  0.8898 -0.8946
  902MOL0     H19003   9.990   9.351  11.435 -0.3555  0.6837  1.4005
  902MOL0     H19004  10.009   9.516  11.378 -2.5529  1.1160 -0.9189
  902MOL0     H19005  10.038   9.415  11.139 -1.2568 -1.9753 -0.2682
  902MOL0     H19006   9.983   9.264  11.210  3.1122 -2.9922 -1.2514
  902MOL0     H19007  10.241   9.419  11.247 -3.1862  2.1140 -0.0693
  902MOL0     H19008  10.214   9.292  11.354  3.1708 -1.6826 -1.2486
  902MOL0     H19009  10.342   9.176  11.163  0.3538  0.1061 -3.0871
  902MOL0     H19010  10.218   9.238  11.056 -0.6751  1.0562  1.5320
  902MOL0     H19011  10.200   8.979  11.109 -3.6263 -1.8783 -0.1101
  902MOL0     H19012  10.056   9.061  11.164  0.4891  1.0053  3.2431
  902MOL0     H19013  10.295   8.993  11.322 -0.8439 -3.8235 -1.3094
  902MOL0     H19014  10.151   9.070  11.404  1.9738  1.1152  0.1287
  902MOL0     H19015  10.007   8.888  11.306  0.4786 -1.4971 -0.5636
  902MOL0     H19016  10.127   8.847  11.437 -2.2128  1.5340  1.1014
  902MOL0     H19017  10.342   8.699  11.345 -1.7923  0.9131  1.8014
  902MOL0     H19018  10.372   8.433  11.241 -2.0309 -0.0751 -0.8547
  902MOL0     H19019  10.487   8.544  11.158  0.7809 -1.5079  1.6571
  902MOL0     H19020  10.351   8.493  10.948  2.6877 -0.0389  0.2209
  902MOL0     H19021  10.265   8.362  11.045 -2.0249  2.5915 -3.2340
  902MOL0     H19022  10.547   8.392  10.949  0.7274 -0.8118  0.2555
  902MOL0     H19023  10.511   8.279  11.073  0.8247 -0.1998 -1.3615
  902MOL0     H19024  10.334   8.294  10.835  2.2361  0.2972 -3.9654
  902MOL0     H19025  10.379   8.134  10.908 -0.0467 -1.1613 -2.9397
  902MOL0     H19026  10.394   8.356  10.619  0.1168 -0.1208  0.9816
  902MOL0     H19027  10.311   8.294  10.388 -0.5283 -0.9312 -0.8006
  902MOL0     H19028  10.235   8.008  10.009 -0.5171  0.0980  1.1989
  902MOL0     H19029  10.244   7.885   9.801 -1.5386  1.0973  0.6556
  902MOL0     H19030  10.367   7.449   9.797  0.9047  1.4412  0.5821
  902MOL0     H19031  10.383   7.507   9.640 -0.5076 -0.5274  0.0792
  902MOL0     H19032  10.142   7.616   9.665  2.1546  0.7959 -0.8224
  902MOL0     H19033  10.146   7.574   9.833 -1.0780 -0.1938 -0.3333
  902MOL0     H19034   9.994   7.431   9.747 -1.3101 -0.7532 -1.6908
  902MOL0     H19035  10.147   7.330   9.748 -0.0296 -1.6087 -3.4782
  902MOL0     H19036  10.173   7.387   9.498  2.3175  0.4758  1.9846
  902MOL0     H19037  10.024   7.287   9.557 -1.2408  0.0941  1.3906
  902MOL0     H19038  10.049   7.513   9.376  2.2756  0.5989  1.1939
  902MOL0     H19039   9.986   7.576   9.532 -1.8044 -0.3519  0.3004
  902MOL0     H19040   9.820   7.371   9.531  0.7734  4.0633  3.8605
  902MOL0     H19041   9.866   7.367   9.365 -1.3101 -0.5219  1.1127
  902MOL0     H19042   9.742   7.608   9.507  1.5250 -2.0827  2.2732
  902MOL0     H19043   9.793   7.608   9.343  0.1787  0.2514  0.4371
  902MOL0     H19044   9.528   7.570   9.401 -1.4821 -0.3567 -3.2417
  902MOL0     H19045   9.577   7.403   9.435 -0.7888  0.6109  1.1246
  902MOL0     H19046  10.472   7.575   9.999 -0.5905 -0.9197  3.3722
  902MOL0     H19047  10.449   7.699  10.218  1.9241  0.8665 -0.6109
  902MOL0     H19048  10.436   7.888  10.457 -1.0325  0.3985 -1.8426
  902MOL0     H19049  10.545   7.966  10.679  2.5087  2.7861  0.2692
  902MOL0     H19050   9.723   9.691  11.078 -0.6867 -0.4246  0.4323
  902MOL0     H19051   9.525   9.846  11.089 -0.2491 -1.6567 -1.0264
  902MOL0     H19052   9.038   9.813  11.270  0.3271 -0.6741 -0.6589
  902MOL0     H19053   8.818   9.927  11.340  0.0739 -1.7460 -1.1407
  902MOL0     H19054   8.871  10.363  11.422  0.2728 -0.6516  0.0506
  902MOL0     H19055   8.803  10.292  11.564 -2.4181 -2.0647  0.5562
  902MOL0     H19056   8.645  10.459  11.414 -1.2856 -0.2808  0.6051
  902MOL0     H19057   8.621  10.323  11.309  1.3543  1.6752 -0.6126
  902MOL0     H19058   8.564  10.367  11.605  1.7566  0.2515  0.0056
  902MOL0     H19059   8.541  10.201  11.542 -0.3837 -0.5315  0.4126
  902MOL0     H19060   8.414  10.462  11.440  0.6347  0.5367 -0.7645
  902MOL0     H19061   8.413  10.327  11.349  1.0164 -2.9417  1.0477
  902MOL0     H19062   8.086  10.244  11.598  0.0622 -0.3975 -0.4457
  902MOL0     H19063   9.056  10.272  11.430  1.6725  0.1064  1.0055
  902MOL0     H19064   9.260  10.153  11.386  0.1478 -0.8993  1.4218
  903MOL0     O19065   8.603  10.381  10.012 -0.4892 -0.4134 -0.1053
  903MOL0     C19066   8.629  10.431  10.123 -0.6053 -0.4739 -0.5187
  903MOL0     O19067   8.537  10.486  10.221  0.2827  0.1344  0.4445
  903MOL0     C19068   8.407  10.479  10.190  0.1121 -0.1075  0.1906
  903MOL0     C19069   8.348  10.579  10.110 -0.0224 -0.0771  0.0245
  903MOL0     C19070   8.208  10.576  10.098 -0.1957  0.3163  0.4596
  903MOL0     C19071   8.116  10.490  10.163 -0.1716  0.6904 -0.7126
  903MOL0     O19072   7.983  10.490  10.172  0.7434 -0.3976 -0.3458
  903MOL0     C19073   7.905  10.599  10.126 -0.4161  0.0119 -0.8741
  903MOL0     C19074   7.910  10.735  10.194 -0.3625  0.6284 -0.0274
  903MOL0     C19075   7.898  10.740  10.345  0.2357 -0.1692 -0.2733
  903MOL0     C19076   7.746  10.759  10.373 -0.1684 -0.2479 -0.5689
  903MOL0     C19077   7.673  10.897  10.343  0.5289 -0.3497  0.3138
  903MOL0     C19078   7.516  10.901  10.338  0.3345 -0.0206 -0.3151
  903MOL0     C19079   7.452  10.767  10.299  0.9704 -0.4888 -0.2139
  903MOL0     C19080   7.454  10.736  10.150  0.3688 -0.5171 -0.8125
  903MOL0     N19081   7.392  10.608  10.110  0.0303 -0.5780  0.2449
  903MOL0     C19082   7.272  10.548  10.148 -0.2273 -0.0852  0.0430
  903MOL0     C19083   7.294  10.414  10.128 -0.1497 -0.2436  0.1429
  903MOL0     C19084   7.201  10.303  10.177 -0.0070 -1.2849  0.2932
  903MOL0     C19085   7.104  10.250  10.069 -0.2817 -1.0367 -0.0454
  903MOL0     C19086   7.032  10.128  10.119  0.3150  0.2540 -1.0555
  903MOL0     C19087   6.946  10.150  10.244  0.2121 -0.6352 -0.7985
  903MOL0     O19088   6.817  10.097  10.211 -0.1507  0.0521 -0.4986
  903MOL0     C19089   6.798   9.959  10.229  1.0987  0.2694 -0.7337
  903MOL0     C19090   6.678   9.900  10.187  0.9814 -0.6237  0.0020
  903MOL0     C19091   6.640   9.769  10.189  0.4777  0.8504 -0.0581
  903MOL0     C19092   6.736   9.677  10.222 -1.1967  0.3588 -1.3225
  903MOL0     C19093   6.722   9.529  10.227 -0.5728 -0.0903 -0.2864
  903MOL0     O19094   6.851   9.456  10.221  0.0490 -0.2030  0.2811
  903MOL0     C19095   6.849   9.319  10.186 -0.0052  0.6684 -0.9102
  903MOL0     C19096   6.962   9.246  10.210 -0.5252 -0.0742  0.3737
  903MOL0     C19097   6.974   9.116  10.167  0.3636  0.5636 -0.0090
  903MOL0     C19098   6.865   9.042  10.122  0.0105 -0.1401  0.6118
  903MOL0     O19099   6.891   8.912  10.106 -0.2939 -0.4094 -0.0690
  903MOL0     C19100   6.773   8.825  10.115 -0.4574  0.0353  0.0825
  903MOL0     C19101   6.828   8.680  10.113  0.4663 -0.1848  1.0988
  903MOL0     C19102   6.923   8.658  10.228  0.3995  0.6539  0.5726
  903MOL0     C19103   6.855   8.583  10.339  0.6565  0.1312  0.3353
  903MOL0     C19104   6.836   8.436  10.294  0.1447  0.5381 -0.4390
  903MOL0     C19105   6.744   8.347  10.371  0.1711  0.2517 -0.3137
  903MOL0     C19106   6.813   8.320  10.507  0.1705  0.4311 -0.2297
  903MOL0     C19107   6.725   8.232  10.599  1.1361 -0.2069  0.1003
  903MOL0    Cl19108   6.832   8.175  10.732 -0.0258  0.0168  0.0950
  903MOL0     C19109   6.742   9.110  10.105 -0.2307 -0.1947  1.0326
  903MOL0     C19110   6.739   9.245  10.140  0.7469  0.6448  0.0467
  903MOL0     O19111   6.605   9.487  10.206 -0.4343 -0.2169 -0.9912
  903MOL0     C19112   6.870   9.730  10.255 -0.3740  0.4384 -0.5368
  903MOL0     C19113   6.903   9.861  10.253 -0.1070 -0.3733 -0.3620
  903MOL0     N19114   7.411  10.394  10.063  0.3472  0.0714 -0.9698
  903MOL0     N19115   7.468  10.515  10.053  0.4323  0.2344 -1.1994
  903MOL0     C19116   8.177  10.387  10.233  0.5300 -0.5028  0.1120
  903MOL0     C19117   8.317  10.384  10.250 -0.2153  0.0512 -0.2961
  903MOL0     C19118   8.771  10.426  10.152  0.4567  0.1553 -1.0688
  903MOL0     C19119   8.870  10.406  10.061  0.2437  1.0352  0.8329
  903MOL0     C19120   8.998  10.390  10.095 -0.1534  0.1349  0.6332
  903MOL0     C19121   9.036  10.377  10.227  0.0584 -0.4934  0.5012
  903MOL0     O19122   9.160  10.353  10.282 -0.5167 -0.0121 -0.5110
  903MOL0     C19123   9.249  10.297  10.184 -0.7773  0.0314 -0.8628
  903MOL0     C19124   9.380  10.245  10.263  1.1392 -0.7741  0.4695
  903MOL0     C19125   9.350  10.124  10.353 -0.5054  0.9728  0.1573
  903MOL0     C19126   9.284  10.167  10.489  0.8702  0.0391  0.2477
  903MOL0     C19127   9.331  10.093  10.602  0.1385 -0.7243  0.9683
  903MOL0     C19128   9.381  10.037  10.698  0.3459 -0.5017 -0.4838
  903MOL0     C19129   8.940  10.392  10.323 -1.0915  0.6361 -0.5772
  903MOL0     C19130   8.806  10.432  10.288 -0.1323  1.1696 -0.3482
  903MOL0     H19131   8.411  10.658  10.071  1.7642 -1.0459  0.8314
  903MOL0     H19132   8.166  10.656  10.037  0.6834  2.3395  2.3694
  903MOL0     H19133   7.799  10.572  10.137  0.1776 -1.7504  1.2416
  903MOL0     H19134   7.929  10.609  10.020 -0.3312  3.4601 -0.6567
  903MOL0     H19135   7.836  10.788  10.134 -0.2880  0.8200  0.0501
  903MOL0     H19136   8.006  10.778  10.165 -0.8725 -0.2247 -3.5054
  903MOL0     H19137   7.960  10.822  10.384  2.6697 -1.1397 -1.8271
  903MOL0     H19138   7.953  10.658  10.392  2.5482  2.9181  2.9764
  903MOL0     H19139   7.695  10.681  10.316 -0.5246 -2.3684  2.4096
  903MOL0     H19140   7.723  10.728  10.476  0.7151  0.9560  0.0176
  903MOL0     H19141   7.712  10.939  10.250 -0.3918  0.7177  0.3779
  903MOL0     H19142   7.700  10.974  10.417 -0.4617  2.8125 -2.3480
  903MOL0     H19143   7.497  10.989  10.276 -2.1586  0.3119  0.8165
  903MOL0     H19144   7.483  10.927  10.439 -2.0115 -0.8420 -0.8247
  903MOL0     H19145   7.501  10.681  10.346  1.8503  0.2114  0.1932
  903MOL0     H19146   7.351  10.757  10.340  2.1205 -3.3318  2.3356
  903MOL0     H19147   7.553  10.736  10.102  0.8781 -2.0519  0.1496
  903MOL0     H19148   7.403  10.824  10.112 -0.8247 -1.0060 -0.3861
  903MOL0     H19149   7.184  10.588  10.197 -1.6258  1.0224 -3.1111
  903MOL0     H19150   7.138  10.361  10.245 -1.0603  2.5309 -3.5080
  903MOL0     H19151   7.258  10.217  10.215 -3.4848 -3.6736  0.5758
  903MOL0     H19152   7.167  10.227   9.983 -0.5975  3.6926 -1.8484
  903MOL0     H19153   7.031  10.325  10.037 -0.1105 -0.1643  1.4918
  903MOL0     H19154   6.961  10.091  10.044  0.2066 -0.4017 -0.6398
  903MOL0     H19155   7.106  10.049  10.134 -2.2134 -1.6499  3.0484
  903MOL0     H19156   6.947  10.254  10.279  3.0761 -0.5449 -0.8788
  903MOL0     H19157   6.989  10.092  10.326  1.8563  0.9744 -0.4257
  903MOL0     H19158   6.602   9.973  10.160  0.9741 -1.4303 -2.4345
  903MOL0     H19159   6.538   9.739  10.172  0.7311  1.5369 -3.6286
  903MOL0     H19160   7.041   9.306  10.255 -1.0557  1.3805 -0.5591
  903MOL0     H19161   7.075   9.076  10.175  1.0711  2.4209  1.0148
  903MOL0     H19162   6.710   8.832  10.026 -1.1706 -2.4596  0.3055
  903MOL0     H19163   6.705   8.849  10.197  0.6121  2.6133  0.3201
  903MOL0     H19164   6.884   8.664  10.020  1.0667  0.2000  1.3849
  903MOL0     H19165   6.742   8.612  10.118  2.3857 -3.0127 -0.7826
  903MOL0     H19166   6.959   8.748  10.279 -1.6107  1.0212  1.4382
  903MOL0     H19167   7.018   8.608  10.205  0.9032  1.9396 -0.2581
  903MOL0     H19168   6.913   8.580  10.431 -1.4287  2.3712  1.8645
  903MOL0     H19169   6.761   8.635  10.360 -0.8511 -1.4266 -2.0451
  903MOL0     H19170   6.935   8.394  10.278  0.7093  2.8758 -4.2047
  903MOL0     H19171   6.802   8.432  10.190  1.6281 -0.1091 -0.9299
  903MOL0     H19172   6.713   8.259  10.315 -0.9212  0.7416 -0.5145
  903MOL0     H19173   6.655   8.410  10.385 -0.1326 -0.6685  2.6633
  903MOL0     H19174   6.905   8.265  10.485 -1.6567 -3.2357  0.5823
  903MOL0     H19175   6.839   8.410  10.563 -0.7186 -0.6278  2.0170
  903MOL0     H19176   6.682   8.154  10.536  1.3444  1.9041 -2.8726
  903MOL0     H19177   6.649   8.299  10.640  1.3235  0.8032 -1.1341
  903MOL0     H19178   6.654   9.070  10.054  1.1569 -2.9920  0.6064
  903MOL0     H19179   6.635   9.272  10.126  0.2107 -1.9739 -1.8027
  903MOL0     H19180   6.951   9.659  10.270  1.0568  1.0995 -3.9167
  903MOL0     H19181   7.006   9.889  10.274  0.6331 -0.8440 -3.0046
  903MOL0     H19182   8.117  10.316  10.289  0.1470 -0.6602 -0.4918
  903MOL0     H19183   8.345  10.327  10.338 -1.4223  2.4576  1.8017
  903MOL0     H19184   8.846  10.406   9.956 -0.9152 -2.7636  0.9483
  903MOL0     H19185   9.063  10.398  10.009 -0.2652 -0.4753  0.4911
  903MOL0     H19186   9.268  10.379  10.114 -0.8650  1.2973  0.5673
  903MOL0     H19187   9.194  10.211  10.143 -1.6218 -0.8703  1.9428
  903MOL0     H19188   9.461  10.235  10.190  0.2688  2.8758 -1.2613
  903MOL0     H19189   9.400  10.330  10.328 -0.2506 -0.9784  1.2227
  903MOL0     H19190   9.439  10.064  10.375 -2.6605 -2.2834  0.7674
  903MOL0     H19191   9.274  10.054  10.317 -1.1092  0.5139  2.1882
  903MOL0     H19192   9.308  10.272  10.503  3.4362 -0.2818 -1.0426
  903MOL0     H19193   9.175  10.161  10.490  0.8520  0.2344 -0.4623
  903MOL0     H19194   9.437   9.973  10.763 -1.4403 -1.1550  0.4774
  903MOL0     H19195   8.983  10.373  10.420 -1.3345 -2.8814 -1.0238
  903MOL0     H19196   8.732  10.448  10.366 -0.4655 -0.7247 -0.2368
  904MOL0     O19197   8.744   6.942   5.735 -0.6556 -0.1161 -0.5645
  904MOL0     C19198   8.852   6.951   5.801  0.3818  0.9752  0.5708
  904MOL0     O19199   8.955   7.039   5.769 -0.4563 -0.2898 -0.4498
  904MOL0     C19200   8.938   7.108   5.650  0.8891 -0.1315  0.2734
  904MOL0     C19201   8.983   7.062   5.526  0.7321  0.1766 -0.5993
  904MOL0     C19202   8.959   7.139   5.414 -0.1305  0.3942 -0.6947
  904MOL0     C19203   8.898   7.261   5.414 -0.5867 -0.4470  1.0667
  904MOL0     O19204   8.891   7.341   5.311 -0.2048  0.6886  0.1663
  904MOL0     C19205   8.849   7.280   5.183 -0.2097  0.6247 -0.5519
  904MOL0     C19206   8.796   7.388   5.093 -0.1292  0.6678 -1.3846
  904MOL0     C19207   8.908   7.467   5.030  0.0151 -0.6258  0.1816
  904MOL0     C19208   8.858   7.540   4.903 -0.2744  0.2805  0.4641
  904MOL0     C19209   8.954   7.636   4.835 -0.0460 -0.7697  0.5618
  904MOL0     C19210   8.904   7.687   4.689  0.2601 -0.0887 -0.7057
  904MOL0     C19211   8.767   7.752   4.689 -0.1768 -0.3369 -0.4806
  904MOL0     C19212   8.777   7.892   4.762  0.6400  0.2210  0.4118
  904MOL0     N19213   8.665   7.984   4.742  0.4709  0.4758 -0.4656
  904MOL0     C19214   8.638   8.044   4.621  0.3523  0.2062  0.3950
  904MOL0     C19215   8.541   8.138   4.647 -0.3451 -0.4268 -0.2391
  904MOL0     C19216   8.482   8.237   4.553 -0.0246 -0.0417 -0.6311
  904MOL0     C19217   8.584   8.357   4.509  0.0785 -0.1294 -0.1712
  904MOL0     C19218   8.677   8.318   4.398  0.9269 -0.5734 -0.3737
  904MOL0     C19219   8.626   8.368   4.265  0.2928  0.2133 -0.2923
  904MOL0     O19220   8.695   8.280   4.165 -1.3721  0.8102  0.4007
  904MOL0     C19221   8.685   8.302   4.032 -0.3986 -0.4141 -0.5426
  904MOL0     C19222   8.640   8.424   3.976 -0.1548 -0.4627 -1.1469
  904MOL0     C19223   8.640   8.441   3.838 -0.4973  0.0706 -0.2151
  904MOL0     C19224   8.697   8.345   3.757 -0.5191  0.5673 -0.3955
  904MOL0     C19225   8.691   8.367   3.602  0.2349  0.6383 -0.6332
  904MOL0     O19226   8.578   8.419   3.540 -0.2034  0.9555 -0.4239
  904MOL0     C19227   8.592   8.467   3.410 -0.1929  0.1125  0.0402
  904MOL0     C19228   8.525   8.589   3.381 -0.5422 -1.2775 -0.3429
  904MOL0     C19229   8.523   8.650   3.253 -0.7250  0.0984 -0.1000
  904MOL0     C19230   8.590   8.579   3.149  0.0838 -0.2994  0.6630
  904MOL0     O19231   8.594   8.645   3.028  0.7230  0.0401 -0.1110
  904MOL0     C19232   8.571   8.564   2.909  0.8794  0.1116 -0.0876
  904MOL0     C19233   8.424   8.523   2.910 -0.5986 -0.2813  0.6938
  904MOL0     C19234   8.324   8.644   2.892  0.2239  0.2573 -0.2241
  904MOL0     C19235   8.242   8.691   3.013 -0.4037  0.6092  0.2561
  904MOL0     C19236   8.190   8.838   2.986  0.3870 -0.3944  0.4491
  904MOL0     C19237   8.101   8.896   3.103 -0.9497  0.3007  0.1967
  904MOL0     C19238   8.183   8.914   3.240 -0.0336  0.8763 -1.3614
  904MOL0     C19239   8.276   9.030   3.251  1.1902 -0.2418 -0.0324
  904MOL0    Cl19240   8.164   9.166   3.227 -0.5067  0.0962  0.4103
  904MOL0     C19241   8.648   8.454   3.170 -0.1267 -0.3927 -0.0480
  904MOL0     C19242   8.660   8.404   3.300  0.5086  0.4326 -0.0356
  904MOL0     O19243   8.804   8.347   3.553  0.6295 -0.1982  0.0557
  904MOL0     C19244   8.745   8.227   3.814 -0.1066 -0.0266 -0.3194
  904MOL0     C19245   8.737   8.208   3.949 -0.1903 -0.0374 -0.1555
  904MOL0     N19246   8.513   8.118   4.782 -0.1065 -0.3126  0.0504
  904MOL0     N19247   8.593   8.030   4.845 -0.2389 -0.3197  1.0198
  904MOL0     C19248   8.847   7.306   5.536 -1.1304  0.3088  0.4624
  904MOL0     C19249   8.875   7.235   5.657  0.6586  0.4179  0.3495
  904MOL0     C19250   8.878   6.825   5.878 -0.1408 -0.4754  0.9582
  904MOL0     C19251   8.796   6.716   5.896 -1.0439  0.2121 -0.0857
  904MOL0     C19252   8.833   6.607   5.969 -0.1814  0.1933  0.1635
  904MOL0     C19253   8.950   6.609   6.052 -0.1981  0.6917 -0.5949
  904MOL0     O19254   9.000   6.510   6.136 -0.8398 -0.1953 -0.2668
  904MOL0     C19255   8.923   6.399   6.167  0.2734  0.3933  0.1453
  904MOL0     C19256   8.811   6.425   6.264 -0.7112  0.3487 -1.3768
  904MOL0     C19257   8.854   6.370   6.404 -0.7217  0.0866  0.3643
  904MOL0     C19258   8.864   6.221   6.421 -0.6905 -0.9077  0.5148
  904MOL0     C19259   8.733   6.155   6.405  0.0295 -0.4681  0.1933
  904MOL0     C19260   8.628   6.100   6.388 -0.4034  0.0130 -0.3242
  904MOL0     C19261   9.024   6.725   6.046 -0.6389  0.5149 -0.3531
  904MOL0     C19262   8.989   6.827   5.958 -0.1846 -0.0036  0.2360
  904MOL0     H19263   9.041   6.973   5.507 -0.3102 -0.8282  0.6889
  904MOL0     H19264   8.991   7.099   5.318  2.1421 -0.5895  0.4048
  904MOL0     H19265   8.762   7.215   5.202 -1.2184  0.8462 -3.8510
  904MOL0     H19266   8.932   7.222   5.141 -0.0749 -0.9047  1.6422
  904MOL0     H19267   8.722   7.451   5.143 -0.7100  0.3726 -1.8574
  904MOL0     H19268   8.744   7.340   5.010  1.0315 -4.1357  0.3218
  904MOL0     H19269   8.986   7.396   4.998 -1.9561 -1.1797 -4.1046
  904MOL0     H19270   8.938   7.554   5.090 -1.0276  1.2014 -1.8294
  904MOL0     H19271   8.855   7.465   4.823  0.5410 -1.1888  1.7741
  904MOL0     H19272   8.756   7.580   4.909 -0.4962  0.0377 -1.0837
  904MOL0     H19273   9.053   7.590   4.835 -0.7888 -2.4511 -0.1122
  904MOL0     H19274   8.963   7.726   4.897  1.5835 -0.8187  0.4289
  904MOL0     H19275   8.911   7.595   4.630  1.9345 -0.3116 -0.2147
  904MOL0     H19276   8.980   7.753   4.647 -0.0486  1.1757  0.6240
  904MOL0     H19277   8.741   7.773   4.585 -1.8262  2.2659  0.3735
  904MOL0     H19278   8.687   7.689   4.730 -0.5319 -0.6801 -1.6576
  904MOL0     H19279   8.865   7.941   4.719  2.1684 -2.7424 -0.0254
  904MOL0     H19280   8.784   7.870   4.868 -2.8130 -1.3984  0.4281
  904MOL0     H19281   8.696   8.027   4.531 -2.0063 -0.0249 -1.1745
  904MOL0     H19282   8.399   8.285   4.605 -0.4034 -0.3948 -0.9062
  904MOL0     H19283   8.452   8.196   4.456  1.2167  1.5342 -1.7291
  904MOL0     H19284   8.641   8.402   4.590 -0.1980 -0.6535  0.3209
  904MOL0     H19285   8.515   8.438   4.482 -0.6794 -0.1565  1.5987
  904MOL0     H19286   8.776   8.354   4.429  0.1483  1.1857  0.1963
  904MOL0     H19287   8.674   8.210   4.385  0.9140 -0.2641 -3.8783
  904MOL0     H19288   8.663   8.470   4.254  0.4794  0.9333  4.5983
  904MOL0     H19289   8.517   8.367   4.252  0.3218 -2.8210 -0.9657
  904MOL0     H19290   8.610   8.502   4.045  1.7881 -0.9414  0.3140
  904MOL0     H19291   8.600   8.537   3.805 -0.9039 -0.5592 -1.6549
  904MOL0     H19292   8.467   8.641   3.456 -0.2526  0.9062 -1.5413
  904MOL0     H19293   8.479   8.749   3.248 -3.7712 -1.1769 -1.7874
  904MOL0     H19294   8.649   8.487   2.910  2.4698  1.6508 -1.0769
  904MOL0     H19295   8.597   8.632   2.828  0.7066 -0.9204 -1.0277
  904MOL0     H19296   8.393   8.468   2.999 -3.1307 -1.6600 -0.9177
  904MOL0     H19297   8.417   8.463   2.818 -1.2859  1.5471 -0.5218
  904MOL0     H19298   8.251   8.612   2.818  1.7635 -1.1530 -1.2002
  904MOL0     H19299   8.386   8.723   2.850  2.0686 -0.8157  0.3352
  904MOL0     H19300   8.149   8.635   3.026 -2.3818  3.8387  0.8500
  904MOL0     H19301   8.298   8.689   3.106  1.3685  1.9692 -0.7137
  904MOL0     H19302   8.124   8.836   2.899  1.8426  0.0123 -0.7013
  904MOL0     H19303   8.268   8.909   2.956 -1.3576  1.2738 -0.3571
  904MOL0     H19304   8.022   8.824   3.126 -0.5495 -0.2624 -0.1851
  904MOL0     H19305   8.040   8.983   3.076 -2.3584  0.5700  3.6706
  904MOL0     H19306   8.109   8.922   3.320 -0.3366 -0.7868 -1.4525
  904MOL0     H19307   8.238   8.824   3.267 -1.5500  0.1130 -0.6901
  904MOL0     H19308   8.345   9.036   3.166  0.4509 -1.2118 -0.7244
  904MOL0     H19309   8.314   9.047   3.352  0.3930 -1.6977  0.5443
  904MOL0     H19310   8.688   8.399   3.085 -0.9998  2.5888 -2.6147
  904MOL0     H19311   8.699   8.304   3.319 -1.0076  0.0754  1.3915
  904MOL0     H19312   8.768   8.155   3.738 -1.7286 -1.7592  0.7381
  904MOL0     H19313   8.767   8.110   3.985  1.5967  0.9551  1.2152
  904MOL0     H19314   8.807   7.407   5.539  1.1497  1.2840  0.1531
  904MOL0     H19315   8.846   7.284   5.750 -0.5584 -2.7217  1.7723
  904MOL0     H19316   8.703   6.719   5.839  0.6667  3.7833 -3.1428
  904MOL0     H19317   8.760   6.527   5.970  0.0995 -0.0611  0.4030
  904MOL0     H19318   8.986   6.310   6.180 -1.4025 -0.8478  0.0759
  904MOL0     H19319   8.884   6.375   6.068  1.1641  0.1974 -0.1698
  904MOL0     H19320   8.789   6.532   6.267  2.9055  1.1960 -0.4803
  904MOL0     H19321   8.732   6.359   6.226  0.1182 -0.8879 -1.0279
  904MOL0     H19322   8.781   6.404   6.478  0.8568  1.6514  1.2788
  904MOL0     H19323   8.944   6.418   6.443 -0.6447  2.0702 -1.9996
  904MOL0     H19324   8.933   6.177   6.349  1.5613  2.0575  0.6597
  904MOL0     H19325   8.908   6.193   6.517  2.9298  3.0129  0.2710
  904MOL0     H19326   8.545   6.034   6.381 -0.3590 -0.8497  4.0940
  904MOL0     H19327   9.122   6.739   6.091 -1.1031 -1.6357  1.5191
  904MOL0     H19328   9.058   6.911   5.956  0.6467 -0.6397  1.0727
  905MOL0     O19329   4.770   4.662   6.899 -0.6338 -0.4430  0.4045
  905MOL0     C19330   4.826   4.640   6.789 -0.0707  0.8164 -0.3750
  905MOL0     O19331   4.934   4.554   6.765  0.3932  0.0295 -0.1157
  905MOL0     C19332   5.003   4.511   6.883 -0.3420 -0.8643  0.6558
  905MOL0     C19333   5.013   4.370   6.904 -0.6450 -0.4581  0.6833
  905MOL0     C19334   5.095   4.318   7.007 -0.1327 -0.0178  0.0562
  905MOL0     C19335   5.167   4.402   7.091  0.5351 -0.7772 -0.6047
  905MOL0     O19336   5.237   4.343   7.191  0.4788  0.1294 -0.0387
  905MOL0     C19337   5.330   4.424   7.259 -0.3781 -0.3925 -0.8368
  905MOL0     C19338   5.402   4.347   7.367  0.8248 -0.0450  0.5908
  905MOL0     C19339   5.533   4.294   7.319 -0.0999  0.0279  0.0404
  905MOL0     C19340   5.520   4.231   7.175  0.1373 -0.2673 -0.1808
  905MOL0     C19341   5.648   4.169   7.112 -0.8101  0.6361  0.5369
  905MOL0     C19342   5.694   4.047   7.199  0.1902 -0.4389 -0.2199
  905MOL0     C19343   5.824   3.979   7.142  0.8264 -0.2735 -0.0595
  905MOL0     C19344   5.887   3.903   7.254  0.9984  0.0394  0.1085
  905MOL0     N19345   5.994   3.818   7.202 -0.4290  0.5831  0.0795
  905MOL0     C19346   5.985   3.712   7.126  0.3549  0.4430 -0.0508
  905MOL0     C19347   6.108   3.670   7.090  0.2141  0.7503  0.2925
  905MOL0     C19348   6.145   3.550   7.005 -0.1590  1.0503  0.6325
  905MOL0     C19349   6.133   3.598   6.866 -0.2524  0.0576  0.0549
  905MOL0     C19350   6.185   3.489   6.766 -0.0191  0.5523  0.0283
  905MOL0     C19351   6.124   3.346   6.770  0.0885  0.1876  0.8200
  905MOL0     O19352   6.189   3.261   6.867  0.6524 -1.0284  0.5203
  905MOL0     C19353   6.182   3.128   6.856  0.1199  0.0877  0.8038
  905MOL0     C19354   6.107   3.053   6.765 -0.4388  0.3572 -0.8501
  905MOL0     C19355   6.112   2.918   6.778  0.4087  0.3536 -0.1866
  905MOL0     C19356   6.201   2.840   6.855 -0.5206 -0.2827 -0.1042
  905MOL0     C19357   6.214   2.693   6.848  1.2488  0.2380  0.2571
  905MOL0     O19358   6.327   2.625   6.873 -0.3609 -0.1514  1.4653
  905MOL0     C19359   6.346   2.486   6.872 -0.4522  0.0882 -0.9021
  905MOL0     C19360   6.476   2.434   6.861  0.1627 -0.8858  0.0209
  905MOL0     C19361   6.493   2.300   6.872  0.0535 -0.2048 -0.0975
  905MOL0     C19362   6.384   2.212   6.880 -0.5004  1.3971 -0.3993
  905MOL0     O19363   6.388   2.071   6.883 -0.5465  0.3177 -0.0256
  905MOL0     C19364   6.517   2.026   6.925  0.3134 -0.8984 -0.7058
  905MOL0     C19365   6.522   1.879   6.942  0.5202  0.5605 -0.7905
  905MOL0     C19366   6.403   1.837   7.037  0.4755 -0.0029 -0.1205
  905MOL0     C19367   6.403   1.695   7.089 -0.3488 -0.6416  0.3434
  905MOL0     C19368   6.537   1.644   7.150 -0.2005 -1.0383  0.2044
  905MOL0     C19369   6.604   1.733   7.248  0.3280 -0.9288  0.6242
  905MOL0     C19370   6.726   1.673   7.319  0.3392 -0.6072  0.1017
  905MOL0     C19371   6.867   1.702   7.260  0.3579  0.1707  0.7646
  905MOL0    Cl19372   6.869   1.667   7.087  0.1085 -0.0624 -0.4097
  905MOL0     C19373   6.256   2.259   6.898 -0.2538  0.4672  1.0912
  905MOL0     C19374   6.238   2.397   6.891 -0.1127  0.4878  0.0136
  905MOL0     O19375   6.106   2.640   6.822  1.7352 -0.1753  0.2024
  905MOL0     C19376   6.285   2.914   6.936  0.0235 -0.2231  0.2002
  905MOL0     C19377   6.279   3.060   6.935  0.0935  0.6513  0.7493
  905MOL0     N19378   6.192   3.748   7.168 -0.2832 -0.4792 -0.2183
  905MOL0     N19379   6.129   3.840   7.231 -0.2321  0.5997  0.4970
  905MOL0     C19380   5.147   4.547   7.079 -1.1640  0.1256  0.1588
  905MOL0     C19381   5.063   4.603   6.976 -0.1155 -0.3741  0.7678
  905MOL0     C19382   4.770   4.717   6.674  0.4163 -0.4017 -0.1461
  905MOL0     C19383   4.826   4.700   6.541 -0.5649 -0.1268 -0.3682
  905MOL0     C19384   4.773   4.784   6.441 -0.1944 -0.0233 -0.2740
  905MOL0     C19385   4.659   4.873   6.470 -0.4942 -0.3355 -0.0598
  905MOL0     O19386   4.600   4.956   6.377 -0.1419  0.7734 -0.3514
  905MOL0     C19387   4.629   4.950   6.235  0.0963  0.0891  0.4228
  905MOL0     C19388   4.525   5.005   6.137 -0.4594  0.9164 -0.2965
  905MOL0     C19389   4.472   5.139   6.185 -0.0767  0.2880  0.8625
  905MOL0     C19390   4.379   5.205   6.079 -0.0567  0.1658  0.2803
  905MOL0     C19391   4.449   5.221   5.951  0.4080  0.1501 -0.7125
  905MOL0     C19392   4.497   5.215   5.834 -0.0373 -0.3212 -0.1376
  905MOL0     C19393   4.590   4.864   6.591  0.4661  0.4441 -0.9492
  905MOL0     C19394   4.651   4.797   6.698  0.6657  0.4945 -0.8316
  905MOL0     H19395   4.967   4.306   6.829  1.0125 -1.2008  0.2386
  905MOL0     H19396   5.116   4.213   7.024  1.9176  0.5357  1.4590
  905MOL0     H19397   5.277   4.510   7.300  1.2149  0.3788 -0.3142
  905MOL0     H19398   5.398   4.474   7.190 -0.2976 -1.1089 -1.2897
  905MOL0     H19399   5.342   4.264   7.405 -2.8236  2.2645  0.3543
  905MOL0     H19400   5.422   4.421   7.444  2.9695 -2.4500  2.5299
  905MOL0     H19401   5.575   4.229   7.397  0.2104  1.8771  1.4775
  905MOL0     H19402   5.602   4.378   7.309 -2.3196  1.7884 -1.3398
  905MOL0     H19403   5.452   4.145   7.178 -2.8622  1.8882  3.6216
  905MOL0     H19404   5.493   4.311   7.106  5.1840  2.7177  0.7812
  905MOL0     H19405   5.732   4.238   7.112  0.8480 -1.2820  1.5503
  905MOL0     H19406   5.635   4.127   7.012  3.0310 -2.2603  1.0058
  905MOL0     H19407   5.623   3.963   7.198 -0.8202  0.3733  0.7150
  905MOL0     H19408   5.710   4.088   7.299 -2.0582  0.2286 -0.0819
  905MOL0     H19409   5.787   3.909   7.067  2.5369 -1.7499  0.4017
  905MOL0     H19410   5.892   4.050   7.095 -2.9165  2.9392 -1.0826
  905MOL0     H19411   5.807   3.834   7.285  0.2036 -0.3147 -2.4082
  905MOL0     H19412   5.928   3.970   7.330  2.6883  0.0173 -0.7378
  905MOL0     H19413   5.902   3.665   7.074  0.2138  1.3197 -0.6392
  905MOL0     H19414   6.074   3.468   7.023 -0.8889  1.7361  0.9422
  905MOL0     H19415   6.244   3.505   7.021 -0.6863  0.3685  2.2771
  905MOL0     H19416   6.187   3.690   6.844  2.6130 -1.9483 -1.9087
  905MOL0     H19417   6.029   3.630   6.853  0.8029  3.1242 -1.7747
  905MOL0     H19418   6.166   3.539   6.670  0.8470  1.2270  0.1925
  905MOL0     H19419   6.292   3.482   6.790 -0.6073 -1.1320  2.6105
  905MOL0     H19420   6.131   3.302   6.670 -1.7398  1.1784  0.2208
  905MOL0     H19421   6.015   3.347   6.776 -0.0533  0.6724 -1.0912
  905MOL0     H19422   6.043   3.100   6.691 -1.4257  0.2621 -0.0712
  905MOL0     H19423   6.049   2.871   6.703 -1.3724  2.9223 -0.4294
  905MOL0     H19424   6.569   2.489   6.851 -1.1431  1.0076 -2.8139
  905MOL0     H19425   6.598   2.273   6.861  0.5753  2.3776 -2.8104
  905MOL0     H19426   6.537   2.073   7.021 -2.3287  1.1506 -1.0508
  905MOL0     H19427   6.603   2.047   6.860 -0.0077  2.8838 -0.1239
  905MOL0     H19428   6.615   1.851   6.992  1.0490  1.7406 -1.0692
  905MOL0     H19429   6.516   1.827   6.846 -0.0312  0.4026 -0.6705
  905MOL0     H19430   6.305   1.850   6.990  0.0923  0.9602  0.8970
  905MOL0     H19431   6.414   1.901   7.125  1.9827  1.8119 -1.5434
  905MOL0     H19432   6.341   1.700   7.179 -1.1647 -2.1385 -0.1069
  905MOL0     H19433   6.370   1.616   7.022 -0.9119 -0.6779  0.6553
  905MOL0     H19434   6.606   1.629   7.067 -0.9362  0.8050 -0.8062
  905MOL0     H19435   6.511   1.548   7.197 -1.5901 -1.3805 -1.1565
  905MOL0     H19436   6.529   1.744   7.327 -1.5561  1.5044 -1.3451
  905MOL0     H19437   6.621   1.833   7.206 -0.6061  0.8302  4.0422
  905MOL0     H19438   6.745   1.723   7.415  4.2276 -0.2591 -0.6786
  905MOL0     H19439   6.731   1.565   7.336  1.2598 -0.2106  3.0324
  905MOL0     H19440   6.934   1.642   7.322 -2.4878 -1.3638  2.5912
  905MOL0     H19441   6.895   1.806   7.281  1.5735 -0.2859  1.5150
  905MOL0     H19442   6.168   2.197   6.910  1.4079 -1.5952  3.6160
  905MOL0     H19443   6.134   2.425   6.908 -0.7070 -0.4929 -1.7329
  905MOL0     H19444   6.353   2.863   7.002  0.8889  0.9507  0.2493
  905MOL0     H19445   6.331   3.106   7.018 -0.8348 -0.3689  1.9311
  905MOL0     H19446   5.193   4.609   7.156  1.7066 -0.1233 -1.2294
  905MOL0     H19447   5.052   4.708   6.952 -1.5361 -0.7550 -0.3509
  905MOL0     H19448   4.902   4.631   6.507 -0.8236 -0.0801 -1.0724
  905MOL0     H19449   4.824   4.773   6.346  1.0809 -3.3642  0.6380
  905MOL0     H19450   4.654   4.848   6.205 -2.9807 -0.1663 -1.7780
  905MOL0     H19451   4.713   5.019   6.230 -0.3516  0.6519  0.5573
  905MOL0     H19452   4.569   5.010   6.037  1.6918 -1.9206  0.4078
  905MOL0     H19453   4.442   4.935   6.130 -1.2002  1.7335  0.0680
  905MOL0     H19454   4.550   5.209   6.218 -0.6650 -0.4193  4.0535
  905MOL0     H19455   4.417   5.120   6.278  0.7056 -1.7230  0.9620
  905MOL0     H19456   4.293   5.138   6.073  0.8743 -1.4118  2.8566
  905MOL0     H19457   4.343   5.302   6.112 -0.2545  0.7870 -1.6376
  905MOL0     H19458   4.528   5.202   5.732 -0.8110  2.1699 -0.7837
  905MOL0     H19459   4.491   4.906   6.603 -1.4936 -3.9115 -0.0776
  905MOL0     H19460   4.597   4.796   6.792  0.2094 -1.9171 -1.0481
  906MOL0     O19461   5.236   4.513   6.662  0.4566 -0.4396 -1.1882
  906MOL0     C19462   5.253   4.396   6.690  0.5012 -0.1427 -0.3521
  906MOL0     O19463   5.354   4.347   6.764  0.2845 -0.3700  0.3244
  906MOL0     C19464   5.456   4.418   6.809  1.5552 -1.5320  1.5306
  906MOL0     C19465   5.449   4.534   6.897  0.0274 -0.2182  1.2083
  906MOL0     C19466   5.559   4.587   6.963  0.5996  0.7502  0.0452
  906MOL0     C19467   5.685   4.528   6.944  0.0459  0.5582  0.0049
  906MOL0     O19468   5.803   4.575   6.990 -0.1708  0.2923 -0.2113
  906MOL0     C19469   5.802   4.676   7.089 -0.0032 -0.4703  0.4538
  906MOL0     C19470   5.896   4.629   7.213  0.3776 -0.4329 -0.2116
  906MOL0     C19471   6.024   4.548   7.169 -0.1743  0.0331  0.0267
  906MOL0     C19472   6.133   4.620   7.090  0.4860 -0.5004  0.0880
  906MOL0     C19473   6.127   4.627   6.939 -0.3778 -0.5368 -0.2620
  906MOL0     C19474   6.250   4.688   6.876 -0.3013 -0.0188  0.3800
  906MOL0     C19475   6.251   4.642   6.723  0.5601 -0.0857 -0.4219
  906MOL0     C19476   6.150   4.709   6.630 -0.5640 -0.2286  0.7628
  906MOL0     N19477   6.045   4.622   6.582  0.4595  0.0951  0.1895
  906MOL0     C19478   5.906   4.630   6.614 -0.6315  0.1110 -0.1004
  906MOL0     C19479   5.861   4.528   6.536  0.2124  0.2603  0.1702
  906MOL0     C19480   5.729   4.483   6.498  0.0017  0.4871  0.1422
  906MOL0     C19481   5.673   4.547   6.362 -0.1504  0.8920  0.9589
  906MOL0     C19482   5.578   4.660   6.381  0.5270 -1.0440  0.8454
  906MOL0     C19483   5.535   4.721   6.244 -0.8543 -0.1662  0.4743
  906MOL0     O19484   5.502   4.622   6.151 -0.3806  0.7170  0.0354
  906MOL0     C19485   5.430   4.657   6.039 -0.3300  0.8939 -0.0269
  906MOL0     C19486   5.396   4.787   6.001 -0.0588 -0.0445 -0.4623
  906MOL0     C19487   5.349   4.821   5.877  0.7561  0.1819 -0.2549
  906MOL0     C19488   5.313   4.721   5.787  0.6827  0.7377 -0.5898
  906MOL0     C19489   5.249   4.746   5.654 -0.1185  0.2192  0.5236
  906MOL0     O19490   5.211   4.642   5.568  0.0689 -0.4484  0.2047
  906MOL0     C19491   5.154   4.684   5.445 -0.2140  0.7071  1.4351
  906MOL0     C19492   5.016   4.710   5.433  0.2100 -0.4540  1.1397
  906MOL0     C19493   4.966   4.747   5.306 -0.7366 -0.9452  0.3578
  906MOL0     C19494   5.050   4.770   5.190 -0.9771 -0.1095 -1.2042
  906MOL0     O19495   5.005   4.824   5.072  0.5674 -0.5625 -0.9390
  906MOL0     C19496   4.861   4.857   5.059 -0.0892 -0.2373 -0.1827
  906MOL0     C19497   4.838   4.929   4.927  1.2419  0.1695 -0.0820
  906MOL0     C19498   4.809   4.822   4.823  0.7070  1.0860  0.5154
  906MOL0     C19499   4.774   4.875   4.684  0.6215  0.0371 -0.0534
  906MOL0     C19500   4.662   4.974   4.684  1.2622 -0.4947 -0.9214
  906MOL0     C19501   4.592   4.992   4.553 -0.3707  0.0796  0.0807
  906MOL0     C19502   4.492   5.110   4.557 -0.1725  0.4353 -0.3412
  906MOL0     C19503   4.423   5.129   4.427 -0.2827 -0.1598  0.3818
  906MOL0    Cl19504   4.344   4.998   4.357 -0.2374 -0.2294  0.3708
  906MOL0     C19505   5.187   4.726   5.202  0.2482 -0.9569  0.3456
  906MOL0     C19506   5.228   4.684   5.327 -0.6005 -0.4176  0.2154
  906MOL0     O19507   5.219   4.866   5.640  0.0347 -0.2268  1.1658
  906MOL0     C19508   5.343   4.587   5.818 -0.2059  0.3705  0.7246
  906MOL0     C19509   5.411   4.553   5.944 -0.5654  0.3237 -0.3977
  906MOL0     N19510   5.968   4.449   6.488  0.1201 -1.2093  0.6286
  906MOL0     N19511   6.080   4.510   6.510  0.6342  0.0548  0.6951
  906MOL0     C19512   5.693   4.408   6.866 -0.3091 -0.0946  0.1328
  906MOL0     C19513   5.582   4.367   6.791  0.5660  0.7861 -0.5902
  906MOL0     C19514   5.153   4.296   6.633  0.2326  0.2346 -0.1765
  906MOL0     C19515   5.170   4.156   6.652  0.3771  0.2145 -0.3422
  906MOL0     C19516   5.072   4.072   6.599 -0.1133  0.8553 -0.1133
  906MOL0     C19517   4.964   4.127   6.533  0.5042  0.0143  0.0730
  906MOL0     O19518   4.875   4.035   6.471  0.0809 -0.1539 -0.6407
  906MOL0     C19519   4.750   4.075   6.401  0.6241  0.0111  0.5932
  906MOL0     C19520   4.689   3.945   6.351  0.3837  0.3052  0.2420
  906MOL0     C19521   4.642   3.863   6.469 -0.1303  0.0858  0.6685
  906MOL0     C19522   4.659   3.712   6.456 -0.1778  0.0398 -0.0973
  906MOL0     C19523   4.587   3.660   6.345 -1.2523  0.2119 -0.1516
  906MOL0     C19524   4.544   3.628   6.238  0.6234  0.3269 -0.1656
  906MOL0     C19525   4.939   4.266   6.520 -0.6228  0.4245  0.2846
  906MOL0     C19526   5.042   4.348   6.565  1.5544 -0.2565  0.9092
  906MOL0     H19527   5.355   4.586   6.913  0.9892  1.0560  3.1860
  906MOL0     H19528   5.549   4.681   7.017  2.1226  0.0930  1.5549
  906MOL0     H19529   5.711   4.705   7.141  1.9595  3.9571  1.8942
  906MOL0     H19530   5.830   4.771   7.043 -1.9417 -0.4807 -0.8583
  906MOL0     H19531   5.840   4.555   7.271 -1.6584 -0.2476 -1.7996
  906MOL0     H19532   5.912   4.709   7.285 -0.4122 -0.4297 -0.0240
  906MOL0     H19533   5.995   4.460   7.110 -0.1346  1.1071 -1.6844
  906MOL0     H19534   6.071   4.525   7.265  0.9844  1.0567 -0.2660
  906MOL0     H19535   6.145   4.715   7.143  1.0761 -0.7438  0.3959
  906MOL0     H19536   6.227   4.573   7.117  0.1501 -1.7010 -0.7815
  906MOL0     H19537   6.042   4.695   6.924 -0.4639 -0.8890 -1.4741
  906MOL0     H19538   6.107   4.526   6.901 -0.5961 -0.8555  0.6870
  906MOL0     H19539   6.342   4.665   6.932 -0.3128  4.4699  2.6752
  906MOL0     H19540   6.249   4.796   6.888 -1.1917 -0.0596  0.7250
  906MOL0     H19541   6.354   4.658   6.688  0.2189 -0.7827 -1.8212
  906MOL0     H19542   6.232   4.534   6.716  1.1551 -0.1255 -1.6423
  906MOL0     H19543   6.212   4.739   6.544  0.6187  3.5665  2.6840
  906MOL0     H19544   6.117   4.806   6.668  3.4516  1.3668  0.7519
  906MOL0     H19545   5.847   4.708   6.661  1.1325 -0.4046  3.2566
  906MOL0     H19546   5.651   4.495   6.575 -0.6057  1.2909 -0.5813
  906MOL0     H19547   5.719   4.375   6.481  0.8581  0.4483 -0.1522
  906MOL0     H19548   5.616   4.470   6.309  1.9668  0.2131 -0.4456
  906MOL0     H19549   5.752   4.569   6.289  0.3501 -1.3172  0.7724
  906MOL0     H19550   5.487   4.625   6.431 -1.0744  1.3422 -0.1463
  906MOL0     H19551   5.610   4.737   6.452 -1.9048  1.5496 -0.6452
  906MOL0     H19552   5.608   4.781   6.188  0.7653 -1.6237  0.9446
  906MOL0     H19553   5.450   4.787   6.260  0.4388  1.1946  2.0826
  906MOL0     H19554   5.415   4.868   6.071  2.9213  0.9998 -2.2789
  906MOL0     H19555   5.316   4.921   5.851 -2.5222 -1.2101 -2.2086
  906MOL0     H19556   4.951   4.689   5.517 -1.7997  0.8041 -0.0261
  906MOL0     H19557   4.859   4.764   5.301 -0.6192  0.1843  1.4194
  906MOL0     H19558   4.832   4.932   5.133 -1.3462  2.4950 -3.2411
  906MOL0     H19559   4.810   4.762   5.074 -0.5669 -0.4751 -2.7937
  906MOL0     H19560   4.921   4.994   4.897  1.0252 -0.8252 -3.1155
  906MOL0     H19561   4.753   4.998   4.933  0.7538 -0.3605 -0.8110
  906MOL0     H19562   4.718   4.767   4.848  1.5854  0.1587  1.8131
  906MOL0     H19563   4.893   4.752   4.819 -2.2040 -2.8565  2.0318
  906MOL0     H19564   4.855   4.926   4.632  0.5145 -2.4862 -2.9763
  906MOL0     H19565   4.738   4.795   4.618 -1.5917  3.6202 -3.6343
  906MOL0     H19566   4.691   5.076   4.711  1.8378 -0.8804 -0.0610
  906MOL0     H19567   4.581   4.942   4.749 -0.1772 -0.0252 -2.4212
  906MOL0     H19568   4.546   4.896   4.527  0.1725  0.0391 -0.7755
  906MOL0     H19569   4.668   5.026   4.481 -0.5893  0.5229  0.0563
  906MOL0     H19570   4.418   5.081   4.632  0.2876 -0.7781 -0.3340
  906MOL0     H19571   4.543   5.204   4.580  3.8195 -1.3956 -0.8050
  906MOL0     H19572   4.496   5.165   4.354 -0.5623 -2.2065 -0.9838
  906MOL0     H19573   4.347   5.204   4.451 -3.4200 -2.7081 -0.8358
  906MOL0     H19574   5.247   4.742   5.113 -0.9917 -1.8637 -0.7084
  906MOL0     H19575   5.330   4.652   5.344  0.2374  0.5777 -2.4131
  906MOL0     H19576   5.306   4.505   5.757  0.3511  0.4793  0.2347
  906MOL0     H19577   5.426   4.450   5.976  0.5474  0.3460 -0.7894
  906MOL0     H19578   5.787   4.355   6.871 -1.7159 -2.8943 -0.6180
  906MOL0     H19579   5.586   4.268   6.748 -3.4290  0.9863 -1.8734
  906MOL0     H19580   5.258   4.117   6.702  0.8088  1.7305  0.1568
  906MOL0     H19581   5.074   3.964   6.606 -0.5103  0.8681  0.2896
  906MOL0     H19582   4.783   4.144   6.323  2.3551 -2.4359 -0.9950
  906MOL0     H19583   4.681   4.128   6.467 -0.6993 -2.5026  1.3676
  906MOL0     H19584   4.615   3.966   6.274 -1.1373  1.1011  1.8491
  906MOL0     H19585   4.770   3.883   6.311 -0.2402 -0.2057 -0.2588
  906MOL0     H19586   4.534   3.881   6.478  0.2382  2.8837  0.2602
  906MOL0     H19587   4.686   3.898   6.563  0.6632  0.5351  0.1376
  906MOL0     H19588   4.765   3.689   6.441  0.5765  3.4935 -0.9939
  906MOL0     H19589   4.631   3.663   6.550 -1.0559 -0.1811 -0.4666
  906MOL0     H19590   4.505   3.620   6.138  0.0275 -2.8068  0.2212
  906MOL0     H19591   4.846   4.311   6.486 -0.4045 -0.2851 -1.3517
  906MOL0     H19592   5.023   4.454   6.555  0.3859 -0.5688 -0.6161
  907MOL0     O19593   9.571   2.854   3.176  0.2069  0.6891  0.7035
  907MOL0     C19594   9.594   2.882   3.298  0.2939 -0.6445  0.0759
  907MOL0     O19595   9.655   2.799   3.390  0.8678  0.4193 -0.1237
  907MOL0     C19596   9.687   2.667   3.357 -0.3025 -0.4447  0.6088
  907MOL0     C19597   9.791   2.622   3.269  0.3071  0.3229  0.1454
  907MOL0     C19598   9.816   2.490   3.258 -0.0844 -0.5795 -0.5857
  907MOL0     C19599   9.754   2.393   3.328  0.0435 -0.4965  0.1861
  907MOL0     O19600   9.772   2.261   3.322  0.0039 -0.4906  0.5739
  907MOL0     C19601   9.906   2.215   3.283  0.2891 -0.2472  0.2800
  907MOL0     C19602   9.925   2.065   3.333 -0.5701  0.3292  0.0706
  907MOL0     C19603  10.073   2.012   3.296 -0.7601  0.1690  0.4071
  907MOL0     C19604  10.071   1.862   3.312  0.3757  0.1025 -0.2313
  907MOL0     C19605  10.222   1.816   3.323 -0.3354  0.5599  0.2093
  907MOL0     C19606  10.296   1.865   3.448  0.4564 -0.2761  0.7741
  907MOL0     C19607  10.421   1.783   3.489  0.9192 -0.1116  0.2356
  907MOL0     C19608  10.379   1.651   3.542  0.3965 -0.2699 -0.0553
  907MOL0     N19609  10.483   1.590   3.617 -0.1481 -0.0650 -0.2315
  907MOL0     C19610  10.528   1.458   3.605  0.0523 -0.7754 -0.0101
  907MOL0     C19611  10.620   1.447   3.707  0.1170  0.0065 -0.4283
  907MOL0     C19612  10.696   1.318   3.733  0.3285  0.4111  0.1357
  907MOL0     C19613  10.845   1.334   3.731  0.0888 -0.3799  0.1961
  907MOL0     C19614  10.936   1.242   3.801  0.5687 -0.4396  0.4578
  907MOL0     C19615  10.963   1.100   3.742  0.0517 -0.2148 -0.1432
  907MOL0     O19616  10.848   1.016   3.723 -0.5400 -0.8916  0.5087
  907MOL0     C19617  10.842   0.963   3.595 -0.0325 -0.4616 -0.0001
  907MOL0     C19618  10.878   0.827   3.574  0.3308  0.1952  0.4055
  907MOL0     C19619  10.862   0.766   3.451 -0.6579  0.5643  0.0324
  907MOL0     C19620  10.824   0.851   3.340  0.5944  0.4566 -0.0380
  907MOL0     C19621  10.845   0.809   3.200  0.2209 -0.4905 -0.2657
  907MOL0     O19622  10.932   0.704   3.178 -0.2285 -0.2980 -0.8104
  907MOL0     C19623  10.919   0.643   3.062 -1.2259  0.1155 -0.6327
  907MOL0     C19624  10.795   0.622   2.999 -0.0027 -0.3640  0.1809
  907MOL0     C19625  10.802   0.538   2.885  0.2330 -0.3872  0.9781
  907MOL0     C19626  10.909   0.469   2.833  0.2039 -0.4711  0.1875
  907MOL0     O19627  10.921   0.387   2.716  0.4380 -0.3510  0.6417
  907MOL0     C19628  10.807   0.375   2.629  0.7732  0.5362  0.3687
  907MOL0     C19629  10.841   0.337   2.484  0.0877  0.5688 -0.8867
  907MOL0     C19630  10.889   0.188   2.471 -0.0107 -0.0747  0.0445
  907MOL0     C19631  10.906   0.132   2.331  0.2650 -0.0304  0.5177
  907MOL0     C19632  10.767   0.150   2.249  0.2294 -0.0635  0.8856
  907MOL0     C19633  10.746   0.048   2.135  0.3203  0.3801  0.2942
  907MOL0     C19634  10.841   0.051   2.012 -0.1825  0.8316 -0.3406
  907MOL0     C19635  10.843   0.189   1.951 -1.0358 -1.1263  0.5236
  907MOL0    Cl19636  10.924   0.199   1.788 -0.2214 -0.1248 -0.0467
  907MOL0     C19637  11.032   0.493   2.905  0.5834 -0.1481 -1.0880
  907MOL0     C19638  11.037   0.582   3.017  0.2582 -0.8331 -0.6132
  907MOL0     O19639  10.786   0.877   3.112  0.3265  0.4366 -0.3923
  907MOL0     C19640  10.795   0.989   3.356 -0.0212  0.1235  0.3504
  907MOL0     C19641  10.797   1.046   3.491  0.0834  1.0699 -0.2875
  907MOL0     N19642  10.621   1.565   3.777 -0.0110  0.0610 -0.3238
  907MOL0     N19643  10.552   1.656   3.718 -0.2572 -0.3448 -0.6351
  907MOL0     C19644   9.635   2.435   3.401 -0.1398 -0.8124  0.4663
  907MOL0     C19645   9.607   2.572   3.417 -0.1764 -0.8033  0.4719
  907MOL0     C19646   9.561   3.021   3.343 -0.4366 -0.6184 -0.3377
  907MOL0     C19647   9.570   3.046   3.481 -0.6297 -0.6407  0.5255
  907MOL0     C19648   9.544   3.183   3.523  0.3040  0.6587  0.0780
  907MOL0     C19649   9.497   3.282   3.440  0.0709  0.3258 -0.5072
  907MOL0     O19650   9.467   3.399   3.502  0.4568  0.0598 -0.2794
  907MOL0     C19651   9.393   3.493   3.430 -0.5183  0.0971  0.1332
  907MOL0     C19652   9.480   3.589   3.338 -0.1189 -0.2729  0.5799
  907MOL0     C19653   9.398   3.675   3.237 -0.3451  0.3654  0.0284
  907MOL0     C19654   9.424   3.613   3.094  0.2311  1.6865 -0.0530
  907MOL0     C19655   9.554   3.655   3.042  0.1899  1.3894  0.3807
  907MOL0     C19656   9.665   3.679   2.989 -0.2227 -0.0261 -0.0896
  907MOL0     C19657   9.486   3.249   3.309 -0.9486 -1.0010 -0.1041
  907MOL0     C19658   9.519   3.121   3.255  0.5017  0.2010  0.5517
  907MOL0     H19659   9.846   2.678   3.193 -0.7345 -1.7462 -2.2931
  907MOL0     H19660   9.889   2.451   3.188 -0.4855  1.9291 -2.5533
  907MOL0     H19661   9.983   2.284   3.317 -2.3381  1.9741  2.2397
  907MOL0     H19662   9.907   2.228   3.174 -0.0827  2.2260  0.4969
  907MOL0     H19663   9.850   2.001   3.286 -0.0055  1.5636 -2.7354
  907MOL0     H19664   9.907   2.074   3.440 -3.4335 -2.3335 -0.0413
  907MOL0     H19665  10.146   2.060   3.362  0.8360  0.4209 -1.4571
  907MOL0     H19666  10.090   2.041   3.192  0.6934 -1.0816  0.2699
  907MOL0     H19667  10.011   1.826   3.396 -0.4752  1.0082 -0.4179
  907MOL0     H19668  10.034   1.824   3.216  0.9880 -1.3535  0.0939
  907MOL0     H19669  10.276   1.836   3.231  0.8476 -2.6612  0.0663
  907MOL0     H19670  10.215   1.707   3.335 -1.1883  0.4229 -1.4172
  907MOL0     H19671  10.230   1.852   3.535 -1.1539 -0.9941 -0.4935
  907MOL0     H19672  10.326   1.970   3.444 -2.9273  0.7779 -0.3921
  907MOL0     H19673  10.474   1.754   3.398  1.8222 -0.0655  0.7274
  907MOL0     H19674  10.492   1.841   3.550  1.4221  0.9808 -1.3228
  907MOL0     H19675  10.339   1.605   3.451 -0.8537  2.3189 -0.8911
  907MOL0     H19676  10.295   1.680   3.606 -0.7865  0.7063 -1.9629
  907MOL0     H19677  10.497   1.384   3.532  1.7823 -0.9635 -0.6075
  907MOL0     H19678  10.658   1.255   3.652  2.0916 -0.5097 -0.0249
  907MOL0     H19679  10.654   1.281   3.828 -0.4023 -1.6137 -0.9207
  907MOL0     H19680  10.854   1.436   3.771 -3.4775  0.4769 -0.7703
  907MOL0     H19681  10.866   1.335   3.623 -2.7228  3.3429 -0.5484
  907MOL0     H19682  11.029   1.298   3.813 -0.8663  2.3042 -0.2687
  907MOL0     H19683  10.903   1.240   3.906  2.1521  1.4511  1.0656
  907MOL0     H19684  11.046   1.051   3.793  0.1945 -1.6927 -1.7158
  907MOL0     H19685  10.999   1.125   3.642  0.4135 -1.5314 -0.3618
  907MOL0     H19686  10.878   0.767   3.665 -6.9324  0.0856  0.9351
  907MOL0     H19687  10.897   0.663   3.451  1.1532  1.1521 -0.1692
  907MOL0     H19688  10.699   0.660   3.031 -1.2847 -0.3482 -3.3451
  907MOL0     H19689  10.711   0.503   2.838 -0.3116  2.2416 -0.0856
  907MOL0     H19690  10.762   0.474   2.619  4.2761  2.0947 -1.6205
  907MOL0     H19691  10.734   0.306   2.673 -0.2020  2.2564  1.5842
  907MOL0     H19692  10.915   0.410   2.450  0.2013  0.2896 -1.2323
  907MOL0     H19693  10.745   0.347   2.431 -0.9156 -0.9412  0.5421
  907MOL0     H19694  10.807   0.132   2.518  0.8008 -1.4184 -0.0984
  907MOL0     H19695  10.986   0.172   2.519  0.2948 -1.8043 -1.0634
  907MOL0     H19696  10.993   0.173   2.279  0.9882 -3.3313 -1.1478
  907MOL0     H19697  10.924   0.024   2.335  1.8005  0.1330 -0.9698
  907MOL0     H19698  10.754   0.256   2.225  2.3091  0.2874  1.1382
  907MOL0     H19699  10.692   0.121   2.323 -2.0199 -0.8807 -1.5750
  907MOL0     H19700  10.641   0.059   2.106  0.3844  2.0069  0.5732
  907MOL0     H19701  10.765  -0.046   2.187  0.7321 -0.3086 -1.0540
  907MOL0     H19702  10.935  -0.000   2.035 -1.0101 -0.3166  0.6260
  907MOL0     H19703  10.791  -0.005   1.932 -1.5908 -0.0848  1.1157
  907MOL0     H19704  10.907   0.245   2.020  0.1820 -1.1496 -0.5503
  907MOL0     H19705  10.739   0.220   1.942 -1.3013 -2.4603 -1.7681
  907MOL0     H19706  11.119   0.450   2.855  0.6854  0.1156 -1.1370
  907MOL0     H19707  11.133   0.605   3.061  0.0386 -1.4375  0.2021
  907MOL0     H19708  10.777   1.044   3.264  5.0234 -0.8967 -1.5267
  907MOL0     H19709  10.786   1.154   3.495 -0.9487  1.0170 -1.1441
  907MOL0     H19710   9.556   2.372   3.439 -2.9726  3.0958  1.7420
  907MOL0     H19711   9.519   2.613   3.467 -1.3324 -0.7146 -1.5545
  907MOL0     H19712   9.586   2.967   3.554 -1.9656 -1.0615  0.3889
  907MOL0     H19713   9.554   3.206   3.628  2.3672  1.0667 -0.1672
  907MOL0     H19714   9.337   3.556   3.500 -0.2322  0.6949 -0.1633
  907MOL0     H19715   9.311   3.448   3.373  0.5068 -1.9670  0.2038
  907MOL0     H19716   9.523   3.674   3.391 -0.7621  1.2545 -1.2246
  907MOL0     H19717   9.557   3.527   3.291  1.6456 -0.7396  3.8110
  907MOL0     H19718   9.429   3.779   3.233  0.2944  0.1730 -0.1738
  907MOL0     H19719   9.292   3.671   3.262 -1.5679 -4.8295 -4.0325
  907MOL0     H19720   9.410   3.505   3.099 -0.3293  1.8131  2.4837
  907MOL0     H19721   9.345   3.648   3.028 -0.9071 -1.6798 -0.6365
  907MOL0     H19722   9.759   3.718   2.953 -1.1030  0.3410 -2.1317
  907MOL0     H19723   9.462   3.316   3.227  0.4297 -2.9335 -2.2215
  907MOL0     H19724   9.519   3.096   3.149  0.9555 -2.0506  1.0204
  908MOL0     O19725   1.291   2.970  10.458  0.6287 -0.2280  0.4584
  908MOL0     C19726   1.315   3.081  10.509  0.4818  0.2215 -0.0542
  908MOL0     O19727   1.269   3.117  10.633  0.3954 -0.0024 -0.2532
  908MOL0     C19728   1.181   3.032  10.704  0.1605 -0.2843 -0.1108
  908MOL0     C19729   1.098   2.929  10.659  0.4841  0.0683  0.0553
  908MOL0     C19730   1.026   2.853  10.748  0.1222 -0.5598  0.0550
  908MOL0     C19731   1.024   2.882  10.879  0.2121  0.4190  0.3143
  908MOL0     O19732   0.951   2.803  10.960  0.2346 -0.2696 -0.0427
  908MOL0     C19733   0.820   2.737  10.928  0.2181  0.5277  0.1130
  908MOL0     C19734   0.749   2.690  11.055 -0.7499 -0.7868  0.3937
  908MOL0     C19735   0.842   2.575  11.120  0.2944 -0.0576  0.6875
  908MOL0     C19736   0.786   2.503  11.247 -0.0453  0.3081 -0.8583
  908MOL0     C19737   0.896   2.455  11.336  0.3449  0.0016  0.1709
  908MOL0     C19738   0.987   2.348  11.275  0.6587 -0.3509  0.7372
  908MOL0     C19739   0.942   2.204  11.317 -1.2267  0.6795 -0.2345
  908MOL0     C19740   0.986   2.088  11.225 -0.5954  0.1095 -0.2229
  908MOL0     N19741   1.134   2.077  11.201  0.4498 -0.2584  0.1021
  908MOL0     C19742   1.234   2.079  11.296 -0.4835  0.2357 -0.0876
  908MOL0     C19743   1.349   2.054  11.215  1.0272 -1.0546 -0.3508
  908MOL0     C19744   1.490   2.065  11.258  0.8997  0.4098  0.2634
  908MOL0     C19745   1.552   2.183  11.167 -0.6267  0.4519  0.8162
  908MOL0     C19746   1.672   2.242  11.250  0.1263  0.0320 -0.0351
  908MOL0     C19747   1.788   2.148  11.262  0.0547  0.5311  1.3400
  908MOL0     O19748   1.848   2.104  11.134 -0.3745  0.0525  0.4606
  908MOL0     C19749   1.958   2.182  11.093 -0.0789 -0.1237 -0.7590
  908MOL0     C19750   2.051   2.105  11.013 -0.9466  0.5842 -0.8609
  908MOL0     C19751   2.171   2.158  10.967  0.4132 -0.4055 -0.9764
  908MOL0     C19752   2.192   2.290  10.991  0.2438  0.0337  0.0413
  908MOL0     C19753   2.317   2.349  10.941 -1.7071 -0.5691 -0.6381
  908MOL0     O19754   2.389   2.264  10.861 -0.3472  0.2414 -0.4182
  908MOL0     C19755   2.505   2.306  10.806 -0.9073 -0.3082  0.0442
  908MOL0     C19756   2.617   2.330  10.886  0.4979  1.6517  0.6183
  908MOL0     C19757   2.734   2.371  10.831  0.5049 -0.5424  0.8579
  908MOL0     C19758   2.743   2.397  10.688 -0.4211  0.1740 -0.7269
  908MOL0     O19759   2.876   2.425  10.648  0.5132 -0.1498 -0.3042
  908MOL0     C19760   2.911   2.388  10.518  0.7002  0.5340 -0.0309
  908MOL0     C19761   2.931   2.233  10.504  0.1350 -0.8749  0.3596
  908MOL0     C19762   3.055   2.174  10.576 -0.1876  0.3531  0.3001
  908MOL0     C19763   3.032   2.026  10.599 -0.1667 -0.4247  0.3731
  908MOL0     C19764   3.147   1.958  10.677 -0.1566  0.1782 -0.5483
  908MOL0     C19765   3.273   1.910  10.591 -0.3425  0.9315  0.1572
  908MOL0     C19766   3.348   1.799  10.680  0.5615 -1.8956  0.4445
  908MOL0     C19767   3.404   1.860  10.803  0.0553  0.0075 -1.0518
  908MOL0    Cl19768   3.543   1.950  10.768 -0.1887  0.0787 -0.4147
  908MOL0     C19769   2.636   2.347  10.612 -1.1251 -0.1175  0.1468
  908MOL0     C19770   2.516   2.316  10.674 -0.0222  0.8441 -1.0383
  908MOL0     O19771   2.348   2.467  10.958 -0.5483  0.8740 -0.6175
  908MOL0     C19772   2.102   2.368  11.068 -0.1772  0.2629  0.0819
  908MOL0     C19773   1.987   2.316  11.121  1.1371 -0.1847  0.8124
  908MOL0     N19774   1.311   2.040  11.080  0.2320  0.4124  0.1065
  908MOL0     N19775   1.182   2.060  11.073  0.5523  0.1706 -0.1833
  908MOL0     C19776   1.119   2.971  10.934  0.3610 -0.1953 -0.1224
  908MOL0     C19777   1.192   3.044  10.847  0.6733 -0.3145  0.0307
  908MOL0     C19778   1.359   3.194  10.423 -0.4566  0.1318  0.9191
  908MOL0     C19779   1.410   3.168  10.292  0.6280 -0.2288 -0.9564
  908MOL0     C19780   1.455   3.261  10.202 -0.1265  0.0859  0.3947
  908MOL0     C19781   1.454   3.393  10.242  0.5326 -0.9148  0.5312
  908MOL0     O19782   1.523   3.498  10.183 -0.6639 -0.1796 -0.1919
  908MOL0     C19783   1.564   3.496  10.053  0.5812  1.3114  0.3610
  908MOL0     C19784   1.481   3.587   9.957 -0.7673  0.0290 -0.2257
  908MOL0     C19785   1.487   3.734   9.995  0.6376 -0.0614 -0.2192
  908MOL0     C19786   1.398   3.807   9.904 -0.7683 -0.9840 -0.0483
  908MOL0     C19787   1.432   3.941   9.903 -0.2134 -0.7275 -0.4798
  908MOL0     C19788   1.482   4.050   9.917  0.5367 -0.2702  0.3481
  908MOL0     C19789   1.400   3.425  10.367 -0.3043  0.8562 -0.4242
  908MOL0     C19790   1.359   3.323  10.459  0.7546 -0.1675  0.3185
  908MOL0     H19791   1.081   2.905  10.554  2.0192 -4.3827  0.6142
  908MOL0     H19792   0.974   2.769  10.703 -1.1209 -1.0701  2.2717
  908MOL0     H19793   0.827   2.653  10.857 -3.8865  0.5899 -0.6000
  908MOL0     H19794   0.766   2.822  10.887 -2.4377 -0.2967  1.6489
  908MOL0     H19795   0.648   2.665  11.022 -1.3881 -0.2344  1.8266
  908MOL0     H19796   0.740   2.779  11.119  2.3695 -0.4857  0.5871
  908MOL0     H19797   0.932   2.627  11.154 -1.1182  0.7379  3.4876
  908MOL0     H19798   0.840   2.498  11.042  0.0177  2.5263 -2.0584
  908MOL0     H19799   0.726   2.576  11.303 -1.7419 -0.8599 -1.0881
  908MOL0     H19800   0.711   2.429  11.220  0.3303  0.3737 -2.1108
  908MOL0     H19801   0.841   2.412  11.421  0.0634 -1.9529 -0.9217
  908MOL0     H19802   0.961   2.536  11.369  1.5929 -1.6286  1.8956
  908MOL0     H19803   1.087   2.368  11.315  2.0882 -1.6383 -1.9351
  908MOL0     H19804   0.989   2.331  11.167 -1.4402 -2.2287  0.9281
  908MOL0     H19805   0.962   2.190  11.424 -1.3172  3.9074  0.2994
  908MOL0     H19806   0.834   2.195  11.332 -1.1979  0.1492 -0.3038
  908MOL0     H19807   0.936   2.106  11.129 -0.9100  1.1355  0.1305
  908MOL0     H19808   0.935   1.998  11.262 -0.4073  0.1770  0.1998
  908MOL0     H19809   1.233   2.073  11.404 -4.1604  0.8564  0.0349
  908MOL0     H19810   1.544   1.970  11.248  1.1644  0.4596  1.1099
  908MOL0     H19811   1.490   2.086  11.366 -2.7430  1.7482  0.1340
  908MOL0     H19812   1.469   2.254  11.157 -0.8000  0.0062 -1.4867
  908MOL0     H19813   1.596   2.151  11.073 -0.2605  0.3500  1.0183
  908MOL0     H19814   1.704   2.330  11.195  2.3818 -0.1008  0.9699
  908MOL0     H19815   1.645   2.267  11.353 -1.9636 -0.7885 -0.3357
  908MOL0     H19816   1.747   2.058  11.308 -2.8308  0.0677 -1.7340
  908MOL0     H19817   1.863   2.194  11.328  0.8550 -0.9066  1.4818
  908MOL0     H19818   2.028   2.001  10.997  3.2029 -0.7699  0.5034
  908MOL0     H19819   2.228   2.086  10.910  0.6168  0.2504 -1.6195
  908MOL0     H19820   2.617   2.316  10.994 -0.9277  3.4084  0.9062
  908MOL0     H19821   2.817   2.397  10.895  0.3611  1.1080  0.4167
  908MOL0     H19822   3.005   2.443  10.508  1.3434  0.0434  2.5291
  908MOL0     H19823   2.834   2.419  10.447  0.7846 -0.2804 -0.4958
  908MOL0     H19824   2.936   2.215  10.396  0.4282 -0.1700  0.2475
  908MOL0     H19825   2.847   2.177  10.546 -1.4884  1.4564  0.4189
  908MOL0     H19826   3.073   2.216  10.676 -0.1687 -3.3258  2.0228
  908MOL0     H19827   3.149   2.188  10.521  0.8986  1.2316  2.2547
  908MOL0     H19828   2.946   2.019  10.667 -0.7054  3.5509  0.3427
  908MOL0     H19829   3.011   1.982  10.501 -0.0058  0.5069 -0.0946
  908MOL0     H19830   3.099   1.868  10.717 -3.7142  2.1746  0.0773
  908MOL0     H19831   3.173   2.031  10.755 -2.8698  0.8147 -0.1656
  908MOL0     H19832   3.336   1.999  10.578 -1.1911  1.7182  1.2760
  908MOL0     H19833   3.251   1.865  10.493 -1.9932  0.0043  0.9154
  908MOL0     H19834   3.275   1.725  10.714 -2.3878  0.5852 -0.0281
  908MOL0     H19835   3.416   1.740  10.618  0.6148 -0.9847 -0.3880
  908MOL0     H19836   3.448   1.788  10.872  1.0579  1.7921  0.2657
  908MOL0     H19837   3.331   1.924  10.853  0.2093 -1.5103  1.2339
  908MOL0     H19838   2.622   2.351  10.505 -0.3555  1.1481  0.0769
  908MOL0     H19839   2.430   2.289  10.613 -3.4731  1.2646  3.1412
  908MOL0     H19840   2.117   2.475  11.080 -3.9802  0.7689  1.6657
  908MOL0     H19841   1.913   2.377  11.172  2.2749  1.7190  0.2924
  908MOL0     H19842   1.130   3.006  11.036  0.1719  2.0997 -0.8448
  908MOL0     H19843   1.249   3.125  10.891  1.5154 -0.3134 -1.0075
  908MOL0     H19844   1.417   3.069  10.248  1.2440  0.8831 -3.5923
  908MOL0     H19845   1.488   3.228  10.104  2.0892 -0.8627  1.4055
  908MOL0     H19846   1.541   3.396  10.016  3.0158  0.3042  1.3581
  908MOL0     H19847   1.670   3.520  10.038  1.4866 -3.4446 -3.2144
  908MOL0     H19848   1.518   3.576   9.855  1.1500 -0.6943  0.5073
  908MOL0     H19849   1.378   3.551   9.967 -0.9709  0.3426 -1.1431
  908MOL0     H19850   1.589   3.772   9.990 -0.1766  2.3697  0.4032
  908MOL0     H19851   1.437   3.741  10.092  0.0717  1.2637 -0.5793
  908MOL0     H19852   1.425   3.775   9.802  1.9622  1.7140 -0.3298
  908MOL0     H19853   1.295   3.792   9.937 -1.0991 -0.3349 -0.7581
  908MOL0     H19854   1.539   4.138   9.939  1.4070  0.2785 -3.3078
  908MOL0     H19855   1.401   3.528  10.401 -1.0153  0.8140 -0.2688
  908MOL0     H19856   1.319   3.346  10.557  0.6822 -0.3150  0.3228
  909MOL0     O19857   2.731   4.352   7.529 -0.0747 -0.4546  0.4489
  909MOL0     C19858   2.815   4.299   7.458 -0.0967  0.3010 -0.9562
  909MOL0     O19859   2.796   4.226   7.352 -0.0070 -0.5346  0.0465
  909MOL0     C19860   2.673   4.200   7.299 -1.7975 -0.3389 -0.4274
  909MOL0     C19861   2.652   4.192   7.158  0.0463  0.7587 -0.5414
  909MOL0     C19862   2.529   4.132   7.106 -0.1956 -0.2874 -0.1754
  909MOL0     C19863   2.437   4.079   7.197 -0.2305 -0.1179  0.6329
  909MOL0     O19864   2.321   4.018   7.154  0.3005  0.3030 -0.5712
  909MOL0     C19865   2.278   4.011   7.018  0.3107  0.2636  0.6772
  909MOL0     C19866   2.189   3.888   7.024  0.1842  0.0781 -0.6185
  909MOL0     C19867   2.104   3.876   6.891  0.8054  1.5270  0.1573
  909MOL0     C19868   2.072   3.732   6.845 -0.5108 -0.3673  0.1896
  909MOL0     C19869   2.006   3.642   6.946  0.6000 -0.1797 -0.3684
  909MOL0     C19870   1.897   3.535   6.900  0.3763  0.4003  1.0384
  909MOL0     C19871   1.812   3.460   7.005 -0.1075 -0.4119 -0.1201
  909MOL0     C19872   1.798   3.306   7.000  0.2583 -0.7865 -0.4366
  909MOL0     N19873   1.749   3.259   6.874 -0.9847 -0.3964 -0.3459
  909MOL0     C19874   1.625   3.264   6.832  0.9056 -1.0429  0.9660
  909MOL0     C19875   1.618   3.193   6.722 -0.5551  0.1178 -0.8632
  909MOL0     C19876   1.499   3.176   6.634  0.0453  0.1493  0.2627
  909MOL0     C19877   1.402   3.063   6.679 -0.2530  0.7574  0.6942
  909MOL0     C19878   1.478   2.931   6.704 -0.1717 -0.6514 -0.1386
  909MOL0     C19879   1.383   2.799   6.701  0.6416 -0.6167 -0.2950
  909MOL0     O19880   1.457   2.695   6.630 -0.1896 -0.0762  0.3316
  909MOL0     C19881   1.413   2.561   6.663  0.2061 -0.1260  0.4881
  909MOL0     C19882   1.430   2.520   6.794  0.8750 -0.6583  0.7988
  909MOL0     C19883   1.412   2.389   6.837  0.3268 -0.0225  0.4199
  909MOL0     C19884   1.381   2.290   6.737  1.0366  0.1945  0.0284
  909MOL0     C19885   1.338   2.153   6.773 -0.2421 -0.0875 -0.7468
  909MOL0     O19886   1.364   2.119   6.908 -0.1619  0.1086  0.0264
  909MOL0     C19887   1.326   2.006   6.974  0.6250 -0.1433 -0.8014
  909MOL0     C19888   1.392   1.956   7.079 -0.4746 -0.1828 -0.5102
  909MOL0     C19889   1.350   1.842   7.155 -1.4708  0.3769  0.9472
  909MOL0     C19890   1.242   1.764   7.102 -0.3230 -0.0691  0.5480
  909MOL0     O19891   1.200   1.644   7.138 -0.4224  0.7840  0.1549
  909MOL0     C19892   1.253   1.580   7.259 -0.0973  0.1888 -0.3027
  909MOL0     C19893   1.164   1.465   7.291  0.6108 -0.3139 -0.0574
  909MOL0     C19894   1.181   1.403   7.432  0.0468  1.0840  0.5628
  909MOL0     C19895   1.114   1.263   7.458  0.3197 -0.5986  0.2588
  909MOL0     C19896   1.213   1.158   7.487  0.0682 -0.0963  0.5509
  909MOL0     C19897   1.179   1.013   7.453  0.2976 -0.2636  0.3533
  909MOL0     C19898   1.296   0.919   7.487 -0.4197  0.1845  0.1061
  909MOL0     C19899   1.382   0.882   7.367 -0.0575 -0.1193 -0.1752
  909MOL0    Cl19900   1.503   0.751   7.421 -0.2838  0.2555  0.0584
  909MOL0     C19901   1.167   1.817   7.000  0.5020  0.1805  0.5898
  909MOL0     C19902   1.208   1.935   6.933  0.1432  0.6693  0.1604
  909MOL0     O19903   1.288   2.072   6.691  0.2073 -0.0485 -0.2214
  909MOL0     C19904   1.363   2.333   6.595  0.3919 -0.2584  1.1806
  909MOL0     C19905   1.384   2.462   6.567 -0.4127  0.0923 -0.8253
  909MOL0     N19906   1.739   3.138   6.699  0.3714 -0.6117  0.9316
  909MOL0     N19907   1.819   3.164   6.801 -0.6405  1.0146 -1.1138
  909MOL0     C19908   2.458   4.097   7.336  0.1657  0.3137 -0.0755
  909MOL0     C19909   2.573   4.160   7.388  0.1690  0.6857 -0.1462
  909MOL0     C19910   2.964   4.302   7.479  0.6073 -0.1013 -0.7116
  909MOL0     C19911   3.023   4.366   7.593  0.4341  0.1041  0.2318
  909MOL0     C19912   3.157   4.359   7.627 -0.4131  0.3794 -0.2858
  909MOL0     C19913   3.250   4.304   7.545  0.4966 -0.0937  0.0008
  909MOL0     O19914   3.385   4.293   7.573  0.3274 -0.8996  0.5994
  909MOL0     C19915   3.438   4.354   7.691  0.9325 -0.2331  0.4396
  909MOL0     C19916   3.593   4.367   7.693 -0.7970  0.3639 -0.4412
  909MOL0     C19917   3.643   4.368   7.546 -0.2672 -0.2169 -0.8830
  909MOL0     C19918   3.674   4.223   7.495 -0.2014  0.6285  0.3253
  909MOL0     C19919   3.666   4.210   7.346  0.3189 -0.6944  0.0003
  909MOL0     C19920   3.659   4.187   7.224  0.6246  0.7595  0.6588
  909MOL0     C19921   3.200   4.251   7.423  0.4569 -0.2935 -0.6774
  909MOL0     C19922   3.061   4.246   7.397  0.0894 -0.3632 -0.4530
  909MOL0     H19923   2.716   4.235   7.082 -1.0589  1.7213 -0.9544
  909MOL0     H19924   2.516   4.133   6.998 -1.8995  4.1074 -0.1183
  909MOL0     H19925   2.360   4.000   6.947 -1.1244 -1.1775 -0.8517
  909MOL0     H19926   2.221   4.096   6.980  0.2635  0.4127  1.0794
  909MOL0     H19927   2.125   3.889   7.112 -1.4356 -1.2778 -1.7082
  909MOL0     H19928   2.255   3.802   7.039 -0.2610 -0.1660 -0.0045
  909MOL0     H19929   2.145   3.931   6.806  0.6084  1.0199 -0.2692
  909MOL0     H19930   2.007   3.922   6.913  1.2002  2.2125  0.4860
  909MOL0     H19931   2.002   3.746   6.762 -0.4917  1.4289  0.4239
  909MOL0     H19932   2.162   3.684   6.805 -0.9976  0.3720 -1.9490
  909MOL0     H19933   1.956   3.702   7.023  0.8197  1.8230 -1.7167
  909MOL0     H19934   2.088   3.596   7.002 -1.5886 -1.1162  2.2779
  909MOL0     H19935   1.941   3.461   6.833 -2.9294 -0.6648 -0.1291
  909MOL0     H19936   1.826   3.591   6.838 -1.7178 -0.9052  2.1499
  909MOL0     H19937   1.851   3.482   7.105 -0.6853 -2.7796  0.7026
  909MOL0     H19938   1.709   3.498   7.008 -0.1388 -0.2636  4.5406
  909MOL0     H19939   1.732   3.286   7.084  1.7906  1.0817  1.3204
  909MOL0     H19940   1.904   3.277   7.008  0.3507 -0.8284 -1.6063
  909MOL0     H19941   1.542   3.321   6.873 -0.0032 -3.2794  2.4760
  909MOL0     H19942   1.523   3.163   6.528 -0.9473  1.7708 -0.1892
  909MOL0     H19943   1.454   3.275   6.632  0.5842  0.4039  0.4368
  909MOL0     H19944   1.324   3.053   6.603 -0.1947  1.0295  0.5959
  909MOL0     H19945   1.343   3.093   6.766  0.7512  0.8459  1.3603
  909MOL0     H19946   1.534   2.913   6.611 -1.8432  2.1251 -1.8304
  909MOL0     H19947   1.533   2.923   6.798 -0.8495  3.7538  0.8537
  909MOL0     H19948   1.290   2.813   6.646  1.8990 -2.8331 -3.2340
  909MOL0     H19949   1.350   2.778   6.804 -0.0012  2.3818  0.1966
  909MOL0     H19950   1.462   2.588   6.872  0.9904 -1.7122  1.7056
  909MOL0     H19951   1.401   2.355   6.940 -0.0506 -2.4780 -0.3531
  909MOL0     H19952   1.475   2.001   7.132  1.1118  0.3440 -3.2454
  909MOL0     H19953   1.420   1.801   7.227 -0.6400 -1.0676 -0.5875
  909MOL0     H19954   1.245   1.662   7.331 -1.7889  1.7805 -2.1800
  909MOL0     H19955   1.358   1.554   7.240 -0.5973 -0.8110 -1.8605
  909MOL0     H19956   1.180   1.388   7.215 -3.7671 -1.1301 -0.4306
  909MOL0     H19957   1.062   1.506   7.279  1.0035  1.4908  2.1146
  909MOL0     H19958   1.145   1.480   7.502 -3.3957  1.0692 -1.0052
  909MOL0     H19959   1.285   1.400   7.466 -0.5757  1.8053  2.7403
  909MOL0     H19960   1.055   1.264   7.549 -1.0831 -3.2843 -0.5272
  909MOL0     H19961   1.049   1.225   7.378  0.2024  0.6923 -0.2899
  909MOL0     H19962   1.244   1.157   7.592 -1.4088 -1.5977  1.0139
  909MOL0     H19963   1.299   1.169   7.421 -0.2858 -3.6733 -0.7238
  909MOL0     H19964   1.166   1.019   7.344  0.0297  3.0479  0.4760
  909MOL0     H19965   1.089   0.966   7.495 -0.1160 -1.1019 -1.3542
  909MOL0     H19966   1.347   0.948   7.580 -2.4667  0.6623  1.1374
  909MOL0     H19967   1.256   0.822   7.516 -3.0220  0.4357 -2.1944
  909MOL0     H19968   1.441   0.962   7.320 -1.1589  1.0864  0.4243
  909MOL0     H19969   1.321   0.834   7.290 -2.0691  0.3683  1.0482
  909MOL0     H19970   1.086   1.758   6.960  1.9633  0.0329 -2.4406
  909MOL0     H19971   1.151   1.943   6.842  1.2608  0.1400 -0.6080
  909MOL0     H19972   1.331   2.271   6.512  1.6305  0.0011  0.4814
  909MOL0     H19973   1.384   2.487   6.462 -1.9669 -2.1156 -1.4196
  909MOL0     H19974   2.392   4.052   7.409  1.9937 -0.4050  1.2328
  909MOL0     H19975   2.579   4.148   7.495 -0.5155  1.4314 -0.0165
  909MOL0     H19976   2.954   4.423   7.654  0.5223  1.1209 -0.5996
  909MOL0     H19977   3.179   4.417   7.716 -1.1342  1.1249 -0.5762
  909MOL0     H19978   3.406   4.284   7.769  0.7173 -1.5011 -0.7600
  909MOL0     H19979   3.391   4.452   7.696 -2.1763 -1.3744 -2.4757
  909MOL0     H19980   3.611   4.464   7.739 -2.3689  1.0085 -1.1196
  909MOL0     H19981   3.646   4.289   7.748  1.7124  1.9847 -0.3967
  909MOL0     H19982   3.736   4.423   7.525 -0.3510 -0.3782 -1.6882
  909MOL0     H19983   3.560   4.409   7.488 -0.0090 -1.2744 -2.0498
  909MOL0     H19984   3.776   4.191   7.519 -0.6977 -2.6703 -1.4206
  909MOL0     H19985   3.600   4.152   7.533 -0.4801  1.4509  1.3812
  909MOL0     H19986   3.644   4.154   7.123  2.8602  0.0904  0.4859
  909MOL0     H19987   3.266   4.194   7.358 -1.4567 -1.7842 -1.4086
  909MOL0     H19988   3.037   4.202   7.301  1.6216  0.6470 -1.3419
  910MOL0     O19989   9.722   4.149   7.175 -0.6417 -0.2970  0.2147
  910MOL0     C19990   9.749   4.119   7.056  0.1397 -0.7069  0.6550
  910MOL0     O19991   9.803   4.003   7.016 -0.8116 -0.6344  0.0232
  910MOL0     C19992   9.877   3.930   7.102  0.0291  0.2661 -0.7100
  910MOL0     C19993   9.869   3.790   7.100  0.7167 -0.3729  0.2556
  910MOL0     C19994   9.943   3.704   7.188 -0.0233  0.1955  0.1059
  910MOL0     C19995  10.034   3.770   7.276 -0.4057  0.0668 -0.6016
  910MOL0     O19996  10.101   3.692   7.361 -0.6401  0.2240 -0.4836
  910MOL0     C19997  10.037   3.608   7.451 -0.2671  1.2405 -0.4694
  910MOL0     C19998  10.094   3.456   7.423 -0.5872 -1.1234 -0.3284
  910MOL0     C19999  10.029   3.342   7.495  1.2888 -0.0542  0.0275
  910MOL0     C20000   9.931   3.270   7.401  0.7918 -0.6159  0.5141
  910MOL0     C20001   9.837   3.189   7.484  0.4093 -0.4721  0.6811
  910MOL0     C20002   9.904   3.079   7.570  0.0916  0.2776  0.3688
  910MOL0     C20003   9.789   3.013   7.641  1.4080 -0.4206 -0.3074
  910MOL0     C20004   9.841   2.902   7.729 -0.5829  0.1844 -0.6214
  910MOL0     N20005   9.876   2.784   7.646 -0.2902  0.1299  0.8160
  910MOL0     C20006   9.802   2.698   7.561  0.0188 -0.1155 -0.3258
  910MOL0     C20007   9.892   2.604   7.523  0.6204 -0.1024 -1.0143
  910MOL0     C20008   9.883   2.475   7.451  1.1903  0.0168 -0.0569
  910MOL0     C20009   9.754   2.465   7.376  0.3652  0.9438 -0.5812
  910MOL0     C20010   9.727   2.332   7.287 -0.6163 -0.3626  0.1559
  910MOL0     C20011   9.759   2.197   7.351 -0.5836  0.0778  0.3250
  910MOL0     O20012   9.725   2.091   7.263  0.1049  0.0312  0.3249
  910MOL0     C20013   9.832   2.020   7.208  0.1066  0.4619 -0.1936
  910MOL0     C20014   9.821   1.880   7.191  0.4027  1.2677  0.6277
  910MOL0     C20015   9.934   1.814   7.134 -0.7507 -0.2772  0.3387
  910MOL0     C20016  10.051   1.878   7.076  0.7434 -0.3501  0.3869
  910MOL0     C20017  10.158   1.811   6.988  0.1823 -0.7135  0.4893
  910MOL0     O20018  10.199   1.879   6.880 -0.2614  0.0251  0.2766
  910MOL0     C20019  10.303   1.849   6.792  0.0149  0.2888  0.3607
  910MOL0     C20020  10.317   1.719   6.743  0.4384 -1.0542  0.1381
  910MOL0     C20021  10.416   1.700   6.636  0.4017 -0.0654 -0.2157
  910MOL0     C20022  10.500   1.800   6.600 -0.3923 -1.4284  0.1786
  910MOL0     O20023  10.597   1.789   6.497 -0.6210 -0.2659  0.1611
  910MOL0     C20024  10.635   1.662   6.443 -0.4283 -0.9196  0.4318
  910MOL0     C20025  10.719   1.661   6.317 -1.0023  0.7517  0.7764
  910MOL0     C20026  10.871   1.694   6.347  0.1436 -0.1783  0.4161
  910MOL0     C20027  10.960   1.708   6.227  0.3750  0.5434  0.5267
  910MOL0     C20028  11.114   1.699   6.252  0.4701  0.5616 -0.2932
  910MOL0     C20029  11.170   1.815   6.337  0.2843 -0.0096  0.0676
  910MOL0     C20030  11.323   1.805   6.354 -0.1787  0.9792 -0.1198
  910MOL0     C20031  11.378   1.708   6.460  0.6724  0.3503 -0.5598
  910MOL0    Cl20032  11.290   1.723   6.604  0.5279 -0.0184 -0.2864
  910MOL0     C20033  10.485   1.926   6.660  0.1289 -0.4674 -0.2617
  910MOL0     C20034  10.386   1.950   6.748  0.0636  0.3511  0.8482
  910MOL0     O20035  10.209   1.708   7.029 -0.6803 -1.1508 -0.0229
  910MOL0     C20036  10.055   2.021   7.101  0.1110  0.2420  0.7839
  910MOL0     C20037   9.954   2.088   7.167  0.3900  0.6637  0.6656
  910MOL0     N20038  10.010   2.627   7.585 -0.3081  0.4568  0.5323
  910MOL0     N20039  10.006   2.739   7.644  0.3280  0.5705 -0.2274
  910MOL0     C20040  10.033   3.914   7.288  0.4037  0.0062  0.1878
  910MOL0     C20041   9.959   3.989   7.202 -0.0722 -0.2879 -0.9347
  910MOL0     C20042   9.712   4.221   6.951 -0.3352 -0.2167  0.4063
  910MOL0     C20043   9.800   4.242   6.841 -0.4372  0.2137 -0.1469
  910MOL0     C20044   9.784   4.342   6.743 -0.7186 -0.7686  0.4901
  910MOL0     C20045   9.662   4.424   6.743 -0.2353  0.4705  0.1850
  910MOL0     O20046   9.664   4.526   6.654  0.1689 -0.0043 -0.8931
  910MOL0     C20047   9.573   4.636   6.673  0.2632 -0.4739 -0.1655
  910MOL0     C20048   9.627   4.757   6.746  1.0382 -0.1298 -0.4464
  910MOL0     C20049   9.544   4.791   6.878 -0.6602  0.9511 -0.1874
  910MOL0     C20050   9.604   4.918   6.934  0.2901 -1.2890  0.3648
  910MOL0     C20051   9.718   4.900   7.020 -0.2296  0.1052 -0.7062
  910MOL0     C20052   9.804   4.871   7.101  0.1076  0.7266  0.4252
  910MOL0     C20053   9.575   4.397   6.855  0.0482 -0.3865  0.1329
  910MOL0     C20054   9.591   4.293   6.952  0.1232  0.6337 -0.8840
  910MOL0     H20055   9.802   3.749   7.025 -3.0272  0.8668  2.6746
  910MOL0     H20056   9.921   3.598   7.178 -1.4431  0.5141 -0.3672
  910MOL0     H20057   9.929   3.610   7.437 -0.5388 -1.3493  0.7033
  910MOL0     H20058  10.066   3.638   7.552 -1.8967  0.2248  0.3492
  910MOL0     H20059  10.197   3.458   7.462 -0.9172  0.0508  0.5311
  910MOL0     H20060  10.088   3.431   7.317 -2.9965 -4.7546  0.4844
  910MOL0     H20061   9.979   3.378   7.585  0.8202  0.2025 -0.3295
  910MOL0     H20062  10.100   3.264   7.522 -1.6780 -3.1225 -0.3269
  910MOL0     H20063   9.883   3.332   7.325 -0.5022 -2.5020 -0.3129
  910MOL0     H20064   9.996   3.218   7.329  0.6162  1.2593 -1.1018
  910MOL0     H20065   9.757   3.150   7.421 -0.3527 -0.4383  1.6099
  910MOL0     H20066   9.790   3.254   7.558  2.3240  1.5965  0.1881
  910MOL0     H20067   9.972   3.122   7.644  1.6982  1.4751 -1.7000
  910MOL0     H20068   9.960   3.013   7.502 -1.5462 -0.1812 -0.5977
  910MOL0     H20069   9.729   3.087   7.694  2.0871  0.3949 -0.6565
  910MOL0     H20070   9.720   2.976   7.565  2.3805  1.7307 -2.3855
  910MOL0     H20071   9.764   2.875   7.803 -2.0841  1.1681 -1.7606
  910MOL0     H20072   9.922   2.935   7.795 -1.3055  1.3789 -0.2845
  910MOL0     H20073   9.698   2.691   7.531  0.0569 -1.4607 -0.1980
  910MOL0     H20074   9.887   2.394   7.524  1.2928 -0.6957 -0.8516
  910MOL0     H20075   9.966   2.453   7.384  1.7905  2.4440 -0.2314
  910MOL0     H20076   9.732   2.550   7.311 -4.5244  0.2671 -0.2320
  910MOL0     H20077   9.676   2.467   7.452  1.9849 -0.2043  1.2021
  910MOL0     H20078   9.621   2.331   7.259 -0.5934 -2.8069  0.0062
  910MOL0     H20079   9.780   2.347   7.192  0.2653  1.3328  0.8706
  910MOL0     H20080   9.711   2.198   7.449 -0.8776  0.8724  0.1811
  910MOL0     H20081   9.864   2.191   7.379 -0.4245  0.6912 -0.1132
  910MOL0     H20082   9.730   1.828   7.218 -0.5744  2.2201 -0.7684
  910MOL0     H20083   9.944   1.706   7.132 -2.4580 -0.4725 -2.6819
  910MOL0     H20084  10.254   1.633   6.765  0.2675 -0.9942 -0.1071
  910MOL0     H20085  10.430   1.597   6.604 -1.2276 -0.2212 -0.4904
  910MOL0     H20086  10.545   1.609   6.410 -0.8738  0.6485 -1.0049
  910MOL0     H20087  10.691   1.605   6.518  0.5210  0.3032  0.6758
  910MOL0     H20088  10.683   1.738   6.248  1.3762  0.9502 -0.3654
  910MOL0     H20089  10.705   1.569   6.261  0.5006 -1.2828  3.5136
  910MOL0     H20090  10.907   1.618   6.417  1.3630 -0.7243 -0.7563
  910MOL0     H20091  10.873   1.794   6.393 -3.8700  0.0924  0.3873
  910MOL0     H20092  10.920   1.645   6.146 -1.0748  1.7450  0.2525
  910MOL0     H20093  10.942   1.805   6.179  0.3412 -1.7744 -4.9138
  910MOL0     H20094  11.166   1.704   6.156 -0.7912  1.9141 -0.9325
  910MOL0     H20095  11.130   1.608   6.310 -0.1653  0.9218  0.4740
  910MOL0     H20096  11.119   1.827   6.433 -0.6578 -2.2355 -0.0708
  910MOL0     H20097  11.140   1.898   6.272 -2.5661 -0.6713  0.3913
  910MOL0     H20098  11.366   1.765   6.262  1.2423  2.0086  0.0574
  910MOL0     H20099  11.362   1.901   6.389  1.3454 -0.5195  2.6124
  910MOL0     H20100  11.484   1.725   6.479  0.4002  2.8287 -0.8174
  910MOL0     H20101  11.356   1.610   6.418  1.4141 -1.2582  2.4940
  910MOL0     H20102  10.550   2.008   6.632  3.0251 -1.4613  2.8596
  910MOL0     H20103  10.370   2.049   6.789 -0.3736  0.4601  0.4161
  910MOL0     H20104  10.134   2.073   7.047 -1.3974 -0.6961 -2.5744
  910MOL0     H20105   9.962   2.196   7.180 -2.2581  0.7329  2.4555
  910MOL0     H20106  10.102   3.975   7.345  1.0536 -0.3063 -0.2674
  910MOL0     H20107   9.969   4.097   7.205 -0.2835 -0.2193 -2.0538
  910MOL0     H20108   9.899   4.197   6.847 -0.7551 -0.3018  4.0720
  910MOL0     H20109   9.860   4.370   6.671  0.2660 -2.7565  0.7138
  910MOL0     H20110   9.482   4.594   6.718  1.7334 -2.3250  1.2106
  910MOL0     H20111   9.550   4.668   6.571  0.5333 -0.6983 -0.2965
  910MOL0     H20112   9.723   4.731   6.790 -1.1868 -2.5961  3.5951
  910MOL0     H20113   9.630   4.841   6.676  0.7746 -0.0754 -0.3965
  910MOL0     H20114   9.571   4.707   6.943  2.6791  1.0087 -1.3173
  910MOL0     H20115   9.437   4.794   6.856 -0.6922  1.3790  0.0165
  910MOL0     H20116   9.628   4.982   6.848 -0.2201 -3.1091 -1.1969
  910MOL0     H20117   9.523   4.973   6.983 -1.0822 -1.5088 -1.5250
  910MOL0     H20118   9.881   4.834   7.166 -0.0614 -3.7358 -1.5798
  910MOL0     H20119   9.476   4.439   6.870 -1.4295 -3.5396  0.0676
  910MOL0     H20120   9.520   4.267   7.030 -0.1932 -0.7654 -1.5951
  911MOL0     O20121   1.859   4.696   9.341 -1.3459 -0.1776  0.6648
  911MOL0     C20122   1.960   4.762   9.308  0.5476  0.7847 -0.1977
  911MOL0     O20123   2.043   4.727   9.202 -0.1632  0.5694  0.1424
  911MOL0     C20124   2.001   4.622   9.131 -0.3381  0.2490 -0.6009
  911MOL0     C20125   1.996   4.490   9.184  0.6019  0.8428 -0.7233
  911MOL0     C20126   1.963   4.384   9.092 -0.1113 -0.2877  0.0691
  911MOL0     C20127   1.920   4.409   8.958  0.1761 -0.5649  0.8362
  911MOL0     O20128   1.869   4.320   8.868  0.2431  0.2526 -0.0046
  911MOL0     C20129   1.843   4.187   8.912 -0.1352 -0.2081 -0.2389
  911MOL0     C20130   1.732   4.126   8.829  0.2211 -0.5780  0.2740
  911MOL0     C20131   1.780   4.125   8.677 -0.8330  0.4424  0.0142
  911MOL0     C20132   1.786   3.976   8.612  0.1402  0.7103 -0.3810
  911MOL0     C20133   1.804   3.981   8.453  0.4582  0.8211 -0.4982
  911MOL0     C20134   1.683   4.040   8.372  0.3825 -0.4094  0.6058
  911MOL0     C20135   1.707   4.011   8.221  0.5592 -0.2489 -0.4821
  911MOL0     C20136   1.821   4.085   8.154 -0.6065 -0.4585  0.7165
  911MOL0     N20137   1.819   4.081   8.008 -0.2663  0.4274 -0.3545
  911MOL0     C20138   1.772   4.181   7.937 -0.1715  0.0674 -0.8297
  911MOL0     C20139   1.759   4.140   7.815  0.9198  0.5832  0.2971
  911MOL0     C20140   1.691   4.218   7.710 -0.2706  0.4118 -0.5971
  911MOL0     C20141   1.544   4.236   7.749 -0.3387 -0.7343 -0.6344
  911MOL0     C20142   1.463   4.109   7.748  0.1292 -0.0008  0.8075
  911MOL0     C20143   1.458   4.056   7.611 -0.0955 -0.3158  0.5748
  911MOL0     O20144   1.384   3.933   7.591 -0.3628 -0.1252 -0.8741
  911MOL0     C20145   1.260   3.918   7.634 -0.2698  0.6428 -0.5861
  911MOL0     C20146   1.161   4.012   7.641  0.1290  0.6652  0.1602
  911MOL0     C20147   1.040   3.979   7.692  0.0787  0.1226  0.0441
  911MOL0     C20148   1.012   3.856   7.736 -0.5671  0.3947  0.3367
  911MOL0     C20149   0.881   3.824   7.798  0.3547  0.2259 -0.4052
  911MOL0     O20150   0.847   3.683   7.797 -0.6376 -0.4520 -0.6630
  911MOL0     C20151   0.713   3.669   7.841 -0.6047 -1.3321  0.4594
  911MOL0     C20152   0.675   3.606   7.953 -0.0296  0.2542  0.3182
  911MOL0     C20153   0.542   3.571   7.982 -0.6213 -0.9862 -0.5581
  911MOL0     C20154   0.442   3.600   7.889 -0.6884 -0.5304 -0.5707
  911MOL0     O20155   0.311   3.573   7.902 -0.3840 -0.2827 -0.6390
  911MOL0     C20156   0.284   3.440   7.953  0.2879  1.0148 -0.8747
  911MOL0     C20157   0.155   3.391   7.902 -0.9803 -0.5312  0.5824
  911MOL0     C20158   0.134   3.374   7.743 -1.3590 -0.1835 -0.2162
  911MOL0     C20159   0.217   3.245   7.703  0.4765 -0.8177  0.2151
  911MOL0     C20160   0.261   3.238   7.560 -0.3745  0.3511  0.2070
  911MOL0     C20161   0.344   3.351   7.504  0.2487  0.1244 -0.3140
  911MOL0     C20162   0.418   3.324   7.380  0.4610  0.2541  0.3334
  911MOL0     C20163   0.546   3.406   7.349  0.1336  0.9709 -1.1929
  911MOL0    Cl20164   0.510   3.578   7.392 -0.3507  0.3267 -0.2016
  911MOL0     C20165   0.489   3.652   7.768 -0.2505  0.7879  0.7458
  911MOL0     C20166   0.622   3.688   7.741 -0.2749  0.3740  0.7456
  911MOL0     O20167   0.806   3.915   7.833  0.4569 -0.5646  0.8350
  911MOL0     C20168   1.113   3.754   7.731 -0.2529 -0.6069 -1.0302
  911MOL0     C20169   1.234   3.786   7.673  0.1874  0.4739  0.5315
  911MOL0     N20170   1.809   4.012   7.811 -0.2012  0.3227  0.2345
  911MOL0     N20171   1.850   3.973   7.928  0.7570 -0.2128  0.0044
  911MOL0     C20172   1.931   4.542   8.908 -0.3113 -0.1405  0.4322
  911MOL0     C20173   1.975   4.644   9.000 -0.2155  0.0672  0.7850
  911MOL0     C20174   1.989   4.882   9.389  0.3872 -0.4860 -0.8219
  911MOL0     C20175   2.082   4.980   9.352 -0.6219 -0.0911 -0.3294
  911MOL0     C20176   2.094   5.104   9.416 -0.1829 -0.3994 -0.0155
  911MOL0     C20177   2.002   5.143   9.513  0.2199  0.3697  1.0139
  911MOL0     O20178   2.005   5.277   9.564 -0.5940  0.7845 -0.2499
  911MOL0     C20179   1.888   5.315   9.642  0.0614 -0.4069  0.1397
  911MOL0     C20180   1.761   5.321   9.553  0.2960 -0.2091  0.0371
  911MOL0     C20181   1.634   5.299   9.634 -0.5247 -0.8562 -0.1871
  911MOL0     C20182   1.627   5.379   9.768 -1.0773  0.1244 -0.6091
  911MOL0     C20183   1.511   5.322   9.841 -0.2692  1.2900  0.2812
  911MOL0     C20184   1.410   5.275   9.900 -0.5905 -0.2561  0.5440
  911MOL0     C20185   1.926   5.037   9.563  0.7780 -0.2627 -0.2787
  911MOL0     C20186   1.921   4.912   9.508  0.7710 -0.6324  0.9978
  911MOL0     H20187   2.007   4.473   9.290 -0.2991  2.8354 -0.2728
  911MOL0     H20188   1.965   4.282   9.130  2.8017  0.1924  1.4516
  911MOL0     H20189   1.817   4.184   9.018 -1.2352 -1.0643 -0.5097
  911MOL0     H20190   1.926   4.122   8.884  0.5922 -0.0141  1.4028
  911MOL0     H20191   1.638   4.181   8.837  1.3846  2.1703 -2.8811
  911MOL0     H20192   1.713   4.022   8.860  1.8712 -1.1454 -0.5230
  911MOL0     H20193   1.878   4.169   8.654 -1.3671  0.0233 -3.8454
  911MOL0     H20194   1.704   4.188   8.629 -2.5351  0.3875  2.4518
  911MOL0     H20195   1.878   3.931   8.648  1.3553  3.5435  0.3728
  911MOL0     H20196   1.700   3.917   8.646 -0.1214 -0.2419 -2.5434
  911MOL0     H20197   1.808   3.875   8.425 -2.9093  0.2904  0.6198
  911MOL0     H20198   1.894   4.030   8.414 -1.1971  2.6223 -2.2687
  911MOL0     H20199   1.674   4.149   8.382  0.5654 -0.3189 -0.1393
  911MOL0     H20200   1.591   3.983   8.383  0.4570 -0.5447  0.5293
  911MOL0     H20201   1.728   3.904   8.206 -0.9046 -0.1835 -3.9919
  911MOL0     H20202   1.615   4.043   8.172  0.3487  0.2071  0.2015
  911MOL0     H20203   1.914   4.039   8.188 -0.4906  1.1955  2.8571
  911MOL0     H20204   1.834   4.184   8.198  1.7840 -1.2409  1.9889
  911MOL0     H20205   1.738   4.277   7.973 -2.3236 -0.2320 -1.8885
  911MOL0     H20206   1.694   4.171   7.611  0.8666  2.1848 -1.4544
  911MOL0     H20207   1.738   4.316   7.701 -1.9322  1.1295 -1.9245
  911MOL0     H20208   1.508   4.317   7.684  0.0484 -0.2923 -0.3070
  911MOL0     H20209   1.532   4.284   7.847  2.4417  0.3255 -0.7276
  911MOL0     H20210   1.493   4.038   7.826 -0.0591 -2.4929 -1.2656
  911MOL0     H20211   1.360   4.120   7.782  0.7853 -0.1116  2.9622
  911MOL0     H20212   1.559   4.037   7.574  1.6383  5.2407  1.5450
  911MOL0     H20213   1.401   4.125   7.548 -0.2367 -1.7216 -0.9207
  911MOL0     H20214   1.176   4.116   7.614 -1.3039  0.8945  0.1752
  911MOL0     H20215   0.970   4.061   7.693 -0.6324 -0.4083 -2.0218
  911MOL0     H20216   0.761   3.593   8.018 -0.8855  0.9191  1.6403
  911MOL0     H20217   0.510   3.530   8.077  3.3739  0.8401  1.8463
  911MOL0     H20218   0.273   3.454   8.061  0.9809  2.4598 -0.9667
  911MOL0     H20219   0.358   3.364   7.929  1.6002  1.7321  0.7040
  911MOL0     H20220   0.081   3.458   7.947 -0.2969  0.2838  0.5136
  911MOL0     H20221   0.144   3.296   7.955  3.8473 -1.1649  0.8712
  911MOL0     H20222   0.180   3.458   7.691  0.6935 -1.9626 -1.4375
  911MOL0     H20223   0.028   3.354   7.725 -1.5815 -0.5548  1.3700
  911MOL0     H20224   0.310   3.255   7.759 -1.3903 -3.7097  4.3160
  911MOL0     H20225   0.176   3.148   7.732  2.1794 -1.5576  0.2536
  911MOL0     H20226   0.169   3.233   7.501 -0.1082  4.3748 -0.8373
  911MOL0     H20227   0.322   3.148   7.559  1.9697  1.8669 -0.2263
  911MOL0     H20228   0.418   3.379   7.580  2.5596 -1.2844 -1.9213
  911MOL0     H20229   0.276   3.437   7.495  0.4615  0.6085  1.9466
  911MOL0     H20230   0.441   3.217   7.373  1.3951  0.5516 -2.2097
  911MOL0     H20231   0.338   3.343   7.308  0.2717 -2.4115 -0.2518
  911MOL0     H20232   0.561   3.407   7.241  0.2166  5.7460 -1.3415
  911MOL0     H20233   0.631   3.364   7.404 -2.6390 -0.2576  2.5826
  911MOL0     H20234   0.415   3.664   7.689 -0.8341  0.4330  1.2270
  911MOL0     H20235   0.629   3.729   7.641 -4.8091 -1.0586 -0.4181
  911MOL0     H20236   1.079   3.654   7.753 -2.4080  0.1960 -0.4797
  911MOL0     H20237   1.318   3.718   7.669 -0.8953 -0.9488  1.0502
  911MOL0     H20238   1.912   4.556   8.802  0.2904 -0.6034  0.2548
  911MOL0     H20239   1.986   4.747   8.966  0.1465  0.4437  1.9955
  911MOL0     H20240   2.129   4.955   9.258 -0.5098 -1.2862  0.0273
  911MOL0     H20241   2.163   5.176   9.372  0.3843 -0.0267  1.4174
  911MOL0     H20242   1.890   5.414   9.689 -1.1366 -0.1527 -0.3169
  911MOL0     H20243   1.874   5.238   9.718  1.0322  0.7927  1.6075
  911MOL0     H20244   1.758   5.423   9.515  3.7133 -0.7210 -2.0683
  911MOL0     H20245   1.771   5.247   9.473  1.8374 -1.6116  1.4346
  911MOL0     H20246   1.625   5.193   9.657 -1.5529 -0.5713  0.8294
  911MOL0     H20247   1.548   5.332   9.574 -0.2193 -1.2839 -0.8742
  911MOL0     H20248   1.716   5.383   9.831 -2.5311  0.7623  1.5120
  911MOL0     H20249   1.613   5.487   9.755  2.5420  0.6701 -0.9731
  911MOL0     H20250   1.325   5.227   9.944 -0.9200 -1.0589 -0.9137
  911MOL0     H20251   1.856   5.056   9.643 -0.4535  0.7619 -1.5370
  911MOL0     H20252   1.852   4.837   9.544  2.2740 -1.6648  1.8537
  912MOL0     O20253   6.271   1.830   2.758  0.7015  0.0658  0.6701
  912MOL0     C20254   6.263   1.717   2.711  0.6756  0.0047  0.2187
  912MOL0     O20255   6.270   1.608   2.782  0.2817 -1.0951  0.1778
  912MOL0     C20256   6.234   1.627   2.915  0.1164  0.6736  0.3002
  912MOL0     C20257   6.115   1.653   2.961  0.1587 -0.6169  0.3166
  912MOL0     C20258   6.082   1.649   3.094  0.2379  0.6145 -0.0565
  912MOL0     C20259   6.180   1.617   3.193 -0.1025 -0.6047  0.7616
  912MOL0     O20260   6.150   1.615   3.328  0.5429 -0.3124  0.2276
  912MOL0     C20261   6.039   1.681   3.380  0.6859 -0.5956 -0.0028
  912MOL0     C20262   6.020   1.831   3.348  0.4726  0.3682 -0.2755
  912MOL0     C20263   6.141   1.914   3.373  0.0911 -0.4374  0.1341
  912MOL0     C20264   6.143   2.044   3.292  0.3193  0.1245 -0.0288
  912MOL0     C20265   6.275   2.116   3.303  1.1345 -0.2058 -0.3638
  912MOL0     C20266   6.392   2.045   3.219  0.0936 -0.3737 -0.5368
  912MOL0     C20267   6.372   2.051   3.063 -0.6513  0.0980 -0.0010
  912MOL0     C20268   6.480   1.961   2.986  0.2719 -0.6586  0.5169
  912MOL0     N20269   6.613   2.030   3.017 -0.0295  0.5598  0.4453
  912MOL0     C20270   6.645   2.165   2.970 -0.2624 -0.5618 -0.4735
  912MOL0     C20271   6.760   2.191   3.035 -0.8570  1.4950  0.1631
  912MOL0     C20272   6.840   2.309   3.006  0.1007 -0.1854  0.3558
  912MOL0     C20273   6.954   2.317   3.099 -0.1151  0.4418 -0.6713
  912MOL0     C20274   7.011   2.453   3.130 -0.4910 -0.7455  0.0709
  912MOL0     C20275   7.102   2.513   3.025  0.2587 -0.0110 -0.1139
  912MOL0     O20276   7.227   2.438   3.020 -0.3112  0.1165  0.7362
  912MOL0     C20277   7.318   2.505   2.938 -0.3877  0.2198 -0.6948
  912MOL0     C20278   7.318   2.485   2.805 -0.2764  0.0785 -0.1298
  912MOL0     C20279   7.414   2.540   2.722 -0.1433 -0.1589 -1.2886
  912MOL0     C20280   7.504   2.632   2.776  0.0578 -0.1588  0.3581
  912MOL0     C20281   7.613   2.687   2.689  0.2857 -0.1392  0.6592
  912MOL0     O20282   7.741   2.693   2.743  0.3720  0.1235 -0.5871
  912MOL0     C20283   7.848   2.741   2.678  1.6540 -0.2264  0.6657
  912MOL0     C20284   7.846   2.858   2.605 -0.5075 -0.0098 -0.3280
  912MOL0     C20285   7.964   2.902   2.540  0.6721  0.7603  0.8785
  912MOL0     C20286   8.084   2.828   2.554 -0.7981 -0.8844  0.3174
  912MOL0     O20287   8.185   2.892   2.480  0.2653 -0.5482 -0.5821
  912MOL0     C20288   8.311   2.828   2.481  0.5697 -0.4918  1.1224
  912MOL0     C20289   8.430   2.918   2.440  0.2399  0.1260 -0.5718
  912MOL0     C20290   8.529   2.857   2.340 -0.2545 -0.0449  1.2703
  912MOL0     C20291   8.632   2.965   2.290  0.4947  0.1798 -0.5883
  912MOL0     C20292   8.758   2.902   2.223  0.7902 -0.0183  0.3956
  912MOL0     C20293   8.856   3.015   2.206 -0.6582  0.1217  0.0209
  912MOL0     C20294   9.002   2.966   2.171  0.3276  0.1632  0.6095
  912MOL0     C20295   9.012   2.922   2.023  0.4664  0.2752  0.8843
  912MOL0    Cl20296   9.180   2.907   1.970 -0.2854  0.3032 -0.1412
  912MOL0     C20297   8.094   2.716   2.646 -0.8408  0.3003  1.2087
  912MOL0     C20298   7.976   2.676   2.698  0.1416  0.8146 -0.7969
  912MOL0     O20299   7.574   2.728   2.581 -0.2296 -0.5849 -0.0437
  912MOL0     C20300   7.505   2.647   2.911 -0.8979  0.2158  0.5271
  912MOL0     C20301   7.413   2.590   3.001 -0.3605  0.2660 -0.4554
  912MOL0     N20302   6.805   2.076   3.106  0.0834  0.5122 -0.6065
  912MOL0     N20303   6.705   1.988   3.110 -0.7559  0.1287  0.0857
  912MOL0     C20304   6.310   1.595   3.144  0.2139 -0.6332 -0.2290
  912MOL0     C20305   6.337   1.603   3.011 -0.0092 -0.5607  1.0266
  912MOL0     C20306   6.256   1.702   2.563 -0.5365 -0.0826 -0.8997
  912MOL0     C20307   6.230   1.821   2.486  1.0668  0.3066  0.1959
  912MOL0     C20308   6.250   1.810   2.343  0.4575 -0.1656  0.1915
  912MOL0     C20309   6.263   1.681   2.283  0.0361  0.4125 -0.0627
  912MOL0     O20310   6.281   1.663   2.148  0.3679 -0.1241  0.2821
  912MOL0     C20311   6.161   1.634   2.082  0.2292 -0.5249 -0.0337
  912MOL0     C20312   6.177   1.587   1.940 -0.2089 -0.2406 -0.3047
  912MOL0     C20313   6.181   1.711   1.856 -0.1826 -0.0577  1.1367
  912MOL0     C20314   6.181   1.679   1.702  0.1511 -0.7690 -0.8249
  912MOL0     C20315   6.223   1.784   1.609  0.3413  0.3603  0.4752
  912MOL0     C20316   6.218   1.882   1.530  0.1105  0.2213 -0.2649
  912MOL0     C20317   6.283   1.563   2.363  0.5642  0.8630 -0.7777
  912MOL0     C20318   6.284   1.578   2.509  0.6880 -0.2007 -0.4983
  912MOL0     H20319   6.038   1.667   2.886  0.5723  1.8489  0.2881
  912MOL0     H20320   5.985   1.685   3.127  0.6189 -1.4904  4.0506
  912MOL0     H20321   6.044   1.692   3.488 -0.5160  0.8984 -0.0485
  912MOL0     H20322   5.951   1.620   3.355 -0.3470  0.7541  0.1781
  912MOL0     H20323   5.937   1.867   3.410 -0.7596 -0.0502 -1.6056
  912MOL0     H20324   5.981   1.849   3.247  1.4548 -0.2504 -0.7866
  912MOL0     H20325   6.230   1.853   3.354 -0.4287 -2.3791  3.2235
  912MOL0     H20326   6.149   1.960   3.472  0.3267  1.2840 -0.6506
  912MOL0     H20327   6.132   1.999   3.193  2.3761 -1.0699  0.2276
  912MOL0     H20328   6.054   2.104   3.316  0.5042 -0.4326  2.3115
  912MOL0     H20329   6.307   2.117   3.408 -0.9067  0.7062  0.3130
  912MOL0     H20330   6.264   2.220   3.270  0.7541  0.9622  3.0496
  912MOL0     H20331   6.386   1.936   3.230  1.2686 -0.6955 -2.6015
  912MOL0     H20332   6.490   2.080   3.251  0.0648 -1.9919  1.5872
  912MOL0     H20333   6.274   2.010   3.036 -1.4231  2.1297 -0.4726
  912MOL0     H20334   6.372   2.152   3.020 -3.2596  0.6589  1.1116
  912MOL0     H20335   6.467   1.953   2.878 -2.5515  1.6706  0.5906
  912MOL0     H20336   6.457   1.860   3.020 -1.2019 -1.6777 -3.0272
  912MOL0     H20337   6.586   2.237   2.915  0.5291  0.8070  0.4212
  912MOL0     H20338   6.785   2.403   3.011  3.1012  2.0155 -2.9638
  912MOL0     H20339   6.891   2.300   2.910  0.7357 -0.1175  0.6739
  912MOL0     H20340   7.040   2.268   3.051  1.2890  0.0056  2.1029
  912MOL0     H20341   6.925   2.272   3.194 -0.7299  0.9921 -0.5981
  912MOL0     H20342   6.919   2.509   3.150 -2.4058 -3.3686 -0.9404
  912MOL0     H20343   7.063   2.452   3.227  0.0723 -3.0666 -0.2009
  912MOL0     H20344   7.121   2.616   3.057 -0.8391 -0.7445  3.2339
  912MOL0     H20345   7.060   2.510   2.924  0.8261 -4.0545 -0.4176
  912MOL0     H20346   7.236   2.438   2.751  0.7315  1.3071 -2.9472
  912MOL0     H20347   7.405   2.509   2.618 -0.9602  1.0238 -1.5978
  912MOL0     H20348   7.754   2.915   2.603  0.2803  1.4006  1.6301
  912MOL0     H20349   7.963   2.982   2.467  1.6231  1.1110  1.2430
  912MOL0     H20350   8.323   2.738   2.420  3.7425 -0.8832  2.1687
  912MOL0     H20351   8.322   2.789   2.582 -0.9892  1.5986  2.1594
  912MOL0     H20352   8.471   2.971   2.527 -2.2145  0.4591  0.4690
  912MOL0     H20353   8.401   2.996   2.369 -0.1336 -0.6618 -1.3037
  912MOL0     H20354   8.486   2.806   2.254  2.1285 -0.0622  0.0065
  912MOL0     H20355   8.584   2.777   2.391 -0.2103 -1.1112 -0.3843
  912MOL0     H20356   8.572   3.025   2.221 -1.2526 -0.0823  0.6379
  912MOL0     H20357   8.654   3.034   2.372  1.6914  0.3647 -1.0418
  912MOL0     H20358   8.731   2.850   2.131 -1.6511  3.9852 -1.4177
  912MOL0     H20359   8.796   2.827   2.293 -3.2653 -0.9313  1.8609
  912MOL0     H20360   8.866   3.067   2.302 -1.7525  1.7658 -0.7238
  912MOL0     H20361   8.823   3.097   2.143  0.6663 -0.5048 -1.5618
  912MOL0     H20362   9.053   3.062   2.187 -0.0167  0.7253 -1.3865
  912MOL0     H20363   9.040   2.892   2.243 -0.8469  0.8090  1.9489
  912MOL0     H20364   8.961   2.998   1.963 -0.3722 -0.8937  0.0595
  912MOL0     H20365   8.966   2.823   2.017  2.9842 -0.8622 -1.5987
  912MOL0     H20366   8.188   2.662   2.655 -0.1370  1.0845 -0.9303
  912MOL0     H20367   7.973   2.579   2.745 -3.5208  0.1846 -1.9900
  912MOL0     H20368   7.575   2.716   2.957 -1.1364  1.3101 -0.7181
  912MOL0     H20369   7.409   2.608   3.108  1.3990  3.8009 -0.8626
  912MOL0     H20370   6.394   1.577   3.210 -1.0433 -0.5280  1.4890
  912MOL0     H20371   6.441   1.582   2.987 -0.9107 -2.3836 -1.7547
  912MOL0     H20372   6.217   1.921   2.527  3.3942  0.7937 -0.0963
  912MOL0     H20373   6.244   1.899   2.282 -0.3979  1.5375  2.5835
  912MOL0     H20374   6.083   1.710   2.088  2.3211  1.7259  0.3257
  912MOL0     H20375   6.110   1.551   2.131 -3.6425  1.2429 -0.7210
  912MOL0     H20376   6.275   1.538   1.936  0.7756  1.6877 -1.1244
  912MOL0     H20377   6.097   1.519   1.910  0.9307 -1.3277 -0.9795
  912MOL0     H20378   6.266   1.777   1.876 -1.1389  1.6028  0.0321
  912MOL0     H20379   6.088   1.768   1.867  1.3299  3.2842 -1.6003
  912MOL0     H20380   6.241   1.588   1.689 -1.5053 -2.7204  3.3953
  912MOL0     H20381   6.077   1.664   1.673 -0.6334 -2.5182  2.3726
  912MOL0     H20382   6.220   1.962   1.459 -0.5027 -3.3759 -4.8726
  912MOL0     H20383   6.298   1.463   2.323  0.7557 -0.5880  2.5329
  912MOL0     H20384   6.304   1.487   2.564  2.1038  0.8756  0.8388
  913MOL0     O20385   0.702   5.392   2.855  0.9227  0.0491  0.1276
  913MOL0     C20386   0.623   5.441   2.774 -0.1303  0.0409  0.6400
  913MOL0     O20387   0.599   5.396   2.648 -0.1081  0.5639  0.2390
  913MOL0     C20388   0.646   5.277   2.608 -1.2443  1.1313 -0.1186
  913MOL0     C20389   0.572   5.161   2.606  0.4488  0.2358 -0.9881
  913MOL0     C20390   0.617   5.037   2.552 -0.4402 -0.2785 -0.7332
  913MOL0     C20391   0.751   5.036   2.512  0.2110 -0.7456 -0.2509
  913MOL0     O20392   0.805   4.923   2.460  0.1826 -0.4749  0.0214
  913MOL0     C20393   0.834   4.824   2.553 -0.8921  0.5749  0.7085
  913MOL0     C20394   0.909   4.706   2.484 -0.2029  0.4872 -0.4063
  913MOL0     C20395   0.940   4.596   2.574  0.8766  1.3021 -0.6931
  913MOL0     C20396   0.820   4.550   2.654  0.0357 -0.9382  0.5248
  913MOL0     C20397   0.839   4.431   2.749  0.1365  1.1314 -0.4168
  913MOL0     C20398   0.919   4.463   2.873  0.9812 -0.2760  0.0261
  913MOL0     C20399   0.891   4.364   2.981  0.2805 -0.0260  0.5065
  913MOL0     C20400   0.984   4.391   3.103  0.5369 -0.1375  2.1960
  913MOL0     N20401   0.937   4.490   3.193 -0.0615  0.5540  0.4952
  913MOL0     C20402   0.935   4.454   3.328  0.7339  0.9161 -0.3210
  913MOL0     C20403   0.905   4.570   3.398 -0.5442 -0.5717 -0.0099
  913MOL0     C20404   0.894   4.589   3.552 -0.2558 -0.3424 -0.5029
  913MOL0     C20405   0.830   4.463   3.614 -1.0043 -0.5899 -0.2762
  913MOL0     C20406   0.733   4.492   3.732  0.3120 -0.2202  0.5276
  913MOL0     C20407   0.644   4.366   3.757 -0.5660 -1.0318 -0.4560
  913MOL0     O20408   0.530   4.355   3.680  0.4239 -0.5793 -0.6474
  913MOL0     C20409   0.414   4.415   3.726 -0.2845 -0.1820  0.1444
  913MOL0     C20410   0.405   4.503   3.832 -1.1393 -0.1739  0.1560
  913MOL0     C20411   0.284   4.563   3.866 -0.6101 -0.9382  0.2018
  913MOL0     C20412   0.173   4.533   3.794 -0.8326  0.0891 -0.6582
  913MOL0     C20413   0.032   4.597   3.826 -0.7041 -0.2161  0.5209
  913MOL0     O20414   0.029   4.657   3.944  0.7842  0.4611  0.1109
  913MOL0     C20415  -0.058   4.757   3.978  0.5284 -0.3190 -0.8433
  913MOL0     C20416  -0.119   4.850   3.887 -0.0224 -0.5705  0.0208
  913MOL0     C20417  -0.200   4.944   3.930  0.0488  0.1162  0.3744
  913MOL0     C20418  -0.230   4.951   4.063  0.3569 -0.8454 -0.0930
  913MOL0     O20419  -0.324   5.042   4.113  0.5640  0.0921  0.4633
  913MOL0     C20420  -0.415   5.108   4.032  0.8164 -0.4710 -0.4690
  913MOL0     C20421  -0.527   5.158   4.111 -0.4751  0.7560  0.0957
  913MOL0     C20422  -0.645   5.175   4.009 -1.1321 -0.2393  0.1769
  913MOL0     C20423  -0.758   5.250   4.081  0.0019  0.0699 -0.1171
  913MOL0     C20424  -0.877   5.295   3.984 -0.4676  0.2830 -0.1719
  913MOL0     C20425  -0.851   5.437   3.921 -0.0811  0.0308  0.4435
  913MOL0     C20426  -0.822   5.556   4.015  0.0033 -0.3364 -0.4452
  913MOL0     C20427  -0.839   5.696   3.962  0.4549  0.6661  0.7296
  913MOL0    Cl20428  -0.711   5.730   3.826  0.5253 -0.0456 -0.2186
  913MOL0     C20429  -0.171   4.872   4.160  0.3151 -0.2487 -1.3931
  913MOL0     C20430  -0.087   4.767   4.116  1.0328 -0.2074  0.0576
  913MOL0     O20431  -0.055   4.605   3.740  0.5211  0.3454  0.6613
  913MOL0     C20432   0.179   4.447   3.677 -0.5956  0.1133 -0.0804
  913MOL0     C20433   0.307   4.393   3.642  0.5015  0.5445  0.3155
  913MOL0     N20434   0.884   4.664   3.297  0.1254  0.0404 -0.3115
  913MOL0     N20435   0.909   4.620   3.175  0.1643 -0.3225 -0.1945
  913MOL0     C20436   0.827   5.149   2.508  0.0638  0.4237  0.2784
  913MOL0     C20437   0.779   5.272   2.560 -0.5825  0.8737 -0.3609
  913MOL0     C20438   0.555   5.562   2.809 -0.4964  0.0983  0.8538
  913MOL0     C20439   0.480   5.637   2.717  1.0022 -0.9431  0.6327
  913MOL0     C20440   0.429   5.762   2.762  0.4190  0.4149 -0.1774
  913MOL0     C20441   0.442   5.803   2.897 -0.1681  0.4187 -0.1791
  913MOL0     O20442   0.388   5.908   2.952  0.9041 -0.1876  0.7729
  913MOL0     C20443   0.327   6.009   2.863 -0.0922  0.3568 -0.8612
  913MOL0     C20444   0.377   6.152   2.895  0.0824 -0.0801 -0.2661
  913MOL0     C20445   0.341   6.198   3.029 -0.2648 -0.3046 -0.3661
  913MOL0     C20446   0.190   6.226   3.047 -0.0028 -0.2473  0.9179
  913MOL0     C20447   0.131   6.305   2.944 -1.2773  0.6763 -0.0591
  913MOL0     C20448   0.097   6.385   2.855 -0.1298  0.4000  0.1777
  913MOL0     C20449   0.512   5.726   2.986 -0.2505  0.4565 -1.8795
  913MOL0     C20450   0.570   5.605   2.943  0.0257  0.5971 -0.0398
  913MOL0     H20451   0.473   5.176   2.647  0.9970 -1.1100  0.9403
  913MOL0     H20452   0.561   4.945   2.539  0.4398 -1.4444  2.6506
  913MOL0     H20453   0.735   4.797   2.590 -2.2866  2.0002 -1.7200
  913MOL0     H20454   0.901   4.860   2.631 -0.4083  1.8603 -0.2696
  913MOL0     H20455   0.998   4.751   2.440  0.8158 -1.1780 -0.1447
  913MOL0     H20456   0.847   4.672   2.401 -2.7005 -0.2793  1.6377
  913MOL0     H20457   1.004   4.639   2.652  0.1482 -1.1303  1.3958
  913MOL0     H20458   0.990   4.509   2.531 -2.6387 -2.5173  2.1239
  913MOL0     H20459   0.768   4.633   2.703 -2.3829 -2.8056  1.3419
  913MOL0     H20460   0.739   4.521   2.585 -0.8853  1.7172  0.3657
  913MOL0     H20461   0.879   4.344   2.696 -4.0125 -1.2461 -0.0084
  913MOL0     H20462   0.738   4.407   2.783  1.9354 -0.9425  4.4042
  913MOL0     H20463   0.872   4.554   2.910  0.7592 -1.4427  2.8597
  913MOL0     H20464   1.026   4.481   2.859  0.7550  2.5544  1.2310
  913MOL0     H20465   0.788   4.365   3.018  0.6044  0.4591  1.4262
  913MOL0     H20466   0.910   4.266   2.937  2.3764  0.8528 -0.7002
  913MOL0     H20467   1.083   4.406   3.060 -1.7951  0.0173 -4.1396
  913MOL0     H20468   0.997   4.299   3.162 -1.7828 -1.3590  0.9558
  913MOL0     H20469   0.945   4.361   3.382 -1.9102  0.4237 -0.5671
  913MOL0     H20470   0.834   4.677   3.577 -0.9291 -0.8284 -0.3586
  913MOL0     H20471   0.996   4.613   3.584 -0.1665  4.6709 -3.5560
  913MOL0     H20472   0.906   4.388   3.639 -2.0624 -1.1077  1.5885
  913MOL0     H20473   0.756   4.422   3.544 -2.2702  0.6537  0.2716
  913MOL0     H20474   0.794   4.503   3.823  1.1807 -0.6040  0.0099
  913MOL0     H20475   0.664   4.574   3.711 -1.1811 -1.8590 -1.2977
  913MOL0     H20476   0.618   4.376   3.862  0.9938  2.2763 -0.2737
  913MOL0     H20477   0.689   4.266   3.763  1.3464 -0.1249  2.2012
  913MOL0     H20478   0.486   4.523   3.901 -2.3587  0.0037  1.5705
  913MOL0     H20479   0.291   4.624   3.955 -0.0093 -0.3095 -0.2564
  913MOL0     H20480  -0.097   4.849   3.781  0.5049  1.6875  0.0426
  913MOL0     H20481  -0.237   5.009   3.851 -1.9462 -1.5683 -0.1539
  913MOL0     H20482  -0.461   5.037   3.962 -0.4978  1.3993 -1.5731
  913MOL0     H20483  -0.381   5.193   3.972 -0.0171 -0.3602 -0.8004
  913MOL0     H20484  -0.495   5.244   4.170  1.1406 -1.3426  2.4634
  913MOL0     H20485  -0.580   5.090   4.179  1.1471  0.4979  1.1436
  913MOL0     H20486  -0.687   5.084   3.966  1.6388 -1.1529 -0.8235
  913MOL0     H20487  -0.616   5.231   3.919  0.2823 -0.2327  0.6043
  913MOL0     H20488  -0.794   5.204   4.174 -2.4814  1.8958 -0.0795
  913MOL0     H20489  -0.713   5.343   4.117 -3.9366  2.4397 -0.7510
  913MOL0     H20490  -0.964   5.309   4.050  1.5901  1.4050  2.4772
  913MOL0     H20491  -0.895   5.213   3.913  0.9485 -1.2372  1.1343
  913MOL0     H20492  -0.944   5.460   3.867 -0.7908 -2.2802  0.5979
  913MOL0     H20493  -0.771   5.438   3.846 -0.2998  1.4127  0.1996
  913MOL0     H20494  -0.880   5.542   4.106 -0.3747 -0.1434 -0.6545
  913MOL0     H20495  -0.720   5.544   4.054 -0.6760  1.7335  2.2912
  913MOL0     H20496  -0.828   5.754   4.054 -2.0174  0.7671  1.0408
  913MOL0     H20497  -0.940   5.714   3.923  1.1582  3.4824  0.0127
  913MOL0     H20498  -0.193   4.874   4.267  0.1770  1.9726 -1.4328
  913MOL0     H20499  -0.037   4.698   4.183  1.6283 -0.4747 -0.6497
  913MOL0     H20500   0.094   4.426   3.614  0.7255 -2.7036 -1.1168
  913MOL0     H20501   0.318   4.331   3.553  1.6813 -2.2757  2.2748
  913MOL0     H20502   0.923   5.148   2.457 -0.5271 -0.2896 -0.8598
  913MOL0     H20503   0.850   5.354   2.564  0.3267  0.1005 -0.3287
  913MOL0     H20504   0.475   5.615   2.610  0.4518 -3.5387  1.1278
  913MOL0     H20505   0.384   5.827   2.688 -0.8273  0.1275  0.3125
  913MOL0     H20506   0.218   6.004   2.868 -0.3362  2.8745 -2.1684
  913MOL0     H20507   0.346   5.995   2.756 -1.3237 -1.7959 -0.8653
  913MOL0     H20508   0.486   6.141   2.886 -0.1421 -2.7701 -0.5112
  913MOL0     H20509   0.344   6.221   2.817 -0.0162 -0.1872 -0.3198
  913MOL0     H20510   0.399   6.291   3.034 -0.4487 -0.2187  0.2904
  913MOL0     H20511   0.386   6.134   3.107 -0.0023  0.1520 -0.1369
  913MOL0     H20512   0.137   6.130   3.054  1.6701 -1.1519  1.6139
  913MOL0     H20513   0.174   6.267   3.147  0.6316  2.7664 -0.1046
  913MOL0     H20514   0.063   6.462   2.789 -0.5555 -0.8118 -1.0588
  913MOL0     H20515   0.507   5.762   3.088  1.5647  0.7451 -1.8487
  913MOL0     H20516   0.601   5.540   3.025 -0.3554  1.5636  0.8990
  914MOL0     O20517   8.944   2.042   4.846  0.4955 -0.0883  0.5725
  914MOL0     C20518   9.038   1.995   4.787  0.6434 -0.3771  0.7766
  914MOL0     O20519   9.057   2.006   4.652  0.2153  0.5537  0.0358
  914MOL0     C20520   8.971   2.073   4.567 -0.7092 -0.1255  0.1157
  914MOL0     C20521   8.832   2.049   4.564 -0.7454 -0.1828 -0.5650
  914MOL0     C20522   8.755   2.140   4.488  0.3334 -0.6879 -0.5367
  914MOL0     C20523   8.815   2.235   4.407  0.4070 -0.8369 -0.5143
  914MOL0     O20524   8.744   2.314   4.321 -0.4452 -0.1470 -0.1155
  914MOL0     C20525   8.657   2.241   4.235  1.1004  0.3213 -0.5382
  914MOL0     C20526   8.554   2.340   4.175 -0.2443 -0.4171 -0.5212
  914MOL0     C20527   8.459   2.406   4.284 -0.0111 -0.6013  0.6041
  914MOL0     C20528   8.335   2.491   4.213 -0.1831  0.2975  0.0370
  914MOL0     C20529   8.261   2.584   4.305  0.5558  0.3400 -0.0900
  914MOL0     C20530   8.193   2.530   4.431  0.1404  0.1293 -0.4948
  914MOL0     C20531   8.120   2.645   4.507 -1.1083 -0.0669  0.2163
  914MOL0     C20532   8.085   2.608   4.658  0.4017  0.0587 -0.0018
  914MOL0     N20533   8.013   2.714   4.730  0.2850  0.1027  0.3389
  914MOL0     C20534   8.059   2.766   4.845 -0.5287  0.5603 -0.3405
  914MOL0     C20535   7.981   2.886   4.853  0.1079 -0.1766 -0.0714
  914MOL0     C20536   7.993   2.996   4.964  0.2470  0.1118  0.7533
  914MOL0     C20537   8.072   3.116   4.927 -1.3679 -0.0801 -0.3399
  914MOL0     C20538   8.221   3.107   4.964  1.4147  0.1875  0.3442
  914MOL0     C20539   8.299   2.994   4.900  0.0227 -0.8789  1.3421
  914MOL0     O20540   8.293   2.977   4.752  0.1037 -0.0402 -0.1708
  914MOL0     C20541   8.392   2.908   4.685 -0.1099  0.9255  0.1747
  914MOL0     C20542   8.386   2.909   4.543 -0.0147  0.3464 -1.0173
  914MOL0     C20543   8.465   2.831   4.464  0.0693 -0.4040  0.3214
  914MOL0     C20544   8.581   2.762   4.524 -0.2740 -0.2405  0.6596
  914MOL0     C20545   8.698   2.720   4.443 -0.3125 -0.7270 -0.3726
  914MOL0     O20546   8.674   2.728   4.304 -0.0622  0.1967 -0.3106
  914MOL0     C20547   8.781   2.712   4.210 -0.8591  1.0324 -0.4603
  914MOL0     C20548   8.885   2.622   4.232  0.0981  0.3716  0.4629
  914MOL0     C20549   9.000   2.616   4.154  0.4450  0.5728  0.0676
  914MOL0     C20550   9.019   2.700   4.045 -0.0477 -0.2282 -0.6821
  914MOL0     O20551   9.131   2.686   3.972 -0.0666  0.5997 -0.8230
  914MOL0     C20552   9.164   2.765   3.863  0.6662 -0.2783  0.3314
  914MOL0     C20553   9.313   2.745   3.797 -0.1796  0.4956 -0.9148
  914MOL0     C20554   9.426   2.785   3.908 -0.0888 -1.3490  0.7757
  914MOL0     C20555   9.450   2.688   4.021 -0.2080  0.2509 -0.4697
  914MOL0     C20556   9.590   2.696   4.077 -0.6340  0.5316 -0.7698
  914MOL0     C20557   9.605   2.599   4.198 -0.2891  0.3327  0.5910
  914MOL0     C20558   9.744   2.614   4.271 -1.0999 -0.9999 -1.0131
  914MOL0     C20559   9.757   2.552   4.409  0.1335  0.8451  0.0795
  914MOL0    Cl20560   9.685   2.389   4.407  0.3142 -0.1083  0.7650
  914MOL0     C20561   8.911   2.799   4.017 -0.7386  0.9129  0.1012
  914MOL0     C20562   8.805   2.809   4.108  0.4385 -0.4672  0.6166
  914MOL0     O20563   8.814   2.700   4.489  0.2771 -0.3367  0.2684
  914MOL0     C20564   8.595   2.779   4.663 -0.1425  0.5041 -0.7146
  914MOL0     C20565   8.498   2.837   4.744 -0.2275 -0.3748  0.2506
  914MOL0     N20566   7.904   2.906   4.738  1.1397 -0.3712 -0.1372
  914MOL0     N20567   7.925   2.801   4.668 -0.1683  0.5238 -0.2007
  914MOL0     C20568   8.952   2.252   4.411  0.2283 -0.6059  0.4143
  914MOL0     C20569   9.029   2.164   4.485 -0.2575  0.1216 -1.0727
  914MOL0     C20570   9.137   1.922   4.873  0.4544 -0.0589 -0.0847
  914MOL0     C20571   9.090   1.829   4.960  1.5168  0.5630 -0.9936
  914MOL0     C20572   9.167   1.741   5.035 -0.0350 -0.1229 -0.7659
  914MOL0     C20573   9.302   1.770   5.035 -0.2497 -0.4524  0.9579
  914MOL0     O20574   9.402   1.708   5.108  0.1580 -0.3317  0.6973
  914MOL0     C20575   9.368   1.685   5.243 -0.8523 -0.3741 -0.5451
  914MOL0     C20576   9.485   1.613   5.321 -0.2153 -0.6979 -0.6212
  914MOL0     C20577   9.487   1.643   5.475 -1.4619  1.4226 -0.4054
  914MOL0     C20578   9.374   1.569   5.551 -0.4089 -0.0351 -0.9530
  914MOL0     C20579   9.410   1.546   5.695  0.1771  0.1494 -0.2149
  914MOL0     C20580   9.425   1.525   5.814  0.5242 -0.1154 -0.0426
  914MOL0     C20581   9.362   1.881   4.959 -0.2011  0.5370  0.1002
  914MOL0     C20582   9.273   1.951   4.874 -0.8992  0.2244 -0.1918
  914MOL0     H20583   8.783   1.975   4.626  0.4055 -1.4023 -1.0806
  914MOL0     H20584   8.647   2.139   4.480 -0.0452  3.3513  1.1878
  914MOL0     H20585   8.596   2.160   4.274 -1.5242  2.8716  1.0296
  914MOL0     H20586   8.721   2.203   4.155  0.8486 -0.6088 -0.3090
  914MOL0     H20587   8.486   2.300   4.100 -0.7123 -0.4990 -0.0605
  914MOL0     H20588   8.609   2.422   4.127 -0.7971  0.0884 -0.3026
  914MOL0     H20589   8.510   2.472   4.355  0.5849 -1.2870  0.8235
  914MOL0     H20590   8.414   2.319   4.334  0.3152  0.1885  2.3385
  914MOL0     H20591   8.381   2.554   4.137 -1.7225 -1.0387 -2.1242
  914MOL0     H20592   8.268   2.426   4.156  0.9076 -0.3906 -0.4994
  914MOL0     H20593   8.186   2.638   4.246  0.0637  2.4735  2.2887
  914MOL0     H20594   8.335   2.660   4.333  0.7714 -0.4333  1.5870
  914MOL0     H20595   8.270   2.477   4.487  0.2703 -1.4971 -2.0964
  914MOL0     H20596   8.121   2.452   4.405 -0.9451  1.1355 -0.6438
  914MOL0     H20597   8.184   2.734   4.510 -1.3143  0.1325 -0.7536
  914MOL0     H20598   8.030   2.669   4.450  0.4958  1.5498 -1.8244
  914MOL0     H20599   8.173   2.584   4.717  1.1681 -1.9611 -1.8715
  914MOL0     H20600   8.023   2.519   4.645  1.3321 -0.7505  0.9305
  914MOL0     H20601   8.131   2.728   4.917 -1.8189 -1.7452 -0.1510
  914MOL0     H20602   8.028   2.954   5.059  0.7660 -0.2102  0.4252
  914MOL0     H20603   7.889   3.028   4.971  0.0218  0.1040 -1.6373
  914MOL0     H20604   8.026   3.203   4.975  2.8512  2.1152  0.2462
  914MOL0     H20605   8.068   3.147   4.822  2.4395  0.0819 -0.5709
  914MOL0     H20606   8.276   3.196   4.934  1.5074 -0.6112 -2.0914
  914MOL0     H20607   8.230   3.105   5.073 -1.1039  0.2178  0.6128
  914MOL0     H20608   8.263   2.910   4.959 -0.5379 -0.3886  1.7034
  914MOL0     H20609   8.406   3.009   4.918  0.2345  0.3594 -0.6895
  914MOL0     H20610   8.299   2.959   4.502  0.4140  2.5680  0.5792
  914MOL0     H20611   8.442   2.846   4.359  0.9185  1.0551  0.3200
  914MOL0     H20612   8.883   2.560   4.321 -0.6195  2.8271  2.2838
  914MOL0     H20613   9.076   2.551   4.197  2.7919  3.5488  0.7759
  914MOL0     H20614   9.163   2.871   3.889  0.0748 -0.1229 -0.3097
  914MOL0     H20615   9.098   2.740   3.780  2.4110 -5.3676  0.0970
  914MOL0     H20616   9.313   2.818   3.715 -2.1741  1.6285  0.0140
  914MOL0     H20617   9.330   2.646   3.755  4.5585  0.9972 -0.7621
  914MOL0     H20618   9.391   2.881   3.950  1.3294  0.6220 -2.2444
  914MOL0     H20619   9.524   2.811   3.868 -0.3408  0.5526  1.2964
  914MOL0     H20620   9.377   2.706   4.100 -1.1182  0.9916 -1.4605
  914MOL0     H20621   9.443   2.580   4.002 -1.6790 -0.1775  2.0302
  914MOL0     H20622   9.615   2.799   4.103  1.2057  0.2292 -1.1712
  914MOL0     H20623   9.659   2.663   3.999 -2.5737 -1.3010 -1.8091
  914MOL0     H20624   9.614   2.492   4.176  1.7982 -0.3584  4.1135
  914MOL0     H20625   9.522   2.601   4.269  0.5835 -3.0186  1.8604
  914MOL0     H20626   9.837   2.585   4.221  1.5215  2.8075  1.1066
  914MOL0     H20627   9.760   2.720   4.291 -2.0940 -1.1083  0.5375
  914MOL0     H20628   9.700   2.616   4.477  0.7514  1.6447 -0.1434
  914MOL0     H20629   9.860   2.547   4.445 -0.3515 -3.1801  1.4305
  914MOL0     H20630   8.920   2.872   3.937 -1.0360  0.4749 -0.3395
  914MOL0     H20631   8.721   2.877   4.101  0.7259 -0.2397 -1.2558
  914MOL0     H20632   8.680   2.731   4.710 -0.4548  0.5750 -0.0748
  914MOL0     H20633   8.508   2.837   4.852 -2.3574 -2.7271  0.5289
  914MOL0     H20634   8.983   2.340   4.355  0.3848  0.4109  2.0286
  914MOL0     H20635   9.137   2.158   4.488 -0.3512 -2.2826  0.3218
  914MOL0     H20636   8.984   1.812   4.970  1.3071  0.7825 -2.5730
  914MOL0     H20637   9.122   1.655   5.083  0.2063 -0.6861 -1.5415
  914MOL0     H20638   9.282   1.618   5.244 -0.9659 -0.2478 -1.4051
  914MOL0     H20639   9.343   1.773   5.303 -0.1912 -1.8758  2.1087
  914MOL0     H20640   9.460   1.508   5.302  1.1099 -1.5706  1.9827
  914MOL0     H20641   9.581   1.641   5.277  1.7428 -1.5192  2.7744
  914MOL0     H20642   9.494   1.751   5.490 -0.6520  1.2843  0.2685
  914MOL0     H20643   9.580   1.609   5.522 -1.1245  1.1262 -1.2636
  914MOL0     H20644   9.280   1.625   5.549 -0.1917  0.3229 -1.6816
  914MOL0     H20645   9.339   1.475   5.506 -1.9552  1.8381 -3.9667
  914MOL0     H20646   9.451   1.524   5.918  0.6548 -2.1596 -0.0605
  914MOL0     H20647   9.470   1.886   4.962  0.3042 -3.7340 -2.3395
  914MOL0     H20648   9.308   2.034   4.814  0.2198  0.8521  1.2876
  915MOL0     O20649   4.478  10.049   0.259  0.4798  0.4537  0.6207
  915MOL0     C20650   4.355  10.065   0.254 -0.4191  0.6554 -0.1222
  915MOL0     O20651   4.278  10.074   0.368 -0.1797 -1.2924 -1.2156
  915MOL0     C20652   4.342  10.042   0.490  1.2936 -0.2182  0.6155
  915MOL0     C20653   4.412   9.921   0.513 -0.3498 -0.7091  0.4638
  915MOL0     C20654   4.444   9.878   0.639  0.2434 -0.1088 -0.7710
  915MOL0     C20655   4.413   9.953   0.755  0.2462 -0.2825  0.2020
  915MOL0     O20656   4.446   9.922   0.885 -0.5462 -0.2784 -1.2385
  915MOL0     C20657   4.501   9.797   0.920 -1.1896  0.8752  0.4411
  915MOL0     C20658   4.546   9.776   1.066 -0.0723 -0.3365  0.3140
  915MOL0     C20659   4.670   9.854   1.103 -0.0360  1.3058  0.4564
  915MOL0     C20660   4.696   9.817   1.251  0.5792 -0.3477  1.3170
  915MOL0     C20661   4.817   9.906   1.306 -0.0052  0.2934  0.0996
  915MOL0     C20662   4.818   9.910   1.468 -1.0546 -0.2452 -0.6208
  915MOL0     C20663   4.907  10.009   1.541  0.2607  0.1667  0.5387
  915MOL0     C20664   4.858  10.020   1.691 -1.1354  0.1769 -0.3919
  915MOL0     N20665   4.726  10.090   1.715 -0.3772 -1.3720 -0.2956
  915MOL0     C20666   4.600  10.037   1.698  0.0233  0.2343  0.1358
  915MOL0     C20667   4.514  10.140   1.719 -0.2269 -0.0427  0.3665
  915MOL0     C20668   4.367  10.127   1.706 -0.6676  0.6089 -0.8577
  915MOL0     C20669   4.281  10.251   1.694  0.2389  0.5067  0.9903
  915MOL0     C20670   4.292  10.341   1.813  0.4585  0.2747 -0.6292
  915MOL0     C20671   4.197  10.460   1.812 -0.8118  1.1265 -0.0977
  915MOL0     O20672   4.065  10.422   1.776 -0.6294  0.1125 -0.0250
  915MOL0     C20673   3.965  10.511   1.813  1.5073  0.3155  0.2351
  915MOL0     C20674   3.982  10.642   1.847  0.4252  0.2593  0.1186
  915MOL0     C20675   3.865  10.733   1.842 -0.2783 -0.5209  0.9351
  915MOL0     C20676   3.737  10.680   1.824  0.8546 -1.0147 -1.1963
  915MOL0     C20677   3.622  10.774   1.837 -0.2145 -0.1100  0.5837
  915MOL0     O20678   3.637  10.899   1.782 -0.7156  0.1038  0.2019
  915MOL0     C20679   3.542  10.984   1.811  1.0254  0.2241  0.5769
  915MOL0     C20680   3.554  11.057   1.935 -1.3837  0.2850 -1.2013
  915MOL0     C20681   3.463  11.157   1.964 -0.5763 -0.0089  0.1722
  915MOL0     C20682   3.359  11.183   1.874  0.6853  0.2679  1.0043
  915MOL0     O20683   3.258  11.283   1.888 -0.4865  0.0289 -0.4070
  915MOL0     C20684   3.248  11.341   2.020  0.2804 -0.8686 -0.4135
  915MOL0     C20685   3.101  11.378   2.042 -0.3855  0.0570 -0.2336
  915MOL0     C20686   3.061  11.482   1.936 -0.9297 -0.3087 -0.1228
  915MOL0     C20687   2.910  11.504   1.935 -0.4106  0.6925  0.1534
  915MOL0     C20688   2.866  11.563   1.804 -0.1127  0.2504 -0.5912
  915MOL0     C20689   2.713  11.533   1.778  0.8589 -0.0596  0.1273
  915MOL0     C20690   2.641  11.609   1.894  0.7163  0.1800 -0.2336
  915MOL0     C20691   2.482  11.605   1.884 -1.1805  0.5330  0.5499
  915MOL0    Cl20692   2.436  11.428   1.907  0.2584  0.0139 -0.6750
  915MOL0     C20693   3.339  11.101   1.760  0.2610 -0.2816 -0.2074
  915MOL0     C20694   3.433  11.004   1.722  0.5274  0.3818  0.4566
  915MOL0     O20695   3.525  10.727   1.893  0.2624 -0.7256 -0.2595
  915MOL0     C20696   3.718  10.551   1.794  0.2069  0.2859  0.1659
  915MOL0     C20697   3.831  10.464   1.786  0.1429 -1.0073  0.0350
  915MOL0     N20698   4.587  10.258   1.737  0.0105  0.5347 -0.7164
  915MOL0     N20699   4.712  10.226   1.727 -0.0523 -0.2214 -0.3664
  915MOL0     C20700   4.338  10.072   0.730 -0.3775 -1.2947 -0.9319
  915MOL0     C20701   4.301  10.119   0.603 -0.4291  0.7481 -0.0668
  915MOL0     C20702   4.286  10.074   0.126 -0.1717  0.2773  0.0810
  915MOL0     C20703   4.356  10.115   0.012  0.0820  0.0725 -0.4429
  915MOL0     C20704   4.301  10.138  -0.111  0.2940 -0.3932  0.1948
  915MOL0     C20705   4.161  10.113  -0.122 -0.6560  0.9985 -0.1711
  915MOL0     O20706   4.087  10.145  -0.229  0.9069  0.0347 -0.1480
  915MOL0     C20707   4.150  10.114  -0.357  1.3457 -0.8456 -0.0523
  915MOL0     C20708   4.044  10.147  -0.465  0.6634  0.7123  0.0169
  915MOL0     C20709   4.081  10.113  -0.604 -0.6652 -0.3256 -0.1324
  915MOL0     C20710   4.103   9.963  -0.634 -0.4288  0.8352  0.0185
  915MOL0     C20711   4.133   9.938  -0.771 -0.4523  0.6148  0.3384
  915MOL0     C20712   4.156   9.934  -0.894 -1.1829 -0.1136  0.5454
  915MOL0     C20713   4.091  10.064  -0.011  0.9580 -1.2531 -0.4733
  915MOL0     C20714   4.153  10.045   0.108 -0.2207 -0.7396 -0.3050
  915MOL0     H20715   4.443   9.861   0.429  0.7086  2.1506 -1.3471
  915MOL0     H20716   4.511   9.792   0.645  2.1919  1.2867 -1.4103
  915MOL0     H20717   4.590   9.769   0.863 -1.7731 -0.4225  0.1310
  915MOL0     H20718   4.438   9.713   0.891 -0.1337  1.2092 -3.2596
  915MOL0     H20719   4.556   9.667   1.072 -0.2220 -0.4123 -0.6583
  915MOL0     H20720   4.465   9.801   1.136  1.4063  0.2483  1.8710
  915MOL0     H20721   4.665   9.963   1.100  0.6558  1.3285 -1.9919
  915MOL0     H20722   4.758   9.829   1.043 -0.8815 -0.4586 -0.1150
  915MOL0     H20723   4.612   9.848   1.314  0.2229  1.1060  0.1962
  915MOL0     H20724   4.703   9.708   1.260 -4.6392 -0.9966  0.6925
  915MOL0     H20725   4.800  10.008   1.270 -0.3318  0.2006 -0.0187
  915MOL0     H20726   4.906   9.863   1.261 -1.8580 -2.6654 -1.0180
  915MOL0     H20727   4.846   9.809   1.497 -0.0167 -0.2443 -1.5799
  915MOL0     H20728   4.717   9.933   1.505 -0.9328  0.1184 -0.5099
  915MOL0     H20729   5.014   9.986   1.538  0.9380  2.9850  0.6734
  915MOL0     H20730   4.900  10.103   1.486  0.6512 -1.0549 -1.7451
  915MOL0     H20731   4.931  10.085   1.742 -0.5188 -0.0710 -0.9481
  915MOL0     H20732   4.881   9.922   1.734 -0.1639  0.0729 -1.1131
  915MOL0     H20733   4.562   9.939   1.672  1.0644 -0.8559  2.3882
  915MOL0     H20734   4.338  10.067   1.793  1.0227  0.8210 -0.1107
  915MOL0     H20735   4.341  10.075   1.613 -0.5773  1.0243 -1.1171
  915MOL0     H20736   4.174  10.226   1.691  0.8396 -2.2409 -1.6356
  915MOL0     H20737   4.304  10.305   1.602  2.2531 -3.5173 -1.0973
  915MOL0     H20738   4.272  10.282   1.903 -1.0698  1.7189  0.0188
  915MOL0     H20739   4.393  10.380   1.825  1.1832 -1.6255 -0.1860
  915MOL0     H20740   4.233  10.530   1.735 -0.1084 -2.0787 -2.9278
  915MOL0     H20741   4.201  10.509   1.910 -0.2699  3.6918 -1.3050
  915MOL0     H20742   4.083  10.680   1.865 -0.2990  1.0336  3.2299
  915MOL0     H20743   3.871  10.835   1.879 -0.5641 -1.8135  5.0683
  915MOL0     H20744   3.627  11.026   2.009 -2.4465  0.7353  0.0630
  915MOL0     H20745   3.479  11.206   2.060 -0.7762 -1.6574  1.0941
  915MOL0     H20746   3.311  11.431   2.012  2.2625 -1.9344  1.8288
  915MOL0     H20747   3.283  11.281   2.105 -0.9503 -2.0106 -0.7061
  915MOL0     H20748   3.087  11.422   2.142  1.4793 -1.5973  0.8153
  915MOL0     H20749   3.042  11.286   2.036 -0.3159 -0.0853  0.9999
  915MOL0     H20750   3.100  11.458   1.837  0.4671 -2.0815  0.7909
  915MOL0     H20751   3.096  11.580   1.972 -5.0348  1.4106 -0.3049
  915MOL0     H20752   2.853  11.413   1.959  0.4775  0.6559  2.3234
  915MOL0     H20753   2.871  11.558   2.021 -0.9056 -2.0600  1.7538
  915MOL0     H20754   2.916  11.510   1.722 -1.4383 -1.5021 -0.3335
  915MOL0     H20755   2.897  11.668   1.797  0.4944  0.1846  0.7368
  915MOL0     H20756   2.687  11.427   1.785  2.8491 -0.6401 -0.6190
  915MOL0     H20757   2.669  11.564   1.682 -0.9700  0.4207  1.0715
  915MOL0     H20758   2.668  11.566   1.991 -0.7291 -2.2822 -0.8252
  915MOL0     H20759   2.660  11.717   1.892  3.4189 -0.2110 -2.1821
  915MOL0     H20760   2.461  11.639   1.782  0.0364  0.8610  0.3866
  915MOL0     H20761   2.423  11.666   1.952 -2.0296  1.9622 -1.3770
  915MOL0     H20762   3.251  11.129   1.703  0.5443  1.7748  0.2818
  915MOL0     H20763   3.414  10.954   1.627 -2.6071  2.5471 -0.2154
  915MOL0     H20764   3.618  10.518   1.768  0.6440 -1.0112  0.0548
  915MOL0     H20765   3.819  10.366   1.741 -0.2511  0.2746 -2.8850
  915MOL0     H20766   4.323  10.140   0.813 -1.5568 -0.1249 -2.0575
  915MOL0     H20767   4.234  10.202   0.582  0.4627  1.5647  0.2596
  915MOL0     H20768   4.462  10.134   0.028 -0.4935  1.0605  3.2749
  915MOL0     H20769   4.373  10.163  -0.188  0.3261  1.7267  0.8424
  915MOL0     H20770   4.182  10.009  -0.355 -1.2570 -1.7075  0.1096
  915MOL0     H20771   4.242  10.165  -0.387  0.1831  2.3259  1.3171
  915MOL0     H20772   3.946  10.099  -0.453  1.8452 -2.7441 -2.3909
  915MOL0     H20773   4.029  10.255  -0.467  1.1979  0.9593  3.3789
  915MOL0     H20774   4.173  10.171  -0.620 -1.6816  1.0733 -1.1543
  915MOL0     H20775   4.009  10.153  -0.676 -1.4364 -1.5634 -0.0618
  915MOL0     H20776   4.181   9.918  -0.572 -3.9196 -3.1438  2.0212
  915MOL0     H20777   4.014   9.901  -0.622  1.0680 -0.9324  3.3534
  915MOL0     H20778   4.198   9.915  -0.991  0.3730 -0.0601  1.1878
  915MOL0     H20779   3.985  10.045  -0.024  0.6725  0.5223 -1.0401
  915MOL0     H20780   4.102   9.989   0.187 -0.5977 -3.3179 -2.2321
  916MOL0     O20781   9.857   6.054  10.928  0.4711  0.1170 -0.1833
  916MOL0     C20782   9.876   6.169  10.953  0.4298 -0.7629 -0.2023
  916MOL0     O20783   9.881   6.222  11.086  0.2395  0.0400  0.5290
  916MOL0     C20784   9.868   6.132  11.190  0.0245 -0.4500 -0.4865
  916MOL0     C20785   9.802   6.190  11.303  0.0956  0.5326 -0.0019
  916MOL0     C20786   9.798   6.119  11.423 -0.5338  0.4733 -1.0253
  916MOL0     C20787   9.860   5.996  11.436 -0.2761 -0.4815  0.8878
  916MOL0     O20788   9.859   5.921  11.548 -0.1937  0.0818 -0.1499
  916MOL0     C20789   9.741   5.911  11.633  0.3495  0.1306  0.4869
  916MOL0     C20790   9.760   5.805  11.737 -0.1852  0.6149 -0.1021
  916MOL0     C20791   9.630   5.725  11.763  0.9087 -0.4750  0.3361
  916MOL0     C20792   9.655   5.606  11.846 -0.1201 -0.0119 -0.3158
  916MOL0     C20793   9.525   5.530  11.868  0.1669  0.3055  0.4610
  916MOL0     C20794   9.470   5.449  11.748  0.3416 -0.3166 -0.4278
  916MOL0     C20795   9.545   5.325  11.717 -0.2017 -0.8095  0.1286
  916MOL0     C20796   9.578   5.306  11.563  0.5027  0.5882  0.5760
  916MOL0     N20797   9.706   5.362  11.532 -0.1554  0.9062 -0.2437
  916MOL0     C20798   9.827   5.322  11.584 -0.0949 -0.4338  0.3809
  916MOL0     C20799   9.927   5.397  11.524  0.0675 -0.1866  0.8174
  916MOL0     C20800  10.071   5.382  11.533 -0.2688 -0.0915  0.3945
  916MOL0     C20801  10.144   5.499  11.600  0.1444 -0.3077  0.5744
  916MOL0     C20802  10.150   5.625  11.517 -1.0124 -0.5865  0.5949
  916MOL0     C20803  10.245   5.734  11.579  0.0937  0.9091 -0.8052
  916MOL0     O20804  10.301   5.795  11.455 -0.0655  0.0867  0.8439
  916MOL0     C20805  10.403   5.882  11.473 -0.1024  0.5572 -0.3141
  916MOL0     C20806  10.458   5.938  11.361 -0.9336 -0.5093 -0.5718
  916MOL0     C20807  10.562   6.031  11.378 -0.2301 -0.3606  0.2462
  916MOL0     C20808  10.615   6.065  11.502 -0.8434  0.8643 -0.3561
  916MOL0     C20809  10.734   6.149  11.504  0.3529 -0.4779  0.1318
  916MOL0     O20810  10.765   6.189  11.638 -0.8668 -0.6912  0.3285
  916MOL0     C20811  10.861   6.289  11.642  0.1469 -0.5393 -0.5063
  916MOL0     C20812  10.960   6.275  11.736 -0.1754 -0.3112 -0.1779
  916MOL0     C20813  11.061   6.364  11.746 -0.3189  1.6258 -0.4640
  916MOL0     C20814  11.064   6.478  11.668 -0.1463 -0.3891 -0.7024
  916MOL0     O20815  11.167   6.571  11.669 -0.0896  0.4696 -0.2118
  916MOL0     C20816  11.191   6.634  11.791  0.4270  0.2408 -0.0371
  916MOL0     C20817  11.192   6.780  11.787  0.0344  0.2160 -0.3689
  916MOL0     C20818  11.070   6.853  11.742 -0.1956  0.1105 -0.3716
  916MOL0     C20819  11.066   7.003  11.769  0.0562  0.2764 -0.3293
  916MOL0     C20820  10.924   7.081  11.762  0.5123  1.1332 -0.3640
  916MOL0     C20821  10.950   7.223  11.796  0.1078 -0.4289  0.3376
  916MOL0     C20822  10.839   7.320  11.746  0.0707  0.7948  0.4084
  916MOL0     C20823  10.801   7.412  11.855 -0.3152 -0.5041  0.2778
  916MOL0    Cl20824  10.913   7.538  11.887 -0.3638 -0.2245  0.4478
  916MOL0     C20825  10.965   6.500  11.575  0.1554  0.2775 -0.4238
  916MOL0     C20826  10.857   6.409  11.565 -0.0424  0.3407  0.2525
  916MOL0     O20827  10.792   6.186  11.402 -0.2326 -0.5562 -0.2708
  916MOL0     C20828  10.576   6.002  11.620  0.7958  0.5587 -0.4475
  916MOL0     C20829  10.461   5.915  11.600  0.2279 -0.1386  0.3582
  916MOL0     N20830   9.858   5.480  11.436 -0.8195 -1.0114  0.2221
  916MOL0     N20831   9.731   5.462  11.443 -0.3735 -0.1774 -0.3946
  916MOL0     C20832   9.933   5.950  11.324  0.0924  0.1924  0.2248
  916MOL0     C20833   9.940   6.015  11.203  0.8074  0.6626 -0.2458
  916MOL0     C20834   9.884   6.259  10.837  0.8370  0.2488  1.2544
  916MOL0     C20835   9.934   6.386  10.844  0.2562 -0.9852  0.9195
  916MOL0     C20836   9.933   6.467  10.737 -0.2904  0.7043  0.2006
  916MOL0     C20837   9.897   6.417  10.613 -0.5064 -0.0885  0.0948
  916MOL0     O20838   9.924   6.478  10.500  0.0767 -0.9322  0.8713
  916MOL0     C20839   9.997   6.603  10.493  0.0673  0.9302 -0.0289
  916MOL0     C20840  10.025   6.639  10.342 -0.5886 -0.3604 -0.4272
  916MOL0     C20841  10.148   6.573  10.292  0.1501  0.1044  1.2433
  916MOL0     C20842  10.268   6.660  10.321  0.0229 -0.7794  0.0666
  916MOL0     C20843  10.393   6.590  10.301 -0.0870  0.6104 -0.3804
  916MOL0     C20844  10.503   6.543  10.281 -0.5791 -0.5506  0.2915
  916MOL0     C20845   9.859   6.291  10.597  0.0440 -0.5631  0.4609
  916MOL0     C20846   9.841   6.211  10.706 -0.5987 -0.1423 -0.1875
  916MOL0     H20847   9.758   6.289  11.305 -0.3687  0.3252  1.7645
  916MOL0     H20848   9.749   6.163  11.509 -1.3592 -3.7795  0.8835
  916MOL0     H20849   9.660   5.870  11.572  0.8995 -3.3426  1.8471
  916MOL0     H20850   9.708   6.005  11.677  0.6343  0.2442  0.4625
  916MOL0     H20851   9.796   5.842  11.833  0.0262 -2.7949  1.2713
  916MOL0     H20852   9.842   5.739  11.708 -1.8778 -2.1002  0.9358
  916MOL0     H20853   9.588   5.692  11.667 -0.1969  1.6597  0.0434
  916MOL0     H20854   9.556   5.793  11.805  1.7332  1.8308 -1.6812
  916MOL0     H20855   9.728   5.539  11.799 -1.2770 -2.5091  1.2277
  916MOL0     H20856   9.699   5.640  11.940 -3.5724 -2.4149  2.4227
  916MOL0     H20857   9.443   5.598  11.892 -2.4320 -1.6611 -2.0687
  916MOL0     H20858   9.529   5.461  11.953 -1.5072  0.4979  0.7369
  916MOL0     H20859   9.458   5.518  11.664  0.8205  5.0424  3.3906
  916MOL0     H20860   9.363   5.428  11.759  0.2834  0.1392 -0.0938
  916MOL0     H20861   9.637   5.334  11.775 -0.7193 -2.1024  1.2330
  916MOL0     H20862   9.486   5.237  11.746 -0.2829 -1.1629 -1.0500
  916MOL0     H20863   9.508   5.348  11.490  0.6438 -0.8505 -0.4226
  916MOL0     H20864   9.583   5.199  11.539 -0.1513  0.2380  1.9079
  916MOL0     H20865   9.838   5.254  11.668 -0.4435 -0.8883  0.0641
  916MOL0     H20866  10.110   5.382  11.431  0.7063 -0.9827  0.7423
  916MOL0     H20867  10.088   5.287  11.585 -0.9211  1.1342  2.9734
  916MOL0     H20868  10.244   5.474  11.636 -0.3859 -0.9935  1.6133
  916MOL0     H20869  10.090   5.530  11.690 -2.3187  0.3452 -1.0094
  916MOL0     H20870  10.184   5.598  11.417  1.3579  1.2558  0.7874
  916MOL0     H20871  10.051   5.668  11.501 -1.5466 -2.2594 -0.8182
  916MOL0     H20872  10.314   5.673  11.638 -2.7139 -2.7620 -1.0033
  916MOL0     H20873  10.190   5.801  11.645  2.3381  0.6645  1.4715
  916MOL0     H20874  10.425   5.927  11.258  1.8434 -2.0572 -1.3957
  916MOL0     H20875  10.583   6.077  11.282 -1.4219 -4.0768 -1.9886
  916MOL0     H20876  10.957   6.179  11.787 -1.2118 -1.4268 -2.2099
  916MOL0     H20877  11.145   6.331  11.806  1.4573 -1.3297 -4.1234
  916MOL0     H20878  11.282   6.588  11.832 -0.9353 -2.5100  0.1605
  916MOL0     H20879  11.120   6.604  11.869  0.6715 -1.3835 -0.3974
  916MOL0     H20880  11.275   6.812  11.722  0.2658  0.3873  0.0059
  916MOL0     H20881  11.223   6.812  11.886  1.9818  0.9010 -1.1436
  916MOL0     H20882  10.976   6.812  11.780 -1.8598 -0.1909 -4.3971
  916MOL0     H20883  11.068   6.838  11.634  0.6394  0.9085 -0.5115
  916MOL0     H20884  11.100   7.020  11.872 -3.7712  0.9677  0.9704
  916MOL0     H20885  11.141   7.048  11.703  0.4931  1.1068  0.6921
  916MOL0     H20886  10.850   7.029  11.824 -1.0817 -1.2437 -3.9429
  916MOL0     H20887  10.889   7.063  11.660  1.9529 -0.1392 -0.6709
  916MOL0     H20888  11.041   7.248  11.742 -1.2833  0.3763 -1.7837
  916MOL0     H20889  10.962   7.224  11.905  3.2781 -1.9258  0.0919
  916MOL0     H20890  10.872   7.373  11.655  1.0574 -2.5215 -1.3281
  916MOL0     H20891  10.743   7.275  11.722  0.6249  0.4891 -1.4527
  916MOL0     H20892  10.779   7.352  11.944 -1.3123  1.3637  1.3645
  916MOL0     H20893  10.699   7.448  11.835 -1.6664 -3.8981  0.4039
  916MOL0     H20894  10.980   6.580  11.504  2.8197  0.1565 -0.0987
  916MOL0     H20895  10.788   6.431  11.484  2.2267 -2.3071 -2.6067
  916MOL0     H20896  10.619   6.004  11.720  0.8618  0.4990 -0.4736
  916MOL0     H20897  10.424   5.865  11.688  0.9982 -1.9150 -0.2836
  916MOL0     H20898   9.975   5.850  11.331 -2.9989 -1.3595 -1.1869
  916MOL0     H20899   9.995   5.972  11.120  1.9210  0.0855  0.7801
  916MOL0     H20900   9.967   6.426  10.940  0.8037 -5.1625  2.7103
  916MOL0     H20901   9.965   6.568  10.760  0.5254  0.2897  0.9632
  916MOL0     H20902  10.092   6.602  10.548  2.3178 -2.4393 -3.4744
  916MOL0     H20903   9.943   6.687  10.538 -0.0721  1.9840 -2.0569
  916MOL0     H20904   9.940   6.614  10.278 -1.1202  1.6681 -0.5932
  916MOL0     H20905  10.030   6.747  10.324  0.9265 -0.4339 -0.6126
  916MOL0     H20906  10.143   6.549  10.185 -1.3660  0.9892  1.0723
  916MOL0     H20907  10.167   6.481  10.346  0.5275 -2.6899 -3.1403
  916MOL0     H20908  10.266   6.745  10.252 -0.5339 -0.6440  0.2430
  916MOL0     H20909  10.266   6.703  10.422  1.4337 -1.2316  0.3011
  916MOL0     H20910  10.596   6.490  10.277 -0.8850 -1.0476 -0.6912
  916MOL0     H20911   9.836   6.271  10.492 -1.1736 -0.8471  0.7635
  916MOL0     H20912   9.789   6.117  10.690  0.8430 -0.6858 -1.9537
  917MOL0     O20913   2.559   6.669   9.772  0.1979 -0.4283  0.2359
  917MOL0     C20914   2.449   6.694   9.831 -0.4944  0.0674  0.9182
  917MOL0     O20915   2.415   6.658   9.961 -0.1922 -0.2837 -0.0174
  917MOL0     C20916   2.512   6.601  10.039  1.2526  0.4185  0.2342
  917MOL0     C20917   2.639   6.659  10.048 -0.2460 -0.0194 -1.3605
  917MOL0     C20918   2.737   6.597  10.122  0.0072  0.0206 -1.0923
  917MOL0     C20919   2.715   6.479  10.196  0.4114  0.3532 -0.7918
  917MOL0     O20920   2.816   6.416  10.266  0.3572  0.3005 -0.9346
  917MOL0     C20921   2.797   6.368  10.400  0.4858  0.6064 -0.6037
  917MOL0     C20922   2.919   6.301  10.464 -0.0313  0.3152  0.0291
  917MOL0     C20923   2.905   6.278  10.614  0.4359  0.0797 -0.6979
  917MOL0     C20924   3.041   6.266  10.691 -0.1313  0.0622  0.3155
  917MOL0     C20925   3.024   6.230  10.842  0.4109 -0.6039  0.9847
  917MOL0     C20926   2.958   6.340  10.922  0.6133  0.1919 -0.0978
  917MOL0     C20927   2.927   6.293  11.066 -0.4107 -0.0376  0.0015
  917MOL0     C20928   2.871   6.394  11.161  0.5888 -0.0576 -0.0171
  917MOL0     N20929   2.896   6.363  11.305  0.1033  0.2771 -1.0414
  917MOL0     C20930   2.790   6.344  11.397 -1.7017 -0.2189 -0.3752
  917MOL0     C20931   2.854   6.303  11.512  0.6897 -0.4316 -0.6137
  917MOL0     C20932   2.784   6.294  11.647  0.7274  0.2666  0.1531
  917MOL0     C20933   2.713   6.428  11.689  0.9166 -0.3402  0.6227
  917MOL0     C20934   2.805   6.551  11.703 -0.2448 -0.2871 -1.1553
  917MOL0     C20935   2.925   6.518  11.795 -0.2017  0.1921  0.1797
  917MOL0     O20936   2.897   6.485  11.931 -1.0794 -0.1152  0.1792
  917MOL0     C20937   2.971   6.559  12.019  1.0877  0.7669  0.1869
  917MOL0     C20938   3.097   6.509  12.051 -0.5127 -0.3548 -0.8400
  917MOL0     C20939   3.174   6.577  12.153  0.4702 -0.0847 -0.4131
  917MOL0     C20940   3.136   6.699  12.215  0.2686  0.2719 -0.6286
  917MOL0     C20941   3.214   6.756  12.323  0.6287 -0.6367 -0.1652
  917MOL0     O20942   3.351   6.725  12.325  0.7291 -0.2789 -0.1893
  917MOL0     C20943   3.440   6.789  12.418  0.1306  0.9316 -0.1571
  917MOL0     C20944   3.576   6.740  12.396  0.4129  0.1169 -1.1777
  917MOL0     C20945   3.685   6.795  12.475  0.4109 -0.7084  0.1217
  917MOL0     C20946   3.649   6.896  12.563 -0.7891  0.1478 -0.7221
  917MOL0     O20947   3.752   6.947  12.638 -0.0232 -0.2695  0.0533
  917MOL0     C20948   3.739   7.085  12.681 -0.1019 -0.2871 -0.2082
  917MOL0     C20949   3.883   7.144  12.711  0.4896  0.1808 -0.2920
  917MOL0     C20950   4.003   7.058  12.658  0.9721  0.1507 -1.0789
  917MOL0     C20951   4.139   7.128  12.695 -0.2680 -0.0206 -0.8652
  917MOL0     C20952   4.264   7.041  12.674 -0.6290 -0.2550  0.2422
  917MOL0     C20953   4.397   7.110  12.696 -0.3124 -0.0407 -0.2883
  917MOL0     C20954   4.518   7.013  12.662 -0.6706 -0.3593 -0.8158
  917MOL0     C20955   4.650   7.077  12.694 -0.3827 -0.6105 -0.4125
  917MOL0    Cl20956   4.661   7.112  12.869 -0.0795 -0.1773 -0.4073
  917MOL0     C20957   3.513   6.930  12.588  0.1730 -0.1414 -0.4105
  917MOL0     C20958   3.408   6.868  12.523 -0.3980  0.1082  0.3953
  917MOL0     O20959   3.155   6.839  12.396 -0.8615 -0.0568 -0.9084
  917MOL0     C20960   3.003   6.749  12.179 -0.3060 -0.6553  0.7125
  917MOL0     C20961   2.919   6.674  12.091  0.2497 -0.5114  0.5315
  917MOL0     N20962   2.989   6.301  11.486 -0.0911  0.7145  0.9266
  917MOL0     N20963   3.018   6.341  11.367 -0.2942  0.2775 -0.3479
  917MOL0     C20964   2.592   6.421  10.191  0.2790  1.0382  0.2705
  917MOL0     C20965   2.494   6.483  10.115 -0.0368  1.2188  0.1113
  917MOL0     C20966   2.337   6.757   9.762 -0.0080 -0.0856  1.1057
  917MOL0     C20967   2.213   6.797   9.822  0.4928 -0.5054  0.1285
  917MOL0     C20968   2.108   6.857   9.743 -0.0783 -0.0423 -0.1907
  917MOL0     C20969   2.118   6.875   9.605 -0.2123  0.2418 -0.3891
  917MOL0     O20970   2.036   6.940   9.525  0.1098 -0.2011 -0.8363
  917MOL0     C20971   1.892   6.924   9.547 -0.6942 -0.6591  0.4859
  917MOL0     C20972   1.855   6.780   9.536  0.2963  0.0117  0.3143
  917MOL0     C20973   1.704   6.746   9.567 -0.4661  0.0896  0.3594
  917MOL0     C20974   1.608   6.844   9.503 -0.5380  0.4492 -0.4386
  917MOL0     C20975   1.476   6.797   9.549  0.7621 -0.4576  0.6291
  917MOL0     C20976   1.369   6.769   9.596 -0.2475  0.4522  0.6963
  917MOL0     C20977   2.234   6.830   9.544  0.2121 -0.6963 -0.8012
  917MOL0     C20978   2.341   6.775   9.622  0.4505  1.5423 -0.0680
  917MOL0     H20979   2.672   6.754  10.006  0.8947  0.5036  0.5992
  917MOL0     H20980   2.837   6.639  10.120  0.8294 -1.7976 -0.5158
  917MOL0     H20981   2.714   6.298  10.405 -2.3291  3.5895 -2.1050
  917MOL0     H20982   2.760   6.454  10.456  0.4949  0.2798 -0.0877
  917MOL0     H20983   2.995   6.377  10.446  0.5828 -0.3859 -0.3787
  917MOL0     H20984   2.961   6.215  10.411  1.1478  0.4050  0.7939
  917MOL0     H20985   2.841   6.193  10.638  0.5486 -0.1559 -1.2192
  917MOL0     H20986   2.861   6.372  10.647 -1.1365 -0.1668 -1.9896
  917MOL0     H20987   3.098   6.182  10.651  2.4674  0.7320  2.3496
  917MOL0     H20988   3.095   6.358  10.666 -1.1142 -0.2550 -3.7776
  917MOL0     H20989   3.121   6.201  10.883  0.2660  0.8092  2.3743
  917MOL0     H20990   2.960   6.141  10.838  1.4250 -1.3146 -0.7551
  917MOL0     H20991   2.858   6.376  10.896 -0.5936  0.1862  3.8156
  917MOL0     H20992   3.017   6.432  10.918  0.3848  0.3069 -3.2894
  917MOL0     H20993   2.858   6.209  11.057 -2.8596  1.9718 -1.6373
  917MOL0     H20994   3.025   6.260  11.101  0.2054  3.6344  2.3633
  917MOL0     H20995   2.763   6.398  11.143  0.7726  0.0335 -1.2500
  917MOL0     H20996   2.900   6.497  11.142 -0.7413  0.4704  0.7239
  917MOL0     H20997   2.687   6.364  11.369 -0.5118  2.0079 -3.7555
  917MOL0     H20998   2.849   6.247  11.722 -1.2188 -0.9455  1.1383
  917MOL0     H20999   2.718   6.208  11.643  1.3557 -0.2157 -0.0996
  917MOL0     H21000   2.661   6.408  11.782  2.0045 -0.4281  1.2284
  917MOL0     H21001   2.631   6.450  11.620  0.0843 -0.9576  1.4088
  917MOL0     H21002   2.840   6.592  11.608  2.1602  2.1220  0.6035
  917MOL0     H21003   2.757   6.634  11.755 -0.1836  0.7987 -2.7650
  917MOL0     H21004   2.975   6.614  11.784 -0.0161  0.2135  1.1419
  917MOL0     H21005   2.975   6.432  11.750 -2.3450 -1.4145  0.6772
  917MOL0     H21006   3.132   6.420  12.001  3.3273 -1.1430  2.6602
  917MOL0     H21007   3.273   6.544  12.184  0.0513 -3.8793 -2.5249
  917MOL0     H21008   3.603   6.663  12.325  0.0805 -1.0401 -0.0726
  917MOL0     H21009   3.787   6.759  12.487  0.5742 -0.4095 -0.3592
  917MOL0     H21010   3.684   7.081  12.776 -0.2491  3.3617  0.0095
  917MOL0     H21011   3.677   7.151  12.620  0.0448  0.1225  0.0790
  917MOL0     H21012   3.892   7.150  12.820 -1.6068 -4.1016  0.2995
  917MOL0     H21013   3.885   7.248  12.677  1.7408 -0.0936 -1.1220
  917MOL0     H21014   3.997   7.050  12.549 -1.0693  2.3850 -1.2200
  917MOL0     H21015   4.011   6.964  12.712  0.5578 -0.4537 -2.0434
  917MOL0     H21016   4.151   7.212  12.625  0.7979 -1.1061 -2.0599
  917MOL0     H21017   4.140   7.157  12.800  0.8311 -0.8281 -0.6319
  917MOL0     H21018   4.263   7.007  12.570  2.2313 -1.4566  0.5035
  917MOL0     H21019   4.244   6.950  12.731 -3.5352  1.5555  2.3544
  917MOL0     H21020   4.392   7.152  12.797 -0.7253  1.1724 -0.7962
  917MOL0     H21021   4.396   7.192  12.623 -1.0750  1.2300  1.0875
  917MOL0     H21022   4.515   6.919  12.717  0.3013 -2.2757 -3.7842
  917MOL0     H21023   4.519   6.976  12.559 -0.5356 -4.9448  0.6150
  917MOL0     H21024   4.659   7.177  12.652  0.7363  0.3084  1.8378
  917MOL0     H21025   4.737   7.019  12.661  2.1172  3.1212 -0.9625
  917MOL0     H21026   3.492   7.010  12.657  1.6412 -0.4193  0.4019
  917MOL0     H21027   3.308   6.905  12.546 -0.3623  0.5752 -0.1681
  917MOL0     H21028   2.961   6.839  12.223 -1.0877  1.1017 -3.2707
  917MOL0     H21029   2.816   6.708  12.089 -0.0051 -1.2583 -1.4558
  917MOL0     H21030   2.575   6.323  10.236 -1.2967  1.2668  0.2527
  917MOL0     H21031   2.409   6.415  10.112  2.8297 -2.8320  2.0517
  917MOL0     H21032   2.197   6.786   9.929 -0.5306  0.7144  0.1224
  917MOL0     H21033   2.024   6.889   9.804  0.4860  0.6016  0.2662
  917MOL0     H21034   1.846   6.974   9.461 -4.3975 -5.1982 -0.5223
  917MOL0     H21035   1.853   6.970   9.638 -3.0531  5.7166 -3.0584
  917MOL0     H21036   1.880   6.738   9.439  0.7244  0.1747  0.3495
  917MOL0     H21037   1.913   6.724   9.611 -2.3169 -0.4564  2.1109
  917MOL0     H21038   1.695   6.750   9.676 -4.6368  1.0065  0.1521
  917MOL0     H21039   1.675   6.641   9.553  0.0848 -0.8315  4.7169
  917MOL0     H21040   1.629   6.946   9.538  1.9152  0.2964 -1.2808
  917MOL0     H21041   1.621   6.832   9.395  0.7229  1.3478 -0.4088
  917MOL0     H21042   1.272   6.748   9.638 -0.2532 -1.2185 -0.0647
  917MOL0     H21043   2.244   6.848   9.438 -4.1373 -1.1922 -1.5126
  917MOL0     H21044   2.438   6.760   9.575 -0.0369  1.5859 -1.1247
  918MOL0     O21045  10.716   9.350   5.565  1.4966 -0.2887 -0.3223
  918MOL0     C21046  10.650   9.422   5.489 -0.0323 -0.0724 -0.7473
  918MOL0     O21047  10.686   9.543   5.435 -0.5273  1.4788 -0.1584
  918MOL0     C21048  10.811   9.585   5.466  1.2994 -1.0475  0.7872
  918MOL0     C21049  10.923   9.535   5.404  0.9196 -0.6706  0.3671
  918MOL0     C21050  11.047   9.574   5.452 -0.1672  0.5027 -0.0116
  918MOL0     C21051  11.053   9.671   5.550 -0.5022 -0.5818  0.2265
  918MOL0     O21052  11.175   9.714   5.601  0.1899 -0.1901 -0.3681
  918MOL0     C21053  11.198   9.851   5.593 -0.3134 -0.5031  0.6218
  918MOL0     C21054  11.339   9.914   5.612 -0.1937  0.2777  0.2499
  918MOL0     C21055  11.448   9.819   5.557 -0.6486 -0.2189  0.7029
  918MOL0     C21056  11.587   9.872   5.576  0.7770 -0.2954  0.5090
  918MOL0     C21057  11.698   9.779   5.521 -0.5097  1.6103 -0.5767
  918MOL0     C21058  11.837   9.814   5.568  0.7508 -0.4841  0.8385
  918MOL0     C21059  11.941   9.729   5.503 -0.4296 -0.2393  0.0005
  918MOL0     C21060  11.950   9.588   5.539 -0.1942 -0.0500 -0.0111
  918MOL0     N21061  12.049   9.516   5.452  0.2484 -0.6626  0.5687
  918MOL0     C21062  12.185   9.522   5.480  0.5995  0.4896  0.0234
  918MOL0     C21063  12.233   9.460   5.360 -0.5873  0.0517 -0.4577
  918MOL0     C21064  12.369   9.406   5.325  0.7241 -0.8794  0.1435
  918MOL0     C21065  12.392   9.381   5.179 -0.0946  1.0197  1.1634
  918MOL0     C21066  12.538   9.372   5.148  0.5545 -1.5003 -0.1274
  918MOL0     C21067  12.565   9.364   4.998 -0.1681  0.0226  0.6227
  918MOL0     O21068  12.547   9.234   4.939 -0.0340 -0.3124 -0.2202
  918MOL0     C21069  12.536   9.227   4.802  0.1051  0.1711 -0.2820
  918MOL0     C21070  12.509   9.330   4.709 -0.0142  0.3777 -0.3936
  918MOL0     C21071  12.511   9.306   4.572 -0.2904 -0.5212 -0.5290
  918MOL0     C21072  12.524   9.170   4.522 -0.6340 -0.0869  0.1133
  918MOL0     C21073  12.515   9.156   4.378 -0.0379  0.5910 -0.5941
  918MOL0     O21074  12.386   9.170   4.327  0.7985 -0.4233 -0.0976
  918MOL0     C21075  12.373   9.160   4.189 -0.0643  0.5630  0.7691
  918MOL0     C21076  12.340   9.045   4.122 -0.3921 -0.1474  0.0544
  918MOL0     C21077  12.328   9.039   3.979 -0.1456  0.8119 -1.1509
  918MOL0     C21078  12.323   9.164   3.906  0.1767 -0.0501  0.8066
  918MOL0     O21079  12.311   9.174   3.771  0.2192 -0.0306 -0.7319
  918MOL0     C21080  12.427   9.136   3.693  0.0306  0.7509 -0.4063
  918MOL0     C21081  12.400   9.185   3.552  0.3471  0.5646  0.2273
  918MOL0     C21082  12.290   9.102   3.487 -0.5112  0.6287  0.5454
  918MOL0     C21083  12.262   9.166   3.347  0.4606  0.3104  1.1774
  918MOL0     C21084  12.173   9.069   3.264  0.0963  0.2273 -0.5742
  918MOL0     C21085  12.242   8.944   3.208 -0.0632 -0.7769  0.3355
  918MOL0     C21086  12.144   8.837   3.162  0.7537 -0.1808  0.9138
  918MOL0     C21087  12.228   8.717   3.109  0.7317  0.0092 -0.1014
  918MOL0    Cl21088  12.294   8.626   3.255  0.3936  0.0700  0.1959
  918MOL0     C21089  12.347   9.285   3.979  0.1493  0.2260 -1.0067
  918MOL0     C21090  12.380   9.280   4.119 -0.2937  0.2982 -0.4013
  918MOL0     O21091  12.616   9.137   4.309  0.4457  0.1737  0.0314
  918MOL0     C21092  12.536   9.070   4.617  0.0996 -0.1039 -0.6314
  918MOL0     C21093  12.550   9.100   4.751 -0.6786 -0.0999 -0.4184
  918MOL0     N21094  12.124   9.416   5.283  0.4656 -0.6191  0.1297
  918MOL0     N21095  12.018   9.457   5.327  0.0907 -1.1057 -0.6615
  918MOL0     C21096  10.933   9.719   5.611 -0.0227 -0.0643 -0.1560
  918MOL0     C21097  10.811   9.673   5.571  0.1806  0.4431 -0.3429
  918MOL0     C21098  10.515   9.383   5.455 -0.5673  0.5911  0.1683
  918MOL0     C21099  10.468   9.261   5.514 -0.1339  0.0478 -0.0885
  918MOL0     C21100  10.343   9.218   5.500  0.5763 -0.3767 -0.0839
  918MOL0     C21101  10.244   9.295   5.436  0.0685  0.9893  0.5910
  918MOL0     O21102  10.119   9.243   5.429  0.0647  0.3783  0.2903
  918MOL0     C21103  10.042   9.268   5.309  0.6616 -0.0345  0.1246
  918MOL0     C21104   9.914   9.178   5.298  0.4763 -0.0978  0.6572
  918MOL0     C21105   9.810   9.189   5.410  0.0134 -0.9884  0.3648
  918MOL0     C21106   9.674   9.119   5.395  0.9549 -0.4707  0.8085
  918MOL0     C21107   9.682   8.979   5.427  0.0302  0.8265  0.5434
  918MOL0     C21108   9.677   8.858   5.456 -0.8924 -0.6868 -0.5174
  918MOL0     C21109  10.282   9.408   5.366  0.4271  0.1591 -0.1264
  918MOL0     C21110  10.414   9.453   5.381 -0.1871  0.1448 -0.1069
  918MOL0     H21111  10.904   9.467   5.322 -0.7950  1.3848 -1.0519
  918MOL0     H21112  11.134   9.538   5.399  0.8619  0.3854  1.6972
  918MOL0     H21113  11.140   9.903   5.670 -1.5746  0.0668 -0.6726
  918MOL0     H21114  11.172   9.881   5.491  0.9962  2.7954  1.1414
  918MOL0     H21115  11.346   9.927   5.721  0.2985  0.6202  0.1811
  918MOL0     H21116  11.357  10.007   5.557  2.4449  0.7924  1.8180
  918MOL0     H21117  11.414   9.785   5.459 -6.0395  0.9318  1.9027
  918MOL0     H21118  11.447   9.725   5.613  2.9248 -0.0605  1.2936
  918MOL0     H21119  11.596   9.961   5.513  2.6864 -1.1945 -0.5732
  918MOL0     H21120  11.606   9.907   5.677  0.4998 -0.6549  0.6865
  918MOL0     H21121  11.696   9.781   5.411  0.0570  0.1326 -0.6407
  918MOL0     H21122  11.670   9.679   5.557 -2.6756  1.6292 -1.9883
  918MOL0     H21123  11.855   9.807   5.676  2.4856  2.2491  0.7982
  918MOL0     H21124  11.861   9.916   5.537  1.5012 -0.5827  1.0746
  918MOL0     H21125  11.931   9.742   5.395 -1.2962 -0.0104  0.1011
  918MOL0     H21126  12.030   9.790   5.525  1.0137 -1.9711 -0.7247
  918MOL0     H21127  11.853   9.538   5.526 -0.9151 -0.4010  4.7379
  918MOL0     H21128  11.970   9.567   5.645 -1.8348  0.6228  0.4643
  918MOL0     H21129  12.246   9.556   5.563  3.6494 -1.3632 -1.2618
  918MOL0     H21130  12.393   9.312   5.376  0.0694 -1.7131 -1.0323
  918MOL0     H21131  12.433   9.485   5.365 -1.9211  2.7452 -2.1535
  918MOL0     H21132  12.341   9.463   5.129  0.4458  0.5616 -0.1899
  918MOL0     H21133  12.349   9.284   5.154  1.9283 -0.1268  1.8447
  918MOL0     H21134  12.587   9.452   5.203  0.9557 -1.9679  0.2130
  918MOL0     H21135  12.577   9.280   5.194  1.1587 -0.1098  2.2958
  918MOL0     H21136  12.667   9.401   4.982 -1.2787  3.9401  1.4054
  918MOL0     H21137  12.498   9.442   4.962  1.2428  0.0908 -2.1471
  918MOL0     H21138  12.486   9.428   4.750 -1.0252  0.2368 -0.5795
  918MOL0     H21139  12.513   9.385   4.498  0.2956 -0.9750 -1.0153
  918MOL0     H21140  12.335   8.954   4.180  0.6855 -0.8755 -0.9356
  918MOL0     H21141  12.339   8.944   3.927  1.0095 -0.7989  1.7868
  918MOL0     H21142  12.436   9.027   3.699 -0.3710  0.5063 -3.0308
  918MOL0     H21143  12.526   9.168   3.727 -0.2121 -0.4011  1.4908
  918MOL0     H21144  12.488   9.165   3.490  0.9515 -0.0273  1.2637
  918MOL0     H21145  12.375   9.291   3.548  1.0162  0.6976 -2.0811
  918MOL0     H21146  12.202   9.121   3.550  0.1266 -2.3349  2.5323
  918MOL0     H21147  12.308   8.994   3.484  1.0095  0.8317  1.0400
  918MOL0     H21148  12.216   9.264   3.358 -1.1011 -0.3379  0.6818
  918MOL0     H21149  12.356   9.186   3.294  0.8684  0.4084  1.9219
  918MOL0     H21150  12.129   9.124   3.181  1.9056  1.3259 -0.8625
  918MOL0     H21151  12.085   9.049   3.325 -0.4903  1.3877 -1.0142
  918MOL0     H21152  12.304   8.910   3.292 -0.1684  1.8495  1.5915
  918MOL0     H21153  12.306   8.969   3.124  1.0720  1.0651  1.6716
  918MOL0     H21154  12.072   8.802   3.237  0.6556  0.2645  1.0294
  918MOL0     H21155  12.086   8.881   3.079 -0.0567 -2.1287  0.3781
  918MOL0     H21156  12.304   8.734   3.031 -0.0674 -3.0669 -1.7265
  918MOL0     H21157  12.159   8.646   3.063 -0.5810 -0.6365  2.7126
  918MOL0     H21158  12.345   9.375   3.919 -2.8139  0.9304 -0.0271
  918MOL0     H21159  12.404   9.372   4.172 -2.0522  1.5274 -1.6400
  918MOL0     H21160  12.536   8.968   4.578 -1.5388 -0.3650 -0.0401
  918MOL0     H21161  12.574   9.014   4.813 -2.2922 -0.5788 -0.4022
  918MOL0     H21162  10.942   9.785   5.696  1.5372 -2.2359  1.4657
  918MOL0     H21163  10.720   9.694   5.626 -0.4033 -3.0536  0.2586
  918MOL0     H21164  10.535   9.200   5.573  0.5443  0.8603  0.0030
  918MOL0     H21165  10.322   9.125   5.551  4.2544  0.4274  3.3890
  918MOL0     H21166  10.115   9.252   5.229 -0.3379  2.1592 -1.3334
  918MOL0     H21167  10.012   9.373   5.304  1.2290  0.1190 -0.1159
  918MOL0     H21168   9.856   9.199   5.208  0.0580  1.9272  1.3385
  918MOL0     H21169   9.961   9.079   5.305  1.9615  0.6500  2.0910
  918MOL0     H21170   9.801   9.297   5.423  3.2353 -0.6363  0.4025
  918MOL0     H21171   9.867   9.154   5.496  0.2223  0.4220  0.8242
  918MOL0     H21172   9.597   9.174   5.450 -0.0496 -1.0264 -0.0084
  918MOL0     H21173   9.638   9.128   5.292  1.3179 -1.9581  0.5333
  918MOL0     H21174   9.666   8.755   5.483 -1.6853 -0.5049 -0.0862
  918MOL0     H21175  10.209   9.469   5.314 -3.8960 -2.2261  2.6301
  918MOL0     H21176  10.446   9.535   5.318  2.8260 -1.3607 -0.6922
  919MOL0     O21177   3.404   7.233   2.326  0.1592  0.0430  0.6041
  919MOL0     C21178   3.381   7.167   2.222  0.4584  0.8292 -0.5105
  919MOL0     O21179   3.260   7.154   2.156 -0.5578  0.4191  0.4533
  919MOL0     C21180   3.153   7.231   2.181  0.1775 -0.0067  0.0225
  919MOL0     C21181   3.159   7.358   2.245  0.6010  0.4776 -0.7289
  919MOL0     C21182   3.030   7.428   2.260  0.0961 -0.1027  1.2862
  919MOL0     C21183   2.901   7.379   2.206 -0.2708 -0.6320 -0.5365
  919MOL0     O21184   2.800   7.473   2.210 -0.3588  0.0845  0.2554
  919MOL0     C21185   2.709   7.456   2.094  0.3557 -0.1110  0.1170
  919MOL0     C21186   2.645   7.600   2.058 -0.0983  0.0385 -0.3138
  919MOL0     C21187   2.502   7.585   1.986  0.7451  0.3165  0.3857
  919MOL0     C21188   2.426   7.712   1.998 -0.2830 -0.3180  0.1710
  919MOL0     C21189   2.275   7.709   1.971 -0.3392  0.3913  0.3549
  919MOL0     C21190   2.244   7.650   1.832  0.2394  0.8456  0.0413
  919MOL0     C21191   2.108   7.703   1.776 -0.1774  0.3608  0.5764
  919MOL0     C21192   2.120   7.851   1.751  1.5254 -0.2408 -0.3075
  919MOL0     N21193   2.005   7.884   1.663  0.9807 -0.4848  0.3277
  919MOL0     C21194   1.999   7.858   1.529 -0.6602 -0.5123 -0.3741
  919MOL0     C21195   1.888   7.922   1.488  1.0681 -0.4089  0.6521
  919MOL0     C21196   1.821   7.927   1.363  0.5558 -0.8866  0.6280
  919MOL0     C21197   1.714   7.828   1.353  0.4129 -0.3497  0.2094
  919MOL0     C21198   1.647   7.815   1.213  0.1093  0.1085  0.0812
  919MOL0     C21199   1.521   7.901   1.207 -0.7684 -0.0058  0.2761
  919MOL0     O21200   1.560   8.037   1.228  0.6639 -0.1240  0.1828
  919MOL0     C21201   1.461   8.099   1.305  0.7604 -0.1512 -0.2880
  919MOL0     C21202   1.327   8.122   1.260  0.8131 -0.1501 -0.1848
  919MOL0     C21203   1.232   8.173   1.336 -0.2122  0.1769 -0.6384
  919MOL0     C21204   1.257   8.201   1.468  0.2070  0.9675 -0.2242
  919MOL0     C21205   1.164   8.248   1.568  0.5414 -0.2098  0.6724
  919MOL0     O21206   1.037   8.271   1.522  0.7442  0.2224 -0.7505
  919MOL0     C21207   0.953   8.328   1.613  0.2194 -0.0849 -0.2359
  919MOL0     C21208   0.925   8.262   1.738 -1.0233 -0.4868 -0.1911
  919MOL0     C21209   0.823   8.311   1.820  0.1884  0.2245  0.5427
  919MOL0     C21210   0.773   8.439   1.809  0.8485 -0.6009 -1.0585
  919MOL0     O21211   0.691   8.495   1.905  0.9531  0.8485  0.1337
  919MOL0     C21212   0.595   8.604   1.878  0.8231  0.0575  1.2653
  919MOL0     C21213   0.517   8.617   2.010 -0.1023 -0.3951 -0.5364
  919MOL0     C21214   0.479   8.770   2.035 -0.7450 -0.1490  0.8876
  919MOL0     C21215   0.414   8.801   2.175 -0.0733  0.3074  0.1735
  919MOL0     C21216   0.409   8.955   2.197  0.4635 -0.0509 -1.0929
  919MOL0     C21217   0.307   8.979   2.315  0.0306 -0.0563  0.5035
  919MOL0     C21218   0.158   8.933   2.287 -0.5137  0.8386 -0.1955
  919MOL0     C21219   0.104   8.953   2.147  0.1099 -0.0226 -0.4938
  919MOL0    Cl21220   0.118   9.119   2.102 -0.3418  0.1406  0.1678
  919MOL0     C21221   0.805   8.510   1.684 -0.4813  0.3142 -0.6618
  919MOL0     C21222   0.890   8.454   1.590  0.2986 -0.1483 -0.3518
  919MOL0     O21223   1.205   8.271   1.683  0.6547 -0.2777 -0.3993
  919MOL0     C21224   1.390   8.184   1.521  0.4567 -0.1104 -1.0828
  919MOL0     C21225   1.491   8.131   1.439 -0.7904 -0.0681 -0.5671
  919MOL0     N21226   1.816   7.979   1.599 -0.6536 -0.2363  0.1518
  919MOL0     N21227   1.901   7.967   1.694  0.4990 -0.2040 -0.4885
  919MOL0     C21228   2.910   7.247   2.154 -0.5754 -0.2794  0.4310
  919MOL0     C21229   3.030   7.184   2.134 -0.3626  0.1033 -0.4554
  919MOL0     C21230   3.492   7.075   2.167  0.6373  0.8219  0.1842
  919MOL0     C21231   3.628   7.090   2.204  0.2697 -0.3995  0.1734
  919MOL0     C21232   3.721   6.999   2.148 -0.7754 -0.3029  0.0165
  919MOL0     C21233   3.687   6.899   2.049  0.8703  0.0541 -0.1463
  919MOL0     O21234   3.792   6.829   1.989 -0.2818  0.7631 -0.4005
  919MOL0     C21235   3.920   6.808   2.048 -0.1583 -0.3423 -0.2879
  919MOL0     C21236   4.031   6.904   2.012  0.3444 -0.8150  0.2217
  919MOL0     C21237   4.146   6.923   2.117  0.3111 -0.5217 -0.0923
  919MOL0     C21238   4.206   6.801   2.181  0.0618 -0.6699 -0.9661
  919MOL0     C21239   4.242   6.708   2.068 -1.7950 -1.1030 -1.1465
  919MOL0     C21240   4.281   6.631   1.978  0.4186 -0.1020 -0.0593
  919MOL0     C21241   3.554   6.898   2.014 -0.1082  0.3312  0.5624
  919MOL0     C21242   3.462   6.983   2.071  0.2818 -0.0045 -0.0451
  919MOL0     H21243   3.242   7.425   2.264  1.6596 -1.0719  0.3042
  919MOL0     H21244   3.039   7.528   2.303 -0.1384 -1.0622  3.7778
  919MOL0     H21245   2.623   7.390   2.114 -0.7721  0.6668 -1.8305
  919MOL0     H21246   2.760   7.420   2.004 -1.8852  1.4498 -1.9389
  919MOL0     H21247   2.715   7.660   2.000 -0.6625  0.8064 -0.2240
  919MOL0     H21248   2.624   7.641   2.157  2.1959 -1.1118  0.7245
  919MOL0     H21249   2.438   7.507   2.027  1.5132 -1.4214 -1.5386
  919MOL0     H21250   2.508   7.551   1.882 -3.0671  1.4247 -0.3619
  919MOL0     H21251   2.423   7.735   2.105 -1.4394 -1.1081  0.3305
  919MOL0     H21252   2.476   7.788   1.938 -1.0476  1.8914  2.1754
  919MOL0     H21253   2.228   7.805   1.990  1.5393  1.5391 -0.4496
  919MOL0     H21254   2.232   7.638   2.042  4.6216 -4.4053 -0.7157
  919MOL0     H21255   2.234   7.542   1.849 -2.9370  1.2783  1.5341
  919MOL0     H21256   2.321   7.673   1.757 -1.9444  0.6183 -2.3984
  919MOL0     H21257   2.091   7.656   1.679 -0.6279 -0.6832  1.1521
  919MOL0     H21258   2.034   7.668   1.848 -0.7399 -1.8897 -0.9940
  919MOL0     H21259   2.208   7.873   1.689 -1.1295 -0.5496 -4.6330
  919MOL0     H21260   2.115   7.909   1.843  0.6443  0.0170 -0.5105
  919MOL0     H21261   2.061   7.793   1.469 -1.1482  1.2740 -2.9979
  919MOL0     H21262   1.884   7.901   1.278  1.9941 -1.2979  1.7686
  919MOL0     H21263   1.777   8.024   1.341  1.3754 -0.7147 -0.3130
  919MOL0     H21264   1.633   7.837   1.426 -0.1638 -1.0765 -0.3228
  919MOL0     H21265   1.775   7.741   1.381  1.1168 -0.2936 -1.0439
  919MOL0     H21266   1.719   7.836   1.133 -0.7106 -0.3037 -0.7852
  919MOL0     H21267   1.621   7.710   1.197  3.2602 -0.4079 -2.5384
  919MOL0     H21268   1.454   7.865   1.285  0.2637 -0.2247  1.0791
  919MOL0     H21269   1.459   7.887   1.119 -3.6708  1.5627  1.9314
  919MOL0     H21270   1.295   8.093   1.161  0.7175 -0.8735  0.0529
  919MOL0     H21271   1.131   8.176   1.294 -0.0086 -1.6040 -1.3413
  919MOL0     H21272   0.970   8.168   1.769  1.4068 -0.1973 -2.4659
  919MOL0     H21273   0.808   8.256   1.913  2.1952 -2.0342 -0.3510
  919MOL0     H21274   0.531   8.578   1.793  0.7023  1.2395  0.9878
  919MOL0     H21275   0.652   8.695   1.861 -2.5514  1.9838 -0.8081
  919MOL0     H21276   0.584   8.587   2.091  1.3017  1.0764 -1.0900
  919MOL0     H21277   0.428   8.553   2.004  0.1154 -0.8785  1.0303
  919MOL0     H21278   0.418   8.802   1.950  0.5976 -1.9364 -0.8444
  919MOL0     H21279   0.577   8.815   2.020 -1.3672  0.9475 -0.0957
  919MOL0     H21280   0.320   8.746   2.187  0.8178 -0.7767  2.7155
  919MOL0     H21281   0.476   8.756   2.252  1.9024  2.7338  0.1169
  919MOL0     H21282   0.368   9.011   2.112 -1.4770 -0.3526 -0.4041
  919MOL0     H21283   0.508   8.995   2.222 -0.0690  0.0645  1.0659
  919MOL0     H21284   0.302   9.085   2.341 -1.5666  0.4555 -1.6749
  919MOL0     H21285   0.336   8.926   2.407 -2.8174 -3.7465 -0.4528
  919MOL0     H21286   0.151   8.826   2.312 -0.0443  0.4422 -1.6580
  919MOL0     H21287   0.094   8.970   2.368 -1.4890 -0.7051 -0.2064
  919MOL0     H21288  -0.003   8.930   2.148 -0.4009  2.1558  0.3321
  919MOL0     H21289   0.158   8.903   2.066 -2.0236 -0.9050 -1.4357
  919MOL0     H21290   0.758   8.605   1.662 -0.2044  0.6014 -0.0468
  919MOL0     H21291   0.913   8.499   1.494  0.4305 -2.7094 -1.6173
  919MOL0     H21292   1.421   8.221   1.618 -1.5827 -1.3675  0.1251
  919MOL0     H21293   1.593   8.127   1.475 -0.9021  2.3417  0.2323
  919MOL0     H21294   2.825   7.191   2.114 -0.9263 -0.0274  0.8164
  919MOL0     H21295   3.022   7.088   2.083 -3.8090  0.2889 -0.5140
  919MOL0     H21296   3.651   7.171   2.273 -0.3883 -2.9909  3.7368
  919MOL0     H21297   3.825   7.011   2.178 -1.0041  1.7475  0.1719
  919MOL0     H21298   3.961   6.711   2.019  1.0825 -0.3109  1.2453
  919MOL0     H21299   3.912   6.804   2.157 -1.0704 -1.5456 -0.3745
  919MOL0     H21300   4.072   6.863   1.920 -2.3139 -1.2740 -0.8486
  919MOL0     H21301   3.989   7.000   1.981  2.8309  0.8336  1.6324
  919MOL0     H21302   4.096   6.985   2.191 -0.2631  0.8215 -1.5447
  919MOL0     H21303   4.222   6.991   2.078  1.0842 -1.4719 -0.3058
  919MOL0     H21304   4.290   6.835   2.243 -1.9071  2.4369  0.2169
  919MOL0     H21305   4.133   6.751   2.245  1.2322 -3.0029 -1.3263
  919MOL0     H21306   4.321   6.568   1.901 -0.6864  0.4854 -1.1533
  919MOL0     H21307   3.517   6.821   1.948 -0.4136 -0.6476  1.8253
  919MOL0     H21308   3.365   6.964   2.027 -0.4088 -0.6231  1.6864
  920MOL0     O21309   4.336   1.831   6.194  0.7776  0.6816 -0.5078
  920MOL0     C21310   4.429   1.860   6.262 -0.1946  0.5391  0.2459
  920MOL0     O21311   4.475   1.803   6.373 -1.0613  0.4770  0.4418
  920MOL0     C21312   4.404   1.701   6.426  0.2548  0.8501  0.4834
  920MOL0     C21313   4.269   1.724   6.466 -0.1145 -0.3062 -0.3987
  920MOL0     C21314   4.191   1.632   6.541 -0.3535  0.0061 -0.0071
  920MOL0     C21315   4.236   1.505   6.560 -0.8825  0.8133  0.6707
  920MOL0     O21316   4.164   1.426   6.643 -0.1811  0.5046 -0.3574
  920MOL0     C21317   4.219   1.290   6.666 -0.5815 -0.7106  0.0584
  920MOL0     C21318   4.183   1.201   6.555 -0.3089 -0.5729  0.3780
  920MOL0     C21319   4.036   1.168   6.556  0.2351  0.7558  0.1577
  920MOL0     C21320   3.970   1.136   6.414  0.3225 -0.2819  0.3437
  920MOL0     C21321   3.840   1.219   6.391 -0.0454  0.8576  0.7091
  920MOL0     C21322   3.776   1.201   6.245 -0.2671  0.3598  0.0009
  920MOL0     C21323   3.681   1.081   6.246  0.3390 -0.8858 -0.1770
  920MOL0     C21324   3.586   1.080   6.124  0.1061  0.3430 -0.6417
  920MOL0     N21325   3.526   0.956   6.080 -0.0427  0.8064  0.7599
  920MOL0     C21326   3.423   0.885   6.136 -0.3344 -0.7059 -0.1447
  920MOL0     C21327   3.427   0.756   6.088  1.5081 -0.8692  0.1886
  920MOL0     C21328   3.321   0.649   6.134 -0.0279 -0.0486  0.3080
  920MOL0     C21329   3.393   0.559   6.239  0.5620  0.0137  0.2331
  920MOL0     C21330   3.426   0.640   6.363  0.8346  0.1358  1.1922
  920MOL0     C21331   3.398   0.556   6.488  1.3212 -0.1385  0.3868
  920MOL0     O21332   3.415   0.629   6.614  0.3108  0.5292  1.0635
  920MOL0     C21333   3.546   0.639   6.650 -0.9658 -0.5903  0.1637
  920MOL0     C21334   3.615   0.522   6.674  1.0493 -0.1189 -0.0035
  920MOL0     C21335   3.751   0.533   6.704  0.0058  0.4143 -0.0254
  920MOL0     C21336   3.813   0.656   6.709  0.6072  0.0748 -0.0876
  920MOL0     C21337   3.955   0.664   6.715 -0.2416  0.1336 -0.2536
  920MOL0     O21338   4.025   0.553   6.673 -0.4013 -0.1056  0.6567
  920MOL0     C21339   4.156   0.531   6.721  0.2474 -0.4340 -0.2038
  920MOL0     C21340   4.264   0.561   6.637  0.0134 -0.8050 -0.2408
  920MOL0     C21341   4.394   0.526   6.674 -0.0040 -0.8074 -0.1029
  920MOL0     C21342   4.413   0.462   6.793  0.5791 -0.1786 -0.1406
  920MOL0     O21343   4.542   0.431   6.840 -1.0235  0.1567 -1.2369
  920MOL0     C21344   4.663   0.490   6.782  0.3423  0.0111  0.2289
  920MOL0     C21345   4.777   0.473   6.877 -0.0795  0.4225  0.0861
  920MOL0     C21346   4.755   0.548   7.009 -0.0253  0.2227 -0.2080
  920MOL0     C21347   4.863   0.519   7.122  0.1412  0.0514 -0.1539
  920MOL0     C21348   4.803   0.583   7.258  0.3136 -0.0057 -0.8800
  920MOL0     C21349   4.910   0.628   7.352  0.4118 -0.2322 -1.0753
  920MOL0     C21350   4.997   0.743   7.311  0.5760  0.7264 -0.2136
  920MOL0     C21351   5.072   0.808   7.428  0.8857  0.0223 -0.2837
  920MOL0    Cl21352   5.179   0.679   7.505 -0.6067  0.0791  0.1275
  920MOL0     C21353   4.308   0.422   6.873 -0.8767 -0.0297 -0.3236
  920MOL0     C21354   4.177   0.460   6.838  0.5635  0.6663  0.8749
  920MOL0     O21355   3.999   0.762   6.776  0.2937 -0.0393  0.0593
  920MOL0     C21356   3.745   0.774   6.685 -0.1212 -0.8671  1.1666
  920MOL0     C21357   3.610   0.762   6.651  0.1498 -0.6724 -0.3971
  920MOL0     N21358   3.542   0.744   6.006  0.8456  0.8073  0.1402
  920MOL0     N21359   3.598   0.862   6.010 -0.2989  0.2587  0.0249
  920MOL0     C21360   4.364   1.473   6.505  0.1749 -0.4568 -0.2664
  920MOL0     C21361   4.445   1.573   6.441  0.0838  0.2270 -0.3994
  920MOL0     C21362   4.509   1.984   6.221  0.0773  0.2405 -0.2719
  920MOL0     C21363   4.607   2.039   6.300  0.3283 -0.0072 -0.1932
  920MOL0     C21364   4.688   2.144   6.259 -0.6653  0.2839  0.4035
  920MOL0     C21365   4.651   2.207   6.139  0.7141 -0.3584  0.3690
  920MOL0     O21366   4.716   2.305   6.079 -0.7179  0.4710 -0.5248
  920MOL0     C21367   4.811   2.378   6.154  0.1114 -0.8924 -0.0084
  920MOL0     C21368   4.835   2.510   6.069 -1.3351 -0.2305 -0.4458
  920MOL0     C21369   4.938   2.596   6.137  0.5075  0.5243 -0.8926
  920MOL0     C21370   4.923   2.747   6.130  0.9414 -0.2046 -0.0432
  920MOL0     C21371   5.033   2.812   6.197  0.7330 -0.5121  0.0580
  920MOL0     C21372   5.108   2.880   6.261 -0.0795  0.1396 -0.1803
  920MOL0     C21373   4.547   2.159   6.058  0.3570  1.0049  0.4950
  920MOL0     C21374   4.482   2.039   6.097 -0.7973  0.0136 -0.2074
  920MOL0     H21375   4.220   1.820   6.448  1.0508  0.3614 -0.1267
  920MOL0     H21376   4.096   1.642   6.592 -0.6718 -2.8458  0.1377
  920MOL0     H21377   4.180   1.243   6.756 -2.4821 -0.1562 -0.4261
  920MOL0     H21378   4.328   1.299   6.678 -0.6522  2.8790 -0.7677
  920MOL0     H21379   4.247   1.114   6.570 -0.8471 -1.5660 -2.4441
  920MOL0     H21380   4.206   1.242   6.456  0.4402 -3.8806 -0.9450
  920MOL0     H21381   3.983   1.255   6.595  1.5797  1.9855 -0.6759
  920MOL0     H21382   4.013   1.075   6.609  0.7033 -0.6236 -1.9330
  920MOL0     H21383   4.040   1.171   6.337  2.2138 -0.7441  1.7770
  920MOL0     H21384   3.940   1.032   6.402  0.0416 -0.3258  1.3384
  920MOL0     H21385   3.871   1.324   6.399  0.4499  0.5711  3.2532
  920MOL0     H21386   3.771   1.215   6.476 -2.3667  1.8621 -0.9881
  920MOL0     H21387   3.844   1.189   6.161  0.1978 -0.1016  0.4306
  920MOL0     H21388   3.715   1.286   6.215 -1.9682 -1.0666 -0.8000
  920MOL0     H21389   3.746   0.993   6.245 -0.6464 -1.6373 -0.1488
  920MOL0     H21390   3.629   1.081   6.342 -0.8385 -1.5241 -0.7841
  920MOL0     H21391   3.633   1.139   6.045 -0.6865  2.4068  0.3312
  920MOL0     H21392   3.513   1.159   6.144  0.6200  0.6609  0.0507
  920MOL0     H21393   3.344   0.909   6.206 -0.7975 -2.1246 -0.1465
  920MOL0     H21394   3.276   0.587   6.056 -1.0038 -0.7686  1.4308
  920MOL0     H21395   3.244   0.707   6.185 -0.7598  0.8935 -1.7590
  920MOL0     H21396   3.487   0.519   6.200 -0.7728 -2.6494 -0.5197
  920MOL0     H21397   3.331   0.472   6.263  0.9648 -0.6340 -0.9934
  920MOL0     H21398   3.530   0.674   6.361  0.5515  1.0427  1.5069
  920MOL0     H21399   3.362   0.728   6.374  2.8186  1.6018  1.5209
  920MOL0     H21400   3.449   0.460   6.480  0.9121 -0.6002  2.5952
  920MOL0     H21401   3.294   0.525   6.497  0.8934  1.7664  3.7539
  920MOL0     H21402   3.563   0.428   6.658 -2.0530  0.9443  2.6428
  920MOL0     H21403   3.821   0.451   6.708  2.6818  2.6034  1.8601
  920MOL0     H21404   4.249   0.610   6.541  2.5434 -4.0964 -2.5372
  920MOL0     H21405   4.479   0.552   6.612 -1.2022  0.9462 -1.1186
  920MOL0     H21406   4.651   0.598   6.769  1.5220 -0.0252 -1.4651
  920MOL0     H21407   4.688   0.453   6.682  0.0155 -0.3798  0.2869
  920MOL0     H21408   4.865   0.520   6.835  0.2994  2.1781  2.6194
  920MOL0     H21409   4.796   0.367   6.896  0.1898  0.2768 -0.9415
  920MOL0     H21410   4.656   0.521   7.047 -0.6256 -0.7224 -2.3178
  920MOL0     H21411   4.749   0.656   6.995  0.3629 -0.1033 -3.8569
  920MOL0     H21412   4.900   0.419   7.148  0.2957  0.3843  0.9755
  920MOL0     H21413   4.946   0.582   7.089 -1.3213  1.9080 -0.3881
  920MOL0     H21414   4.734   0.511   7.302  0.4631  0.8462  0.8818
  920MOL0     H21415   4.733   0.664   7.235 -1.4185 -0.9517  0.7336
  920MOL0     H21416   4.966   0.539   7.385  2.4224  0.5646 -2.1561
  920MOL0     H21417   4.849   0.659   7.437  1.3424  2.4524 -1.2938
  920MOL0     H21418   5.074   0.686   7.257  0.1394  1.1021 -1.2500
  920MOL0     H21419   4.957   0.821   7.247  0.0583  0.0945 -0.6654
  920MOL0     H21420   5.012   0.862   7.502  1.8671 -1.5075  1.7255
  920MOL0     H21421   5.134   0.887   7.386 -0.1041  0.2588 -1.3603
  920MOL0     H21422   4.330   0.372   6.967  0.1233  1.0206  0.0248
  920MOL0     H21423   4.096   0.421   6.898  0.9003  0.0399  0.9366
  920MOL0     H21424   3.785   0.875   6.686 -1.3181 -0.3744  0.7475
  920MOL0     H21425   3.544   0.849   6.644 -0.6449 -1.0829  1.4985
  920MOL0     H21426   4.415   1.378   6.508  1.7933  0.3999  0.8853
  920MOL0     H21427   4.541   1.552   6.394 -0.6966 -1.5840 -1.2854
  920MOL0     H21428   4.628   1.987   6.393 -0.8263 -0.8820 -0.3965
  920MOL0     H21429   4.772   2.181   6.317 -2.1919  0.7109  2.4698
  920MOL0     H21430   4.907   2.330   6.175  0.8304 -0.2993 -1.7738
  920MOL0     H21431   4.760   2.399   6.249 -2.5744  1.5333 -1.8461
  920MOL0     H21432   4.872   2.481   5.970  0.1248  2.9426 -0.9751
  920MOL0     H21433   4.746   2.572   6.056  0.0226  1.4854 -2.1707
  920MOL0     H21434   5.034   2.553   6.105 -0.6442 -0.8689 -2.6628
  920MOL0     H21435   4.932   2.569   6.242  3.3721 -0.7789 -0.9662
  920MOL0     H21436   4.929   2.772   6.024  0.8511 -0.8269 -0.1971
  920MOL0     H21437   4.827   2.783   6.169  0.1608  0.9676 -2.8008
  920MOL0     H21438   5.197   2.928   6.298  1.4878 -0.5995 -2.7041
  920MOL0     H21439   4.520   2.205   5.964  0.2640  0.6965  0.3702
  920MOL0     H21440   4.411   2.001   6.024 -0.2613 -2.1207  0.3048
  921MOL0     O21441   7.157   7.041  10.674 -0.0617  0.1657  0.5268
  921MOL0     C21442   7.112   7.154  10.663 -0.1038 -0.2521 -0.0054
  921MOL0     O21443   7.001   7.195  10.602 -0.4881 -0.0569 -1.2193
  921MOL0     C21444   6.931   7.096  10.539 -0.2232 -0.3137 -0.6545
  921MOL0     C21445   6.811   7.048  10.604  0.1523 -0.3570 -1.0458
  921MOL0     C21446   6.738   6.949  10.537  0.1258  0.1914 -0.1457
  921MOL0     C21447   6.783   6.890  10.414 -0.2812  0.4157 -0.3456
  921MOL0     O21448   6.721   6.787  10.343  0.2186  0.0758  0.4706
  921MOL0     C21449   6.636   6.706  10.431 -0.2543  0.8280  0.5991
  921MOL0     C21450   6.598   6.584  10.353 -0.6674  0.6283  0.1843
  921MOL0     C21451   6.516   6.612  10.229 -0.5026 -0.1102 -0.3765
  921MOL0     C21452   6.443   6.478  10.178  0.0900 -0.5292 -0.8087
  921MOL0     C21453   6.357   6.521  10.055 -0.0734 -0.6979 -0.1925
  921MOL0     C21454   6.261   6.408  10.011 -0.1453  0.0655  0.3719
  921MOL0     C21455   6.145   6.455   9.923 -0.2412  0.3657 -0.2017
  921MOL0     C21456   6.050   6.335   9.898  0.3469 -0.2829  0.1393
  921MOL0     N21457   5.972   6.284  10.020 -0.2890  0.1544 -0.2306
  921MOL0     C21458   6.022   6.205  10.110 -1.3030 -0.4569 -0.3975
  921MOL0     C21459   5.929   6.177  10.199 -0.1567  0.1115 -1.2050
  921MOL0     C21460   5.937   6.111  10.340 -0.1279  0.0276  0.1823
  921MOL0     C21461   6.053   6.170  10.428 -0.1631  0.0782 -0.3784
  921MOL0     C21462   6.021   6.321  10.456 -0.0285 -0.3066  0.2431
  921MOL0     C21463   6.130   6.385  10.550  0.4838 -0.4035  0.1120
  921MOL0     O21464   6.158   6.523  10.509 -0.7218  0.1366  0.2927
  921MOL0     C21465   6.254   6.587  10.591  0.9215  0.0238  0.7642
  921MOL0     C21466   6.263   6.730  10.593  0.0898  0.1329 -0.2545
  921MOL0     C21467   6.338   6.812  10.690 -0.3076  0.9812 -0.6195
  921MOL0     C21468   6.408   6.735  10.793 -0.3109 -0.6774  1.4807
  921MOL0     C21469   6.498   6.800  10.893  0.2485  0.3595 -0.5509
  921MOL0     O21470   6.510   6.732  11.017 -0.5528 -0.0056 -0.1076
  921MOL0     C21471   6.538   6.816  11.118 -1.9220  0.5670  0.1799
  921MOL0     C21472   6.654   6.790  11.201  0.3052 -0.5406  0.3530
  921MOL0     C21473   6.681   6.868  11.312  0.9784  0.9188  0.1469
  921MOL0     C21474   6.596   6.973  11.352 -0.5797 -0.0833  1.5561
  921MOL0     O21475   6.634   7.047  11.462  0.5241  0.8995 -0.8590
  921MOL0     C21476   6.539   7.138  11.504  0.8474 -0.1442 -0.3412
  921MOL0     C21477   6.554   7.167  11.650 -0.2472 -0.0046  0.9337
  921MOL0     C21478   6.438   7.253  11.710 -0.4625  0.4447  0.2305
  921MOL0     C21479   6.429   7.383  11.630 -0.5498 -0.0874  0.7063
  921MOL0     C21480   6.313   7.471  11.700  0.7885  0.6094 -0.2119
  921MOL0     C21481   6.163   7.438  11.649  0.4220 -0.2127  0.6503
  921MOL0     C21482   6.045   7.533  11.711 -1.7603  0.4371  0.0841
  921MOL0     C21483   5.916   7.526  11.638  0.7143  0.3497  0.3143
  921MOL0    Cl21484   5.926   7.566  11.463  0.0422  0.0759  0.5405
  921MOL0     C21485   6.484   7.002  11.271 -0.8603 -0.1752  0.1630
  921MOL0     C21486   6.457   6.926  11.155 -0.0417  0.4169  0.2852
  921MOL0     O21487   6.533   6.918  10.875  0.3506  0.7325  0.1338
  921MOL0     C21488   6.414   6.595  10.782 -0.4229  0.7644  1.4070
  921MOL0     C21489   6.342   6.519  10.683 -0.3220 -0.4800 -0.1270
  921MOL0     N21490   5.815   6.252  10.156 -0.0486  1.4357 -0.2136
  921MOL0     N21491   5.840   6.320  10.053 -0.0883  0.4017 -0.6079
  921MOL0     C21492   6.896   6.944  10.354 -1.0634 -0.1253 -0.4007
  921MOL0     C21493   6.968   7.045  10.415 -1.0361  0.7182 -0.1180
  921MOL0     C21494   7.176   7.269  10.724 -0.4903 -0.5038 -1.0521
  921MOL0     C21495   7.128   7.400  10.737 -0.3792 -0.6395  0.0309
  921MOL0     C21496   7.213   7.505  10.794  0.0688 -1.0556 -0.0886
  921MOL0     C21497   7.350   7.478  10.821  0.2328  1.0771 -0.5052
  921MOL0     O21498   7.444   7.569  10.863  0.8063  0.4807 -0.5392
  921MOL0     C21499   7.427   7.710  10.835 -0.1025  0.2969 -1.0006
  921MOL0     C21500   7.557   7.769  10.797 -0.0231  0.1358 -0.0169
  921MOL0     C21501   7.674   7.760  10.906  0.7109 -0.2050 -0.2382
  921MOL0     C21502   7.801   7.809  10.840 -0.4031 -0.1256  0.2364
  921MOL0     C21503   7.892   7.848  10.951 -0.2827  0.1598  0.3721
  921MOL0     C21504   7.952   7.864  11.051 -0.2346  0.5617  0.4556
  921MOL0     C21505   7.396   7.348  10.809 -0.4790  0.0558 -0.5692
  921MOL0     C21506   7.312   7.246  10.761  0.4749 -0.6472 -0.4531
  921MOL0     H21507   6.768   7.074  10.700  0.2545 -1.1677 -0.7647
  921MOL0     H21508   6.648   6.917  10.588 -0.1786  1.1008 -0.0937
  921MOL0     H21509   6.540   6.759  10.441 -2.0106 -1.1820 -3.2950
  921MOL0     H21510   6.686   6.681  10.526  1.2850  0.2495 -0.3268
  921MOL0     H21511   6.537   6.526  10.423 -0.0861 -1.9913 -1.3684
  921MOL0     H21512   6.687   6.531  10.317 -1.5750 -1.0628  0.3583
  921MOL0     H21513   6.571   6.659  10.147  0.5074 -3.4471 -1.7621
  921MOL0     H21514   6.434   6.676  10.265  0.2551  0.2777  0.7023
  921MOL0     H21515   6.510   6.393  10.172  1.0184 -0.0800  1.9114
  921MOL0     H21516   6.371   6.453  10.256 -1.2694  1.3760 -1.3550
  921MOL0     H21517   6.430   6.537   9.975 -0.8529  0.7015 -0.6487
  921MOL0     H21518   6.300   6.612  10.075 -1.7538 -1.8392  0.3810
  921MOL0     H21519   6.224   6.361  10.103  2.3133 -3.1781 -0.1415
  921MOL0     H21520   6.331   6.341   9.960 -0.4965 -0.7572  0.9510
  921MOL0     H21521   6.097   6.545   9.960 -0.6836  0.6674 -1.4739
  921MOL0     H21522   6.191   6.481   9.827  0.6082 -2.6522 -0.7206
  921MOL0     H21523   6.098   6.254   9.842 -0.1044  0.7850 -1.8791
  921MOL0     H21524   5.979   6.377   9.826  1.2664 -1.6380 -1.6275
  921MOL0     H21525   6.119   6.155  10.106 -0.1585  1.6908 -3.8988
  921MOL0     H21526   5.958   6.005  10.325  1.2913  0.6518 -2.8790
  921MOL0     H21527   5.841   6.118  10.393  0.4120  0.9155  1.0735
  921MOL0     H21528   6.143   6.165  10.367 -1.2649  0.0590 -2.0698
  921MOL0     H21529   6.064   6.109  10.518  0.7777 -0.0784 -0.5900
  921MOL0     H21530   6.017   6.382  10.365 -3.3865 -0.4160  0.1875
  921MOL0     H21531   5.930   6.337  10.514  0.9455  1.1810  1.4268
  921MOL0     H21532   6.221   6.325  10.545  1.5353  1.2106 -0.8645
  921MOL0     H21533   6.093   6.374  10.653 -0.7885 -1.1985 -0.3963
  921MOL0     H21534   6.203   6.782  10.519  0.3577  1.7560  0.6175
  921MOL0     H21535   6.329   6.920  10.685 -3.3542  0.8432 -0.2685
  921MOL0     H21536   6.714   6.703  11.178 -3.0216 -2.8517 -0.3459
  921MOL0     H21537   6.760   6.841  11.381  2.8699  4.2490 -0.4976
  921MOL0     H21538   6.436   7.105  11.493  1.8972 -3.7782 -0.6793
  921MOL0     H21539   6.558   7.236  11.460 -1.0312  1.1143  1.4851
  921MOL0     H21540   6.652   7.210  11.674 -1.1315  2.4645  0.4465
  921MOL0     H21541   6.542   7.071  11.701 -1.6418 -0.4282 -0.1252
  921MOL0     H21542   6.446   7.267  11.818 -4.8341 -0.8088  0.9043
  921MOL0     H21543   6.342   7.200  11.713  0.4296 -1.2772  3.2858
  921MOL0     H21544   6.524   7.437  11.635  1.2896 -2.9656 -0.1929
  921MOL0     H21545   6.411   7.352  11.527  5.0546  1.5145 -1.1266
  921MOL0     H21546   6.324   7.580  11.711 -0.9931  0.8994 -0.8963
  921MOL0     H21547   6.306   7.442  11.805 -1.7955 -0.0875 -0.5081
  921MOL0     H21548   6.147   7.332  11.671  0.9595 -0.2627  0.8138
  921MOL0     H21549   6.163   7.450  11.540 -1.8946 -0.4125  0.5778
  921MOL0     H21550   6.033   7.518  11.819 -0.3015  1.6218  0.4528
  921MOL0     H21551   6.089   7.633  11.709  2.0007 -1.0381 -0.3547
  921MOL0     H21552   5.850   7.600  11.685  0.8559  1.9217 -1.8062
  921MOL0     H21553   5.860   7.433  11.647  1.1429  0.2380  2.3691
  921MOL0     H21554   6.434   7.097  11.289  2.4256  1.2419  3.0777
  921MOL0     H21555   6.379   6.955  11.085  0.7171  1.1855 -0.2555
  921MOL0     H21556   6.476   6.538  10.851 -1.9945 -5.7408 -1.6969
  921MOL0     H21557   6.363   6.412  10.680  0.8090 -0.4276  2.7698
  921MOL0     H21558   6.923   6.910  10.254 -2.3714 -1.6113 -0.2997
  921MOL0     H21559   7.054   7.091  10.367 -0.3826  0.2265  0.5603
  921MOL0     H21560   7.023   7.420  10.714 -0.5868  0.9609  2.0785
  921MOL0     H21561   7.187   7.608  10.817  1.8230 -0.4862 -0.5362
  921MOL0     H21562   7.388   7.767  10.920 -0.1464  0.0341 -0.8470
  921MOL0     H21563   7.349   7.730  10.761  0.6695 -0.8357 -2.1641
  921MOL0     H21564   7.591   7.716  10.708  0.9493 -0.7226  0.8183
  921MOL0     H21565   7.532   7.870  10.765 -1.8281  0.6668  2.7177
  921MOL0     H21566   7.686   7.657  10.943  2.7394 -0.7187 -2.1742
  921MOL0     H21567   7.644   7.826  10.988  0.1153  2.0777 -2.1880
  921MOL0     H21568   7.849   7.733  10.778 -1.1179 -0.5921  0.2460
  921MOL0     H21569   7.780   7.896  10.777  1.4862  0.7308  0.6957
  921MOL0     H21570   8.000   7.904  11.138  0.2666  0.0649  0.4102
  921MOL0     H21571   7.494   7.316  10.844 -1.5570 -0.2331  2.4363
  921MOL0     H21572   7.350   7.145  10.754 -0.7985 -1.0386 -2.4312
  922MOL0     O21573   4.049   9.400   1.707  0.2513 -0.6954  0.6631
  922MOL0     C21574   3.937   9.375   1.752  0.7536  0.0237  0.0098
  922MOL0     O21575   3.815   9.399   1.689  0.0448 -0.6271  0.5732
  922MOL0     C21576   3.791   9.438   1.553 -0.6457  0.2815 -0.5372
  922MOL0     C21577   3.665   9.401   1.495  0.3612  0.2796 -0.3251
  922MOL0     C21578   3.639   9.451   1.366 -0.2325  0.4673  0.0906
  922MOL0     C21579   3.735   9.527   1.299 -0.2735 -0.5427 -1.0536
  922MOL0     O21580   3.734   9.566   1.168  0.6554  0.2266  0.2307
  922MOL0     C21581   3.611   9.551   1.097  1.0309 -0.3561  0.0761
  922MOL0     C21582   3.618   9.657   0.986 -0.4977 -0.0676 -0.5362
  922MOL0     C21583   3.743   9.636   0.889 -0.1149  0.0333 -0.1474
  922MOL0     C21584   3.732   9.727   0.762  0.0743  0.0654  0.6024
  922MOL0     C21585   3.830   9.691   0.652 -0.0296 -0.6686  0.2387
  922MOL0     C21586   3.974   9.708   0.690 -0.5191 -0.8704  0.3471
  922MOL0     C21587   4.076   9.661   0.592 -0.0101  0.8873  0.0519
  922MOL0     C21588   4.075   9.727   0.449  0.3347 -0.4589 -0.4578
  922MOL0     N21589   4.178   9.661   0.365 -0.0291  0.3593 -0.0867
  922MOL0     C21590   4.212   9.705   0.238 -0.7312 -0.5189  0.6163
  922MOL0     C21591   4.287   9.602   0.189 -0.2054 -0.1175  0.6553
  922MOL0     C21592   4.333   9.604   0.044 -0.1608 -0.3405 -0.5387
  922MOL0     C21593   4.390   9.738  -0.004 -0.1018  0.4022 -0.4357
  922MOL0     C21594   4.475   9.733  -0.134  0.2943  0.3023 -0.4531
  922MOL0     C21595   4.391   9.718  -0.266 -0.8348 -0.1241 -0.3664
  922MOL0     O21596   4.486   9.714  -0.380  0.1453 -0.2748 -0.1821
  922MOL0     C21597   4.540   9.835  -0.425  0.6725 -0.7439 -0.3152
  922MOL0     C21598   4.668   9.819  -0.489 -0.0926 -0.2995 -0.1002
  922MOL0     C21599   4.734   9.937  -0.526 -0.8549  0.3391 -0.1550
  922MOL0     C21600   4.702  10.070  -0.477  0.2160  1.0271 -0.2898
  922MOL0     C21601   4.786  10.192  -0.505 -0.2369  0.3387  0.5262
  922MOL0     O21602   4.894  10.168  -0.592 -0.2117 -0.3214  0.5282
  922MOL0     C21603   4.966  10.284  -0.625  0.1435  0.0476 -0.7537
  922MOL0     C21604   5.071  10.325  -0.540 -1.2137  0.1593  0.8639
  922MOL0     C21605   5.154  10.432  -0.576  0.7647 -0.0965 -0.0664
  922MOL0     C21606   5.135  10.497  -0.703  0.0846 -0.1664 -0.7403
  922MOL0     O21607   5.222  10.590  -0.744 -1.0653 -1.1936  0.4572
  922MOL0     C21608   5.184  10.690  -0.838  0.0495  0.0348  0.7747
  922MOL0     C21609   5.307  10.780  -0.860  1.3016 -0.0484 -0.9668
  922MOL0     C21610   5.365  10.848  -0.737 -0.4937  0.2640  0.3646
  922MOL0     C21611   5.503  10.898  -0.766 -0.3388  0.1948  0.6644
  922MOL0     C21612   5.509  11.000  -0.881 -0.0774  0.1468  0.2843
  922MOL0     C21613   5.650  11.045  -0.917 -0.4034  0.4129 -0.6358
  922MOL0     C21614   5.724  11.106  -0.803  0.4052  0.3931 -0.6362
  922MOL0     C21615   5.856  11.151  -0.858 -0.9864 -0.0386  0.3209
  922MOL0    Cl21616   5.953  11.252  -0.732 -0.1629 -0.0721  0.0913
  922MOL0     C21617   5.032  10.448  -0.783 -0.1325  0.5486  0.6200
  922MOL0     C21618   4.950  10.347  -0.753  0.1830 -0.5391 -1.3780
  922MOL0     O21619   4.758  10.302  -0.460 -0.7088  0.4295 -0.1642
  922MOL0     C21620   4.587  10.079  -0.402  0.5649  0.4338  0.4423
  922MOL0     C21621   4.508   9.969  -0.382 -0.1934 -0.5102 -0.0775
  922MOL0     N21622   4.303   9.505   0.282 -0.3203 -0.0203 -0.1333
  922MOL0     N21623   4.229   9.537   0.383  0.6031  0.4679 -0.3281
  922MOL0     C21624   3.855   9.570   1.366 -1.0461  0.0710 -0.5724
  922MOL0     C21625   3.885   9.516   1.491  0.0435  0.7716  0.6552
  922MOL0     C21626   3.934   9.305   1.878 -0.2519 -0.8147  0.4243
  922MOL0     C21627   3.811   9.280   1.944  0.2524  0.8853  0.4846
  922MOL0     C21628   3.799   9.216   2.071  0.2435  0.6549 -0.6225
  922MOL0     C21629   3.910   9.146   2.123 -0.0769  0.1018  0.8447
  922MOL0     O21630   3.914   9.076   2.233  0.2022 -0.1239  0.1998
  922MOL0     C21631   3.861   9.143   2.351 -0.6270  0.1519 -0.5539
  922MOL0     C21632   3.981   9.198   2.431  0.1711 -1.2020 -0.1761
  922MOL0     C21633   4.034   9.340   2.389  0.1776  1.1693  0.7648
  922MOL0     C21634   3.956   9.470   2.437  0.6003 -0.4263  1.0693
  922MOL0     C21635   3.972   9.514   2.575  0.4514  0.6338 -1.4285
  922MOL0     C21636   3.991   9.550   2.692  0.8073 -0.1233  0.0566
  922MOL0     C21637   4.032   9.157   2.050  0.5736  0.3727 -0.6987
  922MOL0     C21638   4.044   9.233   1.935  0.3075 -0.3664  0.7725
  922MOL0     H21639   3.582   9.352   1.544 -0.8155  0.8202 -1.7089
  922MOL0     H21640   3.546   9.418   1.319 -2.4875  1.7887  3.2552
  922MOL0     H21641   3.523   9.564   1.161  0.6507  0.0737 -0.5172
  922MOL0     H21642   3.599   9.448   1.063 -0.6050  0.3605 -1.7120
  922MOL0     H21643   3.615   9.752   1.038  0.1937 -1.3040  1.8986
  922MOL0     H21644   3.526   9.631   0.933 -1.8036  0.4841  1.3581
  922MOL0     H21645   3.725   9.533   0.858 -0.5673  0.1494 -0.2767
  922MOL0     H21646   3.835   9.647   0.948  0.2384  0.2368 -0.7223
  922MOL0     H21647   3.630   9.714   0.723  0.0110  1.6053  0.1764
  922MOL0     H21648   3.748   9.832   0.786  1.1131  0.3299 -1.0521
  922MOL0     H21649   3.816   9.749   0.560 -1.2704 -0.5993  0.4535
  922MOL0     H21650   3.814   9.586   0.628 -1.1204 -1.1772  2.9274
  922MOL0     H21651   3.994   9.644   0.776  0.9621 -3.5078 -1.8125
  922MOL0     H21652   3.974   9.816   0.711 -0.8171 -1.1526  1.9246
  922MOL0     H21653   4.179   9.657   0.628  0.2456 -2.7136 -0.6705
  922MOL0     H21654   4.062   9.552   0.589 -0.4569  0.8667  1.7311
  922MOL0     H21655   4.104   9.832   0.442  3.2635 -1.1557 -0.0913
  922MOL0     H21656   3.974   9.719   0.409 -0.3887  0.1800  1.1673
  922MOL0     H21657   4.182   9.797   0.190  0.4115 -0.9006 -0.9016
  922MOL0     H21658   4.252   9.577  -0.025 -1.2671  2.3220 -0.4095
  922MOL0     H21659   4.408   9.524   0.045 -0.1355 -0.3199  0.6531
  922MOL0     H21660   4.455   9.783   0.072 -0.4453  1.3413 -0.6750
  922MOL0     H21661   4.304   9.803  -0.022 -1.5693 -0.6519  2.2689
  922MOL0     H21662   4.517   9.833  -0.147 -1.1679  1.0141  0.1593
  922MOL0     H21663   4.542   9.647  -0.130 -0.7246 -0.4769  0.4995
  922MOL0     H21664   4.328   9.806  -0.276  2.0361  1.8359 -3.3305
  922MOL0     H21665   4.331   9.626  -0.255 -3.0060  1.3200  0.5369
  922MOL0     H21666   4.714   9.723  -0.512 -2.3965 -1.7800  1.0559
  922MOL0     H21667   4.820   9.936  -0.592 -0.5875  1.0066  0.1705
  922MOL0     H21668   5.078  10.277  -0.443 -1.2581  0.4964  1.0351
  922MOL0     H21669   5.223  10.462  -0.498  3.1246 -2.2439 -1.1900
  922MOL0     H21670   5.098  10.751  -0.809 -1.4324 -2.9466  3.2306
  922MOL0     H21671   5.152  10.644  -0.932  1.5542 -0.1152  0.3135
  922MOL0     H21672   5.270  10.865  -0.919  1.1180  0.4756 -0.1232
  922MOL0     H21673   5.383  10.731  -0.920  1.4465 -0.5878 -0.3559
  922MOL0     H21674   5.362  10.771  -0.660  0.8436 -2.3073 -1.9778
  922MOL0     H21675   5.302  10.933  -0.707 -2.6222 -0.5875 -1.4473
  922MOL0     H21676   5.554  10.934  -0.676 -1.6443 -1.1255  1.9838
  922MOL0     H21677   5.559  10.809  -0.797 -2.4646 -1.2266  0.7069
  922MOL0     H21678   5.440  11.080  -0.855 -0.6505 -0.0611 -0.5220
  922MOL0     H21679   5.467  10.949  -0.969  0.1959  1.5664 -0.6966
  922MOL0     H21680   5.634  11.114  -1.000 -1.5378  1.4906  0.4392
  922MOL0     H21681   5.717  10.968  -0.956 -0.8519 -0.3581  0.0949
  922MOL0     H21682   5.683  11.197  -0.760 -2.0366 -0.6385 -0.6288
  922MOL0     H21683   5.735  11.041  -0.716  2.6394  2.0675  0.4269
  922MOL0     H21684   5.834  11.214  -0.945 -1.8115  0.1722  0.6708
  922MOL0     H21685   5.909  11.063  -0.896 -0.3943  0.5071 -0.1486
  922MOL0     H21686   5.014  10.497  -0.878  1.8634 -1.7873 -1.0936
  922MOL0     H21687   4.867  10.315  -0.815 -0.7123  0.4602 -0.7381
  922MOL0     H21688   4.556  10.173  -0.357 -2.7024  1.0904 -2.7594
  922MOL0     H21689   4.425   9.976  -0.312  0.0743 -0.4186  0.2350
  922MOL0     H21690   3.921   9.642   1.319  0.6156  0.8063  2.6236
  922MOL0     H21691   3.977   9.552   1.537  1.3964 -1.3674 -0.2015
  922MOL0     H21692   3.720   9.296   1.887  0.5698 -0.6410 -0.5077
  922MOL0     H21693   3.701   9.219   2.119  0.7842  0.3259  0.5434
  922MOL0     H21694   3.817   9.061   2.408  3.5246 -2.5075 -0.7193
  922MOL0     H21695   3.778   9.213   2.342 -0.0935  0.7618 -0.8774
  922MOL0     H21696   3.957   9.210   2.537 -2.6164 -1.9471 -0.6448
  922MOL0     H21697   4.061   9.124   2.429  0.3266 -1.2761  3.2380
  922MOL0     H21698   4.021   9.340   2.281 -0.1004  0.0192  0.7840
  922MOL0     H21699   4.140   9.354   2.411  0.1747  2.9724 -0.2129
  922MOL0     H21700   4.008   9.550   2.384 -0.3860 -0.2725  0.3007
  922MOL0     H21701   3.850   9.475   2.410  1.0390 -0.1038 -0.6955
  922MOL0     H21702   4.015   9.591   2.788 -0.1683 -2.3523  1.3249
  922MOL0     H21703   4.125   9.117   2.089 -0.1173  1.5735  2.4717
  922MOL0     H21704   4.143   9.234   1.890 -0.3037 -0.3636 -0.6133
  923MOL0     O21705   6.095   9.718  10.458  0.5707 -0.2065  0.1272
  923MOL0     C21706   6.113   9.750  10.341 -1.0849  0.3321  0.4594
  923MOL0     O21707   6.190   9.853  10.299 -0.1805  0.0848  0.1600
  923MOL0     C21708   6.276   9.928  10.378  0.5449  0.3087 -0.2681
  923MOL0     C21709   6.307  10.062  10.334  0.6708  0.2863  0.1083
  923MOL0     C21710   6.397  10.142  10.401 -0.3025  0.1496  0.2322
  923MOL0     C21711   6.463  10.094  10.512  0.4207  0.2081  0.8377
  923MOL0     O21712   6.557  10.166  10.573 -0.1784  0.0742 -0.5515
  923MOL0     C21713   6.683  10.150  10.520 -0.3199 -0.1165 -0.1212
  923MOL0     C21714   6.778  10.164  10.628 -1.1388 -0.2597 -0.6545
  923MOL0     C21715   6.843  10.296  10.644  0.4451 -1.1277 -0.7127
  923MOL0     C21716   6.988  10.288  10.695  0.6937 -0.0971 -1.0366
  923MOL0     C21717   7.033  10.430  10.718 -0.7591 -0.1809 -0.0067
  923MOL0     C21718   7.186  10.458  10.728  0.1691 -0.3488  1.0395
  923MOL0     C21719   7.243  10.453  10.587  0.9609 -0.2752  0.3761
  923MOL0     C21720   7.391  10.465  10.573 -1.0491  0.1383  1.0796
  923MOL0     N21721   7.449  10.590  10.635  0.0330 -0.6429  0.1808
  923MOL0     C21722   7.565  10.592  10.701  0.5597  0.2610 -0.4527
  923MOL0     C21723   7.587  10.724  10.730 -0.1200 -0.0850 -1.5538
  923MOL0     C21724   7.705  10.777  10.806  1.5127  0.0440  0.5345
  923MOL0     C21725   7.802  10.844  10.711 -0.3399 -0.3316 -0.4452
  923MOL0     C21726   7.906  10.942  10.776 -0.6554  0.5708  0.1810
  923MOL0     C21727   7.979  10.859  10.885 -1.1276 -0.3810 -0.8373
  923MOL0     O21728   8.055  10.743  10.856  0.7097 -0.7430 -0.1508
  923MOL0     C21729   8.182  10.740  10.815  0.0314 -0.1029 -1.7715
  923MOL0     C21730   8.270  10.850  10.832  0.0468 -0.0601  0.2615
  923MOL0     C21731   8.410  10.850  10.808  0.7194  0.0275  0.7664
  923MOL0     C21732   8.469  10.730  10.762  0.3520  0.1078 -0.4137
  923MOL0     C21733   8.617  10.727  10.754  0.8528 -0.1584 -0.1517
  923MOL0     O21734   8.676  10.633  10.679 -0.0394 -0.5548 -0.0297
  923MOL0     C21735   8.809  10.625  10.683 -0.2828 -0.0197 -0.5499
  923MOL0     C21736   8.878  10.589  10.799  0.1523  0.6983 -0.3122
  923MOL0     C21737   9.013  10.580  10.819 -0.2398 -0.0250  0.6905
  923MOL0     C21738   9.088  10.606  10.699  0.3580 -0.3157 -0.8431
  923MOL0     O21739   9.223  10.590  10.698  0.0701  0.8064 -0.6746
  923MOL0     C21740   9.317  10.674  10.770  0.0170 -0.7562  0.2038
  923MOL0     C21741   9.325  10.828  10.729  0.0487  0.4875 -0.1531
  923MOL0     C21742   9.201  10.908  10.695  0.5542 -0.2476  0.9344
  923MOL0     C21743   9.104  10.930  10.813  0.1828 -0.5532 -0.8692
  923MOL0     C21744   8.981  11.010  10.776  0.8804  0.8877  0.2027
  923MOL0     C21745   8.901  11.049  10.897  0.1385 -0.1151 -0.1506
  923MOL0     C21746   8.776  11.144  10.866 -0.1004  0.2758  0.3944
  923MOL0     C21747   8.704  11.173  10.999 -0.4714 -0.0930 -0.4184
  923MOL0    Cl21748   8.547  11.248  10.946  0.2158  0.0643 -0.0023
  923MOL0     C21749   9.027  10.627  10.580 -0.8648 -0.4029  0.1789
  923MOL0     C21750   8.890  10.639  10.575 -0.3478  0.5786 -0.0187
  923MOL0     O21751   8.671  10.806  10.829  0.0245  0.2200 -0.6533
  923MOL0     C21752   8.384  10.618  10.743  0.1729  0.4213 -0.1539
  923MOL0     C21753   8.246  10.620  10.775 -0.1227  0.7844 -0.7924
  923MOL0     N21754   7.482  10.800  10.688  0.3498  0.1919  0.5543
  923MOL0     N21755   7.400  10.720  10.632  0.7194 -0.7270 -0.9228
  923MOL0     C21756   6.432   9.962  10.554  0.1205  0.2442 -0.6506
  923MOL0     C21757   6.347   9.882  10.481 -0.4633 -0.3935 -0.1184
  923MOL0     C21758   6.038   9.675  10.241 -0.2389  0.7251  1.2073
  923MOL0     C21759   6.036   9.726  10.102 -0.6123  0.6602  0.2268
  923MOL0     C21760   5.975   9.646  10.006  0.0593  0.1015  0.1313
  923MOL0     C21761   5.914   9.523  10.034  0.0352 -0.2902  0.6969
  923MOL0     O21762   5.848   9.455   9.924 -0.1061  0.1110  0.3312
  923MOL0     C21763   5.727   9.383   9.950 -0.8508  0.3538  0.4820
  923MOL0     C21764   5.601   9.467   9.982  0.0631 -0.1941 -0.3744
  923MOL0     C21765   5.470   9.389   9.951 -0.3623  0.1305  1.0091
  923MOL0     C21766   5.426   9.375   9.805 -0.0171 -0.2550  0.1862
  923MOL0     C21767   5.449   9.238   9.757  0.5922 -0.5088 -0.0107
  923MOL0     C21768   5.448   9.132   9.701 -0.6972  0.6813  0.5955
  923MOL0     C21769   5.905   9.478  10.165 -0.0611  0.7835  0.7669
  923MOL0     C21770   5.967   9.555  10.271 -0.1068  0.6092  0.0135
  923MOL0     H21771   6.256  10.091  10.243  1.5388  1.8161  0.0884
  923MOL0     H21772   6.419  10.245  10.375  0.8894 -0.6736 -2.2492
  923MOL0     H21773   6.700  10.225  10.442  2.4610 -0.1502  0.3614
  923MOL0     H21774   6.701  10.058  10.465  1.9309 -2.5396  4.1499
  923MOL0     H21775   6.860  10.097  10.599 -0.9925  0.0468 -0.9456
  923MOL0     H21776   6.731  10.129  10.720 -4.0193  0.8810 -1.5799
  923MOL0     H21777   6.784  10.348  10.720  2.4201 -3.1210  2.4075
  923MOL0     H21778   6.840  10.361  10.556  1.1130 -0.5387 -0.3123
  923MOL0     H21779   7.007  10.221  10.779  2.9888 -2.2678 -3.1071
  923MOL0     H21780   7.056  10.240  10.624  1.0213 -1.5225  0.1953
  923MOL0     H21781   6.998  10.462  10.816 -0.3941  0.0330  0.0566
  923MOL0     H21782   6.982  10.491  10.643 -1.5016  0.8146  1.2807
  923MOL0     H21783   7.221  10.378  10.793 -2.3535 -4.2536 -1.9770
  923MOL0     H21784   7.211  10.560  10.760  1.9771 -0.5252  0.2955
  923MOL0     H21785   7.216  10.353  10.551 -1.5240  0.2883  0.5062
  923MOL0     H21786   7.202  10.532  10.523  1.9626 -1.6975 -2.1924
  923MOL0     H21787   7.423  10.448  10.470 -1.1862 -0.6720  1.1633
  923MOL0     H21788   7.445  10.381  10.618 -2.0784 -1.3440 -0.3371
  923MOL0     H21789   7.627  10.505  10.719 -1.2771 -0.7647  1.3026
  923MOL0     H21790   7.758  10.695  10.855 -0.7537 -1.5589  0.4249
  923MOL0     H21791   7.669  10.839  10.888  1.5942  0.1615  0.4824
  923MOL0     H21792   7.741  10.913  10.651 -0.6348  0.6632  0.9430
  923MOL0     H21793   7.852  10.767  10.653  2.8867  2.2960 -1.5035
  923MOL0     H21794   7.978  10.975  10.701 -0.7467 -0.0319 -0.1776
  923MOL0     H21795   7.866  11.033  10.823 -1.3794  0.9267 -1.0614
  923MOL0     H21796   7.911  10.841  10.969  0.5784 -3.5241  0.0657
  923MOL0     H21797   8.043  10.933  10.933 -4.3316  2.0798 -0.0354
  923MOL0     H21798   8.219  10.943  10.857  1.0522  0.5493  0.1316
  923MOL0     H21799   8.471  10.939  10.820  2.2323 -1.1450  2.4304
  923MOL0     H21800   8.830  10.587  10.896  1.2952 -0.6132  0.2547
  923MOL0     H21801   9.068  10.548  10.907 -3.1732 -1.4407  2.1404
  923MOL0     H21802   9.414  10.624  10.762 -1.5385 -3.9413 -0.7746
  923MOL0     H21803   9.292  10.676  10.877 -4.4625  0.1906 -0.6336
  923MOL0     H21804   9.379  10.827  10.634  0.0266  0.0244 -0.1649
  923MOL0     H21805   9.372  10.883  10.810  0.0747 -0.1145  0.2454
  923MOL0     H21806   9.145  10.875  10.607  1.8785  1.3830 -0.6162
  923MOL0     H21807   9.223  11.011  10.666 -2.1249  0.3301  0.7172
  923MOL0     H21808   9.068  10.833  10.850 -3.8836  1.3979  1.0205
  923MOL0     H21809   9.152  10.981  10.897  1.9180 -0.3042 -1.9668
  923MOL0     H21810   8.906  10.961  10.712 -0.7679  3.7764 -0.2466
  923MOL0     H21811   9.008  11.100  10.721 -1.0980  0.9966 -0.6875
  923MOL0     H21812   8.954  11.106  10.974 -5.2210  0.2447  3.9202
  923MOL0     H21813   8.869  10.952  10.938 -1.0785  0.1187 -0.4909
  923MOL0     H21814   8.807  11.238  10.821 -0.5767  0.7566  1.0437
  923MOL0     H21815   8.721  11.086  10.792  1.2556  2.3121 -2.3565
  923MOL0     H21816   8.768  11.228  11.069  0.4298 -1.0390 -0.4683
  923MOL0     H21817   8.695  11.081  11.057  0.5993  2.1246  3.6326
  923MOL0     H21818   9.082  10.629  10.486 -0.1722  1.0127  0.5892
  923MOL0     H21819   8.836  10.630  10.481  0.5979 -0.0481 -0.5191
  923MOL0     H21820   8.433  10.525  10.714  0.1729  0.2110  0.5169
  923MOL0     H21821   8.196  10.523  10.772  1.1106  0.0992  0.0442
  923MOL0     H21822   6.481   9.925  10.643  0.0270  2.5572  0.4210
  923MOL0     H21823   6.340   9.775  10.497 -3.0352 -0.9303 -3.6647
  923MOL0     H21824   6.082   9.813  10.057  1.4695 -0.6689 -0.3677
  923MOL0     H21825   5.979   9.688   9.906  0.4768 -3.7204 -1.6158
  923MOL0     H21826   5.745   9.303  10.023  2.8420  1.0432  0.5423
  923MOL0     H21827   5.709   9.334   9.854  1.9485  2.0890 -1.0904
  923MOL0     H21828   5.603   9.482  10.090  2.5335 -0.3813 -0.3578
  923MOL0     H21829   5.608   9.561   9.926  2.5843 -0.4196 -0.5535
  923MOL0     H21830   5.389   9.437  10.007 -1.5272 -0.2103 -0.3137
  923MOL0     H21831   5.476   9.288   9.993  0.4240 -0.8620 -1.3381
  923MOL0     H21832   5.320   9.402   9.807  0.6683  2.8614 -0.6438
  923MOL0     H21833   5.469   9.449   9.737 -2.3221 -1.2718 -2.6128
  923MOL0     H21834   5.441   9.037   9.651 -4.1495 -0.7569  3.3704
  923MOL0     H21835   5.848   9.390  10.193  1.4392 -0.7695 -0.8605
  923MOL0     H21836   5.946   9.523  10.373 -1.3929  2.4297  0.3863
  924MOL0     O21837  10.461   0.809  10.281  0.0465 -0.2944 -0.0111
  924MOL0     C21838  10.442   0.858  10.391 -0.1041 -0.0421  0.1888
  924MOL0     O21839  10.535   0.884  10.486  0.2899  0.1698  0.8813
  924MOL0     C21840  10.670   0.860  10.457  0.1890 -0.4645  1.1036
  924MOL0     C21841  10.727   0.737  10.421 -0.1400 -0.5727 -0.4764
  924MOL0     C21842  10.863   0.729  10.384 -0.6769 -0.3216 -0.0610
  924MOL0     C21843  10.948   0.844  10.386 -0.1221 -0.8585 -0.4286
  924MOL0     O21844  11.082   0.834  10.357  0.5948  0.1464  0.4576
  924MOL0     C21845  11.118   0.743  10.252 -0.4455  0.8405  0.7057
  924MOL0     C21846  11.238   0.815  10.167  0.7165 -0.0260 -0.4119
  924MOL0     C21847  11.382   0.813  10.221 -0.0107  0.0062 -0.4898
  924MOL0     C21848  11.450   0.682  10.189 -0.1632 -0.6253 -0.5251
  924MOL0     C21849  11.603   0.710  10.184 -0.3533  0.8701  0.0149
  924MOL0     C21850  11.694   0.596  10.143  0.2410 -0.7273  0.4989
  924MOL0     C21851  11.846   0.637  10.137 -0.3508 -0.7414 -0.5657
  924MOL0     C21852  11.926   0.523  10.084  0.2047  0.4669  0.7850
  924MOL0     N21853  11.913   0.396  10.157  0.0735 -0.4749  0.8130
  924MOL0     C21854  11.827   0.288  10.127 -1.5814 -0.1430 -0.2278
  924MOL0     C21855  11.798   0.223  10.236  0.1507 -0.5403  0.5459
  924MOL0     C21856  11.696   0.113  10.239  0.9281  0.0397  0.0214
  924MOL0     C21857  11.546   0.152  10.289  0.0940 -0.1767  0.6409
  924MOL0     C21858  11.495   0.274  10.220 -0.7853 -0.0056  0.0577
  924MOL0     C21859  11.436   0.248  10.084  0.3512 -0.3994  0.7951
  924MOL0     O21860  11.438   0.374  10.011 -0.1287 -0.6278 -0.1657
  924MOL0     C21861  11.358   0.368   9.900 -0.4419 -0.9152 -0.2431
  924MOL0     C21862  11.267   0.471   9.891 -0.2552 -0.7812  0.7999
  924MOL0     C21863  11.170   0.476   9.788  0.5661  1.0364  0.2513
  924MOL0     C21864  11.159   0.382   9.685  0.8431  0.1721  0.6099
  924MOL0     C21865  11.064   0.385   9.575 -0.1463 -0.1765 -0.4512
  924MOL0     O21866  11.074   0.292   9.488  0.3013  0.4478  0.0259
  924MOL0     C21867  10.956   0.255   9.429  0.4115 -0.1015 -0.3726
  924MOL0     C21868  10.850   0.204   9.512  0.5307 -0.0109  0.1261
  924MOL0     C21869  10.722   0.183   9.465  0.4907  1.1776  0.2562
  924MOL0     C21870  10.700   0.185   9.324 -0.2484  0.3580 -0.4871
  924MOL0     O21871  10.572   0.162   9.273 -0.3467 -0.0741  0.1163
  924MOL0     C21872  10.550   0.197   9.139 -0.4205  0.2302  0.0850
  924MOL0     C21873  10.400   0.196   9.106  0.2658  0.3085  0.1485
  924MOL0     C21874  10.325   0.063   9.138 -0.3112 -0.3825  0.4871
  924MOL0     C21875  10.334  -0.022   9.011  0.3701 -1.3446 -0.0290
  924MOL0     C21876  10.265  -0.157   9.038  0.5124 -1.2489  0.0158
  924MOL0     C21877  10.228  -0.213   8.903 -0.0551 -0.1405 -0.7053
  924MOL0     C21878  10.191  -0.362   8.912  0.1632 -0.2002  0.8841
  924MOL0     C21879  10.162  -0.422   8.771 -0.3453 -0.7487 -0.3763
  924MOL0    Cl21880  10.306  -0.398   8.666 -0.0423 -0.6403 -0.2369
  924MOL0     C21881  10.811   0.214   9.236 -0.6017  0.0422 -0.3290
  924MOL0     C21882  10.930   0.252   9.290  0.1864  0.1416  0.3731
  924MOL0     O21883  10.980   0.474   9.576 -0.2590 -0.4172  0.5065
  924MOL0     C21884  11.262   0.282   9.690 -0.0836  0.9229  0.5651
  924MOL0     C21885  11.354   0.270   9.801 -0.5224 -0.3512  0.1400
  924MOL0     N21886  11.887   0.272  10.333 -0.0039 -1.2514 -0.0520
  924MOL0     N21887  11.950   0.370  10.280 -0.2001 -0.6959  0.1651
  924MOL0     C21888  10.895   0.965  10.438  0.0006 -0.2959 -0.4850
  924MOL0     C21889  10.751   0.972  10.448 -0.9694 -0.7318 -0.0777
  924MOL0     C21890  10.304   0.910  10.417 -0.1064 -0.1321  0.2169
  924MOL0     C21891  10.287   1.013  10.517 -0.5415  0.9894 -0.3145
  924MOL0     C21892  10.159   1.053  10.548  0.4891 -0.3678 -1.2797
  924MOL0     C21893  10.042   1.029  10.472 -0.4186  0.9353  0.4693
  924MOL0     O21894   9.920   1.090  10.499 -0.1667  0.0019 -0.3499
  924MOL0     C21895   9.811   0.996  10.521  0.1474 -0.4564  0.2220
  924MOL0     C21896   9.770   1.002  10.662  0.3799  0.7815  0.2995
  924MOL0     C21897   9.733   1.144  10.721  1.1186  0.2947  0.4400
  924MOL0     C21898   9.706   1.139  10.872  0.1636 -0.7324 -0.1331
  924MOL0     C21899   9.606   1.048  10.916  0.3271 -0.0857 -0.2941
  924MOL0     C21900   9.539   0.967  10.971  0.7079  0.2633 -0.3613
  924MOL0     C21901  10.062   0.937  10.364  0.1529 -0.3045 -0.5596
  924MOL0     C21902  10.192   0.880  10.338 -0.5759 -0.1844 -0.6659
  924MOL0     H21903  10.658   0.655  10.405 -1.4321  0.1863  0.9482
  924MOL0     H21904  10.902   0.634  10.349  1.1822 -1.0939  3.6283
  924MOL0     H21905  11.044   0.736  10.172 -0.1953 -0.3597  0.5586
  924MOL0     H21906  11.142   0.646  10.296 -0.5399  1.4061  2.0365
  924MOL0     H21907  11.213   0.921  10.156  1.9549  0.1803 -1.3607
  924MOL0     H21908  11.231   0.767  10.069 -1.0934 -2.7952  0.9283
  924MOL0     H21909  11.390   0.837  10.327 -2.9079  3.3637 -0.8400
  924MOL0     H21910  11.430   0.897  10.170 -0.5486 -1.2720 -3.3370
  924MOL0     H21911  11.414   0.600  10.252 -2.6605  0.0998 -0.9120
  924MOL0     H21912  11.429   0.658  10.084  2.4112  3.5879 -2.2788
  924MOL0     H21913  11.620   0.759  10.280  0.5141  1.6805 -0.5300
  924MOL0     H21914  11.612   0.786  10.106 -3.2260  1.0206 -0.2515
  924MOL0     H21915  11.665   0.542  10.053 -0.1647  1.6735 -0.8951
  924MOL0     H21916  11.691   0.527  10.228  0.6125 -1.2198  0.1182
  924MOL0     H21917  11.871   0.720  10.070  3.0775 -1.3151 -0.1641
  924MOL0     H21918  11.877   0.657  10.240 -2.7084 -1.4434  0.3453
  924MOL0     H21919  12.029   0.549  10.061 -0.7001  2.6767 -1.2687
  924MOL0     H21920  11.884   0.505   9.984  5.2279 -2.1165 -1.1971
  924MOL0     H21921  11.771   0.276  10.034 -2.4854  4.1297 -0.4396
  924MOL0     H21922  11.739   0.035  10.301  1.2388  1.2383  1.3477
  924MOL0     H21923  11.694   0.067  10.139  2.5956  0.5070 -0.2608
  924MOL0     H21924  11.549   0.180  10.394 -2.1974 -0.3231  0.8128
  924MOL0     H21925  11.474   0.070  10.277  1.1430 -0.9070 -0.9708
  924MOL0     H21926  11.419   0.329  10.277  0.4207  1.4063  0.3575
  924MOL0     H21927  11.572   0.351  10.215 -0.7541 -0.0535 -0.1828
  924MOL0     H21928  11.338   0.203  10.104  0.1172 -0.1653  0.2148
  924MOL0     H21929  11.492   0.176  10.023 -0.0472  1.4995 -1.9831
  924MOL0     H21930  11.275   0.541   9.973 -1.5291  0.4209 -0.0595
  924MOL0     H21931  11.092   0.550   9.795  0.0050  0.3323  2.1355
  924MOL0     H21932  10.876   0.189   9.617  3.3834  0.5898 -0.4209
  924MOL0     H21933  10.639   0.165   9.533  1.6340 -0.2957  1.3260
  924MOL0     H21934  10.591   0.118   9.075  1.4887  1.3359 -0.1473
  924MOL0     H21935  10.587   0.295   9.107 -3.1174  1.5954  0.9030
  924MOL0     H21936  10.382   0.222   9.001 -0.8212 -1.4412 -0.1425
  924MOL0     H21937  10.353   0.275   9.166 -0.7777  0.3850 -0.7275
  924MOL0     H21938  10.222   0.086   9.168 -1.1528  0.9335 -2.9676
  924MOL0     H21939  10.373   0.017   9.226 -1.8610 -1.2006  0.9467
  924MOL0     H21940  10.287   0.023   8.924  0.2139 -1.4372  0.0067
  924MOL0     H21941  10.439  -0.045   8.992  0.1900 -5.9246  2.7846
  924MOL0     H21942  10.182  -0.149   9.109  1.7218  0.7452  1.2985
  924MOL0     H21943  10.340  -0.219   9.089  0.0141 -2.2376 -0.4142
  924MOL0     H21944  10.316  -0.194   8.841  0.0072  0.6012 -0.4079
  924MOL0     H21945  10.141  -0.158   8.866 -1.8441 -1.6451  1.0444
  924MOL0     H21946  10.281  -0.407   8.955  1.6336 -0.4807 -2.1703
  924MOL0     H21947  10.102  -0.380   8.973 -0.2426  3.2244  1.4620
  924MOL0     H21948  10.078  -0.374   8.720 -1.5492 -1.4557  0.9012
  924MOL0     H21949  10.135  -0.526   8.791  2.8509 -1.0591  3.7174
  924MOL0     H21950  10.803   0.224   9.128 -3.5492 -0.3392 -0.2507
  924MOL0     H21951  11.005   0.272   9.214 -1.3886  1.6139 -0.8607
  924MOL0     H21952  11.270   0.200   9.620 -2.2182  0.8612  0.3226
  924MOL0     H21953  11.440   0.207   9.781 -0.3337  0.8655 -3.8414
  924MOL0     H21954  10.958   1.053  10.439  1.3668 -1.2474 -0.1133
  924MOL0     H21955  10.704   1.068  10.467  1.3236  0.5426 -0.4804
  924MOL0     H21956  10.368   1.050  10.578 -0.7676  2.2872 -0.7639
  924MOL0     H21957  10.138   1.119  10.632  1.7301  0.3174 -1.4896
  924MOL0     H21958   9.852   0.896  10.502  0.2089 -0.4494  0.3144
  924MOL0     H21959   9.733   1.017  10.448 -1.0584 -0.7202  1.3998
  924MOL0     H21960   9.683   0.936  10.655  0.9764  0.1869 -2.4684
  924MOL0     H21961   9.851   0.953  10.717 -0.3072  0.1016  0.7310
  924MOL0     H21962   9.645   1.189  10.673  1.7767  0.8997 -0.2140
  924MOL0     H21963   9.811   1.218  10.702 -1.0577  2.2495 -1.6167
  924MOL0     H21964   9.795   1.115  10.931  0.0921 -1.7485 -0.4178
  924MOL0     H21965   9.685   1.242  10.901 -3.2210 -0.7937 -1.7971
  924MOL0     H21966   9.479   0.896  11.024 -0.4749  0.0558 -1.9335
  924MOL0     H21967   9.986   0.891  10.302 -0.6948  0.8180 -0.3798
  924MOL0     H21968  10.206   0.807  10.258  2.5770  3.3387 -3.7062
  925MOL0     O21969   5.370   3.134   3.869  0.3396  0.9672 -0.1163
  925MOL0     C21970   5.347   3.235   3.931 -0.0477 -0.1446  0.2608
  925MOL0     O21971   5.438   3.336   3.952 -0.2756  0.2340  0.6693
  925MOL0     C21972   5.568   3.335   3.929  0.5579 -0.0379 -0.0498
  925MOL0     C21973   5.619   3.364   3.801  0.6042  0.2378  0.8669
  925MOL0     C21974   5.760   3.380   3.780  0.3310  0.0716  0.4144
  925MOL0     C21975   5.850   3.378   3.889  0.1131 -1.3239  0.1601
  925MOL0     O21976   5.977   3.401   3.855 -0.5631 -0.5849  0.0263
  925MOL0     C21977   6.077   3.378   3.961 -0.0674 -0.1253 -0.1041
  925MOL0     C21978   6.203   3.355   3.877  0.3236  0.6121  0.3436
  925MOL0     C21979   6.329   3.333   3.957 -0.2048  0.1003  0.4616
  925MOL0     C21980   6.446   3.344   3.859 -0.7988  0.0153  0.1974
  925MOL0     C21981   6.573   3.308   3.929  0.0622  0.2854 -0.2968
  925MOL0     C21982   6.696   3.297   3.826 -0.6535 -0.3700 -0.4473
  925MOL0     C21983   6.681   3.174   3.741 -0.0152 -0.4710 -0.1289
  925MOL0     C21984   6.811   3.149   3.668 -0.9422  0.1426  0.1670
  925MOL0     N21985   6.823   3.222   3.546 -0.3085  0.0807  0.6460
  925MOL0     C21986   6.777   3.340   3.510  0.4961 -0.3582 -0.4871
  925MOL0     C21987   6.831   3.357   3.385 -0.3791  0.1988  0.3012
  925MOL0     C21988   6.832   3.484   3.293  0.0166 -0.1168 -0.2977
  925MOL0     C21989   6.704   3.509   3.206 -0.4463 -0.6545  0.5376
  925MOL0     C21990   6.583   3.559   3.280 -1.3020  0.2145 -0.0428
  925MOL0     C21991   6.601   3.706   3.323  0.6417  0.7200  1.0956
  925MOL0     O21992   6.591   3.717   3.462  1.1137 -0.4541  0.1185
  925MOL0     C21993   6.472   3.759   3.515 -0.5791  0.6125 -0.2578
  925MOL0     C21994   6.454   3.904   3.525 -0.7129  0.5419  0.0165
  925MOL0     C21995   6.324   3.948   3.571 -0.3567  0.7388  0.1799
  925MOL0     C21996   6.220   3.862   3.605  0.2541  0.2027 -1.3662
  925MOL0     C21997   6.084   3.909   3.646  0.2517  0.4104  1.2344
  925MOL0     O21998   5.987   3.817   3.671  0.1212 -0.5776  0.6799
  925MOL0     C21999   5.871   3.848   3.724 -0.8920 -0.1161 -0.0629
  925MOL0     C22000   5.813   3.746   3.802  0.0450 -0.6638  0.2463
  925MOL0     C22001   5.687   3.764   3.864 -0.5141  0.5275  1.1032
  925MOL0     C22002   5.628   3.893   3.861  0.0182  0.1941 -0.8898
  925MOL0     O22003   5.522   3.927   3.936 -0.1565 -0.3124 -0.6932
  925MOL0     C22004   5.408   3.834   3.928 -0.1636  0.4781  0.8254
  925MOL0     C22005   5.299   3.874   4.033  0.1934  0.7641  1.2171
  925MOL0     C22006   5.182   3.770   4.059 -0.6986  0.0759 -0.4715
  925MOL0     C22007   5.096   3.743   3.940 -0.5165  0.0843  0.1722
  925MOL0     C22008   5.010   3.861   3.890 -0.5443  0.2992 -0.2452
  925MOL0     C22009   4.911   3.923   3.995  0.7744  0.2078 -0.4862
  925MOL0     C22010   4.810   3.828   4.063  0.1876  0.0419  0.2445
  925MOL0     C22011   4.701   3.755   3.980  0.0776  0.4733 -0.3150
  925MOL0    Cl22012   4.645   3.603   4.059  0.1675  0.3067  0.1380
  925MOL0     C22013   5.697   4.002   3.800  0.4266  0.2421 -0.4125
  925MOL0     C22014   5.808   3.973   3.724  0.4601 -0.7258  0.4748
  925MOL0     O22015   6.071   4.030   3.644  0.1360 -0.2200 -0.1133
  925MOL0     C22016   6.242   3.722   3.589 -0.7114  0.0046  0.2211
  925MOL0     C22017   6.362   3.669   3.538 -0.3817 -0.7310 -0.6688
  925MOL0     N22018   6.892   3.239   3.343  0.2324  0.3269  0.1298
  925MOL0     N22019   6.903   3.159   3.447  0.3320 -0.0590 -1.0428
  925MOL0     C22020   5.796   3.362   4.019  0.1178 -0.0134 -0.6155
  925MOL0     C22021   5.655   3.344   4.035  0.5542  0.6737 -0.4896
  925MOL0     C22022   5.200   3.271   3.972 -0.5335 -0.1301 -0.8063
  925MOL0     C22023   5.092   3.184   3.942  0.1248 -0.3622 -0.0315
  925MOL0     C22024   4.965   3.206   3.990  0.3122 -0.8940 -0.5636
  925MOL0     C22025   4.946   3.315   4.077 -0.1053  1.1062 -0.4752
  925MOL0     O22026   4.836   3.329   4.148 -0.1376 -0.0932  0.1007
  925MOL0     C22027   4.842   3.277   4.286  0.3621 -0.6143  0.9602
  925MOL0     C22028   4.708   3.228   4.338  0.2694 -0.5213 -0.2610
  925MOL0     C22029   4.626   3.157   4.232 -0.0746 -0.3580  1.4901
  925MOL0     C22030   4.514   3.071   4.279  0.0664 -0.3812  0.0698
  925MOL0     C22031   4.419   3.155   4.351 -0.0758  0.0673  0.9899
  925MOL0     C22032   4.326   3.212   4.393 -0.0793 -0.7107  0.7854
  925MOL0     C22033   5.049   3.406   4.106  1.0140  0.1566 -0.4742
  925MOL0     C22034   5.170   3.381   4.056 -0.5429  0.5255  0.6380
  925MOL0     H22035   5.547   3.365   3.720  1.3248  2.0710  0.2005
  925MOL0     H22036   5.804   3.402   3.683 -0.7088 -0.2556 -0.1391
  925MOL0     H22037   6.044   3.294   4.022  1.5750 -0.7571 -0.0197
  925MOL0     H22038   6.102   3.468   4.017  1.9492 -1.6073  1.5470
  925MOL0     H22039   6.213   3.446   3.819 -0.7313 -0.2654 -1.2840
  925MOL0     H22040   6.181   3.267   3.816 -0.5190  1.7546 -1.0550
  925MOL0     H22041   6.316   3.233   4.001 -2.2677 -1.0148 -2.3271
  925MOL0     H22042   6.345   3.412   4.031  1.8023 -1.0557  1.3512
  925MOL0     H22043   6.432   3.272   3.778  1.0226  0.5557 -0.6571
  925MOL0     H22044   6.456   3.441   3.810  1.9105 -0.1998  0.1854
  925MOL0     H22045   6.563   3.208   3.972 -1.5598 -0.8784 -3.0787
  925MOL0     H22046   6.591   3.381   4.008  1.7735  1.2177 -1.4808
  925MOL0     H22047   6.789   3.303   3.883 -1.8286  0.6185  1.4814
  925MOL0     H22048   6.696   3.387   3.764  2.9390  2.7004  3.3947
  925MOL0     H22049   6.667   3.086   3.803  0.2794  1.5798  3.0885
  925MOL0     H22050   6.596   3.185   3.672  1.1191 -1.1690 -1.6898
  925MOL0     H22051   6.809   3.044   3.640  3.1492 -0.4046  1.3705
  925MOL0     H22052   6.895   3.166   3.735 -0.7985  0.0462  0.0112
  925MOL0     H22053   6.729   3.412   3.575  0.9813 -0.4085 -0.0598
  925MOL0     H22054   6.921   3.490   3.230  0.0145  0.0453 -0.2845
  925MOL0     H22055   6.843   3.574   3.354  3.1726  1.4098 -2.8532
  925MOL0     H22056   6.662   3.416   3.169 -1.9778 -0.0044  0.5989
  925MOL0     H22057   6.732   3.575   3.123  1.4979 -0.6462  1.1326
  925MOL0     H22058   6.504   3.548   3.206 -1.2438 -0.4187 -0.0143
  925MOL0     H22059   6.561   3.495   3.366  0.7455  0.6844  0.9117
  925MOL0     H22060   6.537   3.770   3.263  0.4443  3.9149  4.3676
  925MOL0     H22061   6.699   3.743   3.293  0.7368  1.6439  2.4691
  925MOL0     H22062   6.531   3.975   3.500 -1.6469  0.7022 -2.8441
  925MOL0     H22063   6.309   4.055   3.559  2.6815  1.0835 -1.5617
  925MOL0     H22064   5.869   3.654   3.815  0.5593 -1.2467 -4.4104
  925MOL0     H22065   5.642   3.691   3.931 -0.2506 -0.1765  0.5238
  925MOL0     H22066   5.439   3.731   3.946  1.4659  1.0536  1.5387
  925MOL0     H22067   5.368   3.844   3.827 -2.8884  0.0491  1.7957
  925MOL0     H22068   5.264   3.976   4.015  2.2445  1.7838  2.5465
  925MOL0     H22069   5.353   3.880   4.128 -1.5215  0.6184  2.2376
  925MOL0     H22070   5.118   3.789   4.145 -0.5146 -1.9094  0.1492
  925MOL0     H22071   5.236   3.678   4.081  0.0875  1.2191  2.9016
  925MOL0     H22072   5.155   3.717   3.852 -0.2004  1.7845 -0.1422
  925MOL0     H22073   5.033   3.661   3.977  0.9057 -1.0360  0.2141
  925MOL0     H22074   4.967   3.834   3.793 -1.5003  0.2935  0.1679
  925MOL0     H22075   5.076   3.942   3.857 -0.4426  1.2173  2.0804
  925MOL0     H22076   4.844   3.990   3.940 -1.6008 -0.8759  0.9210
  925MOL0     H22077   4.969   3.978   4.069 -0.1214 -0.2702  0.6159
  925MOL0     H22078   4.867   3.752   4.117  0.7716  0.5474  0.3498
  925MOL0     H22079   4.766   3.896   4.137 -1.2119  0.6905 -1.1379
  925MOL0     H22080   4.746   3.711   3.891  2.1646  3.4601 -0.8722
  925MOL0     H22081   4.614   3.818   3.959 -0.0427  0.7503  0.9496
  925MOL0     H22082   5.652   4.101   3.800  0.8912  0.4602 -0.5801
  925MOL0     H22083   5.840   4.053   3.658  3.1636 -0.7163  1.6554
  925MOL0     H22084   6.170   3.650   3.628  1.2071 -2.2474 -0.1149
  925MOL0     H22085   6.371   3.565   3.510  3.3803 -0.1164 -2.3240
  925MOL0     H22086   5.868   3.374   4.100  2.0313  0.6553 -2.3225
  925MOL0     H22087   5.613   3.331   4.134 -0.1075  1.0545 -0.7123
  925MOL0     H22088   5.118   3.100   3.878  3.5788 -1.3499  2.3492
  925MOL0     H22089   4.879   3.141   3.978 -1.4050  0.8624  1.4794
  925MOL0     H22090   4.900   3.333   4.359  0.4968 -0.1858  0.5322
  925MOL0     H22091   4.899   3.183   4.285 -0.9507 -1.5269 -2.2739
  925MOL0     H22092   4.719   3.163   4.425 -2.8515 -0.4509  0.3034
  925MOL0     H22093   4.661   3.314   4.388 -0.7771 -0.8934 -0.5882
  925MOL0     H22094   4.694   3.104   4.165  0.7173  2.4432 -0.1076
  925MOL0     H22095   4.583   3.231   4.163  0.3213 -1.2352  0.2715
  925MOL0     H22096   4.476   3.027   4.186 -0.6671 -0.0804  0.2196
  925MOL0     H22097   4.548   2.998   4.354 -2.8357  1.1499  3.1600
  925MOL0     H22098   4.254   3.265   4.452 -1.0170 -0.5811 -0.4345
  925MOL0     H22099   5.042   3.488   4.177  3.4581 -0.5617  0.7203
  925MOL0     H22100   5.251   3.442   4.094 -0.6610 -0.5171  2.6908
  926MOL0     O22101   1.946   2.522   2.553  0.5427  0.2361  0.2296
  926MOL0     C22102   1.863   2.503   2.648 -1.1684 -0.3453  0.3725
  926MOL0     O22103   1.846   2.580   2.764 -0.1645  0.6012 -0.5042
  926MOL0     C22104   1.873   2.714   2.758  0.6233  0.2026  0.1847
  926MOL0     C22105   1.921   2.770   2.877  0.6860 -0.1486 -0.7215
  926MOL0     C22106   1.940   2.914   2.895 -0.5833  1.0387 -0.8956
  926MOL0     C22107   1.933   2.989   2.773 -0.3249 -0.0969  0.9685
  926MOL0     O22108   1.967   3.126   2.768 -0.2196  0.6863 -0.4516
  926MOL0     C22109   1.973   3.205   2.889  0.8745 -0.0345 -0.6860
  926MOL0     C22110   2.018   3.347   2.853 -0.6093  0.5415  0.2173
  926MOL0     C22111   1.932   3.417   2.746  0.2348  0.3959  0.3436
  926MOL0     C22112   1.888   3.561   2.779 -0.2101  0.1089 -0.1000
  926MOL0     C22113   1.775   3.572   2.885  0.0410 -0.3028 -0.0070
  926MOL0     C22114   1.695   3.700   2.867  0.3864  0.0655 -0.9307
  926MOL0     C22115   1.644   3.757   2.998 -0.2393  0.0598  0.3906
  926MOL0     C22116   1.553   3.879   2.987 -0.1110 -0.2364  0.3239
  926MOL0     N22117   1.623   4.003   2.957  0.4093  0.4716  0.2081
  926MOL0     C22118   1.667   4.027   2.830 -0.5493  0.2059 -0.0070
  926MOL0     C22119   1.755   4.127   2.839  0.2620  0.2520 -0.3469
  926MOL0     C22120   1.834   4.190   2.728  0.7252  0.2437  0.0896
  926MOL0     C22121   1.968   4.246   2.752 -1.0139  0.2765  0.4919
  926MOL0     C22122   2.032   4.329   2.636  0.6698  0.3276  0.4268
  926MOL0     C22123   2.181   4.303   2.642  0.3224 -0.1665  0.6828
  926MOL0     O22124   2.221   4.181   2.578  0.5561  0.9595  0.5475
  926MOL0     C22125   2.354   4.152   2.591  0.1606 -0.8375  1.0361
  926MOL0     C22126   2.391   4.062   2.689  0.2498  0.1732  0.1287
  926MOL0     C22127   2.524   4.026   2.716 -0.7041  0.0052 -0.9369
  926MOL0     C22128   2.629   4.093   2.645  0.4748  0.2439 -0.3675
  926MOL0     C22129   2.776   4.060   2.668 -0.0075  0.2549 -0.0278
  926MOL0     O22130   2.867   4.080   2.562  0.0512  0.7978 -0.1872
  926MOL0     C22131   2.986   4.019   2.569  0.9872  0.6686 -0.0747
  926MOL0     C22132   3.000   3.906   2.490 -0.8682  0.2007  0.4355
  926MOL0     C22133   3.131   3.846   2.481 -0.4916  0.0038 -0.5617
  926MOL0     C22134   3.236   3.906   2.552  0.4258  0.0678  0.3751
  926MOL0     O22135   3.356   3.849   2.563  1.0544  0.0089 -0.0052
  926MOL0     C22136   3.368   3.710   2.568 -0.0571 -0.3866  0.8433
  926MOL0     C22137   3.296   3.660   2.703 -0.5037 -0.2385  0.2815
  926MOL0     C22138   3.364   3.720   2.822  0.0494  0.5675 -0.3614
  926MOL0     C22139   3.324   3.642   2.955  0.3178 -0.5654  0.0419
  926MOL0     C22140   3.207   3.721   3.025  0.1042 -0.7244  0.9656
  926MOL0     C22141   3.063   3.719   2.964 -0.3784  0.6867  0.1144
  926MOL0     C22142   2.986   3.809   3.061  1.0344 -0.4783  0.5517
  926MOL0     C22143   2.831   3.791   3.044  0.0293  0.7228  0.0677
  926MOL0    Cl22144   2.745   3.873   3.180 -0.1718 -0.3943  0.1940
  926MOL0     C22145   3.224   4.025   2.621 -0.7150 -0.3833 -0.0706
  926MOL0     C22146   3.096   4.081   2.622  0.7272 -0.1304  0.0392
  926MOL0     O22147   2.786   3.991   2.769  0.9837  0.2633  0.4062
  926MOL0     C22148   2.590   4.186   2.540  0.8333  0.5167  0.2480
  926MOL0     C22149   2.453   4.212   2.519 -0.0842 -0.1439 -0.1021
  926MOL0     N22150   1.766   4.161   2.978 -0.2742  0.0505 -0.2419
  926MOL0     N22151   1.683   4.079   3.047  0.3248 -1.3431  0.3151
  926MOL0     C22152   1.883   2.933   2.654  0.1143  1.0969  0.2298
  926MOL0     C22153   1.835   2.796   2.647 -1.0062 -0.4621  0.2412
  926MOL0     C22154   1.777   2.380   2.646  0.5475  0.5375 -0.7880
  926MOL0     C22155   1.810   2.283   2.556 -0.3243 -0.5891  0.1869
  926MOL0     C22156   1.741   2.163   2.554 -1.2078 -0.6543  0.8613
  926MOL0     C22157   1.654   2.132   2.657  0.3300  0.7845 -0.2961
  926MOL0     O22158   1.577   2.022   2.673 -0.1220  0.1844  0.0020
  926MOL0     C22159   1.589   1.913   2.577 -0.3277 -0.2098  0.2807
  926MOL0     C22160   1.489   1.922   2.460 -0.8727  0.1291  0.1587
  926MOL0     C22161   1.347   1.910   2.520  0.3943 -0.2127  0.7821
  926MOL0     C22162   1.312   1.786   2.595  0.5116 -0.2015 -0.8063
  926MOL0     C22163   1.337   1.668   2.508 -0.0888  1.0784 -0.0807
  926MOL0     C22164   1.359   1.571   2.444 -0.8989  0.3872 -0.1911
  926MOL0     C22165   1.633   2.231   2.757 -0.4763  0.3825  0.2668
  926MOL0     C22166   1.681   2.364   2.745  0.7432 -0.1096 -0.4868
  926MOL0     H22167   1.937   2.703   2.961 -1.9634  1.8937  1.6081
  926MOL0     H22168   1.966   2.962   2.989  1.0453  0.2621 -0.9204
  926MOL0     H22169   2.038   3.151   2.959 -0.8213  1.5778  2.3426
  926MOL0     H22170   1.874   3.204   2.934  1.7421  1.7167  1.4920
  926MOL0     H22171   2.119   3.332   2.815  0.1545 -3.4597  3.1871
  926MOL0     H22172   2.034   3.403   2.945 -2.7386  0.9331  0.4001
  926MOL0     H22173   1.851   3.350   2.718  2.0032 -2.0434  0.6496
  926MOL0     H22174   1.988   3.416   2.652  1.3021  0.6775  0.9539
  926MOL0     H22175   1.974   3.625   2.802  1.2733 -1.7478 -0.2831
  926MOL0     H22176   1.858   3.606   2.683  0.4617 -0.2644 -0.4856
  926MOL0     H22177   1.821   3.557   2.983 -0.3068 -1.6811 -0.0346
  926MOL0     H22178   1.701   3.495   2.861  0.0782 -0.0769 -0.8663
  926MOL0     H22179   1.607   3.679   2.805  0.0608  1.0858 -0.8278
  926MOL0     H22180   1.762   3.776   2.825  1.9870  0.6620  2.4108
  926MOL0     H22181   1.595   3.673   3.048  4.5416 -2.8802  0.6879
  926MOL0     H22182   1.732   3.799   3.047  0.8034  1.1771 -2.2281
  926MOL0     H22183   1.501   3.892   3.082 -0.1229 -0.8484  0.4045
  926MOL0     H22184   1.476   3.865   2.910  0.7047  2.1022 -1.0040
  926MOL0     H22185   1.626   3.977   2.743 -2.8003 -0.2368  1.2315
  926MOL0     H22186   1.779   4.283   2.708  2.5433  1.1160 -1.0888
  926MOL0     H22187   1.829   4.127   2.639  2.6851 -3.8620  2.6096
  926MOL0     H22188   2.036   4.161   2.767 -0.6371  0.5055  0.0744
  926MOL0     H22189   1.960   4.313   2.838  0.3692  0.2350  0.6810
  926MOL0     H22190   1.984   4.298   2.543  0.3489 -4.2597  1.8792
  926MOL0     H22191   2.006   4.432   2.664  1.3958 -0.3724  4.2530
  926MOL0     H22192   2.216   4.322   2.744 -0.4546  0.0924  0.9054
  926MOL0     H22193   2.226   4.389   2.592  1.3496 -0.1330  1.6455
  926MOL0     H22194   2.317   4.022   2.758  0.5550 -0.1721  0.2626
  926MOL0     H22195   2.548   3.943   2.781  2.3500  1.3358 -0.1601
  926MOL0     H22196   2.919   3.865   2.430  1.1529 -1.9970 -0.9588
  926MOL0     H22197   3.158   3.759   2.422 -0.4327 -1.1012  1.0231
  926MOL0     H22198   3.474   3.689   2.584  0.0062 -0.6929  0.0900
  926MOL0     H22199   3.338   3.662   2.474 -1.7131 -0.4374  1.3728
  926MOL0     H22200   3.290   3.551   2.706  0.1299 -0.2713  0.6837
  926MOL0     H22201   3.193   3.696   2.713  0.2472  2.2881 -0.2399
  926MOL0     H22202   3.318   3.819   2.827 -4.0979 -1.2292  2.0763
  926MOL0     H22203   3.472   3.718   2.806 -0.1798  0.9858 -2.1170
  926MOL0     H22204   3.307   3.535   2.939  0.7994 -0.5640 -0.5314
  926MOL0     H22205   3.411   3.652   3.020 -0.0372 -2.0309  0.7781
  926MOL0     H22206   3.238   3.826   3.027  0.8845 -0.9442  0.8149
  926MOL0     H22207   3.197   3.677   3.124  3.3669  0.1976  1.8209
  926MOL0     H22208   3.019   3.620   2.948 -1.3991  1.3734 -1.6322
  926MOL0     H22209   3.063   3.777   2.871 -1.2048  1.4206  0.5635
  926MOL0     H22210   3.012   3.797   3.167  0.3136 -1.6123  0.6217
  926MOL0     H22211   3.010   3.915   3.049 -2.6162  0.5031  0.7850
  926MOL0     H22212   2.807   3.685   3.032  0.1037  0.9765 -2.8877
  926MOL0     H22213   2.805   3.841   2.951  2.7939 -3.0026 -3.0550
  926MOL0     H22214   3.312   4.061   2.672 -1.9089 -1.2756  2.8670
  926MOL0     H22215   3.062   4.174   2.667  0.8156 -0.8115  1.5593
  926MOL0     H22216   2.674   4.235   2.492 -1.5484  1.6536 -3.1079
  926MOL0     H22217   2.420   4.281   2.442  0.9970 -1.5368 -1.9023
  926MOL0     H22218   1.873   3.006   2.574  0.2918 -1.2817 -2.1471
  926MOL0     H22219   1.791   2.759   2.555  2.1681 -0.4598 -1.4059
  926MOL0     H22220   1.887   2.296   2.481 -0.4034 -1.1346  0.0061
  926MOL0     H22221   1.757   2.092   2.472  0.2491  0.1689  0.3973
  926MOL0     H22222   1.575   1.816   2.624 -0.3054 -0.2544  0.1950
  926MOL0     H22223   1.693   1.901   2.546 -0.4741 -2.2135  0.4492
  926MOL0     H22224   1.505   2.022   2.421 -3.0786  0.8246  0.8700
  926MOL0     H22225   1.518   1.848   2.385  1.1465  3.0955 -2.1914
  926MOL0     H22226   1.269   1.910   2.443  0.7800 -2.8909  0.2820
  926MOL0     H22227   1.322   1.993   2.586  1.3381  1.7633 -1.1981
  926MOL0     H22228   1.357   1.774   2.694 -3.5340 -2.8913  0.9872
  926MOL0     H22229   1.204   1.776   2.611  0.9413 -1.1329  2.2043
  926MOL0     H22230   1.382   1.483   2.387  1.5963 -0.5179  2.0000
  926MOL0     H22231   1.565   2.201   2.837 -0.4396  1.1650  0.6043
  926MOL0     H22232   1.658   2.443   2.816  0.6236 -1.5708  1.1382
  927MOL0     O22233  11.200   4.031   3.348 -0.3114  0.6536 -0.1015
  927MOL0     C22234  11.145   3.993   3.450 -0.1542  0.2638  0.3528
  927MOL0     O22235  11.096   3.869   3.461  0.4428  0.5997  0.2873
  927MOL0     C22236  11.138   3.774   3.369  0.2938  0.1350 -0.2871
  927MOL0     C22237  11.053   3.729   3.271  0.4115 -0.3051 -0.7761
  927MOL0     C22238  11.105   3.636   3.186 -0.3026  0.4241  0.5741
  927MOL0     C22239  11.229   3.571   3.187  0.6649 -0.0904 -0.6787
  927MOL0     O22240  11.276   3.477   3.105  0.4296  0.7036 -0.0799
  927MOL0     C22241  11.307   3.531   2.975  0.5879 -0.5416 -0.2426
  927MOL0     C22242  11.369   3.423   2.893  0.5145  0.0587  0.7967
  927MOL0     C22243  11.385   3.470   2.750  0.3891  1.0772  0.8491
  927MOL0     C22244  11.473   3.369   2.668 -0.0329 -0.0161 -0.3813
  927MOL0     C22245  11.500   3.421   2.538  0.5881 -0.2022  0.7775
  927MOL0     C22246  11.379   3.426   2.440  0.7490  0.2490 -0.1787
  927MOL0     C22247  11.396   3.499   2.301  0.7521 -0.5284 -0.7906
  927MOL0     C22248  11.259   3.542   2.254  0.2614  0.8117 -0.6690
  927MOL0     N22249  11.178   3.431   2.214 -0.5460 -0.9942  0.0059
  927MOL0     C22250  11.097   3.348   2.288 -0.1133  0.8159  0.2490
  927MOL0     C22251  11.061   3.249   2.199 -0.5579 -0.4273  0.0654
  927MOL0     C22252  10.984   3.129   2.242  0.4470 -0.5233 -0.3151
  927MOL0     C22253  10.829   3.146   2.226  0.6039 -0.0330 -0.9271
  927MOL0     C22254  10.772   3.037   2.317 -0.6753  0.3367 -0.4050
  927MOL0     C22255  10.621   3.036   2.313  0.0623 -0.0815 -0.2056
  927MOL0     O22256  10.575   3.170   2.323 -1.0963  0.2243 -0.1326
  927MOL0     C22257  10.437   3.190   2.321  1.0418  0.2962 -0.0369
  927MOL0     C22258  10.404   3.324   2.352 -0.2719  0.9278  1.1269
  927MOL0     C22259  10.269   3.360   2.349 -0.3445 -0.0182 -0.1720
  927MOL0     C22260  10.173   3.256   2.319 -0.2877 -0.0435  0.2355
  927MOL0     C22261  10.029   3.292   2.320  0.1857 -0.3535 -0.7935
  927MOL0     O22262   9.939   3.191   2.300 -0.4350 -0.4899 -0.2451
  927MOL0     C22263   9.809   3.229   2.296  0.0347  0.7073 -0.4848
  927MOL0     C22264   9.717   3.141   2.360  0.4540 -0.1291  0.0219
  927MOL0     C22265   9.580   3.172   2.366 -0.7997  0.7097 -0.9781
  927MOL0     C22266   9.534   3.287   2.305  0.1702  0.5723 -1.2056
  927MOL0     O22267   9.408   3.345   2.320 -0.1177 -0.0109 -0.7254
  927MOL0     C22268   9.337   3.407   2.206 -0.4100  0.2941 -0.5233
  927MOL0     C22269   9.190   3.434   2.245 -0.2150 -0.2024  0.9136
  927MOL0     C22270   9.173   3.486   2.388  0.8422 -0.2271 -0.3109
  927MOL0     C22271   9.255   3.610   2.419  0.2499 -0.1919 -0.6937
  927MOL0     C22272   9.189   3.671   2.548 -0.3157 -0.2496 -0.9500
  927MOL0     C22273   9.262   3.804   2.592 -0.0960 -0.3620  0.0808
  927MOL0     C22274   9.199   3.851   2.722  0.0187 -0.5030  0.0554
  927MOL0     C22275   9.284   3.970   2.773 -0.5760  0.4752 -0.7967
  927MOL0    Cl22276   9.177   4.077   2.861 -0.1272 -0.3941 -0.0324
  927MOL0     C22277   9.624   3.369   2.231 -0.3962 -0.7024  1.2106
  927MOL0     C22278   9.753   3.344   2.233  0.7176  0.2426 -0.2323
  927MOL0     O22279  10.008   3.402   2.369  0.3920 -0.7899 -0.2420
  927MOL0     C22280  10.209   3.123   2.283  0.0498 -0.1732  0.5738
  927MOL0     C22281  10.348   3.090   2.292  0.1697  0.8640  0.2297
  927MOL0     N22282  11.114   3.279   2.073  0.0575  0.4821 -0.2145
  927MOL0     N22283  11.186   3.383   2.080 -0.1690  0.0271 -0.2437
  927MOL0     C22284  11.304   3.609   3.303  0.2456 -1.1879 -0.5812
  927MOL0     C22285  11.265   3.709   3.394  0.1273 -0.3411  0.1180
  927MOL0     C22286  11.117   4.085   3.571  0.5490  0.0669 -0.1742
  927MOL0     C22287  11.174   4.214   3.585  0.7059  0.5587  1.0739
  927MOL0     C22288  11.142   4.288   3.698  0.5798 -0.1044 -0.0084
  927MOL0     C22289  11.065   4.245   3.807 -0.0542  0.6440 -0.2895
  927MOL0     O22290  11.018   4.326   3.908  0.5058 -0.8020  1.0447
  927MOL0     C22291  11.112   4.424   3.952 -0.2951  0.7816 -0.3470
  927MOL0     C22292  11.103   4.453   4.103 -0.0693  0.1490  0.3406
  927MOL0     C22293  10.961   4.513   4.137 -0.6050 -0.3734 -0.4144
  927MOL0     C22294  10.962   4.662   4.127 -0.0143  0.3789  0.0011
  927MOL0     C22295  10.827   4.717   4.138 -0.8101 -0.3640 -1.3484
  927MOL0     C22296  10.724   4.774   4.166 -0.8080 -1.1370 -0.5443
  927MOL0     C22297  11.013   4.118   3.792 -0.0877 -0.6876 -0.3386
  927MOL0     C22298  11.038   4.033   3.680  0.4783  0.5474  0.3358
  927MOL0     H22299  10.951   3.767   3.264  0.9621  1.1171 -1.5682
  927MOL0     H22300  11.037   3.614   3.105 -1.1307 -0.1707  1.4071
  927MOL0     H22301  11.370   3.620   2.982 -1.3434  0.8203  1.1179
  927MOL0     H22302  11.214   3.561   2.925  0.0093  2.7373  2.4458
  927MOL0     H22303  11.310   3.331   2.905 -0.1900  0.8675  4.7584
  927MOL0     H22304  11.462   3.401   2.945  1.5502  3.8676  0.7899
  927MOL0     H22305  11.434   3.568   2.753  2.6268  0.2272 -2.5515
  927MOL0     H22306  11.286   3.489   2.707 -0.4226  1.1328  2.6072
  927MOL0     H22307  11.566   3.376   2.725  0.5705 -0.2056 -1.3267
  927MOL0     H22308  11.430   3.269   2.669  1.7968 -0.8749  1.8935
  927MOL0     H22309  11.575   3.357   2.491  1.8300  2.5459 -1.2688
  927MOL0     H22310  11.551   3.517   2.550  1.8439 -1.0409  2.4919
  927MOL0     H22311  11.298   3.474   2.496 -0.4839 -0.6935 -1.1189
  927MOL0     H22312  11.352   3.323   2.417  0.3681 -0.4303  2.8299
  927MOL0     H22313  11.459   3.587   2.313  2.3632 -1.9256  2.0224
  927MOL0     H22314  11.440   3.430   2.228 -1.5364 -0.3058 -2.5020
  927MOL0     H22315  11.262   3.609   2.168 -3.3690  0.8949 -0.8547
  927MOL0     H22316  11.204   3.587   2.337  0.5761 -1.4883  0.8720
  927MOL0     H22317  11.073   3.358   2.394  0.7553 -2.4270  0.8791
  927MOL0     H22318  11.002   3.113   2.349 -1.9343 -2.0822 -0.0831
  927MOL0     H22319  11.031   3.040   2.199  1.9527 -1.7360  3.4055
  927MOL0     H22320  10.788   3.116   2.129 -1.4790  1.8611 -0.7257
  927MOL0     H22321  10.807   3.248   2.259  0.9333 -0.7577  1.7633
  927MOL0     H22322  10.802   2.938   2.280 -1.7674 -0.5796  1.0111
  927MOL0     H22323  10.808   3.054   2.419  1.5050  1.0980 -1.2387
  927MOL0     H22324  10.582   2.984   2.401 -2.9946 -0.4293 -1.6631
  927MOL0     H22325  10.587   3.001   2.215 -1.0490  1.9958 -0.6180
  927MOL0     H22326  10.478   3.398   2.380  0.9803  0.3590 -0.5601
  927MOL0     H22327  10.234   3.460   2.373 -2.5020 -1.0638  1.3161
  927MOL0     H22328   9.753   3.041   2.382  2.0990 -0.6718 -4.1841
  927MOL0     H22329   9.519   3.108   2.428  1.0109  1.4521  1.7587
  927MOL0     H22330   9.346   3.341   2.120  2.3670  0.7905 -0.7219
  927MOL0     H22331   9.384   3.505   2.190  0.0606  0.0791 -0.4809
  927MOL0     H22332   9.147   3.334   2.241 -2.2773  0.6007 -3.6835
  927MOL0     H22333   9.130   3.487   2.170  3.7536 -0.1528 -2.5971
  927MOL0     H22334   9.206   3.410   2.460  1.1281 -1.3337 -1.5775
  927MOL0     H22335   9.067   3.510   2.394  1.3177  1.9165  0.3036
  927MOL0     H22336   9.361   3.584   2.427  0.5029  1.1310  0.9224
  927MOL0     H22337   9.244   3.685   2.340  1.5585  1.1097  0.2901
  927MOL0     H22338   9.206   3.603   2.632 -0.5658  2.7229  1.7054
  927MOL0     H22339   9.080   3.667   2.537 -0.5285 -0.5323  0.9366
  927MOL0     H22340   9.248   3.881   2.516  0.3261  0.6708  1.0236
  927MOL0     H22341   9.365   3.777   2.618 -0.3838  0.0474  1.7586
  927MOL0     H22342   9.097   3.886   2.700  1.2002  3.5671  0.1184
  927MOL0     H22343   9.188   3.773   2.798  0.5717  0.5609  1.2737
  927MOL0     H22344   9.342   4.037   2.708  1.7227  0.1833  0.8313
  927MOL0     H22345   9.352   3.920   2.843 -1.5261 -0.0493 -0.2361
  927MOL0     H22346   9.594   3.463   2.185 -0.4141 -1.9043 -1.4356
  927MOL0     H22347   9.826   3.410   2.186 -0.4828  1.3592 -0.6013
  927MOL0     H22348  10.138   3.051   2.244  1.6497 -1.1499 -0.6796
  927MOL0     H22349  10.376   2.987   2.268 -4.2088  0.1645 -2.9846
  927MOL0     H22350  11.397   3.559   3.328 -1.3863 -3.2447  1.8469
  927MOL0     H22351  11.333   3.741   3.473 -0.0933 -0.3019  0.2919
  927MOL0     H22352  11.234   4.257   3.505  0.0855 -0.0681  0.2546
  927MOL0     H22353  11.189   4.385   3.711  2.9332 -1.4693  3.0030
  927MOL0     H22354  11.100   4.519   3.900 -1.3458 -0.2197 -2.0209
  927MOL0     H22355  11.214   4.387   3.943 -0.2894  0.8307 -0.4802
  927MOL0     H22356  11.129   4.359   4.153 -1.2256  0.3971  1.4553
  927MOL0     H22357  11.168   4.527   4.149 -1.3136  2.7533 -1.8182
  927MOL0     H22358  10.930   4.494   4.240  1.0755 -0.8278  0.0468
  927MOL0     H22359  10.891   4.469   4.067 -0.2093 -1.0887 -0.3689
  927MOL0     H22360  11.020   4.703   4.210 -0.8767 -4.3935  3.3485
  927MOL0     H22361  11.012   4.694   4.034  0.3814 -0.5329 -0.1153
  927MOL0     H22362  10.637   4.825   4.201 -1.9865 -2.5183 -1.3704
  927MOL0     H22363  10.953   4.083   3.875  2.1712 -2.2932  0.7273
  927MOL0     H22364  10.997   3.933   3.678 -0.5138  0.8350 -4.1402
  928MOL0     O22365   4.076   2.035   9.797  0.7754 -0.6873 -1.0434
  928MOL0     C22366   4.048   2.126   9.874 -0.5520  0.1279  1.0737
  928MOL0     O22367   4.141   2.203   9.929  0.2547  0.5329 -0.0564
  928MOL0     C22368   4.273   2.177   9.890 -0.5825 -0.1771  0.5396
  928MOL0     C22369   4.317   2.224   9.763  0.7397 -0.9729 -0.0104
  928MOL0     C22370   4.451   2.207   9.723  0.0940 -0.9647 -0.3512
  928MOL0     C22371   4.548   2.145   9.810  0.2481  0.7730  1.0059
  928MOL0     O22372   4.677   2.140   9.779 -0.1455 -0.6070  0.1581
  928MOL0     C22373   4.703   2.095   9.645 -0.6830 -0.2371 -0.4551
  928MOL0     C22374   4.853   2.138   9.613  0.6896  0.4338 -0.6226
  928MOL0     C22375   4.885   2.287   9.634  0.7740 -0.8535  0.5963
  928MOL0     C22376   4.805   2.392   9.551 -0.7556 -0.5493  0.3475
  928MOL0     C22377   4.843   2.537   9.585 -0.2583  0.1622 -0.8691
  928MOL0     C22378   4.784   2.640   9.493 -0.1814  0.1165  0.0596
  928MOL0     C22379   4.837   2.634   9.352 -0.4489  0.7169  0.0583
  928MOL0     C22380   4.765   2.741   9.260 -0.8363 -0.2235 -0.2744
  928MOL0     N22381   4.852   2.776   9.144 -0.4241 -0.1716 -0.6609
  928MOL0     C22382   4.848   2.725   9.019  0.1095  0.0225 -0.3260
  928MOL0     C22383   4.950   2.785   8.958  0.2839 -0.7327  0.0988
  928MOL0     C22384   4.999   2.757   8.824  0.0583 -1.0104  0.0852
  928MOL0     C22385   5.130   2.655   8.823  0.1433 -0.1498  0.0118
  928MOL0     C22386   5.091   2.505   8.805  0.2328  0.7046  0.4927
  928MOL0     C22387   5.204   2.412   8.862  0.6834 -0.2586  1.3003
  928MOL0     O22388   5.154   2.283   8.897 -0.3268 -0.0277  0.2985
  928MOL0     C22389   5.162   2.188   8.795  0.3816  0.7507 -0.1160
  928MOL0     C22390   5.128   2.060   8.835  0.4582  0.1430 -0.7174
  928MOL0     C22391   5.144   1.950   8.755  0.8309 -0.2095 -0.8983
  928MOL0     C22392   5.182   1.968   8.627  0.4164  0.3673  0.0302
  928MOL0     C22393   5.178   1.855   8.531 -0.7810  0.6801  0.8716
  928MOL0     O22394   5.116   1.747   8.575 -0.4313 -0.4078 -0.1114
  928MOL0     C22395   5.094   1.638   8.492 -1.1763  1.0404  0.6230
  928MOL0     C22396   5.059   1.521   8.564  0.5923 -0.6860 -0.7415
  928MOL0     C22397   5.038   1.398   8.501 -0.1379  0.8363 -0.3172
  928MOL0     C22398   5.052   1.382   8.366  0.4591  0.1437 -0.4839
  928MOL0     O22399   5.014   1.281   8.286  0.6836 -0.5173 -0.4785
  928MOL0     C22400   4.946   1.175   8.336  0.5775  0.6548 -0.4249
  928MOL0     C22401   5.019   1.046   8.300 -0.2016 -0.1426 -1.0399
  928MOL0     C22402   5.039   1.021   8.155 -0.1242 -0.3472  1.0192
  928MOL0     C22403   5.105   0.877   8.139 -0.0319  0.5872 -0.2423
  928MOL0     C22404   5.155   0.862   7.994  0.3595 -0.1739  0.6704
  928MOL0     C22405   5.219   0.722   7.980 -0.3680 -0.6337 -0.0123
  928MOL0     C22406   5.254   0.688   7.835  0.5640 -0.7262 -0.3125
  928MOL0     C22407   5.386   0.765   7.799 -0.5605  0.0320 -0.6588
  928MOL0    Cl22408   5.540   0.683   7.874 -0.2362  0.4600  0.4857
  928MOL0     C22409   5.083   1.498   8.292 -0.3371  0.7196 -0.0843
  928MOL0     C22410   5.115   1.618   8.350 -0.1096  0.4999  0.6579
  928MOL0     O22411   5.237   1.872   8.423 -0.1993  0.1105 -0.1579
  928MOL0     C22412   5.215   2.094   8.586 -0.0342  0.2589  0.8209
  928MOL0     C22413   5.195   2.202   8.664  0.1534  0.1323  0.3962
  928MOL0     N22414   5.009   2.881   9.042  1.3508 -0.1122  0.5507
  928MOL0     N22415   4.942   2.871   9.155 -0.2610 -0.2609  0.2560
  928MOL0     C22416   4.496   2.099   9.933 -0.2989  0.9125 -0.1658
  928MOL0     C22417   4.367   2.124   9.979  0.7179  0.5064  0.2056
  928MOL0     C22418   3.911   2.136   9.922 -0.9450 -1.0216 -0.8080
  928MOL0     C22419   3.818   2.063   9.861  1.1255  0.1090 -0.4807
  928MOL0     C22420   3.689   2.048   9.913 -0.4325 -0.5116 -0.7791
  928MOL0     C22421   3.643   2.129  10.017 -1.1875 -0.8921  0.5078
  928MOL0     O22422   3.519   2.135  10.053 -0.8759  0.4152 -0.3536
  928MOL0     C22423   3.453   2.253   9.990  0.7477 -0.4685 -0.8862
  928MOL0     C22424   3.321   2.273  10.055  0.2969  0.6712 -0.0959
  928MOL0     C22425   3.218   2.164  10.034 -0.7332 -0.2601  0.5589
  928MOL0     C22426   3.098   2.178  10.119  0.2148  0.4727 -0.5802
  928MOL0     C22427   3.005   2.064  10.089 -0.2189 -0.3717 -0.4106
  928MOL0     C22428   2.938   1.966  10.075 -0.2371 -0.5843  0.3963
  928MOL0     C22429   3.743   2.209  10.087  0.9079 -0.2461 -0.2385
  928MOL0     C22430   3.873   2.216  10.043  0.2457  0.5401  0.4122
  928MOL0     H22431   4.247   2.264   9.690  2.5887 -3.8404 -3.6775
  928MOL0     H22432   4.493   2.259   9.638 -1.5056 -1.4286 -1.4734
  928MOL0     H22433   4.637   2.144   9.574 -1.0415 -1.7951 -1.2412
  928MOL0     H22434   4.679   1.989   9.635  3.5466 -1.1833 -3.0736
  928MOL0     H22435   4.867   2.114   9.507  0.2088  1.1812 -0.8618
  928MOL0     H22436   4.914   2.068   9.672 -1.1189 -1.8300 -1.2698
  928MOL0     H22437   4.987   2.319   9.608 -0.9030  3.4118 -1.9705
  928MOL0     H22438   4.862   2.308   9.738 -4.1527  1.0554 -0.5938
  928MOL0     H22439   4.835   2.377   9.447 -0.1833  2.5740 -0.0450
  928MOL0     H22440   4.697   2.376   9.561 -0.6274 -2.3245 -0.6713
  928MOL0     H22441   4.952   2.544   9.596 -0.4229  0.1500  1.3694
  928MOL0     H22442   4.807   2.559   9.686  2.6636  3.2430 -0.3388
  928MOL0     H22443   4.803   2.736   9.541  2.8513 -0.3590 -0.0149
  928MOL0     H22444   4.678   2.612   9.498  0.7625 -4.7539 -1.2332
  928MOL0     H22445   4.944   2.657   9.357 -0.1618 -0.7660  2.2888
  928MOL0     H22446   4.821   2.532   9.317 -2.6410  1.0684 -0.1116
  928MOL0     H22447   4.738   2.837   9.304 -3.0276 -0.2231 -1.4692
  928MOL0     H22448   4.675   2.697   9.215 -1.5681  1.8884 -0.9657
  928MOL0     H22449   4.769   2.656   8.993 -1.3016 -0.1370  3.6889
  928MOL0     H22450   5.040   2.852   8.788  0.6213 -1.1852  0.2494
  928MOL0     H22451   4.919   2.724   8.758 -0.8893  1.4513 -0.0987
  928MOL0     H22452   5.189   2.671   8.914 -1.8819  1.4591  1.1403
  928MOL0     H22453   5.198   2.665   8.738 -0.9369 -1.2349 -1.0191
  928MOL0     H22454   4.991   2.479   8.841 -0.4233  3.1075  0.6332
  928MOL0     H22455   5.086   2.476   8.700  1.7601 -0.9245  0.8346
  928MOL0     H22456   5.246   2.455   8.954 -0.2002 -1.9235  2.5468
  928MOL0     H22457   5.287   2.398   8.793  0.9363 -3.8394  2.1350
  928MOL0     H22458   5.094   2.033   8.934  2.5487  2.8056  0.8654
  928MOL0     H22459   5.127   1.852   8.799  0.6755  0.4543  0.5525
  928MOL0     H22460   5.053   1.537   8.671 -1.8281  2.7238 -1.2405
  928MOL0     H22461   5.005   1.311   8.558  1.7331  0.4963  0.3060
  928MOL0     H22462   4.847   1.163   8.291  0.2883  0.7457  0.1793
  928MOL0     H22463   4.917   1.175   8.441 -0.6901 -0.2568 -0.7456
  928MOL0     H22464   4.947   0.974   8.339 -3.2645  3.3464  0.3864
  928MOL0     H22465   5.109   1.045   8.362 -1.1684  1.7155  0.5170
  928MOL0     H22466   5.110   1.093   8.113  0.0765 -0.7785  0.6144
  928MOL0     H22467   4.955   1.017   8.085  2.1738 -1.8980 -1.8612
  928MOL0     H22468   5.188   0.884   8.210  1.3034  2.3314 -1.8677
  928MOL0     H22469   5.038   0.792   8.154  1.7895 -1.3463 -2.2405
  928MOL0     H22470   5.231   0.935   7.966  1.3134 -1.8484 -1.3510
  928MOL0     H22471   5.068   0.882   7.930 -0.5615  0.3488  2.0381
  928MOL0     H22472   5.153   0.644   8.021 -1.0683  0.5149  1.0945
  928MOL0     H22473   5.314   0.714   8.034  0.0221  1.7310 -0.2751
  928MOL0     H22474   5.267   0.584   7.804 -1.9344 -0.7100 -1.6269
  928MOL0     H22475   5.176   0.734   7.775  0.0753  0.3351  1.0766
  928MOL0     H22476   5.383   0.871   7.825 -0.0494  0.7266 -3.1993
  928MOL0     H22477   5.395   0.762   7.690  3.4594 -0.9787 -0.4848
  928MOL0     H22478   5.104   1.491   8.185  1.1266 -1.1906  0.2742
  928MOL0     H22479   5.142   1.691   8.274 -2.0634  0.3708 -0.2254
  928MOL0     H22480   5.248   2.103   8.483  2.1434 -0.7331  1.3735
  928MOL0     H22481   5.213   2.301   8.623 -2.7181  0.0983 -1.2196
  928MOL0     H22482   4.572   2.067  10.003 -0.9062  0.4091  0.2754
  928MOL0     H22483   4.324   2.087  10.071 -1.4150 -0.0545 -0.9586
  928MOL0     H22484   3.839   2.007   9.770 -3.2751  0.7708 -2.1643
  928MOL0     H22485   3.622   1.980   9.861  1.3725 -2.8409 -0.2455
  928MOL0     H22486   3.441   2.241   9.882 -0.8436  0.1046 -0.8079
  928MOL0     H22487   3.521   2.338   9.997  0.7374 -0.4891 -0.5198
  928MOL0     H22488   3.341   2.293  10.161 -1.4802  4.8644 -0.3613
  928MOL0     H22489   3.271   2.366  10.026 -1.3617  1.1033  3.5855
  928MOL0     H22490   3.271   2.070  10.052 -0.4986 -0.2601 -0.0960
  928MOL0     H22491   3.191   2.165   9.928  1.2792  2.0753 -0.0186
  928MOL0     H22492   3.135   2.163  10.221  1.1489 -2.4064 -1.2380
  928MOL0     H22493   3.049   2.271  10.089  0.4533 -0.3208 -3.7466
  928MOL0     H22494   2.878   1.879  10.058 -3.1512  0.9452  2.0345
  928MOL0     H22495   3.702   2.265  10.171 -4.9932 -2.4468 -1.1964
  928MOL0     H22496   3.957   2.261  10.094  1.7991 -2.4504  0.7435
  929MOL0     O22497   2.661   0.191   1.292 -0.0633  0.5954  0.3390
  929MOL0     C22498   2.620   0.085   1.348 -0.5135  0.3496  0.4359
  929MOL0     O22499   2.490   0.036   1.347 -0.3895  1.0598 -0.3923
  929MOL0     C22500   2.395   0.116   1.284 -0.7104 -0.1586 -0.5468
  929MOL0     C22501   2.378   0.130   1.153  0.3912  0.1020 -0.6016
  929MOL0     C22502   2.280   0.209   1.098  0.7934 -0.7468 -0.4344
  929MOL0     C22503   2.196   0.284   1.184 -0.5152  0.1887 -1.0040
  929MOL0     O22504   2.106   0.379   1.133  0.8617  0.4278 -0.3218
  929MOL0     C22505   2.104   0.418   1.005  0.1347  0.2538 -0.0259
  929MOL0     C22506   2.209   0.525   0.992 -0.5136  0.3680  0.3066
  929MOL0     C22507   2.193   0.657   1.083 -0.3278  0.8031 -0.3849
  929MOL0     C22508   2.291   0.750   1.022 -0.6208 -0.5679  0.2795
  929MOL0     C22509   2.259   0.896   1.081 -0.2179  0.7737 -0.0028
  929MOL0     C22510   2.346   0.999   1.014  0.3233 -0.0649  0.2238
  929MOL0     C22511   2.302   1.146   1.051 -0.2588  0.1088 -0.1997
  929MOL0     C22512   2.379   1.232   0.950 -0.9227 -0.6769 -0.6160
  929MOL0     N22513   2.363   1.193   0.818  0.0567 -0.0572 -0.3831
  929MOL0     C22514   2.461   1.171   0.720 -0.0310 -0.0765  0.1682
  929MOL0     C22515   2.381   1.160   0.608 -0.9130  0.6137 -0.8577
  929MOL0     C22516   2.423   1.143   0.465  0.7460  0.3047  0.2198
  929MOL0     C22517   2.487   1.262   0.396  0.0960  0.2798 -0.7123
  929MOL0     C22518   2.612   1.315   0.454  1.0815 -0.2194 -0.5775
  929MOL0     C22519   2.699   1.404   0.362  0.9502  0.1190  0.3584
  929MOL0     O22520   2.809   1.463   0.435 -0.2012 -0.4349 -0.1357
  929MOL0     C22521   2.782   1.583   0.500  0.1259 -0.0896 -1.2413
  929MOL0     C22522   2.889   1.655   0.557 -0.4393  0.1240 -0.5320
  929MOL0     C22523   2.873   1.767   0.627  0.4353 -0.6392  0.2112
  929MOL0     C22524   2.743   1.813   0.658  0.4409 -0.2100 -1.1066
  929MOL0     C22525   2.734   1.928   0.750 -0.9972  0.9786  0.3960
  929MOL0     O22526   2.618   2.006   0.752  0.0820  0.6595  0.0392
  929MOL0     C22527   2.613   2.117   0.840 -0.2129  0.6039  0.1429
  929MOL0     C22528   2.619   2.245   0.786 -0.0671 -0.0324  0.5867
  929MOL0     C22529   2.633   2.359   0.869  0.6231  0.0098 -0.1071
  929MOL0     C22530   2.640   2.352   1.013 -0.0573 -0.4936 -0.5506
  929MOL0     O22531   2.645   2.474   1.073  0.5023 -0.4554  0.4414
  929MOL0     C22532   2.592   2.472   1.202  0.2323  0.3764 -0.2274
  929MOL0     C22533   2.550   2.615   1.248  0.2804 -0.4851  0.1599
  929MOL0     C22534   2.432   2.609   1.356  0.6788 -0.1914 -0.7435
  929MOL0     C22535   2.422   2.751   1.437 -1.4897 -0.2601  0.3878
  929MOL0     C22536   2.304   2.744   1.523  0.0198 -0.1870  0.4240
  929MOL0     C22537   2.189   2.817   1.460  0.6776  0.4336 -0.1848
  929MOL0     C22538   2.065   2.830   1.557 -0.6056  0.9794  0.6272
  929MOL0     C22539   1.937   2.881   1.473  0.1228  0.2397  0.3368
  929MOL0    Cl22540   1.959   3.032   1.384 -0.0195 -0.0195 -0.0779
  929MOL0     C22541   2.620   2.223   1.068  0.6710 -0.6154  0.6608
  929MOL0     C22542   2.609   2.105   0.986 -0.2316 -0.1071 -0.8240
  929MOL0     O22543   2.839   1.961   0.807 -0.2743 -0.2034  0.5219
  929MOL0     C22544   2.628   1.752   0.610  0.1330  0.1618 -0.3559
  929MOL0     C22545   2.649   1.641   0.525  0.4425 -0.0629  0.1626
  929MOL0     N22546   2.249   1.168   0.642 -0.0409 -0.8127 -0.3416
  929MOL0     N22547   2.241   1.199   0.763  0.0549  0.0016 -0.6543
  929MOL0     C22548   2.218   0.278   1.323 -0.4552 -0.6074  0.1533
  929MOL0     C22549   2.318   0.186   1.375  0.4227  1.0165  0.6131
  929MOL0     C22550   2.712  -0.011   1.427 -0.3459 -0.0941 -0.1600
  929MOL0     C22551   2.660  -0.114   1.514  0.2090  0.0733  0.5943
  929MOL0     C22552   2.747  -0.189   1.596  0.0217  0.1106 -0.0867
  929MOL0     C22553   2.887  -0.185   1.577 -0.6232 -0.2964 -1.0660
  929MOL0     O22554   2.987  -0.256   1.649  0.0546  0.6089  0.8623
  929MOL0     C22555   2.950  -0.337   1.751 -0.3986 -0.2282 -0.1184
  929MOL0     C22556   2.910  -0.487   1.722  0.5291 -0.1086 -0.0633
  929MOL0     C22557   3.020  -0.573   1.646 -0.2668 -0.2723  0.4141
  929MOL0     C22558   3.030  -0.529   1.492  0.3862 -0.2061  0.1654
  929MOL0     C22559   3.118  -0.615   1.410 -0.3082  1.0301 -0.7262
  929MOL0     C22560   3.188  -0.688   1.335 -0.6574 -1.5493 -0.5157
  929MOL0     C22561   2.937  -0.096   1.478 -0.1659  0.1748  0.1351
  929MOL0     C22562   2.854  -0.010   1.408 -0.6762 -1.2992 -0.1086
  929MOL0     H22563   2.428   0.061   1.085 -3.5967 -2.3606 -1.4228
  929MOL0     H22564   2.270   0.207   0.990  0.0318 -0.5822 -0.3770
  929MOL0     H22565   2.004   0.460   0.988 -0.1723  0.1897  1.5065
  929MOL0     H22566   2.129   0.334   0.939  0.3741 -0.4541  0.9392
  929MOL0     H22567   2.206   0.549   0.886  2.2622 -5.4059 -1.4984
  929MOL0     H22568   2.305   0.479   1.016 -1.1140 -0.4924  1.1132
  929MOL0     H22569   2.212   0.646   1.191  1.0722  2.1792 -0.4513
  929MOL0     H22570   2.088   0.685   1.073 -1.4177 -1.7232  2.3299
  929MOL0     H22571   2.388   0.723   1.063  0.2113  3.4263  1.3931
  929MOL0     H22572   2.302   0.759   0.913  0.0351  3.6165  0.5067
  929MOL0     H22573   2.265   0.909   1.189 -1.3400  2.1679 -0.0764
  929MOL0     H22574   2.158   0.917   1.043 -0.9311 -1.0437  0.7567
  929MOL0     H22575   2.350   0.972   0.908  1.3993 -3.3414  0.9703
  929MOL0     H22576   2.445   0.990   1.060  0.3379  0.4158  0.2877
  929MOL0     H22577   2.194   1.163   1.044 -0.6949 -2.3203 -0.0252
  929MOL0     H22578   2.341   1.162   1.152 -2.3291  1.7742  0.4223
  929MOL0     H22579   2.484   1.258   0.964 -0.5624 -0.1849 -3.5110
  929MOL0     H22580   2.336   1.333   0.951 -1.9348 -1.0696  1.8312
  929MOL0     H22581   2.569   1.177   0.731  0.0807 -2.2881  0.8501
  929MOL0     H22582   2.328   1.129   0.412  0.2045 -0.6001  1.3701
  929MOL0     H22583   2.494   1.062   0.444  1.5195  1.6230 -2.7520
  929MOL0     H22584   2.416   1.340   0.368 -1.0386 -1.1838 -2.1826
  929MOL0     H22585   2.510   1.211   0.302 -0.4399 -0.6145 -0.3762
  929MOL0     H22586   2.587   1.374   0.543  2.0284 -2.6394  1.4404
  929MOL0     H22587   2.670   1.230   0.492  1.1121  0.1599  0.2436
  929MOL0     H22588   2.631   1.478   0.318  1.0363  1.1939  1.9724
  929MOL0     H22589   2.736   1.329   0.291 -0.4356 -0.6001  0.3588
  929MOL0     H22590   2.985   1.606   0.549 -1.5170 -1.9913 -1.1197
  929MOL0     H22591   2.958   1.819   0.669 -0.3513  1.0841 -0.2619
  929MOL0     H22592   2.610   2.241   0.678 -0.1035 -1.3128  0.6227
  929MOL0     H22593   2.642   2.457   0.824  0.8652 -0.9945 -2.3635
  929MOL0     H22594   2.655   2.421   1.275 -2.0286 -1.4283  0.5865
  929MOL0     H22595   2.497   2.419   1.213 -0.1557  1.0054 -0.4953
  929MOL0     H22596   2.513   2.668   1.160 -1.7878 -1.9489  0.0658
  929MOL0     H22597   2.639   2.662   1.292 -0.9758  1.3389  0.8651
  929MOL0     H22598   2.450   2.524   1.422 -1.5075 -0.3349 -0.2573
  929MOL0     H22599   2.341   2.575   1.306  1.2765 -3.6303  0.3164
  929MOL0     H22600   2.516   2.771   1.489 -2.7105  1.3112  2.1188
  929MOL0     H22601   2.416   2.832   1.364  1.4581 -0.8197 -0.6234
  929MOL0     H22602   2.317   2.785   1.624 -2.7856 -2.5240  1.9031
  929MOL0     H22603   2.279   2.639   1.541 -4.4572  1.0182  2.9606
  929MOL0     H22604   2.155   2.759   1.374 -0.4699 -0.0347  0.5606
  929MOL0     H22605   2.219   2.918   1.431  1.3062 -0.0065 -1.0829
  929MOL0     H22606   2.062   2.730   1.602  1.9537  0.9166  0.8043
  929MOL0     H22607   2.085   2.900   1.639 -0.0739  1.8919 -0.2568
  929MOL0     H22608   1.867   2.900   1.555  1.6954 -0.0393  1.8026
  929MOL0     H22609   1.894   2.807   1.403  0.2079  3.0698 -2.9766
  929MOL0     H22610   2.617   2.209   1.175 -0.6242 -0.9658  0.5931
  929MOL0     H22611   2.604   2.010   1.039 -0.5582  0.7935  0.8169
  929MOL0     H22612   2.527   1.788   0.624 -0.0625 -0.9983  1.6673
  929MOL0     H22613   2.557   1.601   0.482  0.7371 -0.1577 -0.3959
  929MOL0     H22614   2.148   0.330   1.388 -2.0007  0.3186 -2.1404
  929MOL0     H22615   2.323   0.167   1.482 -0.4553  2.1250  0.8794
  929MOL0     H22616   2.553  -0.130   1.522  0.1565  0.7566  1.3583
  929MOL0     H22617   2.695  -0.250   1.670  1.7325  0.5231  1.5138
  929MOL0     H22618   2.873  -0.296   1.817  1.5454  2.2878  0.7668
  929MOL0     H22619   3.037  -0.337   1.817  1.0002  3.2491 -1.7440
  929MOL0     H22620   2.887  -0.542   1.814  0.0646 -2.2137 -1.3802
  929MOL0     H22621   2.815  -0.485   1.667  1.3742 -0.8657 -1.6003
  929MOL0     H22622   2.996  -0.680   1.652 -0.2798 -0.1667  3.0136
  929MOL0     H22623   3.119  -0.554   1.689 -0.0473  0.1083 -0.2435
  929MOL0     H22624   2.932  -0.543   1.445  1.0978 -0.3118 -1.3443
  929MOL0     H22625   3.066  -0.427   1.476 -0.7896  0.1859 -0.0960
  929MOL0     H22626   3.241  -0.731   1.252 -1.0538  0.9411 -2.1555
  929MOL0     H22627   3.043  -0.106   1.457 -0.1685 -1.1633  0.6560
  929MOL0     H22628   2.893   0.049   1.325 -3.1045  0.2278 -0.2789
  930MOL0     O22629   0.699   2.120   4.453  0.4353 -0.1735  0.2092
  930MOL0     C22630   0.613   2.139   4.363 -0.0827 -0.9001 -0.5134
  930MOL0     O22631   0.510   2.053   4.338 -0.7443 -0.1119 -0.0085
  930MOL0     C22632   0.492   1.952   4.427  0.2933 -0.7024  1.1726
  930MOL0     C22633   0.500   1.817   4.378 -0.4076  0.3735  0.2012
  930MOL0     C22634   0.452   1.709   4.453 -0.0239  0.0340  1.0206
  930MOL0     C22635   0.402   1.733   4.577  0.1319 -0.2381 -0.2134
  930MOL0     O22636   0.369   1.629   4.667  0.4793 -0.2157 -0.1085
  930MOL0     C22637   0.462   1.517   4.674  0.4306  0.0860  0.4970
  930MOL0     C22638   0.504   1.487   4.819 -0.2206  1.8216 -0.7147
  930MOL0     C22639   0.562   1.608   4.883  0.3578 -0.5714  1.0137
  930MOL0     C22640   0.612   1.590   5.022 -0.6801 -0.4136  0.0002
  930MOL0     C22641   0.484   1.565   5.108  0.8688 -0.5514  0.0659
  930MOL0     C22642   0.483   1.417   5.164  1.4157 -0.9392 -0.4158
  930MOL0     C22643   0.337   1.374   5.199  1.6137  0.1317  0.7682
  930MOL0     C22644   0.269   1.429   5.324 -0.7150 -0.0705 -0.2242
  930MOL0     N22645   0.129   1.372   5.329 -0.2458 -0.4497  0.6454
  930MOL0     C22646   0.014   1.439   5.298  0.0059 -0.1411  0.1179
  930MOL0     C22647  -0.082   1.343   5.301 -0.6701  0.2207 -0.4950
  930MOL0     C22648  -0.232   1.368   5.297 -0.9994 -0.3744  0.5006
  930MOL0     C22649  -0.278   1.345   5.154 -0.5360 -1.0585  0.1448
  930MOL0     C22650  -0.409   1.408   5.123 -0.3631  0.2276 -0.2912
  930MOL0     C22651  -0.392   1.537   5.050 -0.1099 -1.1289 -0.2079
  930MOL0     O22652  -0.512   1.567   4.995 -0.4733  1.2816 -0.3817
  930MOL0     C22653  -0.585   1.681   5.015 -0.4306 -0.0177 -0.2425
  930MOL0     C22654  -0.719   1.669   5.016 -0.4477  1.1493  0.5864
  930MOL0     C22655  -0.801   1.780   5.054  0.1566 -0.1688 -0.9356
  930MOL0     C22656  -0.742   1.905   5.056 -0.4384 -1.1524 -0.1452
  930MOL0     C22657  -0.821   2.032   5.077 -0.3356 -0.1161  0.3044
  930MOL0     O22658  -0.942   2.013   5.140 -0.3681  0.3388 -0.5700
  930MOL0     C22659  -1.037   2.112   5.141 -1.1650 -0.7955 -0.3511
  930MOL0     C22660  -1.033   2.228   5.061 -0.2835 -0.0589  0.5411
  930MOL0     C22661  -1.121   2.333   5.067 -0.0239  0.1390 -0.7626
  930MOL0     C22662  -1.226   2.306   5.159 -0.3004 -0.3626  0.6513
  930MOL0     O22663  -1.327   2.405   5.158  0.8946 -0.3721  0.0894
  930MOL0     C22664  -1.387   2.442   5.284 -0.2130 -0.3970 -0.9536
  930MOL0     C22665  -1.419   2.597   5.278 -0.3908 -0.0669  0.1745
  930MOL0     C22666  -1.487   2.642   5.151  0.7335 -0.8340  0.0428
  930MOL0     C22667  -1.520   2.789   5.134 -1.0815  0.3952 -0.7010
  930MOL0     C22668  -1.658   2.811   5.070 -0.6170  0.4139  0.6868
  930MOL0     C22669  -1.657   2.751   4.926  0.8533  0.6119 -1.0787
  930MOL0     C22670  -1.782   2.801   4.845 -1.8126 -0.2744  0.9218
  930MOL0     C22671  -1.781   2.753   4.700  0.7384 -0.6380  0.6214
  930MOL0    Cl22672  -1.631   2.811   4.626  0.0267  0.0788 -0.0460
  930MOL0     C22673  -1.220   2.192   5.250  0.3891 -1.1091  0.7484
  930MOL0     C22674  -1.125   2.094   5.239 -0.3203  0.4241 -0.3034
  930MOL0     O22675  -0.765   2.132   5.041  0.2911  0.6397  0.0472
  930MOL0     C22676  -0.600   1.915   5.045 -0.2150 -0.0174 -0.1707
  930MOL0     C22677  -0.528   1.802   5.029 -0.2770 -0.4727 -0.4561
  930MOL0     N22678  -0.023   1.229   5.346  0.2323  0.5567  0.9777
  930MOL0     N22679   0.103   1.244   5.360  0.7308 -0.0534  0.0696
  930MOL0     C22680   0.398   1.860   4.633  0.3873  0.1057 -0.2580
  930MOL0     C22681   0.441   1.971   4.555 -0.1356 -0.5683  0.3941
  930MOL0     C22682   0.603   2.267   4.291 -0.4657 -0.8078 -0.0063
  930MOL0     C22683   0.717   2.299   4.225 -0.5168 -0.0409 -0.9284
  930MOL0     C22684   0.727   2.418   4.157  0.7413 -0.0854 -0.1915
  930MOL0     C22685   0.618   2.499   4.132  0.6529 -0.0516 -0.1328
  930MOL0     O22686   0.655   2.612   4.067 -0.0704  0.5793  0.6581
  930MOL0     C22687   0.594   2.734   4.093  0.2953 -0.4741  0.3673
  930MOL0     C22688   0.706   2.827   4.157  0.0351  0.0710 -0.5785
  930MOL0     C22689   0.789   2.904   4.045 -0.5110  0.4571 -0.4149
  930MOL0     C22690   0.841   2.806   3.934 -0.2680  0.4700 -0.3728
  930MOL0     C22691   0.923   2.878   3.838  0.4657 -0.3256  0.1391
  930MOL0     C22692   1.001   2.930   3.765 -0.4049 -0.6160 -1.1701
  930MOL0     C22693   0.498   2.464   4.197  0.2597 -0.4302 -0.2419
  930MOL0     C22694   0.494   2.345   4.283 -0.5502 -0.1863  0.6260
  930MOL0     H22695   0.557   1.800   4.288 -1.2771  0.3993 -0.3707
  930MOL0     H22696   0.448   1.605   4.421 -1.0050 -0.4047  2.4120
  930MOL0     H22697   0.545   1.519   4.603 -0.5665 -0.0704 -0.7030
  930MOL0     H22698   0.409   1.430   4.635  2.0930 -0.5763 -0.3667
  930MOL0     H22699   0.587   1.417   4.810 -0.8094  0.9495  0.4048
  930MOL0     H22700   0.431   1.439   4.885 -0.7163  1.4772 -1.4893
  930MOL0     H22701   0.488   1.686   4.863  1.0942 -0.7225 -3.3546
  930MOL0     H22702   0.653   1.640   4.830 -0.7516 -2.1284 -2.0387
  930MOL0     H22703   0.681   1.507   5.040 -1.6109 -0.7539  2.3669
  930MOL0     H22704   0.659   1.685   5.048 -0.5452 -1.1495  2.7839
  930MOL0     H22705   0.399   1.588   5.044  0.2407  1.1123  1.3975
  930MOL0     H22706   0.483   1.630   5.196 -0.8271 -0.6499  0.1570
  930MOL0     H22707   0.557   1.414   5.245  3.0461 -1.1108 -1.8397
  930MOL0     H22708   0.522   1.354   5.084 -0.4965  0.2409 -2.3687
  930MOL0     H22709   0.279   1.405   5.111  2.7647 -1.8305 -0.7677
  930MOL0     H22710   0.334   1.266   5.217 -0.5903  0.0652  0.2586
  930MOL0     H22711   0.281   1.534   5.298  3.4413 -0.9187 -2.6032
  930MOL0     H22712   0.331   1.402   5.410  2.9342  3.0336 -1.5944
  930MOL0     H22713  -0.002   1.545   5.282 -2.8557 -0.6976 -1.3678
  930MOL0     H22714  -0.244   1.469   5.338 -0.1860  1.1068 -2.5861
  930MOL0     H22715  -0.276   1.288   5.357 -1.9379 -1.2245 -1.2456
  930MOL0     H22716  -0.256   1.239   5.145 -1.4603 -1.1890 -0.7447
  930MOL0     H22717  -0.199   1.381   5.087 -0.4103  0.3489  0.9977
  930MOL0     H22718  -0.450   1.339   5.048  1.4905  0.4657 -1.5878
  930MOL0     H22719  -0.477   1.422   5.207 -0.0127  0.7705 -0.0930
  930MOL0     H22720  -0.320   1.523   4.969  0.9773  0.3795  0.4672
  930MOL0     H22721  -0.368   1.620   5.117 -0.2640 -0.9181 -0.4115
  930MOL0     H22722  -0.756   1.570   4.989  0.1477  1.2126 -0.4897
  930MOL0     H22723  -0.908   1.764   5.066  0.1795 -0.4675 -1.1097
  930MOL0     H22724  -0.954   2.241   4.988 -2.6794  0.4752 -2.1587
  930MOL0     H22725  -1.121   2.413   4.994  1.8038 -1.1368 -2.2532
  930MOL0     H22726  -1.319   2.405   5.361  1.5117  0.8644 -1.7950
  930MOL0     H22727  -1.484   2.392   5.296 -0.6103  0.9358  2.5747
  930MOL0     H22728  -1.325   2.649   5.300  0.2686 -1.7082  1.4161
  930MOL0     H22729  -1.487   2.625   5.359  0.6085 -2.2661  1.8672
  930MOL0     H22730  -1.584   2.594   5.143 -2.0590  4.2278 -0.3341
  930MOL0     H22731  -1.427   2.625   5.061 -2.0058 -2.7261 -1.5722
  930MOL0     H22732  -1.520   2.838   5.232  2.1707 -0.9073  0.0947
  930MOL0     H22733  -1.439   2.837   5.079  3.6222 -1.5264  3.7147
  930MOL0     H22734  -1.656   2.921   5.070  1.1977  0.4615 -1.1542
  930MOL0     H22735  -1.735   2.763   5.130  0.9087 -0.8970  1.6664
  930MOL0     H22736  -1.662   2.642   4.920  4.0725  0.1544  1.6414
  930MOL0     H22737  -1.558   2.768   4.883  1.0915  2.4221  0.0440
  930MOL0     H22738  -1.878   2.774   4.891 -3.5116  1.7333 -1.1676
  930MOL0     H22739  -1.774   2.910   4.836  1.0046 -0.6076 -1.9016
  930MOL0     H22740  -1.867   2.789   4.642  0.5969  1.0778  1.8344
  930MOL0     H22741  -1.780   2.644   4.708  0.4685 -0.6051  1.1710
  930MOL0     H22742  -1.298   2.201   5.325  0.1939  1.2291  0.3253
  930MOL0     H22743  -1.110   2.007   5.302 -0.1660 -1.9487 -3.3536
  930MOL0     H22744  -0.546   2.009   5.044  2.1550 -1.2637 -2.9652
  930MOL0     H22745  -0.420   1.807   5.016 -0.2605  0.8586 -0.0206
  930MOL0     H22746   0.368   1.872   4.737  1.2963  0.7820 -0.0670
  930MOL0     H22747   0.427   2.072   4.593  1.6288 -0.5300  1.0299
  930MOL0     H22748   0.810   2.257   4.263 -0.9039  1.3148  1.7183
  930MOL0     H22749   0.822   2.446   4.112 -0.5519 -1.7511 -4.5019
  930MOL0     H22750   0.523   2.732   4.176 -1.2848  0.5850 -0.9008
  930MOL0     H22751   0.547   2.776   4.004 -1.2288  0.6201  1.6411
  930MOL0     H22752   0.655   2.905   4.214 -2.1371 -0.7682 -1.2875
  930MOL0     H22753   0.761   2.761   4.225 -1.9375  0.1115  1.1907
  930MOL0     H22754   0.875   2.946   4.099  2.1168 -1.1716 -3.0249
  930MOL0     H22755   0.731   2.988   4.008 -1.4495 -0.9414 -2.2866
  930MOL0     H22756   0.907   2.725   3.968 -0.2907  0.5913 -0.0397
  930MOL0     H22757   0.754   2.764   3.882 -0.5394 -2.0737  1.9142
  930MOL0     H22758   1.071   2.987   3.707  0.2013  0.3441  0.4499
  930MOL0     H22759   0.403   2.512   4.175 -0.2284 -0.5736  1.4470
  930MOL0     H22760   0.397   2.314   4.321 -0.0968 -0.7960  1.3126
  931MOL0     O22761   8.146   0.160   2.638  0.4156  0.0164  0.0153
  931MOL0     C22762   8.113   0.088   2.731 -0.1492  0.7996  0.5225
  931MOL0     O22763   8.057  -0.038   2.716  0.2209 -0.3161 -0.4865
  931MOL0     C22764   8.045  -0.082   2.588  0.6674  0.7571  0.0522
  931MOL0     C22765   8.157  -0.113   2.511  0.2571  0.3448  0.8999
  931MOL0     C22766   8.135  -0.192   2.388  1.2529 -0.0613 -0.7415
  931MOL0     C22767   8.006  -0.222   2.339 -0.2830  1.3491 -1.0233
  931MOL0     O22768   7.992  -0.276   2.213 -0.2175  1.0203  0.5325
  931MOL0     C22769   8.092  -0.268   2.111 -0.3581 -0.2106 -0.0102
  931MOL0     C22770   8.034  -0.345   1.989 -0.0016 -0.7339 -0.2866
  931MOL0     C22771   7.921  -0.264   1.920  0.5735  0.0582  0.8673
  931MOL0     C22772   7.891  -0.314   1.774  0.4374 -0.1581 -0.4736
  931MOL0     C22773   7.764  -0.243   1.709 -1.4414 -0.1938 -0.2874
  931MOL0     C22774   7.813  -0.119   1.635 -0.4042 -0.1712 -0.2664
  931MOL0     C22775   7.697  -0.020   1.600  1.1688 -0.2123  0.0355
  931MOL0     C22776   7.760   0.083   1.505 -0.9144  0.5399  0.4762
  931MOL0     N22777   7.823   0.194   1.561  0.0320  0.4438  0.4744
  931MOL0     C22778   7.804   0.323   1.508  0.4044  0.5257  0.1215
  931MOL0     C22779   7.899   0.402   1.563 -0.0680 -0.3065 -0.1168
  931MOL0     C22780   7.925   0.535   1.497  0.0347 -0.1840  0.7944
  931MOL0     C22781   8.049   0.515   1.406  0.6150  0.1950 -0.1066
  931MOL0     C22782   8.038   0.650   1.320  0.5696  0.4608 -0.7105
  931MOL0     C22783   8.152   0.667   1.225  0.2606 -0.5161 -0.1344
  931MOL0     O22784   8.144   0.790   1.150  0.2009  1.1148 -0.3216
  931MOL0     C22785   8.161   0.788   1.019  0.4708  1.1178 -0.2584
  931MOL0     C22786   8.084   0.708   0.930 -0.4678  0.6078 -0.1831
  931MOL0     C22787   8.106   0.723   0.799 -0.3928 -1.2872  1.1840
  931MOL0     C22788   8.197   0.824   0.744 -0.8840  1.1194  0.3735
  931MOL0     C22789   8.209   0.857   0.601 -0.3579 -1.3131  0.2921
  931MOL0     O22790   8.144   0.772   0.530 -0.9024 -0.2695  0.6884
  931MOL0     C22791   8.124   0.800   0.399  0.0678 -0.5242 -0.4804
  931MOL0     C22792   8.225   0.800   0.309 -0.5995  0.4892 -0.0671
  931MOL0     C22793   8.199   0.846   0.183 -0.0419 -0.6551  0.0530
  931MOL0     C22794   8.070   0.898   0.148 -0.4638 -0.5296  0.4632
  931MOL0     O22795   8.062   0.943   0.020 -0.2759  0.3962 -0.7344
  931MOL0     C22796   7.980   1.051  -0.013  1.1111  0.2323  0.3951
  931MOL0     C22797   7.848   1.015  -0.075 -0.0978  0.6419 -0.7967
  931MOL0     C22798   7.790   1.128  -0.162 -0.0354 -0.4372 -0.2218
  931MOL0     C22799   7.673   1.072  -0.239 -0.5862  0.2322  0.5671
  931MOL0     C22800   7.619   1.176  -0.338 -0.1946  0.9701 -0.0141
  931MOL0     C22801   7.494   1.115  -0.406  0.4448 -0.4396 -0.3668
  931MOL0     C22802   7.359   1.119  -0.341  0.7009  0.4075 -1.2256
  931MOL0     C22803   7.303   1.262  -0.319 -0.1135  0.2489  0.0701
  931MOL0    Cl22804   7.131   1.231  -0.281  0.3597 -0.1244 -0.1277
  931MOL0     C22805   7.968   0.896   0.245 -0.1182  0.4116 -0.5931
  931MOL0     C22806   7.991   0.840   0.375  0.3014 -0.0430  0.5291
  931MOL0     O22807   8.247   0.968   0.560 -0.9167  0.0951 -0.5120
  931MOL0     C22808   8.261   0.906   0.837  0.4900 -0.0503  0.5955
  931MOL0     C22809   8.249   0.882   0.974 -0.1058  0.4627 -0.0709
  931MOL0     N22810   7.962   0.333   1.665  0.0202  0.0849  0.4067
  931MOL0     N22811   7.929   0.205   1.651 -0.0050  0.2376  0.1490
  931MOL0     C22812   7.900  -0.187   2.424  0.0518  0.8392  0.3896
  931MOL0     C22813   7.916  -0.128   2.549  0.1936 -0.0502  0.8725
  931MOL0     C22814   8.157   0.135   2.863 -1.3568  0.0780  0.6816
  931MOL0     C22815   8.119   0.064   2.983 -0.0908 -0.1355 -0.5213
  931MOL0     C22816   8.171   0.107   3.108 -0.5829  0.1532  0.2750
  931MOL0     C22817   8.244   0.227   3.127  0.6425  0.3432 -0.2940
  931MOL0     O22818   8.273   0.275   3.253  0.5352 -0.5182 -0.1192
  931MOL0     C22819   8.295   0.417   3.270  0.5263  0.9236  1.3187
  931MOL0     C22820   8.222   0.441   3.401  0.0463 -0.6669  0.6258
  931MOL0     C22821   8.280   0.564   3.476 -0.0195  0.4913 -0.7085
  931MOL0     C22822   8.178   0.631   3.572  0.2377 -0.3500  0.5615
  931MOL0     C22823   8.131   0.551   3.688 -0.4042 -0.1539 -0.4248
  931MOL0     C22824   8.099   0.495   3.789  1.4435 -1.1354 -1.1507
  931MOL0     C22825   8.285   0.284   3.008 -1.0720 -0.2277  0.6031
  931MOL0     C22826   8.245   0.243   2.876  0.0213  1.0237 -0.1798
  931MOL0     H22827   8.254  -0.077   2.544  1.1403 -0.2953 -0.8527
  931MOL0     H22828   8.230  -0.227   2.348  2.3841 -0.2629  1.9172
  931MOL0     H22829   8.178  -0.322   2.151  3.1649  2.6252 -2.9744
  931MOL0     H22830   8.121  -0.171   2.068 -0.9047 -0.5697 -1.2446
  931MOL0     H22831   8.003  -0.441   2.032 -3.9825  0.5930  0.2516
  931MOL0     H22832   8.111  -0.379   1.920 -0.0690 -2.4661  0.4524
  931MOL0     H22833   7.940  -0.156   1.921 -0.5858  0.3351 -1.0478
  931MOL0     H22834   7.833  -0.277   1.983  0.4874 -2.7599  0.2996
  931MOL0     H22835   7.976  -0.309   1.704 -0.2811  0.4141 -1.3318
  931MOL0     H22836   7.853  -0.414   1.797  2.7077 -0.6052  1.7873
  931MOL0     H22837   7.692  -0.217   1.788 -0.3508  0.8646  0.3980
  931MOL0     H22838   7.717  -0.311   1.638  1.2465 -1.6562 -0.8123
  931MOL0     H22839   7.877  -0.147   1.551  2.6742  3.1431  0.6900
  931MOL0     H22840   7.884  -0.067   1.701 -1.4094 -0.0404  0.7463
  931MOL0     H22841   7.630  -0.087   1.546  1.8519 -0.5578 -0.3910
  931MOL0     H22842   7.642   0.035   1.678 -0.8877 -2.7092  0.4709
  931MOL0     H22843   7.673   0.122   1.452 -2.8042 -1.8487  1.6481
  931MOL0     H22844   7.819   0.026   1.433 -0.8961 -0.4244  1.2329
  931MOL0     H22845   7.726   0.358   1.441  1.1509 -2.7502 -2.6887
  931MOL0     H22846   7.948   0.613   1.570  0.9743 -0.9582  1.3436
  931MOL0     H22847   7.840   0.577   1.443  1.0770  0.9436 -0.0439
  931MOL0     H22848   8.026   0.424   1.350 -1.3940  1.1311 -0.9098
  931MOL0     H22849   8.135   0.511   1.474  0.5236  2.8076  0.2530
  931MOL0     H22850   7.943   0.642   1.267  0.0144 -3.1453  0.4985
  931MOL0     H22851   8.035   0.741   1.381  0.5476  1.7504 -2.5524
  931MOL0     H22852   8.145   0.585   1.153  0.5917  0.2060 -1.0146
  931MOL0     H22853   8.241   0.655   1.288  0.1847  2.3010  0.6483
  931MOL0     H22854   8.012   0.650   0.986 -1.5946  1.0367 -1.1442
  931MOL0     H22855   8.053   0.674   0.718  1.5113 -0.4509 -0.6536
  931MOL0     H22856   8.327   0.769   0.325 -0.1253  1.3254 -1.3056
  931MOL0     H22857   8.273   0.845   0.103 -0.2978 -2.2889 -0.1988
  931MOL0     H22858   8.038   1.106  -0.088  2.4402 -1.2768  0.2758
  931MOL0     H22859   7.966   1.116   0.074 -2.4318 -3.4486  2.9278
  931MOL0     H22860   7.785   0.992   0.011  0.9447  1.1996  0.1483
  931MOL0     H22861   7.858   0.930  -0.143  2.1870  1.6759 -1.8822
  931MOL0     H22862   7.870   1.161  -0.228  1.8224 -2.8848  0.6654
  931MOL0     H22863   7.755   1.218  -0.110 -1.4082 -0.1625 -1.5275
  931MOL0     H22864   7.695   0.977  -0.289  0.5714  2.9335 -4.6993
  931MOL0     H22865   7.591   1.057  -0.168 -0.9595  1.8919  0.5150
  931MOL0     H22866   7.696   1.197  -0.413  2.0247 -2.0924  1.2458
  931MOL0     H22867   7.594   1.265  -0.279 -1.3031  0.3064  0.5454
  931MOL0     H22868   7.521   1.010  -0.420 -0.7363 -0.9446  0.9268
  931MOL0     H22869   7.485   1.164  -0.503  1.4307 -1.9708 -1.2747
  931MOL0     H22870   7.291   1.062  -0.406 -0.1061 -0.1870  0.0966
  931MOL0     H22871   7.371   1.062  -0.248  1.0998  3.2855  0.6038
  931MOL0     H22872   7.309   1.319  -0.412  2.0481 -0.5494 -0.3526
  931MOL0     H22873   7.362   1.304  -0.238 -1.8490 -0.2822  1.6784
  931MOL0     H22874   7.868   0.935   0.233 -0.1474  0.4596 -0.2319
  931MOL0     H22875   7.907   0.842   0.444 -1.2571  2.3887 -1.3010
  931MOL0     H22876   8.322   0.988   0.800  1.8196 -1.2350  0.0720
  931MOL0     H22877   8.298   0.948   1.044 -3.4169  1.3241  1.6386
  931MOL0     H22878   7.804  -0.221   2.386 -0.0936  0.4561  1.0789
  931MOL0     H22879   7.824  -0.119   2.606  0.0662 -1.2836  0.8891
  931MOL0     H22880   8.038  -0.008   2.979 -0.5260  0.1399  1.7620
  931MOL0     H22881   8.152   0.058   3.202 -1.4946  1.2218  0.6634
  931MOL0     H22882   8.257   0.490   3.198  0.4741 -0.2255  0.1621
  931MOL0     H22883   8.401   0.442   3.276  0.9825  0.2185 -2.0165
  931MOL0     H22884   8.117   0.458   3.376  0.2332  2.5827  1.5399
  931MOL0     H22885   8.218   0.357   3.471 -0.7137 -0.8669  0.3486
  931MOL0     H22886   8.304   0.639   3.400 -0.3231 -0.5190 -1.8406
  931MOL0     H22887   8.361   0.512   3.528 -1.7857 -1.4616  0.2159
  931MOL0     H22888   8.217   0.730   3.598  0.4800 -0.1706 -0.4388
  931MOL0     H22889   8.084   0.648   3.519  0.5500  2.4482  0.7611
  931MOL0     H22890   8.085   0.439   3.880 -4.4335 -0.8771 -1.5286
  931MOL0     H22891   8.336   0.379   3.021 -1.3377  0.0522 -0.3290
  931MOL0     H22892   8.282   0.306   2.796  2.4379  0.3561  0.3422
  932MOL0     O22893   9.651   8.287   7.803  0.1016 -0.1238 -0.2955
  932MOL0     C22894   9.714   8.240   7.898  0.2715 -0.9488  0.4764
  932MOL0     O22895   9.694   8.126   7.951 -0.2759 -0.0587  0.5362
  932MOL0     C22896   9.584   8.049   7.920  0.3971  0.6264 -0.2822
  932MOL0     C22897   9.458   8.110   7.904  0.4172 -0.0902  0.3794
  932MOL0     C22898   9.345   8.031   7.883  0.2713  0.0228  0.5674
  932MOL0     C22899   9.346   7.899   7.851 -0.5334  0.4142  0.3909
  932MOL0     O22900   9.232   7.832   7.821  0.2973 -0.0801  0.3528
  932MOL0     C22901   9.215   7.778   7.688  0.4148  0.1113 -0.9766
  932MOL0     C22902   9.064   7.765   7.653 -0.4917 -0.3611  0.3421
  932MOL0     C22903   8.998   7.908   7.635 -0.7163  0.1388 -0.3048
  932MOL0     C22904   8.838   7.892   7.632 -0.1370  0.4928 -0.7253
  932MOL0     C22905   8.774   8.026   7.606 -0.3609  0.5492  0.0577
  932MOL0     C22906   8.748   8.060   7.463  0.5291  0.1136 -0.3974
  932MOL0     C22907   8.680   8.200   7.454 -0.3789 -0.1051  0.0620
  932MOL0     C22908   8.611   8.234   7.323 -0.3416 -0.0065 -0.5480
  932MOL0     N22909   8.707   8.197   7.222 -0.4744  0.0041  0.3232
  932MOL0     C22910   8.825   8.259   7.182 -0.0746 -0.4479 -0.0493
  932MOL0     C22911   8.850   8.184   7.071  0.0086  0.2518 -0.1723
  932MOL0     C22912   8.965   8.171   6.978  0.0326  0.0170  0.3565
  932MOL0     C22913   9.107   8.213   7.038  1.3376  0.7999  0.0591
  932MOL0     C22914   9.144   8.179   7.189  0.1092  0.0676  0.7778
  932MOL0     C22915   9.294   8.153   7.194 -0.0168 -0.1727  0.3665
  932MOL0     O22916   9.322   8.119   7.331 -0.3600 -0.1701 -0.1989
  932MOL0     C22917   9.449   8.081   7.365 -1.0103 -1.0279 -0.1648
  932MOL0     C22918   9.469   8.067   7.497 -0.6507 -0.5602  0.7445
  932MOL0     C22919   9.593   8.048   7.553 -0.1162  0.2721  0.3770
  932MOL0     C22920   9.703   8.032   7.466 -0.5546  0.7880 -1.5499
  932MOL0     C22921   9.845   8.016   7.507  0.0629  0.2704  0.0185
  932MOL0     O22922   9.866   7.978   7.635 -0.4766  0.6875  0.6809
  932MOL0     C22923   9.989   7.928   7.674  0.0246 -0.2337 -0.4945
  932MOL0     C22924  10.030   7.963   7.804 -0.4701  0.2993 -0.3123
  932MOL0     C22925  10.165   7.960   7.846  0.1529  0.2797 -0.8287
  932MOL0     C22926  10.256   7.884   7.780 -1.1057  0.1321  0.0743
  932MOL0     O22927  10.387   7.879   7.832 -0.5901  0.5546 -0.7169
  932MOL0     C22928  10.474   7.779   7.770 -0.5293 -0.3370 -0.2247
  932MOL0     C22929  10.612   7.773   7.821  0.3001 -0.0660  0.0513
  932MOL0     C22930  10.689   7.906   7.803  0.5992 -0.7802 -0.1657
  932MOL0     C22931  10.840   7.890   7.831  0.1961 -0.5592  0.5280
  932MOL0     C22932  10.914   7.812   7.723  0.1287 -0.4262  0.5312
  932MOL0     C22933  10.929   7.874   7.587  0.3293 -0.7298  0.0800
  932MOL0     C22934  10.975   8.019   7.589 -0.4086  0.0221  0.8179
  932MOL0     C22935  11.003   8.074   7.455 -0.0617 -0.4408 -0.1386
  932MOL0    Cl22936  11.084   8.231   7.465  0.2279  0.0866 -0.6220
  932MOL0     C22937  10.213   7.829   7.659 -0.0617  0.4276 -0.2844
  932MOL0     C22938  10.088   7.857   7.604 -0.0716  0.5144  0.8817
  932MOL0     O22939   9.933   8.023   7.421  0.0961  0.1933 -0.3453
  932MOL0     C22940   9.687   8.044   7.326 -0.0735  0.1746  0.5929
  932MOL0     C22941   9.559   8.063   7.279 -0.1655 -0.8425 -0.5441
  932MOL0     N22942   8.760   8.078   7.045 -0.3321  0.1718 -1.1253
  932MOL0     N22943   8.681   8.092   7.147 -0.2560  0.7246 -0.7486
  932MOL0     C22944   9.471   7.829   7.874 -0.8154 -0.3785  0.1189
  932MOL0     C22945   9.591   7.905   7.900  0.3263 -1.2793 -0.2969
  932MOL0     C22946   9.826   8.325   7.961 -0.4214  0.6199  0.5561
  932MOL0     C22947   9.918   8.268   8.055 -0.4027  0.6945  0.6816
  932MOL0     C22948  10.029   8.345   8.093  0.0494 -1.3710 -0.3571
  932MOL0     C22949  10.045   8.476   8.043  0.2823 -0.4212 -0.3834
  932MOL0     O22950  10.150   8.555   8.075  0.0717  0.0379  0.0714
  932MOL0     C22951  10.226   8.533   8.193  0.1218  0.2130 -0.2825
  932MOL0     C22952  10.359   8.600   8.189  0.0143 -1.0037  0.0960
  932MOL0     C22953  10.453   8.544   8.082 -0.0401 -0.3787 -0.2537
  932MOL0     C22954  10.592   8.596   8.077  0.5776  1.1473  0.8289
  932MOL0     C22955  10.600   8.735   8.026  0.1341 -0.1467 -0.1880
  932MOL0     C22956  10.582   8.841   7.972 -0.1497  1.5613  0.4341
  932MOL0     C22957   9.956   8.537   7.956  0.5345  0.4880  0.1086
  932MOL0     C22958   9.844   8.455   7.920  0.1906 -0.9210  0.0977
  932MOL0     H22959   9.433   8.216   7.905 -1.9278 -0.5027 -2.1906
  932MOL0     H22960   9.257   8.093   7.901 -0.1705 -0.4996  0.2360
  932MOL0     H22961   9.244   7.674   7.705  2.2371  0.8940  1.4863
  932MOL0     H22962   9.286   7.824   7.619  2.0134 -0.5310  0.1612
  932MOL0     H22963   9.015   7.707   7.732 -2.0951 -2.1065 -1.8112
  932MOL0     H22964   9.062   7.711   7.558  0.9631  1.5627 -0.8559
  932MOL0     H22965   9.041   7.950   7.544 -0.5178  1.3604  0.3264
  932MOL0     H22966   9.009   7.971   7.724  0.6782  1.6227 -1.4756
  932MOL0     H22967   8.807   7.816   7.559  0.1665 -3.4689  2.8319
  932MOL0     H22968   8.811   7.855   7.732  1.1723 -0.4439 -0.7008
  932MOL0     H22969   8.852   8.090   7.648 -0.0263  0.0111  0.2687
  932MOL0     H22970   8.689   8.036   7.674  1.0202  0.3456  1.9020
  932MOL0     H22971   8.680   7.990   7.414  0.2082 -0.9511  1.4906
  932MOL0     H22972   8.838   8.058   7.400 -1.2403 -1.2282 -3.0736
  932MOL0     H22973   8.607   8.211   7.535 -1.9888  1.1025 -1.4731
  932MOL0     H22974   8.766   8.267   7.462  0.5250 -1.0693 -1.2638
  932MOL0     H22975   8.589   8.341   7.319 -1.1437 -0.1352  0.2229
  932MOL0     H22976   8.528   8.164   7.312  1.5770 -2.1641 -2.4442
  932MOL0     H22977   8.874   8.352   7.208  0.6978 -1.0888  0.8663
  932MOL0     H22978   8.942   8.231   6.889  1.1807 -3.2015 -2.3510
  932MOL0     H22979   8.975   8.067   6.944 -2.1420 -0.3424  0.6493
  932MOL0     H22980   9.114   8.322   7.032  2.8129  0.8989  2.3411
  932MOL0     H22981   9.191   8.174   6.981 -1.7175 -2.1975 -2.8902
  932MOL0     H22982   9.115   8.262   7.255 -2.0676 -0.6590  0.8181
  932MOL0     H22983   9.082   8.095   7.222 -0.9434 -1.6507 -4.6298
  932MOL0     H22984   9.344   8.249   7.175  0.1112  0.8572  4.7852
  932MOL0     H22985   9.323   8.067   7.134 -0.5304 -0.8888  1.1161
  932MOL0     H22986   9.374   8.072   7.550 -1.7478 -1.7762 -1.0152
  932MOL0     H22987   9.608   8.056   7.660  1.3122  0.6343  0.1645
  932MOL0     H22988   9.968   8.022   7.870  0.9117  0.4710  0.8927
  932MOL0     H22989  10.190   8.022   7.931  0.5550 -0.0497 -0.7042
  932MOL0     H22990  10.466   7.813   7.667 -0.1530  1.5503  0.3304
  932MOL0     H22991  10.430   7.680   7.784 -0.6417 -0.0494  1.8593
  932MOL0     H22992  10.658   7.693   7.762 -0.7866 -1.5950  1.2048
  932MOL0     H22993  10.601   7.751   7.927 -1.1361 -2.1124 -0.4596
  932MOL0     H22994  10.646   7.985   7.865  0.1911 -0.1405 -1.2282
  932MOL0     H22995  10.668   7.934   7.699 -2.5378 -4.0704 -0.6284
  932MOL0     H22996  10.895   7.981   7.857 -0.2931  0.0722 -0.5439
  932MOL0     H22997  10.840   7.830   7.922  1.1199 -1.1214  0.1621
  932MOL0     H22998  10.864   7.717   7.703 -0.4176  0.2921 -1.8862
  932MOL0     H22999  11.015   7.795   7.764  2.1974  3.5483 -2.2364
  932MOL0     H23000  10.837   7.869   7.529  0.9820  2.2065 -1.3856
  932MOL0     H23001  10.996   7.812   7.527  0.3647 -0.4116 -0.2129
  932MOL0     H23002  10.900   8.081   7.638 -1.3129 -0.7777  0.4740
  932MOL0     H23003  11.073   8.022   7.638  0.6384 -4.3576 -0.5516
  932MOL0     H23004  10.922   8.078   7.381  0.7857 -2.6236 -1.2585
  932MOL0     H23005  11.079   8.011   7.409  1.6304  1.4635 -0.1207
  932MOL0     H23006  10.286   7.779   7.596  1.0779 -0.9476  2.0117
  932MOL0     H23007  10.065   7.835   7.500  0.7471  0.6136  0.6734
  932MOL0     H23008   9.774   8.060   7.264  0.8000  1.4351  2.0841
  932MOL0     H23009   9.542   8.076   7.172 -0.1628  0.0602 -0.4417
  932MOL0     H23010   9.492   7.726   7.844 -1.8938 -0.4868 -0.3031
  932MOL0     H23011   9.689   7.857   7.905  1.9128  1.6763  5.2696
  932MOL0     H23012   9.918   8.166   8.092  3.6143  0.4349  0.3456
  932MOL0     H23013  10.094   8.298   8.166 -0.5808  0.5068  1.5298
  932MOL0     H23014  10.251   8.427   8.209 -0.0797  0.0823 -0.8043
  932MOL0     H23015  10.161   8.566   8.275  1.8384  1.5827  0.5912
  932MOL0     H23016  10.352   8.708   8.179  2.3648 -1.0197 -4.1158
  932MOL0     H23017  10.394   8.590   8.292  1.6268  1.8734 -0.0925
  932MOL0     H23018  10.415   8.570   7.983  1.4040 -1.0345 -0.9976
  932MOL0     H23019  10.457   8.436   8.098  1.0930 -0.3477 -0.2754
  932MOL0     H23020  10.650   8.585   8.170  1.3678 -0.3402  0.1966
  932MOL0     H23021  10.652   8.542   8.004 -0.1729  0.3197  0.7990
  932MOL0     H23022  10.584   8.937   7.925 -0.2848  1.2844 -0.1576
  932MOL0     H23023   9.973   8.637   7.918 -0.7086  1.0570  1.0238
  932MOL0     H23024   9.765   8.498   7.858 -0.7429  0.5894  2.1812
  933MOL0     O23025   3.834   8.716   5.708 -0.4614  0.1733  0.4432
  933MOL0     C23026   3.730   8.767   5.674  0.2236 -0.6531  0.1048
  933MOL0     O23027   3.653   8.743   5.567 -0.3842  0.3045 -0.3437
  933MOL0     C23028   3.684   8.800   5.448  0.5206 -0.7132 -0.4715
  933MOL0     C23029   3.598   8.787   5.342  1.5233  0.0233  0.5780
  933MOL0     C23030   3.621   8.863   5.220 -0.0718  0.2014 -1.1999
  933MOL0     C23031   3.726   8.950   5.209 -0.2317 -0.2370 -0.3747
  933MOL0     O23032   3.772   8.990   5.082 -0.2611 -0.0135  0.2813
  933MOL0     C23033   3.697   9.100   5.023 -0.1722  0.1009  0.2661
  933MOL0     C23034   3.736   9.237   5.076  0.2287  0.0738 -0.3240
  933MOL0     C23035   3.664   9.350   4.998  0.8974  0.4204  0.5080
  933MOL0     C23036   3.692   9.486   5.053  0.1999  0.4767 -0.7524
  933MOL0     C23037   3.838   9.519   5.076  0.1051  0.4224 -0.2945
  933MOL0     C23038   3.866   9.659   5.115 -0.5685  0.3099  0.1185
  933MOL0     C23039   4.021   9.681   5.084 -1.0460  0.0085  0.5609
  933MOL0     C23040   4.114   9.638   5.200 -0.3942 -0.4027  0.5805
  933MOL0     N23041   4.136   9.734   5.311  0.5751 -0.1082 -0.2374
  933MOL0     C23042   4.225   9.840   5.310 -1.1642  0.2559 -0.4881
  933MOL0     C23043   4.208   9.900   5.428 -0.2600  0.0522  0.0303
  933MOL0     C23044   4.301  10.002   5.490  0.2380  0.3243  1.3087
  933MOL0     C23045   4.420   9.930   5.558  0.2409  0.4350  1.1527
  933MOL0     C23046   4.530  10.016   5.621  0.3576 -0.2456  0.1918
  933MOL0     C23047   4.471  10.131   5.690  0.0155  0.2233  0.6415
  933MOL0     O23048   4.568  10.229   5.736  0.6447  1.0999  0.0305
  933MOL0     C23049   4.649  10.198   5.844 -0.3923  0.9050  0.9722
  933MOL0     C23050   4.632  10.083   5.927 -0.1538 -0.2071 -0.1978
  933MOL0     C23051   4.731  10.041   6.018 -0.1179 -0.2785  0.0650
  933MOL0     C23052   4.860  10.088   6.015 -0.0705  0.3016 -0.4343
  933MOL0     C23053   4.971  10.038   6.100  0.5497 -0.2483  0.4439
  933MOL0     O23054   4.937   9.947   6.198  0.5773 -0.1053  0.8423
  933MOL0     C23055   5.029   9.910   6.297  0.0618 -0.3604  0.6774
  933MOL0     C23056   5.007   9.951   6.426 -0.3820  0.1029  0.3840
  933MOL0     C23057   5.111   9.931   6.525 -0.4916  0.2666  0.5517
  933MOL0     C23058   5.227   9.854   6.490 -0.1468 -0.2862 -0.4979
  933MOL0     O23059   5.336   9.836   6.570 -1.0020  0.2829 -0.1693
  933MOL0     C23060   5.356   9.909   6.690  0.6807 -0.2714 -0.0303
  933MOL0     C23061   5.480   9.846   6.762  0.1350  0.7759  0.2587
  933MOL0     C23062   5.500   9.884   6.909 -0.7445  1.1585 -0.4638
  933MOL0     C23063   5.614   9.786   6.963 -0.0870 -0.4331 -0.2105
  933MOL0     C23064   5.649   9.798   7.111  0.4177  0.1216 -0.4664
  933MOL0     C23065   5.690   9.933   7.169  0.0087  1.2620 -0.0391
  933MOL0     C23066   5.704   9.933   7.314 -0.8998  0.4429 -0.0364
  933MOL0     C23067   5.758   9.810   7.382  0.1798  0.0749  0.3751
  933MOL0    Cl23068   5.777   9.833   7.563  0.5085 -0.0049  0.1985
  933MOL0     C23069   5.240   9.818   6.355 -0.6020  0.1928  0.5200
  933MOL0     C23070   5.142   9.849   6.259 -0.4035 -0.0915  0.5573
  933MOL0     O23071   5.085  10.086   6.079 -0.1331  0.5601 -0.3913
  933MOL0     C23072   4.874  10.204   5.938  0.2848 -0.0339 -0.3469
  933MOL0     C23073   4.774  10.254   5.846  0.0030  0.4068 -0.2252
  933MOL0     N23074   4.084   9.850   5.483 -0.2859 -0.7464 -0.3153
  933MOL0     N23075   4.040   9.751   5.408 -0.1585 -0.1413 -0.5626
  933MOL0     C23076   3.824   8.953   5.317  0.1990  0.7087 -0.3228
  933MOL0     C23077   3.798   8.889   5.436 -0.4521 -0.2069 -0.4662
  933MOL0     C23078   3.687   8.882   5.757 -0.4128  0.5898  0.2553
  933MOL0     C23079   3.739   8.915   5.881 -0.4609  0.6121  0.6179
  933MOL0     C23080   3.697   9.036   5.946 -0.0048  0.2245 -0.9429
  933MOL0     C23081   3.597   9.119   5.899 -0.2297 -0.4041 -0.0025
  933MOL0     O23082   3.552   9.225   5.983  0.0821 -0.1869  0.1318
  933MOL0     C23083   3.427   9.296   5.947  0.0798 -0.5804 -0.9328
  933MOL0     C23084   3.387   9.392   6.052 -0.3795 -0.3804 -0.1802
  933MOL0     C23085   3.490   9.489   6.099 -0.1695  0.2126  0.7101
  933MOL0     C23086   3.431   9.606   6.183  0.5314 -0.1902 -0.6723
  933MOL0     C23087   3.540   9.678   6.250 -0.2138 -0.8137  1.3136
  933MOL0     C23088   3.641   9.736   6.283 -0.8348 -0.4430  0.8585
  933MOL0     C23089   3.543   9.084   5.771  0.6486  1.5073  0.4945
  933MOL0     C23090   3.593   8.967   5.704  0.3673 -0.2115 -0.2661
  933MOL0     H23091   3.517   8.716   5.351 -0.4467  1.4947 -3.2077
  933MOL0     H23092   3.548   8.848   5.142 -0.9891  0.2432 -0.3779
  933MOL0     H23093   3.591   9.081   5.040  0.1155 -3.6105 -1.1600
  933MOL0     H23094   3.723   9.106   4.917 -2.4290 -2.0968 -0.5089
  933MOL0     H23095   3.843   9.247   5.055  0.1282  1.1012 -0.4130
  933MOL0     H23096   3.715   9.241   5.183  5.8906 -1.3577  1.2108
  933MOL0     H23097   3.557   9.333   4.992  0.9619 -0.2471  1.0798
  933MOL0     H23098   3.690   9.350   4.892 -0.0736 -3.6632  0.1245
  933MOL0     H23099   3.648   9.569   4.998 -1.2562  0.5519  0.4529
  933MOL0     H23100   3.645   9.494   5.152  1.0848 -1.3241 -0.1365
  933MOL0     H23101   3.873   9.509   4.972 -0.8850 -5.3081 -0.4213
  933MOL0     H23102   3.890   9.454   5.147  1.9563  0.7150 -1.3223
  933MOL0     H23103   3.860   9.685   5.221  2.6981  2.5636 -0.1028
  933MOL0     H23104   3.808   9.738   5.068  0.6767  1.7675  0.9323
  933MOL0     H23105   4.040   9.635   4.987 -2.0229 -2.2583  1.3762
  933MOL0     H23106   4.045   9.787   5.071  2.8465 -1.0823 -3.3968
  933MOL0     H23107   4.215   9.630   5.158 -0.3047 -1.4201  0.9564
  933MOL0     H23108   4.074   9.544   5.240  0.3668 -1.1177 -0.2779
  933MOL0     H23109   4.299   9.870   5.236 -0.2938 -2.2096 -0.7254
  933MOL0     H23110   4.245  10.048   5.572 -1.0792 -1.4165  1.4587
  933MOL0     H23111   4.336  10.074   5.416  0.0034 -1.6139 -0.8089
  933MOL0     H23112   4.471   9.877   5.477  0.4561  3.5519 -0.9453
  933MOL0     H23113   4.378   9.861   5.632 -2.6017 -0.1152 -0.7921
  933MOL0     H23114   4.596   9.957   5.686 -0.7231  0.2146  1.7704
  933MOL0     H23115   4.574  10.059   5.531  0.6321 -1.0218 -0.0584
  933MOL0     H23116   4.414  10.086   5.772 -1.6394 -0.6890 -0.9575
  933MOL0     H23117   4.397  10.188   5.633 -0.8665  0.6904  2.2037
  933MOL0     H23118   4.536  10.032   5.921 -0.3120  0.2066 -1.5514
  933MOL0     H23119   4.695   9.964   6.086 -1.7066  1.3414  1.1662
  933MOL0     H23120   4.915  10.006   6.442  0.5648  2.2718 -1.1857
  933MOL0     H23121   5.099   9.975   6.623  1.5088  1.1263  0.4515
  933MOL0     H23122   5.280   9.876   6.761  0.0139 -2.5609 -1.7008
  933MOL0     H23123   5.359  10.018   6.687 -1.3715 -0.1578 -4.0567
  933MOL0     H23124   5.578   9.869   6.721  1.9046 -5.7203 -0.3026
  933MOL0     H23125   5.481   9.736   6.757  1.3380  0.6508  2.0960
  933MOL0     H23126   5.408   9.866   6.965  0.4199 -3.5228  0.3812
  933MOL0     H23127   5.544   9.982   6.927  0.8090  0.4394 -0.2113
  933MOL0     H23128   5.575   9.685   6.944 -1.4699 -0.2448  1.3789
  933MOL0     H23129   5.704   9.809   6.906 -1.6620  0.0868 -2.6362
  933MOL0     H23130   5.724   9.724   7.139 -0.7216 -1.2307 -0.8748
  933MOL0     H23131   5.564   9.761   7.167  0.9668  2.2023  1.9465
  933MOL0     H23132   5.616  10.010   7.146 -0.1507  1.3568  0.7711
  933MOL0     H23133   5.785   9.953   7.117  1.1290  1.5919  2.0264
  933MOL0     H23134   5.766  10.018   7.342  0.5914  0.1849 -2.2908
  933MOL0     H23135   5.599   9.946   7.340 -2.1698 -2.2471 -3.0560
  933MOL0     H23136   5.849   9.784   7.327 -0.3052  1.7050 -1.3000
  933MOL0     H23137   5.692   9.724   7.372  2.2001 -1.8827  2.6062
  933MOL0     H23138   5.331   9.773   6.315 -2.4786 -0.9084 -2.8618
  933MOL0     H23139   5.159   9.807   6.160 -0.7518 -0.1502  0.5214
  933MOL0     H23140   4.970  10.242   5.907 -0.1223  1.8682  0.5856
  933MOL0     H23141   4.796  10.337   5.780 -0.1645  0.7597  0.1637
  933MOL0     H23142   3.920   9.003   5.312  0.9125 -0.4929  0.6869
  933MOL0     H23143   3.883   8.904   5.501 -0.5471 -0.6735 -0.2324
  933MOL0     H23144   3.816   8.859   5.933  0.1381 -1.6264 -2.3925
  933MOL0     H23145   3.756   9.068   6.032  0.2496  0.2311 -1.1170
  933MOL0     H23146   3.346   9.225   5.927 -0.2655 -0.4379 -0.0647
  933MOL0     H23147   3.447   9.343   5.850  2.1779 -0.8970 -0.6915
  933MOL0     H23148   3.297   9.446   6.023 -1.5178 -2.0770  0.0501
  933MOL0     H23149   3.363   9.337   6.144 -0.0590  1.0677  0.8092
  933MOL0     H23150   3.528   9.540   6.010  2.6146 -3.6884 -0.5904
  933MOL0     H23151   3.570   9.439   6.154  3.2298  0.2956 -3.5801
  933MOL0     H23152   3.370   9.662   6.111  0.3191  2.6197  1.5201
  933MOL0     H23153   3.369   9.583   6.269  1.3802  2.5865  0.8152
  933MOL0     H23154   3.728   9.782   6.325 -0.4490 -0.2740 -0.1064
  933MOL0     H23155   3.466   9.144   5.724 -1.2776 -1.1784  0.0452
  933MOL0     H23156   3.543   8.947   5.610  2.5767  2.3796 -2.1746
  934MOL0     O23157   5.297   1.709  10.629 -0.8369 -0.2618 -0.2095
  934MOL0     C23158   5.254   1.825  10.623  0.3457 -0.9484 -0.6055
  934MOL0     O23159   5.117   1.853  10.662  0.2114  0.0043 -0.3802
  934MOL0     C23160   5.025   1.753  10.660  0.3632  0.4545  0.1685
  934MOL0     C23161   5.041   1.634  10.738  0.1356 -0.4797  0.6999
  934MOL0     C23162   4.945   1.533  10.731 -0.1061  0.8243  0.1003
  934MOL0     C23163   4.833   1.549  10.654  0.1626  0.7065 -0.2949
  934MOL0     O23164   4.735   1.448  10.657  0.2558  0.4251  1.0031
  934MOL0     C23165   4.762   1.335  10.569  0.1087 -0.1766 -0.2591
  934MOL0     C23166   4.686   1.362  10.434 -0.4715  1.6056 -0.4115
  934MOL0     C23167   4.539   1.401  10.449 -0.3498 -0.1335  0.7925
  934MOL0     C23168   4.477   1.289  10.527  0.1977  0.5336 -0.5431
  934MOL0     C23169   4.329   1.319  10.550  0.1736  0.4463 -0.2539
  934MOL0     C23170   4.250   1.339  10.415  0.2081 -0.2795  0.8538
  934MOL0     C23171   4.104   1.364  10.464 -0.6577 -0.5258 -0.0460
  934MOL0     C23172   4.015   1.237  10.473 -0.5109  0.2758  0.3492
  934MOL0     N23173   3.978   1.189  10.338  0.1002 -0.5671  0.1078
  934MOL0     C23174   3.867   1.223  10.267  0.6601 -0.2632  1.0597
  934MOL0     C23175   3.872   1.147  10.151  0.0493  1.0352 -0.6611
  934MOL0     C23176   3.768   1.140  10.044 -0.2818  0.6654  0.2915
  934MOL0     C23177   3.840   1.170   9.912  0.0072  0.5079 -0.8392
  934MOL0     C23178   3.752   1.171   9.776 -0.5020 -0.0344 -0.1495
  934MOL0     C23179   3.759   1.046   9.689  0.2658  0.5375 -0.3136
  934MOL0     O23180   3.681   0.942   9.760 -0.4179  1.0767  1.6967
  934MOL0     C23181   3.550   0.929   9.719  0.3300 -0.4341  0.3778
  934MOL0     C23182   3.454   0.958   9.817  0.3343 -0.1463  0.2714
  934MOL0     C23183   3.314   0.946   9.792 -0.0674  0.4283  0.2722
  934MOL0     C23184   3.277   0.931   9.657  0.0962 -0.1654  0.1122
  934MOL0     C23185   3.134   0.907   9.613  0.5097 -0.0528  0.5186
  934MOL0     O23186   3.059   0.837   9.703  0.0554 -0.1586 -0.1517
  934MOL0     C23187   2.951   0.758   9.653 -0.7685  0.4363 -0.4766
  934MOL0     C23188   2.971   0.668   9.547 -0.5163  0.3011 -0.4204
  934MOL0     C23189   2.862   0.596   9.501  0.0106 -0.2859  0.0311
  934MOL0     C23190   2.733   0.624   9.557 -0.8590 -0.2785  0.0147
  934MOL0     O23191   2.619   0.564   9.527  0.3118  0.4097  0.3680
  934MOL0     C23192   2.543   0.641   9.432  0.6456 -0.1498  0.6853
  934MOL0     C23193   2.406   0.588   9.434 -0.2233 -0.2514 -0.1316
  934MOL0     C23194   2.339   0.632   9.307  0.7909  0.3628  1.0652
  934MOL0     C23195   2.361   0.528   9.194 -0.0871 -0.1949 -0.2859
  934MOL0     C23196   2.260   0.551   9.081 -0.5648 -0.0003 -0.3037
  934MOL0     C23197   2.282   0.443   8.979  0.8125 -0.0492 -0.6408
  934MOL0     C23198   2.200   0.323   9.013 -0.2211  0.5291 -0.0052
  934MOL0     C23199   2.222   0.216   8.903 -0.7511  0.2940  0.5477
  934MOL0    Cl23200   2.122   0.249   8.772  0.3436  0.2292 -0.1146
  934MOL0     C23201   2.724   0.696   9.679  0.4724 -0.0526  0.4805
  934MOL0     C23202   2.833   0.761   9.723 -0.9833 -0.0046 -0.4067
  934MOL0     O23203   3.091   0.942   9.499 -0.3691 -0.5464  0.1495
  934MOL0     C23204   3.373   0.916   9.555  0.2533 -0.4164  0.0218
  934MOL0     C23205   3.506   0.909   9.586 -0.4416 -0.1715 -0.3808
  934MOL0     N23206   3.982   1.071  10.161  0.6695 -0.5913  0.4945
  934MOL0     N23207   4.047   1.093  10.265  0.2276 -0.1950 -0.2068
  934MOL0     C23208   4.811   1.660  10.583 -0.3094 -0.0346  0.1401
  934MOL0     C23209   4.907   1.765  10.589  0.4896  0.0710 -0.2320
  934MOL0     C23210   5.354   1.930  10.597  0.6778 -0.1347  0.3294
  934MOL0     C23211   5.491   1.913  10.622  0.1209  0.4710  0.9308
  934MOL0     C23212   5.575   2.028  10.608  0.2946  0.3101  0.5993
  934MOL0     C23213   5.525   2.158  10.591  1.0166 -0.5490  1.1443
  934MOL0     O23214   5.607   2.264  10.573  0.6398 -0.7188 -0.0786
  934MOL0     C23215   5.561   2.346  10.474 -0.4347 -0.1073  0.7170
  934MOL0     C23216   5.664   2.446  10.435  0.4369 -0.4217  0.2663
  934MOL0     C23217   5.600   2.550  10.334  0.4958  1.2325 -0.3739
  934MOL0     C23218   5.693   2.664  10.298  0.1711 -0.5566  0.2229
  934MOL0     C23219   5.726   2.761  10.414 -0.9312 -0.0386 -0.8638
  934MOL0     C23220   5.761   2.846  10.489 -0.3445  1.2583 -0.4037
  934MOL0     C23221   5.382   2.174  10.577 -0.5457 -0.1030  0.1566
  934MOL0     C23222   5.306   2.061  10.578  0.6222  0.8011  0.1734
  934MOL0     H23223   5.134   1.610  10.789  1.2909  0.2553 -0.9995
  934MOL0     H23224   4.965   1.440  10.783 -0.7644  0.0563 -0.9973
  934MOL0     H23225   4.725   1.246  10.622 -2.9122  1.5234  0.7297
  934MOL0     H23226   4.867   1.322  10.541  0.3203  1.0549 -0.0835
  934MOL0     H23227   4.699   1.273  10.371  0.0291  0.5101  1.1882
  934MOL0     H23228   4.754   1.432  10.386  4.1261 -0.7974  1.9761
  934MOL0     H23229   4.507   1.396  10.345  1.9083  1.0723 -0.0387
  934MOL0     H23230   4.521   1.496  10.500 -0.0759 -0.4559  1.5043
  934MOL0     H23231   4.492   1.190  10.482 -4.6892 -0.7308 -0.0174
  934MOL0     H23232   4.525   1.285  10.625 -0.1459  0.0731 -0.3915
  934MOL0     H23233   4.323   1.417  10.599 -2.3000 -0.2198  0.9467
  934MOL0     H23234   4.280   1.248  10.617 -0.4715  0.0963 -1.0818
  934MOL0     H23235   4.258   1.252  10.350  3.4382  0.1444  0.5143
  934MOL0     H23236   4.278   1.430  10.361 -1.1613 -0.5448 -0.3849
  934MOL0     H23237   4.112   1.412  10.561  2.3106  1.2725 -1.0749
  934MOL0     H23238   4.060   1.444  10.404  0.8956  1.5863  1.5373
  934MOL0     H23239   3.926   1.254  10.533 -0.5979 -0.2395  0.3756
  934MOL0     H23240   4.075   1.160  10.523  1.4139  1.7532  0.4409
  934MOL0     H23241   3.785   1.282  10.307 -1.9183 -4.0471  1.9349
  934MOL0     H23242   3.689   1.214  10.058 -0.2924  0.7773 -0.3438
  934MOL0     H23243   3.726   1.039  10.052  3.0191 -0.8158  0.7109
  934MOL0     H23244   3.926   1.103   9.897 -0.1708  0.1367 -0.2344
  934MOL0     H23245   3.874   1.274   9.908  0.3314  0.4617  0.3911
  934MOL0     H23246   3.650   1.195   9.805 -0.0907 -0.9948  2.3336
  934MOL0     H23247   3.795   1.253   9.718  2.1000 -0.4000  1.1196
  934MOL0     H23248   3.863   1.021   9.669  0.9307  2.0111  1.0646
  934MOL0     H23249   3.716   1.081   9.594 -0.2934  3.7405  0.9940
  934MOL0     H23250   3.478   0.995   9.916 -2.5916 -2.1089  1.8764
  934MOL0     H23251   3.238   0.951   9.869 -0.6115  1.8636 -0.3292
  934MOL0     H23252   3.073   0.654   9.512 -0.9342 -1.0576 -1.1656
  934MOL0     H23253   2.870   0.532   9.413  2.8409  0.1080 -0.0774
  934MOL0     H23254   2.592   0.627   9.335  1.8726 -0.4547  1.3337
  934MOL0     H23255   2.527   0.747   9.451 -3.8078 -0.4273 -0.4544
  934MOL0     H23256   2.350   0.643   9.510  0.7352  0.3915  0.1287
  934MOL0     H23257   2.405   0.480   9.448 -0.4322 -0.1793  0.4235
  934MOL0     H23258   2.389   0.722   9.271  1.5379 -0.4806 -0.1185
  934MOL0     H23259   2.232   0.644   9.326  0.3471  2.5642 -1.9882
  934MOL0     H23260   2.466   0.533   9.162 -0.3603 -0.0370 -1.1892
  934MOL0     H23261   2.347   0.430   9.241 -2.1308  0.5751  0.8323
  934MOL0     H23262   2.283   0.653   9.050 -0.3008  0.4737  1.3401
  934MOL0     H23263   2.161   0.541   9.126 -0.5161  0.4492 -0.0901
  934MOL0     H23264   2.385   0.409   8.984  0.4208 -1.3703 -1.1909
  934MOL0     H23265   2.249   0.485   8.883  0.2727  0.3845 -0.2758
  934MOL0     H23266   2.218   0.277   9.111  0.2078 -0.2633 -0.4442
  934MOL0     H23267   2.097   0.358   9.001  0.1002  1.4910 -0.0359
  934MOL0     H23268   2.190   0.117   8.938 -1.0957  0.4447  0.6549
  934MOL0     H23269   2.327   0.212   8.871 -1.2172  1.4450 -1.3370
  934MOL0     H23270   2.627   0.706   9.726  1.0915  1.0568  1.5668
  934MOL0     H23271   2.822   0.824   9.810  2.7667  0.8173 -0.3789
  934MOL0     H23272   3.352   0.912   9.449 -0.2571 -1.7326  0.1539
  934MOL0     H23273   3.578   0.894   9.506  0.3716 -1.1718  0.5091
  934MOL0     H23274   4.722   1.687  10.527  0.2158 -2.4506 -2.0558
  934MOL0     H23275   4.872   1.852  10.535 -0.2402 -0.5239 -0.7302
  934MOL0     H23276   5.534   1.815  10.639 -1.7745 -0.4524  0.6135
  934MOL0     H23277   5.680   2.003  10.608  0.7576  1.7218 -2.8398
  934MOL0     H23278   5.481   2.409  10.516  0.5940  0.3940  1.9874
  934MOL0     H23279   5.526   2.294  10.384 -1.0519  1.6808 -0.1343
  934MOL0     H23280   5.696   2.494  10.528  0.2162  1.2010 -0.4542
  934MOL0     H23281   5.752   2.393  10.398 -0.6257 -3.2656  1.5043
  934MOL0     H23282   5.521   2.593  10.397 -0.7673  1.6888 -2.1763
  934MOL0     H23283   5.560   2.498  10.246  0.2110  0.4032  0.2340
  934MOL0     H23284   5.785   2.619  10.260 -2.1638 -3.4469 -2.5251
  934MOL0     H23285   5.650   2.714  10.212 -1.6062 -1.3704  0.5924
  934MOL0     H23286   5.792   2.924  10.555 -0.5942  1.7891 -0.9084
  934MOL0     H23287   5.332   2.267  10.554 -1.9061 -1.2207 -1.7147
  934MOL0     H23288   5.199   2.076  10.581  0.7318  1.6115  2.6847
  935MOL0     O23289   8.338   0.022   5.267  0.7950  0.5342  0.4470
  935MOL0     C23290   8.255   0.098   5.213 -0.8087 -0.3013  0.0527
  935MOL0     O23291   8.280   0.166   5.101  0.5691  0.2223 -0.3334
  935MOL0     C23292   8.409   0.162   5.039  0.6111 -0.7417 -0.8452
  935MOL0     C23293   8.475   0.281   5.017 -1.3602 -0.6961 -0.5888
  935MOL0     C23294   8.606   0.276   4.966 -0.1504 -0.2850 -0.3431
  935MOL0     C23295   8.658   0.160   4.916 -0.5137  1.3853 -0.2997
  935MOL0     O23296   8.785   0.172   4.864  0.0933 -0.5735  0.2633
  935MOL0     C23297   8.893   0.155   4.956  0.0635 -0.5790 -1.0208
  935MOL0     C23298   9.013   0.194   4.876 -0.3200 -0.0935  0.4607
  935MOL0     C23299   9.149   0.185   4.935  0.4856  0.5731  0.0420
  935MOL0     C23300   9.171   0.037   4.943 -0.7497 -0.5354 -0.5447
  935MOL0     C23301   9.313   0.021   5.016  0.2695 -0.0826 -0.3022
  935MOL0     C23302   9.347  -0.132   5.015  0.0488  0.1277 -0.5608
  935MOL0     C23303   9.481  -0.168   5.091  0.0326 -0.2390  0.7371
  935MOL0     C23304   9.501  -0.316   5.097 -0.2928  0.0353 -0.1579
  935MOL0     N23305   9.503  -0.384   4.969 -0.0815  1.6702  0.0836
  935MOL0     C23306   9.599  -0.378   4.869  0.2945  0.4323 -0.5091
  935MOL0     C23307   9.566  -0.481   4.789 -0.3927 -1.0491  0.4796
  935MOL0     C23308   9.636  -0.521   4.662  0.5998  0.4864  0.5749
  935MOL0     C23309   9.542  -0.490   4.538  0.1066  0.1569 -0.0617
  935MOL0     C23310   9.507  -0.345   4.530  0.1323 -0.2771  0.9335
  935MOL0     C23311   9.447  -0.308   4.396  1.1347  0.1433 -0.0643
  935MOL0     O23312   9.419  -0.174   4.383 -0.5405  0.1034 -0.6032
  935MOL0     C23313   9.367  -0.129   4.256  0.2829  0.5287  0.1877
  935MOL0     C23314   9.324   0.008   4.260  0.1346 -0.4064 -0.4645
  935MOL0     C23315   9.290   0.073   4.145  1.1623 -0.6741  1.0546
  935MOL0     C23316   9.280  -0.001   4.022 -0.3412 -0.8274  0.3213
  935MOL0     C23317   9.241   0.072   3.896  0.0724  0.6428  0.2241
  935MOL0     O23318   9.216   0.203   3.901 -0.2201  0.2137 -0.1226
  935MOL0     C23319   9.177   0.267   3.786 -0.1676  0.5462  0.5622
  935MOL0     C23320   9.266   0.345   3.710  0.2905 -0.2109  0.2441
  935MOL0     C23321   9.234   0.392   3.580 -0.3020  0.5887  0.6698
  935MOL0     C23322   9.107   0.353   3.518 -0.7597  0.5072  0.1505
  935MOL0     O23323   9.065   0.376   3.384 -0.0519  0.0678 -0.8529
  935MOL0     C23324   9.149   0.470   3.313 -0.4796  0.1460  0.2845
  935MOL0     C23325   9.141   0.625   3.340  1.3102  0.2532 -0.5655
  935MOL0     C23326   9.245   0.688   3.260 -0.7474  0.4226  0.5692
  935MOL0     C23327   9.215   0.834   3.254 -0.3692 -0.5630  0.5383
  935MOL0     C23328   9.313   0.923   3.178  0.4884 -0.0283 -0.6289
  935MOL0     C23329   9.319   0.887   3.033  0.0328 -0.1799  0.4782
  935MOL0     C23330   9.419   0.984   2.956 -0.9174  0.0181 -0.4898
  935MOL0     C23331   9.434   0.942   2.810 -0.5969 -0.0514 -0.2825
  935MOL0    Cl23332   9.507   1.075   2.721 -0.0990 -0.3639  0.2596
  935MOL0     C23333   9.020   0.283   3.597  0.2169 -0.1543 -0.2036
  935MOL0     C23334   9.054   0.237   3.724 -0.7852 -0.1612 -0.4530
  935MOL0     O23335   9.223  -0.007   3.809  0.7257  0.2166  0.9435
  935MOL0     C23336   9.306  -0.139   4.028 -0.1156  0.4356  0.0132
  935MOL0     C23337   9.345  -0.208   4.145  0.0711 -0.2600 -0.3954
  935MOL0     N23338   9.448  -0.540   4.839  0.4629 -0.0472 -0.7528
  935MOL0     N23339   9.417  -0.487   4.948 -0.0102  0.0090 -1.1466
  935MOL0     C23340   8.589   0.038   4.937  0.4770  0.1095 -0.5673
  935MOL0     C23341   8.457   0.042   4.991 -0.0439  0.4681  0.1878
  935MOL0     C23342   8.128   0.117   5.289  0.5024 -0.1939  0.5759
  935MOL0     C23343   8.026   0.169   5.215 -0.2645 -0.3423  0.3195
  935MOL0     C23344   7.907   0.217   5.279  0.5762 -0.9135 -0.1439
  935MOL0     C23345   7.879   0.168   5.406 -0.0451  0.4912  0.4987
  935MOL0     O23346   7.751   0.193   5.459 -0.5074  0.6198 -0.8144
  935MOL0     C23347   7.710   0.128   5.580 -0.0193 -0.6398 -1.1940
  935MOL0     C23348   7.562   0.142   5.591  0.0227 -0.6087  1.2426
  935MOL0     C23349   7.513   0.282   5.620  0.9172 -0.6857 -0.3651
  935MOL0     C23350   7.365   0.298   5.627  0.1401  0.3537 -0.3748
  935MOL0     C23351   7.290   0.306   5.506  0.5615  0.4203 -0.0716
  935MOL0     C23352   7.226   0.308   5.408  0.1834 -0.1091  0.8036
  935MOL0     C23353   7.980   0.099   5.473 -0.2583  0.9827 -0.3405
  935MOL0     C23354   8.104   0.078   5.423  0.0832 -0.8930  0.7417
  935MOL0     H23355   8.437   0.377   5.053  0.9183 -0.6247  1.9277
  935MOL0     H23356   8.664   0.367   4.956  1.0508 -0.8074  1.3437
  935MOL0     H23357   8.908   0.049   4.977  1.9169 -0.3142 -0.8173
  935MOL0     H23358   8.889   0.198   5.056  0.0919  0.5030 -1.4655
  935MOL0     H23359   8.996   0.300   4.855 -0.9798 -0.4856 -1.1489
  935MOL0     H23360   9.008   0.141   4.781  0.4501 -0.1773  0.4619
  935MOL0     H23361   9.153   0.231   5.035 -0.6122  0.5974  0.0945
  935MOL0     H23362   9.226   0.237   4.877  1.5267 -1.3059 -0.3364
  935MOL0     H23363   9.096  -0.016   5.003  0.9742  0.7403  3.0470
  935MOL0     H23364   9.164   0.000   4.840 -5.6232  1.2850 -1.1638
  935MOL0     H23365   9.305   0.056   5.119 -2.8071 -3.6861  0.9338
  935MOL0     H23366   9.387   0.083   4.965 -0.5229  2.2258  1.2186
  935MOL0     H23367   9.356  -0.162   4.910 -1.0456 -0.4366 -0.5089
  935MOL0     H23368   9.266  -0.188   5.063 -0.0064  1.5410  1.1046
  935MOL0     H23369   9.572  -0.130   5.043  2.6464  1.3053  6.1466
  935MOL0     H23370   9.478  -0.131   5.194  0.6177  1.0284  0.3241
  935MOL0     H23371   9.429  -0.347   5.173  1.9573  0.9090  2.4909
  935MOL0     H23372   9.601  -0.323   5.141 -1.4214  1.0007  2.7807
  935MOL0     H23373   9.677  -0.303   4.862  1.4156 -0.6640 -0.1916
  935MOL0     H23374   9.659  -0.627   4.667 -3.1200 -0.9023 -4.1694
  935MOL0     H23375   9.733  -0.472   4.654  1.5200 -0.2760  4.7000
  935MOL0     H23376   9.458  -0.560   4.536  0.3129 -0.0854 -2.2426
  935MOL0     H23377   9.602  -0.525   4.453  0.3957  0.7001 -0.0855
  935MOL0     H23378   9.434  -0.308   4.602 -0.2068  0.4102  0.2546
  935MOL0     H23379   9.601  -0.295   4.554 -0.9686  1.6434  1.4456
  935MOL0     H23380   9.353  -0.363   4.387  0.0840  2.2268 -3.0249
  935MOL0     H23381   9.512  -0.350   4.319  1.0053 -0.3977  0.1127
  935MOL0     H23382   9.314   0.064   4.352 -0.9292  0.7308 -1.2373
  935MOL0     H23383   9.265   0.179   4.141  2.6415 -0.3144  0.9689
  935MOL0     H23384   9.361   0.373   3.752 -0.1756  2.8905 -0.5370
  935MOL0     H23385   9.304   0.458   3.530  1.9319 -2.0227  0.0510
  935MOL0     H23386   9.121   0.456   3.208  0.6225 -0.1826  0.0261
  935MOL0     H23387   9.252   0.436   3.304 -0.2484  0.4460  1.5337
  935MOL0     H23388   9.161   0.639   3.446  1.7959 -2.5616 -0.2064
  935MOL0     H23389   9.037   0.656   3.326  0.8457 -1.2297 -0.6418
  935MOL0     H23390   9.235   0.658   3.155  0.3337  2.5149 -0.1979
  935MOL0     H23391   9.344   0.668   3.302 -0.3503 -1.5413 -1.1597
  935MOL0     H23392   9.112   0.843   3.219 -0.6834 -0.4343  1.4691
  935MOL0     H23393   9.203   0.860   3.359 -4.7321 -4.0404  1.1777
  935MOL0     H23394   9.413   0.908   3.219 -0.6597  0.4926  2.6510
  935MOL0     H23395   9.286   1.029   3.190 -1.9039 -0.6510  0.0267
  935MOL0     H23396   9.220   0.899   2.987  0.1059  2.5915  0.8499
  935MOL0     H23397   9.363   0.788   3.019  0.8567  0.5184 -2.5434
  935MOL0     H23398   9.379   1.086   2.953 -0.8571  0.0551 -4.2080
  935MOL0     H23399   9.510   0.971   3.014 -2.2105 -1.1864  1.3859
  935MOL0     H23400   9.331   0.930   2.774 -0.8033 -0.7946  0.5340
  935MOL0     H23401   9.494   0.853   2.795 -2.0626 -1.4010  1.3966
  935MOL0     H23402   8.919   0.265   3.563 -1.4282  3.4302  2.1281
  935MOL0     H23403   8.976   0.174   3.767 -1.6496  0.6786 -0.7547
  935MOL0     H23404   9.286  -0.202   3.942 -0.6679 -0.7798  0.9857
  935MOL0     H23405   9.358  -0.315   4.140  1.0684 -0.2185  0.6653
  935MOL0     H23406   8.620  -0.056   4.891 -0.0313  0.3848 -1.5011
  935MOL0     H23407   8.405  -0.052   5.006  0.2645  0.6363  2.6606
  935MOL0     H23408   8.036   0.196   5.110  0.0445  1.8588  0.8563
  935MOL0     H23409   7.841   0.291   5.236 -1.4222 -1.8843  1.0935
  935MOL0     H23410   7.749   0.177   5.670  2.1102 -3.4899 -0.4337
  935MOL0     H23411   7.733   0.022   5.583 -0.7465 -0.7871  1.2713
  935MOL0     H23412   7.521   0.115   5.494 -2.1249 -1.5804  2.3614
  935MOL0     H23413   7.505   0.077   5.658 -2.4591  0.1268 -0.0290
  935MOL0     H23414   7.559   0.347   5.544 -0.8539  1.1152  0.0175
  935MOL0     H23415   7.561   0.311   5.714 -0.0031 -1.3796  0.3231
  935MOL0     H23416   7.325   0.215   5.686  0.4878 -0.3694 -1.1375
  935MOL0     H23417   7.350   0.392   5.679  2.7900  2.2543 -2.7243
  935MOL0     H23418   7.168   0.295   5.318  0.9187 -3.3948  0.6744
  935MOL0     H23419   7.964   0.051   5.569 -2.0658 -1.5430 -1.7785
  935MOL0     H23420   8.192   0.052   5.480 -0.3887  2.0486  3.0132
  936MOL0     O23421   8.867  10.759   2.431 -0.1565 -0.2713  0.5580
  936MOL0     C23422   8.981  10.801   2.397  0.6211 -0.1178 -0.2341
  936MOL0     O23423   9.007  10.933   2.374 -0.3332 -0.3212  0.2256
  936MOL0     C23424   8.931  11.037   2.427 -0.1027  0.3049  0.0312
  936MOL0     C23425   8.938  11.161   2.367  0.5355  0.9990  0.8253
  936MOL0     C23426   8.856  11.265   2.400  0.3417 -0.6511  0.5918
  936MOL0     C23427   8.788  11.261   2.512  0.5318 -0.9750  0.6500
  936MOL0     O23428   8.717  11.369   2.570 -0.2793 -0.2785 -0.5129
  936MOL0     C23429   8.709  11.501   2.512  0.1594  0.5359 -0.0133
  936MOL0     C23430   8.719  11.604   2.621 -0.2244 -0.4607 -0.9334
  936MOL0     C23431   8.583  11.628   2.698 -0.1639 -0.6441  0.9327
  936MOL0     C23432   8.609  11.715   2.821 -0.7148  0.2272  0.1189
  936MOL0     C23433   8.636  11.864   2.808 -0.6182  0.3117 -0.1712
  936MOL0     C23434   8.649  11.949   2.935 -0.4222  1.0738 -0.1965
  936MOL0     C23435   8.761  11.904   3.030  0.6229 -0.0949 -0.0234
  936MOL0     C23436   8.789  12.012   3.132  0.0789  0.0760  0.9543
  936MOL0     N23437   8.704  12.013   3.245  0.2965 -0.2237 -0.1683
  936MOL0     C23438   8.742  11.959   3.365  0.1102  0.0422 -0.4471
  936MOL0     C23439   8.651  11.994   3.448  0.2565 -0.3359 -0.6574
  936MOL0     C23440   8.641  11.959   3.596 -0.6597  0.2339 -0.1047
  936MOL0     C23441   8.594  12.079   3.676  0.1699  0.4390  1.1618
  936MOL0     C23442   8.600  12.055   3.821 -0.1085  0.3813 -0.4238
  936MOL0     C23443   8.564  12.183   3.896 -0.2558 -0.0474  0.7856
  936MOL0     O23444   8.587  12.168   4.040  1.6615 -0.5192 -0.9044
  936MOL0     C23445   8.527  12.240   4.133  0.8874 -1.0807 -0.3798
  936MOL0     C23446   8.456  12.362   4.107  0.4984  0.3513  0.4548
  936MOL0     C23447   8.407  12.443   4.212 -0.2242 -0.3906  0.6866
  936MOL0     C23448   8.408  12.394   4.345  0.8698  0.7460 -0.4575
  936MOL0     C23449   8.344  12.474   4.453 -0.2425 -0.1774  0.1222
  936MOL0     O23450   8.304  12.396   4.557 -0.3630  0.2389 -0.9393
  936MOL0     C23451   8.210  12.457   4.644 -0.4833 -0.4181  0.9538
  936MOL0     C23452   8.076  12.416   4.655  0.8573  0.0272  0.2105
  936MOL0     C23453   7.995  12.472   4.761 -0.6396  0.5280  0.2423
  936MOL0     C23454   8.052  12.562   4.853 -0.3451  0.0666  0.2534
  936MOL0     O23455   7.976  12.621   4.948 -0.1851  0.2992 -0.7211
  936MOL0     C23456   8.027  12.648   5.082  1.1322 -0.6173 -0.2378
  936MOL0     C23457   7.953  12.760   5.161 -0.8547  1.1379  1.0566
  936MOL0     C23458   7.801  12.752   5.160  0.4656  0.2939  1.1012
  936MOL0     C23459   7.736  12.866   5.233  0.2596 -0.0868  0.6771
  936MOL0     C23460   7.591  12.853   5.221  0.2462  0.0718 -0.1780
  936MOL0     C23461   7.544  12.766   5.344 -0.3192 -0.1059 -0.0178
  936MOL0     C23462   7.554  12.825   5.482  0.3860  0.6436  0.0336
  936MOL0     C23463   7.449  12.945   5.511  0.0330 -0.1914 -0.6603
  936MOL0    Cl23464   7.487  13.020   5.680 -0.0435  0.3376  0.2915
  936MOL0     C23465   8.190  12.591   4.847 -0.1015 -0.0192 -0.3011
  936MOL0     C23466   8.262  12.537   4.746  0.3281  0.8574  0.0907
  936MOL0     O23467   8.306  12.585   4.420 -0.4342 -0.1783  0.1000
  936MOL0     C23468   8.471  12.271   4.368 -0.1126  0.0808  0.1719
  936MOL0     C23469   8.527  12.192   4.265  0.1197  0.3089  0.5688
  936MOL0     N23470   8.570  12.087   3.389  0.6617  0.1639  0.0887
  936MOL0     N23471   8.610  12.108   3.275 -0.1889 -0.1856  1.2496
  936MOL0     C23472   8.779  11.146   2.592  0.1341  0.1767  0.3164
  936MOL0     C23473   8.860  11.031   2.551  0.9833  0.6233 -0.4246
  936MOL0     C23474   9.088  10.706   2.360  0.9377  1.3916  0.5947
  936MOL0     C23475   9.085  10.581   2.428  0.3906 -0.0759  0.0869
  936MOL0     C23476   9.198  10.489   2.416  0.1567 -0.5669 -0.1912
  936MOL0     C23477   9.300  10.514   2.325 -0.0734 -0.7290  0.4616
  936MOL0     O23478   9.401  10.430   2.300 -0.3510  0.5754  0.2205
  936MOL0     C23479   9.378  10.295   2.347 -0.2940  0.3771 -0.2947
  936MOL0     C23480   9.487  10.200   2.301  0.2523  0.7257 -0.7429
  936MOL0     C23481   9.542  10.241   2.159  0.0648 -0.4447 -0.3661
  936MOL0     C23482   9.644  10.133   2.099 -0.4851  0.1917 -0.4619
  936MOL0     C23483   9.758  10.124   2.191 -0.2871  0.6886  0.1376
  936MOL0     C23484   9.847  10.116   2.271 -0.1645 -0.4415  0.5153
  936MOL0     C23485   9.299  10.639   2.257 -0.5992  0.0141  0.6093
  936MOL0     C23486   9.199  10.729   2.276  0.6059  0.1992 -0.3416
  936MOL0     H23487   8.996  11.177   2.277  2.2871 -1.1365  1.4863
  936MOL0     H23488   8.860  11.353   2.336  2.9713 -1.0215  0.1254
  936MOL0     H23489   8.626  11.511   2.441  1.2260  2.3676 -1.0801
  936MOL0     H23490   8.799  11.509   2.452 -0.0008  0.5971 -0.2462
  936MOL0     H23491   8.752  11.702   2.585  0.2877  0.4656  1.8130
  936MOL0     H23492   8.799  11.572   2.688 -0.6264  1.6545  0.6899
  936MOL0     H23493   8.523  11.537   2.710 -1.2134 -0.5146 -2.4673
  936MOL0     H23494   8.524  11.691   2.632 -1.1693  1.0882  3.3225
  936MOL0     H23495   8.530  11.710   2.897  1.5235 -0.8433  2.4913
  936MOL0     H23496   8.693  11.671   2.875 -0.4405  1.1882  0.5030
  936MOL0     H23497   8.546  11.903   2.760 -2.0086 -2.5478 -0.0525
  936MOL0     H23498   8.725  11.872   2.744 -1.1851  0.9490 -0.9072
  936MOL0     H23499   8.556  11.933   2.990  1.3524 -2.8070  2.0596
  936MOL0     H23500   8.664  12.052   2.902  1.7894  1.1078  0.7174
  936MOL0     H23501   8.734  11.809   3.078 -2.5627  0.0613 -1.2316
  936MOL0     H23502   8.849  11.893   2.966  1.1372 -0.1161  0.6734
  936MOL0     H23503   8.778  12.106   3.079  0.1546 -1.7712 -2.6656
  936MOL0     H23504   8.894  12.011   3.163  0.7054 -0.6245 -1.0015
  936MOL0     H23505   8.816  11.881   3.383 -0.9307 -0.8413  0.1213
  936MOL0     H23506   8.735  11.919   3.634 -2.0560  0.2477  3.7975
  936MOL0     H23507   8.581  11.869   3.610  1.6513 -0.9408  3.6961
  936MOL0     H23508   8.489  12.073   3.646 -0.1613 -2.8675  2.5184
  936MOL0     H23509   8.623  12.173   3.628 -0.9548 -0.2018 -0.8693
  936MOL0     H23510   8.531  11.973   3.847  2.6293 -1.4717  1.5659
  936MOL0     H23511   8.706  12.037   3.838  0.3790  2.1894 -1.3393
  936MOL0     H23512   8.458  12.199   3.876 -1.1557 -1.3632  3.8971
  936MOL0     H23513   8.626  12.261   3.849 -1.2402 -1.1021 -2.5597
  936MOL0     H23514   8.479  12.393   4.006  4.4071 -0.9759  0.7549
  936MOL0     H23515   8.376  12.543   4.183  0.1543 -0.4617  0.0249
  936MOL0     H23516   8.025  12.346   4.590 -0.1172  2.0054 -1.2698
  936MOL0     H23517   7.891  12.442   4.769 -0.4134 -0.4833 -0.3936
  936MOL0     H23518   8.129  12.687   5.074  0.6894  0.5279 -0.5565
  936MOL0     H23519   8.020  12.557   5.142  2.7000 -0.3227  0.4522
  936MOL0     H23520   7.985  12.859   5.126 -1.3732  0.5188 -1.4217
  936MOL0     H23521   7.987  12.738   5.262  0.3906 -1.3492  0.1742
  936MOL0     H23522   7.766  12.652   5.186  3.2485 -1.7974 -2.3855
  936MOL0     H23523   7.775  12.753   5.054  2.1200 -0.9318  0.6499
  936MOL0     H23524   7.777  12.852   5.333  1.3306  0.3173  0.3063
  936MOL0     H23525   7.769  12.964   5.197 -0.9290 -0.2575 -1.0054
  936MOL0     H23526   7.564  12.795   5.132 -2.2283  0.6238  0.1493
  936MOL0     H23527   7.539  12.948   5.219  0.9673  0.5604  1.7158
  936MOL0     H23528   7.599  12.672   5.343 -0.8637 -0.4741 -2.6633
  936MOL0     H23529   7.443  12.727   5.329  0.3611 -1.7950 -0.3291
  936MOL0     H23530   7.535  12.748   5.558 -0.6111  2.5231  1.8013
  936MOL0     H23531   7.654  12.868   5.498  1.6062 -0.7267 -3.1887
  936MOL0     H23532   7.350  12.898   5.513 -1.7278  3.2312 -0.6092
  936MOL0     H23533   7.453  13.013   5.426 -0.1966  2.2474  1.1749
  936MOL0     H23534   8.236  12.660   4.917 -1.5763 -0.8722  1.6025
  936MOL0     H23535   8.366  12.565   4.731  0.7985 -1.1589 -0.8117
  936MOL0     H23536   8.458  12.248   4.473 -0.5254 -1.7200 -0.2315
  936MOL0     H23537   8.581  12.099   4.283 -2.6418 -2.2587 -2.8281
  936MOL0     H23538   8.722  11.142   2.685 -1.0844  0.3313 -0.4036
  936MOL0     H23539   8.849  10.939   2.609 -1.3351 -0.2023 -2.0300
  936MOL0     H23540   8.995  10.567   2.487  0.0185  1.6794 -0.0263
  936MOL0     H23541   9.195  10.386   2.447  3.6456 -1.4208 -2.0852
  936MOL0     H23542   9.277  10.254   2.339  0.2432 -1.5517  1.7083
  936MOL0     H23543   9.392  10.291   2.455 -2.4266 -2.5351 -0.0094
  936MOL0     H23544   9.581  10.220   2.355  1.9275 -0.1334 -3.1601
  936MOL0     H23545   9.458  10.095   2.312 -1.5737  1.2168 -0.6651
  936MOL0     H23546   9.591  10.338   2.160 -3.6182  1.5764  0.3364
  936MOL0     H23547   9.454  10.246   2.095  2.6064  1.3215 -4.1471
  936MOL0     H23548   9.589  10.039   2.087  0.2470 -0.2099 -0.7337
  936MOL0     H23549   9.674  10.175   2.003  0.9468 -0.0713 -0.1455
  936MOL0     H23550   9.930  10.102   2.338 -0.4606 -2.7211  0.4956
  936MOL0     H23551   9.390  10.652   2.199 -0.8040 -2.0640 -0.2636
  936MOL0     H23552   9.210  10.817   2.214  2.5863  1.6815  1.9733
  937MOL0     O23553   0.178   2.541   3.936  0.5233  0.0860 -0.4664
  937MOL0     C23554   0.265   2.459   3.938 -0.5375 -0.1482  0.0540
  937MOL0     O23555   0.387   2.479   3.871  0.1826  0.0577 -0.6047
  937MOL0     C23556   0.413   2.585   3.782  0.0418  0.0207 -0.0400
  937MOL0     C23557   0.549   2.595   3.762  0.0797 -0.2723  0.0410
  937MOL0     C23558   0.603   2.695   3.678  0.5960 -0.8167 -0.7211
  937MOL0     C23559   0.519   2.787   3.603 -0.5524 -0.2458  0.5003
  937MOL0     O23560   0.579   2.881   3.512  0.4890 -0.0708 -0.1045
  937MOL0     C23561   0.708   2.934   3.542  0.3421  0.1078 -0.1413
  937MOL0     C23562   0.728   3.064   3.476 -0.3671 -0.2768  0.7401
  937MOL0     C23563   0.882   3.084   3.468  1.4096  0.0104  0.0508
  937MOL0     C23564   0.913   3.208   3.378 -0.2526  0.2184 -0.2081
  937MOL0     C23565   1.063   3.217   3.337  0.4718 -0.3808  0.6408
  937MOL0     C23566   1.170   3.225   3.449 -0.0125  0.4054  0.2528
  937MOL0     C23567   1.314   3.216   3.396  0.1951 -0.3085  0.1442
  937MOL0     C23568   1.347   3.347   3.318  0.6853  0.4534 -0.1538
  937MOL0     N23569   1.469   3.326   3.240  0.0479 -0.3568 -0.9554
  937MOL0     C23570   1.588   3.306   3.300  0.3029 -0.7012 -0.3761
  937MOL0     C23571   1.680   3.336   3.206 -0.0475 -0.2757  0.4096
  937MOL0     C23572   1.827   3.335   3.247 -0.6423  0.6401 -0.6090
  937MOL0     C23573   1.853   3.474   3.322 -0.7088 -0.2910 -0.7165
  937MOL0     C23574   1.996   3.529   3.310 -0.5982 -0.0823  0.2038
  937MOL0     C23575   2.009   3.659   3.391 -0.1264 -0.6298  0.2917
  937MOL0     O23576   1.941   3.772   3.329  0.1026 -0.4009  0.9430
  937MOL0     C23577   1.869   3.859   3.412  0.4983 -0.1787 -0.1681
  937MOL0     C23578   1.781   3.957   3.359  0.1722 -0.5218  0.5269
  937MOL0     C23579   1.740   4.067   3.443  0.1928 -0.1460 -0.2649
  937MOL0     C23580   1.784   4.083   3.576 -0.1941 -0.0873 -0.5071
  937MOL0     C23581   1.711   4.181   3.670 -0.0735  0.9013 -0.0295
  937MOL0     O23582   1.625   4.258   3.607 -0.8241  0.1929  0.4090
  937MOL0     C23583   1.607   4.379   3.668  1.1445  0.0379 -0.0268
  937MOL0     C23584   1.518   4.379   3.775  0.1595 -0.4209  0.0803
  937MOL0     C23585   1.481   4.495   3.848 -0.7509 -0.0967  0.1585
  937MOL0     C23586   1.515   4.622   3.794 -0.5377 -0.3088 -0.3496
  937MOL0     O23587   1.445   4.728   3.831 -0.1204 -0.8681 -0.1550
  937MOL0     C23588   1.384   4.801   3.727 -0.2355 -0.9251  0.0900
  937MOL0     C23589   1.272   4.742   3.638  0.1020  0.2692  0.3067
  937MOL0     C23590   1.224   4.854   3.532 -0.5197 -0.3613  0.1626
  937MOL0     C23591   1.331   4.917   3.444  0.2831 -0.7408  0.4055
  937MOL0     C23592   1.412   4.835   3.342  0.0854 -0.4525 -0.5305
  937MOL0     C23593   1.503   4.940   3.271 -0.1103 -0.5690  0.6777
  937MOL0     C23594   1.421   5.036   3.190  0.3027 -0.0210  0.5944
  937MOL0     C23595   1.494   5.106   3.082 -0.5304  0.3908  0.0542
  937MOL0    Cl23596   1.377   5.207   2.996 -0.3283 -0.0317  0.0746
  937MOL0     C23597   1.606   4.620   3.694 -0.1048 -0.7964  0.0839
  937MOL0     C23598   1.656   4.507   3.628  0.2358 -0.1523 -0.5137
  937MOL0     O23599   1.734   4.176   3.792 -0.1783 -0.2973 -0.2352
  937MOL0     C23600   1.874   3.978   3.625 -0.8597 -0.2019 -0.2063
  937MOL0     C23601   1.915   3.880   3.536  0.1409  0.6753  0.7160
  937MOL0     N23602   1.614   3.389   3.095  0.2277  1.1425  0.2578
  937MOL0     N23603   1.488   3.385   3.119  1.0593  1.0758 -1.2468
  937MOL0     C23604   0.383   2.776   3.629  0.2914  0.9297  0.5430
  937MOL0     C23605   0.326   2.675   3.711  0.9018  1.0862  0.3700
  937MOL0     C23606   0.230   2.338   4.000  1.2472  1.0821  0.1410
  937MOL0     C23607   0.109   2.325   4.073  0.3049 -0.7341  0.2566
  937MOL0     C23608   0.075   2.210   4.145 -0.8165 -0.6353  0.4458
  937MOL0     C23609   0.147   2.101   4.141 -1.0010  0.3431  0.6351
  937MOL0     O23610   0.117   1.982   4.207  0.0781 -1.4382 -0.0274
  937MOL0     C23611   0.128   1.986   4.355 -0.6477  0.2799  0.9605
  937MOL0     C23612   0.005   1.904   4.413  0.2437  0.2955  0.4673
  937MOL0     C23613   0.021   1.750   4.371  0.1635  0.3173 -0.4510
  937MOL0     C23614  -0.078   1.670   4.460 -0.7602 -0.2213  0.0462
  937MOL0     C23615  -0.219   1.722   4.454  0.2122  0.3919 -0.1398
  937MOL0     C23616  -0.334   1.766   4.444 -0.4378  0.1912  0.6006
  937MOL0     C23617   0.271   2.110   4.062  1.1392 -0.3461  0.6614
  937MOL0     C23618   0.317   2.226   3.999 -0.6628 -0.9394 -0.1221
  937MOL0     H23619   0.627   2.542   3.817 -0.4147  0.8055  1.8859
  937MOL0     H23620   0.711   2.695   3.670  0.5637 -1.1643 -1.2128
  937MOL0     H23621   0.776   2.853   3.517 -0.8116 -1.3356  1.1797
  937MOL0     H23622   0.709   2.960   3.648 -2.1754  1.3017 -0.3321
  937MOL0     H23623   0.677   3.142   3.532 -3.1419 -2.8438  2.1025
  937MOL0     H23624   0.691   3.078   3.375  4.6161  1.6910 -1.1392
  937MOL0     H23625   0.926   2.999   3.414 -1.8715 -1.3660 -0.6724
  937MOL0     H23626   0.924   3.098   3.568 -0.5003  1.5803  0.6851
  937MOL0     H23627   0.859   3.203   3.283  1.8103 -2.2478 -1.3876
  937MOL0     H23628   0.893   3.299   3.436 -0.5136 -0.5069  0.8802
  937MOL0     H23629   1.081   3.316   3.293 -0.7029  0.1957  1.4150
  937MOL0     H23630   1.078   3.136   3.265 -1.9102  0.8150 -1.3409
  937MOL0     H23631   1.160   3.129   3.501  1.3827 -1.7389 -3.0498
  937MOL0     H23632   1.155   3.308   3.518 -0.9377  0.3550  0.1310
  937MOL0     H23633   1.378   3.207   3.484 -1.1516  1.7911  1.4298
  937MOL0     H23634   1.323   3.130   3.329 -0.8498 -0.1927 -0.1643
  937MOL0     H23635   1.376   3.424   3.391 -0.3348 -1.5267  2.5346
  937MOL0     H23636   1.274   3.393   3.251  1.2582  1.3075 -0.2046
  937MOL0     H23637   1.598   3.278   3.404  0.0110 -0.6044 -0.3204
  937MOL0     H23638   1.900   3.327   3.166  2.8923  3.0113  2.0181
  937MOL0     H23639   1.838   3.261   3.328  0.3315  3.0229  1.5599
  937MOL0     H23640   1.830   3.470   3.428  0.5026  0.4844 -0.4004
  937MOL0     H23641   1.786   3.555   3.292  0.5249  1.2280  0.4479
  937MOL0     H23642   2.064   3.457   3.356 -1.5081 -1.0080  0.1391
  937MOL0     H23643   2.029   3.551   3.208 -1.0087  1.8053  0.4446
  937MOL0     H23644   2.117   3.676   3.391  0.0464 -1.6526 -0.5048
  937MOL0     H23645   1.971   3.643   3.493  0.3173  1.6742  0.8837
  937MOL0     H23646   1.760   3.967   3.253  0.5930 -0.0624  0.4848
  937MOL0     H23647   1.681   4.144   3.395 -0.1557  0.2512  0.7651
  937MOL0     H23648   1.480   4.286   3.816 -0.7431  0.9637  2.6844
  937MOL0     H23649   1.405   4.494   3.925 -0.1779  3.1559  0.9223
  937MOL0     H23650   1.462   4.843   3.663 -0.1139 -2.9044 -1.1549
  937MOL0     H23651   1.340   4.890   3.773  0.5381  0.5316 -1.8448
  937MOL0     H23652   1.191   4.716   3.706  0.5026  1.4735  1.2806
  937MOL0     H23653   1.313   4.660   3.577 -3.2627  0.7304 -2.9698
  937MOL0     H23654   1.176   4.935   3.587  1.5886  1.1719 -0.1102
  937MOL0     H23655   1.149   4.798   3.475 -1.9286  0.7963  0.8389
  937MOL0     H23656   1.270   4.987   3.386  0.5741 -1.4264 -0.7534
  937MOL0     H23657   1.391   4.975   3.515  0.0537 -1.5883  1.3175
  937MOL0     H23658   1.355   4.774   3.271 -0.2828  0.7053 -1.2487
  937MOL0     H23659   1.473   4.762   3.396 -0.4897 -0.8795 -0.4411
  937MOL0     H23660   1.563   4.885   3.198 -2.1299  2.4262 -3.6768
  937MOL0     H23661   1.571   4.995   3.336 -0.0248  1.8204 -1.2561
  937MOL0     H23662   1.336   4.980   3.149  1.0342 -2.1866  1.8647
  937MOL0     H23663   1.369   5.116   3.244  1.0108  1.1114 -0.3657
  937MOL0     H23664   1.539   5.033   3.014 -0.3883  1.0063 -0.5156
  937MOL0     H23665   1.584   5.160   3.113 -1.1583  1.0530  0.7812
  937MOL0     H23666   1.623   4.718   3.651 -2.8553  0.0142  0.6249
  937MOL0     H23667   1.722   4.518   3.543 -1.1061  0.1081 -1.5638
  937MOL0     H23668   1.929   3.991   3.718  2.7100  0.3141 -2.1893
  937MOL0     H23669   1.989   3.820   3.589  0.1730  0.5614  0.5416
  937MOL0     H23670   0.327   2.857   3.583  1.6389  2.0812  0.8628
  937MOL0     H23671   0.218   2.665   3.716  0.9153 -0.6609 -1.6308
  937MOL0     H23672   0.036   2.402   4.053  0.2278 -1.1785 -1.3427
  937MOL0     H23673  -0.017   2.212   4.203 -0.1080  0.2306  1.5979
  937MOL0     H23674   0.126   2.086   4.399 -3.2537 -0.1703  2.0524
  937MOL0     H23675   0.221   1.945   4.395 -3.6936 -3.3864  5.4366
  937MOL0     H23676  -0.001   1.910   4.522  0.9053  0.0990  0.5177
  937MOL0     H23677  -0.084   1.944   4.363  1.2316 -0.6637 -2.2328
  937MOL0     H23678   0.120   1.707   4.384 -0.1116  0.2964  2.2016
  937MOL0     H23679  -0.004   1.741   4.265  2.6614  1.4947 -1.2143
  937MOL0     H23680  -0.085   1.566   4.427  0.4201  0.0010 -0.9612
  937MOL0     H23681  -0.044   1.659   4.564 -3.3775 -1.1593  0.8742
  937MOL0     H23682  -0.436   1.796   4.444 -1.6639 -3.4006 -1.5186
  937MOL0     H23683   0.335   2.023   4.065 -0.4033 -1.6027 -0.9693
  937MOL0     H23684   0.412   2.245   3.950 -1.5659 -0.5602 -1.8307
  938MOL0     O23685  11.338  11.413   8.880 -0.1785 -0.2669 -0.2730
  938MOL0     C23686  11.277  11.479   8.790  0.5563 -0.5057  0.2228
  938MOL0     O23687  11.333  11.504   8.669  1.0205 -0.9031 -0.1586
  938MOL0     C23688  11.465  11.463   8.647  0.4585 -0.5492  1.3249
  938MOL0     C23689  11.565  11.549   8.619  0.1739  0.5270  0.4885
  938MOL0     C23690  11.691  11.514   8.577  0.6303 -0.0555  0.3098
  938MOL0     C23691  11.713  11.373   8.574  0.5453  0.1764 -0.1962
  938MOL0     O23692  11.820  11.334   8.510 -0.2652 -0.2159  0.4915
  938MOL0     C23693  11.906  11.226   8.545  0.8879 -0.8823 -0.8187
  938MOL0     C23694  12.040  11.256   8.613  0.1028 -0.4213  0.2074
  938MOL0     C23695  12.137  11.334   8.513  0.4987 -0.5071 -0.1094
  938MOL0     C23696  12.280  11.334   8.563  0.2867  0.1920  0.0109
  938MOL0     C23697  12.377  11.414   8.476 -0.5039 -0.1066 -0.1382
  938MOL0     C23698  12.516  11.343   8.495  1.0792  0.0732 -0.2650
  938MOL0     C23699  12.618  11.415   8.404  0.5382 -0.3242  0.3619
  938MOL0     C23700  12.758  11.380   8.454 -0.0988  0.7299  0.9688
  938MOL0     N23701  12.852  11.342   8.341 -0.3033  0.3377  0.2013
  938MOL0     C23702  12.861  11.213   8.290 -0.6598 -0.0165  0.0877
  938MOL0     C23703  12.930  11.222   8.182 -0.3881  0.2763  0.5524
  938MOL0     C23704  12.945  11.107   8.089 -0.0774  0.1233 -0.2600
  938MOL0     C23705  13.073  11.115   8.004 -0.4494 -0.5206 -0.0726
  938MOL0     C23706  13.199  11.090   8.082  0.0428  0.5399 -0.1573
  938MOL0     C23707  13.336  11.100   8.003 -0.3633 -0.2216  0.8138
  938MOL0     O23708  13.324  11.012   7.889 -0.4846  0.5972 -0.5969
  938MOL0     C23709  13.388  10.892   7.905 -0.1054  0.5078  0.0419
  938MOL0     C23710  13.435  10.829   7.784 -0.0206  0.2015 -0.7922
  938MOL0     C23711  13.514  10.713   7.795 -0.2668 -0.7841 -0.5112
  938MOL0     C23712  13.534  10.646   7.925 -0.1755  0.8987  0.9913
  938MOL0     C23713  13.628  10.528   7.922  0.0564 -0.1097 -0.2237
  938MOL0     O23714  13.675  10.492   7.799  0.0781 -0.2765 -0.2810
  938MOL0     C23715  13.747  10.375   7.788  0.1268  0.0900  0.5958
  938MOL0     C23716  13.701  10.250   7.831  0.3537  0.3967  1.1793
  938MOL0     C23717  13.759  10.130   7.793  0.4708 -1.2497 -0.7585
  938MOL0     C23718  13.889  10.130   7.729  0.3690  0.5050 -0.6630
  938MOL0     O23719  13.955  10.011   7.693  0.1142 -0.6077  0.4762
  938MOL0     C23720  13.989   9.929   7.799 -0.6519 -0.0074 -0.8143
  938MOL0     C23721  13.912   9.798   7.789  0.2518  0.1500 -0.4457
  938MOL0     C23722  13.938   9.691   7.897  0.8299 -0.0017  0.2630
  938MOL0     C23723  13.821   9.589   7.909  0.3158  0.5978  0.4115
  938MOL0     C23724  13.843   9.484   8.017 -0.5653 -0.3672 -0.6579
  938MOL0     C23725  13.955   9.396   7.981  0.1078 -0.5304 -0.7109
  938MOL0     C23726  13.964   9.273   8.063 -0.5099 -0.5959  0.4545
  938MOL0     C23727  14.078   9.185   8.008 -0.1994  0.0244  0.3736
  938MOL0    Cl23728  14.009   9.079   7.874 -0.3478  0.1467 -0.1918
  938MOL0     C23729  13.928  10.257   7.687 -0.4420  0.6642  0.4422
  938MOL0     C23730  13.855  10.378   7.705 -0.0605  0.3960  0.1818
  938MOL0     O23731  13.658  10.475   8.034  0.2339 -0.3948  0.1991
  938MOL0     C23732  13.467  10.695   8.037  0.4721  0.0133  0.2093
  938MOL0     C23733  13.399  10.821   8.032 -0.2275  0.7505  0.6706
  938MOL0     N23734  12.940  11.356   8.153  1.2141 -0.5363  0.8242
  938MOL0     N23735  12.891  11.426   8.250 -0.2008 -0.9587  0.2520
  938MOL0     C23736  11.614  11.283   8.610  0.4317  0.2395 -0.8176
  938MOL0     C23737  11.489  11.328   8.642 -0.7776 -0.8062 -0.0326
  938MOL0     C23738  11.138  11.517   8.804  1.0224 -0.0759  0.0318
  938MOL0     C23739  11.065  11.588   8.702  0.9249  0.8226 -0.2069
  938MOL0     C23740  10.927  11.636   8.720  0.0332 -0.0178  0.2371
  938MOL0     C23741  10.848  11.592   8.828 -1.1374  0.6503  0.2118
  938MOL0     O23742  10.713  11.611   8.844 -0.2085 -0.2383  0.2000
  938MOL0     C23743  10.628  11.626   8.732  0.5780 -0.0851  0.7628
  938MOL0     C23744  10.614  11.780   8.703  0.1852 -0.2099 -1.0479
  938MOL0     C23745  10.538  11.814   8.575 -0.2803 -0.2840 -0.0531
  938MOL0     C23746  10.409  11.727   8.552  0.0610  0.2965  0.5063
  938MOL0     C23747  10.332  11.782   8.440 -0.2794 -1.3205  0.1161
  938MOL0     C23748  10.267  11.820   8.344 -1.2619  0.2710  0.4324
  938MOL0     C23749  10.912  11.514   8.917 -0.0315  0.6386 -0.7841
  938MOL0     C23750  11.053  11.489   8.917  0.6701  0.2384  0.3231
  938MOL0     H23751  11.548  11.655   8.632  0.1828  0.4525  1.1033
  938MOL0     H23752  11.779  11.573   8.554  1.7581 -1.3257  1.2013
  938MOL0     H23753  11.919  11.177   8.448 -2.5634 -1.4889 -1.0782
  938MOL0     H23754  11.860  11.149   8.608  1.0928 -0.5607 -0.2726
  938MOL0     H23755  12.084  11.167   8.657  0.5711 -1.0958 -1.5590
  938MOL0     H23756  12.028  11.319   8.702 -1.3037 -0.7636  0.2897
  938MOL0     H23757  12.102  11.437   8.511 -0.0916 -0.6347  1.7284
  938MOL0     H23758  12.130  11.301   8.408  0.1998 -0.0113 -0.2502
  938MOL0     H23759  12.274  11.364   8.668 -1.7115 -0.8957  0.2492
  938MOL0     H23760  12.304  11.228   8.568  0.0112  0.1885  2.7991
  938MOL0     H23761  12.400  11.515   8.512  0.8126  0.1773 -1.6699
  938MOL0     H23762  12.352  11.426   8.371 -2.3257  0.2455  0.2963
  938MOL0     H23763  12.512  11.237   8.467  1.4603 -0.2502  0.8459
  938MOL0     H23764  12.538  11.337   8.602 -3.8905 -3.0098  0.9010
  938MOL0     H23765  12.606  11.397   8.297  1.1527  0.5431  0.1400
  938MOL0     H23766  12.592  11.521   8.409 -0.0232 -0.4847  1.0893
  938MOL0     H23767  12.756  11.291   8.518 -1.3628 -0.2379 -0.3355
  938MOL0     H23768  12.793  11.458   8.522  3.1561 -1.0869  1.5881
  938MOL0     H23769  12.825  11.125   8.342  1.9987  1.0611  4.2956
  938MOL0     H23770  12.855  11.092   8.030 -1.2849  0.8215  1.3246
  938MOL0     H23771  12.960  11.023   8.158  2.7955  1.0093  0.3441
  938MOL0     H23772  13.072  11.211   7.951  1.4885 -0.2126  0.3811
  938MOL0     H23773  13.062  11.040   7.925  2.8359  0.2769 -1.4745
  938MOL0     H23774  13.200  11.175   8.151  3.7360  1.1150 -0.6846
  938MOL0     H23775  13.201  10.998   8.142 -0.6776  1.4698  1.3669
  938MOL0     H23776  13.433  11.092   8.052  1.6268  1.2474 -2.5279
  938MOL0     H23777  13.338  11.205   7.972 -0.2096 -0.8066 -1.3161
  938MOL0     H23778  13.429  10.877   7.687  2.1036  1.5147 -0.3319
  938MOL0     H23779  13.578  10.692   7.710  0.9330  0.3200  0.0817
  938MOL0     H23780  13.609  10.252   7.888 -0.3961  2.4224 -0.0064
  938MOL0     H23781  13.713  10.039   7.831 -0.3722 -0.4329  0.2555
  938MOL0     H23782  13.968   9.967   7.899  1.7413 -2.4473  0.7454
  938MOL0     H23783  14.095   9.904   7.803  0.0817  2.7685 -0.8985
  938MOL0     H23784  13.926   9.751   7.691 -0.5111 -1.2624  0.1034
  938MOL0     H23785  13.805   9.822   7.797  0.2230 -0.7340  3.1661
  938MOL0     H23786  13.942   9.737   7.996  2.4271  0.7054 -0.1124
  938MOL0     H23787  14.035   9.645   7.876  0.1881 -0.2193 -2.6421
  938MOL0     H23788  13.736   9.647   7.944 -0.2003  0.8242 -1.1310
  938MOL0     H23789  13.792   9.542   7.815  2.4793  0.4374 -0.2451
  938MOL0     H23790  13.753   9.423   8.028  0.0865 -1.2628 -0.2018
  938MOL0     H23791  13.873   9.533   8.110  2.2176  0.1344 -1.7404
  938MOL0     H23792  14.048   9.453   7.993  0.7657 -1.7553  0.2183
  938MOL0     H23793  13.948   9.373   7.874  0.3965 -1.1998 -0.5886
  938MOL0     H23794  13.985   9.297   8.167 -1.6294 -1.6743  0.9488
  938MOL0     H23795  13.867   9.224   8.051 -1.9373  1.2296  3.5608
  938MOL0     H23796  14.135   9.128   8.082 -0.6196  1.6925  2.0576
  938MOL0     H23797  14.155   9.250   7.965 -0.9243 -0.9197 -2.6025
  938MOL0     H23798  14.016  10.255   7.623  0.7611  1.4765  2.0109
  938MOL0     H23799  13.875  10.469   7.650 -0.6710  0.4639  0.0620
  938MOL0     H23800  13.463  10.640   8.130 -0.0165  0.0210  0.1947
  938MOL0     H23801  13.357  10.866   8.122 -1.5144  1.9973 -0.5071
  938MOL0     H23802  11.626  11.175   8.615 -0.3375  0.1956  0.3109
  938MOL0     H23803  11.402  11.265   8.651 -1.5884  0.2368 -0.4628
  938MOL0     H23804  11.128  11.618   8.619  1.8241  0.0019  0.1584
  938MOL0     H23805  10.882  11.702   8.647 -0.7509  0.3716  1.0462
  938MOL0     H23806  10.526  11.588   8.747  0.0836  1.4698  1.5432
  938MOL0     H23807  10.672  11.591   8.638  0.8219 -1.2635  1.2919
  938MOL0     H23808  10.562  11.826   8.788 -1.7667 -0.0542 -2.2522
  938MOL0     H23809  10.716  11.817   8.694  0.4626 -0.9720 -1.1228
  938MOL0     H23810  10.611  11.820   8.493 -0.2830 -0.5737 -0.0801
  938MOL0     H23811  10.504  11.917   8.588 -0.8529 -0.8033  3.8065
  938MOL0     H23812  10.448  11.628   8.529  2.3588  1.1744  0.2833
  938MOL0     H23813  10.356  11.737   8.647 -1.0398 -1.6275  0.1317
  938MOL0     H23814  10.218  11.859   8.257 -1.5676 -1.2461 -0.0905
  938MOL0     H23815  10.849  11.479   8.998 -1.7545  3.3334 -0.8431
  938MOL0     H23816  11.100  11.432   8.996  0.9836  0.9867  0.6882
  939MOL0     O23817   9.621   4.599   9.169  0.3153 -0.3448  0.0713
  939MOL0     C23818   9.575   4.494   9.222  0.1696 -0.1407  2.0175
  939MOL0     O23819   9.609   4.368   9.197  0.6174  0.5482  0.4729
  939MOL0     C23820   9.713   4.335   9.116  0.4093 -0.2910  1.2184
  939MOL0     C23821   9.709   4.197   9.071 -0.9816  0.3048 -0.8777
  939MOL0     C23822   9.808   4.149   8.991  0.1407  0.4268 -0.2988
  939MOL0     C23823   9.905   4.238   8.949 -0.3645  0.4750  0.0177
  939MOL0     O23824  10.006   4.178   8.869  0.1355  0.4819 -0.1905
  939MOL0     C23825  10.129   4.246   8.852 -1.2954 -1.0376 -0.7263
  939MOL0     C23826  10.231   4.156   8.779 -0.0800 -0.0343  0.0287
  939MOL0     C23827  10.323   4.056   8.866 -0.2112 -0.6435  0.8362
  939MOL0     C23828  10.436   4.002   8.776 -0.8322  0.0536  0.0933
  939MOL0     C23829  10.559   3.958   8.859  0.4790  0.0649  0.0333
  939MOL0     C23830  10.526   3.834   8.950  0.2452  0.1374 -1.0492
  939MOL0     C23831  10.493   3.703   8.872 -0.4547 -0.8674  0.5476
  939MOL0     C23832  10.431   3.611   8.969  0.0438  1.0012  0.0350
  939MOL0     N23833  10.532   3.546   9.066  0.2162  0.2126  0.7750
  939MOL0     C23834  10.588   3.607   9.175  0.7655  0.6244 -0.0421
  939MOL0     C23835  10.676   3.510   9.222  0.2835 -0.8622 -1.7002
  939MOL0     C23836  10.745   3.530   9.349  0.7819  0.4650  0.4139
  939MOL0     C23837  10.666   3.475   9.479 -0.3212 -0.0333 -0.0388
  939MOL0     C23838  10.627   3.328   9.475  0.4939 -0.3774 -0.1173
  939MOL0     C23839  10.742   3.227   9.510 -0.6653  0.5271  0.1210
  939MOL0     O23840  10.803   3.181   9.387 -0.6983 -0.0211 -0.3021
  939MOL0     C23841  10.918   3.104   9.387  0.4691  0.1140  1.0934
  939MOL0     C23842  10.971   3.047   9.268 -0.8623  0.6067  0.6213
  939MOL0     C23843  11.051   2.942   9.267 -0.0842 -0.2598 -0.0565
  939MOL0     C23844  11.097   2.892   9.393  0.1815 -0.0834  0.1293
  939MOL0     C23845  11.194   2.770   9.402 -0.5007 -0.3064 -0.1468
  939MOL0     O23846  11.279   2.764   9.293  1.1251 -0.2381  0.0432
  939MOL0     C23847  11.381   2.669   9.280 -1.0526  1.1384 -0.4116
  939MOL0     C23848  11.439   2.624   9.155 -0.7774  0.0528  0.3908
  939MOL0     C23849  11.548   2.534   9.141  0.6851  0.5076  0.1537
  939MOL0     C23850  11.612   2.491   9.259 -0.3628  0.4669 -0.9658
  939MOL0     O23851  11.720   2.403   9.268 -0.1448 -0.1564 -0.1234
  939MOL0     C23852  11.756   2.352   9.138  1.0265  0.6751  0.5154
  939MOL0     C23853  11.866   2.253   9.157  0.2298  0.0603  0.0431
  939MOL0     C23854  11.992   2.312   9.225  0.3085 -0.6898  0.4260
  939MOL0     C23855  12.088   2.197   9.255 -0.4239 -0.5127  0.7689
  939MOL0     C23856  12.181   2.187   9.131 -0.0652 -0.9983  0.8581
  939MOL0     C23857  12.317   2.129   9.168  1.5356 -0.5144  0.2683
  939MOL0     C23858  12.312   1.987   9.232  0.3069  0.3658 -0.1911
  939MOL0     C23859  12.453   1.933   9.255 -0.0685 -0.6132 -0.2827
  939MOL0    Cl23860  12.517   1.885   9.101  0.2717  0.4380  0.2456
  939MOL0     C23861  11.564   2.538   9.385 -0.5771  0.0134  0.7861
  939MOL0     C23862  11.453   2.623   9.394 -0.4169 -0.3799  1.2179
  939MOL0     O23863  11.187   2.691   9.500  0.1085 -0.6383  0.6574
  939MOL0     C23864  11.054   2.947   9.512  0.5475  0.8252  0.6219
  939MOL0     C23865  10.965   3.047   9.502 -0.8355  0.1231 -1.1885
  939MOL0     N23866  10.676   3.396   9.148  1.4146 -0.3532  0.9279
  939MOL0     N23867  10.592   3.422   9.053 -0.0924  0.0300 -0.6124
  939MOL0     C23868   9.914   4.372   8.985  0.4931 -0.3535 -0.2770
  939MOL0     C23869   9.818   4.421   9.070 -0.8107 -0.4877  0.1955
  939MOL0     C23870   9.450   4.519   9.303  0.4030  0.3518 -0.6953
  939MOL0     C23871   9.436   4.641   9.371  0.0109 -0.0920  0.3896
  939MOL0     C23872   9.326   4.666   9.444 -0.2334  1.0152  0.7062
  939MOL0     C23873   9.225   4.579   9.450 -0.0276  0.8948 -0.1103
  939MOL0     O23874   9.115   4.630   9.513 -0.1290  0.6704 -0.2405
  939MOL0     C23875   9.082   4.564   9.641  0.6921  0.0979 -0.0669
  939MOL0     C23876   9.159   4.622   9.758 -0.7283  0.0399  0.0086
  939MOL0     C23877   9.124   4.775   9.774 -0.0447  0.1020 -1.1710
  939MOL0     C23878   8.970   4.809   9.770  0.2059  0.6952  0.0700
  939MOL0     C23879   8.903   4.736   9.870 -0.0405  1.3978  0.0550
  939MOL0     C23880   8.853   4.670   9.963  0.1387 -0.1200  0.3371
  939MOL0     C23881   9.231   4.453   9.382  0.6684  0.2260 -0.1655
  939MOL0     C23882   9.346   4.429   9.308  0.2455  0.1991 -0.9044
  939MOL0     H23883   9.616   4.141   9.078 -1.8756  1.7113 -1.2228
  939MOL0     H23884   9.812   4.047   8.954 -0.1953  0.5338 -0.6362
  939MOL0     H23885  10.171   4.285   8.945  0.6790  0.7003 -2.2552
  939MOL0     H23886  10.106   4.325   8.780  0.8157 -1.5327 -2.0076
  939MOL0     H23887  10.297   4.231   8.735 -3.5345  2.8938 -0.6394
  939MOL0     H23888  10.177   4.100   8.703  1.4257  0.8421 -1.7745
  939MOL0     H23889  10.258   3.974   8.900 -0.7666 -0.6781 -0.2405
  939MOL0     H23890  10.369   4.107   8.950  0.3583 -0.9479  0.7096
  939MOL0     H23891  10.402   3.920   8.712  3.3163 -1.2472 -0.7760
  939MOL0     H23892  10.468   4.083   8.710 -1.2943 -0.4743 -0.8022
  939MOL0     H23893  10.592   4.041   8.923 -1.0703 -0.2328  1.2903
  939MOL0     H23894  10.634   3.930   8.785 -0.5374 -2.1024 -0.2412
  939MOL0     H23895  10.444   3.869   9.014 -0.1590 -0.7927 -1.0503
  939MOL0     H23896  10.600   3.808   9.026 -1.3128 -2.9852 -0.4640
  939MOL0     H23897  10.428   3.723   8.786  2.4119  0.3056 -1.4988
  939MOL0     H23898  10.583   3.659   8.830 -0.1248 -0.7394  1.1031
  939MOL0     H23899  10.386   3.527   8.915  4.0060 -0.0293 -2.0149
  939MOL0     H23900  10.352   3.655   9.031 -2.1123  0.6287 -2.2862
  939MOL0     H23901  10.570   3.707   9.215 -1.1115  0.0551  0.6503
  939MOL0     H23902  10.761   3.637   9.365 -2.7817  1.6098 -2.3350
  939MOL0     H23903  10.847   3.492   9.337  0.5721 -0.1554  0.5273
  939MOL0     H23904  10.575   3.533   9.497  0.0557  0.0162  1.8744
  939MOL0     H23905  10.736   3.480   9.563 -0.3805 -1.9078  0.1516
  939MOL0     H23906  10.549   3.316   9.551 -0.4950 -0.7025 -1.1646
  939MOL0     H23907  10.587   3.286   9.383  0.1759  0.6201 -0.4465
  939MOL0     H23908  10.688   3.140   9.550  0.1418  0.8684  2.0808
  939MOL0     H23909  10.810   3.255   9.591  1.1727 -2.8168 -0.0764
  939MOL0     H23910  10.936   3.087   9.173  1.1672  0.8121 -0.1048
  939MOL0     H23911  11.086   2.906   9.171 -1.3582 -0.8955 -0.2935
  939MOL0     H23912  11.395   2.658   9.062  2.6445 -0.5719 -1.6443
  939MOL0     H23913  11.568   2.511   9.037 -2.1013  0.5175 -0.4481
  939MOL0     H23914  11.790   2.435   9.076 -0.6561 -1.1648 -3.1774
  939MOL0     H23915  11.671   2.314   9.081  0.6876  0.0587  1.4030
  939MOL0     H23916  11.891   2.218   9.056  4.9359  1.7487  0.3800
  939MOL0     H23917  11.844   2.166   9.220  2.2193 -1.7468 -1.6209
  939MOL0     H23918  11.970   2.360   9.321 -0.7886  1.0948 -0.6385
  939MOL0     H23919  12.040   2.395   9.171  0.8039 -1.9657 -1.1648
  939MOL0     H23920  12.158   2.221   9.335  0.8948 -1.2058 -0.1379
  939MOL0     H23921  12.043   2.105   9.293 -0.8287 -0.9688 -0.7471
  939MOL0     H23922  12.184   2.287   9.087 -7.0045 -0.2990  0.8952
  939MOL0     H23923  12.137   2.124   9.054  1.0586  0.2327 -0.8687
  939MOL0     H23924  12.371   2.197   9.234 -1.9562  1.1790  1.5978
  939MOL0     H23925  12.377   2.108   9.078  1.8836  0.7218  0.1970
  939MOL0     H23926  12.258   1.996   9.326  1.6076 -0.1834  0.6364
  939MOL0     H23927  12.257   1.920   9.165  0.8590  1.5613 -1.9256
  939MOL0     H23928  12.450   1.846   9.322  0.3783  1.6927  3.0183
  939MOL0     H23929  12.511   2.012   9.304  1.2653  0.3793 -3.2340
  939MOL0     H23930  11.612   2.513   9.478  2.4265  2.8961  0.1979
  939MOL0     H23931  11.444   2.680   9.486  0.9811 -0.3977  1.3799
  939MOL0     H23932  11.091   2.910   9.607  2.8025  1.8956  0.2291
  939MOL0     H23933  10.925   3.075   9.598 -1.1181 -0.3581 -1.1637
  939MOL0     H23934   9.975   4.448   8.937  1.2356 -0.3133  0.7003
  939MOL0     H23935   9.828   4.524   9.104  0.3823  0.3421 -2.3828
  939MOL0     H23936   9.515   4.715   9.368 -1.0433  1.0282 -0.4256
  939MOL0     H23937   9.320   4.762   9.495  2.2737  2.1586 -0.9772
  939MOL0     H23938   9.110   4.459   9.634  2.2220  0.3829  1.2443
  939MOL0     H23939   8.977   4.578   9.666  1.0932  0.9150  1.2948
  939MOL0     H23940   9.130   4.577   9.853  1.5491 -0.0959  0.6994
  939MOL0     H23941   9.268   4.615   9.756 -0.6669  0.5103  1.1153
  939MOL0     H23942   9.176   4.822   9.690  0.2720 -0.7858 -1.4833
  939MOL0     H23943   9.168   4.813   9.867  2.9664 -4.2775 -0.5291
  939MOL0     H23944   8.946   4.913   9.793  0.9642  0.7106  0.8674
  939MOL0     H23945   8.925   4.791   9.672 -3.7992 -0.3400  1.8840
  939MOL0     H23946   8.797   4.618  10.038 -1.7907  0.8745 -0.3726
  939MOL0     H23947   9.144   4.388   9.382 -0.5950  1.7998 -2.7296
  939MOL0     H23948   9.351   4.334   9.256 -1.1145 -0.2151 -0.3316
  940MOL0     O23949   1.255   2.079   0.430 -0.4404  1.0870 -0.3870
  940MOL0     C23950   1.289   2.149   0.334  0.2567 -0.1254  0.7695
  940MOL0     O23951   1.379   2.125   0.241 -0.3580 -0.3273  0.7035
  940MOL0     C23952   1.453   2.006   0.235 -0.7545  0.1058 -0.4206
  940MOL0     C23953   1.398   1.884   0.194  0.1146  0.2133 -0.1808
  940MOL0     C23954   1.478   1.767   0.203 -0.1821 -0.6962 -0.6135
  940MOL0     C23955   1.605   1.771   0.255 -0.0045  0.5099 -0.6121
  940MOL0     O23956   1.689   1.660   0.255  0.2809  0.1437 -0.2681
  940MOL0     C23957   1.653   1.549   0.339 -0.4680  0.2952 -0.6796
  940MOL0     C23958   1.735   1.549   0.464  0.9507  0.1256 -0.6471
  940MOL0     C23959   1.690   1.435   0.560  0.2147 -0.0008  0.0173
  940MOL0     C23960   1.770   1.430   0.695 -0.6869 -0.9875 -0.4674
  940MOL0     C23961   1.691   1.354   0.807  0.7974 -0.9424 -0.0437
  940MOL0     C23962   1.776   1.299   0.918  0.9648  0.7476  0.0139
  940MOL0     C23963   1.695   1.182   0.981  0.7612 -0.0704  1.0846
  940MOL0     C23964   1.618   1.213   1.097  0.2248  0.2659 -0.0099
  940MOL0     N23965   1.519   1.098   1.128 -1.0433 -0.4537  0.5563
  940MOL0     C23966   1.418   1.050   1.047  0.2359  0.4264 -0.6769
  940MOL0     C23967   1.344   0.974   1.127 -0.8279  0.3492 -0.2416
  940MOL0     C23968   1.218   0.929   1.069 -0.0613 -0.1787  0.0943
  940MOL0     C23969   1.104   1.021   1.134 -0.2421 -0.2620  0.4213
  940MOL0     C23970   1.082   1.143   1.046 -0.2483 -0.1135  0.4756
  940MOL0     C23971   0.955   1.216   1.085 -0.8541  0.4537  0.4068
  940MOL0     O23972   0.956   1.264   1.223 -0.1483  0.3829  0.2900
  940MOL0     C23973   0.845   1.333   1.260 -0.1001  0.4838 -1.2317
  940MOL0     C23974   0.853   1.380   1.391  0.8611 -0.5329 -0.1596
  940MOL0     C23975   0.740   1.452   1.445  0.1691 -0.6319 -0.8373
  940MOL0     C23976   0.638   1.493   1.362 -0.4681  0.5287 -0.6376
  940MOL0     C23977   0.516   1.548   1.430  0.7514  0.2989  0.7854
  940MOL0     O23978   0.396   1.550   1.363  0.3370 -0.5559 -0.1606
  940MOL0     C23979   0.310   1.646   1.413 -0.5141 -0.3640 -0.3125
  940MOL0     C23980   0.340   1.781   1.383 -0.6522 -0.0527  0.0909
  940MOL0     C23981   0.248   1.880   1.433  0.2467 -0.0135 -0.5228
  940MOL0     C23982   0.130   1.843   1.511  0.4069  0.2549  0.1757
  940MOL0     O23983   0.048   1.954   1.537 -0.2545  0.1127  0.2264
  940MOL0     C23984  -0.085   1.927   1.533 -0.5251  0.2060 -0.1102
  940MOL0     C23985  -0.132   2.023   1.420  0.1014 -0.2794 -0.1417
  940MOL0     C23986  -0.098   1.973   1.273 -0.1164  0.2289  0.0172
  940MOL0     C23987  -0.156   1.839   1.239  0.1591 -0.1280  0.2330
  940MOL0     C23988  -0.156   1.808   1.088  0.9040 -0.6809  0.0553
  940MOL0     C23989  -0.018   1.781   1.029 -0.0829 -0.2031 -0.2636
  940MOL0     C23990   0.047   1.664   1.108 -0.8887 -0.3355 -0.3541
  940MOL0     C23991   0.182   1.634   1.048  0.4180 -0.1671  0.4149
  940MOL0    Cl23992   0.239   1.471   1.065 -0.2606 -0.3682 -0.0269
  940MOL0     C23993   0.113   1.708   1.544 -0.1476 -0.1734 -0.0807
  940MOL0     C23994   0.196   1.606   1.489  0.5288 -0.6830 -1.2028
  940MOL0     O23995   0.531   1.604   1.538  0.6420  0.0716  0.2059
  940MOL0     C23996   0.634   1.450   1.230 -0.4078 -0.9317  0.0019
  940MOL0     C23997   0.738   1.370   1.182  0.7905  0.3162 -0.0350
  940MOL0     N23998   1.402   0.958   1.247 -0.2168  0.1300 -0.9665
  940MOL0     N23999   1.505   1.039   1.247 -0.0413 -0.1800 -0.3861
  940MOL0     C24000   1.656   1.891   0.294 -1.0287 -1.1116 -0.3523
  940MOL0     C24001   1.588   2.006   0.280  0.1564 -0.2601 -0.8926
  940MOL0     C24002   1.212   2.276   0.324 -0.6956  0.7535  0.4445
  940MOL0     C24003   1.125   2.313   0.432 -0.7302 -0.2879  0.2787
  940MOL0     C24004   1.047   2.424   0.426  0.2182  0.7719 -0.4128
  940MOL0     C24005   1.051   2.503   0.303  0.2809 -0.2623 -1.0670
  940MOL0     O24006   0.993   2.621   0.277 -0.1799 -0.0332  0.4116
  940MOL0     C24007   0.881   2.652   0.356  1.1264  0.3488  0.8503
  940MOL0     C24008   0.832   2.780   0.300 -0.9286  0.0138 -0.2796
  940MOL0     C24009   0.856   2.809   0.146 -0.6939  0.5108  0.2382
  940MOL0     C24010   0.803   2.950   0.102  0.1674  0.2203  0.2345
  940MOL0     C24011   0.822   2.962  -0.046  0.2518 -0.5889  0.6032
  940MOL0     C24012   0.833   2.962  -0.160 -0.9152  0.9224  0.4829
  940MOL0     C24013   1.138   2.464   0.203 -0.0385  0.0760 -0.2988
  940MOL0     C24014   1.217   2.350   0.212  1.1521  0.3019  0.9139
  940MOL0     H24015   1.302   1.872   0.145  1.0246 -2.7324 -1.4717
  940MOL0     H24016   1.450   1.668   0.168 -1.9363 -0.1768 -0.7256
  940MOL0     H24017   1.676   1.458   0.282 -2.7863  0.5054 -2.1018
  940MOL0     H24018   1.546   1.537   0.360 -0.2250 -0.1029  0.3548
  940MOL0     H24019   1.719   1.643   0.517 -1.7711  0.4896 -1.9676
  940MOL0     H24020   1.840   1.560   0.434  0.8112  3.0270 -0.2957
  940MOL0     H24021   1.702   1.337   0.514 -2.7241 -0.0935 -0.7744
  940MOL0     H24022   1.583   1.449   0.581 -0.0431  1.0819 -1.8069
  940MOL0     H24023   1.873   1.398   0.676 -0.0560  1.4873 -1.6469
  940MOL0     H24024   1.776   1.534   0.729 -3.6147 -1.0787  0.6044
  940MOL0     H24025   1.657   1.269   0.748  0.0569 -2.3079  2.2398
  940MOL0     H24026   1.597   1.401   0.836  0.3256 -2.3889  0.8280
  940MOL0     H24027   1.780   1.383   0.988  2.2159  2.0715 -1.5522
  940MOL0     H24028   1.874   1.261   0.888  1.5044  1.7374  0.4849
  940MOL0     H24029   1.627   1.139   0.907  2.3062  0.6612 -0.8993
  940MOL0     H24030   1.769   1.102   0.993  1.6180 -0.2104 -3.2494
  940MOL0     H24031   1.552   1.298   1.078 -1.8259 -1.4573 -1.1415
  940MOL0     H24032   1.685   1.241   1.179  1.0997  2.1925 -1.3298
  940MOL0     H24033   1.400   1.067   0.942 -0.0775 -0.5886 -0.8056
  940MOL0     H24034   1.219   0.827   1.109  3.0831 -1.4855 -2.8318
  940MOL0     H24035   1.210   0.912   0.962 -1.4861 -0.3086  0.2035
  940MOL0     H24036   1.125   1.052   1.236 -1.3321 -0.9431  0.8621
  940MOL0     H24037   1.012   0.962   1.137  0.5934 -1.7282 -0.7943
  940MOL0     H24038   1.168   1.209   1.060  0.1668 -0.3927 -0.6909
  940MOL0     H24039   1.071   1.110   0.943 -1.5671 -2.0005  1.1645
  940MOL0     H24040   0.870   1.155   1.054  1.2920 -1.4630 -2.1876
  940MOL0     H24041   0.948   1.304   1.020 -2.0526  0.1515  0.0907
  940MOL0     H24042   0.930   1.340   1.456 -0.2639 -0.7577  1.0848
  940MOL0     H24043   0.739   1.468   1.552 -2.1293  0.9954 -1.0243
  940MOL0     H24044   0.409   1.816   1.306 -1.7733  1.1972 -0.3947
  940MOL0     H24045   0.253   1.987   1.412 -0.8940  0.0569 -0.5389
  940MOL0     H24046  -0.131   1.964   1.625  0.9194 -0.3608  0.8744
  940MOL0     H24047  -0.117   1.823   1.523  0.4258 -0.1308  0.2459
  940MOL0     H24048  -0.087   2.123   1.427  3.4626 -1.6125 -0.8395
  940MOL0     H24049  -0.240   2.034   1.427  0.0457 -1.8215  2.2803
  940MOL0     H24050   0.010   1.961   1.262 -0.0443 -0.7190  1.4457
  940MOL0     H24051  -0.140   2.053   1.211 -0.2852 -1.0353 -1.5721
  940MOL0     H24052  -0.129   1.754   1.303 -2.5347 -1.0396  0.3085
  940MOL0     H24053  -0.263   1.845   1.262 -0.6328  1.1837 -3.2270
  940MOL0     H24054  -0.194   1.894   1.032 -1.9099  0.3888  3.3119
  940MOL0     H24055  -0.215   1.720   1.061  4.4071 -3.5528  1.0074
  940MOL0     H24056   0.046   1.868   1.045  0.3309 -0.6818  0.7559
  940MOL0     H24057  -0.024   1.770   0.921  1.5730  1.8291 -0.6287
  940MOL0     H24058   0.063   1.687   1.214  2.2512 -0.4881 -0.7075
  940MOL0     H24059  -0.010   1.572   1.098 -1.5514 -0.0830  0.8757
  940MOL0     H24060   0.257   1.700   1.093  0.4543  1.2182 -1.5423
  940MOL0     H24061   0.183   1.665   0.943 -0.6054  0.3680  0.5503
  940MOL0     H24062   0.037   1.682   1.618  0.1119  0.7731  0.5412
  940MOL0     H24063   0.196   1.499   1.509  1.9009 -0.8096 -1.7891
  940MOL0     H24064   0.548   1.464   1.166  2.5392 -0.6582 -4.3290
  940MOL0     H24065   0.730   1.347   1.076  1.9987 -3.5256  0.5585
  940MOL0     H24066   1.757   1.894   0.333  0.0277 -2.3663 -2.7775
  940MOL0     H24067   1.619   2.098   0.327 -4.3674  0.0237  2.1224
  940MOL0     H24068   1.115   2.252   0.521 -3.2445  0.5016  0.5968
  940MOL0     H24069   0.988   2.452   0.513 -0.5324 -2.0169  0.0563
  940MOL0     H24070   0.890   2.658   0.464 -1.4019  0.6524  1.1135
  940MOL0     H24071   0.802   2.578   0.337  0.9923  0.0941  2.3353
  940MOL0     H24072   0.723   2.783   0.312 -0.9092 -0.3503  0.0064
  940MOL0     H24073   0.877   2.869   0.345 -1.1277 -0.4390  0.8449
  940MOL0     H24074   0.789   2.739   0.095 -0.6523  0.7480 -0.1440
  940MOL0     H24075   0.961   2.795   0.118 -1.0980 -0.5446 -0.8332
  940MOL0     H24076   0.696   2.957   0.123  0.0269 -0.6741 -0.1546
  940MOL0     H24077   0.857   3.023   0.163  1.3290 -0.6105  0.2351
  940MOL0     H24078   0.856   2.994  -0.260  0.0422  4.2244  1.6489
  940MOL0     H24079   1.154   2.532   0.120  5.0488  0.8087  0.9529
  940MOL0     H24080   1.262   2.305   0.123 -1.5287 -2.8186  0.9513
  941MOL0     O24081  10.220   0.119   1.730  0.0653  0.0628 -0.5743
  941MOL0     C24082  10.188   0.014   1.803  0.5793 -0.2134 -0.2634
  941MOL0     O24083  10.121   0.016   1.917  0.6955 -0.0570 -0.5458
  941MOL0     C24084  10.085   0.131   1.984  0.6864 -0.5615 -0.0390
  941MOL0     C24085  10.133   0.173   2.113 -0.5244 -0.2636  0.1235
  941MOL0     C24086  10.077   0.287   2.176  0.5114 -0.2834 -0.5263
  941MOL0     C24087   9.988   0.368   2.110  1.0834 -0.3815  0.1291
  941MOL0     O24088   9.931   0.478   2.168 -0.5921  0.0075  0.5095
  941MOL0     C24089  10.013   0.592   2.154  0.2046  1.5859  0.0751
  941MOL0     C24090   9.962   0.674   2.045  0.2906 -0.6714  0.6193
  941MOL0     C24091   9.814   0.694   2.074 -0.0443  0.3574  0.2704
  941MOL0     C24092   9.771   0.823   2.001 -0.0732  0.7114 -0.0795
  941MOL0     C24093   9.617   0.865   2.039  0.4552 -0.1946 -0.0074
  941MOL0     C24094   9.582   1.001   1.980  0.7005  0.3007 -0.2851
  941MOL0     C24095   9.578   0.998   1.831  0.8721 -0.7302  0.4387
  941MOL0     C24096   9.538   1.139   1.771  0.2211  0.7100  1.8112
  941MOL0     N24097   9.406   1.194   1.798  0.3266  0.3142 -1.4699
  941MOL0     C24098   9.390   1.300   1.881  0.3259  0.9221  1.3484
  941MOL0     C24099   9.260   1.341   1.857  0.8026  0.5054  0.6593
  941MOL0     C24100   9.179   1.458   1.917 -0.3042 -0.5692 -0.0836
  941MOL0     C24101   9.157   1.425   2.066  0.0287 -0.1953 -0.2865
  941MOL0     C24102   9.119   1.552   2.140 -0.5955  0.2145  0.1400
  941MOL0     C24103   8.969   1.582   2.121 -1.4923  0.0575  0.4919
  941MOL0     O24104   8.929   1.693   2.203 -0.1398 -0.5897  0.2342
  941MOL0     C24105   8.797   1.725   2.218  0.1037 -0.1914  0.5902
  941MOL0     C24106   8.701   1.700   2.123 -0.2964 -0.8885  0.6196
  941MOL0     C24107   8.564   1.753   2.141  0.4114  0.0223  0.0241
  941MOL0     C24108   8.533   1.830   2.249 -0.4608  0.1467  0.9779
  941MOL0     C24109   8.390   1.873   2.274 -0.7092  0.5669  0.0664
  941MOL0     O24110   8.362   1.934   2.392 -0.1757 -0.4932 -0.1490
  941MOL0     C24111   8.230   1.934   2.427  0.6640  0.0866  0.3278
  941MOL0     C24112   8.146   2.044   2.388  0.7688 -0.1037  0.4973
  941MOL0     C24113   8.000   2.028   2.387 -0.9095 -1.0570  0.7331
  941MOL0     C24114   7.947   1.910   2.447  0.6774 -0.1449  0.3961
  941MOL0     O24115   7.809   1.899   2.462 -0.1415 -0.7799 -0.0637
  941MOL0     C24116   7.752   1.770   2.457 -0.3858  0.6845  0.7087
  941MOL0     C24117   7.602   1.772   2.475  0.0665 -0.1705  0.3765
  941MOL0     C24118   7.535   1.832   2.347  0.4769  0.0732 -1.0166
  941MOL0     C24119   7.387   1.787   2.360  0.3939 -0.0679 -1.0974
  941MOL0     C24120   7.312   1.860   2.255 -0.8020  0.4206 -0.6731
  941MOL0     C24121   7.171   1.816   2.260  1.0724 -0.1301  0.7225
  941MOL0     C24122   7.075   1.940   2.284 -0.0443  0.0220  0.7803
  941MOL0     C24123   6.926   1.908   2.282 -0.0369  0.1992  0.4447
  941MOL0    Cl24124   6.900   1.783   2.402  0.0299 -0.3269 -0.0515
  941MOL0     C24125   8.030   1.805   2.478 -0.3394  0.2503 -0.1629
  941MOL0     C24126   8.173   1.811   2.466  0.9709 -0.2617  0.7793
  941MOL0     O24127   8.309   1.856   2.193 -0.0504 -0.9087  0.0099
  941MOL0     C24128   8.635   1.855   2.340  0.3271 -0.7932  0.1876
  941MOL0     C24129   8.763   1.808   2.327 -0.1934  0.9490  0.9094
  941MOL0     N24130   9.202   1.258   1.756  0.1513 -0.2224  0.1386
  941MOL0     N24131   9.295   1.178   1.725 -0.2784 -0.0295  1.6391
  941MOL0     C24132   9.946   0.329   1.983 -0.3511  0.0889  0.1947
  941MOL0     C24133  10.005   0.218   1.914  0.4752 -0.4821 -0.1861
  941MOL0     C24134  10.208  -0.117   1.748 -0.5726 -0.3059  0.6005
  941MOL0     C24135  10.271  -0.127   1.624  0.1331  0.0714  0.1123
  941MOL0     C24136  10.303  -0.250   1.568 -0.8634  0.6282  0.7251
  941MOL0     C24137  10.264  -0.370   1.623  0.0351  0.0972 -1.4910
  941MOL0     O24138  10.308  -0.484   1.564 -0.2188  0.4623  0.0569
  941MOL0     C24139  10.442  -0.511   1.608  0.4098 -0.5009  0.0401
  941MOL0     C24140  10.458  -0.656   1.577 -0.5567  0.1459 -0.5888
  941MOL0     C24141  10.431  -0.710   1.447 -0.5257  0.1150  0.1048
  941MOL0     C24142  10.514  -0.652   1.333  0.1413 -1.1093 -0.5578
  941MOL0     C24143  10.485  -0.735   1.220  0.5156  0.4690 -0.5623
  941MOL0     C24144  10.459  -0.812   1.138 -0.5696  0.0652 -1.0975
  941MOL0     C24145  10.186  -0.358   1.735  0.4364  0.2798  0.5910
  941MOL0     C24146  10.163  -0.235   1.797 -0.5876  0.5593 -0.9514
  941MOL0     H24147  10.197   0.101   2.164  1.8098 -0.0597 -2.2862
  941MOL0     H24148  10.103   0.315   2.278 -1.6392  1.8400 -0.4649
  941MOL0     H24149  10.120   0.569   2.152 -0.2348 -1.1394  2.2951
  941MOL0     H24150   9.995   0.646   2.247 -0.9286  1.6390 -0.1651
  941MOL0     H24151   9.980   0.623   1.950 -3.2038  0.1016 -0.6466
  941MOL0     H24152  10.013   0.771   2.051 -0.9520  0.1114 -0.5844
  941MOL0     H24153   9.791   0.700   2.181 -1.7348  1.0645 -0.1160
  941MOL0     H24154   9.750   0.610   2.048 -2.1520  1.5449  1.4145
  941MOL0     H24155   9.836   0.906   2.033  2.1885  0.1859 -2.8244
  941MOL0     H24156   9.793   0.817   1.894  6.0067  2.4792  0.6516
  941MOL0     H24157   9.618   0.868   2.149 -2.0945 -2.3014  0.1741
  941MOL0     H24158   9.546   0.788   2.008 -0.6472  1.3169 -1.3829
  941MOL0     H24159   9.651   1.079   2.016  1.2614 -0.1903 -0.2889
  941MOL0     H24160   9.476   1.014   2.006  0.0045 -0.3877 -2.5228
  941MOL0     H24161   9.670   0.958   1.787  0.5002  0.4583 -1.5251
  941MOL0     H24162   9.501   0.929   1.797  0.5778  0.5161 -1.5461
  941MOL0     H24163   9.546   1.137   1.662 -2.0457  3.6288  1.4728
  941MOL0     H24164   9.617   1.211   1.797  1.5963  0.4277 -1.1630
  941MOL0     H24165   9.460   1.358   1.941  0.6412  2.2763 -0.2623
  941MOL0     H24166   9.085   1.476   1.863 -0.9769 -0.0186  1.2486
  941MOL0     H24167   9.249   1.541   1.914  1.0489 -1.6326  0.8332
  941MOL0     H24168   9.248   1.392   2.116 -0.0962 -0.4182 -0.2064
  941MOL0     H24169   9.081   1.348   2.080 -0.9969  0.8620  0.1490
  941MOL0     H24170   9.144   1.544   2.246 -0.4919  0.8802  0.1708
  941MOL0     H24171   9.174   1.640   2.107  0.1417  0.8283  2.7519
  941MOL0     H24172   8.904   1.498   2.149 -1.3666 -1.5970 -3.5050
  941MOL0     H24173   8.949   1.592   2.014 -1.1869 -1.4681  0.2723
  941MOL0     H24174   8.726   1.636   2.039  4.6285 -0.3338  1.4070
  941MOL0     H24175   8.492   1.728   2.063  0.1175 -0.5110  0.4614
  941MOL0     H24176   8.182   2.141   2.357 -0.4918  0.3950  0.5292
  941MOL0     H24177   7.940   2.114   2.360  0.4061 -0.9335 -2.1390
  941MOL0     H24178   7.782   1.714   2.546 -1.0574 -1.4568 -0.3277
  941MOL0     H24179   7.785   1.718   2.366  1.9498  3.3995 -0.1357
  941MOL0     H24180   7.576   1.840   2.556  1.8474 -1.3226  1.9841
  941MOL0     H24181   7.565   1.669   2.484 -1.3861 -0.2123 -3.7064
  941MOL0     H24182   7.584   1.785   2.261  4.2749  0.5654  0.6843
  941MOL0     H24183   7.535   1.941   2.346  2.0762  0.1610  1.5145
  941MOL0     H24184   7.384   1.680   2.340  2.7542 -0.5290  0.5847
  941MOL0     H24185   7.346   1.805   2.460  3.4512  1.6589 -0.0105
  941MOL0     H24186   7.354   1.836   2.156  1.1953 -2.4551  0.7430
  941MOL0     H24187   7.331   1.968   2.266  0.9143 -0.0231  1.3163
  941MOL0     H24188   7.149   1.750   2.345  1.9143 -0.7759  0.4522
  941MOL0     H24189   7.141   1.762   2.170 -0.2549  1.1013  0.4097
  941MOL0     H24190   7.111   1.992   2.374  3.7043 -4.3157  2.2018
  941MOL0     H24191   7.088   2.003   2.196  0.3984 -1.8012 -0.5149
  941MOL0     H24192   6.894   1.872   2.184  0.1578 -0.0142  0.4593
  941MOL0     H24193   6.875   2.002   2.305 -0.8688  0.4608 -2.1511
  941MOL0     H24194   7.989   1.707   2.503  2.8894 -0.8120  1.5904
  941MOL0     H24195   8.254   1.739   2.476 -1.2248 -3.0576 -0.2116
  941MOL0     H24196   8.610   1.916   2.426  0.0629 -0.9206  0.2023
  941MOL0     H24197   8.837   1.843   2.399 -0.6072  4.9008 -0.3149
  941MOL0     H24198   9.865   0.375   1.927 -0.0410 -1.4913 -1.6545
  941MOL0     H24199   9.966   0.205   1.814  1.1917  2.7881 -1.0019
  941MOL0     H24200  10.302  -0.035   1.575  0.3688 -0.2135 -0.2891
  941MOL0     H24201  10.354  -0.261   1.472 -0.6491  0.5659  0.8456
  941MOL0     H24202  10.465  -0.492   1.714  2.3252  2.1159 -0.7384
  941MOL0     H24203  10.511  -0.444   1.556 -0.3286  0.7706  0.6448
  941MOL0     H24204  10.553  -0.697   1.612 -0.1157  2.2769  0.9211
  941MOL0     H24205  10.392  -0.707   1.647  2.5757  0.0042  2.5152
  941MOL0     H24206  10.329  -0.681   1.422  0.1232 -0.7078 -4.1506
  941MOL0     H24207  10.435  -0.819   1.458 -1.1910  0.0649 -0.0813
  941MOL0     H24208  10.486  -0.547   1.316  2.2341 -0.5703 -1.0096
  941MOL0     H24209  10.620  -0.656   1.362  1.5676 -1.1849 -4.9926
  941MOL0     H24210  10.426  -0.873   1.056 -1.3177 -0.7137 -0.2304
  941MOL0     H24211  10.161  -0.455   1.778  0.5131 -0.9668 -1.9892
  941MOL0     H24212  10.115  -0.243   1.894 -2.4652 -0.5640 -1.9110
  942MOL0     O24213   0.976   6.379   3.647  0.4313  0.3682  0.3320
  942MOL0     C24214   1.014   6.398   3.534 -0.9180 -0.3476 -0.2153
  942MOL0     O24215   1.104   6.315   3.466  0.0532  0.6547  0.0726
  942MOL0     C24216   1.180   6.230   3.537  0.0214  0.3667  0.5934
  942MOL0     C24217   1.210   6.114   3.486  0.0805  0.5266 -0.2366
  942MOL0     C24218   1.293   6.021   3.553 -0.5248  0.4054 -0.5934
  942MOL0     C24219   1.338   6.046   3.684 -0.3022  0.2123 -0.4988
  942MOL0     O24220   1.409   5.947   3.750 -0.6436 -0.3250  0.2354
  942MOL0     C24221   1.457   5.969   3.884  0.9789  0.7471 -0.4428
  942MOL0     C24222   1.538   5.842   3.920 -0.1188  0.0250  0.6837
  942MOL0     C24223   1.575   5.829   4.065  0.0597  0.1735  0.2332
  942MOL0     C24224   1.694   5.915   4.118  1.1996 -0.9303 -0.5244
  942MOL0     C24225   1.698   5.903   4.269 -0.8541  0.0236  0.5787
  942MOL0     C24226   1.798   6.002   4.335 -0.8507 -0.8222  0.6200
  942MOL0     C24227   1.806   5.991   4.492 -0.4867  0.5650  0.1153
  942MOL0     C24228   1.673   6.006   4.568 -0.5080  0.3032 -0.1881
  942MOL0     N24229   1.609   6.134   4.542 -0.7185 -1.2241 -0.0404
  942MOL0     C24230   1.655   6.264   4.563 -0.8533 -0.1158 -0.1383
  942MOL0     C24231   1.564   6.341   4.508 -0.3795  0.6011  0.6048
  942MOL0     C24232   1.557   6.494   4.497  0.5039 -0.3848  0.0832
  942MOL0     C24233   1.534   6.565   4.635  0.8087  0.5167  0.8227
  942MOL0     C24234   1.560   6.711   4.600  0.0447 -0.1646 -0.9418
  942MOL0     C24235   1.536   6.790   4.727  0.1826 -0.3469 -0.2251
  942MOL0     O24236   1.627   6.756   4.826  0.0149 -0.1426 -0.0186
  942MOL0     C24237   1.589   6.750   4.961  0.0357  0.2392 -0.4637
  942MOL0     C24238   1.460   6.734   5.019  1.2206  1.0145 -0.4093
  942MOL0     C24239   1.431   6.723   5.157  0.5202  0.8454  0.5652
  942MOL0     C24240   1.547   6.737   5.245 -0.1611  0.1025 -0.1427
  942MOL0     C24241   1.522   6.753   5.392  0.0221 -0.3830  0.1821
  942MOL0     O24242   1.393   6.746   5.432  0.0915 -0.5252  0.0415
  942MOL0     C24243   1.371   6.772   5.569  0.1626  0.0961  0.3543
  942MOL0     C24244   1.294   6.890   5.606  0.5635  0.7847 -0.2214
  942MOL0     C24245   1.242   6.911   5.738  0.5633 -0.1274 -0.3965
  942MOL0     C24246   1.276   6.810   5.844 -0.6388 -0.0651 -0.2324
  942MOL0     O24247   1.231   6.811   5.973 -0.0571 -0.2380 -0.0835
  942MOL0     C24248   1.180   6.931   6.034 -0.4126  0.4061 -0.0349
  942MOL0     C24249   1.152   6.916   6.179  0.6506  0.8685 -0.8117
  942MOL0     C24250   1.058   7.022   6.236 -0.6756  0.1757 -0.1416
  942MOL0     C24251   1.062   7.029   6.387  0.3293 -0.2679  0.4786
  942MOL0     C24252   0.963   7.121   6.453  0.0726 -0.4711  0.0858
  942MOL0     C24253   0.961   7.122   6.612 -0.1607  0.2410  0.0742
  942MOL0     C24254   0.846   7.209   6.656 -0.3804 -0.7361  0.3386
  942MOL0     C24255   0.848   7.244   6.807  0.7128  0.0244  0.1986
  942MOL0    Cl24256   0.960   7.377   6.826  0.0257 -0.4380  0.1401
  942MOL0     C24257   1.357   6.701   5.806  0.6413  0.2378 -0.2944
  942MOL0     C24258   1.394   6.678   5.674 -0.2331  1.1471  0.3754
  942MOL0     O24259   1.615   6.774   5.471  0.2951 -0.1914  0.2724
  942MOL0     C24260   1.676   6.752   5.185 -0.2765  0.6075 -0.9664
  942MOL0     C24261   1.701   6.750   5.050  0.2374 -0.5687  0.8073
  942MOL0     N24262   1.480   6.253   4.436  0.3438 -0.4250  1.0896
  942MOL0     N24263   1.506   6.133   4.468  0.4853 -0.1767 -0.0834
  942MOL0     C24264   1.323   6.172   3.732  0.6759 -0.4709 -0.7542
  942MOL0     C24265   1.249   6.268   3.664 -0.3220 -0.7533  0.0618
  942MOL0     C24266   0.945   6.508   3.458 -0.1540  0.6406  0.1531
  942MOL0     C24267   0.998   6.544   3.337 -0.9956 -0.3127 -1.0266
  942MOL0     C24268   0.925   6.626   3.251 -0.7143 -0.4650 -0.2162
  942MOL0     C24269   0.803   6.672   3.287  0.5130 -0.1712  0.1891
  942MOL0     O24270   0.725   6.728   3.182 -0.9542  0.3208 -0.3939
  942MOL0     C24271   0.593   6.784   3.205 -0.7334  0.3502 -0.6070
  942MOL0     C24272   0.485   6.679   3.189 -0.1416 -0.4695  0.2067
  942MOL0     C24273   0.485   6.629   3.036 -0.1061 -0.8138 -0.0621
  942MOL0     C24274   0.350   6.591   2.982 -0.1843  0.0163  0.0638
  942MOL0     C24275   0.254   6.700   2.975  0.0380  0.4042  0.4601
  942MOL0     C24276   0.171   6.790   2.956 -0.5236  0.5777 -1.1374
  942MOL0     C24277   0.747   6.634   3.415 -0.0252  0.2893 -0.5910
  942MOL0     C24278   0.820   6.549   3.494 -0.7035  0.1548  1.0174
  942MOL0     H24279   1.181   6.088   3.384  2.7244 -0.7828 -0.7446
  942MOL0     H24280   1.323   5.927   3.507 -1.4331 -0.7486  1.0573
  942MOL0     H24281   1.375   5.972   3.956  0.6231 -1.7619 -0.6505
  942MOL0     H24282   1.510   6.063   3.899  2.8173 -0.3298  0.1552
  942MOL0     H24283   1.629   5.835   3.859 -0.5376 -4.6369  0.2649
  942MOL0     H24284   1.479   5.752   3.899  1.1724 -0.1130 -3.1751
  942MOL0     H24285   1.602   5.724   4.082 -0.9963 -0.0760  0.4977
  942MOL0     H24286   1.481   5.858   4.113 -0.4601  0.3540 -0.8727
  942MOL0     H24287   1.790   5.887   4.074  1.6418 -3.5578  1.8633
  942MOL0     H24288   1.681   6.018   4.083 -1.0772 -0.3792  1.6254
  942MOL0     H24289   1.737   5.804   4.293  0.5193  0.1302 -1.0425
  942MOL0     H24290   1.597   5.922   4.308 -0.0267  1.0235  2.3539
  942MOL0     H24291   1.762   6.104   4.320 -0.6611 -0.3824  2.8545
  942MOL0     H24292   1.898   5.984   4.294  0.3307 -2.8114  3.9750
  942MOL0     H24293   1.847   5.891   4.507 -2.3457  0.0078  1.9381
  942MOL0     H24294   1.873   6.063   4.540 -0.0769 -0.6768  1.5021
  942MOL0     H24295   1.704   5.989   4.672 -1.5135 -0.3613  0.0103
  942MOL0     H24296   1.607   5.926   4.534 -2.5714  1.7460  0.2568
  942MOL0     H24297   1.739   6.284   4.628 -0.8392 -1.5852  0.3343
  942MOL0     H24298   1.483   6.518   4.420  2.2147 -1.2803 -1.9228
  942MOL0     H24299   1.651   6.527   4.453 -0.4195  1.5607 -0.5743
  942MOL0     H24300   1.609   6.515   4.697 -0.0787 -0.0962  1.4264
  942MOL0     H24301   1.432   6.544   4.669  0.6538 -3.2606 -1.4467
  942MOL0     H24302   1.667   6.709   4.575  0.0893 -1.5416 -0.6935
  942MOL0     H24303   1.499   6.749   4.518  0.1959  2.2981 -0.0292
  942MOL0     H24304   1.432   6.771   4.756 -1.2095  0.2577 -4.2463
  942MOL0     H24305   1.549   6.897   4.709  0.6449 -0.5553 -1.1873
  942MOL0     H24306   1.382   6.744   4.944  1.5136  0.6187 -0.7787
  942MOL0     H24307   1.330   6.701   5.192  1.3190 -1.8847  1.4008
  942MOL0     H24308   1.258   6.952   5.525 -1.1436 -1.7723 -1.5802
  942MOL0     H24309   1.181   6.996   5.767 -1.4270 -0.8927 -2.0689
  942MOL0     H24310   1.087   6.949   5.979 -0.7896 -0.1600  0.3977
  942MOL0     H24311   1.247   7.017   6.024 -3.2962  2.8908  0.3385
  942MOL0     H24312   1.245   6.908   6.236  1.0958 -3.7961 -1.7945
  942MOL0     H24313   1.096   6.825   6.199 -2.3901  2.8707  0.5952
  942MOL0     H24314   0.953   7.004   6.212 -1.7310  2.8814  1.8854
  942MOL0     H24315   1.094   7.118   6.198 -2.2720  1.4102  1.3063
  942MOL0     H24316   1.023   6.936   6.430 -1.9966 -0.2685 -1.4044
  942MOL0     H24317   1.167   7.044   6.415 -0.1187  2.5024  0.9938
  942MOL0     H24318   0.863   7.091   6.420  0.2390  0.1229 -1.0060
  942MOL0     H24319   0.987   7.223   6.423  0.5642 -0.5002  0.3663
  942MOL0     H24320   1.059   7.164   6.635  2.5123 -2.8831 -4.1917
  942MOL0     H24321   0.955   7.019   6.650  1.0560  0.4438  0.8821
  942MOL0     H24322   0.835   7.306   6.607  0.8644 -0.4149  0.6612
  942MOL0     H24323   0.750   7.159   6.638 -1.0520  1.5053 -3.2951
  942MOL0     H24324   0.894   7.162   6.864  2.8175  1.0194  0.0331
  942MOL0     H24325   0.747   7.262   6.845  0.5570 -0.2279 -0.0854
  942MOL0     H24326   1.384   6.620   5.873  2.7994  0.9822 -0.1918
  942MOL0     H24327   1.433   6.583   5.641 -1.0088  0.6837  0.7577
  942MOL0     H24328   1.762   6.772   5.248  0.4673  1.7173 -2.2589
  942MOL0     H24329   1.798   6.770   5.004 -0.4389 -4.1023 -2.6156
  942MOL0     H24330   1.372   6.208   3.821  0.8370 -0.0259 -1.0209
  942MOL0     H24331   1.227   6.368   3.701 -1.9096  0.6220 -3.9311
  942MOL0     H24332   1.092   6.498   3.308 -0.3270 -0.7468  1.5443
  942MOL0     H24333   0.972   6.659   3.159  5.1423 -0.2361  2.4059
  942MOL0     H24334   0.565   6.859   3.130 -1.4744  0.6570 -0.0481
  942MOL0     H24335   0.586   6.832   3.303  0.9040  1.5719 -1.0436
  942MOL0     H24336   0.506   6.588   3.245  1.0755 -0.6148 -0.4460
  942MOL0     H24337   0.397   6.734   3.224  3.0735  2.9256  3.8840
  942MOL0     H24338   0.549   6.540   3.026  0.2085 -0.5218 -0.6978
  942MOL0     H24339   0.526   6.707   2.971  1.5927 -2.5795 -1.2261
  942MOL0     H24340   0.371   6.561   2.879 -2.3930 -0.1888 -0.3784
  942MOL0     H24341   0.300   6.516   3.044 -1.2252  1.8438  1.5391
  942MOL0     H24342   0.099   6.870   2.962  0.6591  1.6111 -0.4160
  942MOL0     H24343   0.650   6.668   3.449  0.0976  0.5424 -0.4924
  942MOL0     H24344   0.783   6.503   3.585 -1.1559 -2.4916 -0.4083
  943MOL0     O24345   3.836   1.229   2.861 -0.2114  0.3904 -0.3446
  943MOL0     C24346   3.950   1.206   2.828 -0.2596 -0.3649  0.5737
  943MOL0     O24347   4.054   1.191   2.917 -0.1486  0.1255 -0.5020
  943MOL0     C24348   4.027   1.194   3.051  0.1675  0.1415 -0.2029
  943MOL0     C24349   3.972   1.079   3.112 -0.2078 -0.3520  0.2415
  943MOL0     C24350   3.934   1.078   3.244  0.1465 -0.5293  0.4742
  943MOL0     C24351   3.939   1.190   3.318 -0.2974  0.1309 -0.1845
  943MOL0     O24352   3.909   1.176   3.455 -0.9824  0.1914  0.4570
  943MOL0     C24353   3.851   1.295   3.521 -0.0354  0.2362  0.2430
  943MOL0     C24354   3.966   1.360   3.607  0.7445  0.3915  0.0450
  943MOL0     C24355   3.915   1.436   3.733  0.2756  0.7199 -0.4173
  943MOL0     C24356   3.846   1.339   3.834 -0.0876  0.3282 -0.8134
  943MOL0     C24357   3.821   1.405   3.973  0.2736  0.4227 -0.3176
  943MOL0     C24358   3.931   1.362   4.074 -0.4673 -0.3717  0.0736
  943MOL0     C24359   3.930   1.452   4.201 -0.1670 -0.0190  0.9684
  943MOL0     C24360   3.799   1.471   4.294 -0.2595 -0.6721 -0.4659
  943MOL0     N24361   3.744   1.341   4.351 -0.1597 -0.5391 -0.3816
  943MOL0     C24362   3.769   1.311   4.483  0.6237 -0.6554  0.9081
  943MOL0     C24363   3.697   1.199   4.502  0.4562  0.2962  0.2933
  943MOL0     C24364   3.673   1.119   4.627 -0.3209  0.0455 -0.9037
  943MOL0     C24365   3.561   1.178   4.718  0.2956  0.2804  0.9859
  943MOL0     C24366   3.540   1.088   4.838 -0.7132 -0.4502  0.5099
  943MOL0     C24367   3.468   1.140   4.958 -0.6732 -0.2879  1.0005
  943MOL0     O24368   3.364   1.238   4.923 -0.4859  0.8138 -0.2465
  943MOL0     C24369   3.236   1.204   4.902 -0.3349  0.6399 -0.2180
  943MOL0     C24370   3.166   1.155   5.013  0.3023  0.3983  0.1845
  943MOL0     C24371   3.033   1.104   4.995 -0.7563 -0.1083 -0.2977
  943MOL0     C24372   2.973   1.124   4.863  0.7876 -0.1765 -0.4790
  943MOL0     C24373   2.834   1.093   4.853  0.9738  0.5227  0.8678
  943MOL0     O24374   2.772   1.099   4.728  0.0663  0.6910  0.4074
  943MOL0     C24375   2.641   1.051   4.725  0.8268 -0.0662  0.0513
  943MOL0     C24376   2.540   1.145   4.699 -0.2553 -0.8508  0.0059
  943MOL0     C24377   2.411   1.103   4.689  0.6869  0.4908 -0.7440
  943MOL0     C24378   2.380   0.973   4.684  0.2622 -0.4712  0.7992
  943MOL0     O24379   2.249   0.936   4.659 -0.6623 -0.1575  0.0395
  943MOL0     C24380   2.198   0.799   4.658 -0.1845 -0.3583  0.2409
  943MOL0     C24381   2.046   0.794   4.619 -0.2931 -0.5369  0.3263
  943MOL0     C24382   1.957   0.842   4.730 -1.2906  0.0596 -0.3205
  943MOL0     C24383   1.812   0.856   4.696 -0.1954 -0.0488  0.1804
  943MOL0     C24384   1.753   0.948   4.795  0.1017 -1.5496  0.2547
  943MOL0     C24385   1.751   0.893   4.942  0.1362 -1.0650 -0.3351
  943MOL0     C24386   1.653   0.963   5.036  0.4710  0.6311  0.0054
  943MOL0     C24387   1.660   0.897   5.175 -0.1585 -0.2301 -0.5794
  943MOL0    Cl24388   1.811   0.954   5.250  0.1050 -0.4485 -0.2605
  943MOL0     C24389   2.484   0.880   4.683 -0.0418  0.2311  0.3559
  943MOL0     C24390   2.612   0.915   4.715 -0.4623 -0.7052 -0.1780
  943MOL0     O24391   2.783   1.041   4.954  0.0076  0.5849 -0.3026
  943MOL0     C24392   3.045   1.169   4.760 -1.6854  0.1920  0.2291
  943MOL0     C24393   3.171   1.204   4.776 -0.1477  0.2496 -0.4960
  943MOL0     N24394   3.646   1.157   4.377  0.0248 -0.0508 -1.0822
  943MOL0     N24395   3.668   1.249   4.292 -0.5750 -0.1224 -0.0224
  943MOL0     C24396   3.985   1.308   3.254  0.5029 -0.8199 -0.6004
  943MOL0     C24397   4.036   1.310   3.119  0.1182 -0.0609  0.3036
  943MOL0     C24398   3.984   1.205   2.682  0.0841  0.4597  0.3007
  943MOL0     C24399   4.115   1.171   2.640 -0.3940 -0.3818  1.1057
  943MOL0     C24400   4.144   1.196   2.501 -0.9756  0.0876  0.5812
  943MOL0     C24401   4.043   1.224   2.402 -0.8819 -0.5868 -0.9611
  943MOL0     O24402   4.062   1.257   2.274 -0.0616 -0.0712 -0.1481
  943MOL0     C24403   4.187   1.297   2.236 -0.7444 -0.2749  0.2711
  943MOL0     C24404   4.260   1.195   2.147 -0.0472  0.3876 -0.1626
  943MOL0     C24405   4.193   1.199   2.018 -0.2895  0.3171  0.1729
  943MOL0     C24406   4.249   1.092   1.932  0.3481  1.3784  0.2800
  943MOL0     C24407   4.379   1.142   1.878 -0.5422  0.1172 -0.6073
  943MOL0     C24408   4.474   1.191   1.823  0.5356  0.6595  0.3531
  943MOL0     C24409   3.912   1.246   2.443 -0.7543  0.5283 -0.2701
  943MOL0     C24410   3.884   1.233   2.588 -0.1988 -0.4627 -0.2153
  943MOL0     H24411   3.973   0.982   3.063 -0.1061 -0.2598  0.0584
  943MOL0     H24412   3.904   0.986   3.292 -2.4490  0.8647  1.7711
  943MOL0     H24413   3.772   1.270   3.592 -3.1937 -0.6657 -3.2870
  943MOL0     H24414   3.807   1.369   3.453  2.9114  1.7762 -0.1628
  943MOL0     H24415   4.028   1.428   3.548  0.6409  0.7462  0.3365
  943MOL0     H24416   4.024   1.277   3.648  0.9129  0.9619  1.0187
  943MOL0     H24417   3.847   1.512   3.694 -0.4890  0.3961  0.2495
  943MOL0     H24418   3.994   1.495   3.781  1.8609  0.3623 -2.4227
  943MOL0     H24419   3.745   1.305   3.810 -0.6773 -0.0768  1.9288
  943MOL0     H24420   3.911   1.251   3.836  3.5880  2.7611 -0.9682
  943MOL0     H24421   3.721   1.380   4.008  0.6425 -2.8973 -1.2772
  943MOL0     H24422   3.838   1.513   3.964 -1.1475  0.5315 -2.5294
  943MOL0     H24423   4.029   1.360   4.025 -0.2667 -2.3302  0.5019
  943MOL0     H24424   3.911   1.258   4.097  2.1231 -0.7318  1.0694
  943MOL0     H24425   4.006   1.421   4.273  0.8657  0.0746 -0.0566
  943MOL0     H24426   3.954   1.551   4.160 -0.0754 -0.5426 -0.3012
  943MOL0     H24427   3.721   1.528   4.243  0.5429 -1.2903 -2.5108
  943MOL0     H24428   3.818   1.545   4.372 -1.1347  0.2308 -1.0844
  943MOL0     H24429   3.820   1.373   4.555 -0.8492  2.6574 -0.6553
  943MOL0     H24430   3.760   1.114   4.693  0.5105  1.3177 -1.8417
  943MOL0     H24431   3.643   1.016   4.606 -0.7961 -0.5229  2.0757
  943MOL0     H24432   3.469   1.186   4.660  0.4414 -3.6249 -0.0715
  943MOL0     H24433   3.592   1.277   4.752  1.8841 -0.1836  0.9517
  943MOL0     H24434   3.475   1.006   4.807 -0.6360 -1.2489  2.3405
  943MOL0     H24435   3.636   1.050   4.875  0.1056  1.0289  0.0307
  943MOL0     H24436   3.534   1.191   5.029  1.8927  0.8576 -1.9734
  943MOL0     H24437   3.425   1.052   5.008 -1.6924 -1.5245 -1.8358
  943MOL0     H24438   3.212   1.153   5.111  2.9694  0.2570 -0.9823
  943MOL0     H24439   2.965   1.078   5.075  0.6700 -0.1074  0.9624
  943MOL0     H24440   2.574   1.248   4.711 -0.2657 -1.0625  2.1340
  943MOL0     H24441   2.332   1.178   4.680 -1.4287 -1.6605 -1.0502
  943MOL0     H24442   2.213   0.765   4.761 -1.3469  2.6040  1.4962
  943MOL0     H24443   2.251   0.740   4.582 -0.3330 -0.0234 -0.1261
  943MOL0     H24444   2.007   0.693   4.600  1.7451 -1.3438  0.0872
  943MOL0     H24445   2.048   0.856   4.529  0.8930  0.6668  1.1446
  943MOL0     H24446   1.998   0.938   4.763 -1.6771 -0.1151  0.7045
  943MOL0     H24447   1.965   0.785   4.823  3.0420  4.1673  2.2807
  943MOL0     H24448   1.804   0.899   4.595 -3.2327  1.5659  0.9861
  943MOL0     H24449   1.751   0.766   4.687 -2.1158  1.1820  0.3026
  943MOL0     H24450   1.648   0.958   4.766  0.6581 -0.8579 -1.6676
  943MOL0     H24451   1.797   1.048   4.782  1.5116 -1.6386  3.4629
  943MOL0     H24452   1.851   0.914   4.983  0.1229 -0.7159 -0.4791
  943MOL0     H24453   1.728   0.786   4.942 -1.5652 -0.7163 -0.4107
  943MOL0     H24454   1.672   1.071   5.031  0.3381  0.6078 -1.6061
  943MOL0     H24455   1.560   0.942   4.982  1.0094 -1.5792 -0.1739
  943MOL0     H24456   1.664   0.787   5.177  2.7889 -0.1967 -0.0459
  943MOL0     H24457   1.573   0.924   5.236  0.7428 -0.8070  1.0289
  943MOL0     H24458   2.463   0.778   4.654  1.5559  0.1878 -0.7496
  943MOL0     H24459   2.696   0.846   4.713  2.6300  2.6277  1.8480
  943MOL0     H24460   3.004   1.177   4.660  1.0156 -0.5473 -1.0322
  943MOL0     H24461   3.229   1.236   4.690  1.4450  3.7221  1.6705
  943MOL0     H24462   3.986   1.405   3.302 -0.3997 -1.4030  0.6509
  943MOL0     H24463   4.075   1.401   3.074 -1.0826 -0.1562 -0.9990
  943MOL0     H24464   4.192   1.155   2.715 -0.4863 -1.7984  0.9186
  943MOL0     H24465   4.246   1.174   2.472 -1.9190 -2.0292 -1.4177
  943MOL0     H24466   4.264   1.318   2.310  2.2400  2.1809 -3.1617
  943MOL0     H24467   4.174   1.387   2.176 -2.1634 -0.5847  0.0900
  943MOL0     H24468   4.367   1.212   2.139  0.0998  0.7013  1.9567
  943MOL0     H24469   4.258   1.098   2.198  2.7491 -0.3149 -1.1952
  943MOL0     H24470   4.196   1.294   1.964 -1.3666 -0.0740 -0.6156
  943MOL0     H24471   4.085   1.183   2.018 -0.1301 -0.9197 -0.0656
  943MOL0     H24472   4.262   0.997   1.985 -0.4432 -0.6073 -2.7623
  943MOL0     H24473   4.192   1.082   1.839  1.9475 -4.5880 -0.4900
  943MOL0     H24474   4.555   1.224   1.761  3.4155 -0.6908  3.1089
  943MOL0     H24475   3.832   1.279   2.377 -1.7696  2.4499  1.7731
  943MOL0     H24476   3.782   1.260   2.611  0.3954  1.5901  0.2693
  944MOL0     O24477   6.491   4.401  10.455 -0.2884 -0.7895 -0.6469
  944MOL0     C24478   6.459   4.367  10.341  0.3371  0.2332 -0.9463
  944MOL0     O24479   6.441   4.450  10.240 -0.0597 -0.0612 -0.4191
  944MOL0     C24480   6.442   4.585  10.274  0.6449 -1.6637 -0.2813
  944MOL0     C24481   6.544   4.679  10.244  0.2386  0.3228  0.9269
  944MOL0     C24482   6.512   4.811  10.245  0.6351 -0.2263  0.4285
  944MOL0     C24483   6.390   4.862  10.301 -0.1255  1.2133  0.0849
  944MOL0     O24484   6.365   4.994  10.316  0.1005  0.8085 -0.7045
  944MOL0     C24485   6.401   5.052  10.445 -0.7570 -0.6739  0.7870
  944MOL0     C24486   6.381   5.206  10.441  0.3889  0.3507  0.7940
  944MOL0     C24487   6.463   5.284  10.333 -0.4390 -0.5152 -0.8851
  944MOL0     C24488   6.608   5.280  10.382  0.9285 -0.5408 -0.4031
  944MOL0     C24489   6.694   5.354  10.278 -0.4298 -0.2496  0.3061
  944MOL0     C24490   6.841   5.378  10.314  0.1432 -0.2960  0.6334
  944MOL0     C24491   6.912   5.451  10.201 -0.8877 -0.8788  0.7544
  944MOL0     C24492   7.062   5.417  10.196  0.2871 -0.2598 -0.2637
  944MOL0     N24493   7.140   5.501  10.097  0.0832 -0.2021 -0.0791
  944MOL0     C24494   7.254   5.569  10.129 -0.4891  0.2422 -0.2551
  944MOL0     C24495   7.310   5.601  10.010 -0.3935 -1.6828  0.0017
  944MOL0     C24496   7.461   5.636   9.993 -0.4929  0.6156 -0.4071
  944MOL0     C24497   7.543   5.506   9.975 -0.2926  0.0697 -0.1893
  944MOL0     C24498   7.574   5.424  10.097  0.7064  0.3401 -0.1613
  944MOL0     C24499   7.633   5.497  10.223  0.0931  0.1043  0.4355
  944MOL0     O24500   7.741   5.588  10.179  0.0694 -0.4655  0.2222
  944MOL0     C24501   7.874   5.552  10.157 -1.2304 -0.3069 -0.2594
  944MOL0     C24502   7.952   5.592  10.048  0.1724 -0.0878 -0.4363
  944MOL0     C24503   8.080   5.548  10.030 -0.8430  0.0201  0.6781
  944MOL0     C24504   8.149   5.475  10.133 -1.1344  0.2910 -0.3895
  944MOL0     C24505   8.287   5.431  10.134  0.0385  0.1400  0.4023
  944MOL0     O24506   8.357   5.501  10.030  0.6961 -0.2075 -0.4254
  944MOL0     C24507   8.481   5.464   9.979 -0.4153 -0.5040  0.1244
  944MOL0     C24508   8.542   5.574   9.906  0.3374  0.3035  0.1722
  944MOL0     C24509   8.669   5.553   9.851 -0.5255 -0.2564  0.0233
  944MOL0     C24510   8.733   5.426   9.860  0.0400  0.0181 -0.4320
  944MOL0     O24511   8.857   5.430   9.809  0.3587  0.0890  0.3622
  944MOL0     C24512   8.931   5.312   9.782 -0.2754 -0.4888 -0.5713
  944MOL0     C24513   9.041   5.337   9.680  0.2512 -0.6910 -0.0574
  944MOL0     C24514   9.116   5.211   9.635 -0.1126  0.6334  0.2118
  944MOL0     C24515   9.192   5.233   9.508  0.2470  0.4776  0.0022
  944MOL0     C24516   9.329   5.293   9.531  0.6649  0.4537  0.5567
  944MOL0     C24517   9.399   5.302   9.393 -0.0129 -0.5009  0.7028
  944MOL0     C24518   9.549   5.315   9.405  0.3180 -0.5456  1.3318
  944MOL0     C24519   9.609   5.376   9.272 -1.3851 -0.3537  0.4094
  944MOL0    Cl24520   9.784   5.379   9.316 -0.2955 -0.1155 -0.3368
  944MOL0     C24521   8.665   5.316   9.924  0.4587 -1.1223  0.1804
  944MOL0     C24522   8.545   5.347   9.995  0.0647 -0.2577 -1.1666
  944MOL0     O24523   8.339   5.348  10.214  0.7902  0.3346 -0.1188
  944MOL0     C24524   8.072   5.435  10.243  1.1087 -0.4756 -0.1346
  944MOL0     C24525   7.937   5.479  10.260  0.3919  0.0249 -0.6701
  944MOL0     N24526   7.232   5.555   9.912 -0.4701 -0.1515  0.6019
  944MOL0     N24527   7.125   5.501   9.965  0.1261 -0.1640  0.4535
  944MOL0     C24528   6.300   4.769  10.339 -0.3931  0.1620 -0.3470
  944MOL0     C24529   6.319   4.634  10.313 -0.1161 -0.3373  0.6041
  944MOL0     C24530   6.454   4.223  10.322  0.8414  0.4573 -0.7107
  944MOL0     C24531   6.452   4.165  10.197  0.7583 -0.4081  0.6124
  944MOL0     C24532   6.428   4.031  10.173 -0.2025 -0.4715  0.6206
  944MOL0     C24533   6.395   3.945  10.284 -0.4420 -0.2216 -0.1702
  944MOL0     O24534   6.367   3.816  10.253  0.3929 -0.0002 -0.3961
  944MOL0     C24535   6.311   3.737  10.363 -0.0736  1.1852 -0.6310
  944MOL0     C24536   6.320   3.585  10.337 -0.3366  0.1471 -0.0127
  944MOL0     C24537   6.456   3.522  10.328  0.1883 -0.3477 -0.8832
  944MOL0     C24538   6.557   3.595  10.251 -0.1614  0.1421 -0.9037
  944MOL0     C24539   6.666   3.504  10.217  0.8460  0.3005  0.3721
  944MOL0     C24540   6.755   3.435  10.194  0.8206 -0.4166 -0.0546
  944MOL0     C24541   6.404   4.008  10.414 -0.1557 -0.0800  0.2791
  944MOL0     C24542   6.426   4.138  10.430 -0.4586 -0.0526 -0.1477
  944MOL0     H24543   6.635   4.626  10.216 -1.0724 -1.1830 -0.6846
  944MOL0     H24544   6.588   4.879  10.209  1.6558 -2.3123 -1.5523
  944MOL0     H24545   6.505   5.031  10.470  0.1750  1.8246 -0.7124
  944MOL0     H24546   6.335   5.009  10.521 -3.2706  0.6239 -0.5461
  944MOL0     H24547   6.407   5.244  10.541  0.3430 -0.8682  1.2893
  944MOL0     H24548   6.276   5.219  10.416  0.8814 -0.1069 -1.7606
  944MOL0     H24549   6.423   5.385  10.316  0.1900 -0.4128 -1.8027
  944MOL0     H24550   6.466   5.232  10.237  1.5999 -0.2080 -1.0344
  944MOL0     H24551   6.621   5.334  10.477  3.7788 -0.2179 -0.8923
  944MOL0     H24552   6.647   5.178  10.391  2.0333  0.0371  2.4239
  944MOL0     H24553   6.656   5.457  10.272 -0.0558 -0.1232 -0.0095
  944MOL0     H24554   6.688   5.299  10.184  0.6881 -3.3574  1.9003
  944MOL0     H24555   6.897   5.285  10.330  0.0176 -0.7781 -1.4614
  944MOL0     H24556   6.862   5.431  10.408  1.4963  0.2596  0.0551
  944MOL0     H24557   6.862   5.431  10.106 -1.3949 -1.2551  1.0987
  944MOL0     H24558   6.912   5.559  10.223  2.3414 -0.6354  0.0531
  944MOL0     H24559   7.092   5.313  10.182  2.3799  0.2903 -0.2459
  944MOL0     H24560   7.095   5.431  10.299 -0.9661 -2.4248  0.4764
  944MOL0     H24561   7.301   5.585  10.226  0.6153  0.4193 -0.8069
  944MOL0     H24562   7.510   5.689  10.075  1.1650 -1.8433  0.3074
  944MOL0     H24563   7.482   5.694   9.903 -0.1323  0.5920 -0.3387
  944MOL0     H24564   7.626   5.511   9.904 -1.5606  0.4699 -1.7146
  944MOL0     H24565   7.478   5.446   9.911  1.9190 -0.3872 -2.1439
  944MOL0     H24566   7.484   5.372  10.132  0.3967  1.9411  1.6054
  944MOL0     H24567   7.641   5.348  10.057  0.9530 -1.0467  2.5958
  944MOL0     H24568   7.674   5.415  10.282  0.7348  0.3632  0.3633
  944MOL0     H24569   7.557   5.548  10.284  0.4724  1.1602  0.0586
  944MOL0     H24570   7.909   5.658   9.972 -1.7218  0.5554  1.1203
  944MOL0     H24571   8.133   5.572   9.938 -3.9479  1.3371 -0.9237
  944MOL0     H24572   8.499   5.673   9.897  2.2149  1.4376  2.4323
  944MOL0     H24573   8.710   5.631   9.787 -1.1788 -0.7343 -0.9983
  944MOL0     H24574   8.869   5.236   9.732  0.9084  0.6185 -3.9857
  944MOL0     H24575   8.979   5.271   9.871  1.6671  0.6491 -1.0516
  944MOL0     H24576   9.120   5.393   9.731 -0.2925 -0.5709  0.6684
  944MOL0     H24577   8.996   5.395   9.599 -1.6574 -0.8038  0.8830
  944MOL0     H24578   9.042   5.131   9.629 -0.3713  0.9389 -0.8197
  944MOL0     H24579   9.176   5.172   9.718  0.6930 -3.6186 -2.0973
  944MOL0     H24580   9.211   5.130   9.476  0.0293  0.5203 -0.2674
  944MOL0     H24581   9.130   5.286   9.435 -0.2118 -2.5819 -2.0153
  944MOL0     H24582   9.379   5.229   9.605 -1.2990 -1.3658  0.3860
  944MOL0     H24583   9.315   5.390   9.580 -0.7222  1.0949 -1.0228
  944MOL0     H24584   9.362   5.390   9.340  0.9079 -0.4343  0.1483
  944MOL0     H24585   9.385   5.207   9.341  0.4314 -0.9093  1.3007
  944MOL0     H24586   9.579   5.384   9.484 -0.6229  1.0167  0.3721
  944MOL0     H24587   9.577   5.213   9.432 -0.6880 -0.7333  1.7212
  944MOL0     H24588   9.588   5.482   9.257  0.0833 -0.2176 -0.9742
  944MOL0     H24589   9.580   5.319   9.183 -3.6939 -1.1798  1.5974
  944MOL0     H24590   8.706   5.216   9.917  2.1157 -0.4552 -0.1032
  944MOL0     H24591   8.498   5.280  10.067  0.1051  0.9573  0.0207
  944MOL0     H24592   8.121   5.368  10.312  2.3675  0.4063 -0.1429
  944MOL0     H24593   7.881   5.452  10.349  0.2523 -0.0265 -0.7729
  944MOL0     H24594   6.209   4.800  10.389 -0.1523 -2.2166  1.8009
  944MOL0     H24595   6.230   4.572  10.322 -0.1413 -0.0000  3.3108
  944MOL0     H24596   6.477   4.223  10.109  3.7630  0.7373  2.0933
  944MOL0     H24597   6.411   4.005  10.068 -0.3184 -2.0756  1.0088
  944MOL0     H24598   6.205   3.763  10.372 -0.6668 -0.7552 -1.5021
  944MOL0     H24599   6.361   3.761  10.457 -0.8722 -0.3633  0.2298
  944MOL0     H24600   6.263   3.526  10.410  1.9010  0.7663  2.3692
  944MOL0     H24601   6.269   3.569  10.241 -2.7092  4.0127  0.3852
  944MOL0     H24602   6.437   3.420  10.292  3.3965 -1.4439  0.1814
  944MOL0     H24603   6.502   3.512  10.427 -1.7869 -0.5962  0.0767
  944MOL0     H24604   6.501   3.626  10.162  2.2781  4.8987 -1.1064
  944MOL0     H24605   6.589   3.678  10.315  2.2156 -1.6872  0.4169
  944MOL0     H24606   6.842   3.375  10.174  0.2513 -1.4336  0.4072
  944MOL0     H24607   6.375   3.958  10.506 -0.7592  2.7041  1.7246
  944MOL0     H24608   6.429   4.185  10.527  0.6729  0.7672 -0.5595
  945MOL0     O24609   1.533   9.128   8.752  0.2093 -0.0515  0.0066
  945MOL0     C24610   1.543   9.114   8.879  0.2933 -0.1778  0.2348
  945MOL0     O24611   1.623   9.033   8.943 -0.5167  1.0310 -0.6887
  945MOL0     C24612   1.675   8.921   8.883  1.4918  0.4218  0.4939
  945MOL0     C24613   1.589   8.822   8.822 -0.6140 -0.9305  0.3405
  945MOL0     C24614   1.645   8.700   8.787  0.6518 -0.7180 -0.6745
  945MOL0     C24615   1.786   8.673   8.785  0.3185 -0.1372  0.0473
  945MOL0     O24616   1.855   8.558   8.756 -0.4864 -0.5586  0.2389
  945MOL0     C24617   1.798   8.485   8.650  0.2082  0.5309 -0.0988
  945MOL0     C24618   1.696   8.383   8.691 -0.4566 -0.4872  0.0832
  945MOL0     C24619   1.753   8.252   8.745 -0.1678  0.7350 -0.9587
  945MOL0     C24620   1.642   8.141   8.757 -0.5025  0.2697 -0.6261
  945MOL0     C24621   1.721   8.001   8.795 -0.3154 -0.7235  0.2671
  945MOL0     C24622   1.629   7.880   8.802  0.0006 -0.6756  0.4371
  945MOL0     C24623   1.542   7.868   8.931  0.1715  0.2609 -0.2346
  945MOL0     C24624   1.641   7.810   9.045  0.3233  0.2169 -0.8700
  945MOL0     N24625   1.567   7.773   9.172  0.3894 -0.5127 -0.7440
  945MOL0     C24626   1.489   7.859   9.246 -0.3383 -1.0870  0.1110
  945MOL0     C24627   1.431   7.781   9.338  0.3524  0.2491 -0.0286
  945MOL0     C24628   1.338   7.823   9.452 -0.0555  0.2132  0.1967
  945MOL0     C24629   1.183   7.815   9.425 -0.0165  0.2451  0.8883
  945MOL0     C24630   1.105   7.853   9.547 -0.3532  0.3686 -0.5865
  945MOL0     C24631   0.963   7.831   9.517 -1.1378  0.0349  0.0723
  945MOL0     O24632   0.912   7.706   9.570  0.6221  0.6538 -0.0791
  945MOL0     C24633   0.774   7.693   9.603 -0.3349 -0.4336 -0.0003
  945MOL0     C24634   0.733   7.566   9.636  0.0915  0.7906 -0.6875
  945MOL0     C24635   0.609   7.548   9.707 -0.4303  0.1022  0.5208
  945MOL0     C24636   0.527   7.658   9.725  0.1273  0.7090  0.2476
  945MOL0     C24637   0.403   7.637   9.804 -0.4339 -0.1795  0.5419
  945MOL0     O24638   0.376   7.511   9.820 -0.0080  0.3482  0.5085
  945MOL0     C24639   0.254   7.471   9.875 -0.6021  0.2653 -0.3699
  945MOL0     C24640   0.127   7.532   9.845  0.1698 -0.9246 -0.0033
  945MOL0     C24641   0.012   7.481   9.914 -0.1297 -0.1683 -0.1011
  945MOL0     C24642   0.014   7.377   9.997  0.1253  1.0119  0.3098
  945MOL0     O24643  -0.101   7.337  10.069  0.3426  0.5049  0.4792
  945MOL0     C24644  -0.080   7.320  10.205 -0.3903  0.7147  0.4474
  945MOL0     C24645  -0.187   7.408  10.271  0.6003 -0.6514  0.6421
  945MOL0     C24646  -0.330   7.368  10.246 -0.3620  0.1278  0.4297
  945MOL0     C24647  -0.426   7.438  10.337 -0.2363  0.1347 -0.0495
  945MOL0     C24648  -0.558   7.364  10.344  0.2378  0.6720 -0.8046
  945MOL0     C24649  -0.656   7.428  10.438  0.0208  0.7731 -0.3624
  945MOL0     C24650  -0.799   7.375  10.414 -0.5926 -0.1027 -0.1196
  945MOL0     C24651  -0.898   7.406  10.526 -0.1079 -0.4410  0.4815
  945MOL0    Cl24652  -1.046   7.310  10.507  0.1271 -0.0897 -0.1253
  945MOL0     C24653   0.134   7.305  10.013  0.2649 -0.1996 -0.0333
  945MOL0     C24654   0.249   7.351   9.953  0.6539  0.6347 -0.3093
  945MOL0     O24655   0.328   7.738   9.826  1.0394 -0.2282  0.1766
  945MOL0     C24656   0.550   7.776   9.654  0.4105  0.4498  1.1468
  945MOL0     C24657   0.682   7.793   9.605 -0.2845  0.2383 -0.2257
  945MOL0     N24658   1.478   7.654   9.322  0.3817 -0.0520  0.1821
  945MOL0     N24659   1.561   7.648   9.223 -0.6438 -0.6279 -0.3133
  945MOL0     C24660   1.856   8.776   8.839  0.7471 -0.3746  0.4120
  945MOL0     C24661   1.804   8.892   8.896  0.7423  0.5616 -0.4161
  945MOL0     C24662   1.456   9.186   8.970  0.1376 -0.4182  0.1216
  945MOL0     C24663   1.369   9.280   8.911  0.2070 -0.3025 -0.9304
  945MOL0     C24664   1.270   9.344   8.982  0.3588  0.6393 -0.1369
  945MOL0     C24665   1.273   9.331   9.125 -0.0514  1.1939  0.4861
  945MOL0     O24666   1.185   9.397   9.200  0.4045 -0.4053  0.3126
  945MOL0     C24667   1.048   9.381   9.160  0.3885 -0.1374 -0.0862
  945MOL0     C24668   1.004   9.232   9.165 -0.0979  0.2875 -0.1920
  945MOL0     C24669   0.851   9.218   9.166 -0.1755 -0.1876 -0.0635
  945MOL0     C24670   0.794   9.307   9.056  0.3090  0.3526 -0.6034
  945MOL0     C24671   0.642   9.281   9.062 -1.1110 -0.0612  1.0522
  945MOL0     C24672   0.526   9.255   9.071  0.2794  0.1522  0.4302
  945MOL0     C24673   1.350   9.232   9.185 -0.1994 -0.3763 -0.2429
  945MOL0     C24674   1.439   9.155   9.104 -1.1010 -0.1219  0.5853
  945MOL0     H24675   1.482   8.839   8.810 -0.3643  0.7517  0.3299
  945MOL0     H24676   1.573   8.624   8.758 -1.6481  1.4914 -1.0530
  945MOL0     H24677   1.869   8.431   8.587 -0.2762 -1.1437  0.7570
  945MOL0     H24678   1.743   8.549   8.579 -0.9193 -1.5813 -1.2201
  945MOL0     H24679   1.642   8.364   8.598 -1.0149 -0.1257  0.3291
  945MOL0     H24680   1.622   8.420   8.762  2.2094 -0.5882  3.1073
  945MOL0     H24681   1.791   8.260   8.847 -3.4322 -0.6444  0.5118
  945MOL0     H24682   1.823   8.220   8.667  1.9076 -0.4857  1.2686
  945MOL0     H24683   1.581   8.159   8.846 -1.9543 -2.5885 -0.9282
  945MOL0     H24684   1.582   8.126   8.667  1.4884 -1.5199 -1.7663
  945MOL0     H24685   1.778   8.019   8.887 -0.7072  0.8012  0.2390
  945MOL0     H24686   1.800   7.983   8.722 -1.5290  2.5408 -2.0501
  945MOL0     H24687   1.690   7.789   8.797  0.0831 -0.6068  0.1798
  945MOL0     H24688   1.567   7.885   8.712  0.7084 -0.4159 -0.0457
  945MOL0     H24689   1.501   7.964   8.964 -1.8922 -1.0747  1.3470
  945MOL0     H24690   1.456   7.802   8.915  1.2718 -1.1156 -0.6891
  945MOL0     H24691   1.714   7.885   9.077  1.1206  0.1203 -2.3382
  945MOL0     H24692   1.698   7.725   9.007  0.6653  0.7452 -1.5798
  945MOL0     H24693   1.474   7.966   9.240  0.9012 -0.9995 -2.4838
  945MOL0     H24694   1.361   7.929   9.463  2.8706 -0.2796 -0.3119
  945MOL0     H24695   1.359   7.781   9.551  0.1521  0.8029  0.4043
  945MOL0     H24696   1.158   7.714   9.393  1.6401  0.8265 -2.6838
  945MOL0     H24697   1.150   7.875   9.339 -0.6580 -1.1179  0.1459
  945MOL0     H24698   1.129   7.798   9.638  0.2478  1.7961  0.1600
  945MOL0     H24699   1.116   7.962   9.557 -1.8006  1.0193 -4.5260
  945MOL0     H24700   0.949   7.836   9.409 -1.5095  0.1743  0.1221
  945MOL0     H24701   0.911   7.917   9.562 -0.9362 -0.4697  1.3267
  945MOL0     H24702   0.794   7.476   9.631 -1.4963 -0.4040  0.1505
  945MOL0     H24703   0.592   7.453   9.756  0.6273 -0.1704  0.3852
  945MOL0     H24704   0.102   7.599   9.764 -1.5362 -2.0645 -0.4890
  945MOL0     H24705  -0.092   7.508   9.898  0.1820 -0.0534 -2.2149
  945MOL0     H24706   0.017   7.358  10.239 -0.8253  0.8290  1.6169
  945MOL0     H24707  -0.088   7.212  10.220  0.9726  0.8463  2.5206
  945MOL0     H24708  -0.173   7.510  10.236 -0.6447 -1.0659 -1.1524
  945MOL0     H24709  -0.165   7.414  10.378  1.6755  0.6819  0.3828
  945MOL0     H24710  -0.336   7.262  10.272 -1.2679 -1.7813 -5.8002
  945MOL0     H24711  -0.364   7.374  10.142 -2.4030 -3.4826  0.7142
  945MOL0     H24712  -0.381   7.439  10.437 -0.8149  0.4224  0.2150
  945MOL0     H24713  -0.442   7.538  10.294  0.6771 -0.2377 -1.3076
  945MOL0     H24714  -0.531   7.264  10.377  4.7366  2.1052  0.5069
  945MOL0     H24715  -0.602   7.363  10.244  0.2876 -3.0184 -0.9312
  945MOL0     H24716  -0.646   7.537  10.440  2.8714  0.6004 -1.3515
  945MOL0     H24717  -0.618   7.385  10.531 -0.1763 -1.5345 -1.3002
  945MOL0     H24718  -0.840   7.413  10.320  0.0476  0.9337  0.0048
  945MOL0     H24719  -0.787   7.266  10.417 -0.6738 -0.0849  1.7442
  945MOL0     H24720  -0.919   7.513  10.523  1.5899 -0.1059 -0.8818
  945MOL0     H24721  -0.847   7.387  10.621  0.7000  0.9317  0.3542
  945MOL0     H24722   0.133   7.208  10.062  0.2553  0.4310  1.2681
  945MOL0     H24723   0.340   7.294   9.971  0.1435 -0.9588 -2.3782
  945MOL0     H24724   0.468   7.847   9.650 -0.9690 -1.0869  0.8383
  945MOL0     H24725   0.702   7.881   9.545  1.3279 -2.0284 -3.2608
  945MOL0     H24726   1.962   8.753   8.847  1.6893  1.8452 -3.1234
  945MOL0     H24727   1.860   8.975   8.939 -2.2282  2.4998  0.0070
  945MOL0     H24728   1.375   9.306   8.806  3.4785 -1.4365 -1.1236
  945MOL0     H24729   1.223   9.424   8.926  1.0935 -0.4631 -2.4897
  945MOL0     H24730   1.030   9.410   9.056 -0.8382 -0.3265  0.0607
  945MOL0     H24731   0.996   9.432   9.241  2.0655  0.4125  0.6979
  945MOL0     H24732   1.052   9.192   9.075  0.7302 -0.6352  0.6337
  945MOL0     H24733   1.050   9.168   9.242  0.1122 -1.5302 -1.7413
  945MOL0     H24734   0.807   9.247   9.261 -0.2216  0.2522 -0.2154
  945MOL0     H24735   0.832   9.112   9.150  1.9919 -1.1888  3.1031
  945MOL0     H24736   0.801   9.413   9.082 -0.5052  0.3802 -0.4819
  945MOL0     H24737   0.828   9.276   8.957 -0.6060 -1.9817 -0.2539
  945MOL0     H24738   0.428   9.212   9.063 -0.2778  1.5834 -1.1084
  945MOL0     H24739   1.358   9.199   9.288  0.0796 -1.9640 -0.7420
  945MOL0     H24740   1.510   9.086   9.148 -3.0152 -0.9616  2.5236
  946MOL0     O24741  10.096   6.501   7.799  0.3024 -0.0242 -0.2434
  946MOL0     C24742  10.014   6.437   7.732 -0.1354  0.3478  0.9674
  946MOL0     O24743   9.878   6.449   7.742  0.2519  0.0077  0.4772
  946MOL0     C24744   9.833   6.569   7.789 -0.6258 -0.3990  0.4556
  946MOL0     C24745   9.746   6.572   7.887 -0.4667 -0.9050 -0.6270
  946MOL0     C24746   9.695   6.688   7.942 -0.0970 -0.0480 -0.7369
  946MOL0     C24747   9.725   6.815   7.886 -0.0983  0.1715  0.0427
  946MOL0     O24748   9.675   6.927   7.957  0.4453  0.2320 -0.6773
  946MOL0     C24749   9.709   7.064   7.924 -0.3816  0.3451 -0.3317
  946MOL0     C24750   9.722   7.135   8.048 -0.0747  0.4962 -0.1546
  946MOL0     C24751   9.840   7.092   8.135 -0.4164  0.8270 -0.1501
  946MOL0     C24752   9.871   7.174   8.261 -0.1282 -0.8923  0.3626
  946MOL0     C24753   9.857   7.324   8.240 -0.2806  0.1749 -0.3326
  946MOL0     C24754   9.908   7.427   8.352 -0.1642 -0.5920 -0.1826
  946MOL0     C24755   9.794   7.460   8.457 -0.2490  0.6833 -0.4437
  946MOL0     C24756   9.853   7.517   8.589  0.6049  0.7988  0.4096
  946MOL0     N24757   9.877   7.663   8.587  0.2410  0.3720  1.0136
  946MOL0     C24758   9.849   7.748   8.694  0.2161  0.9141 -0.2980
  946MOL0     C24759   9.920   7.855   8.663 -0.5121 -0.4101 -0.8611
  946MOL0     C24760   9.920   7.977   8.747 -0.0230 -0.0904  0.1691
  946MOL0     C24761   9.772   8.023   8.775  0.6675  0.0692 -0.8927
  946MOL0     C24762   9.755   8.149   8.860 -0.4714 -0.3106 -0.4040
  946MOL0     C24763   9.821   8.140   8.996 -0.9225  0.1208 -0.1929
  946MOL0     O24764   9.947   8.218   8.988  0.6522 -0.4625 -0.4799
  946MOL0     C24765  10.026   8.227   9.101 -0.1660  0.9391 -0.2020
  946MOL0     C24766  10.036   8.135   9.207 -0.0772 -0.0393  0.7149
  946MOL0     C24767  10.125   8.167   9.317 -0.6430 -0.5689 -1.0664
  946MOL0     C24768  10.212   8.277   9.317 -0.4464  0.4403  0.2515
  946MOL0     C24769  10.301   8.306   9.429  0.3444  0.3939  0.2568
  946MOL0     O24770  10.273   8.244   9.547  0.4705 -0.0282  0.5480
  946MOL0     C24771  10.346   8.290   9.658 -0.2439  0.3733  0.4322
  946MOL0     C24772  10.303   8.392   9.732 -0.3527 -0.2771 -0.4673
  946MOL0     C24773  10.368   8.428   9.852  0.0466  0.0317  0.1381
  946MOL0     C24774  10.481   8.360   9.893 -0.3348 -0.1067 -0.1876
  946MOL0     O24775  10.526   8.406  10.014 -0.1379 -0.1735 -1.1235
  946MOL0     C24776  10.650   8.358  10.073 -0.1525  0.0400 -0.8761
  946MOL0     C24777  10.641   8.217  10.139  0.3505 -1.0311 -0.0612
  946MOL0     C24778  10.760   8.198  10.244  0.9419 -0.1727 -1.1109
  946MOL0     C24779  10.749   8.056  10.305  0.4933  0.8731 -0.4146
  946MOL0     C24780  10.874   8.035  10.395  1.1354  0.1577  0.3020
  946MOL0     C24781  10.890   7.883  10.427  0.1216 -0.7670  1.0783
  946MOL0     C24782  11.013   7.865  10.507 -0.7286 -0.0685  0.4453
  946MOL0     C24783  11.144   7.854  10.435 -0.0672 -0.3888  0.3729
  946MOL0    Cl24784  11.256   7.727  10.505 -0.3785 -0.0304 -0.1502
  946MOL0     C24785  10.537   8.262   9.816 -0.3778  0.1362  0.3543
  946MOL0     C24786  10.466   8.229   9.702  0.4802 -0.5872  0.7149
  946MOL0     O24787  10.388   8.389   9.414  0.9800  0.1567  0.0653
  946MOL0     C24788  10.189   8.373   9.223  0.7358 -0.5537 -0.0450
  946MOL0     C24789  10.102   8.342   9.118  0.3502 -0.5119 -0.0079
  946MOL0     N24790   9.978   7.842   8.533  0.0055  0.2144  0.2994
  946MOL0     N24791   9.946   7.720   8.488 -1.4364 -0.6400  0.0486
  946MOL0     C24792   9.812   6.809   7.776  0.0461 -0.6141  0.2609
  946MOL0     C24793   9.873   6.693   7.726 -0.7729  0.1500  0.4355
  946MOL0     C24794  10.066   6.340   7.635  0.2187  0.0580  0.6230
  946MOL0     C24795  10.197   6.353   7.603  0.0020  0.0779  0.0963
  946MOL0     C24796  10.261   6.263   7.516 -0.0646 -0.2215  0.3111
  946MOL0     C24797  10.192   6.154   7.468 -1.2772  0.1039  0.5755
  946MOL0     O24798  10.249   6.043   7.398 -0.4693 -0.6324 -0.0690
  946MOL0     C24799  10.390   6.029   7.406 -0.2551 -0.1776 -0.9599
  946MOL0     C24800  10.462   6.072   7.275 -0.2236 -0.3513  0.4987
  946MOL0     C24801  10.504   5.953   7.185  0.0582  0.0868  0.5049
  946MOL0     C24802  10.571   5.993   7.052 -0.7403  1.2721 -0.3379
  946MOL0     C24803  10.705   6.057   7.083  0.3582  0.5967  0.5927
  946MOL0     C24804  10.824   6.097   7.101 -0.4322  0.2595 -0.4808
  946MOL0     C24805  10.056   6.150   7.499  0.3330  0.4692  0.0950
  946MOL0     C24806   9.988   6.240   7.574 -0.5702 -0.4560  0.5086
  946MOL0     H24807   9.732   6.473   7.927 -2.1508 -1.2443 -1.9441
  946MOL0     H24808   9.642   6.684   8.036 -3.8969 -0.4924 -2.7009
  946MOL0     H24809   9.623   7.115   7.879 -1.1726  2.4574  3.1937
  946MOL0     H24810   9.804   7.072   7.871 -1.0795 -1.1175 -1.9103
  946MOL0     H24811   9.631   7.122   8.106 -1.5011  0.6499 -2.2348
  946MOL0     H24812   9.741   7.240   8.027  0.6685 -0.0973 -2.9919
  946MOL0     H24813   9.929   7.096   8.071 -0.0483  1.6138  0.3919
  946MOL0     H24814   9.826   6.992   8.175 -0.5402  1.3491  1.1599
  946MOL0     H24815   9.798   7.131   8.330 -2.5004 -0.2174 -1.6036
  946MOL0     H24816   9.973   7.160   8.300  0.0109  0.6807  0.6546
  946MOL0     H24817   9.755   7.343   8.207 -0.5092 -2.5700 -1.4943
  946MOL0     H24818   9.928   7.346   8.159  1.3117  2.1634  1.4929
  946MOL0     H24819   9.949   7.518   8.307 -0.4408 -1.0584 -1.4239
  946MOL0     H24820   9.994   7.379   8.400 -0.0126  0.9373  1.1385
  946MOL0     H24821   9.714   7.518   8.409  0.2002  1.2090 -0.5686
  946MOL0     H24822   9.749   7.365   8.487 -1.0495  1.5209  1.1476
  946MOL0     H24823   9.948   7.469   8.616  1.2284  1.4723 -0.5349
  946MOL0     H24824   9.782   7.490   8.667 -0.2700 -3.0217 -1.4475
  946MOL0     H24825   9.781   7.731   8.777 -0.3329  1.3041 -0.6708
  946MOL0     H24826   9.961   8.065   8.698  1.4151 -0.3181  0.9142
  946MOL0     H24827   9.984   7.966   8.835  2.1212  4.0966 -0.6138
  946MOL0     H24828   9.724   7.937   8.823  0.5352  0.3480 -0.5240
  946MOL0     H24829   9.710   8.031   8.685 -6.1025 -2.2676  2.7993
  946MOL0     H24830   9.797   8.239   8.815  1.7611  0.6136  3.1742
  946MOL0     H24831   9.650   8.178   8.872  0.0117  1.1569  0.5817
  946MOL0     H24832   9.843   8.036   9.024 -0.9921  0.8284  2.7090
  946MOL0     H24833   9.760   8.182   9.075  0.9958 -1.1232  2.0746
  946MOL0     H24834   9.974   8.047   9.193  1.3279 -0.5601 -4.1056
  946MOL0     H24835  10.130   8.103   9.404 -1.2311 -1.1726 -1.4725
  946MOL0     H24836  10.205   8.429   9.704  0.5060  0.9889 -1.9292
  946MOL0     H24837  10.330   8.495   9.929  0.1493 -0.7087  0.8561
  946MOL0     H24838  10.694   8.431  10.142 -2.2952  1.7441 -1.2064
  946MOL0     H24839  10.715   8.336   9.988  0.1207 -0.1406 -0.6217
  946MOL0     H24840  10.645   8.127  10.077  0.7138 -2.7177  2.2482
  946MOL0     H24841  10.546   8.211  10.193 -0.8189 -0.3553 -1.9470
  946MOL0     H24842  10.742   8.272  10.322 -0.6135 -0.6294 -0.9970
  946MOL0     H24843  10.859   8.217  10.201  0.4204  2.6121 -1.3051
  946MOL0     H24844  10.661   8.060  10.370  0.2335  1.3593 -0.7799
  946MOL0     H24845  10.736   7.976  10.231 -3.2281 -0.7604  1.7461
  946MOL0     H24846  10.879   8.096  10.486  0.1474  0.8472 -0.0957
  946MOL0     H24847  10.963   8.050  10.334  0.4382 -1.9542 -1.3620
  946MOL0     H24848  10.878   7.818  10.340 -0.3541 -0.9986  1.3125
  946MOL0     H24849  10.807   7.851  10.490 -0.3617 -2.5937 -0.3988
  946MOL0     H24850  11.023   7.943  10.583  0.0429 -2.1740  2.6052
  946MOL0     H24851  11.010   7.766  10.553 -0.5656 -0.9426 -1.3127
  946MOL0     H24852  11.187   7.954  10.429 -1.2597  0.0464 -2.6657
  946MOL0     H24853  11.122   7.824  10.332  0.2543  3.2831 -0.9096
  946MOL0     H24854  10.618   8.198   9.849 -0.1810 -2.0383 -3.6839
  946MOL0     H24855  10.508   8.159   9.630  0.7228  0.0769  0.2016
  946MOL0     H24856  10.255   8.459   9.220  0.5040 -0.3894 -0.5949
  946MOL0     H24857  10.097   8.416   9.038 -3.5662  1.0131  1.4066
  946MOL0     H24858   9.832   6.899   7.718 -1.3936 -1.4721 -1.7017
  946MOL0     H24859   9.949   6.701   7.649 -1.1854 -0.7450 -0.0759
  946MOL0     H24860  10.268   6.426   7.642  0.4021 -0.3161  0.1110
  946MOL0     H24861  10.365   6.273   7.487 -0.2624  1.7648  0.1665
  946MOL0     H24862  10.400   5.922   7.426 -3.7975 -0.5302 -0.4958
  946MOL0     H24863  10.428   6.069   7.501 -0.9492 -3.9455  1.0846
  946MOL0     H24864  10.406   6.138   7.207  0.7610 -1.9202 -1.9507
  946MOL0     H24865  10.553   6.123   7.308 -1.4548  2.3437  0.0614
  946MOL0     H24866  10.418   5.888   7.170  1.3038 -1.0130 -2.8018
  946MOL0     H24867  10.569   5.884   7.239  1.6984  0.2418 -1.1730
  946MOL0     H24868  10.572   5.898   6.999 -0.6596  0.5132  0.9722
  946MOL0     H24869  10.515   6.073   7.003 -1.8284  1.5279  1.2402
  946MOL0     H24870  10.925   6.127   7.124  0.5798 -2.9665 -0.2381
  946MOL0     H24871  10.003   6.067   7.452 -1.0695 -0.3526  2.9136
  946MOL0     H24872   9.883   6.219   7.591 -1.2057  2.3757  0.6147
  947MOL0     O24873   9.775   4.758   1.031  0.3352  0.8243 -0.8052
  947MOL0     C24874   9.692   4.738   1.119  0.8273 -0.7552 -0.3498
  947MOL0     O24875   9.564   4.786   1.125 -0.8650  0.3723 -0.4521
  947MOL0     C24876   9.526   4.882   1.037 -0.1286 -0.1551  0.1895
  947MOL0     C24877   9.584   5.010   1.028  0.7349  0.6337  0.6476
  947MOL0     C24878   9.522   5.115   0.957 -0.0581 -0.3101  0.8386
  947MOL0     C24879   9.402   5.086   0.886 -0.2557 -0.3319 -0.8048
  947MOL0     O24880   9.359   5.198   0.813  1.1369 -0.5644 -0.4393
  947MOL0     C24881   9.239   5.181   0.745  0.0596  0.3128  0.2977
  947MOL0     C24882   9.191   5.315   0.685  0.7767  0.2302  1.2241
  947MOL0     C24883   9.047   5.308   0.626  1.2934  0.0972 -0.4072
  947MOL0     C24884   9.014   5.188   0.527 -0.7303  0.2337 -0.9566
  947MOL0     C24885   8.869   5.195   0.465  0.4959 -0.0815 -0.8021
  947MOL0     C24886   8.819   5.066   0.406 -0.5824  0.2822  0.8790
  947MOL0     C24887   8.681   5.074   0.346  0.4158 -0.0435 -0.4581
  947MOL0     C24888   8.656   5.199   0.247  0.0209 -0.2694  0.3799
  947MOL0     N24889   8.545   5.156   0.157 -0.2082 -0.2611  0.2132
  947MOL0     C24890   8.412   5.124   0.198  0.0446 -0.3639  0.7896
  947MOL0     C24891   8.351   5.093   0.080 -0.5209 -0.3470  0.2290
  947MOL0     C24892   8.209   5.058   0.084 -0.2788  0.0215  0.1805
  947MOL0     C24893   8.118   5.179   0.067 -0.4989  0.0449  0.9510
  947MOL0     C24894   8.115   5.238  -0.075 -0.6040 -1.1957 -0.1536
  947MOL0     C24895   8.106   5.395  -0.065  1.5821  0.3588 -0.5680
  947MOL0     O24896   7.987   5.431   0.019 -0.4018  0.7081  0.0002
  947MOL0     C24897   7.871   5.485  -0.039  0.2499 -0.4667  0.1148
  947MOL0     C24898   7.848   5.488  -0.175  0.9645  0.0173 -0.6788
  947MOL0     C24899   7.733   5.554  -0.218 -0.0901  0.4159  0.7322
  947MOL0     C24900   7.638   5.617  -0.128  0.1509  0.0161 -0.0837
  947MOL0     C24901   7.520   5.681  -0.175  0.8496  0.5245  0.2104
  947MOL0     O24902   7.505   5.699  -0.312  0.0552  0.6640  0.1362
  947MOL0     C24903   7.393   5.754  -0.357 -0.9661 -0.5764 -0.0053
  947MOL0     C24904   7.386   5.879  -0.410  0.0965  0.2056  0.0905
  947MOL0     C24905   7.268   5.925  -0.462  0.0458 -0.2492  0.6636
  947MOL0     C24906   7.149   5.849  -0.451  0.1218  0.5923  0.3282
  947MOL0     O24907   7.035   5.904  -0.506  0.3966 -0.0937  0.2862
  947MOL0     C24908   6.913   5.876  -0.437  0.3978  0.2245 -1.0878
  947MOL0     C24909   6.808   5.986  -0.432  0.0231 -1.0139  0.4469
  947MOL0     C24910   6.870   6.114  -0.381  0.4845  0.5321  0.3217
  947MOL0     C24911   6.786   6.243  -0.399 -1.0374 -0.2747 -0.7921
  947MOL0     C24912   6.872   6.370  -0.385  0.5779 -0.2356 -0.7994
  947MOL0     C24913   6.813   6.494  -0.453 -0.1760  0.6371  0.0165
  947MOL0     C24914   6.799   6.506  -0.604 -0.0360 -0.2251  0.2302
  947MOL0     C24915   6.937   6.501  -0.679 -0.4660 -0.0244  0.7041
  947MOL0    Cl24916   6.929   6.570  -0.842 -0.0008  0.0464  0.1879
  947MOL0     C24917   7.156   5.724  -0.385  0.6607 -0.0665  0.6511
  947MOL0     C24918   7.280   5.671  -0.343 -0.5987 -0.4197  1.1435
  947MOL0     O24919   7.427   5.682  -0.100 -0.3505 -0.1565 -0.2544
  947MOL0     C24920   7.662   5.607   0.008 -0.2271  0.6282 -0.7949
  947MOL0     C24921   7.780   5.538   0.048  0.0699 -0.2927  0.1192
  947MOL0     N24922   8.443   5.086  -0.025  0.1982 -0.0244 -1.1559
  947MOL0     N24923   8.558   5.129   0.023 -0.1585  0.5926  0.2042
  947MOL0     C24924   9.351   4.957   0.889 -0.4953  0.8163 -0.5195
  947MOL0     C24925   9.410   4.857   0.964 -0.1772  0.5221  0.5549
  947MOL0     C24926   9.732   4.651   1.228  0.0149 -0.3463 -0.5341
  947MOL0     C24927   9.866   4.622   1.232  0.1189  0.1628 -0.0275
  947MOL0     C24928   9.916   4.542   1.335  0.1727  0.3157  0.7431
  947MOL0     C24929   9.832   4.494   1.440 -0.2611 -0.6848  0.1583
  947MOL0     O24930   9.866   4.420   1.553 -0.0842 -0.1657 -0.2675
  947MOL0     C24931  10.000   4.437   1.600  0.8745  0.0026  0.6727
  947MOL0     C24932   9.996   4.372   1.730 -0.1220 -0.3477 -0.7578
  947MOL0     C24933  10.130   4.363   1.799  0.8225 -0.1641  0.5309
  947MOL0     C24934  10.219   4.235   1.758 -0.6302  0.1316 -0.3644
  947MOL0     C24935  10.353   4.244   1.818  0.4916  0.6645  0.2124
  947MOL0     C24936  10.457   4.244   1.885  0.5319 -0.6300 -0.3534
  947MOL0     C24937   9.695   4.526   1.427 -0.8010  0.0474 -0.2290
  947MOL0     C24938   9.649   4.604   1.324 -0.0349 -0.4543  0.0550
  947MOL0     H24939   9.661   5.042   1.097 -0.2614  1.7357  1.3039
  947MOL0     H24940   9.579   5.203   0.930 -2.9415  0.8277 -2.3175
  947MOL0     H24941   9.159   5.143   0.808  1.7450 -1.3960  1.5452
  947MOL0     H24942   9.267   5.104   0.672  0.3306  0.1987  0.5173
  947MOL0     H24943   9.260   5.353   0.609 -0.0224  1.2150  0.9718
  947MOL0     H24944   9.195   5.390   0.765  1.4633  1.2760  0.2386
  947MOL0     H24945   9.027   5.399   0.569  0.7281  1.8240  2.3859
  947MOL0     H24946   8.976   5.309   0.708 -1.6063 -2.0736 -2.6674
  947MOL0     H24947   9.090   5.199   0.450 -0.9447 -0.4128 -1.2651
  947MOL0     H24948   9.029   5.089   0.572  3.3330  0.7190 -0.8928
  947MOL0     H24949   8.874   5.267   0.382  0.6755 -0.3308 -1.0067
  947MOL0     H24950   8.788   5.217   0.536 -3.2310 -7.6287 -1.6577
  947MOL0     H24951   8.810   4.996   0.490  1.5673  1.4149  2.1490
  947MOL0     H24952   8.901   5.036   0.340 -0.1439 -1.9512  2.3152
  947MOL0     H24953   8.646   4.980   0.303  0.0416 -0.0255 -0.2014
  947MOL0     H24954   8.617   5.085   0.434 -0.5618 -1.0747 -1.0165
  947MOL0     H24955   8.744   5.225   0.188 -0.2494 -0.1385  0.0283
  947MOL0     H24956   8.627   5.289   0.302  2.3513  1.5260 -1.1455
  947MOL0     H24957   8.366   5.137   0.295 -0.6499 -1.2243  0.5863
  947MOL0     H24958   8.186   5.009   0.179  0.0801  1.6170  1.1353
  947MOL0     H24959   8.189   4.978   0.013  0.5913 -0.4128  0.3975
  947MOL0     H24960   8.146   5.255   0.141 -0.4307  0.2801  0.6863
  947MOL0     H24961   8.015   5.157   0.096 -0.6339  1.0913  1.3385
  947MOL0     H24962   8.211   5.218  -0.124  1.9299  0.4511  3.6305
  947MOL0     H24963   8.038   5.181  -0.128 -1.0565  0.1767 -1.0017
  947MOL0     H24964   8.101   5.445  -0.162 -0.6097  0.9158 -0.2181
  947MOL0     H24965   8.194   5.437  -0.014  1.1885  0.2520  0.2244
  947MOL0     H24966   7.921   5.448  -0.245  1.6023  0.1446 -0.1053
  947MOL0     H24967   7.707   5.554  -0.323  1.5168  0.1717  0.3089
  947MOL0     H24968   7.476   5.934  -0.436 -0.4437 -0.0670 -2.7025
  947MOL0     H24969   7.265   6.022  -0.512 -0.5952  0.0541  1.2803
  947MOL0     H24970   6.941   5.852  -0.334  2.0624 -2.8311 -2.1162
  947MOL0     H24971   6.864   5.787  -0.479 -1.8512  0.3230  1.1081
  947MOL0     H24972   6.730   5.973  -0.355  0.5186  4.5551  2.3033
  947MOL0     H24973   6.766   6.005  -0.531  0.4221  2.0034  0.7817
  947MOL0     H24974   6.965   6.131  -0.432 -0.5194  1.7509 -1.1984
  947MOL0     H24975   6.889   6.093  -0.275 -1.4050 -1.3814  0.3623
  947MOL0     H24976   6.739   6.240  -0.498 -0.2463  0.2956 -1.1952
  947MOL0     H24977   6.702   6.246  -0.329  0.4973  2.0819  1.1176
  947MOL0     H24978   6.972   6.352  -0.426  0.7239  2.1409 -1.6329
  947MOL0     H24979   6.892   6.396  -0.280  2.3410 -0.0372 -1.1602
  947MOL0     H24980   6.872   6.586  -0.441 -2.6381  2.6398 -1.9893
  947MOL0     H24981   6.713   6.507  -0.410  0.8541  3.0951  1.9756
  947MOL0     H24982   6.723   6.433  -0.634 -3.0057  2.9803 -0.6600
  947MOL0     H24983   6.763   6.606  -0.627 -0.9043 -0.3844  0.8503
  947MOL0     H24984   6.976   6.399  -0.676  1.4968  0.6265 -0.3109
  947MOL0     H24985   7.007   6.563  -0.621 -1.9756 -0.5235  3.2187
  947MOL0     H24986   7.069   5.659  -0.388 -0.5036  1.4650 -1.3896
  947MOL0     H24987   7.287   5.575  -0.294  1.9038  0.0103  1.7724
  947MOL0     H24988   7.593   5.651   0.079  0.2481 -2.4721  1.8189
  947MOL0     H24989   7.810   5.540   0.152 -0.1091 -2.7188  0.2551
  947MOL0     H24990   9.261   4.925   0.838 -0.0719  2.0743 -2.1429
  947MOL0     H24991   9.364   4.759   0.963  4.0369 -1.7211  0.8020
  947MOL0     H24992   9.938   4.669   1.166 -2.8554  3.1443 -1.5063
  947MOL0     H24993  10.022   4.522   1.350 -0.2562 -3.0240  0.1497
  947MOL0     H24994  10.053   4.533   1.598 -0.2900  0.6455 -0.2104
  947MOL0     H24995  10.060   4.374   1.534  0.7003  0.2528  0.2748
  947MOL0     H24996   9.937   4.444   1.787  1.3339 -0.1294  0.5577
  947MOL0     H24997   9.957   4.270   1.729 -1.4952  0.1032  1.2106
  947MOL0     H24998  10.109   4.361   1.907  0.5318  3.4628  0.6617
  947MOL0     H24999  10.185   4.455   1.778 -0.8799  0.6857 -0.4613
  947MOL0     H25000  10.173   4.143   1.797  0.4973 -0.6456 -0.7965
  947MOL0     H25001  10.225   4.217   1.650  0.8764  2.6094 -0.7745
  947MOL0     H25002  10.555   4.251   1.927  0.5401  0.0086 -0.4788
  947MOL0     H25003   9.639   4.513   1.518  1.3238 -2.6250  0.8214
  947MOL0     H25004   9.545   4.634   1.323 -0.0996 -0.5984  1.2970
  948MOL0     O25005   1.499   9.846   6.843 -0.5742 -0.3825 -0.2536
  948MOL0     C25006   1.510   9.877   6.722 -0.4555 -0.0749 -0.3543
  948MOL0     O25007   1.598   9.825   6.628 -0.0437  0.1420 -0.0424
  948MOL0     C25008   1.681   9.726   6.681 -0.6651  0.8072  0.0947
  948MOL0     C25009   1.637   9.619   6.753  0.4240 -0.4555 -0.7259
  948MOL0     C25010   1.716   9.510   6.776 -0.7655 -0.0602 -0.3394
  948MOL0     C25011   1.858   9.522   6.744  0.3748 -0.0523  0.9892
  948MOL0     O25012   1.958   9.429   6.775  0.1465 -0.0036 -0.3524
  948MOL0     C25013   1.916   9.298   6.800  0.5401  0.5850 -0.8224
  948MOL0     C25014   2.045   9.213   6.816 -1.1982 -0.3530 -0.3332
  948MOL0     C25015   2.108   9.161   6.688 -0.3861  0.6025  0.6164
  948MOL0     C25016   2.244   9.080   6.697  0.2908 -0.7320  0.0062
  948MOL0     C25017   2.224   8.930   6.706 -0.8403 -0.3329  0.4996
  948MOL0     C25018   2.349   8.850   6.733 -0.3448 -0.5131  0.0222
  948MOL0     C25019   2.330   8.699   6.743  0.7546 -0.3273 -0.1401
  948MOL0     C25020   2.465   8.635   6.711 -0.7401  0.0617 -0.2370
  948MOL0     N25021   2.461   8.491   6.723  0.5573  0.0800  0.2898
  948MOL0     C25022   2.482   8.427   6.845 -0.2517 -0.6290 -0.4266
  948MOL0     C25023   2.502   8.299   6.805  0.5606 -0.5331 -0.5584
  948MOL0     C25024   2.529   8.185   6.898 -0.1612  0.6701 -0.6416
  948MOL0     C25025   2.394   8.136   6.952  0.2341  0.2418 -0.4902
  948MOL0     C25026   2.404   8.035   7.072  0.6239  0.6118  0.4650
  948MOL0     C25027   2.266   7.991   7.132 -0.0916  0.1114  0.3243
  948MOL0     O25028   2.282   7.886   7.233  0.7644 -0.3932 -0.1305
  948MOL0     C25029   2.324   7.920   7.360  0.2801 -0.4956  0.3502
  948MOL0     C25030   2.393   7.827   7.431  0.1902  0.0372 -0.3870
  948MOL0     C25031   2.444   7.855   7.559  0.1048  0.3435 -0.2361
  948MOL0     C25032   2.409   7.971   7.626  0.8171 -1.2736  0.2504
  948MOL0     C25033   2.444   7.998   7.763 -0.0639  0.0529 -0.0772
  948MOL0     O25034   2.353   8.058   7.838  0.5792  0.0464 -0.0775
  948MOL0     C25035   2.396   8.115   7.953 -0.3279 -0.3984 -0.2242
  948MOL0     C25036   2.499   8.212   7.949 -0.1464  0.3953  0.8485
  948MOL0     C25037   2.534   8.269   8.062  0.3752 -0.5218 -0.6505
  948MOL0     C25038   2.465   8.253   8.183 -0.1395  0.8899  1.3685
  948MOL0     O25039   2.507   8.295   8.308 -0.3629  0.1151  0.3414
  948MOL0     C25040   2.598   8.410   8.293 -0.4565  0.8583 -0.1098
  948MOL0     C25041   2.747   8.374   8.294 -0.0410  0.0975 -0.0182
  948MOL0     C25042   2.829   8.461   8.201 -0.0491 -0.6147 -0.3125
  948MOL0     C25043   2.866   8.606   8.259  0.0335  0.2369  0.3351
  948MOL0     C25044   2.951   8.679   8.160 -0.9852 -0.2807 -0.1757
  948MOL0     C25045   3.041   8.798   8.217  0.8744 -0.5038 -0.6019
  948MOL0     C25046   2.945   8.905   8.292  0.3734 -0.4973  0.7476
  948MOL0     C25047   2.973   9.056   8.279  0.1523  0.4508  0.4840
  948MOL0    Cl25048   2.994   9.076   8.104  0.3481  0.2938 -0.2302
  948MOL0     C25049   2.365   8.154   8.184 -0.0416  0.3385  0.4380
  948MOL0     C25050   2.331   8.087   8.071  0.3483 -0.3619  1.0970
  948MOL0     O25051   2.557   7.959   7.802  0.1736 -0.4471  0.0213
  948MOL0     C25052   2.333   8.068   7.555  0.4955 -0.3049  0.5369
  948MOL0     C25053   2.286   8.043   7.424 -1.2349  0.4823  1.2539
  948MOL0     N25054   2.481   8.280   6.668 -0.5189  0.4487  0.6343
  948MOL0     N25055   2.458   8.391   6.619 -0.4445 -0.2913 -0.3773
  948MOL0     C25056   1.896   9.628   6.660 -0.8645  1.1948  0.9066
  948MOL0     C25057   1.810   9.733   6.638 -1.2079  0.4160 -0.1705
  948MOL0     C25058   1.416   9.967   6.660  0.0393  0.1393  0.5595
  948MOL0     C25059   1.418  10.017   6.525 -0.3794 -0.3571  0.1002
  948MOL0     C25060   1.326  10.098   6.461 -0.0340  0.3804  0.3911
  948MOL0     C25061   1.211  10.123   6.531  1.0441  0.3944  0.0359
  948MOL0     O25062   1.114  10.192   6.456 -0.2557  0.0896  0.1436
  948MOL0     C25063   1.019  10.270   6.530 -0.1835 -1.0234  0.1337
  948MOL0     C25064   0.906  10.283   6.435  1.2291 -0.3570 -0.1570
  948MOL0     C25065   0.955  10.373   6.319 -0.0001 -0.4800 -1.6707
  948MOL0     C25066   0.844  10.447   6.237  0.0749  0.0746  0.3383
  948MOL0     C25067   0.821  10.575   6.305 -0.0916 -0.2106  0.5148
  948MOL0     C25068   0.818  10.678   6.368  0.0152  0.5539  0.1761
  948MOL0     C25069   1.202  10.075   6.666 -0.7341  0.2247  0.2568
  948MOL0     C25070   1.297   9.996   6.730 -0.1998  0.5459 -0.1564
  948MOL0     H25071   1.530   9.606   6.768 -0.1671  2.9230 -1.3563
  948MOL0     H25072   1.674   9.442   6.850  0.0402  1.6673  1.8053
  948MOL0     H25073   1.849   9.264   6.720  0.7653 -1.3858 -0.2243
  948MOL0     H25074   1.855   9.286   6.890 -2.1535 -0.5483 -2.6543
  948MOL0     H25075   2.037   9.126   6.883  0.6439  1.9455  3.1611
  948MOL0     H25076   2.120   9.277   6.863  0.9601 -3.0853  0.1894
  948MOL0     H25077   2.144   9.250   6.636  3.4758 -1.1766 -0.1898
  948MOL0     H25078   2.040   9.100   6.628  1.4155 -3.5418  2.3651
  948MOL0     H25079   2.320   9.113   6.626 -0.2696 -0.9601 -0.7089
  948MOL0     H25080   2.289   9.119   6.789  1.3076  1.7841 -1.4828
  948MOL0     H25081   2.191   8.897   6.607  0.6112  1.5180 -0.6697
  948MOL0     H25082   2.148   8.911   6.783 -1.9472 -3.0541 -1.1306
  948MOL0     H25083   2.383   8.886   6.831 -1.8519  0.2412  0.3000
  948MOL0     H25084   2.422   8.873   6.655 -0.8312  2.2767  0.2860
  948MOL0     H25085   2.304   8.676   6.847 -2.1387  2.1451 -0.1719
  948MOL0     H25086   2.265   8.661   6.663  2.4329  0.6822 -2.0823
  948MOL0     H25087   2.544   8.670   6.778 -1.2611 -3.5702  2.5897
  948MOL0     H25088   2.481   8.673   6.610  0.0441  1.7175  0.4670
  948MOL0     H25089   2.508   8.458   6.945 -1.4839  0.7365 -0.4989
  948MOL0     H25090   2.597   8.223   6.976  1.1133 -0.5429 -1.1318
  948MOL0     H25091   2.590   8.111   6.846 -0.4064 -1.8978  2.4079
  948MOL0     H25092   2.329   8.091   6.876 -3.3042 -2.0421  3.4327
  948MOL0     H25093   2.344   8.224   6.993  1.0366  0.7068 -0.4944
  948MOL0     H25094   2.446   7.939   7.042  0.9044  0.4247  1.4185
  948MOL0     H25095   2.462   8.083   7.151  1.8230 -1.5610  0.9721
  948MOL0     H25096   2.216   7.938   7.051 -0.4496 -1.3265  1.4397
  948MOL0     H25097   2.206   8.080   7.157  0.5000  1.0500 -1.4003
  948MOL0     H25098   2.436   7.738   7.385  0.5056 -0.6128  1.1171
  948MOL0     H25099   2.500   7.780   7.614 -1.3380 -0.7155 -0.1396
  948MOL0     H25100   2.538   8.246   7.854  1.3562 -0.0362  1.2750
  948MOL0     H25101   2.611   8.344   8.053 -1.7571  1.9853  0.5203
  948MOL0     H25102   2.571   8.475   8.377  0.4383  2.5075 -1.0500
  948MOL0     H25103   2.565   8.467   8.205  3.0930 -0.4994 -2.5351
  948MOL0     H25104   2.756   8.271   8.259 -2.8770  0.1499 -1.1620
  948MOL0     H25105   2.769   8.385   8.401 -1.4094  2.0811  0.1111
  948MOL0     H25106   2.789   8.471   8.100 -1.8593  0.0593  0.4387
  948MOL0     H25107   2.925   8.409   8.191 -1.2055 -3.2445  1.2117
  948MOL0     H25108   2.772   8.661   8.270  0.9904  1.7292  1.3523
  948MOL0     H25109   2.913   8.595   8.357 -0.5478  0.7455  0.6804
  948MOL0     H25110   2.896   8.721   8.076 -0.8760 -0.6203 -0.4180
  948MOL0     H25111   3.021   8.613   8.108 -0.3453  3.0246 -3.9985
  948MOL0     H25112   3.113   8.848   8.152 -0.0042  0.0313 -1.1905
  948MOL0     H25113   3.097   8.755   8.300 -1.2803 -1.5506  0.4103
  948MOL0     H25114   2.843   8.889   8.257  1.9458 -4.7895 -2.7584
  948MOL0     H25115   2.957   8.877   8.397  4.6081 -1.0984  0.2949
  948MOL0     H25116   3.068   9.084   8.325  0.0437  0.9300  0.4152
  948MOL0     H25117   2.888   9.108   8.325 -0.6315  0.3300 -0.7732
  948MOL0     H25118   2.310   8.131   8.275 -1.0615  1.5669  0.1643
  948MOL0     H25119   2.252   8.013   8.077 -0.4155  0.2133 -0.9426
  948MOL0     H25120   2.304   8.158   7.609  0.7967  2.4667 -3.5005
  948MOL0     H25121   2.241   8.125   7.370  2.4623  3.0037  1.6597
  948MOL0     H25122   1.995   9.621   6.618 -0.6896  0.2465  1.4486
  948MOL0     H25123   1.848   9.815   6.578  0.5942 -1.8591 -2.3681
  948MOL0     H25124   1.510   9.992   6.471 -0.7804 -1.3652 -0.1344
  948MOL0     H25125   1.343  10.126   6.357 -1.7851 -1.7562 -0.5467
  948MOL0     H25126   1.071  10.357   6.571  4.7083 -4.3115  1.7622
  948MOL0     H25127   0.980  10.212   6.614 -2.7582  0.6074  0.1906
  948MOL0     H25128   0.866  10.192   6.389 -0.3409 -0.3885  1.1827
  948MOL0     H25129   0.820  10.334   6.478  2.0900 -0.8023  2.2677
  948MOL0     H25130   1.012  10.315   6.246 -1.7690 -3.8361 -0.6125
  948MOL0     H25131   1.010  10.455   6.365 -1.2898  0.2267 -1.3661
  948MOL0     H25132   0.895  10.475   6.145  1.8279  2.0348  1.8216
  948MOL0     H25133   0.759  10.385   6.207  1.0327 -1.3913  0.5532
  948MOL0     H25134   0.791  10.764   6.426 -0.9165  0.1328  0.3936
  948MOL0     H25135   1.121  10.108   6.731 -1.0412  0.2328 -0.1255
  948MOL0     H25136   1.281   9.949   6.826  0.6174 -1.6078 -1.0040
  949MOL0     O25137   2.634   9.039   4.374  0.0662 -0.1399  0.1935
  949MOL0     C25138   2.754   9.055   4.367 -0.5535  1.0842  0.3294
  949MOL0     O25139   2.813   9.155   4.303 -0.0637 -0.6415 -0.4875
  949MOL0     C25140   2.736   9.264   4.274 -0.0745  0.0680  0.2046
  949MOL0     C25141   2.648   9.257   4.164  0.1407 -0.4804 -0.1890
  949MOL0     C25142   2.565   9.363   4.135  0.3295  0.8355  0.5217
  949MOL0     C25143   2.553   9.478   4.215  0.7266 -0.3675  0.2764
  949MOL0     O25144   2.462   9.581   4.190  0.6606  0.0675 -0.5859
  949MOL0     C25145   2.376   9.578   4.076 -0.1642 -0.6554  0.1940
  949MOL0     C25146   2.284   9.700   4.095  1.1820  0.6965 -0.0617
  949MOL0     C25147   2.202   9.720   3.966  0.8561  0.0674 -0.3963
  949MOL0     C25148   2.131   9.860   3.962  0.5962 -1.1199 -0.4896
  949MOL0     C25149   1.992   9.865   4.038 -0.0428  0.5630 -0.5834
  949MOL0     C25150   1.876   9.797   3.968 -0.1925 -0.0970 -0.5258
  949MOL0     C25151   1.739   9.860   4.013  0.0487  0.3625  0.8385
  949MOL0     C25152   1.609   9.771   3.967 -0.6777  0.4063  0.0191
  949MOL0     N25153   1.596   9.783   3.820  0.6685 -0.8290  0.1409
  949MOL0     C25154   1.498   9.721   3.742 -0.0253  0.0618 -0.1839
  949MOL0     C25155   1.519   9.763   3.620  0.3805  0.0006 -0.2027
  949MOL0     C25156   1.423   9.735   3.501  0.4403  0.4314  0.6995
  949MOL0     C25157   1.383   9.865   3.438  0.0386  0.4341  0.3955
  949MOL0     C25158   1.308   9.963   3.521  1.0943  0.5087 -0.3045
  949MOL0     C25159   1.255  10.087   3.449  0.3400 -0.3897 -0.0301
  949MOL0     O25160   1.169  10.057   3.338  0.8913 -0.1900 -0.2836
  949MOL0     C25161   1.132  10.151   3.250  0.2056 -0.2631 -0.2886
  949MOL0     C25162   1.100  10.111   3.128 -0.7313  0.0224  1.3768
  949MOL0     C25163   1.066  10.202   3.033 -0.5768 -0.6767  0.8659
  949MOL0     C25164   1.078  10.340   3.058  0.0800 -0.6002 -0.0865
  949MOL0     C25165   1.062  10.441   2.950 -0.1848 -0.7569 -0.3134
  949MOL0     O25166   0.992  10.393   2.846 -0.2715 -0.0125 -0.4730
  949MOL0     C25167   0.953  10.491   2.755  0.7225 -0.4169 -0.1668
  949MOL0     C25168   0.879  10.610   2.774 -0.9863  0.2863 -0.5274
  949MOL0     C25169   0.847  10.687   2.664  0.1903 -0.7520  1.0437
  949MOL0     C25170   0.874  10.654   2.527  0.8850 -0.6553 -0.5399
  949MOL0     O25171   0.833  10.736   2.424 -1.5605  0.0087 -0.4280
  949MOL0     C25172   0.845  10.688   2.291 -0.2960  0.4554 -0.3395
  949MOL0     C25173   0.788  10.801   2.198 -0.8489  0.5076  0.4144
  949MOL0     C25174   0.779  10.741   2.056 -0.4036  0.1267 -0.0313
  949MOL0     C25175   0.777  10.857   1.946  0.2581  0.9808  0.0121
  949MOL0     C25176   0.804  10.796   1.808 -0.4939 -0.0783 -0.4383
  949MOL0     C25177   0.849  10.893   1.708  0.4738  0.1984  0.3340
  949MOL0     C25178   0.737  10.990   1.650 -0.7692  0.0322  0.0380
  949MOL0     C25179   0.630  10.915   1.581 -0.3275  0.1485  0.1423
  949MOL0    Cl25180   0.688  10.829   1.441 -0.0438 -0.1065 -0.3160
  949MOL0     C25181   0.926  10.522   2.518 -0.4421  0.1924  1.0208
  949MOL0     C25182   0.972  10.442   2.627 -0.9789 -0.4643 -0.1147
  949MOL0     O25183   1.096  10.558   2.964 -0.8992  0.3982  0.0643
  949MOL0     C25184   1.106  10.387   3.189 -0.9183 -1.0734  0.5296
  949MOL0     C25185   1.126  10.289   3.281  0.1875 -0.0763 -0.5347
  949MOL0     N25186   1.625   9.856   3.620  0.4117  1.0428  0.3602
  949MOL0     N25187   1.672   9.864   3.733  0.3324 -0.2652 -0.3642
  949MOL0     C25188   2.644   9.482   4.323 -0.0561  0.3209  0.1765
  949MOL0     C25189   2.737   9.384   4.343 -0.4665 -0.0241  0.0685
  949MOL0     C25190   2.844   8.985   4.461  1.0927  0.5650  0.2574
  949MOL0     C25191   2.976   8.991   4.449 -0.6729 -0.1640 -0.1565
  949MOL0     C25192   3.066   8.938   4.540  0.4829 -0.4389  0.3693
  949MOL0     C25193   3.024   8.890   4.672  0.3918  1.0468  0.2496
  949MOL0     O25194   3.128   8.875   4.769  0.6479 -0.7991  0.4233
  949MOL0     C25195   3.089   8.824   4.897  0.2083  0.5468 -0.1820
  949MOL0     C25196   3.193   8.857   5.002 -0.5525  0.7950 -1.1989
  949MOL0     C25197   3.224   9.006   5.025 -0.3280  0.9147  0.5014
  949MOL0     C25198   3.285   9.049   5.160  0.5648 -0.5954 -0.8535
  949MOL0     C25199   3.336   9.182   5.166  0.1156 -0.7638 -0.0974
  949MOL0     C25200   3.372   9.300   5.164  0.0259 -0.0576 -1.1373
  949MOL0     C25201   2.883   8.870   4.689 -0.0477  0.0047  0.2207
  949MOL0     C25202   2.794   8.917   4.580  0.9292 -0.3451 -0.7711
  949MOL0     H25203   2.643   9.163   4.109  1.0307 -1.1553  0.8309
  949MOL0     H25204   2.500   9.334   4.054 -1.0147  3.8473  0.4028
  949MOL0     H25205   2.318   9.486   4.066  1.2322 -1.3365 -2.9241
  949MOL0     H25206   2.438   9.575   3.986  0.8516 -2.0506  0.8920
  949MOL0     H25207   2.356   9.782   4.107  3.7114 -1.3166 -0.4652
  949MOL0     H25208   2.217   9.692   4.180  1.8573 -0.7247  0.3745
  949MOL0     H25209   2.121   9.647   3.954  0.2617  0.2376  1.9977
  949MOL0     H25210   2.266   9.703   3.880 -0.1944 -2.8206 -0.7196
  949MOL0     H25211   2.194   9.938   4.005 -1.5398  0.7368 -0.5476
  949MOL0     H25212   2.128   9.897   3.859  0.4664  1.4302  0.3647
  949MOL0     H25213   1.960   9.969   4.047 -0.3139  0.3026  2.4580
  949MOL0     H25214   1.997   9.813   4.134 -4.8467  0.3308 -0.2036
  949MOL0     H25215   1.890   9.694   4.002 -1.8079  0.2623  1.3766
  949MOL0     H25216   1.890   9.815   3.861  2.7379  2.0035  0.1045
  949MOL0     H25217   1.747   9.879   4.120  0.6074  1.0573  0.6820
  949MOL0     H25218   1.714   9.963   3.984 -0.6307  0.3864  1.4791
  949MOL0     H25219   1.523   9.808   4.023 -2.5352  0.4089 -2.6568
  949MOL0     H25220   1.626   9.667   3.994 -2.6979  0.0643  0.1233
  949MOL0     H25221   1.428   9.654   3.792  2.3253  0.1566  3.6774
  949MOL0     H25222   1.332   9.686   3.539 -1.2204  2.2750 -0.6945
  949MOL0     H25223   1.466   9.671   3.424 -1.8273 -0.8224  0.3775
  949MOL0     H25224   1.319   9.831   3.356 -1.2447  0.1834  1.4556
  949MOL0     H25225   1.477   9.907   3.401  2.9248 -3.9816  1.9097
  949MOL0     H25226   1.236   9.903   3.575  3.0459 -3.7553 -2.0002
  949MOL0     H25227   1.375   9.988   3.604  1.6168 -6.3395  1.9694
  949MOL0     H25228   1.344  10.144   3.419  0.0252  0.9414  1.4188
  949MOL0     H25229   1.200  10.150   3.520  0.2201 -1.3383  0.7391
  949MOL0     H25230   1.091  10.006   3.103 -2.4258  0.3349  0.5159
  949MOL0     H25231   1.028  10.167   2.937 -1.8971  3.1277 -0.1878
  949MOL0     H25232   0.837  10.653   2.865 -2.1809 -0.7516 -0.5596
  949MOL0     H25233   0.773  10.765   2.681 -0.7824 -0.6491 -2.7220
  949MOL0     H25234   0.791  10.595   2.272  3.4154 -1.7333 -1.0992
  949MOL0     H25235   0.950  10.665   2.272 -0.6772  1.2545 -4.3480
  949MOL0     H25236   0.867  10.876   2.194  1.4342 -1.8239 -2.2067
  949MOL0     H25237   0.699  10.846   2.243 -0.9042 -1.2967  2.2741
  949MOL0     H25238   0.690  10.678   2.046 -1.0800  1.0172  0.2536
  949MOL0     H25239   0.864  10.679   2.026 -0.2965  2.4208 -5.6495
  949MOL0     H25240   0.682  10.911   1.957 -0.4005 -0.0097 -0.6559
  949MOL0     H25241   0.851  10.937   1.957  1.1013  0.2455 -0.2719
  949MOL0     H25242   0.719  10.738   1.770  1.1906 -2.7542 -0.3741
  949MOL0     H25243   0.889  10.727   1.821  0.1630  0.8479  0.3117
  949MOL0     H25244   0.902  10.838   1.630 -2.7497 -2.5145 -0.1292
  949MOL0     H25245   0.919  10.965   1.753 -0.2729 -0.2560  2.3478
  949MOL0     H25246   0.694  11.041   1.737  0.7982 -2.0352  2.1489
  949MOL0     H25247   0.788  11.064   1.587 -4.0295  1.5512 -1.0442
  949MOL0     H25248   0.556  10.981   1.534 -0.9544 -0.7819 -0.2044
  949MOL0     H25249   0.582  10.847   1.652  2.0136 -0.4909  1.2124
  949MOL0     H25250   0.963  10.501   2.418 -1.1579  2.8655  0.1109
  949MOL0     H25251   1.025  10.347   2.617 -1.8520 -0.7991 -1.8544
  949MOL0     H25252   1.102  10.493   3.208 -0.1401 -0.9292 -0.0793
  949MOL0     H25253   1.144  10.321   3.383  2.1352  2.8840 -1.6752
  949MOL0     H25254   2.641   9.562   4.397  0.3376 -1.5390  2.3063
  949MOL0     H25255   2.803   9.391   4.429  3.0855  1.2335 -2.5158
  949MOL0     H25256   3.022   9.048   4.368  1.3307  1.5486  2.0414
  949MOL0     H25257   3.172   8.943   4.518  0.1008 -1.6432 -2.0676
  949MOL0     H25258   3.079   8.716   4.880 -0.3732  0.5615  0.0293
  949MOL0     H25259   2.991   8.867   4.923 -0.4115 -1.6943  1.5215
  949MOL0     H25260   3.159   8.815   5.097  3.2626  0.3015  0.1407
  949MOL0     H25261   3.285   8.801   4.981 -1.6277 -1.6445  0.1959
  949MOL0     H25262   3.142   9.077   5.011  0.1458  1.5554  0.9062
  949MOL0     H25263   3.295   9.037   4.948 -0.3116  0.7165  0.4352
  949MOL0     H25264   3.205   9.036   5.233  0.1921  0.6061 -1.0272
  949MOL0     H25265   3.369   8.984   5.186 -0.7388 -1.2369  2.2687
  949MOL0     H25266   3.417   9.397   5.169  0.2951 -0.2140 -0.3456
  949MOL0     H25267   2.839   8.838   4.783 -4.7134  0.7985 -1.4312
  949MOL0     H25268   2.689   8.895   4.591  1.2521 -1.5827  0.2024
  950MOL0     O25269   7.309   1.289   8.974 -0.6827  0.1370  0.0819
  950MOL0     C25270   7.356   1.186   9.017  1.2511 -0.0956  0.6649
  950MOL0     O25271   7.319   1.065   8.973  0.2139  0.7231  0.6577
  950MOL0     C25272   7.200   1.039   8.907  0.3542 -0.5013 -0.1323
  950MOL0     C25273   7.210   0.985   8.783  0.1782 -0.7536  0.3724
  950MOL0     C25274   7.090   0.965   8.704  0.1711  0.9493  0.6293
  950MOL0     C25275   6.965   0.990   8.751 -0.4008 -0.1016 -0.4560
  950MOL0     O25276   6.861   0.978   8.656  0.1330 -0.3917  0.5369
  950MOL0     C25277   6.724   0.990   8.690  0.3543  1.5069  0.9646
  950MOL0     C25278   6.639   0.942   8.570 -0.3768  0.3909 -0.7742
  950MOL0     C25279   6.678   1.000   8.439 -0.0613 -0.0633 -0.3935
  950MOL0     C25280   6.592   0.957   8.319 -0.1986 -1.1169  0.8590
  950MOL0     C25281   6.605   1.052   8.197 -0.1109 -0.1637  1.1404
  950MOL0     C25282   6.587   0.972   8.061  0.9874 -1.0433 -0.6191
  950MOL0     C25283   6.604   1.054   7.931 -0.0855  0.1569 -0.2212
  950MOL0     C25284   6.533   1.192   7.949 -0.1191 -0.2824 -0.6642
  950MOL0     N25285   6.533   1.276   7.826  0.0264 -0.6904  0.3976
  950MOL0     C25286   6.428   1.293   7.743  1.3968 -0.1286  0.2860
  950MOL0     C25287   6.467   1.379   7.644 -0.4409 -0.1869 -0.4968
  950MOL0     C25288   6.384   1.448   7.532 -0.9939 -0.6290  0.3244
  950MOL0     C25289   6.323   1.583   7.579  0.1007 -0.7456  0.1619
  950MOL0     C25290   6.271   1.653   7.456  1.0157 -0.0271  0.6680
  950MOL0     C25291   6.208   1.792   7.485 -0.0757 -0.4323  0.1407
  950MOL0     O25292   6.316   1.892   7.490 -0.9854  0.6053 -0.1435
  950MOL0     C25293   6.275   2.027   7.491 -0.7050 -0.1136 -0.8178
  950MOL0     C25294   6.375   2.123   7.506  0.2875  0.5003  0.1841
  950MOL0     C25295   6.345   2.267   7.510 -0.2419 -0.0661  0.5431
  950MOL0     C25296   6.218   2.313   7.472 -0.4871  0.1912  0.0235
  950MOL0     C25297   6.194   2.456   7.437 -0.2147  0.6502 -0.2576
  950MOL0     O25298   6.065   2.490   7.426  0.0719 -0.6252 -0.3502
  950MOL0     C25299   6.031   2.608   7.365 -0.2081  0.2171  0.1747
  950MOL0     C25300   5.921   2.684   7.417  0.1565  0.2531  0.1623
  950MOL0     C25301   5.877   2.803   7.351 -0.4022 -0.3328 -0.7832
  950MOL0     C25302   5.936   2.841   7.225  0.6728  0.1662 -0.3974
  950MOL0     O25303   5.893   2.956   7.168 -0.3666 -0.7274  1.0394
  950MOL0     C25304   5.978   3.072   7.203  0.3497 -1.1276  0.0688
  950MOL0     C25305   5.916   3.188   7.134 -0.4218 -0.9557  0.3092
  950MOL0     C25306   5.789   3.239   7.212 -0.3939  0.1189  0.0447
  950MOL0     C25307   5.730   3.358   7.144 -0.1599  0.3140  1.3495
  950MOL0     C25308   5.605   3.403   7.225 -0.6891  0.5931  0.8562
  950MOL0     C25309   5.519   3.508   7.150  0.0217  0.0249 -0.6552
  950MOL0     C25310   5.397   3.536   7.230  0.4903 -0.1307  0.4271
  950MOL0     C25311   5.305   3.624   7.138  0.1720 -0.0878 -0.1221
  950MOL0    Cl25312   5.365   3.799   7.122  0.6083 -0.1275  0.0711
  950MOL0     C25313   6.037   2.762   7.170 -0.3465 -0.1584 -0.1686
  950MOL0     C25314   6.092   2.653   7.240 -0.0921  0.5068  0.4910
  950MOL0     O25315   6.292   2.530   7.423  0.3159 -1.0248  0.1678
  950MOL0     C25316   6.118   2.218   7.464  0.5264  0.4174  0.4954
  950MOL0     C25317   6.143   2.080   7.480 -1.3868 -0.7790  0.8017
  950MOL0     N25318   6.600   1.403   7.663  0.1055  1.1471  0.2057
  950MOL0     N25319   6.634   1.347   7.779 -0.4372 -0.0012 -0.5384
  950MOL0     C25320   6.958   1.030   8.888  0.3026 -0.3404 -0.6451
  950MOL0     C25321   7.075   1.065   8.966  0.1248  0.7411 -0.4772
  950MOL0     C25322   7.468   1.191   9.112 -1.1697 -0.4446  0.5451
  950MOL0     C25323   7.575   1.102   9.111  0.3181 -0.8624  0.1500
  950MOL0     C25324   7.678   1.107   9.203  0.6032  0.9200 -0.4705
  950MOL0     C25325   7.671   1.206   9.302  0.3763 -0.0850  0.2417
  950MOL0     O25326   7.776   1.220   9.384  0.9409 -0.3437 -0.3611
  950MOL0     C25327   7.786   1.340   9.463  0.2100  1.1274  0.5043
  950MOL0     C25328   7.922   1.320   9.518  0.6529  0.7050 -0.5024
  950MOL0     C25329   7.966   1.450   9.599  1.2019  0.2150 -0.5209
  950MOL0     C25330   8.117   1.473   9.623  0.8325  0.8486  0.0097
  950MOL0     C25331   8.186   1.525   9.503  0.6273  0.4633  0.0352
  950MOL0     C25332   8.236   1.562   9.400  0.9890  0.2216  0.4629
  950MOL0     C25333   7.563   1.306   9.305 -0.8552  1.0130  0.0914
  950MOL0     C25334   7.473   1.299   9.205 -0.4541  0.8185 -1.1023
  950MOL0     H25335   7.312   0.973   8.745  0.8733 -0.8466  2.1924
  950MOL0     H25336   7.103   0.944   8.598  1.6740 -0.6628  1.0788
  950MOL0     H25337   6.707   1.095   8.716 -2.0971  1.2747  0.5526
  950MOL0     H25338   6.688   0.927   8.772  0.5355 -1.3687 -1.0071
  950MOL0     H25339   6.534   0.960   8.594 -0.4323  2.1313 -2.1196
  950MOL0     H25340   6.648   0.834   8.557  0.7137  0.4016 -0.2602
  950MOL0     H25341   6.772   0.951   8.412 -0.1725  1.0146 -3.0515
  950MOL0     H25342   6.696   1.108   8.446  0.6037 -0.1545 -0.5425
  950MOL0     H25343   6.605   0.852   8.290  0.3238 -1.7838  3.3054
  950MOL0     H25344   6.484   0.961   8.339 -0.7045  0.7242 -1.7361
  950MOL0     H25345   6.707   1.093   8.205 -0.2914  0.1376  2.0598
  950MOL0     H25346   6.523   1.123   8.213 -1.3724 -2.1146  4.3377
  950MOL0     H25347   6.487   0.929   8.071 -0.0603  1.4639  0.3615
  950MOL0     H25348   6.664   0.896   8.074  3.8098  1.5507 -0.9813
  950MOL0     H25349   6.712   1.068   7.919  0.3184 -0.6167  2.0064
  950MOL0     H25350   6.560   0.996   7.849 -2.5492  1.6734 -0.0575
  950MOL0     H25351   6.592   1.242   8.027  0.6736 -3.4315  0.8947
  950MOL0     H25352   6.433   1.177   7.991  0.9316  0.2014  2.2793
  950MOL0     H25353   6.332   1.243   7.746  1.6338 -0.8564 -1.9447
  950MOL0     H25354   6.305   1.379   7.499 -0.6451  0.2860 -2.7653
  950MOL0     H25355   6.447   1.459   7.443  0.8652  0.0518  1.6776
  950MOL0     H25356   6.393   1.652   7.626 -0.9071  2.2501 -2.3960
  950MOL0     H25357   6.240   1.568   7.649  2.3283  1.4237  3.5631
  950MOL0     H25358   6.362   1.666   7.396  0.8261 -0.7923  0.2044
  950MOL0     H25359   6.200   1.587   7.404 -0.4092  1.6310  0.4434
  950MOL0     H25360   6.151   1.790   7.578  3.5581 -0.8347  2.5839
  950MOL0     H25361   6.137   1.830   7.410  0.5662  1.9775  0.6783
  950MOL0     H25362   6.475   2.086   7.524 -0.0141  0.3736  1.7915
  950MOL0     H25363   6.430   2.329   7.535  0.9292 -0.7483 -1.5219
  950MOL0     H25364   5.875   2.635   7.502 -3.7823  1.3026 -1.1880
  950MOL0     H25365   5.797   2.863   7.393 -0.4400 -2.1652  1.9954
  950MOL0     H25366   6.081   3.072   7.169  0.4682 -1.3119  0.4171
  950MOL0     H25367   5.970   3.089   7.311 -1.7539  0.8658 -0.3121
  950MOL0     H25368   5.888   3.156   7.033  0.9296 -1.3668  0.0428
  950MOL0     H25369   5.981   3.274   7.114 -2.5877  1.1258  1.7091
  950MOL0     H25370   5.801   3.265   7.317 -0.2649 -4.3574  1.3473
  950MOL0     H25371   5.711   3.163   7.199 -0.3826 -0.3074  2.2370
  950MOL0     H25372   5.801   3.440   7.130 -2.4585  2.7088  2.7232
  950MOL0     H25373   5.693   3.329   7.046 -0.7766  2.6632  0.8364
  950MOL0     H25374   5.644   3.449   7.316  1.4384  2.8011 -1.0153
  950MOL0     H25375   5.549   3.311   7.243  0.8421 -0.3489  1.0034
  950MOL0     H25376   5.496   3.470   7.051  1.0311  1.1952 -1.3774
  950MOL0     H25377   5.581   3.599   7.150 -0.4915  0.5789  3.4418
  950MOL0     H25378   5.340   3.449   7.266 -0.2680  0.5241  0.8550
  950MOL0     H25379   5.428   3.579   7.326 -0.5172  0.5182  0.4782
  950MOL0     H25380   5.204   3.633   7.179 -0.6846  1.1933 -2.2879
  950MOL0     H25381   5.301   3.568   7.043  1.4230 -1.8486  0.8070
  950MOL0     H25382   6.079   2.781   7.072  1.0042 -1.0255  0.2188
  950MOL0     H25383   6.158   2.584   7.187 -1.3970  1.8453 -3.1740
  950MOL0     H25384   6.022   2.253   7.429  0.5785 -0.6840 -0.8473
  950MOL0     H25385   6.050   2.023   7.485 -2.7290  1.1230 -0.7407
  950MOL0     H25386   6.857   1.054   8.922 -0.5777 -1.6315 -2.2068
  950MOL0     H25387   7.059   1.090   9.070 -1.9471  2.0519 -1.0437
  950MOL0     H25388   7.575   1.024   9.035 -1.0197 -1.5353  0.7995
  950MOL0     H25389   7.760   1.036   9.208 -0.4695 -0.5700 -2.4805
  950MOL0     H25390   7.718   1.343   9.549  0.8044 -1.1725  1.1229
  950MOL0     H25391   7.778   1.437   9.412 -1.9426 -0.1299 -1.7823
  950MOL0     H25392   7.935   1.224   9.570  1.7493  2.3570  2.5865
  950MOL0     H25393   7.982   1.308   9.428 -1.2409  0.4898 -1.7886
  950MOL0     H25394   7.924   1.443   9.700 -1.7484 -0.1466 -1.6542
  950MOL0     H25395   7.923   1.533   9.541  0.1532 -0.6876 -1.0845
  950MOL0     H25396   8.119   1.532   9.714 -0.4328 -3.2610  3.0187
  950MOL0     H25397   8.170   1.382   9.653  0.2026  2.2811  7.0808
  950MOL0     H25398   8.270   1.576   9.300  4.4997 -3.2969  0.8841
  950MOL0     H25399   7.563   1.396   9.365 -4.0360  1.2840 -0.1573
  950MOL0     H25400   7.394   1.373   9.214 -0.8117  0.1888  2.3129
  951MOL0     O25401  10.904   8.947   4.189 -0.0895 -0.1763 -0.6362
  951MOL0     C25402  10.960   8.916   4.090 -0.0553 -0.9444  0.7163
  951MOL0     O25403  10.915   8.944   3.967  0.9408  0.7535  0.1476
  951MOL0     C25404  10.799   9.015   3.926 -0.2793 -0.7572 -1.2955
  951MOL0     C25405  10.781   9.045   3.787 -0.4056  0.1506  0.4899
  951MOL0     C25406  10.668   9.114   3.745  0.1172 -0.1504 -0.2624
  951MOL0     C25407  10.571   9.144   3.831 -0.6159 -0.6842 -0.4750
  951MOL0     O25408  10.459   9.212   3.789  0.1596  0.4475 -0.4433
  951MOL0     C25409  10.401   9.175   3.665  0.1444  0.3681 -0.2998
  951MOL0     C25410  10.264   9.218   3.657  1.0129  0.3612  0.1976
  951MOL0     C25411  10.211   9.168   3.519  0.4490 -0.7708 -0.0480
  951MOL0     C25412  10.064   9.231   3.490 -0.7535  0.4719 -0.5846
  951MOL0     C25413   9.998   9.170   3.366  0.4176  1.0084  0.4437
  951MOL0     C25414  10.019   9.019   3.339  0.0352 -0.3089 -0.9706
  951MOL0     C25415   9.925   8.966   3.232 -0.2349 -0.1239  0.0427
  951MOL0     C25416   9.924   8.818   3.210 -0.6152 -0.1395 -0.1448
  951MOL0     N25417  10.067   8.782   3.175 -0.0266  0.2912 -0.2823
  951MOL0     C25418  10.134   8.823   3.060  0.4523  0.3971 -0.1158
  951MOL0     C25419  10.247   8.751   3.062 -1.0845 -0.3959 -0.2053
  951MOL0     C25420  10.344   8.756   2.940 -0.7524  0.3078 -0.2347
  951MOL0     C25421  10.466   8.836   2.973  0.7988 -0.2352 -0.0827
  951MOL0     C25422  10.562   8.777   3.064  0.2227  0.2017 -0.0419
  951MOL0     C25423  10.664   8.883   3.108 -0.3947 -0.7298 -0.0036
  951MOL0     O25424  10.617   8.963   3.222 -0.8559 -0.2331  0.7990
  951MOL0     C25425  10.579   8.905   3.343 -0.6229 -0.5343 -0.2643
  951MOL0     C25426  10.672   8.877   3.444  0.0004  1.0517 -0.4686
  951MOL0     C25427  10.622   8.816   3.561  0.4206  0.4317  0.1279
  951MOL0     C25428  10.479   8.795   3.582  0.7183 -0.4845  0.2795
  951MOL0     C25429  10.436   8.738   3.713  0.4239  0.6668  0.7532
  951MOL0     O25430  10.536   8.690   3.794 -1.0109 -0.3172  0.6018
  951MOL0     C25431  10.508   8.644   3.923  0.4545  0.3653 -0.0961
  951MOL0     C25432  10.586   8.684   4.021 -0.1293  0.3466 -0.6433
  951MOL0     C25433  10.570   8.641   4.161 -0.2054  0.2699  1.0234
  951MOL0     C25434  10.479   8.536   4.194 -0.2532 -0.9467 -0.6550
  951MOL0     O25435  10.495   8.502   4.330  0.5099 -0.1946  0.1731
  951MOL0     C25436  10.479   8.360   4.359  0.6586 -0.6355 -0.0180
  951MOL0     C25437  10.544   8.316   4.489  0.5603  0.9012  1.0486
  951MOL0     C25438  10.516   8.166   4.522 -0.0425 -0.0066 -0.6054
  951MOL0     C25439  10.593   8.108   4.651 -0.7799 -0.3080  0.5360
  951MOL0     C25440  10.652   7.967   4.643  0.1811  0.2287 -0.8320
  951MOL0     C25441  10.542   7.859   4.612  0.7773 -0.5458  0.8070
  951MOL0     C25442  10.599   7.722   4.647  1.1173  0.5842  0.9339
  951MOL0     C25443  10.536   7.608   4.573 -0.4583  0.2742 -0.8689
  951MOL0    Cl25444  10.510   7.656   4.395  0.3035 -0.1930 -0.2485
  951MOL0     C25445  10.404   8.484   4.093 -0.5085  0.2119  0.1022
  951MOL0     C25446  10.421   8.535   3.958 -0.5901 -0.0107 -0.4633
  951MOL0     O25447  10.323   8.766   3.751 -0.0667  0.5394 -0.2046
  951MOL0     C25448  10.387   8.834   3.479 -0.2382  0.2023  0.2116
  951MOL0     C25449  10.444   8.893   3.365 -0.2143  0.1705  0.1409
  951MOL0     N25450  10.262   8.677   3.177 -0.1299 -0.2692  0.5047
  951MOL0     N25451  10.145   8.686   3.236 -0.2886 -0.2085  0.3914
  951MOL0     C25452  10.584   9.121   3.967  0.3072  0.2854 -1.1309
  951MOL0     C25453  10.691   9.051   4.020 -0.8173 -0.0929  1.0023
  951MOL0     C25454  11.074   8.815   4.110  1.0994  0.6345  0.1460
  951MOL0     C25455  11.112   8.730   4.005 -0.5920 -0.1972 -0.7092
  951MOL0     C25456  11.217   8.638   4.026  0.2489 -0.2011  0.4549
  951MOL0     C25457  11.287   8.628   4.156 -0.0306 -1.1901  0.5318
  951MOL0     O25458  11.392   8.545   4.202 -0.6118 -0.0334 -1.0380
  951MOL0     C25459  11.438   8.433   4.120 -0.2507 -0.6721  0.3405
  951MOL0     C25460  11.517   8.328   4.195  0.5523 -1.0641  0.5385
  951MOL0     C25461  11.514   8.193   4.119 -0.0476 -0.0090 -0.2368
  951MOL0     C25462  11.605   8.196   3.991 -0.2616 -0.5065 -1.1051
  951MOL0     C25463  11.654   8.066   3.974 -1.3348 -0.3273 -1.0289
  951MOL0     C25464  11.717   7.964   3.952 -0.3495  0.6878  0.9467
  951MOL0     C25465  11.253   8.722   4.244  0.0888  0.8938 -0.3938
  951MOL0     C25466  11.148   8.812   4.232 -0.1080 -0.1332  0.1026
  951MOL0     H25467  10.866   9.013   3.727 -0.2354 -0.8649  1.2426
  951MOL0     H25468  10.670   9.144   3.641 -0.8661  0.5089 -0.1084
  951MOL0     H25469  10.400   9.066   3.659 -0.5203  0.3430  0.1635
  951MOL0     H25470  10.451   9.210   3.574 -1.5025  2.1883 -0.5660
  951MOL0     H25471  10.258   9.327   3.664  1.3075  0.3158  1.3762
  951MOL0     H25472  10.208   9.176   3.741  1.3413  0.1795  0.3294
  951MOL0     H25473  10.197   9.060   3.511 -1.1779 -0.6349  0.5878
  951MOL0     H25474  10.287   9.196   3.446 -0.4253 -1.3409 -1.1938
  951MOL0     H25475  10.008   9.223   3.583 -3.4335 -0.1630 -2.1461
  951MOL0     H25476  10.072   9.338   3.472  2.9155  0.2350 -1.2363
  951MOL0     H25477  10.045   9.219   3.280  2.4899 -0.4057  0.7027
  951MOL0     H25478   9.889   9.183   3.370 -0.2667 -3.3567  0.8781
  951MOL0     H25479   9.994   8.964   3.430  2.5439  0.0987  0.0440
  951MOL0     H25480  10.125   9.002   3.320  1.2502  1.5322  2.9957
  951MOL0     H25481   9.821   8.983   3.258  0.1482  1.2086  0.7734
  951MOL0     H25482   9.955   9.005   3.134  2.0610 -0.5878  0.5088
  951MOL0     H25483   9.855   8.800   3.126 -2.0511  0.2872  0.9103
  951MOL0     H25484   9.887   8.765   3.298  0.1418 -0.1942  0.1501
  951MOL0     H25485  10.106   8.901   2.990 -1.8989 -0.4082 -0.1454
  951MOL0     H25486  10.295   8.795   2.850  0.3318  0.4343 -0.7819
  951MOL0     H25487  10.386   8.660   2.909 -0.7550  1.1324 -3.0883
  951MOL0     H25488  10.444   8.937   3.009  0.3662  0.0866 -1.2110
  951MOL0     H25489  10.518   8.863   2.880  0.9567  0.5619  0.2277
  951MOL0     H25490  10.511   8.726   3.146 -0.8576 -1.4405 -1.6520
  951MOL0     H25491  10.619   8.696   3.018  2.2221 -0.2589  2.9425
  951MOL0     H25492  10.698   8.938   3.020  2.7772 -0.6174  1.1897
  951MOL0     H25493  10.752   8.841   3.156 -1.3938 -1.0603  1.6157
  951MOL0     H25494  10.780   8.881   3.439  0.3178 -3.6202 -0.9521
  951MOL0     H25495  10.698   8.777   3.627 -1.6485 -5.2948 -0.2823
  951MOL0     H25496  10.667   8.754   4.004  0.4579  0.4357  2.0617
  951MOL0     H25497  10.636   8.693   4.231 -2.1170  0.3106  2.9041
  951MOL0     H25498  10.517   8.300   4.275  3.0734 -0.7355  1.0513
  951MOL0     H25499  10.371   8.351   4.371  0.8165 -0.7905  1.5679
  951MOL0     H25500  10.506   8.368   4.578 -0.1552 -2.7103  3.0381
  951MOL0     H25501  10.653   8.321   4.482  0.5030  0.7046 -0.1726
  951MOL0     H25502  10.539   8.101   4.437 -3.1942  0.5663 -2.0330
  951MOL0     H25503  10.410   8.148   4.540  0.5867 -4.0333 -0.0479
  951MOL0     H25504  10.678   8.174   4.669  0.7577 -0.5229 -4.3631
  951MOL0     H25505  10.521   8.113   4.733 -0.0417  0.9923  1.1229
  951MOL0     H25506  10.685   7.950   4.746  0.0763  1.8862 -0.4883
  951MOL0     H25507  10.744   7.945   4.588  0.7119 -1.3666  0.5936
  951MOL0     H25508  10.518   7.867   4.505  1.7003  1.3215  0.6957
  951MOL0     H25509  10.453   7.876   4.673 -1.0992 -0.5041 -1.7833
  951MOL0     H25510  10.703   7.716   4.614  1.6593  0.0456  2.6326
  951MOL0     H25511  10.596   7.710   4.756  2.2463  0.3167  0.9458
  951MOL0     H25512  10.440   7.591   4.624 -1.0970  1.9165 -1.4507
  951MOL0     H25513  10.592   7.514   4.578 -2.5945 -0.9932  2.6624
  951MOL0     H25514  10.334   8.408   4.125 -0.0624 -0.9997 -1.6415
  951MOL0     H25515  10.360   8.478   3.889  0.9003 -1.4748 -0.6421
  951MOL0     H25516  10.280   8.824   3.488 -0.9178  3.8683 -2.0164
  951MOL0     H25517  10.393   8.906   3.271  0.1922 -2.7362 -0.5726
  951MOL0     H25518  10.512   9.160   4.038  2.5433  0.9042  0.9203
  951MOL0     H25519  10.697   9.040   4.128  0.3087 -0.0128  0.9565
  951MOL0     H25520  11.083   8.718   3.901 -0.1548  0.9694 -0.9837
  951MOL0     H25521  11.245   8.574   3.943  1.7699  1.1199 -0.0940
  951MOL0     H25522  11.480   8.466   4.025 -1.7316 -2.7410 -1.1045
  951MOL0     H25523  11.352   8.375   4.086  0.6868 -1.9216  0.0207
  951MOL0     H25524  11.620   8.359   4.216  0.2246  0.0401  0.5931
  951MOL0     H25525  11.483   8.318   4.299 -3.4210  1.6434 -0.2937
  951MOL0     H25526  11.411   8.172   4.089 -0.2334  2.6806 -1.7891
  951MOL0     H25527  11.533   8.119   4.197 -1.0334 -0.4605 -0.4088
  951MOL0     H25528  11.547   8.229   3.904 -0.4634  4.6839  0.6321
  951MOL0     H25529  11.692   8.260   4.012 -1.4962  1.6529 -2.1973
  951MOL0     H25530  11.790   7.889   3.931 -0.5667  0.7880 -0.2405
  951MOL0     H25531  11.300   8.720   4.342 -1.4398 -1.1533  0.3645
  951MOL0     H25532  11.123   8.886   4.308 -0.8221 -2.1008  1.8804
  952MOL0     O25533   0.036   6.802   2.558  0.1742 -0.1682  0.8102
  952MOL0     C25534   0.107   6.890   2.619  0.6479  1.2449  0.4805
  952MOL0     O25535   0.046   6.999   2.673 -0.3271  0.1574 -0.0752
  952MOL0     C25536  -0.092   7.013   2.662 -0.2781 -0.4448  0.7951
  952MOL0     C25537  -0.182   6.965   2.757 -0.2531 -0.3506 -0.3451
  952MOL0     C25538  -0.321   6.981   2.744 -0.1783 -0.2436  0.8239
  952MOL0     C25539  -0.374   7.036   2.626  0.1968 -0.2278  0.4268
  952MOL0     O25540  -0.508   7.021   2.601 -0.4389  0.3110  0.0664
  952MOL0     C25541  -0.554   6.880   2.634 -0.2061  0.3827  0.1980
  952MOL0     C25542  -0.676   6.835   2.553 -0.4109  0.6292  0.2392
  952MOL0     C25543  -0.798   6.917   2.582  0.0804 -0.3160  0.0583
  952MOL0     C25544  -0.910   6.879   2.481 -0.7186  0.7252 -0.7887
  952MOL0     C25545  -1.050   6.920   2.528 -0.0977  0.2393 -0.2503
  952MOL0     C25546  -1.086   7.069   2.499 -0.4906 -0.6823 -0.2083
  952MOL0     C25547  -1.221   7.117   2.527  0.4028  0.1628  0.2243
  952MOL0     C25548  -1.253   7.256   2.485 -0.5132 -1.3770  0.7049
  952MOL0     N25549  -1.165   7.358   2.545 -0.2282  0.1295  0.0880
  952MOL0     C25550  -1.170   7.393   2.681 -0.1313  0.0049  0.9607
  952MOL0     C25551  -1.067   7.494   2.683  0.6621 -0.1463 -0.6392
  952MOL0     C25552  -1.030   7.565   2.806  0.0522  0.0996  0.3037
  952MOL0     C25553  -1.146   7.601   2.897 -0.2483 -0.6495  0.2405
  952MOL0     C25554  -1.106   7.704   3.003  0.1932  0.7639  0.7461
  952MOL0     C25555  -1.222   7.754   3.090 -0.0568 -0.2838  0.5953
  952MOL0     O25556  -1.174   7.861   3.167  0.6393 -0.4339  0.3571
  952MOL0     C25557  -1.270   7.952   3.212 -0.6545 -0.0607 -0.2645
  952MOL0     C25558  -1.411   7.938   3.212 -0.8609 -0.3616 -0.5385
  952MOL0     C25559  -1.486   8.046   3.266  0.8363 -0.0031  0.2235
  952MOL0     C25560  -1.421   8.157   3.326  0.4388 -0.3790 -0.3946
  952MOL0     C25561  -1.491   8.277   3.370 -1.4991 -0.5292  0.6000
  952MOL0     O25562  -1.417   8.386   3.421 -0.4639  0.1624  0.5707
  952MOL0     C25563  -1.458   8.491   3.503 -0.1799  0.1461 -0.2681
  952MOL0     C25564  -1.366   8.596   3.526  0.1887 -0.9158 -0.1847
  952MOL0     C25565  -1.401   8.711   3.601 -0.1410  0.6570 -0.7589
  952MOL0     C25566  -1.524   8.718   3.663  0.2596  0.1528  0.3751
  952MOL0     O25567  -1.582   8.822   3.727 -0.3606  0.2301  0.6870
  952MOL0     C25568  -1.491   8.917   3.787  0.1832 -0.3084 -0.0485
  952MOL0     C25569  -1.434   8.856   3.911  0.0010  0.5551  0.9192
  952MOL0     C25570  -1.331   8.956   3.961 -1.2924 -0.0079  0.0853
  952MOL0     C25571  -1.269   8.898   4.082 -0.2735 -0.6272  0.2396
  952MOL0     C25572  -1.159   8.977   4.159  0.2765 -0.5121  0.3140
  952MOL0     C25573  -1.097   8.899   4.275  0.3540  0.5401  0.4726
  952MOL0     C25574  -0.953   8.946   4.293  0.2528 -0.4058  0.1847
  952MOL0     C25575  -0.893   8.913   4.428  0.2331  0.1247  0.5630
  952MOL0    Cl25576  -0.983   9.012   4.548 -0.2572 -0.0801  0.0324
  952MOL0     C25577  -1.612   8.614   3.639 -0.9136  0.0439 -0.3045
  952MOL0     C25578  -1.589   8.506   3.556 -0.3259  0.1821  0.0040
  952MOL0     O25579  -1.614   8.274   3.355 -0.4910  0.7228  0.0292
  952MOL0     C25580  -1.276   8.156   3.333  0.4437  0.4765 -0.3030
  952MOL0     C25581  -1.208   8.053   3.284  0.2211  0.7008 -0.3860
  952MOL0     N25582  -1.017   7.507   2.559  0.1164  0.0233 -0.7805
  952MOL0     N25583  -1.079   7.431   2.474 -0.2820  0.1427  0.1755
  952MOL0     C25584  -0.282   7.082   2.529  0.2072 -0.4694  0.3386
  952MOL0     C25585  -0.143   7.074   2.543  0.3285  0.6290 -1.3598
  952MOL0     C25586   0.257   6.892   2.612  0.8204  0.0563 -0.3560
  952MOL0     C25587   0.332   6.780   2.630 -0.7070 -0.1706 -0.7476
  952MOL0     C25588   0.467   6.779   2.640  0.6890 -0.5451  0.0446
  952MOL0     C25589   0.537   6.891   2.595  0.3832  0.0122 -0.3618
  952MOL0     O25590   0.671   6.882   2.581  0.5470  0.4003 -0.6552
  952MOL0     C25591   0.751   7.003   2.616  1.0991  0.2961  0.1549
  952MOL0     C25592   0.763   7.008   2.766 -0.2506  0.1490 -0.3537
  952MOL0     C25593   0.834   6.880   2.815  0.1622  0.6361 -0.1597
  952MOL0     C25594   0.964   6.863   2.737  0.0496  0.6938 -0.9011
  952MOL0     C25595   1.057   6.973   2.743 -0.7266  0.5043  0.0697
  952MOL0     C25596   1.136   7.065   2.741 -0.5999 -0.3016 -0.7561
  952MOL0     C25597   0.462   7.014   2.574 -0.6895  0.2662 -0.6013
  952MOL0     C25598   0.326   7.010   2.584  1.0351  0.6104  0.5581
  952MOL0     H25599  -0.146   6.925   2.851 -0.1930  0.5156  0.0069
  952MOL0     H25600  -0.383   6.929   2.816  3.2718 -3.3331  1.8692
  952MOL0     H25601  -0.583   6.876   2.739 -1.7197 -1.4677 -0.2456
  952MOL0     H25602  -0.474   6.811   2.607 -2.2436 -0.9865 -2.9611
  952MOL0     H25603  -0.698   6.732   2.584  3.4174 -0.8459 -1.2210
  952MOL0     H25604  -0.651   6.831   2.447  2.0186 -1.2106  0.7789
  952MOL0     H25605  -0.775   7.024   2.586 -3.3288  0.5918 -1.6573
  952MOL0     H25606  -0.838   6.898   2.683 -2.8650  0.7729 -0.8068
  952MOL0     H25607  -0.880   6.925   2.386  0.2858 -0.6678 -1.1760
  952MOL0     H25608  -0.900   6.775   2.451  1.7939  0.4804  0.6209
  952MOL0     H25609  -1.066   6.893   2.632 -2.1538 -1.4140 -0.9229
  952MOL0     H25610  -1.118   6.861   2.466 -0.7699  1.5560 -0.7931
  952MOL0     H25611  -1.063   7.083   2.393  2.3901 -1.4241  0.2356
  952MOL0     H25612  -1.017   7.131   2.559 -3.2433 -0.4983  3.0828
  952MOL0     H25613  -1.275   7.036   2.477 -1.3822  0.6737  1.2527
  952MOL0     H25614  -1.227   7.113   2.637  2.5446  1.2147  0.4301
  952MOL0     H25615  -1.357   7.283   2.508 -0.3943 -1.6059  1.5411
  952MOL0     H25616  -1.250   7.262   2.376 -0.6865 -0.8959  0.7231
  952MOL0     H25617  -1.219   7.343   2.764  0.6880 -2.2997  0.1420
  952MOL0     H25618  -0.974   7.653   2.771 -0.4833  1.7757  3.3656
  952MOL0     H25619  -0.965   7.490   2.854  2.5628 -0.0981 -2.9989
  952MOL0     H25620  -1.170   7.517   2.963  1.5049 -0.8937  0.6136
  952MOL0     H25621  -1.228   7.637   2.834 -1.4669  0.2207  2.2440
  952MOL0     H25622  -1.035   7.655   3.071 -1.1316  0.5193  2.0058
  952MOL0     H25623  -1.073   7.791   2.945 -1.8483  3.5930  3.4887
  952MOL0     H25624  -1.258   7.667   3.146 -0.6848 -1.5992 -1.7315
  952MOL0     H25625  -1.304   7.790   3.027 -1.1727  0.2143  2.2646
  952MOL0     H25626  -1.464   7.858   3.161 -1.7752  1.4263 -2.5494
  952MOL0     H25627  -1.594   8.047   3.269  0.8510 -0.0700  2.4771
  952MOL0     H25628  -1.270   8.583   3.478  1.2819 -0.0192  1.6803
  952MOL0     H25629  -1.319   8.782   3.592  0.8100 -0.5125 -1.7036
  952MOL0     H25630  -1.559   8.995   3.820  0.3713  1.1919 -2.9141
  952MOL0     H25631  -1.406   8.953   3.728  1.5651 -1.3382  1.2249
  952MOL0     H25632  -1.369   8.774   3.878 -3.4392 -1.3115 -2.0536
  952MOL0     H25633  -1.507   8.817   3.984 -2.4761  0.1138 -1.6325
  952MOL0     H25634  -1.381   9.050   3.985 -1.1841 -0.3504  1.7888
  952MOL0     H25635  -1.252   8.971   3.888 -0.3147 -1.8862  0.6934
  952MOL0     H25636  -1.350   8.880   4.154 -1.3805  1.6079 -0.3560
  952MOL0     H25637  -1.228   8.797   4.069  2.5685  0.5478 -0.5200
  952MOL0     H25638  -1.213   9.067   4.192 -1.2784 -0.5320 -1.9284
  952MOL0     H25639  -1.079   9.020   4.097 -1.9783  2.4820 -0.7823
  952MOL0     H25640  -1.099   8.791   4.258  2.5251  0.1926  2.0449
  952MOL0     H25641  -1.161   8.908   4.364  1.0215 -1.1317  1.1676
  952MOL0     H25642  -0.888   8.916   4.210  2.9396  3.2663  0.7014
  952MOL0     H25643  -0.949   9.054   4.279 -0.7964 -0.4561 -0.6494
  952MOL0     H25644  -0.785   8.930   4.432 -0.0126  1.6612  1.5215
  952MOL0     H25645  -0.915   8.808   4.446 -0.7356  0.2149 -0.0223
  952MOL0     H25646  -1.710   8.625   3.684 -1.3580  0.5771 -1.3650
  952MOL0     H25647  -1.674   8.446   3.526  0.8452 -0.8099 -1.5225
  952MOL0     H25648  -1.218   8.239   3.373 -2.1587  1.7057  1.2303
  952MOL0     H25649  -1.100   8.060   3.277  0.1690  2.8105  0.2416
  952MOL0     H25650  -0.324   7.123   2.438 -1.3867 -0.4385  1.0488
  952MOL0     H25651  -0.070   7.109   2.471  1.1752  3.4381  0.6865
  952MOL0     H25652   0.281   6.690   2.664 -1.0912  0.4290  0.3344
  952MOL0     H25653   0.510   6.684   2.668  1.6027 -0.2467 -0.2759
  952MOL0     H25654   0.699   7.089   2.572 -0.4688  0.1774  1.6443
  952MOL0     H25655   0.847   7.004   2.563  2.0770 -2.6477  1.6251
  952MOL0     H25656   0.814   7.096   2.807 -3.0153  2.9735 -2.5363
  952MOL0     H25657   0.662   7.005   2.807 -0.1004 -2.0478  0.0188
  952MOL0     H25658   0.760   6.800   2.816 -1.2155  1.8263  1.9518
  952MOL0     H25659   0.870   6.899   2.917 -0.4507  1.7854 -0.1423
  952MOL0     H25660   1.006   6.779   2.794 -0.6737  0.6233 -0.4608
  952MOL0     H25661   0.944   6.816   2.640 -2.5729 -0.0342 -0.0824
  952MOL0     H25662   1.220   7.129   2.760 -1.8038  0.7181  1.6512
  952MOL0     H25663   0.502   7.108   2.538 -1.6205  1.0214  0.3085
  952MOL0     H25664   0.275   7.102   2.557 -0.5242 -1.2010 -3.2900
  953MOL0     O25665   7.187   6.890   5.574  0.1126  0.7925 -0.1366
  953MOL0     C25666   7.158   6.998   5.628  0.0104 -1.6047 -0.3383
  953MOL0     O25667   7.203   7.035   5.746  0.6106 -0.6503  0.3445
  953MOL0     C25668   7.282   6.948   5.818  0.6199  0.6892 -0.4213
  953MOL0     C25669   7.399   7.004   5.859  0.1990  0.2148  1.0227
  953MOL0     C25670   7.489   6.934   5.941  0.3542 -0.1429 -1.2917
  953MOL0     C25671   7.466   6.800   5.970 -0.9627 -0.1715  0.1503
  953MOL0     O25672   7.566   6.742   6.050  0.2285  0.8078  0.6863
  953MOL0     C25673   7.535   6.623   6.124  0.4832 -0.4401  0.2496
  953MOL0     C25674   7.529   6.487   6.061  0.0602  0.2147  0.4308
  953MOL0     C25675   7.454   6.382   6.148 -0.4645 -0.8438  0.2721
  953MOL0     C25676   7.530   6.364   6.274  0.0204  0.0228 -0.6406
  953MOL0     C25677   7.676   6.319   6.278  0.3322  0.6775  0.0909
  953MOL0     C25678   7.721   6.191   6.204 -0.2176 -0.4997  0.1274
  953MOL0     C25679   7.855   6.137   6.239  0.6504  0.0691  0.0765
  953MOL0     C25680   7.912   6.043   6.129 -1.0531  0.1376  0.1746
  953MOL0     N25681   7.830   5.939   6.068  0.4866  0.3281 -0.1553
  953MOL0     C25682   7.741   5.956   5.958 -0.0261 -0.2984  0.3918
  953MOL0     C25683   7.677   5.835   5.951  0.4753 -0.8629 -0.6661
  953MOL0     C25684   7.586   5.802   5.839  0.4796 -0.9194  0.3300
  953MOL0     C25685   7.446   5.785   5.901 -0.4335 -0.2063 -0.0905
  953MOL0     C25686   7.380   5.912   5.941 -0.3941 -0.6019 -0.8441
  953MOL0     C25687   7.263   5.898   6.033 -0.4950 -0.0982 -0.2087
  953MOL0     O25688   7.147   5.922   5.959 -0.6937 -1.1271 -0.4556
  953MOL0     C25689   7.102   6.052   5.952  0.6156  0.3997 -0.2206
  953MOL0     C25690   7.150   6.167   6.024 -1.3763  0.5394  0.1744
  953MOL0     C25691   7.077   6.283   6.014  0.7245 -0.3635 -0.2934
  953MOL0     C25692   6.983   6.299   5.913  0.0133  0.3141  0.3891
  953MOL0     C25693   6.905   6.428   5.894  0.2860  0.0097  0.5856
  953MOL0     O25694   6.868   6.457   5.761 -0.1017  0.0487  0.6577
  953MOL0     C25695   6.802   6.571   5.731 -0.5312 -0.0848  0.3361
  953MOL0     C25696   6.663   6.581   5.695 -0.0192  1.1511 -0.7924
  953MOL0     C25697   6.606   6.705   5.661  0.5547  0.1264 -0.7492
  953MOL0     C25698   6.678   6.816   5.651 -0.1006  0.0774 -0.2901
  953MOL0     O25699   6.635   6.928   5.583 -0.0653 -0.4277  0.6063
  953MOL0     C25700   6.671   7.050   5.642 -0.0562  0.3472 -0.1614
  953MOL0     C25701   6.597   7.075   5.775 -0.0740  0.3002 -0.9296
  953MOL0     C25702   6.620   7.214   5.832 -0.4098  0.0912 -0.4897
  953MOL0     C25703   6.762   7.252   5.872 -0.5481 -0.4075  0.8676
  953MOL0     C25704   6.772   7.383   5.940  0.0470 -0.4919  0.9188
  953MOL0     C25705   6.750   7.375   6.096 -0.1168  0.0573 -0.4372
  953MOL0     C25706   6.781   7.511   6.165  0.2749 -0.4013  0.0384
  953MOL0     C25707   6.938   7.538   6.173 -0.4209  0.4839  0.3493
  953MOL0    Cl25708   6.928   7.650   6.312 -0.1422 -0.4121  0.0233
  953MOL0     C25709   6.815   6.811   5.683  0.0041 -0.9930  0.9275
  953MOL0     C25710   6.882   6.691   5.715 -0.4281 -0.4459 -0.0662
  953MOL0     O25711   6.888   6.507   5.987 -0.8735 -0.1191  0.4665
  953MOL0     C25712   6.939   6.193   5.827  0.1724  0.4427 -1.2782
  953MOL0     C25713   6.991   6.063   5.850 -0.7246  0.4382 -0.6557
  953MOL0     N25714   7.723   5.739   6.039  0.3936 -0.1582 -0.6830
  953MOL0     N25715   7.821   5.799   6.105  0.4078 -0.3673 -0.4529
  953MOL0     C25716   7.354   6.741   5.923 -0.1434 -0.2058  0.1892
  953MOL0     C25717   7.261   6.818   5.841  0.6747  0.1728  0.2823
  953MOL0     C25718   7.061   7.088   5.551 -0.6534 -0.6320  0.0593
  953MOL0     C25719   6.999   7.045   5.429 -0.4502 -0.1356 -0.0640
  953MOL0     C25720   6.932   7.135   5.353  0.4084 -0.5493  0.8528
  953MOL0     C25721   6.912   7.270   5.401  0.4774 -0.0308 -0.4986
  953MOL0     O25722   6.815   7.348   5.337  0.3973  0.3702  0.0270
  953MOL0     C25723   6.802   7.482   5.376  0.9392  1.0400  0.4566
  953MOL0     C25724   6.708   7.508   5.493  0.8135 -0.3617  0.0662
  953MOL0     C25725   6.671   7.653   5.506  0.1201 -0.9877 -0.0750
  953MOL0     C25726   6.596   7.689   5.635 -0.1996  0.0064 -0.2939
  953MOL0     C25727   6.688   7.710   5.754 -0.8603 -0.1410  0.0025
  953MOL0     C25728   6.772   7.713   5.849 -0.0329  0.1053 -0.3382
  953MOL0     C25729   6.962   7.307   5.533 -0.1827 -0.2200 -1.1948
  953MOL0     C25730   7.036   7.219   5.613 -0.0423  0.4130  0.4092
  953MOL0     H25731   7.402   7.110   5.839  0.0538 -0.0549 -0.5626
  953MOL0     H25732   7.569   6.997   5.978 -0.5635  1.9524 -2.6406
  953MOL0     H25733   7.444   6.646   6.180 -0.5299 -1.8031 -0.7704
  953MOL0     H25734   7.616   6.611   6.197  1.5414 -3.8923 -1.2832
  953MOL0     H25735   7.630   6.449   6.043 -0.3375 -0.1727 -1.1558
  953MOL0     H25736   7.490   6.484   5.959 -0.7169 -3.8307  0.7095
  953MOL0     H25737   7.439   6.285   6.100  3.3544 -1.6219  0.3993
  953MOL0     H25738   7.357   6.428   6.173  0.0781 -0.1032  1.1003
  953MOL0     H25739   7.511   6.445   6.345 -1.8729 -1.8180  1.0765
  953MOL0     H25740   7.463   6.293   6.322 -3.0359  1.9833 -1.7299
  953MOL0     H25741   7.705   6.298   6.382  1.0450 -4.7746 -0.8860
  953MOL0     H25742   7.752   6.389   6.245  2.4935 -0.9608  1.3256
  953MOL0     H25743   7.708   6.214   6.097  5.2320 -0.9133 -0.9346
  953MOL0     H25744   7.652   6.112   6.233  3.3018 -4.4163 -1.0609
  953MOL0     H25745   7.917   6.223   6.265  0.6235  0.1546 -0.1369
  953MOL0     H25746   7.842   6.083   6.333 -2.0790 -1.7096 -1.1763
  953MOL0     H25747   8.003   6.003   6.174 -0.1461  1.3056 -0.5257
  953MOL0     H25748   7.948   6.101   6.043 -0.2537 -2.1242 -1.1022
  953MOL0     H25749   7.737   6.038   5.887  0.1870 -0.1660  0.5334
  953MOL0     H25750   7.614   5.706   5.795 -0.1617 -1.5141  1.1628
  953MOL0     H25751   7.584   5.876   5.759 -4.2961  0.5587  1.4536
  953MOL0     H25752   7.455   5.719   5.987 -0.5263  0.9877  0.8723
  953MOL0     H25753   7.379   5.750   5.822 -1.6568 -0.4026  1.0136
  953MOL0     H25754   7.449   5.973   6.000 -0.0557 -3.0830  1.4759
  953MOL0     H25755   7.341   5.962   5.852 -2.8288 -0.1513  0.4170
  953MOL0     H25756   7.261   5.953   6.127 -1.5031 -0.4626 -0.0086
  953MOL0     H25757   7.257   5.794   6.065  2.0686  0.3991  2.3701
  953MOL0     H25758   7.229   6.170   6.098  0.0519 -2.9861 -1.0271
  953MOL0     H25759   7.105   6.366   6.078  0.9345  0.6604 -1.6776
  953MOL0     H25760   6.610   6.487   5.695 -0.4406  1.3836 -1.4308
  953MOL0     H25761   6.503   6.716   5.632 -0.1891  1.5249  2.0582
  953MOL0     H25762   6.630   7.127   5.576 -1.7148 -1.3050 -1.1503
  953MOL0     H25763   6.779   7.061   5.655 -0.1115  1.2028 -0.3691
  953MOL0     H25764   6.614   6.995   5.849 -1.1850  1.0350  0.1579
  953MOL0     H25765   6.490   7.078   5.755 -0.7346  0.2171  2.1002
  953MOL0     H25766   6.552   7.235   5.915  2.2656  1.4059  1.5196
  953MOL0     H25767   6.599   7.286   5.751  0.1586  1.9813  0.9615
  953MOL0     H25768   6.800   7.173   5.937 -0.2938 -1.3647 -0.4014
  953MOL0     H25769   6.823   7.244   5.781 -0.0883 -2.9658  1.3248
  953MOL0     H25770   6.700   7.453   5.896  2.3020  2.7189  1.8964
  953MOL0     H25771   6.869   7.431   5.925 -0.9477  0.6235 -3.1214
  953MOL0     H25772   6.827   7.312   6.143  1.5594  1.1622 -1.5758
  953MOL0     H25773   6.646   7.348   6.116 -0.2067  0.6242 -0.1083
  953MOL0     H25774   6.735   7.593   6.109  1.5123 -0.4865 -1.1531
  953MOL0     H25775   6.734   7.505   6.263  1.1603 -2.6397  0.3953
  953MOL0     H25776   6.987   7.599   6.096 -0.7965  1.0499  0.5561
  953MOL0     H25777   6.989   7.442   6.187  2.3011  1.8744  0.6508
  953MOL0     H25778   6.878   6.896   5.657 -2.4886 -0.1373 -3.3120
  953MOL0     H25779   6.989   6.674   5.716 -0.2011  0.4878 -2.4845
  953MOL0     H25780   6.852   6.220   5.768  0.4137 -1.4064 -2.5651
  953MOL0     H25781   6.943   5.986   5.792  0.6192 -0.0973 -1.0978
  953MOL0     H25782   7.323   6.640   5.950 -2.1014  0.3181  0.0862
  953MOL0     H25783   7.167   6.775   5.809  0.2863 -0.2478  1.8998
  953MOL0     H25784   6.996   6.939   5.407 -1.7639 -0.3945  1.2179
  953MOL0     H25785   6.885   7.095   5.264  0.0508  1.7069 -0.0292
  953MOL0     H25786   6.761   7.530   5.287 -2.2546 -1.0670  0.6538
  953MOL0     H25787   6.893   7.540   5.398 -0.0833  2.8333  0.1866
  953MOL0     H25788   6.615   7.455   5.472 -0.8373  0.6396  3.9345
  953MOL0     H25789   6.746   7.469   5.588  1.9019  0.9305  0.1930
  953MOL0     H25790   6.627   7.680   5.409 -2.7291  1.5139  1.7222
  953MOL0     H25791   6.768   7.705   5.511 -1.6515  2.4913  2.5612
  953MOL0     H25792   6.543   7.780   5.607  0.8164 -0.4602 -4.2729
  953MOL0     H25793   6.525   7.608   5.652 -0.8520  0.5120 -0.5702
  953MOL0     H25794   6.832   7.715   5.938 -1.6755  1.6678  0.8138
  953MOL0     H25795   6.958   7.405   5.579 -3.0123 -1.1445  0.8366
  953MOL0     H25796   7.073   7.246   5.712  1.1998  0.2076  0.0209
  954MOL0     O25797   5.569   3.870   9.717 -0.7997  0.3233  0.2467
  954MOL0     C25798   5.445   3.871   9.712  0.0438  0.5114 -0.4313
  954MOL0     O25799   5.370   3.865   9.599  0.0216  0.5418  0.2589
  954MOL0     C25800   5.443   3.808   9.497 -1.3153 -0.1293  0.2376
  954MOL0     C25801   5.494   3.891   9.395 -0.3705  0.4311 -0.1851
  954MOL0     C25802   5.574   3.837   9.294 -0.3935 -0.1219  0.1109
  954MOL0     C25803   5.595   3.693   9.284 -0.0577 -0.6661  0.0425
  954MOL0     O25804   5.671   3.651   9.171  0.1836 -0.5401 -0.5740
  954MOL0     C25805   5.670   3.519   9.139  0.4880  0.2320 -0.3109
  954MOL0     C25806   5.792   3.498   9.043 -1.1486  0.5374 -0.4480
  954MOL0     C25807   5.783   3.571   8.908 -0.8686 -0.2461 -0.2212
  954MOL0     C25808   5.915   3.626   8.854  0.1358  0.2656  0.4436
  954MOL0     C25809   5.923   3.773   8.865 -0.0649  0.0079 -0.1302
  954MOL0     C25810   5.930   3.844   9.009 -0.3663  0.4615 -0.7035
  954MOL0     C25811   6.005   3.979   9.009 -0.0685 -0.0780 -0.1142
  954MOL0     C25812   5.916   4.097   8.957  0.3048 -0.2931  0.2761
  954MOL0     N25813   5.794   4.131   9.019  0.5327 -0.2942 -0.8119
  954MOL0     C25814   5.667   4.099   8.984  0.3149  0.2628  0.8053
  954MOL0     C25815   5.589   4.203   9.035  0.4708 -0.3160  0.2015
  954MOL0     C25816   5.441   4.226   9.008  0.1002  0.2168 -0.2577
  954MOL0     C25817   5.350   4.167   9.119  0.0173  0.0502  0.6232
  954MOL0     C25818   5.218   4.230   9.105  0.8775 -0.1024  0.4834
  954MOL0     C25819   5.133   4.242   9.224 -0.8993 -0.6473 -0.5792
  954MOL0     O25820   5.093   4.114   9.261 -0.3031  0.2512 -0.1888
  954MOL0     C25821   5.035   4.114   9.390  0.3240  0.0687  0.1857
  954MOL0     C25822   4.997   3.987   9.434  0.7022 -0.0426  0.2295
  954MOL0     C25823   4.949   3.962   9.557  0.6218  0.2650  0.0457
  954MOL0     C25824   4.921   4.068   9.648 -0.4285 -0.6613  0.0147
  954MOL0     C25825   4.875   4.033   9.790  0.6596  0.4446 -0.0225
  954MOL0     O25826   4.887   4.125   9.878  0.2440 -0.1086 -0.1680
  954MOL0     C25827   4.819   4.123  10.004  0.6742  0.1728 -0.0681
  954MOL0     C25828   4.883   4.183  10.110 -0.1282  0.5884 -0.5725
  954MOL0     C25829   4.832   4.178  10.235 -0.3785 -0.6326 -0.6212
  954MOL0     C25830   4.720   4.097  10.258  0.5957  0.3612 -0.1029
  954MOL0     O25831   4.669   4.063  10.377 -0.3555  0.3650 -0.6718
  954MOL0     C25832   4.737   4.087  10.499 -0.7588 -0.7284  0.5513
  954MOL0     C25833   4.685   4.016  10.624 -0.5187 -0.7741 -1.1255
  954MOL0     C25834   4.725   4.102  10.744 -0.4853  0.3281 -0.2748
  954MOL0     C25835   4.711   4.047  10.885  0.7602  0.7550 -1.2848
  954MOL0     C25836   4.570   4.069  10.940  0.1039  0.5972 -0.6798
  954MOL0     C25837   4.544   3.971  11.052 -0.3953 -0.1437  0.1869
  954MOL0     C25838   4.399   3.947  11.078 -0.3299 -0.6989 -0.2688
  954MOL0     C25839   4.370   3.864  11.205 -0.1878  0.8393  0.5358
  954MOL0    Cl25840   4.457   3.956  11.336  0.2190  0.2100  0.0316
  954MOL0     C25841   4.660   4.032  10.152  0.5944  0.1423 -1.2151
  954MOL0     C25842   4.707   4.044  10.024  0.2731 -0.3217 -0.5963
  954MOL0     O25843   4.843   3.914   9.813  0.1629 -0.1777  0.8725
  954MOL0     C25844   4.963   4.196   9.605  0.0134 -0.7356 -0.0484
  954MOL0     C25845   5.000   4.226   9.475  0.0554 -1.6546  0.5207
  954MOL0     N25846   5.670   4.280   9.110  0.8063 -0.0091 -0.1453
  954MOL0     N25847   5.791   4.239   9.112 -0.8850 -1.0329  1.2555
  954MOL0     C25848   5.541   3.606   9.384  0.6659 -0.2415  0.2506
  954MOL0     C25849   5.468   3.663   9.495 -1.4699  0.7914 -0.5039
  954MOL0     C25850   5.362   3.865   9.836  0.0136 -0.9025 -1.1135
  954MOL0     C25851   5.230   3.903   9.829  0.5113  0.4458  0.0498
  954MOL0     C25852   5.154   3.899   9.951 -0.5318  0.9285 -0.1744
  954MOL0     C25853   5.217   3.886  10.074 -0.2267 -0.0926  0.6229
  954MOL0     O25854   5.131   3.889  10.187  0.6945  0.4835  0.8288
  954MOL0     C25855   5.185   3.872  10.316 -0.3747  0.5113 -0.9653
  954MOL0     C25856   5.267   3.999  10.359  0.7744 -0.0845 -1.0692
  954MOL0     C25857   5.176   4.131  10.377  0.1497  1.3677 -1.3376
  954MOL0     C25858   5.256   4.240  10.437 -0.1094  0.2709 -0.1874
  954MOL0     C25859   5.365   4.285  10.352 -0.7026 -0.4933 -0.0574
  954MOL0     C25860   5.462   4.323  10.288  0.5602  0.1800 -0.7076
  954MOL0     C25861   5.347   3.854  10.071  0.7278 -0.8633  0.8099
  954MOL0     C25862   5.425   3.849   9.955 -0.1976  0.0654  0.7054
  954MOL0     H25863   5.476   3.998   9.387  3.7033  1.2913 -0.1640
  954MOL0     H25864   5.624   3.913   9.234 -1.2426  0.5233  0.2050
  954MOL0     H25865   5.572   3.492   9.097  0.5977  1.7080 -1.6053
  954MOL0     H25866   5.680   3.451   9.224  0.7035 -0.1437 -0.6294
  954MOL0     H25867   5.812   3.391   9.030  1.4665  0.5530  2.2638
  954MOL0     H25868   5.879   3.539   9.095 -1.2154  0.9432 -0.6484
  954MOL0     H25869   5.703   3.645   8.908 -0.8411 -0.2165 -0.2070
  954MOL0     H25870   5.768   3.494   8.832 -0.9119 -0.0143 -0.4471
  954MOL0     H25871   6.002   3.581   8.902 -1.3655 -0.2017  2.8915
  954MOL0     H25872   5.928   3.598   8.750  3.8348 -0.6912  1.0092
  954MOL0     H25873   5.860   3.834   8.798  4.4327  1.8448 -3.1650
  954MOL0     H25874   6.023   3.788   8.824 -0.3081  0.1278 -0.6958
  954MOL0     H25875   5.969   3.775   9.084 -0.8271 -1.0725 -1.8131
  954MOL0     H25876   5.830   3.871   9.046  0.2024  3.0588 -0.8762
  954MOL0     H25877   6.026   3.997   9.115 -0.5499  2.2815 -0.3524
  954MOL0     H25878   6.102   3.983   8.958 -0.0609  1.8412 -0.0474
  954MOL0     H25879   5.895   4.083   8.850  0.2163  1.0632  0.0882
  954MOL0     H25880   5.982   4.184   8.965 -0.5961  0.4492 -0.1351
  954MOL0     H25881   5.635   4.023   8.913 -1.7620  1.2479  0.6141
  954MOL0     H25882   5.422   4.169   8.916  1.3765 -1.1143  0.2691
  954MOL0     H25883   5.421   4.334   9.003 -0.3455  0.1097 -1.0346
  954MOL0     H25884   5.394   4.193   9.215  0.2382  1.3912  0.1807
  954MOL0     H25885   5.338   4.060   9.101 -3.1068  0.5174 -0.7361
  954MOL0     H25886   5.234   4.331   9.066  4.3122 -1.6515 -2.7456
  954MOL0     H25887   5.161   4.177   9.029 -0.8413  0.2703  1.4662
  954MOL0     H25888   5.047   4.305   9.202  0.1263  0.5052 -1.3998
  954MOL0     H25889   5.193   4.270   9.311 -0.4275 -0.6348 -0.9064
  954MOL0     H25890   5.015   3.906   9.365 -0.9049  0.2977 -0.6319
  954MOL0     H25891   4.929   3.856   9.570  0.8773 -0.0759 -1.9489
  954MOL0     H25892   4.966   4.242  10.074  0.1688  0.6073  0.1324
  954MOL0     H25893   4.885   4.235  10.311  1.4926 -3.3023  0.2377
  954MOL0     H25894   4.726   4.191  10.530  0.1724 -0.3643 -0.3016
  954MOL0     H25895   4.845   4.077  10.485 -0.6148 -0.1775  1.2484
  954MOL0     H25896   4.724   3.916  10.648 -1.7960 -1.6857 -2.6355
  954MOL0     H25897   4.576   4.005  10.625 -0.5127 -1.0729  0.8673
  954MOL0     H25898   4.656   4.186  10.758 -1.0409 -0.2373  0.4973
  954MOL0     H25899   4.834   4.115  10.740 -0.0035 -2.6604  0.4915
  954MOL0     H25900   4.740   3.941  10.888  0.8203  0.7932  0.8622
  954MOL0     H25901   4.787   4.098  10.943  1.7411  0.8015 -2.5665
  954MOL0     H25902   4.496   4.033  10.868 -0.6367  0.8218 -0.0489
  954MOL0     H25903   4.547   4.172  10.971  3.0384  1.5135 -1.2089
  954MOL0     H25904   4.607   4.018  11.128  1.0915  1.1967 -1.7588
  954MOL0     H25905   4.592   3.874  11.033 -2.7554 -1.1832 -0.8798
  954MOL0     H25906   4.351   4.045  11.086  1.6278  0.4826 -1.9822
  954MOL0     H25907   4.364   3.894  10.988 -2.4274 -0.7062  0.5084
  954MOL0     H25908   4.413   3.765  11.190 -1.8779  0.4139 -2.1302
  954MOL0     H25909   4.262   3.847  11.207  0.0709 -1.5167 -1.1816
  954MOL0     H25910   4.577   3.963  10.167  0.1543  1.2534  2.6139
  954MOL0     H25911   4.654   3.994   9.944  0.1828 -2.5957  0.8176
  954MOL0     H25912   4.949   4.290   9.657  0.4179  2.2752 -4.8413
  954MOL0     H25913   5.021   4.331   9.457  1.3124 -2.0648 -0.6476
  954MOL0     H25914   5.542   3.498   9.375  1.6680 -0.1353 -1.2572
  954MOL0     H25915   5.441   3.591   9.571 -1.5319  1.0247 -0.3039
  954MOL0     H25916   5.191   3.909   9.728  0.8265 -0.5537 -0.1442
  954MOL0     H25917   5.047   3.915   9.945 -1.1164 -2.5481 -0.7116
  954MOL0     H25918   5.256   3.789  10.315  1.1006  1.6292 -4.4611
  954MOL0     H25919   5.100   3.846  10.381 -0.7192  0.0572 -1.5849
  954MOL0     H25920   5.311   3.971  10.455 -1.3441  3.4967  1.1945
  954MOL0     H25921   5.349   4.014  10.288  1.8273  0.4023  0.1908
  954MOL0     H25922   5.094   4.107  10.446  1.6712  0.9890  0.4100
  954MOL0     H25923   5.126   4.155  10.283  0.5791  1.2827 -1.5899
  954MOL0     H25924   5.195   4.326  10.465 -1.5479 -0.5701 -0.6451
  954MOL0     H25925   5.305   4.211  10.530  0.2938 -1.3127 -0.8451
  954MOL0     H25926   5.549   4.353  10.233  0.4945  1.0120 -0.3714
  954MOL0     H25927   5.394   3.848  10.168 -2.1001  0.5872  2.3927
  954MOL0     H25928   5.534   3.848   9.953 -0.1592  1.5982 -0.4151
  955MOL0     O25929   8.876   5.332   3.969  0.6447  0.3172  0.4144
  955MOL0     C25930   8.933   5.255   4.047 -1.1272 -0.0777  0.9414
  955MOL0     O25931   9.030   5.303   4.136 -0.2465  0.0480  0.1846
  955MOL0     C25932   9.078   5.437   4.129 -0.4754 -1.4126 -0.1404
  955MOL0     C25933   9.108   5.502   4.249  0.1143 -0.2168  0.1337
  955MOL0     C25934   9.169   5.630   4.253  0.5695 -0.3407  0.4366
  955MOL0     C25935   9.209   5.696   4.131  1.4424  0.1176  0.4981
  955MOL0     O25936   9.282   5.812   4.141  0.1831  0.1507  0.6976
  955MOL0     C25937   9.313   5.882   4.016  0.0445 -0.2693  0.9584
  955MOL0     C25938   9.365   6.013   4.042 -0.2071 -0.2639 -0.4870
  955MOL0     C25939   9.490   6.011   4.136  0.2800 -0.1695  0.9994
  955MOL0     C25940   9.544   6.155   4.160  0.5995 -1.7345 -0.1026
  955MOL0     C25941   9.696   6.153   4.190  0.6800  0.5143  0.1448
  955MOL0     C25942   9.781   6.135   4.067  0.5719 -0.1908  0.3465
  955MOL0     C25943   9.930   6.135   4.105  0.1552 -0.5014 -0.3746
  955MOL0     C25944   9.999   6.260   4.067  0.0047 -0.6954  0.2829
  955MOL0     N25945  10.127   6.267   4.147 -0.4171  0.4617 -0.3062
  955MOL0     C25946  10.256   6.274   4.089 -0.0469 -0.1291 -0.4544
  955MOL0     C25947  10.331   6.312   4.190  0.1712 -0.1681  0.8234
  955MOL0     C25948  10.482   6.309   4.185  0.7387 -0.7627 -0.0065
  955MOL0     C25949  10.546   6.434   4.113 -0.2335  0.2570  0.1720
  955MOL0     C25950  10.516   6.571   4.168 -1.0230 -0.4316  0.7704
  955MOL0     C25951  10.584   6.675   4.069  0.1309 -0.3484  0.3776
  955MOL0     O25952  10.504   6.730   3.956 -0.4775 -0.1395  0.1870
  955MOL0     C25953  10.398   6.821   3.977 -0.2335  0.1288  1.4548
  955MOL0     C25954  10.324   6.846   3.859 -1.3380 -0.1430  0.0784
  955MOL0     C25955  10.216   6.926   3.851  0.8191 -0.2398 -1.2463
  955MOL0     C25956  10.169   6.994   3.969  0.2195 -0.0063  0.2172
  955MOL0     C25957  10.070   7.101   3.952  1.0095  0.5923  0.1069
  955MOL0     O25958  10.019   7.123   3.827  0.1844 -0.3162 -0.1728
  955MOL0     C25959   9.974   7.249   3.793 -0.1599 -0.2570 -0.3687
  955MOL0     C25960   9.888   7.258   3.684  1.1847 -0.7667  0.3838
  955MOL0     C25961   9.849   7.383   3.636 -0.3015  0.0617 -0.4840
  955MOL0     C25962   9.891   7.499   3.704  0.4203  0.0345  0.9708
  955MOL0     O25963   9.856   7.623   3.661  0.8276 -0.0460 -0.4749
  955MOL0     C25964   9.923   7.675   3.548 -0.0968 -0.2968  0.3240
  955MOL0     C25965  10.054   7.746   3.591 -0.4794 -0.9516  0.1273
  955MOL0     C25966  10.036   7.869   3.682 -0.4901 -0.7259  0.4143
  955MOL0     C25967  10.153   7.958   3.697 -0.1607 -0.2364  0.3710
  955MOL0     C25968  10.150   8.046   3.823 -0.6301  0.1398 -0.0510
  955MOL0     C25969  10.057   8.165   3.797  0.0529 -0.2074 -0.7327
  955MOL0     C25970  10.102   8.272   3.906 -0.2436  0.1558  0.3812
  955MOL0     C25971  10.016   8.399   3.882 -0.2319 -1.0434  0.4266
  955MOL0    Cl25972  10.051   8.528   4.013  0.1830 -0.0488 -0.0418
  955MOL0     C25973   9.978   7.496   3.815  0.1314  0.5924  0.5401
  955MOL0     C25974  10.015   7.365   3.855 -0.6056 -0.0961  0.0471
  955MOL0     O25975  10.027   7.160   4.050 -0.6937  0.0458 -0.1730
  955MOL0     C25976  10.238   6.968   4.092 -0.5603  0.3869 -0.6158
  955MOL0     C25977  10.350   6.879   4.099  0.7060 -0.2242  0.5821
  955MOL0     N25978  10.256   6.336   4.301  0.6228  0.2209  0.3856
  955MOL0     N25979  10.130   6.317   4.269  0.0075 -0.2453 -0.0263
  955MOL0     C25980   9.171   5.633   4.011 -0.0573  0.7480 -0.5233
  955MOL0     C25981   9.092   5.512   4.008 -0.4302 -2.2141 -0.4911
  955MOL0     C25982   8.907   5.111   4.050 -0.2347 -0.4300 -0.3277
  955MOL0     C25983   8.979   5.024   4.136  0.3664  0.2663 -0.2746
  955MOL0     C25984   8.953   4.883   4.132 -0.0990 -0.5284  0.3727
  955MOL0     C25985   8.864   4.831   4.048  0.1490 -0.1037  0.9682
  955MOL0     O25986   8.838   4.690   4.054  0.7387 -0.1389  0.8717
  955MOL0     C25987   8.786   4.632   3.929  0.0142  0.4523  0.1213
  955MOL0     C25988   8.849   4.487   3.912  0.5247 -0.8751  0.1113
  955MOL0     C25989   8.789   4.387   4.003  0.4060 -0.2075  0.3412
  955MOL0     C25990   8.812   4.245   3.959 -0.3612 -0.5379 -0.4033
  955MOL0     C25991   8.743   4.206   3.833  0.2733 -0.4545 -0.4464
  955MOL0     C25992   8.688   4.166   3.733 -0.3041 -0.2294 -0.1149
  955MOL0     C25993   8.794   4.920   3.963  0.4794  0.8837 -0.0830
  955MOL0     C25994   8.809   5.058   3.965  0.1728  0.2047  0.2513
  955MOL0     H25995   9.080   5.450   4.339  4.1370 -1.6715  0.7401
  955MOL0     H25996   9.184   5.694   4.339 -0.7336  1.8842 -0.8986
  955MOL0     H25997   9.231   5.894   3.945  0.0546  0.0801  1.0045
  955MOL0     H25998   9.396   5.829   3.969  0.0471  0.2607  0.3485
  955MOL0     H25999   9.281   6.077   4.072 -2.1448 -1.7345 -2.4587
  955MOL0     H26000   9.399   6.049   3.945 -0.5624 -0.9462 -0.8785
  955MOL0     H26001   9.571   5.957   4.087 -1.8533 -0.8174 -2.1685
  955MOL0     H26002   9.467   5.953   4.225  0.6309 -1.7658  0.0822
  955MOL0     H26003   9.519   6.214   4.072  1.0998  1.5043  1.7498
  955MOL0     H26004   9.490   6.198   4.245 -0.6129 -0.2677 -1.5649
  955MOL0     H26005   9.724   6.090   4.275  1.8794  1.6306  0.6164
  955MOL0     H26006   9.720   6.250   4.236  0.4463 -1.3110  4.6863
  955MOL0     H26007   9.765   6.222   4.003 -1.3436 -1.6716 -1.3196
  955MOL0     H26008   9.755   6.039   4.022  1.3496  0.1823 -0.9191
  955MOL0     H26009   9.946   6.112   4.211 -1.6355  0.2723  0.0942
  955MOL0     H26010   9.975   6.053   4.049  0.0487 -0.8010 -0.0251
  955MOL0     H26011   9.939   6.344   4.103  2.0685  0.9595  0.0120
  955MOL0     H26012  10.016   6.267   3.959  3.9948  2.1125  0.8531
  955MOL0     H26013  10.292   6.252   3.989  0.2725 -0.2786 -0.3089
  955MOL0     H26014  10.518   6.219   4.133  0.8586 -1.1220  0.6871
  955MOL0     H26015  10.514   6.296   4.288  3.6979 -1.0277 -0.8672
  955MOL0     H26016  10.523   6.428   4.006  0.2211 -0.6117  0.1170
  955MOL0     H26017  10.654   6.418   4.111 -0.0147  1.6769 -0.2293
  955MOL0     H26018  10.412   6.601   4.182 -0.9525  1.7526 -2.3431
  955MOL0     H26019  10.564   6.577   4.267  2.3909  2.6003 -0.8113
  955MOL0     H26020  10.679   6.628   4.043  1.5974  1.6165  1.8608
  955MOL0     H26021  10.612   6.763   4.129 -3.7415  1.5182 -0.2057
  955MOL0     H26022  10.361   6.802   3.767  0.7721 -0.7281  1.1498
  955MOL0     H26023  10.167   6.943   3.755  0.8094 -1.7481 -1.5371
  955MOL0     H26024   9.838   7.172   3.641 -2.8663  1.8722 -0.7809
  955MOL0     H26025   9.786   7.388   3.548 -0.7839 -1.5733 -0.2536
  955MOL0     H26026   9.866   7.743   3.485  1.2363  0.7836  0.2224
  955MOL0     H26027   9.952   7.593   3.481 -1.4560 -1.7649  1.4475
  955MOL0     H26028  10.121   7.759   3.505 -0.1662 -0.1311  0.4859
  955MOL0     H26029  10.102   7.683   3.666  0.5339  2.5160  2.6663
  955MOL0     H26030  10.006   7.822   3.777 -2.6357  1.1254  0.7229
  955MOL0     H26031   9.955   7.923   3.632 -1.6352 -1.1488  1.7185
  955MOL0     H26032  10.245   7.899   3.688 -1.1119 -1.6206 -0.8591
  955MOL0     H26033  10.152   8.026   3.611  1.6274  0.0573  0.5358
  955MOL0     H26034  10.243   8.092   3.856 -0.3139  0.6651 -1.6171
  955MOL0     H26035  10.101   7.988   3.903 -0.6332 -1.9116 -1.4711
  955MOL0     H26036   9.955   8.127   3.813  0.4810 -0.2366  2.5790
  955MOL0     H26037  10.078   8.207   3.699  0.2458  2.3754  0.3286
  955MOL0     H26038  10.101   8.244   4.012 -1.7307 -0.1876  0.2916
  955MOL0     H26039  10.207   8.299   3.890 -0.6893  1.0827 -1.2507
  955MOL0     H26040   9.907   8.394   3.889 -0.5689  3.0697  1.0265
  955MOL0     H26041  10.042   8.438   3.784  1.3967  0.0621  1.2512
  955MOL0     H26042  10.023   7.587   3.855  1.1073  1.4622 -2.3028
  955MOL0     H26043  10.082   7.368   3.940  1.9812  0.1286 -1.8795
  955MOL0     H26044  10.191   7.008   4.181  1.1392 -1.5788  1.2831
  955MOL0     H26045  10.407   6.840   4.183 -1.0777  0.0554  1.9788
  955MOL0     H26046   9.191   5.672   3.912 -1.5911 -0.7493 -1.4831
  955MOL0     H26047   9.076   5.467   3.910  3.0795  0.1560 -2.3931
  955MOL0     H26048   9.060   5.052   4.202  1.3668 -2.0353 -0.4047
  955MOL0     H26049   9.008   4.832   4.210 -3.0431 -1.1208  2.1812
  955MOL0     H26050   8.816   4.699   3.849  3.0181 -0.2815  0.5226
  955MOL0     H26051   8.677   4.624   3.931 -0.0010 -0.2650 -1.6797
  955MOL0     H26052   8.840   4.460   3.806  4.6663  2.7848 -1.4705
  955MOL0     H26053   8.954   4.489   3.941  0.3224 -5.7257  2.0514
  955MOL0     H26054   8.687   4.409   4.036  0.4639  1.5772 -0.5533
  955MOL0     H26055   8.843   4.400   4.098  0.0329 -0.1237  0.5421
  955MOL0     H26056   8.919   4.222   3.960  0.7617  3.5517  3.2294
  955MOL0     H26057   8.764   4.182   4.035  1.0031  0.7443  1.6210
  955MOL0     H26058   8.648   4.135   3.638  2.9928 -4.4588 -0.4524
  955MOL0     H26059   8.721   4.873   3.897  1.6843 -1.4792  0.1582
  955MOL0     H26060   8.755   5.115   3.891  1.1736  0.7785 -0.0623
  956MOL0     O26061   9.381  10.175   9.078 -0.0501 -0.0448 -0.1325
  956MOL0     C26062   9.425  10.284   9.111 -1.0840  0.7276 -0.3497
  956MOL0     O26063   9.556  10.309   9.131 -0.0526 -0.1483 -0.9812
  956MOL0     C26064   9.651  10.208   9.138  1.0158 -0.3483 -0.1373
  956MOL0     C26065   9.633  10.070   9.176 -0.3642 -0.0682  0.4907
  956MOL0     C26066   9.746   9.978   9.164  0.5274  0.4286  0.4128
  956MOL0     C26067   9.868  10.019   9.136  0.2251 -0.4554  0.7206
  956MOL0     O26068   9.982   9.930   9.140  0.8417  0.9658 -0.4819
  956MOL0     C26069   9.952   9.808   9.065 -0.3908  0.7275  0.8000
  956MOL0     C26070  10.075   9.750   9.000 -0.3690 -0.6853 -0.0166
  956MOL0     C26071  10.194   9.744   9.109 -0.5912  1.0754  0.4489
  956MOL0     C26072  10.167   9.631   9.228  0.3533  0.4301  0.4729
  956MOL0     C26073  10.266   9.604   9.341  0.1509 -0.3238 -0.3100
  956MOL0     C26074  10.407   9.567   9.284 -0.0852 -0.3170  0.5697
  956MOL0     C26075  10.509   9.535   9.398  0.1082  0.6745 -0.4957
  956MOL0     C26076  10.498   9.395   9.453  0.6422 -0.0455 -0.8012
  956MOL0     N26077  10.614   9.366   9.542  0.0052  0.0544 -0.5630
  956MOL0     C26078  10.617   9.393   9.676  0.9690 -0.0657 -1.2771
  956MOL0     C26079  10.718   9.329   9.721  0.4111  0.6154 -0.0824
  956MOL0     C26080  10.771   9.315   9.858 -0.6084 -0.2872 -0.2601
  956MOL0     C26081  10.907   9.385   9.850 -0.2194 -0.1056 -0.3932
  956MOL0     C26082  10.921   9.491   9.960  0.1852 -0.4859 -0.2068
  956MOL0     C26083  10.930   9.431  10.100 -0.1768  0.5679  0.0375
  956MOL0     O26084  10.987   9.506  10.207 -0.8389  0.0632  0.1417
  956MOL0     C26085  10.906   9.587  10.279  0.0687 -0.3224 -0.4935
  956MOL0     C26086  10.921   9.585  10.418 -0.0716  0.4119 -0.3146
  956MOL0     C26087  10.836   9.647  10.512 -0.0530  0.1080  0.2671
  956MOL0     C26088  10.730   9.718  10.455  0.3946 -0.2637  0.9231
  956MOL0     C26089  10.633   9.793  10.530 -0.6822  0.5143 -0.1597
  956MOL0     O26090  10.568   9.886  10.456  0.1512 -0.6958 -0.4793
  956MOL0     C26091  10.494   9.977  10.519 -1.0239 -0.1365 -0.2784
  956MOL0     C26092  10.367   9.941  10.575  0.0351 -0.2274 -0.0398
  956MOL0     C26093  10.287  10.031  10.642 -0.1586 -0.1622 -0.6707
  956MOL0     C26094  10.323  10.160  10.650  0.1855 -0.0737 -0.5004
  956MOL0     O26095  10.231  10.250  10.705  0.1064  0.3755 -0.3888
  956MOL0     C26096  10.253  10.389  10.702 -0.3054  0.8086  0.3486
  956MOL0     C26097  10.148  10.453  10.795  0.2205 -0.7447 -0.2840
  956MOL0     C26098  10.141  10.609  10.768  0.0042  0.6077  0.2384
  956MOL0     C26099  10.277  10.677  10.789  0.0916  0.7864  0.4688
  956MOL0     C26100  10.275  10.818  10.722 -1.0449 -0.9849  0.0633
  956MOL0     C26101  10.389  10.918  10.770  0.5548  0.1346 -0.2309
  956MOL0     C26102  10.352  11.001  10.888 -0.6061 -0.7794 -0.3838
  956MOL0     C26103  10.481  11.083  10.946  0.9634  0.1610  0.1833
  956MOL0    Cl26104  10.561  10.969  11.062  0.1562  0.7108 -0.4529
  956MOL0     C26105  10.446  10.201  10.598  0.1170  0.5959 -1.1234
  956MOL0     C26106  10.530  10.106  10.529  0.0891 -1.7180 -0.4369
  956MOL0     O26107  10.618   9.776  10.648 -0.1065  0.2916  0.0999
  956MOL0     C26108  10.716   9.722  10.312  0.4227  0.7120 -0.1580
  956MOL0     C26109  10.804   9.665  10.228 -0.1812 -0.7969  0.0232
  956MOL0     N26110  10.780   9.267   9.616 -0.5430 -0.2733 -0.9884
  956MOL0     N26111  10.719   9.283   9.510 -0.0742  0.2113  0.0568
  956MOL0     C26112   9.886  10.152   9.096  0.2296 -0.8915  0.5858
  956MOL0     C26113   9.779  10.245   9.102 -0.3988 -0.0145 -0.4505
  956MOL0     C26114   9.332  10.394   9.140 -0.2169  0.2930 -0.2953
  956MOL0     C26115   9.379  10.521   9.174 -0.2246  0.4695 -0.2057
  956MOL0     C26116   9.294  10.626   9.208  0.2484  0.0167  0.7761
  956MOL0     C26117   9.155  10.604   9.193  1.0193 -0.4621 -1.0134
  956MOL0     O26118   9.050  10.708   9.198 -0.5137  0.0204 -0.4912
  956MOL0     C26119   9.088  10.849   9.177 -0.5814 -0.8493 -0.4242
  956MOL0     C26120   9.111  10.920   9.309  0.0726 -0.6414  1.2443
  956MOL0     C26121   9.165  11.056   9.296  0.0291 -0.3933  0.2281
  956MOL0     C26122   9.092  11.168   9.227 -0.0465  0.6366  0.2592
  956MOL0     C26123   9.087  11.151   9.080  1.3126  0.1128 -1.0494
  956MOL0     C26124   9.080  11.148   8.959  0.1625  0.9036  0.3832
  956MOL0     C26125   9.108  10.476   9.168 -0.5018 -0.3388  0.7841
  956MOL0     C26126   9.194  10.367   9.141  0.6291  0.0782  0.8021
  956MOL0     H26127   9.537  10.022   9.196 -0.3636  1.1064  3.9605
  956MOL0     H26128   9.733   9.875   9.196  1.8557  0.1048 -0.0543
  956MOL0     H26129   9.873   9.821   8.991 -0.5937 -2.2053  0.4034
  956MOL0     H26130   9.920   9.733   9.138  0.0960 -0.9073 -0.6136
  956MOL0     H26131  10.110   9.819   8.922  3.8600 -3.2861 -0.7281
  956MOL0     H26132  10.058   9.659   8.943 -1.1299 -0.7747  0.3376
  956MOL0     H26133  10.209   9.845   9.150  2.3745  0.7325  0.4238
  956MOL0     H26134  10.284   9.723   9.050 -2.3435 -1.5326 -1.5295
  956MOL0     H26135  10.071   9.661   9.272 -0.6015 -2.4886  0.5868
  956MOL0     H26136  10.148   9.536   9.176  0.0556  1.0561 -0.6142
  956MOL0     H26137  10.227   9.520   9.400  3.1910 -0.4309  1.7846
  956MOL0     H26138  10.282   9.694   9.401  4.5680 -0.2778 -1.1724
  956MOL0     H26139  10.438   9.649   9.218  0.3862 -1.4760 -0.6906
  956MOL0     H26140  10.402   9.483   9.215  3.4939  0.4876 -0.8626
  956MOL0     H26141  10.610   9.545   9.358  1.1279 -0.0267  1.7677
  956MOL0     H26142  10.495   9.603   9.483 -1.2798 -1.5305  1.1468
  956MOL0     H26143  10.496   9.333   9.363 -0.4176  1.0233 -1.5443
  956MOL0     H26144  10.402   9.389   9.504  0.6450 -0.8514 -0.8877
  956MOL0     H26145  10.554   9.453   9.741 -1.4955 -1.0301 -2.6191
  956MOL0     H26146  10.766   9.209   9.887 -1.0597 -0.2021 -0.0223
  956MOL0     H26147  10.712   9.371   9.930  1.5125 -1.6038  2.7277
  956MOL0     H26148  10.927   9.427   9.751 -1.5093  1.7705  0.1022
  956MOL0     H26149  10.988   9.313   9.867 -0.4292 -0.5910 -1.3689
  956MOL0     H26150  11.017   9.542   9.946 -1.8821  3.8972 -0.0601
  956MOL0     H26151  10.846   9.569   9.950  1.1879  0.3548 -1.4177
  956MOL0     H26152  10.991   9.341  10.093 -0.2339  0.6143 -1.4838
  956MOL0     H26153  10.828   9.398  10.124  0.2638 -2.0027 -1.2887
  956MOL0     H26154  11.002   9.523  10.454 -1.8778 -0.7983  1.9764
  956MOL0     H26155  10.866   9.668  10.614 -0.4793  1.6818  0.0876
  956MOL0     H26156  10.329   9.842  10.553 -1.4520 -0.4588  3.0360
  956MOL0     H26157  10.208   9.995  10.707  0.1004  1.0916  0.3897
  956MOL0     H26158  10.241  10.415  10.596  1.7444  0.6060  0.0209
  956MOL0     H26159  10.357  10.408  10.730 -0.1434 -0.1209  0.3832
  956MOL0     H26160  10.161  10.426  10.900  0.0768  3.9330  1.1603
  956MOL0     H26161  10.050  10.406  10.781 -0.5081  0.5838  0.1200
  956MOL0     H26162  10.071  10.654  10.840  0.9022  0.3935  1.2760
  956MOL0     H26163  10.098  10.627  10.669  0.2047  1.2019  0.2606
  956MOL0     H26164  10.297  10.670  10.896 -0.8747 -2.1272  0.5616
  956MOL0     H26165  10.363  10.619  10.752 -1.6288 -1.0620 -0.8250
  956MOL0     H26166  10.180  10.863  10.752 -0.0582 -0.6517  2.9856
  956MOL0     H26167  10.286  10.806  10.614  1.6230 -4.6195  0.5332
  956MOL0     H26168  10.417  10.986  10.689 -0.9436  0.9733 -0.0882
  956MOL0     H26169  10.481  10.863  10.794 -0.3137 -0.6898  1.3028
  956MOL0     H26170  10.266  11.053  10.845 -3.0463 -1.9202  2.7786
  956MOL0     H26171  10.313  10.950  10.976 -2.0703  1.8845  0.6227
  956MOL0     H26172  10.450  11.170  11.005 -0.9565 -0.0208 -0.4874
  956MOL0     H26173  10.559  11.114  10.875 -1.2334  2.7639 -1.3023
  956MOL0     H26174  10.491  10.298  10.617  0.3366  0.6372 -1.8312
  956MOL0     H26175  10.628  10.132  10.490  0.7293 -1.2391  1.3704
  956MOL0     H26176  10.628   9.767  10.268  0.7443  1.7921  0.2655
  956MOL0     H26177  10.797   9.696  10.125  2.6694  1.3238  0.3466
  956MOL0     H26178   9.985  10.191   9.079 -1.1926  3.2628  0.7737
  956MOL0     H26179   9.794  10.349   9.074 -1.1656  0.5082  0.9994
  956MOL0     H26180   9.483  10.548   9.182 -0.0583  0.4949 -2.1169
  956MOL0     H26181   9.338  10.722   9.233 -0.8232  0.7960 -0.2147
  956MOL0     H26182   9.001  10.891   9.128  0.5483  1.1911 -0.7663
  956MOL0     H26183   9.172  10.844   9.107 -0.6043 -1.4671 -0.4177
  956MOL0     H26184   9.013  10.915   9.359 -1.2112 -0.4276 -1.1365
  956MOL0     H26185   9.178  10.866   9.377  1.9843 -0.5086 -0.4613
  956MOL0     H26186   9.263  11.045   9.247 -1.1336  1.5545 -2.7763
  956MOL0     H26187   9.185  11.070   9.402  0.0710 -0.2864  0.2069
  956MOL0     H26188   8.992  11.181   9.268 -0.0870 -0.2180  0.4474
  956MOL0     H26189   9.136  11.266   9.246 -4.4314  2.7708  0.7562
  956MOL0     H26190   9.075  11.156   8.852  3.0896  1.5879  0.2097
  956MOL0     H26191   9.002  10.455   9.164 -0.9684  1.8051  0.6405
  956MOL0     H26192   9.156  10.271   9.109 -0.0791  0.2141  1.2260
  957MOL0     O26193   6.639   5.967   7.402  0.1588 -0.0487  0.4297
  957MOL0     C26194   6.641   5.983   7.522  0.7386 -0.2011 -0.1379
  957MOL0     O26195   6.621   6.112   7.589  0.3214 -0.3081  0.0046
  957MOL0     C26196   6.613   6.232   7.530  0.3938 -0.2287  0.1324
  957MOL0     C26197   6.569   6.243   7.399 -0.2828 -1.1283  0.2998
  957MOL0     C26198   6.557   6.370   7.348 -0.2875  0.4017 -0.2469
  957MOL0     C26199   6.608   6.482   7.407  1.2687 -0.8897 -0.4413
  957MOL0     O26200   6.593   6.596   7.333 -0.4989  0.3739 -0.2783
  957MOL0     C26201   6.577   6.720   7.400  0.9952  0.1585 -0.5247
  957MOL0     C26202   6.439   6.734   7.470  0.5560  0.9089 -0.6730
  957MOL0     C26203   6.325   6.705   7.368 -0.0299 -0.0245 -0.2958
  957MOL0     C26204   6.183   6.707   7.426  1.0082  0.7390  0.1705
  957MOL0     C26205   6.084   6.690   7.309  1.0448 -0.3047  0.4845
  957MOL0     C26206   5.932   6.713   7.337 -0.4553  0.6308 -0.2551
  957MOL0     C26207   5.842   6.695   7.209  0.3402  0.0530 -1.2237
  957MOL0     C26208   5.700   6.689   7.241  0.7913  0.4546  0.3567
  957MOL0     N26209   5.661   6.819   7.310 -0.1810  0.9627 -0.3358
  957MOL0     C26210   5.585   6.832   7.422  0.0994 -0.4832  0.5598
  957MOL0     C26211   5.569   6.963   7.445  0.5067  0.1358  0.2567
  957MOL0     C26212   5.475   7.029   7.546 -0.8043  1.3856 -0.5253
  957MOL0     C26213   5.366   7.099   7.471  0.8463  0.0847  0.9635
  957MOL0     C26214   5.256   7.157   7.556  1.3380  0.3972  0.6544
  957MOL0     C26215   5.279   7.296   7.615  0.2583 -0.4463 -0.1551
  957MOL0     O26216   5.296   7.383   7.509  0.6662  0.0872  0.8709
  957MOL0     C26217   5.319   7.508   7.543 -0.3537  0.3267 -0.2206
  957MOL0     C26218   5.437   7.571   7.502  0.3753 -0.0449  0.5302
  957MOL0     C26219   5.447   7.709   7.533  0.1538 -0.2096  0.3506
  957MOL0     C26220   5.343   7.788   7.592 -0.1221 -0.1652  0.0179
  957MOL0     C26221   5.372   7.927   7.625 -0.5315  0.7982  0.1985
  957MOL0     O26222   5.500   7.976   7.606 -0.4208 -0.3637  0.4943
  957MOL0     C26223   5.549   8.104   7.620 -0.5534  0.7714 -0.0869
  957MOL0     C26224   5.655   8.147   7.536 -0.2724 -0.1569  0.4604
  957MOL0     C26225   5.714   8.267   7.551  0.6680  0.4301  0.4316
  957MOL0     C26226   5.669   8.355   7.656  0.4506 -0.3251 -0.1173
  957MOL0     O26227   5.715   8.485   7.670  0.1075  0.2288  0.3624
  957MOL0     C26228   5.764   8.519   7.799 -0.1214  0.7915 -0.6272
  957MOL0     C26229   5.836   8.657   7.780 -0.1033 -0.6575 -0.2112
  957MOL0     C26230   5.882   8.708   7.920 -0.6261  0.6266 -0.3607
  957MOL0     C26231   5.958   8.840   7.925 -1.0235 -0.3100 -0.4381
  957MOL0     C26232   5.960   8.904   8.064  0.8005 -0.1583 -0.1071
  957MOL0     C26233   6.006   9.053   8.035 -0.2401  0.1853  0.4696
  957MOL0     C26234   5.986   9.126   8.163 -0.2382  0.1595 -0.1778
  957MOL0     C26235   6.002   9.278   8.134 -0.6806  1.0144  0.5705
  957MOL0    Cl26236   6.016   9.384   8.276 -0.5140 -0.5599 -0.1370
  957MOL0     C26237   5.566   8.316   7.736  0.5732 -0.4380  0.1035
  957MOL0     C26238   5.505   8.194   7.718 -0.6174 -0.1568  0.4890
  957MOL0     O26239   5.272   7.992   7.655 -0.6046  0.1868 -0.0678
  957MOL0     C26240   5.228   7.716   7.630  0.2122  0.1543  0.1352
  957MOL0     C26241   5.219   7.584   7.603 -0.3605  0.7901 -1.0744
  957MOL0     N26242   5.649   7.033   7.345 -0.2313 -0.8531  0.2362
  957MOL0     N26243   5.700   6.943   7.268  0.7404 -0.0654  0.7149
  957MOL0     C26244   6.657   6.473   7.544 -0.2944  0.2258  0.7115
  957MOL0     C26245   6.649   6.352   7.607 -0.1890  0.5931  0.2671
  957MOL0     C26246   6.677   5.864   7.595 -0.7979 -0.0216 -0.5338
  957MOL0     C26247   6.705   5.746   7.529 -0.3818  0.5896  0.5419
  957MOL0     C26248   6.729   5.625   7.602  0.1466 -0.0953  0.2026
  957MOL0     C26249   6.720   5.626   7.742  0.4028 -0.0186 -0.5812
  957MOL0     O26250   6.740   5.502   7.805  0.1770 -0.1408 -0.4153
  957MOL0     C26251   6.750   5.374   7.737  0.3891 -0.3687 -0.3974
  957MOL0     C26252   6.708   5.263   7.839  0.0689 -0.1223 -0.2099
  957MOL0     C26253   6.780   5.268   7.980  0.1681  0.3763  0.5259
  957MOL0     C26254   6.709   5.178   8.083  0.1238 -0.2722 -0.8308
  957MOL0     C26255   6.725   5.034   8.052  1.2227 -0.4018 -1.2478
  957MOL0     C26256   6.734   4.917   8.045  0.1929  0.3957 -0.6590
  957MOL0     C26257   6.701   5.748   7.812 -0.7322  0.3885 -0.2859
  957MOL0     C26258   6.673   5.865   7.731 -0.3915  0.2598  0.0106
  957MOL0     H26259   6.549   6.163   7.328  2.8436 -1.0680 -0.7979
  957MOL0     H26260   6.520   6.371   7.246  1.3992 -2.1734 -0.9717
  957MOL0     H26261   6.589   6.805   7.331  0.1752  1.9446  1.4273
  957MOL0     H26262   6.654   6.732   7.476  0.9448 -2.9223  0.1402
  957MOL0     H26263   6.440   6.838   7.506 -1.3321 -0.0523  2.5712
  957MOL0     H26264   6.435   6.681   7.565 -2.3419 -0.7411 -1.5734
  957MOL0     H26265   6.337   6.610   7.315 -0.3941  0.7424 -1.8259
  957MOL0     H26266   6.333   6.777   7.285 -2.8916 -1.3911 -1.9287
  957MOL0     H26267   6.165   6.626   7.497  3.2757  1.0759  1.2368
  957MOL0     H26268   6.175   6.805   7.473  1.8129 -0.0933  2.1295
  957MOL0     H26269   6.106   6.602   7.248 -0.7383  0.1580 -0.9067
  957MOL0     H26270   6.091   6.775   7.242 -1.7664  3.5535  4.4717
  957MOL0     H26271   5.915   6.815   7.373 -2.3038  0.3309 -0.1853
  957MOL0     H26272   5.914   6.643   7.419 -2.7077  0.3583 -0.9211
  957MOL0     H26273   5.860   6.783   7.147 -0.5662  1.0845 -0.0696
  957MOL0     H26274   5.889   6.606   7.165  2.8366  0.6145  0.1327
  957MOL0     H26275   5.679   6.604   7.306 -1.8407  2.4759  2.4231
  957MOL0     H26276   5.637   6.695   7.151  2.4628  0.1640 -0.8835
  957MOL0     H26277   5.525   6.762   7.479 -3.8332  0.3981 -2.0877
  957MOL0     H26278   5.531   7.091   7.616 -0.9370 -1.8913  2.7975
  957MOL0     H26279   5.437   6.942   7.600 -0.4918  1.5242 -0.0786
  957MOL0     H26280   5.322   7.034   7.395 -0.2058  0.8186  0.9263
  957MOL0     H26281   5.417   7.179   7.418  0.6992  0.4764  1.4087
  957MOL0     H26282   5.174   7.171   7.485 -1.6135 -0.5410  3.6203
  957MOL0     H26283   5.226   7.097   7.642 -0.6455  0.8482  0.3318
  957MOL0     H26284   5.372   7.279   7.670 -1.5063 -1.1406  2.8622
  957MOL0     H26285   5.199   7.323   7.684  0.0553 -1.4607  0.0224
  957MOL0     H26286   5.512   7.517   7.445  1.0670  3.5700 -2.2975
  957MOL0     H26287   5.529   7.768   7.495 -0.4310 -0.7497 -1.8700
  957MOL0     H26288   5.690   8.090   7.451  0.4354 -0.3046  0.8446
  957MOL0     H26289   5.794   8.296   7.484  0.3495 -0.7493 -0.4901
  957MOL0     H26290   5.835   8.441   7.828 -1.4419 -0.2513 -0.0866
  957MOL0     H26291   5.689   8.536   7.876  1.0935 -1.7391  1.2386
  957MOL0     H26292   5.768   8.728   7.732  1.0179  1.5133  1.2461
  957MOL0     H26293   5.924   8.627   7.722 -1.2247 -0.6177 -2.0259
  957MOL0     H26294   5.947   8.628   7.957  1.1681  0.7600 -2.9586
  957MOL0     H26295   5.798   8.722   7.989  1.7254  2.0270  2.4856
  957MOL0     H26296   6.064   8.825   7.905  0.1450  4.0709  1.3305
  957MOL0     H26297   5.929   8.912   7.847 -0.3757  2.0838  1.4015
  957MOL0     H26298   6.028   8.856   8.134  0.4216 -1.2270 -0.4600
  957MOL0     H26299   5.860   8.908   8.107  1.4553  3.3479  1.4884
  957MOL0     H26300   5.942   9.111   7.969 -0.2300  0.9855  1.1523
  957MOL0     H26301   6.108   9.066   7.996 -1.3366  1.4876 -2.1824
  957MOL0     H26302   5.891   9.114   8.215  0.6672  2.2402  2.1489
  957MOL0     H26303   6.064   9.104   8.236  1.8237  0.9022 -2.0418
  957MOL0     H26304   5.917   9.322   8.081 -1.6782 -0.8340  0.5676
  957MOL0     H26305   6.093   9.286   8.074 -0.4698  0.8626  0.8671
  957MOL0     H26306   5.527   8.385   7.811  2.4497 -0.2953  0.9989
  957MOL0     H26307   5.425   8.176   7.789 -3.7967  0.2894 -2.6662
  957MOL0     H26308   5.141   7.767   7.670 -0.1900  0.3732 -0.9633
  957MOL0     H26309   5.120   7.542   7.620  0.4324 -1.0762 -0.8442
  957MOL0     H26310   6.700   6.560   7.591  0.3396  0.7663 -0.8259
  957MOL0     H26311   6.697   6.343   7.705 -0.4307 -1.4762  0.2345
  957MOL0     H26312   6.712   5.728   7.423  0.0782 -0.7233  0.7731
  957MOL0     H26313   6.765   5.541   7.543  1.1422 -0.9581  1.9666
  957MOL0     H26314   6.851   5.351   7.705  0.4955  0.4485 -0.6518
  957MOL0     H26315   6.682   5.368   7.651  1.2017 -4.0260 -0.9397
  957MOL0     H26316   6.604   5.243   7.866 -0.2224 -3.5633 -3.1086
  957MOL0     H26317   6.739   5.166   7.799 -0.2472 -0.6235  0.7362
  957MOL0     H26318   6.778   5.369   8.021  2.3625 -0.4512  2.9016
  957MOL0     H26319   6.884   5.235   7.979  0.1015  0.1229 -1.2037
  957MOL0     H26320   6.755   5.202   8.180  0.4013  0.3285 -1.1064
  957MOL0     H26321   6.604   5.204   8.097 -0.1435 -1.8877  0.4899
  957MOL0     H26322   6.745   4.811   8.030  1.0581  0.6793 -2.2663
  957MOL0     H26323   6.702   5.745   7.920 -1.8907 -1.7956 -0.2775
  957MOL0     H26324   6.659   5.956   7.789  0.0026  0.3687 -0.0670
  958MOL0     O26325   5.794   4.986   6.165  0.0320 -0.8393 -0.6974
  958MOL0     C26326   5.861   4.977   6.061  0.4156 -0.0103  0.2368
  958MOL0     O26327   5.868   5.066   5.965  0.3776  0.8212 -0.4881
  958MOL0     C26328   5.831   5.194   5.996  0.2353  0.1969  0.0185
  958MOL0     C26329   5.712   5.247   5.946  0.6019 -1.1582 -0.0994
  958MOL0     C26330   5.674   5.378   5.977 -0.5174 -1.2134  0.0929
  958MOL0     C26331   5.742   5.455   6.076  1.5253  0.0626 -0.5065
  958MOL0     O26332   5.686   5.574   6.120  0.5233 -0.1269 -0.5100
  958MOL0     C26333   5.783   5.664   6.184  1.4240 -0.0299  0.3470
  958MOL0     C26334   5.717   5.801   6.217  0.7448  0.4871  1.4696
  958MOL0     C26335   5.604   5.806   6.323 -0.0045  0.4440 -0.2559
  958MOL0     C26336   5.553   5.947   6.369 -0.1107 -0.4530 -0.0014
  958MOL0     C26337   5.422   5.943   6.440 -0.8341 -0.1319 -0.3852
  958MOL0     C26338   5.378   6.078   6.480 -0.5644 -1.4409 -0.3635
  958MOL0     C26339   5.346   6.173   6.373 -0.4570 -0.0505  0.4843
  958MOL0     C26340   5.249   6.120   6.270  0.4393  0.3893 -0.0493
  958MOL0     N26341   5.121   6.062   6.316  0.6336  0.6432  0.6893
  958MOL0     C26342   4.998   6.130   6.301  0.1817  0.2455 -0.1045
  958MOL0     C26343   4.899   6.035   6.322  0.4036 -0.7322 -0.6377
  958MOL0     C26344   4.749   6.043   6.309 -0.7599  0.3205  0.1962
  958MOL0     C26345   4.700   5.998   6.168  0.1502  0.0546 -0.1676
  958MOL0     C26346   4.561   6.064   6.148 -0.0447  1.0826  0.3924
  958MOL0     C26347   4.522   6.069   6.008 -0.3410  0.3067  0.1249
  958MOL0     O26348   4.597   6.174   5.954  0.5556 -0.4530  0.0549
  958MOL0     C26349   4.534   6.272   5.881  0.0451 -0.3277  0.1210
  958MOL0     C26350   4.608   6.386   5.854  0.4456  0.5355  0.1990
  958MOL0     C26351   4.553   6.486   5.771 -0.4278 -1.3866  0.4346
  958MOL0     C26352   4.421   6.490   5.728  0.5736 -0.1003  0.7675
  958MOL0     C26353   4.363   6.607   5.649 -0.1418 -0.7540  0.5476
  958MOL0     O26354   4.434   6.723   5.628  0.6186  0.3585 -0.0954
  958MOL0     C26355   4.387   6.832   5.568  0.1544  0.7440 -1.3103
  958MOL0     C26356   4.280   6.898   5.620  0.2436 -1.2026  0.4098
  958MOL0     C26357   4.235   7.014   5.567  0.1326 -1.0951  0.6822
  958MOL0     C26358   4.298   7.067   5.456 -0.7017 -1.2487  0.5569
  958MOL0     O26359   4.247   7.190   5.413  0.4062 -0.0508  1.4596
  958MOL0     C26360   4.303   7.256   5.301  0.1307 -0.2484 -0.8556
  958MOL0     C26361   4.247   7.403   5.285  0.0188 -0.2245 -0.1969
  958MOL0     C26362   4.280   7.459   5.164  0.8114 -0.3914  0.8388
  958MOL0     C26363   4.201   7.599   5.145 -0.4713 -0.6468 -0.4466
  958MOL0     C26364   4.212   7.651   5.002 -0.3865 -0.2493 -0.1983
  958MOL0     C26365   4.162   7.552   4.902 -0.1005  0.0442 -0.2929
  958MOL0     C26366   4.083   7.602   4.785 -0.6152 -0.3703 -0.4234
  958MOL0     C26367   4.166   7.718   4.710 -0.9950  0.2607  0.3732
  958MOL0    Cl26368   4.338   7.668   4.673  0.3354  0.0312  0.4730
  958MOL0     C26369   4.396   6.994   5.394 -0.3187  0.2408 -0.8541
  958MOL0     C26370   4.441   6.873   5.451  0.8695 -0.4152 -0.4186
  958MOL0     O26371   4.247   6.582   5.611  0.2167 -0.8003 -0.3420
  958MOL0     C26372   4.347   6.376   5.750 -0.6415  1.1487 -0.1289
  958MOL0     C26373   4.399   6.265   5.822 -0.9246 -0.1238  0.9067
  958MOL0     N26374   4.960   5.923   6.355  0.1887  0.5482  0.1229
  958MOL0     N26375   5.089   5.934   6.345 -0.1288 -0.2021  0.4294
  958MOL0     C26376   5.859   5.397   6.128 -0.3828  0.5460 -0.1920
  958MOL0     C26377   5.909   5.281   6.073 -0.1893  0.2016 -1.2885
  958MOL0     C26378   5.960   4.870   6.063  0.0168 -0.3427  0.1125
  958MOL0     C26379   5.973   4.795   6.178 -0.4045 -0.5602  0.6999
  958MOL0     C26380   6.076   4.708   6.199 -0.3190  0.1759  0.4970
  958MOL0     C26381   6.174   4.690   6.085  0.0936  1.0458 -0.4631
  958MOL0     O26382   6.290   4.615   6.092 -0.0433  0.0829  0.0018
  958MOL0     C26383   6.309   4.521   6.202  0.3039  0.4384 -0.7077
  958MOL0     C26384   6.426   4.425   6.195 -0.4671  0.2213  0.2344
  958MOL0     C26385   6.426   4.322   6.315 -0.0546  0.1024  0.2595
  958MOL0     C26386   6.574   4.288   6.318 -0.1800  0.5045  0.5559
  958MOL0     C26387   6.599   4.182   6.420  1.5810 -0.1856 -0.3898
  958MOL0     C26388   6.622   4.096   6.496 -0.6813  0.6365  0.2552
  958MOL0     C26389   6.154   4.759   5.964  0.4742  0.3408  0.2546
  958MOL0     C26390   6.046   4.846   5.959 -0.5205 -0.1174 -0.8538
  958MOL0     H26391   5.656   5.187   5.876 -0.4279 -0.6847  0.2836
  958MOL0     H26392   5.583   5.415   5.930 -1.1129 -2.3115  0.3543
  958MOL0     H26393   5.865   5.694   6.118  3.9885  0.3301  3.4247
  958MOL0     H26394   5.816   5.614   6.276  0.7072 -1.0612  0.0580
  958MOL0     H26395   5.678   5.836   6.121  2.5290 -0.3878  0.3703
  958MOL0     H26396   5.796   5.862   6.261  0.0062  1.0548  2.0284
  958MOL0     H26397   5.631   5.752   6.414 -2.8621  0.8853  0.9601
  958MOL0     H26398   5.519   5.759   6.273  1.9403 -1.4570 -1.9696
  958MOL0     H26399   5.631   6.010   6.413 -1.0740 -0.8582  2.4229
  958MOL0     H26400   5.525   5.996   6.275  1.9642  1.0511  0.0958
  958MOL0     H26401   5.444   5.893   6.536 -0.5719  1.0986  0.2230
  958MOL0     H26402   5.345   5.878   6.398 -0.3038 -2.8341  2.3883
  958MOL0     H26403   5.460   6.113   6.543 -0.7325 -0.5773 -0.6194
  958MOL0     H26404   5.288   6.051   6.536  0.2765 -4.6431 -0.3358
  958MOL0     H26405   5.308   6.259   6.427 -3.0739 -1.1942  0.5810
  958MOL0     H26406   5.435   6.196   6.313 -0.4312 -2.4277 -0.5230
  958MOL0     H26407   5.302   6.050   6.205 -0.1081 -0.8874  0.8467
  958MOL0     H26408   5.228   6.206   6.206 -2.2934  0.5833  0.9573
  958MOL0     H26409   4.985   6.228   6.255 -0.0418 -0.9011 -2.6320
  958MOL0     H26410   4.723   6.146   6.336  0.9662  0.4328  1.6161
  958MOL0     H26411   4.705   5.974   6.382 -1.0472  1.7652  1.4530
  958MOL0     H26412   4.698   5.891   6.146  3.5290 -0.4630  1.4840
  958MOL0     H26413   4.772   6.045   6.101  3.9314 -0.3157  3.2394
  958MOL0     H26414   4.487   6.000   6.196  0.8541 -0.6545 -0.4627
  958MOL0     H26415   4.545   6.159   6.201 -2.2416  1.3494 -0.6358
  958MOL0     H26416   4.413   6.064   6.004 -0.3181  0.1886 -3.7435
  958MOL0     H26417   4.551   5.981   5.951 -2.3206  0.3770 -1.0875
  958MOL0     H26418   4.708   6.396   5.895  0.4871 -0.9765  0.5384
  958MOL0     H26419   4.601   6.582   5.758  1.2521 -2.0005  1.6881
  958MOL0     H26420   4.240   6.872   5.717 -3.2105 -0.6639 -0.7063
  958MOL0     H26421   4.168   7.076   5.627  0.6967 -1.7929  2.0806
  958MOL0     H26422   4.291   7.184   5.220 -2.3777 -1.0813  0.1536
  958MOL0     H26423   4.410   7.268   5.319 -0.5422  3.8959  1.7806
  958MOL0     H26424   4.289   7.470   5.361  0.0935 -0.5982  0.0952
  958MOL0     H26425   4.137   7.400   5.288 -0.0069  1.0263  1.0086
  958MOL0     H26426   4.260   7.383   5.088  0.0089  2.3427 -1.9122
  958MOL0     H26427   4.385   7.483   5.148 -0.0453  4.0672  0.7528
  958MOL0     H26428   4.096   7.595   5.177  0.3651 -0.3208  2.6482
  958MOL0     H26429   4.241   7.673   5.215 -2.0274 -2.2454  2.3227
  958MOL0     H26430   4.313   7.686   4.978 -0.4285 -0.6658 -1.0122
  958MOL0     H26431   4.151   7.740   4.986 -1.3355 -0.1730  3.1341
  958MOL0     H26432   4.092   7.482   4.948 -2.1912 -0.6430 -4.0819
  958MOL0     H26433   4.252   7.505   4.864 -0.0342  0.6207 -0.8717
  958MOL0     H26434   4.058   7.519   4.718  0.5147 -1.8884  0.9560
  958MOL0     H26435   3.990   7.643   4.825  0.5467  0.5797  1.4130
  958MOL0     H26436   4.155   7.815   4.759 -1.2719  1.4272 -1.8458
  958MOL0     H26437   4.118   7.737   4.613 -1.8753  0.6980  0.8764
  958MOL0     H26438   4.454   7.033   5.311 -1.6637  1.5624 -1.2127
  958MOL0     H26439   4.526   6.815   5.418  0.5067 -3.0170  2.7075
  958MOL0     H26440   4.249   6.358   5.707 -0.6965 -1.8865  0.9700
  958MOL0     H26441   4.335   6.178   5.816 -0.3673 -0.5766  1.4148
  958MOL0     H26442   5.936   5.442   6.191  0.3966 -1.5848  0.4652
  958MOL0     H26443   6.008   5.256   6.110  0.0409  2.7180  0.0480
  958MOL0     H26444   5.902   4.804   6.260  0.0201 -1.4383  1.1789
  958MOL0     H26445   6.079   4.646   6.288 -0.8941  1.9800  1.8337
  958MOL0     H26446   6.215   4.465   6.202 -0.8736  2.1545  2.1313
  958MOL0     H26447   6.313   4.575   6.297  2.2859 -0.5761 -0.1699
  958MOL0     H26448   6.411   4.365   6.105 -1.4571  0.4290  0.2431
  958MOL0     H26449   6.524   4.474   6.192  0.6688 -1.8518  1.6031
  958MOL0     H26450   6.380   4.226   6.290  2.4209 -0.6088 -2.0311
  958MOL0     H26451   6.383   4.365   6.406  0.5550 -0.1039  0.6452
  958MOL0     H26452   6.608   4.237   6.228 -2.2567 -3.7070  1.9061
  958MOL0     H26453   6.637   4.375   6.339 -3.4105  3.6403 -1.6823
  958MOL0     H26454   6.647   4.021   6.569 -0.2675  1.0772  0.5754
  958MOL0     H26455   6.229   4.759   5.886 -1.0905  0.7691 -1.3099
  958MOL0     H26456   6.024   4.910   5.874  0.9845 -0.0147 -1.1942
  959MOL0     O26457   8.548   9.238   2.153 -0.0752  0.3653  0.4694
  959MOL0     C26458   8.557   9.357   2.164 -0.1377 -0.0462  0.4136
  959MOL0     O26459   8.665   9.424   2.225 -0.3384  0.1151 -0.0359
  959MOL0     C26460   8.768   9.341   2.262 -0.8368 -0.2924 -0.9993
  959MOL0     C26461   8.846   9.280   2.168 -0.6785  0.4884 -0.3544
  959MOL0     C26462   8.949   9.191   2.221  0.1169  0.0264  0.9485
  959MOL0     C26463   8.967   9.174   2.358  0.0020 -0.3203 -0.3776
  959MOL0     O26464   9.070   9.094   2.404  0.3704 -0.6107  0.1810
  959MOL0     C26465   9.021   9.005   2.504 -1.1497  0.5314  0.2972
  959MOL0     C26466   9.119   8.878   2.501 -0.5229  0.2985 -0.0047
  959MOL0     C26467   9.253   8.921   2.555 -0.4696 -1.0051 -0.0599
  959MOL0     C26468   9.353   8.804   2.564 -0.4916  0.1539 -0.2388
  959MOL0     C26469   9.478   8.846   2.643  0.4619 -0.3341  0.2883
  959MOL0     C26470   9.592   8.754   2.623 -0.0752  0.0848  1.0061
  959MOL0     C26471   9.721   8.830   2.649 -1.4560  0.1899 -0.1040
  959MOL0     C26472   9.760   8.825   2.799  0.4700 -0.3088 -0.7082
  959MOL0     N26473   9.866   8.916   2.826 -0.9510 -0.4604  0.5708
  959MOL0     C26474   9.841   9.048   2.847 -0.1885 -0.7616 -0.2557
  959MOL0     C26475   9.946   9.112   2.805 -0.5881 -0.5571 -0.6639
  959MOL0     C26476   9.964   9.270   2.805 -0.2298  0.7825  0.2680
  959MOL0     C26477  10.016   9.307   2.947  0.8452  0.9718  0.5796
  959MOL0     C26478  10.040   9.458   2.952  0.6612 -0.8235 -0.4039
  959MOL0     C26479  10.102   9.498   3.082  0.9352 -0.1423 -0.5010
  959MOL0     O26480  10.223   9.436   3.108 -0.5560 -0.0782  0.8097
  959MOL0     C26481  10.294   9.468   3.214  0.1237  0.2921 -0.5119
  959MOL0     C26482  10.275   9.580   3.294  0.6934  0.0874  0.1750
  959MOL0     C26483  10.342   9.592   3.415 -0.5832 -0.0214 -0.5271
  959MOL0     C26484  10.449   9.501   3.447 -0.5130  0.1407 -0.0349
  959MOL0     C26485  10.515   9.515   3.577  1.2999  0.8503 -0.1951
  959MOL0     O26486  10.449   9.574   3.677  0.5831 -0.3274 -0.1718
  959MOL0     C26487  10.526   9.604   3.789 -0.6648  0.5444  0.3977
  959MOL0     C26488  10.488   9.556   3.924 -0.0062  0.4353  0.7216
  959MOL0     C26489  10.575   9.557   4.036 -1.1923 -0.4365 -0.5054
  959MOL0     C26490  10.700   9.628   4.020  0.7877  0.7825 -1.0632
  959MOL0     O26491  10.794   9.617   4.120 -0.4516  0.7490 -0.2222
  959MOL0     C26492  10.820   9.483   4.183 -0.4324  0.2662 -0.3904
  959MOL0     C26493  10.884   9.394   4.079  0.1038 -0.1957  0.3529
  959MOL0     C26494  11.012   9.448   4.032  0.3049 -0.4086 -0.4891
  959MOL0     C26495  11.098   9.354   3.948 -0.1693 -0.6484  0.2763
  959MOL0     C26496  11.174   9.239   4.020  0.9095  0.3142  0.1682
  959MOL0     C26497  11.310   9.303   4.066  0.9747  0.1890  0.8373
  959MOL0     C26498  11.410   9.315   3.944 -0.6017 -0.8744 -0.5696
  959MOL0     C26499  11.547   9.361   3.992  0.5346  0.5303 -0.2023
  959MOL0    Cl26500  11.606   9.237   4.112 -0.5751 -0.0152  0.2924
  959MOL0     C26501  10.739   9.682   3.898  0.3334  0.3535 -0.2478
  959MOL0     C26502  10.661   9.661   3.782  0.6011 -0.5676 -0.4137
  959MOL0     O26503  10.629   9.461   3.583  0.1749  0.1435  0.0147
  959MOL0     C26504  10.470   9.396   3.357 -0.2051  0.1282  0.0124
  959MOL0     C26505  10.392   9.385   3.237 -0.3903 -0.0449 -0.4136
  959MOL0     N26506  10.042   9.020   2.772 -0.1422 -0.5168  0.1553
  959MOL0     N26507   9.991   8.896   2.775  0.0099  0.8938  0.1461
  959MOL0     C26508   8.891   9.257   2.449 -0.6237  0.6826 -0.1576
  959MOL0     C26509   8.788   9.326   2.400  0.3826  0.1906 -0.9899
  959MOL0     C26510   8.436   9.427   2.121 -0.2711  0.1352 -0.3149
  959MOL0     C26511   8.405   9.560   2.148  0.0318 -0.9371 -0.3291
  959MOL0     C26512   8.292   9.625   2.097  0.4251  0.8265 -1.3890
  959MOL0     C26513   8.205   9.559   2.011 -0.1455  0.4186 -1.2347
  959MOL0     O26514   8.096   9.616   1.956 -0.3897  0.4067  0.0240
  959MOL0     C26515   8.063   9.754   1.975 -0.3897 -0.8837  0.2865
  959MOL0     C26516   8.146   9.852   1.887 -0.6715 -0.4551 -0.1561
  959MOL0     C26517   8.122  10.004   1.909 -0.7341  0.6518  0.1899
  959MOL0     C26518   8.005  10.063   1.827 -0.4905 -0.1081 -0.1873
  959MOL0     C26519   8.017  10.068   1.684 -0.4728  0.0118  0.1564
  959MOL0     C26520   8.020  10.068   1.561 -0.4321 -0.4007  0.3447
  959MOL0     C26521   8.234   9.422   1.984  1.1888 -0.4713  0.2014
  959MOL0     C26522   8.343   9.360   2.042  0.5782 -0.0303  0.4466
  959MOL0     H26523   8.842   9.300   2.061  0.9230 -0.1468 -0.5688
  959MOL0     H26524   9.006   9.127   2.154 -0.0215  1.1558 -0.3081
  959MOL0     H26525   8.926   8.963   2.471 -2.5325  0.0967  4.3341
  959MOL0     H26526   9.020   9.049   2.604 -0.4241 -0.1947  0.6396
  959MOL0     H26527   9.121   8.833   2.401 -3.1637 -0.7807  0.3471
  959MOL0     H26528   9.071   8.801   2.562 -0.2509 -1.0205 -1.3989
  959MOL0     H26529   9.236   8.966   2.654  2.6253 -1.8811  1.0070
  959MOL0     H26530   9.304   9.000   2.499  0.9752 -0.4766  1.8828
  959MOL0     H26531   9.298   8.718   2.603  0.5593 -1.1550 -1.4947
  959MOL0     H26532   9.384   8.780   2.461  1.2443  0.3765  0.1951
  959MOL0     H26533   9.455   8.844   2.750  0.0406 -2.4407  0.2064
  959MOL0     H26534   9.498   8.949   2.611  0.5124  0.7297  3.4791
  959MOL0     H26535   9.604   8.723   2.519  0.5356  0.7955  0.8535
  959MOL0     H26536   9.578   8.672   2.694 -0.0679  1.7121  2.9987
  959MOL0     H26537   9.804   8.781   2.598 -1.0599  0.1147  0.5955
  959MOL0     H26538   9.712   8.928   2.601 -0.2200 -0.7364 -2.3893
  959MOL0     H26539   9.782   8.723   2.833  0.9782  0.2215  0.6315
  959MOL0     H26540   9.679   8.858   2.865  0.1584 -1.1905 -0.6261
  959MOL0     H26541   9.749   9.098   2.878 -0.9972 -1.9903 -0.5860
  959MOL0     H26542   9.865   9.315   2.790 -0.3409  0.3608 -0.2971
  959MOL0     H26543  10.027   9.305   2.723  1.8239 -0.6583  1.1570
  959MOL0     H26544  10.102   9.251   2.985  0.6438  0.2978  0.0611
  959MOL0     H26545   9.940   9.277   3.019  1.3433 -1.4110  0.1861
  959MOL0     H26546  10.115   9.486   2.877  3.4638  1.5294  2.9209
  959MOL0     H26547   9.950   9.518   2.938  0.3951 -0.9638  0.5983
  959MOL0     H26548  10.033   9.497   3.167 -1.6756  0.4723 -2.5249
  959MOL0     H26549  10.122   9.605   3.074  1.8102 -0.0783  1.7209
  959MOL0     H26550  10.200   9.656   3.273 -1.4346 -1.9217  0.2240
  959MOL0     H26551  10.316   9.675   3.481  1.4082  0.7653 -0.6828
  959MOL0     H26552  10.389   9.514   3.940 -0.4415  1.5602  1.1055
  959MOL0     H26553  10.542   9.521   4.133  2.4581 -0.3024  0.9391
  959MOL0     H26554  10.720   9.447   4.207 -0.4263 -0.7822 -1.8154
  959MOL0     H26555  10.888   9.478   4.268 -2.0202  2.2439  1.1011
  959MOL0     H26556  10.813   9.355   4.006  0.0035 -3.4439  2.0075
  959MOL0     H26557  10.904   9.302   4.135 -0.9074 -0.9995 -0.5852
  959MOL0     H26558  11.074   9.482   4.115  1.3921 -3.2357 -0.0009
  959MOL0     H26559  10.989   9.540   3.979 -2.0554 -0.6664 -0.0065
  959MOL0     H26560  11.031   9.308   3.874 -3.0130  0.3570  2.0502
  959MOL0     H26561  11.172   9.410   3.890  0.5433  0.6429  2.3389
  959MOL0     H26562  11.188   9.155   3.952  0.6420  0.0444  0.4443
  959MOL0     H26563  11.105   9.208   4.100  0.0360 -0.0854 -0.7140
  959MOL0     H26564  11.354   9.232   4.137  1.3816 -0.7166 -0.2933
  959MOL0     H26565  11.298   9.402   4.111  0.9986 -0.5863  2.6190
  959MOL0     H26566  11.433   9.217   3.901  2.0859 -0.6942  0.2377
  959MOL0     H26567  11.379   9.385   3.865 -0.4412 -0.3284 -0.1544
  959MOL0     H26568  11.529   9.459   4.037 -2.0935  0.6022 -1.2441
  959MOL0     H26569  11.616   9.371   3.908  0.2338  0.0117 -0.5144
  959MOL0     H26570  10.840   9.719   3.886 -0.0390  0.7713 -2.6656
  959MOL0     H26571  10.695   9.696   3.685  1.4368  0.0473  0.0905
  959MOL0     H26572  10.541   9.320   3.387  1.1334  1.7376  1.1412
  959MOL0     H26573  10.405   9.299   3.173  0.2429  2.5974 -4.1391
  959MOL0     H26574   8.915   9.256   2.555 -0.8097  3.4959 -0.0180
  959MOL0     H26575   8.737   9.376   2.482  0.4253 -1.8815  0.3771
  959MOL0     H26576   8.469   9.601   2.226 -2.0619 -0.3231  1.1488
  959MOL0     H26577   8.272   9.724   2.137  1.2968  0.0081  1.2932
  959MOL0     H26578   8.067   9.780   2.081  1.4715  1.8437 -0.3413
  959MOL0     H26579   7.962   9.774   1.937  1.2770  1.3730 -3.5929
  959MOL0     H26580   8.251   9.849   1.918 -0.5632  2.6507  0.0770
  959MOL0     H26581   8.151   9.822   1.782 -0.2259  2.5230 -1.0853
  959MOL0     H26582   8.217  10.051   1.880 -1.0981  1.6102  0.5166
  959MOL0     H26583   8.117  10.032   2.015 -0.1371 -2.5793  1.1781
  959MOL0     H26584   7.913  10.006   1.842 -1.2646  0.9806 -0.6723
  959MOL0     H26585   7.990  10.167   1.857 -1.1903 -0.4966  0.8840
  959MOL0     H26586   8.000  10.068   1.456 -2.1122  0.8686  0.6234
  959MOL0     H26587   8.163   9.375   1.917  1.1470  1.1617 -0.9566
  959MOL0     H26588   8.361   9.260   2.005  0.6164 -0.0187  0.4341
  960MOL0     O26589   2.464   9.741   0.059 -0.1181 -0.9930  0.1266
  960MOL0     C26590   2.543   9.694   0.142 -0.2677  0.8402  0.3648
  960MOL0     O26591   2.563   9.734   0.272  0.1561 -0.2548 -0.0726
  960MOL0     C26592   2.483   9.830   0.328  0.4072  1.0638  0.7972
  960MOL0     C26593   2.345   9.833   0.314  0.1335 -0.1387 -0.3834
  960MOL0     C26594   2.259   9.918   0.383 -0.3272  0.7070 -0.3707
  960MOL0     C26595   2.318  10.015   0.464 -0.3936  0.1194  0.5854
  960MOL0     O26596   2.249  10.107   0.530  0.6014 -0.6364  0.8107
  960MOL0     C26597   2.102  10.083   0.534 -0.7534 -0.7708 -0.4461
  960MOL0     C26598   2.045  10.154   0.657  0.2081  0.2787 -0.2336
  960MOL0     C26599   2.050  10.315   0.643  0.3188  0.4780  0.1308
  960MOL0     C26600   2.020  10.377   0.780  0.8430  0.1364 -1.3488
  960MOL0     C26601   2.055  10.523   0.785  0.3573 -0.7513 -0.7381
  960MOL0     C26602   1.999  10.579   0.919 -0.3237 -0.4606  0.5022
  960MOL0     C26603   1.843  10.567   0.931 -0.4510  0.6499  0.0194
  960MOL0     C26604   1.796  10.691   1.004 -0.0127 -0.7872  0.1058
  960MOL0     N26605   1.801  10.821   0.934  0.2252  0.0202 -0.4923
  960MOL0     C26606   1.778  10.833   0.802  0.0700 -0.6877 -0.8678
  960MOL0     C26607   1.807  10.962   0.772  0.8959 -0.1938  0.8589
  960MOL0     C26608   1.800  10.997   0.626 -0.3039 -0.4459 -0.3579
  960MOL0     C26609   1.951  11.002   0.587 -0.0299  0.6030  0.8428
  960MOL0     C26610   1.982  10.873   0.509 -1.6822 -0.5047  0.4530
  960MOL0     C26611   2.112  10.882   0.422 -0.6169 -0.5417  0.8267
  960MOL0     O26612   2.226  10.855   0.496 -0.0566 -0.5066  0.1182
  960MOL0     C26613   2.350  10.859   0.451 -0.5417 -0.5119 -0.4876
  960MOL0     C26614   2.392  10.885   0.321  0.4923 -0.6167  0.2222
  960MOL0     C26615   2.527  10.875   0.288  0.3782 -0.2586  0.4442
  960MOL0     C26616   2.630  10.839   0.384  1.1185  0.2098 -0.5425
  960MOL0     C26617   2.774  10.827   0.348 -0.6460 -0.4793  0.6383
  960MOL0     O26618   2.866  10.786   0.442 -0.6895 -0.2021 -0.0805
  960MOL0     C26619   3.005  10.783   0.431  0.4156  0.0455 -0.2002
  960MOL0     C26620   3.084  10.850   0.332  0.3531 -0.3277 -0.3020
  960MOL0     C26621   3.223  10.878   0.343 -0.2593 -0.6203 -0.1710
  960MOL0     C26622   3.296  10.827   0.450  0.0863  0.5566  1.0283
  960MOL0     O26623   3.421  10.855   0.466 -0.7275 -0.1157 -0.2895
  960MOL0     C26624   3.452  10.997   0.470 -0.1177  0.6114 -0.5556
  960MOL0     C26625   3.522  11.034   0.597  0.0876 -0.1519 -0.1206
  960MOL0     C26626   3.664  10.970   0.620 -0.0447  1.1214 -0.0000
  960MOL0     C26627   3.763  10.965   0.498 -0.3292 -0.0336  0.5624
  960MOL0     C26628   3.912  10.945   0.536  0.1184  0.0385  0.4031
  960MOL0     C26629   3.998  11.075   0.559  0.7744  0.9022 -0.1496
  960MOL0     C26630   4.145  11.049   0.569  0.9325  0.3111 -0.9004
  960MOL0     C26631   4.207  11.182   0.620 -0.2485  0.3560  0.1566
  960MOL0    Cl26632   4.186  11.305   0.486 -0.0585  0.3591  0.0585
  960MOL0     C26633   3.221  10.769   0.556  0.1917  0.3974  2.0415
  960MOL0     C26634   3.085  10.753   0.545  0.7706 -0.5895 -0.5029
  960MOL0     O26635   2.802  10.859   0.235 -0.2396  0.6025  0.1028
  960MOL0     C26636   2.581  10.813   0.513  0.4477  0.4034 -0.1545
  960MOL0     C26637   2.447  10.830   0.549  0.9274 -0.0436 -0.9160
  960MOL0     N26638   1.846  11.026   0.888  0.2489  0.0053  0.0687
  960MOL0     N26639   1.834  10.947   0.981 -0.2789 -0.2989  0.2486
  960MOL0     C26640   2.453  10.026   0.461 -0.4737  0.4532  0.5745
  960MOL0     C26641   2.538   9.931   0.407  1.0416 -0.6528 -0.5657
  960MOL0     C26642   2.627   9.579   0.085 -0.3150  1.4047  0.3390
  960MOL0     C26643   2.631   9.541  -0.048 -0.2507 -0.1872 -0.2802
  960MOL0     C26644   2.700   9.418  -0.090  0.4768  0.0095  0.8504
  960MOL0     C26645   2.780   9.338  -0.008 -0.3599 -0.5255 -0.5004
  960MOL0     O26646   2.858   9.219  -0.037  0.6174 -0.8888 -0.4163
  960MOL0     C26647   2.839   9.171  -0.172  0.7412  0.3990  0.1028
  960MOL0     C26648   2.955   9.204  -0.260 -0.5618  0.0689  0.0361
  960MOL0     C26649   2.960   9.119  -0.391 -0.5796 -0.1590  0.7075
  960MOL0     C26650   2.843   9.155  -0.492 -0.0847  0.3816  0.5823
  960MOL0     C26651   2.853   9.065  -0.605 -0.1815  0.8055 -0.1874
  960MOL0     C26652   2.867   8.976  -0.692  0.3086  0.3299 -1.0969
  960MOL0     C26653   2.784   9.387   0.122  0.4250 -0.1294 -0.5569
  960MOL0     C26654   2.708   9.498   0.168  0.1512 -0.9500  0.5830
  960MOL0     H26655   2.290   9.767   0.248 -0.3005  0.6547 -0.8394
  960MOL0     H26656   2.153   9.918   0.358 -0.2620 -0.3803 -0.7015
  960MOL0     H26657   2.062   9.981   0.541 -3.3426  0.1455 -0.6637
  960MOL0     H26658   2.046  10.116   0.446 -2.6632  0.6074  1.1859
  960MOL0     H26659   2.102  10.114   0.742 -0.6256 -3.4965 -1.2393
  960MOL0     H26660   1.942  10.126   0.681 -0.2990  4.4805  3.7983
  960MOL0     H26661   1.981  10.355   0.568 -1.8023 -2.1859  0.5194
  960MOL0     H26662   2.152  10.341   0.613  0.5523 -1.0439 -0.5130
  960MOL0     H26663   1.915  10.356   0.803  1.8096 -1.9584  1.7544
  960MOL0     H26664   2.082  10.329   0.856 -0.4420  1.8929  0.9472
  960MOL0     H26665   2.019  10.588   0.705  1.1417 -2.0744 -2.2255
  960MOL0     H26666   2.163  10.537   0.772  0.1058 -0.7552 -3.2274
  960MOL0     H26667   2.033  10.683   0.928  0.5580 -0.5102 -1.5918
  960MOL0     H26668   2.054  10.525   0.997  0.7312 -0.0352  0.0793
  960MOL0     H26669   1.799  10.558   0.831  0.1801 -2.7900 -0.0793
  960MOL0     H26670   1.812  10.477   0.986 -1.2679  0.2945 -0.9871
  960MOL0     H26671   1.862  10.704   1.091 -1.8226 -0.6223  1.5061
  960MOL0     H26672   1.699  10.678   1.052 -0.6200  5.1173  1.3165
  960MOL0     H26673   1.722  10.764   0.740 -1.4575 -0.9346  0.7196
  960MOL0     H26674   1.754  11.094   0.604 -1.1830 -0.9148 -0.6408
  960MOL0     H26675   1.742  10.927   0.566 -0.3234 -0.4521 -0.3327
  960MOL0     H26676   2.012  11.013   0.677 -0.6245 -1.3594  1.5441
  960MOL0     H26677   1.974  11.091   0.528 -3.0788 -0.4081 -2.2066
  960MOL0     H26678   2.005  10.791   0.578  0.5817  0.1325  0.5326
  960MOL0     H26679   1.901  10.870   0.435 -0.3460  1.4971 -1.1770
  960MOL0     H26680   2.121  10.980   0.374  0.8294 -1.0705 -0.0757
  960MOL0     H26681   2.108  10.811   0.339  1.9920  1.9940 -1.7461
  960MOL0     H26682   2.323  10.921   0.246  0.3580  1.5374  1.3045
  960MOL0     H26683   2.562  10.894   0.187  1.2866 -1.9172  0.4136
  960MOL0     H26684   3.046  10.871   0.233  1.9559  0.9990 -0.6733
  960MOL0     H26685   3.290  10.919   0.268 -0.9492 -0.3516 -0.6514
  960MOL0     H26686   3.366  11.062   0.455 -0.6803  0.2161  0.8094
  960MOL0     H26687   3.504  11.022   0.377  0.6550  0.1371 -0.2624
  960MOL0     H26688   3.461  11.003   0.681  2.7303 -3.7967  0.6787
  960MOL0     H26689   3.535  11.143   0.592  1.9147 -0.3984 -2.8377
  960MOL0     H26690   3.653  10.869   0.660 -1.2220  1.2142 -0.0537
  960MOL0     H26691   3.703  11.024   0.707 -0.4602 -0.0700  0.9473
  960MOL0     H26692   3.730  10.888   0.428 -1.2093  1.0334 -0.2341
  960MOL0     H26693   3.749  11.054   0.436  1.4376 -0.6139 -0.7390
  960MOL0     H26694   3.953  10.899   0.446 -3.7372 -3.1378  0.0021
  960MOL0     H26695   3.927  10.871   0.614  0.9533 -0.5277 -0.2714
  960MOL0     H26696   3.955  11.112   0.652 -1.5570 -2.5130  0.3272
  960MOL0     H26697   3.982  11.150   0.481  3.3350  0.5370 -1.1313
  960MOL0     H26698   4.155  10.976   0.651  1.1034  1.7429  0.3963
  960MOL0     H26699   4.206  11.003   0.491  0.4946  0.1890 -1.1727
  960MOL0     H26700   4.311  11.151   0.635 -1.1827 -2.4537  1.5779
  960MOL0     H26701   4.177  11.219   0.719  2.8422  0.4938  1.1588
  960MOL0     H26702   3.269  10.734   0.647 -0.8534 -0.7680  2.1668
  960MOL0     H26703   3.036  10.722   0.637  1.6914 -2.6517 -0.6386
  960MOL0     H26704   2.653  10.776   0.586  0.9941  1.9397  0.1182
  960MOL0     H26705   2.419  10.800   0.650 -0.8241 -1.7325 -1.8170
  960MOL0     H26706   2.496  10.111   0.515  3.5015  0.9579 -2.8334
  960MOL0     H26707   2.644   9.942   0.425  1.0408 -2.6005  0.8841
  960MOL0     H26708   2.579   9.588  -0.131 -1.9285 -0.7732  0.3936
  960MOL0     H26709   2.676   9.387  -0.192 -1.5933  4.1774 -0.1780
  960MOL0     H26710   2.747   9.193  -0.226 -0.3425 -1.6891  0.9935
  960MOL0     H26711   2.827   9.063  -0.157  1.2454  0.5878  2.2932
  960MOL0     H26712   2.956   9.309  -0.288 -0.7214 -0.1998 -1.0325
  960MOL0     H26713   3.044   9.193  -0.198  0.3135  0.7914 -1.0529
  960MOL0     H26714   2.947   9.018  -0.350 -0.1289  0.3121  2.0598
  960MOL0     H26715   3.064   9.125  -0.424 -0.3343  0.8725  1.6302
  960MOL0     H26716   2.741   9.137  -0.456  0.9872 -6.0625  1.4787
  960MOL0     H26717   2.852   9.255  -0.537  1.3872 -1.0112 -2.4606
  960MOL0     H26718   2.868   8.892  -0.758 -0.0218 -2.7682  2.5538
  960MOL0     H26719   2.845   9.327   0.189  2.8712  0.9725 -1.6775
  960MOL0     H26720   2.712   9.522   0.274 -1.9199 -0.2809  0.5719
  961MOL0     O26721   4.829  10.984   6.831  0.4835 -0.9643 -0.2483
  961MOL0     C26722   4.892  10.976   6.939 -1.0916 -0.6968 -0.2402
  961MOL0     O26723   5.012  10.910   6.952 -0.1185  0.3907 -0.1988
  961MOL0     C26724   5.082  10.909   6.837 -0.0693  0.0116  0.0937
  961MOL0     C26725   5.097  10.790   6.774 -0.0283 -0.8627 -0.3044
  961MOL0     C26726   5.184  10.781   6.671  0.0577 -0.6059 -0.1765
  961MOL0     C26727   5.256  10.896   6.623  0.4819  0.6311  0.1506
  961MOL0     O26728   5.331  10.883   6.512 -0.4428 -0.4461 -0.4391
  961MOL0     C26729   5.284  10.964   6.394  0.2821  0.2927  0.3358
  961MOL0     C26730   5.298  10.879   6.265  0.0272  0.2797 -0.7701
  961MOL0     C26731   5.190  10.776   6.270  0.9517  0.7426 -0.4990
  961MOL0     C26732   5.163  10.705   6.135  0.1611 -0.8148 -0.0582
  961MOL0     C26733   5.036  10.626   6.147 -0.2165 -0.5080  0.3058
  961MOL0     C26734   5.043  10.508   6.241 -0.4221  0.4224 -0.5584
  961MOL0     C26735   5.125  10.390   6.198  0.8175  0.0095  0.0900
  961MOL0     C26736   5.159  10.291   6.302 -0.0010  0.6959 -0.2175
  961MOL0     N26737   5.254  10.337   6.398  0.0680 -0.7641 -0.4187
  961MOL0     C26738   5.386  10.378   6.376  0.3117  0.0006 -0.9213
  961MOL0     C26739   5.413  10.441   6.494 -0.8744 -0.4283  0.2059
  961MOL0     C26740   5.552  10.481   6.534  0.8933  0.0945 -0.1617
  961MOL0     C26741   5.591  10.626   6.489 -0.8026  0.1714  0.0851
  961MOL0     C26742   5.739  10.661   6.544  0.3393  0.8012  0.4362
  961MOL0     C26743   5.856  10.637   6.445 -0.4323  0.0240  0.5515
  961MOL0     O26744   5.978  10.698   6.484 -0.3415 -0.7329  0.2003
  961MOL0     C26745   6.032  10.661   6.600  0.4430 -0.3422 -1.1752
  961MOL0     C26746   6.072  10.757   6.690  0.2949 -0.7483 -0.6111
  961MOL0     C26747   6.115  10.728   6.824 -0.5249  0.4113 -0.2126
  961MOL0     C26748   6.138  10.594   6.855  0.3878 -0.0275  0.9226
  961MOL0     C26749   6.206  10.565   6.982  0.1000  0.5543  0.3670
  961MOL0     O26750   6.165  10.623   7.089 -0.5052  0.0179 -0.1477
  961MOL0     C26751   6.233  10.612   7.208  1.1909  0.6833  0.1760
  961MOL0     C26752   6.285  10.722   7.280 -0.1764 -0.2599  0.7648
  961MOL0     C26753   6.327  10.712   7.407 -0.8775  0.5043 -0.3835
  961MOL0     C26754   6.340  10.587   7.467 -0.6331 -0.1280  0.3864
  961MOL0     O26755   6.393  10.575   7.595 -0.0124 -0.7794 -0.0960
  961MOL0     C26756   6.331  10.481   7.685  0.4411 -0.2788  0.2782
  961MOL0     C26757   6.370  10.513   7.824  0.5543 -0.0527 -0.8368
  961MOL0     C26758   6.282  10.440   7.934  0.0075 -0.0996  0.0679
  961MOL0     C26759   6.144  10.511   7.949 -0.1217  0.3295 -0.7855
  961MOL0     C26760   6.143  10.663   7.972  0.4665 -0.6678  0.0594
  961MOL0     C26761   6.225  10.704   8.094  0.2984  0.5622 -0.1358
  961MOL0     C26762   6.174  10.655   8.225  0.9900  0.4269 -0.6282
  961MOL0     C26763   6.036  10.713   8.259 -0.3639  0.3972  0.6705
  961MOL0    Cl26764   5.983  10.699   8.429  0.0205  0.1074  0.6363
  961MOL0     C26765   6.306  10.477   7.393  0.7574  0.2191 -0.4211
  961MOL0     C26766   6.251  10.487   7.261  1.4947  0.7889  0.3775
  961MOL0     O26767   6.305  10.494   6.970  0.8342  0.3971 -0.2093
  961MOL0     C26768   6.098  10.495   6.760 -0.6080  0.3340  0.6224
  961MOL0     C26769   6.042  10.530   6.637 -0.4522  0.5153  0.8860
  961MOL0     N26770   5.312  10.435   6.586  0.0371 -0.4012  0.4738
  961MOL0     N26771   5.217  10.366   6.526 -0.1444  0.5561 -0.1937
  961MOL0     C26772   5.241  11.018   6.692 -1.4464 -0.5065  0.4571
  961MOL0     C26773   5.145  11.027   6.795  0.0993 -0.7084  0.0137
  961MOL0     C26774   4.830  11.034   7.061 -0.6062  0.5810  0.5635
  961MOL0     C26775   4.696  11.063   7.064  0.6256  0.3605  0.3180
  961MOL0     C26776   4.629  11.121   7.184 -0.2646  0.2830  0.0877
  961MOL0     C26777   4.708  11.151   7.292  0.6442 -0.1773  1.0788
  961MOL0     O26778   4.656  11.210   7.403  0.1940  0.0910 -0.7745
  961MOL0     C26779   4.736  11.256   7.519  0.6648 -0.1876  0.0043
  961MOL0     C26780   4.667  11.345   7.614 -0.0636  0.3114 -0.5808
  961MOL0     C26781   4.551  11.267   7.670 -0.3981 -0.1782 -1.0736
  961MOL0     C26782   4.492  11.336   7.792  0.0783 -0.4601 -0.6071
  961MOL0     C26783   4.376  11.252   7.823 -0.0890 -1.1052 -0.6216
  961MOL0     C26784   4.289  11.177   7.856 -0.2548  0.3982  0.4349
  961MOL0     C26785   4.845  11.118   7.284 -0.8007 -0.2069  0.8332
  961MOL0     C26786   4.906  11.064   7.171  1.0731 -0.0608  0.4792
  961MOL0     H26787   5.043  10.704   6.813 -0.1858 -0.3557  0.6223
  961MOL0     H26788   5.200  10.684   6.624 -0.1447 -0.4654 -0.5435
  961MOL0     H26789   5.341  11.057   6.394 -0.1094  0.5490  1.1373
  961MOL0     H26790   5.179  10.992   6.404 -0.0368  0.1702 -2.0647
  961MOL0     H26791   5.397  10.832   6.257  0.8930  1.4337  2.0939
  961MOL0     H26792   5.296  10.934   6.170 -0.3607 -1.4505 -1.8129
  961MOL0     H26793   5.096  10.825   6.295 -0.7292  0.2021 -4.8401
  961MOL0     H26794   5.206  10.705   6.351 -0.8867 -0.2651 -0.9632
  961MOL0     H26795   5.141  10.786   6.065  1.1239 -0.0525  0.4792
  961MOL0     H26796   5.250  10.650   6.099  1.6203  0.9507  0.5888
  961MOL0     H26797   5.029  10.585   6.046  1.8503 -2.8215  0.9971
  961MOL0     H26798   4.955  10.696   6.167  0.8861  0.8441  0.1993
  961MOL0     H26799   4.942  10.469   6.257 -0.5358 -0.0689 -2.3028
  961MOL0     H26800   5.079  10.541   6.339 -2.6724  2.5833 -0.3825
  961MOL0     H26801   5.066  10.328   6.129  1.3192 -0.4267  0.0429
  961MOL0     H26802   5.213  10.420   6.140  1.0182  1.8061  1.2741
  961MOL0     H26803   5.211  10.209   6.250  1.1342 -0.3088  2.3072
  961MOL0     H26804   5.068  10.254   6.349  1.1382 -2.4964 -0.2457
  961MOL0     H26805   5.454  10.361   6.294 -1.0807  0.3751 -2.2033
  961MOL0     H26806   5.623  10.406   6.498  0.0896 -1.1609  0.7827
  961MOL0     H26807   5.563  10.477   6.642 -1.6480  1.9211  0.2592
  961MOL0     H26808   5.522  10.702   6.525 -0.8997  0.0092  0.2457
  961MOL0     H26809   5.600  10.631   6.380  0.1044  3.0310  0.2326
  961MOL0     H26810   5.743  10.753   6.603 -1.1633 -1.3690  4.2555
  961MOL0     H26811   5.751  10.583   6.619  0.5237  0.3736 -0.0330
  961MOL0     H26812   5.826  10.687   6.352 -0.4919  0.2740  0.7058
  961MOL0     H26813   5.862  10.530   6.425  1.6659  0.0619  0.7787
  961MOL0     H26814   6.063  10.861   6.660  1.2191 -0.8138 -1.1597
  961MOL0     H26815   6.149  10.797   6.901  1.8696 -2.2808  1.3461
  961MOL0     H26816   6.278  10.821   7.238  2.3840 -0.0158  0.7780
  961MOL0     H26817   6.365  10.797   7.463 -1.8731  1.5551 -1.2425
  961MOL0     H26818   6.359  10.379   7.656 -0.9094 -0.1021 -1.9019
  961MOL0     H26819   6.222  10.482   7.684  0.4175  2.0616 -0.3363
  961MOL0     H26820   6.377  10.622   7.826 -2.4348  0.3204 -2.7897
  961MOL0     H26821   6.470  10.473   7.839  0.2402 -0.6232 -0.1854
  961MOL0     H26822   6.327  10.447   8.034 -3.7609  0.9277  1.8830
  961MOL0     H26823   6.268  10.337   7.899 -1.1981  0.0561  0.0351
  961MOL0     H26824   6.082  10.486   7.862  1.9565  0.4279 -2.3611
  961MOL0     H26825   6.093  10.467   8.036  0.9844 -0.1745 -0.3766
  961MOL0     H26826   6.037  10.689   7.984  0.6201  0.3365 -0.6140
  961MOL0     H26827   6.176  10.719   7.884 -1.3429 -2.0109 -1.5865
  961MOL0     H26828   6.235  10.813   8.085  2.1801  0.2757 -2.7177
  961MOL0     H26829   6.327  10.667   8.083  0.3864  0.2983  1.3515
  961MOL0     H26830   6.166  10.546   8.226 -1.7617  0.5114 -2.5255
  961MOL0     H26831   6.247  10.684   8.301 -0.9918 -0.1671  1.6040
  961MOL0     H26832   5.958  10.669   8.197 -0.2926  0.5421  0.4804
  961MOL0     H26833   6.031  10.819   8.233  1.7721  0.3150 -0.3335
  961MOL0     H26834   6.313  10.378   7.437 -3.2752  0.2873  0.7297
  961MOL0     H26835   6.212  10.395   7.219 -1.6123  1.0557  2.3449
  961MOL0     H26836   6.099  10.390   6.787  0.3516  0.5838  1.6583
  961MOL0     H26837   6.004  10.449   6.576 -0.9233  0.7802  0.8291
  961MOL0     H26838   5.295  11.097   6.640 -1.8693 -0.8083 -0.4792
  961MOL0     H26839   5.121  11.123   6.840 -1.6522 -1.0394 -0.1619
  961MOL0     H26840   4.635  11.026   6.982  1.0968 -5.4950  2.1317
  961MOL0     H26841   4.522  11.138   7.184 -0.5169 -1.0688  1.3664
  961MOL0     H26842   4.824  11.301   7.470  1.1456  0.1162  1.1137
  961MOL0     H26843   4.761  11.166   7.576 -1.3786 -0.6852  0.1696
  961MOL0     H26844   4.734  11.387   7.690 -2.3876  2.3793  0.4921
  961MOL0     H26845   4.621  11.428   7.560 -1.8615  0.0002  0.4105
  961MOL0     H26846   4.578  11.163   7.691  1.3707  0.5791  0.7692
  961MOL0     H26847   4.469  11.269   7.598 -1.5476  0.1818  0.1856
  961MOL0     H26848   4.561  11.330   7.876 -0.4308  0.1767 -0.1439
  961MOL0     H26849   4.467  11.440   7.772  0.2129 -0.1653  0.6774
  961MOL0     H26850   4.209  11.113   7.886  0.3808 -2.7784 -3.8111
  961MOL0     H26851   4.918  11.154   7.356  1.8651  1.1133 -2.3033
  961MOL0     H26852   5.013  11.054   7.182  0.9238 -1.2008  0.9875
  962MOL0     O26853   7.029   0.929   4.080  0.0404 -0.4145  0.1530
  962MOL0     C26854   6.986   0.837   4.141  0.2228 -0.5659  0.4117
  962MOL0     O26855   6.880   0.840   4.242  0.5611 -0.0303  0.4647
  962MOL0     C26856   6.792   0.946   4.259 -0.3817  0.9533 -0.1964
  962MOL0     C26857   6.661   0.916   4.295  0.1573  0.5494 -1.2049
  962MOL0     C26858   6.571   1.013   4.332  0.1674  0.1578  0.6116
  962MOL0     C26859   6.599   1.149   4.305 -0.1144 -0.5545 -0.1221
  962MOL0     O26860   6.492   1.231   4.310  0.5294 -0.8168 -0.2598
  962MOL0     C26861   6.522   1.375   4.341  0.2807 -0.2725 -0.0584
  962MOL0     C26862   6.395   1.456   4.362  1.6024  0.5611  1.0190
  962MOL0     C26863   6.414   1.609   4.333  0.2437 -0.4445  0.2568
  962MOL0     C26864   6.288   1.678   4.318 -0.4747  0.4413 -0.9870
  962MOL0     C26865   6.208   1.649   4.193  0.3870  0.8327 -0.1445
  962MOL0     C26866   6.061   1.697   4.198  0.9036  1.6301  0.3708
  962MOL0     C26867   6.063   1.845   4.227  0.4467 -0.0898 -1.0549
  962MOL0     C26868   5.921   1.907   4.201 -0.1769  0.8653  0.1199
  962MOL0     N26869   5.919   2.054   4.209 -0.3177 -0.4301  0.5661
  962MOL0     C26870   5.964   2.154   4.124 -0.4404 -0.1764  0.0946
  962MOL0     C26871   5.946   2.266   4.181 -0.1010 -0.2271  0.3041
  962MOL0     C26872   5.999   2.390   4.108  0.5793  0.7832 -0.4102
  962MOL0     C26873   6.158   2.390   4.104 -0.1390 -0.2219  0.2766
  962MOL0     C26874   6.189   2.499   3.991 -0.7333 -0.0423 -0.5411
  962MOL0     C26875   6.336   2.554   3.990 -0.2652  0.1191  0.2708
  962MOL0     O26876   6.404   2.516   3.873  0.7316  0.3923  0.3142
  962MOL0     C26877   6.419   2.390   3.832  0.5606 -0.0276  0.1459
  962MOL0     C26878   6.430   2.284   3.921  0.3850 -0.7671 -0.2652
  962MOL0     C26879   6.451   2.154   3.876  0.0651  0.0922  0.9339
  962MOL0     C26880   6.458   2.133   3.737 -0.2361  1.0352  1.0267
  962MOL0     C26881   6.482   1.997   3.682  0.0251 -0.0645 -0.3415
  962MOL0     O26882   6.512   1.990   3.554 -0.4362 -0.2896  0.4970
  962MOL0     C26883   6.548   1.864   3.508 -0.4893 -0.2882  0.5355
  962MOL0     C26884   6.469   1.754   3.517  0.6608  1.0231 -1.0282
  962MOL0     C26885   6.508   1.633   3.464 -0.5396  0.0349  0.4438
  962MOL0     C26886   6.633   1.618   3.410  1.1657 -0.1529  0.5458
  962MOL0     O26887   6.673   1.488   3.382 -0.1667  0.6668  0.3147
  962MOL0     C26888   6.651   1.394   3.478 -1.0566 -0.1868 -1.1634
  962MOL0     C26889   6.740   1.276   3.456 -0.0143  0.4537  0.2053
  962MOL0     C26890   6.717   1.161   3.561  0.4302 -0.2169  0.3150
  962MOL0     C26891   6.806   1.190   3.681  0.4822  0.1373  0.0974
  962MOL0     C26892   6.734   1.150   3.815  0.1604  0.0724 -0.9557
  962MOL0     C26893   6.700   0.998   3.827  0.0510 -0.2473 -0.2958
  962MOL0     C26894   6.810   0.905   3.794 -0.3777 -1.4816 -0.3106
  962MOL0     C26895   6.783   0.756   3.817  0.5448 -0.4168 -0.5726
  962MOL0    Cl26896   6.913   0.659   3.746  0.2893  0.0240 -0.4614
  962MOL0     C26897   6.718   1.732   3.395 -0.0136 -0.0381 -0.1098
  962MOL0     C26898   6.674   1.845   3.443  0.4900 -0.3712  0.3846
  962MOL0     O26899   6.496   1.899   3.760 -0.2401 -0.0342  0.3059
  962MOL0     C26900   6.419   2.233   3.648  1.5021 -0.3919 -0.0242
  962MOL0     C26901   6.412   2.366   3.699 -0.2080  0.3469  0.8885
  962MOL0     N26902   5.890   2.249   4.306 -0.7531 -0.5914  0.5423
  962MOL0     N26903   5.883   2.124   4.316 -0.0997  0.3429  0.2281
  962MOL0     C26904   6.728   1.185   4.256  0.3627 -0.0809  0.0214
  962MOL0     C26905   6.817   1.077   4.230 -0.2720  0.6946 -0.2960
  962MOL0     C26906   7.056   0.703   4.123 -1.4624 -0.4492 -0.8843
  962MOL0     C26907   6.990   0.583   4.135  0.4728 -0.0133 -0.4319
  962MOL0     C26908   7.048   0.459   4.113  0.2604 -0.2805  0.8103
  962MOL0     C26909   7.190   0.450   4.083  0.3038  0.3919  0.2053
  962MOL0     O26910   7.239   0.325   4.053  0.1276 -0.4110 -0.5135
  962MOL0     C26911   7.383   0.328   4.022 -0.2482 -0.0229 -0.5892
  962MOL0     C26912   7.442   0.196   3.975  0.3650  0.2246 -0.2566
  962MOL0     C26913   7.372   0.134   3.846 -0.5709  0.9615 -0.8407
  962MOL0     C26914   7.377   0.226   3.726  0.2419 -0.8781  0.3056
  962MOL0     C26915   7.508   0.277   3.703 -0.7754 -1.4505  0.5148
  962MOL0     C26916   7.623   0.325   3.692  0.7400  0.2394 -0.5959
  962MOL0     C26917   7.256   0.574   4.070 -0.1859 -0.2560  0.7836
  962MOL0     C26918   7.196   0.696   4.090 -0.6831  0.2287 -0.3222
  962MOL0     H26919   6.624   0.815   4.310  1.0202  0.0549 -2.2399
  962MOL0     H26920   6.473   0.980   4.367  0.0400  0.6980  0.7837
  962MOL0     H26921   6.567   1.420   4.252 -0.3774  0.9336  0.2097
  962MOL0     H26922   6.596   1.379   4.422 -0.6317  4.5160  0.8227
  962MOL0     H26923   6.349   1.440   4.460 -1.7372 -0.4660 -0.5455
  962MOL0     H26924   6.320   1.426   4.289  1.1808  2.2636  0.7034
  962MOL0     H26925   6.479   1.625   4.247 -1.1890 -0.1153 -0.7925
  962MOL0     H26926   6.462   1.661   4.417 -2.2084  1.5733  0.5015
  962MOL0     H26927   6.237   1.677   4.415 -0.1724 -1.0794 -0.8229
  962MOL0     H26928   6.310   1.785   4.318 -3.1680  1.1058  1.1089
  962MOL0     H26929   6.213   1.541   4.182 -0.3247  0.7730  0.0709
  962MOL0     H26930   6.259   1.702   4.112  0.8343  0.6293  0.0032
  962MOL0     H26931   6.009   1.633   4.270 -0.7889  0.1045 -2.0373
  962MOL0     H26932   6.005   1.685   4.105  0.0935 -1.9150  1.1717
  962MOL0     H26933   6.087   1.869   4.331 -2.2305  1.5982 -0.7340
  962MOL0     H26934   6.130   1.898   4.159  1.3920  2.0803  1.4065
  962MOL0     H26935   5.843   1.865   4.265 -0.5230  0.2904 -0.6682
  962MOL0     H26936   5.898   1.894   4.095 -2.1373  3.7566  0.0700
  962MOL0     H26937   5.999   2.143   4.022  1.1946 -2.4280  0.8283
  962MOL0     H26938   5.943   2.472   4.153 -2.2832 -0.7533 -0.9634
  962MOL0     H26939   5.954   2.375   4.010 -0.8669 -4.0902  0.7345
  962MOL0     H26940   6.206   2.295   4.078  1.0436  0.6617 -0.9506
  962MOL0     H26941   6.212   2.422   4.194 -0.9676  0.2742  0.6088
  962MOL0     H26942   6.179   2.455   3.891  2.3390 -1.6233 -0.2574
  962MOL0     H26943   6.117   2.580   4.002 -1.0670 -0.0987 -2.1043
  962MOL0     H26944   6.373   2.519   4.087 -1.9664  0.3004  1.0260
  962MOL0     H26945   6.334   2.663   3.986 -3.2819  0.2160  1.6957
  962MOL0     H26946   6.468   2.301   4.021  0.8162 -0.4974 -0.4723
  962MOL0     H26947   6.481   2.075   3.945 -2.3941 -1.1091  0.7124
  962MOL0     H26948   6.376   1.772   3.570  1.2993  1.0755  0.1042
  962MOL0     H26949   6.436   1.553   3.476  1.3235 -2.0109 -1.3606
  962MOL0     H26950   6.549   1.353   3.475 -0.8755 -1.0464  1.3917
  962MOL0     H26951   6.676   1.431   3.578  0.3002 -0.9698 -1.1980
  962MOL0     H26952   6.843   1.313   3.459 -0.1863  1.1729 -1.5568
  962MOL0     H26953   6.724   1.237   3.355 -2.0712  0.7213  0.3944
  962MOL0     H26954   6.743   1.061   3.526 -1.6746 -0.7409  0.1107
  962MOL0     H26955   6.612   1.163   3.591  1.3263 -1.7736  4.0744
  962MOL0     H26956   6.898   1.132   3.672  0.2738 -0.0199 -1.1850
  962MOL0     H26957   6.825   1.297   3.690 -0.5493  0.7749 -3.6265
  962MOL0     H26958   6.647   1.214   3.832  0.2762 -0.1052  0.3788
  962MOL0     H26959   6.800   1.173   3.899 -1.1638 -0.2945  0.2343
  962MOL0     H26960   6.611   0.991   3.764 -0.0968  0.3508 -0.1595
  962MOL0     H26961   6.667   0.973   3.928 -0.2440 -1.1336 -0.6022
  962MOL0     H26962   6.851   0.922   3.694  1.0554 -1.8793  0.1760
  962MOL0     H26963   6.891   0.935   3.861 -2.4546 -1.2038  2.1947
  962MOL0     H26964   6.689   0.740   3.763  0.8301  2.1715 -2.0426
  962MOL0     H26965   6.777   0.731   3.923  1.2284  3.5229  0.5861
  962MOL0     H26966   6.818   1.729   3.352  1.1673  3.0004  2.0348
  962MOL0     H26967   6.742   1.929   3.428 -0.7848  0.7704  0.8663
  962MOL0     H26968   6.410   2.231   3.540  2.2108 -1.9518 -0.0873
  962MOL0     H26969   6.411   2.454   3.636  0.5106  0.9509  1.7008
  962MOL0     H26970   6.749   1.285   4.220 -1.2776  0.8882  1.5942
  962MOL0     H26971   6.914   1.092   4.184  0.8074 -1.3919  1.1633
  962MOL0     H26972   6.887   0.581   4.171  1.4602 -0.1569  2.6612
  962MOL0     H26973   6.981   0.374   4.120  1.6582 -1.5993 -0.8738
  962MOL0     H26974   7.436   0.361   4.111 -0.2630 -1.6926  0.0879
  962MOL0     H26975   7.407   0.407   3.951 -3.4523  1.9273  0.3129
  962MOL0     H26976   7.542   0.223   3.942  0.7800 -1.9278 -0.8699
  962MOL0     H26977   7.455   0.124   4.056 -1.5600 -0.3950 -0.4430
  962MOL0     H26978   7.267   0.115   3.873  0.9182 -3.9720  2.8467
  962MOL0     H26979   7.412   0.041   3.804 -1.9519  0.4755 -1.1408
  962MOL0     H26980   7.329   0.195   3.633 -0.9041 -0.0727  0.6018
  962MOL0     H26981   7.325   0.315   3.763  1.8544  0.0539  0.4142
  962MOL0     H26982   7.715   0.376   3.672  0.9451  0.5714  1.0873
  962MOL0     H26983   7.365   0.577   4.069 -0.1401 -1.2107 -0.5736
  962MOL0     H26984   7.247   0.791   4.087  1.9785 -1.1411 -2.0821
  963MOL0     O26985   5.563   4.291   2.971  0.3779  0.3132 -0.3476
  963MOL0     C26986   5.592   4.210   2.884  0.6297 -0.1722  0.7729
  963MOL0     O26987   5.567   4.080   2.892 -0.0439  0.1032  0.0057
  963MOL0     C26988   5.578   4.009   3.008 -0.3665  0.3983 -0.2973
  963MOL0     C26989   5.665   4.024   3.112 -1.0821  0.2694  0.0578
  963MOL0     C26990   5.672   3.930   3.211 -0.3214  0.1646 -0.4523
  963MOL0     C26991   5.585   3.816   3.200  0.2892  0.1562  0.2577
  963MOL0     O26992   5.585   3.720   3.301 -0.0128  0.2469  0.4837
  963MOL0     C26993   5.700   3.642   3.322  0.1756  1.0119 -0.5505
  963MOL0     C26994   5.669   3.518   3.400 -0.0678  0.1889  0.8564
  963MOL0     C26995   5.590   3.416   3.323 -0.5258 -0.3737  0.1633
  963MOL0     C26996   5.533   3.318   3.436  0.0633 -0.5742 -0.2452
  963MOL0     C26997   5.450   3.198   3.400  0.3851 -0.0602  0.1335
  963MOL0     C26998   5.417   3.105   3.509 -0.6230 -0.8841 -0.2855
  963MOL0     C26999   5.284   3.034   3.483 -0.6687  0.6275 -0.6110
  963MOL0     C27000   5.166   3.121   3.532 -0.0401  0.1494  0.2768
  963MOL0     N27001   5.040   3.059   3.500 -0.7944  0.8882  0.4718
  963MOL0     C27002   4.999   2.957   3.577 -1.1525 -0.0117  0.0539
  963MOL0     C27003   4.873   2.928   3.545 -0.2803  0.4777  0.0575
  963MOL0     C27004   4.792   2.811   3.585  0.1407  0.2062  0.4216
  963MOL0     C27005   4.863   2.683   3.544  0.5809 -0.1376  0.4975
  963MOL0     C27006   4.882   2.625   3.408  0.7197 -0.1805 -1.4050
  963MOL0     C27007   4.751   2.646   3.327  0.6994  0.6386  0.8060
  963MOL0     O27008   4.749   2.595   3.191  0.0817 -0.3012  1.1571
  963MOL0     C27009   4.832   2.641   3.100  0.8908  0.6112  0.3660
  963MOL0     C27010   4.855   2.561   2.986  0.8738 -0.8519 -0.3554
  963MOL0     C27011   4.940   2.605   2.890 -0.9602  0.6535 -0.1649
  963MOL0     C27012   5.014   2.723   2.905  0.1797  0.1905  0.0718
  963MOL0     C27013   5.112   2.771   2.805  0.5195  0.1470 -0.0593
  963MOL0     O27014   5.156   2.895   2.812  0.4200 -0.4816 -0.7146
  963MOL0     C27015   5.231   2.946   2.710 -0.1194  0.3913  0.6458
  963MOL0     C27016   5.353   2.885   2.680  0.2866 -0.0080 -0.3216
  963MOL0     C27017   5.443   2.934   2.583 -0.2062 -0.6297  0.3543
  963MOL0     C27018   5.406   3.052   2.512 -1.0905 -0.2923  0.4504
  963MOL0     O27019   5.494   3.115   2.430  0.2904 -1.2171  0.3095
  963MOL0     C27020   5.573   3.218   2.504 -0.2414 -0.6067  0.5672
  963MOL0     C27021   5.682   3.258   2.405  0.3331  0.5887  0.0719
  963MOL0     C27022   5.722   3.406   2.416 -0.3858  0.3051  0.9656
  963MOL0     C27023   5.836   3.440   2.328 -0.0223 -0.7225  0.5610
  963MOL0     C27024   5.968   3.409   2.394 -0.4347 -0.0628  0.6277
  963MOL0     C27025   6.079   3.449   2.289 -0.1021 -0.3119 -0.6400
  963MOL0     C27026   6.213   3.409   2.349 -0.8765  0.6471  0.2596
  963MOL0     C27027   6.338   3.459   2.279  0.2286  0.1104 -0.9213
  963MOL0    Cl27028   6.308   3.449   2.099  0.0829  0.9600 -0.3092
  963MOL0     C27029   5.285   3.117   2.536  1.1970 -0.3217 -0.4703
  963MOL0     C27030   5.203   3.066   2.640  0.3709 -0.0575  0.3224
  963MOL0     O27031   5.144   2.684   2.720  0.1636 -0.1612 -0.9525
  963MOL0     C27032   4.983   2.808   3.011  0.1905 -0.8764 -0.1919
  963MOL0     C27033   4.889   2.766   3.107 -0.1687  0.0258 -0.9939
  963MOL0     N27034   4.841   3.022   3.443 -0.2154 -1.4106 -0.6950
  963MOL0     N27035   4.943   3.097   3.411  0.0156  0.4975  0.3348
  963MOL0     C27036   5.491   3.798   3.097 -1.0200  0.3357 -0.3325
  963MOL0     C27037   5.494   3.896   3.003 -0.1037 -0.1199 -0.2915
  963MOL0     C27038   5.639   4.271   2.755  0.2984 -0.0915  0.0274
  963MOL0     C27039   5.609   4.405   2.725  0.2354 -1.1158 -0.9803
  963MOL0     C27040   5.679   4.464   2.624 -0.7226  0.7289  0.0335
  963MOL0     C27041   5.768   4.391   2.541 -0.2583  0.1901  0.7951
  963MOL0     O27042   5.846   4.456   2.452  0.5108  0.0803  0.2605
  963MOL0     C27043   5.918   4.572   2.491  0.7267  0.1691  0.8638
  963MOL0     C27044   6.058   4.576   2.427  0.4795 -1.1166 -0.1630
  963MOL0     C27045   6.050   4.604   2.277  0.5505  0.3081 -0.3418
  963MOL0     C27046   6.187   4.582   2.218 -0.0289  0.0468  0.0759
  963MOL0     C27047   6.180   4.640   2.084  0.1560 -0.4880  0.4088
  963MOL0     C27048   6.176   4.695   1.979  0.9167  0.9639 -0.1211
  963MOL0     C27049   5.782   4.248   2.564 -0.1330  1.1708  0.3945
  963MOL0     C27050   5.725   4.187   2.677 -1.2169 -0.1208  0.0964
  963MOL0     H27051   5.719   4.119   3.114  3.5858 -2.0309  2.9566
  963MOL0     H27052   5.741   3.932   3.295 -1.6382 -2.2092  0.7890
  963MOL0     H27053   5.776   3.700   3.375  3.6714 -3.9292  0.5171
  963MOL0     H27054   5.736   3.599   3.229  2.7258 -3.5739  2.2101
  963MOL0     H27055   5.610   3.560   3.482  0.8158  1.0149  1.0894
  963MOL0     H27056   5.762   3.469   3.430  1.6528  0.0807 -3.7747
  963MOL0     H27057   5.651   3.381   3.239 -0.5850  3.1783 -1.5141
  963MOL0     H27058   5.505   3.461   3.273 -0.8794 -2.5389 -1.3222
  963MOL0     H27059   5.619   3.272   3.484  0.0282  1.2544  1.7359
  963MOL0     H27060   5.482   3.382   3.509  2.5461  2.9537 -1.3342
  963MOL0     H27061   5.504   3.144   3.322 -1.6666  0.7578 -1.9879
  963MOL0     H27062   5.356   3.239   3.360  0.2347 -1.9711 -1.6429
  963MOL0     H27063   5.399   3.161   3.601 -1.8481  1.6593 -1.9749
  963MOL0     H27064   5.494   3.030   3.529  2.2424  1.5405 -1.3767
  963MOL0     H27065   5.267   3.018   3.376 -1.9470  1.0669 -0.4887
  963MOL0     H27066   5.282   2.938   3.536 -2.7199  0.5151 -0.8327
  963MOL0     H27067   5.182   3.213   3.475  2.1842 -0.0170  0.5748
  963MOL0     H27068   5.185   3.146   3.636  0.4271  0.6372  0.0759
  963MOL0     H27069   5.062   2.907   3.650  1.2314 -0.7326 -2.3026
  963MOL0     H27070   4.689   2.808   3.549  0.0160 -1.9747  0.7809
  963MOL0     H27071   4.779   2.825   3.693 -0.5849 -0.0225  0.3734
  963MOL0     H27072   4.797   2.612   3.594  0.1384 -0.0650  0.0173
  963MOL0     H27073   4.963   2.683   3.590  0.8956 -1.1428 -0.1688
  963MOL0     H27074   4.961   2.687   3.365  1.2316  0.1421 -0.0674
  963MOL0     H27075   4.908   2.519   3.405  2.3254  0.1447 -0.3103
  963MOL0     H27076   4.728   2.752   3.329 -1.1959  0.2558  1.4435
  963MOL0     H27077   4.671   2.595   3.382  1.4090  0.2232  1.4608
  963MOL0     H27078   4.809   2.463   2.983 -1.4581  0.1382  1.0328
  963MOL0     H27079   4.979   2.532   2.821 -1.8577  0.4551 -0.4734
  963MOL0     H27080   5.377   2.792   2.730  1.6648  1.0003  1.0025
  963MOL0     H27081   5.539   2.884   2.570  0.5011  0.8869 -0.7352
  963MOL0     H27082   5.625   3.166   2.585  0.3725 -2.1079 -0.7581
  963MOL0     H27083   5.503   3.297   2.533 -1.0093 -1.2997  0.6111
  963MOL0     H27084   5.653   3.241   2.301  1.8328 -4.4859  0.2078
  963MOL0     H27085   5.772   3.200   2.426  0.3474  1.0370  1.3825
  963MOL0     H27086   5.751   3.438   2.516 -0.0714  1.4484  0.5241
  963MOL0     H27087   5.629   3.462   2.399 -1.2171 -0.4593  2.7525
  963MOL0     H27088   5.840   3.380   2.237 -2.6072  1.2968 -0.9948
  963MOL0     H27089   5.835   3.546   2.302 -1.7584 -0.5003  1.3869
  963MOL0     H27090   5.984   3.304   2.420  1.1746 -0.1211 -0.4329
  963MOL0     H27091   5.963   3.464   2.488 -3.1782  0.2244  0.4093
  963MOL0     H27092   6.073   3.556   2.269 -1.0815 -0.3996 -0.8819
  963MOL0     H27093   6.070   3.385   2.200  4.1262 -0.5089 -1.1359
  963MOL0     H27094   6.207   3.453   2.449 -0.4617  2.8240 -0.6312
  963MOL0     H27095   6.223   3.301   2.369 -1.3136  0.9151  2.2123
  963MOL0     H27096   6.431   3.416   2.316  0.2099  2.4682  2.3098
  963MOL0     H27097   6.354   3.563   2.307 -2.2792 -0.1892  2.0950
  963MOL0     H27098   5.252   3.205   2.482  0.6749  0.9088  1.7342
  963MOL0     H27099   5.115   3.119   2.675  0.4486  0.2864  0.0082
  963MOL0     H27100   5.018   2.911   3.013  1.6444 -1.3465  1.9818
  963MOL0     H27101   4.864   2.833   3.189 -0.0989 -1.7316  0.5301
  963MOL0     H27102   5.425   3.713   3.084 -0.4425  0.0803 -1.7255
  963MOL0     H27103   5.434   3.889   2.913  1.2839  2.1547 -1.4921
  963MOL0     H27104   5.533   4.456   2.783 -1.6159 -2.5815 -2.0341
  963MOL0     H27105   5.668   4.571   2.611 -1.5398  0.6407 -0.0511
  963MOL0     H27106   5.944   4.576   2.597 -0.2016 -2.1886  1.2316
  963MOL0     H27107   5.866   4.658   2.448  0.8292 -1.0280 -1.8756
  963MOL0     H27108   6.108   4.662   2.472 -4.2110  0.6806  2.3388
  963MOL0     H27109   6.102   4.477   2.443  0.4710 -1.0492  0.2971
  963MOL0     H27110   6.012   4.706   2.274 -1.1522 -0.2936 -0.3583
  963MOL0     H27111   5.983   4.533   2.228 -0.4224  0.7632  0.2940
  963MOL0     H27112   6.268   4.630   2.274 -0.1993 -1.2698  1.5214
  963MOL0     H27113   6.203   4.475   2.206 -0.8059 -0.0255 -0.3645
  963MOL0     H27114   6.185   4.764   1.898  0.0697 -1.0407 -2.0110
  963MOL0     H27115   5.844   4.191   2.496  2.7011  2.8117  1.4157
  963MOL0     H27116   5.730   4.087   2.720  1.4437  0.5842  1.6277
  964MOL0     O27117   8.410   8.057   6.524 -0.8170  0.3248 -0.0909
  964MOL0     C27118   8.337   7.962   6.548 -0.1895 -0.6231 -0.0407
  964MOL0     O27119   8.372   7.846   6.617  0.0128  0.1773 -0.4045
  964MOL0     C27120   8.495   7.817   6.675  0.9454  0.1288 -0.9621
  964MOL0     C27121   8.523   7.683   6.676 -0.0283  0.0067 -0.5037
  964MOL0     C27122   8.654   7.642   6.699  0.2089  0.2741 -0.6658
  964MOL0     C27123   8.745   7.739   6.745 -0.6789  0.8830  0.6940
  964MOL0     O27124   8.871   7.682   6.777  0.2215  0.0924  0.0951
  964MOL0     C27125   8.985   7.756   6.729 -0.3884 -0.2999 -0.1312
  964MOL0     C27126   9.057   7.685   6.612  0.7866  0.0528  0.4383
  964MOL0     C27127   8.978   7.677   6.478 -0.4414 -1.0234 -0.8839
  964MOL0     C27128   8.927   7.825   6.432 -0.3201  0.2625 -0.8437
  964MOL0     C27129   8.876   7.805   6.290 -0.6086 -0.2942  0.3520
  964MOL0     C27130   8.838   7.938   6.225  0.5626 -0.0207  1.0212
  964MOL0     C27131   8.729   8.025   6.291  0.3228 -0.1732  0.3488
  964MOL0     C27132   8.707   8.133   6.181  0.4389  0.3186 -0.1201
  964MOL0     N27133   8.597   8.091   6.087 -0.7440  0.1813 -0.1999
  964MOL0     C27134   8.462   8.070   6.118  0.6538 -0.0295  1.0924
  964MOL0     C27135   8.404   8.026   6.007  0.0915 -0.3217  0.2537
  964MOL0     C27136   8.273   7.971   5.988 -0.9188 -0.6392 -0.3174
  964MOL0     C27137   8.193   8.037   5.880  0.1368  0.8396  0.1900
  964MOL0     C27138   8.241   7.980   5.745 -0.1198  1.0509  0.3655
  964MOL0     C27139   8.132   8.014   5.649  0.8893  0.3076  0.6340
  964MOL0     O27140   8.111   8.153   5.646 -0.5610  0.1945 -0.2331
  964MOL0     C27141   8.018   8.208   5.557  0.7688 -0.5752  0.7176
  964MOL0     C27142   7.967   8.330   5.589 -0.4076  0.6752  0.4307
  964MOL0     C27143   7.877   8.397   5.505 -0.3646 -0.5641  0.1010
  964MOL0     C27144   7.814   8.326   5.396 -0.1247  0.5352  0.1044
  964MOL0     C27145   7.713   8.395   5.316 -0.1631  0.2933  0.3089
  964MOL0     O27146   7.681   8.520   5.365  0.1700  0.4052  0.1585
  964MOL0     C27147   7.588   8.599   5.302  0.4173  0.5012  0.8653
  964MOL0     C27148   7.566   8.588   5.160  0.2437 -0.8535  0.2558
  964MOL0     C27149   7.466   8.674   5.100  1.1591  0.5103  0.9011
  964MOL0     C27150   7.388   8.766   5.178 -0.2957 -0.7115  0.4882
  964MOL0     O27151   7.300   8.849   5.113  0.0316 -0.4514  0.3747
  964MOL0     C27152   7.261   8.971   5.179  0.2679 -0.2629  0.5440
  964MOL0     C27153   7.209   9.065   5.074 -0.5553 -0.3211  0.5701
  964MOL0     C27154   7.113   9.171   5.131 -0.4662 -0.3112 -0.3239
  964MOL0     C27155   7.181   9.262   5.240  0.1694  0.5921  0.9052
  964MOL0     C27156   7.121   9.401   5.246 -0.0213  0.8315  0.5382
  964MOL0     C27157   6.994   9.398   5.339 -0.2061 -1.3018 -0.4928
  964MOL0     C27158   6.962   9.540   5.392  0.6599 -0.4942  0.3747
  964MOL0     C27159   6.965   9.659   5.284 -1.1758 -0.5962 -0.0381
  964MOL0    Cl27160   6.842   9.615   5.172  0.4426  0.2714 -0.0598
  964MOL0     C27161   7.404   8.769   5.313  0.0741  0.5966  0.5270
  964MOL0     C27162   7.511   8.701   5.371  0.6657  0.5751  0.8147
  964MOL0     O27163   7.661   8.323   5.233  0.6321  0.1263  0.2401
  964MOL0     C27164   7.869   8.202   5.364  0.1028  0.7949  0.0758
  964MOL0     C27165   7.971   8.152   5.437 -0.6389 -0.2409 -0.9002
  964MOL0     N27166   8.509   8.013   5.911 -0.6059 -0.6649 -0.5693
  964MOL0     N27167   8.625   8.056   5.956  0.3080 -0.1502 -0.8597
  964MOL0     C27168   8.713   7.873   6.755 -0.3427  0.7944 -0.0376
  964MOL0     C27169   8.587   7.910   6.717  0.6198  0.5147 -0.1243
  964MOL0     C27170   8.192   7.962   6.522  0.0345  0.0549  0.5741
  964MOL0     C27171   8.108   7.845   6.522 -0.9123  0.4438 -0.7061
  964MOL0     C27172   7.971   7.853   6.510 -0.9118 -0.5589  0.0192
  964MOL0     C27173   7.908   7.977   6.488 -0.8389  0.1144 -0.2827
  964MOL0     O27174   7.769   7.979   6.480  0.0706  0.0304  0.9291
  964MOL0     C27175   7.704   8.068   6.394 -1.0806  0.7460 -0.1352
  964MOL0     C27176   7.628   8.170   6.473  0.8458  0.3966 -0.2738
  964MOL0     C27177   7.572   8.275   6.383 -0.3095 -0.0484 -0.5014
  964MOL0     C27178   7.474   8.362   6.468  0.8708 -0.1503  0.0260
  964MOL0     C27179   7.418   8.463   6.383  0.5916 -0.0959 -0.0351
  964MOL0     C27180   7.358   8.544   6.305  0.0359 -0.4439 -1.3562
  964MOL0     C27181   7.989   8.093   6.475  0.5243  0.8727  0.4920
  964MOL0     C27182   8.127   8.086   6.494  0.0600  0.4249 -0.2862
  964MOL0     H27183   8.444   7.616   6.644  0.6438 -1.6839  1.2308
  964MOL0     H27184   8.678   7.536   6.697 -1.9628 -0.2821  0.0479
  964MOL0     H27185   9.057   7.776   6.809  1.3669 -0.1360 -1.6826
  964MOL0     H27186   8.943   7.848   6.687  0.7608  0.6206  0.6996
  964MOL0     H27187   9.097   7.586   6.636  0.7541  0.2131  1.1681
  964MOL0     H27188   9.136   7.757   6.587 -0.3072  1.0462 -0.2525
  964MOL0     H27189   8.891   7.611   6.488 -1.7573  0.3902 -2.3716
  964MOL0     H27190   9.036   7.646   6.391 -1.2728  1.1673 -2.3252
  964MOL0     H27191   8.845   7.841   6.503 -1.4803 -2.8359 -1.3405
  964MOL0     H27192   8.999   7.904   6.453 -0.3361  0.4235 -1.3767
  964MOL0     H27193   8.799   7.727   6.285  1.7925 -2.7392 -0.6072
  964MOL0     H27194   8.960   7.754   6.242  0.7576  1.2224  1.0420
  964MOL0     H27195   8.816   7.914   6.121  1.8021 -1.1694  0.9991
  964MOL0     H27196   8.925   8.001   6.209 -1.0966  1.8765 -1.2875
  964MOL0     H27197   8.641   7.964   6.314 -1.6004  2.1123 -0.4738
  964MOL0     H27198   8.761   8.067   6.387  0.1130 -3.2021  1.8807
  964MOL0     H27199   8.793   8.181   6.134  3.1509 -0.8107  3.2623
  964MOL0     H27200   8.654   8.213   6.234 -2.1450 -2.2213  1.4179
  964MOL0     H27201   8.421   8.098   6.215  0.0475  0.3229  0.7392
  964MOL0     H27202   8.216   7.990   6.080  0.4640 -0.9706  0.6328
  964MOL0     H27203   8.277   7.863   5.975  0.9290 -0.5178 -1.0253
  964MOL0     H27204   8.206   8.145   5.877 -1.6566  1.0698 -1.9197
  964MOL0     H27205   8.087   8.024   5.905 -0.2009 -0.2691 -1.6632
  964MOL0     H27206   8.334   8.031   5.720  1.4186  0.1286  3.5847
  964MOL0     H27207   8.241   7.871   5.739  0.4112  0.8402  3.0150
  964MOL0     H27208   8.046   7.959   5.687 -0.0622  0.7359 -0.8138
  964MOL0     H27209   8.150   7.975   5.548 -3.0904  2.0028 -0.9553
  964MOL0     H27210   7.991   8.393   5.674  1.7520  1.8215 -0.9542
  964MOL0     H27211   7.848   8.498   5.534 -0.9004 -0.6570 -0.0990
  964MOL0     H27212   7.627   8.528   5.092  1.1267 -0.9855  1.1459
  964MOL0     H27213   7.455   8.664   4.992 -1.6877 -2.4119  1.2992
  964MOL0     H27214   7.350   9.020   5.218 -1.0482  3.7289 -0.9374
  964MOL0     H27215   7.183   8.950   5.254 -0.4923 -0.9454 -0.4148
  964MOL0     H27216   7.148   9.009   5.002 -0.4555 -1.9281  1.6850
  964MOL0     H27217   7.294   9.115   5.028  1.1382 -1.7745  1.9647
  964MOL0     H27218   7.033   9.129   5.192 -0.1383 -0.7466 -0.1952
  964MOL0     H27219   7.079   9.233   5.047  0.1621  0.9626  0.3208
  964MOL0     H27220   7.177   9.221   5.342  1.6520  1.2496  1.2584
  964MOL0     H27221   7.283   9.284   5.209  0.0130  1.0288  0.7043
  964MOL0     H27222   7.106   9.433   5.143  1.1176 -1.8304 -0.5499
  964MOL0     H27223   7.191   9.466   5.299  1.3146  0.0789 -0.2419
  964MOL0     H27224   7.015   9.333   5.424  3.4176  0.2656  0.0404
  964MOL0     H27225   6.904   9.366   5.287 -1.6038 -4.6755  3.4249
  964MOL0     H27226   6.872   9.517   5.451  0.3032  1.9072  0.8848
  964MOL0     H27227   7.041   9.577   5.459 -0.8551  3.5310  0.2558
  964MOL0     H27228   7.061   9.680   5.237  1.2763 -2.0932  3.8099
  964MOL0     H27229   6.926   9.749   5.334  0.2060 -0.2159  0.3909
  964MOL0     H27230   7.349   8.842   5.372 -3.0626 -0.5422 -0.7622
  964MOL0     H27231   7.523   8.696   5.478 -0.0385 -3.2978  0.8334
  964MOL0     H27232   7.858   8.140   5.276  1.5372 -0.4515  0.7461
  964MOL0     H27233   8.014   8.056   5.411 -1.1189 -0.8966  0.5995
  964MOL0     H27234   8.768   7.957   6.796 -0.7103  3.5251 -4.3950
  964MOL0     H27235   8.576   8.018   6.707 -3.8863  0.0492 -3.2309
  964MOL0     H27236   8.155   7.749   6.536  2.1441  1.7421 -1.2070
  964MOL0     H27237   7.897   7.774   6.512 -1.8493  0.2989  0.4266
  964MOL0     H27238   7.641   8.010   6.326 -2.5499 -0.0913  1.8257
  964MOL0     H27239   7.780   8.113   6.329  2.0004  0.6748  3.0860
  964MOL0     H27240   7.546   8.122   6.526 -1.6127  0.9501 -3.3266
  964MOL0     H27241   7.692   8.218   6.547  3.9220 -2.2628 -0.9017
  964MOL0     H27242   7.523   8.243   6.291  0.0621  0.9562 -1.0580
  964MOL0     H27243   7.652   8.339   6.347 -0.9527  0.6831 -0.6462
  964MOL0     H27244   7.398   8.293   6.505 -1.0725 -0.7854 -4.5097
  964MOL0     H27245   7.528   8.413   6.549  0.0289  0.0046  0.4951
  964MOL0     H27246   7.297   8.611   6.248  1.5478  2.2881  0.0137
  964MOL0     H27247   7.940   8.189   6.468 -2.2165 -0.5335 -1.5212
  964MOL0     H27248   8.177   8.180   6.479 -0.1601  0.4565 -0.8354
  965MOL0     O27249   3.066   8.648   2.040  0.1267 -0.2737 -0.5463
  965MOL0     C27250   2.976   8.648   2.122  0.1179  0.7073 -0.1990
  965MOL0     O27251   2.849   8.692   2.098  0.4913 -0.4674 -0.7411
  965MOL0     C27252   2.822   8.745   1.975 -0.1783 -0.0221  0.2568
  965MOL0     C27253   2.909   8.841   1.907  0.5120 -0.2501  0.1765
  965MOL0     C27254   2.872   8.895   1.785 -0.0456  0.5518 -0.9865
  965MOL0     C27255   2.744   8.862   1.736  0.5847  0.1297  0.7151
  965MOL0     O27256   2.709   8.932   1.627  0.4111 -0.0834 -0.1486
  965MOL0     C27257   2.579   8.922   1.568  0.2536 -0.3759  0.7305
  965MOL0     C27258   2.568   9.013   1.450  0.0624 -0.0973 -0.3376
  965MOL0     C27259   2.460   8.959   1.361  0.2564  0.4471  0.9730
  965MOL0     C27260   2.422   9.061   1.252  0.0155  0.8373  0.2855
  965MOL0     C27261   2.273   9.048   1.211 -0.2005  0.1242  0.0887
  965MOL0     C27262   2.171   9.110   1.304 -0.6962 -0.1208 -0.6011
  965MOL0     C27263   2.143   9.266   1.279  0.2434  0.7686  0.3695
  965MOL0     C27264   2.100   9.304   1.133 -0.0862  0.0650 -0.3029
  965MOL0     N27265   1.979   9.224   1.095 -0.3703  0.1526 -0.4551
  965MOL0     C27266   1.874   9.170   1.165  0.2406 -1.6911  0.3285
  965MOL0     C27267   1.781   9.130   1.072 -0.0166  0.1052  0.0633
  965MOL0     C27268   1.656   9.061   1.091  0.0636 -0.3037 -1.1212
  965MOL0     C27269   1.675   8.915   1.141  0.1163  0.4543 -0.4978
  965MOL0     C27270   1.764   8.838   1.041 -0.3005  0.3057 -0.2527
  965MOL0     C27271   1.787   8.695   1.075  0.2471  0.1930 -0.6458
  965MOL0     O27272   1.916   8.651   1.037  0.2960 -0.4522  0.0745
  965MOL0     C27273   2.015   8.657   1.130 -0.5659  0.4166 -0.8962
  965MOL0     C27274   2.036   8.768   1.223 -0.2174 -0.2179 -0.6679
  965MOL0     C27275   2.126   8.755   1.327 -0.6162  0.0775  0.1218
  965MOL0     C27276   2.199   8.632   1.351 -0.5005 -0.0953  1.0655
  965MOL0     C27277   2.301   8.613   1.459 -0.2147  0.2064 -1.0169
  965MOL0     O27278   2.397   8.521   1.446  0.1834 -0.4407 -0.2257
  965MOL0     C27279   2.482   8.498   1.552  0.0517  0.6749  0.4303
  965MOL0     C27280   2.429   8.446   1.669 -0.5526 -0.2650 -0.7431
  965MOL0     C27281   2.514   8.403   1.774 -0.2938 -0.1546 -0.9285
  965MOL0     C27282   2.644   8.396   1.758 -0.7825 -0.0920 -0.4128
  965MOL0     O27283   2.716   8.371   1.877  0.1611  0.2861  0.0053
  965MOL0     C27284   2.858   8.374   1.869 -1.0017  0.5150 -0.4639
  965MOL0     C27285   2.933   8.308   1.982  0.1503  0.2383  0.4997
  965MOL0     C27286   3.087   8.307   1.953  0.0023 -0.1936 -0.5627
  965MOL0     C27287   3.174   8.257   2.079  0.0912  0.3569  0.8201
  965MOL0     C27288   3.325   8.288   2.057 -0.0783  0.5555 -0.8812
  965MOL0     C27289   3.419   8.265   2.178  0.1122  0.3916  0.0974
  965MOL0     C27290   3.568   8.271   2.135 -0.8444 -0.5003  0.7978
  965MOL0     C27291   3.604   8.355   2.013 -0.5206  0.7063  0.2765
  965MOL0    Cl27292   3.790   8.350   1.973  0.4666 -0.2390  0.2163
  965MOL0     C27293   2.705   8.443   1.632 -0.5741 -0.1082  0.6275
  965MOL0     C27294   2.617   8.497   1.538  0.1696  0.6502  0.8009
  965MOL0     O27295   2.296   8.699   1.551 -0.2955  0.5264 -0.1539
  965MOL0     C27296   2.175   8.522   1.260 -0.6022 -0.7421  0.0162
  965MOL0     C27297   2.089   8.535   1.151 -0.3218  0.0009  0.1996
  965MOL0     N27298   1.832   9.161   0.951  0.0240  0.3672 -0.3856
  965MOL0     N27299   1.945   9.219   0.965 -0.1831  0.5355  1.0426
  965MOL0     C27300   2.653   8.776   1.800  0.1460 -0.5607  0.3348
  965MOL0     C27301   2.685   8.717   1.923  0.1080 -0.4874 -0.1310
  965MOL0     C27302   3.013   8.598   2.261  0.2175 -0.5633 -0.1106
  965MOL0     C27303   3.138   8.549   2.291 -0.0726  0.4040 -0.4753
  965MOL0     C27304   3.179   8.512   2.424  1.2029 -0.1128  0.6784
  965MOL0     C27305   3.087   8.534   2.534  0.5178  0.0486  0.1797
  965MOL0     O27306   3.145   8.489   2.652 -0.0704 -0.1287  0.4604
  965MOL0     C27307   3.079   8.543   2.772 -0.0842  0.0338 -0.2867
  965MOL0     C27308   3.178   8.569   2.884 -0.1113  0.0535  0.1372
  965MOL0     C27309   3.254   8.436   2.933 -0.1095  0.2771 -0.6202
  965MOL0     C27310   3.340   8.466   3.054  0.8368  1.0384  0.9611
  965MOL0     C27311   3.261   8.401   3.167 -0.1144 -0.0348  1.2064
  965MOL0     C27312   3.208   8.327   3.251  0.3141  0.8331 -0.7613
  965MOL0     C27313   2.960   8.586   2.496 -0.5853 -0.8875 -0.2066
  965MOL0     C27314   2.923   8.605   2.361 -0.0825 -1.2081 -1.4814
  965MOL0     H27315   3.005   8.863   1.953  1.6899  0.6011 -2.4996
  965MOL0     H27316   2.930   8.963   1.724  1.8918  0.6693  0.8733
  965MOL0     H27317   2.494   8.952   1.629 -0.9194  0.9922 -1.4445
  965MOL0     H27318   2.560   8.821   1.531  0.4379  0.6697 -2.6538
  965MOL0     H27319   2.663   9.007   1.397  0.4742 -1.7988  0.5207
  965MOL0     H27320   2.553   9.113   1.492  2.0261  0.2314 -0.3345
  965MOL0     H27321   2.371   8.957   1.425 -0.8448  2.7181 -0.3426
  965MOL0     H27322   2.476   8.866   1.306 -0.3036  2.6237 -3.2768
  965MOL0     H27323   2.438   9.162   1.290  1.5639  0.4066  0.8603
  965MOL0     H27324   2.486   9.045   1.164  1.6847 -1.8165  1.8476
  965MOL0     H27325   2.245   8.943   1.206 -0.3330  0.2293 -2.6986
  965MOL0     H27326   2.267   9.089   1.110  0.6062 -0.8731 -0.3761
  965MOL0     H27327   2.190   9.089   1.410 -3.1720 -2.5758 -0.5307
  965MOL0     H27328   2.078   9.056   1.282 -0.3662  0.2696 -3.3031
  965MOL0     H27329   2.056   9.281   1.343 -1.0780  1.2371 -1.4423
  965MOL0     H27330   2.216   9.339   1.316 -1.3360  2.8156 -0.4035
  965MOL0     H27331   2.176   9.294   1.056  0.1711 -2.3427  0.1628
  965MOL0     H27332   2.084   9.412   1.136 -1.4658 -0.1369  1.3172
  965MOL0     H27333   1.874   9.146   1.271  2.4345  0.9682  1.0324
  965MOL0     H27334   1.613   9.050   0.991 -0.9386 -1.8955 -0.5523
  965MOL0     H27335   1.594   9.125   1.154  2.6948  0.9178  0.4059
  965MOL0     H27336   1.583   8.857   1.148  0.8976 -0.7218  0.4321
  965MOL0     H27337   1.724   8.908   1.239  1.1628 -1.2823 -1.0984
  965MOL0     H27338   1.721   8.831   0.941 -1.0080  3.1972 -0.2300
  965MOL0     H27339   1.855   8.893   1.019 -0.2424  1.9944  3.5524
  965MOL0     H27340   1.713   8.624   1.037  1.4609 -1.9014  0.6697
  965MOL0     H27341   1.779   8.683   1.184  0.2822 -1.3714 -0.7883
  965MOL0     H27342   1.986   8.863   1.208 -1.7582 -0.8078  0.3714
  965MOL0     H27343   2.133   8.840   1.394  1.1072  1.1200 -1.2774
  965MOL0     H27344   2.323   8.453   1.692 -0.0878  0.5597  1.3500
  965MOL0     H27345   2.472   8.365   1.867 -2.2443  0.6407 -1.4366
  965MOL0     H27346   2.884   8.480   1.872  0.7347  0.0876  1.4720
  965MOL0     H27347   2.893   8.329   1.775 -2.7287 -0.0653 -0.8620
  965MOL0     H27348   2.894   8.206   1.992  0.1609  0.1345 -0.4837
  965MOL0     H27349   2.904   8.359   2.075  0.8315 -2.1786  2.1594
  965MOL0     H27350   3.125   8.404   1.919 -0.5231  0.6145  1.0598
  965MOL0     H27351   3.109   8.225   1.884 -0.7295 -0.4873 -0.4521
  965MOL0     H27352   3.136   8.293   2.175 -1.0401 -0.4714  0.7006
  965MOL0     H27353   3.171   8.148   2.084  2.9089  0.1755  0.2566
  965MOL0     H27354   3.337   8.393   2.030 -0.8642  1.2406  1.1883
  965MOL0     H27355   3.364   8.224   1.978 -0.2649 -1.1353  0.3332
  965MOL0     H27356   3.393   8.176   2.235  1.2813  0.1917  0.3412
  965MOL0     H27357   3.417   8.346   2.251  1.5910  0.4618  0.0913
  965MOL0     H27358   3.630   8.310   2.216 -0.1383  0.4744 -0.1982
  965MOL0     H27359   3.610   8.170   2.129  0.1159  0.0004 -1.9942
  965MOL0     H27360   3.568   8.458   2.019 -1.5278  0.3213  1.2990
  965MOL0     H27361   3.547   8.327   1.923 -1.2286  1.3987  0.5015
  965MOL0     H27362   2.808   8.476   1.624 -0.5798  0.0876  1.2947
  965MOL0     H27363   2.654   8.539   1.445 -0.7768  0.7404  0.4539
  965MOL0     H27364   2.223   8.426   1.273 -2.2661 -1.4440  1.3491
  965MOL0     H27365   2.071   8.446   1.091  1.5716  0.3351 -0.9615
  965MOL0     H27366   2.551   8.767   1.765 -0.8343  0.9194  2.6056
  965MOL0     H27367   2.614   8.659   1.981 -3.2964  1.8850 -1.5761
  965MOL0     H27368   3.193   8.536   2.198 -1.4016  1.4908 -1.4602
  965MOL0     H27369   3.281   8.477   2.426  1.0567 -1.3327 -3.8090
  965MOL0     H27370   3.008   8.473   2.817  0.9874 -0.8217  0.1010
  965MOL0     H27371   3.036   8.639   2.742  2.0450  0.9960 -0.4168
  965MOL0     H27372   3.248   8.643   2.843 -0.4377  0.6936  0.7236
  965MOL0     H27373   3.119   8.614   2.964  2.9001 -0.7010  3.0029
  965MOL0     H27374   3.319   8.407   2.850 -0.0743  3.8728 -2.0322
  965MOL0     H27375   3.180   8.357   2.942  1.2275 -1.1703 -1.7747
  965MOL0     H27376   3.441   8.423   3.049  1.2478  1.8439  1.9372
  965MOL0     H27377   3.364   8.571   3.072  1.9323  0.6337  2.0881
  965MOL0     H27378   3.168   8.280   3.339 -0.7140  0.4723 -1.4082
  965MOL0     H27379   2.887   8.603   2.576  0.4223 -1.5770  0.8890
  965MOL0     H27380   2.818   8.631   2.356  0.7444  3.0987 -0.7004
  966MOL0     O27381   4.179   8.189   6.632 -0.3908 -0.2376  0.1168
  966MOL0     C27382   4.106   8.087   6.642  0.0899 -0.6608 -0.5189
  966MOL0     O27383   3.988   8.067   6.575 -0.3000  0.1791 -0.0988
  966MOL0     C27384   3.899   8.170   6.540 -1.2221  0.2574 -0.1978
  966MOL0     C27385   3.937   8.305   6.496  0.1822 -0.7654 -0.9016
  966MOL0     C27386   3.843   8.395   6.455  0.2613  0.2981  0.3357
  966MOL0     C27387   3.704   8.371   6.460  0.2479 -0.2033  0.3968
  966MOL0     O27388   3.612   8.463   6.407  0.3028 -0.1362 -0.7098
  966MOL0     C27389   3.622   8.590   6.462 -0.7746 -0.5510 -0.2792
  966MOL0     C27390   3.671   8.686   6.350 -0.3642 -0.1538 -0.1876
  966MOL0     C27391   3.696   8.827   6.415  0.1033  0.2702 -0.1395
  966MOL0     C27392   3.749   8.923   6.302  0.2991  0.3421 -0.0196
  966MOL0     C27393   3.721   9.063   6.352  0.8037 -0.1254  0.3414
  966MOL0     C27394   3.814   9.100   6.464 -0.3713  0.3915 -0.0937
  966MOL0     C27395   3.794   9.240   6.521  0.3321  0.0262  1.0300
  966MOL0     C27396   3.869   9.262   6.654 -0.3910  0.0540 -0.4107
  966MOL0     N27397   3.864   9.392   6.717  1.2389  0.3553  0.1683
  966MOL0     C27398   3.794   9.415   6.833  1.0826  0.2891 -0.5808
  966MOL0     C27399   3.805   9.547   6.852  0.3440 -0.9306 -0.6364
  966MOL0     C27400   3.735   9.623   6.957 -1.3105 -0.0447 -0.4659
  966MOL0     C27401   3.668   9.742   6.884  0.0491  0.6823 -0.0067
  966MOL0     C27402   3.600   9.710   6.754  0.3025  0.4383 -0.0844
  966MOL0     C27403   3.479   9.610   6.778 -0.6619 -0.7620  0.3197
  966MOL0     O27404   3.376   9.644   6.682 -0.3754  0.0946  0.2878
  966MOL0     C27405   3.352   9.539   6.605  0.5659 -0.3984  1.4407
  966MOL0     C27406   3.459   9.493   6.527  0.5179 -0.4921 -0.1632
  966MOL0     C27407   3.438   9.366   6.466  0.4065 -0.4500  0.1138
  966MOL0     C27408   3.312   9.305   6.443 -0.1216  0.3873 -0.1879
  966MOL0     C27409   3.295   9.176   6.373  0.5701  1.4692 -1.1207
  966MOL0     O27410   3.376   9.067   6.406 -0.2060  0.0778  0.6953
  966MOL0     C27411   3.371   8.958   6.324 -0.3138 -0.5012  0.6228
  966MOL0     C27412   3.301   8.845   6.351  0.1532  0.1067 -0.5260
  966MOL0     C27413   3.287   8.737   6.265  0.0896 -0.2863  0.0573
  966MOL0     C27414   3.353   8.742   6.137 -0.5831 -0.4464  0.3204
  966MOL0     O27415   3.345   8.632   6.061 -1.2075 -0.9213 -0.8785
  966MOL0     C27416   3.434   8.621   5.946 -0.5278  0.2518 -0.3751
  966MOL0     C27417   3.356   8.645   5.820  0.4473  0.3465  0.0712
  966MOL0     C27418   3.284   8.526   5.753 -0.5017  0.0905  0.5749
  966MOL0     C27419   3.215   8.555   5.623  0.5104 -0.7449 -0.3291
  966MOL0     C27420   3.125   8.456   5.570 -0.1049  0.0738  0.1451
  966MOL0     C27421   3.042   8.510   5.459 -0.1465 -0.0248 -0.8435
  966MOL0     C27422   2.960   8.412   5.381 -2.3611  0.4098 -0.1262
  966MOL0     C27423   2.874   8.489   5.276  0.3728  0.1011 -0.3621
  966MOL0    Cl27424   2.741   8.385   5.228  0.4681 -0.0576 -0.4322
  966MOL0     C27425   3.407   8.869   6.096  0.8956  0.8906 -0.4640
  966MOL0     C27426   3.407   8.969   6.194 -0.6532 -0.3630 -0.6837
  966MOL0     O27427   3.202   9.170   6.297 -0.1256 -0.2129 -0.0779
  966MOL0     C27428   3.206   9.370   6.513 -0.4499 -0.1417  0.0306
  966MOL0     C27429   3.220   9.487   6.590  0.2750  0.0248  0.3990
  966MOL0     N27430   3.899   9.596   6.761  0.1454 -0.0235 -0.0160
  966MOL0     N27431   3.926   9.502   6.683  0.3463 -0.3311 -0.3081
  966MOL0     C27432   3.661   8.247   6.498  0.4819  0.3935  0.2780
  966MOL0     C27433   3.758   8.146   6.540 -0.4436  0.2418  0.8830
  966MOL0     C27434   4.172   7.981   6.721  0.0872 -0.3294 -0.2649
  966MOL0     C27435   4.314   7.996   6.753 -0.5792  0.5997  0.5224
  966MOL0     C27436   4.383   7.895   6.818  1.1702  0.9702 -0.4134
  966MOL0     C27437   4.314   7.782   6.875  0.5782 -0.0673 -0.5970
  966MOL0     O27438   4.367   7.671   6.941  0.3878  0.4568 -0.1230
  966MOL0     C27439   4.504   7.680   6.973 -0.9096  0.5621  0.7038
  966MOL0     C27440   4.569   7.556   7.036 -0.8850 -0.1334 -0.2130
  966MOL0     C27441   4.509   7.530   7.171 -0.3303 -0.0432  1.0881
  966MOL0     C27442   4.571   7.605   7.285 -0.1394 -1.0921 -0.4602
  966MOL0     C27443   4.479   7.589   7.407  0.3456  0.1748  0.5504
  966MOL0     C27444   4.397   7.585   7.494 -1.0242  1.1238  0.0224
  966MOL0     C27445   4.185   7.766   6.824 -0.0236  0.7239  0.1794
  966MOL0     C27446   4.117   7.860   6.749  0.3895  0.2008 -0.1031
  966MOL0     H27447   4.038   8.345   6.499 -0.8258  1.8969  0.5862
  966MOL0     H27448   3.866   8.488   6.404  1.6235  0.5566  1.3535
  966MOL0     H27449   3.682   8.605   6.553 -0.5985  4.0305 -0.9259
  966MOL0     H27450   3.521   8.615   6.493 -0.0973  4.4271 -1.2660
  966MOL0     H27451   3.607   8.676   6.262  0.3196 -1.7449 -0.5388
  966MOL0     H27452   3.767   8.657   6.308  0.5912 -0.9975  2.3575
  966MOL0     H27453   3.770   8.807   6.492 -1.0596  1.0585  1.2441
  966MOL0     H27454   3.607   8.868   6.464  0.8194  1.2583  0.3703
  966MOL0     H27455   3.855   8.903   6.284 -0.0364 -1.0181 -0.6730
  966MOL0     H27456   3.697   8.916   6.206 -2.1182  1.0166  1.1686
  966MOL0     H27457   3.616   9.074   6.380  0.3933 -2.0504 -0.2985
  966MOL0     H27458   3.735   9.143   6.278 -2.2361  1.1033  0.9554
  966MOL0     H27459   3.918   9.078   6.439 -1.8299 -1.5148 -6.2263
  966MOL0     H27460   3.788   9.022   6.537  0.6997  1.1912  1.1817
  966MOL0     H27461   3.829   9.314   6.449  0.6331  0.1542  1.3085
  966MOL0     H27462   3.689   9.264   6.542 -0.7458 -0.0118 -3.3667
  966MOL0     H27463   3.976   9.243   6.644 -0.4265 -0.3819 -0.0163
  966MOL0     H27464   3.840   9.199   6.739 -1.1569  2.2036  1.0225
  966MOL0     H27465   3.748   9.343   6.899  1.2067  1.3740  0.7253
  966MOL0     H27466   3.817   9.654   7.022  0.4195  0.2710 -2.6902
  966MOL0     H27467   3.648   9.568   6.996 -1.9873  1.6248  0.4840
  966MOL0     H27468   3.752   9.809   6.866  1.1823 -1.3342 -3.2196
  966MOL0     H27469   3.601   9.791   6.955  0.7025  0.3995  0.8134
  966MOL0     H27470   3.561   9.799   6.704 -2.0405 -1.5068 -1.9357
  966MOL0     H27471   3.671   9.666   6.683  0.4657 -0.8956  0.8769
  966MOL0     H27472   3.434   9.633   6.875 -0.6922  2.4332 -0.3647
  966MOL0     H27473   3.523   9.509   6.771  0.9815 -0.1097  0.7715
  966MOL0     H27474   3.557   9.538   6.519  1.1233 -0.1391  5.3545
  966MOL0     H27475   3.533   9.334   6.425  0.5273  1.4089 -1.1637
  966MOL0     H27476   3.261   8.857   6.451 -2.5944  1.2967 -1.6732
  966MOL0     H27477   3.226   8.656   6.304 -0.7433  1.7954  3.4838
  966MOL0     H27478   3.497   8.533   5.933  0.8731  1.3375 -1.1752
  966MOL0     H27479   3.504   8.704   5.943  0.5729 -0.6816 -1.8454
  966MOL0     H27480   3.433   8.678   5.750 -0.8168  1.5953 -0.7999
  966MOL0     H27481   3.296   8.734   5.842 -0.7616 -0.4895  0.2386
  966MOL0     H27482   3.214   8.492   5.831  0.4105 -3.1129  0.1391
  966MOL0     H27483   3.350   8.442   5.734 -4.1945 -2.5285 -2.1328
  966MOL0     H27484   3.164   8.650   5.643 -2.2622 -1.5687 -2.7755
  966MOL0     H27485   3.285   8.580   5.543  1.3943  0.1742  0.7159
  966MOL0     H27486   3.060   8.416   5.649 -1.6008  0.4722 -0.8495
  966MOL0     H27487   3.183   8.368   5.539  0.0182 -0.2157  1.1329
  966MOL0     H27488   3.120   8.557   5.398  2.6140  0.7623  2.9246
  966MOL0     H27489   2.984   8.598   5.485  1.3103  1.0867 -1.2161
  966MOL0     H27490   3.024   8.343   5.324 -2.9819 -0.6126  0.3794
  966MOL0     H27491   2.907   8.357   5.460  2.1567 -0.5718  2.5888
  966MOL0     H27492   2.925   8.510   5.181 -0.4616  3.1539 -0.2522
  966MOL0     H27493   2.850   8.589   5.313 -0.9430 -0.8135  1.3803
  966MOL0     H27494   3.437   8.888   5.994  1.2699  1.0524 -0.3246
  966MOL0     H27495   3.449   9.063   6.160 -0.6284 -0.5033 -1.0547
  966MOL0     H27496   3.110   9.321   6.520 -1.0841  0.4102 -3.2451
  966MOL0     H27497   3.142   9.530   6.652  0.0144 -1.4946  1.1921
  966MOL0     H27498   3.555   8.228   6.494 -0.2879  3.6835  1.7816
  966MOL0     H27499   3.722   8.044   6.555 -0.7414 -0.0447 -1.4212
  966MOL0     H27500   4.381   8.066   6.705  1.7686 -2.8397 -1.7067
  966MOL0     H27501   4.488   7.910   6.843  0.3582  3.6764  1.9420
  966MOL0     H27502   4.509   7.767   7.039 -4.1960 -0.0984  1.9978
  966MOL0     H27503   4.562   7.693   6.881  0.2568  0.9036  1.4590
  966MOL0     H27504   4.565   7.473   6.966  1.1681  1.0940 -1.9197
  966MOL0     H27505   4.677   7.568   7.048 -0.5745  1.6148 -3.5888
  966MOL0     H27506   4.500   7.422   7.183  0.0516 -0.3200 -0.7504
  966MOL0     H27507   4.407   7.569   7.166  0.2877  1.9157 -4.5591
  966MOL0     H27508   4.673   7.580   7.315 -0.1318  0.5924  1.0891
  966MOL0     H27509   4.593   7.708   7.257  1.0151 -0.1861  3.2152
  966MOL0     H27510   4.314   7.575   7.561  0.1038 -2.7775  1.1281
  966MOL0     H27511   4.144   7.666   6.817  2.0996 -0.1437 -0.5732
  966MOL0     H27512   4.015   7.837   6.719  1.3117 -0.8180 -2.7712
  967MOL0     O27513   6.374   5.333   7.395 -0.2916 -0.7153  0.0107
  967MOL0     C27514   6.478   5.306   7.352  0.5424  0.0390 -0.3530
  967MOL0     O27515   6.577   5.236   7.425  0.7335 -0.6205  0.4367
  967MOL0     C27516   6.553   5.152   7.525 -0.8792 -0.3671 -0.9224
  967MOL0     C27517   6.651   5.057   7.538  0.0789  0.2567 -0.2466
  967MOL0     C27518   6.642   4.955   7.640 -0.2613 -0.9578  0.2871
  967MOL0     C27519   6.532   4.951   7.725  0.3355  0.1465  0.2642
  967MOL0     O27520   6.515   4.850   7.821 -0.0615  0.4854 -0.2691
  967MOL0     C27521   6.405   4.868   7.919  0.8054 -0.4694  0.7355
  967MOL0     C27522   6.411   4.748   8.025  0.3411  0.0476  0.0262
  967MOL0     C27523   6.295   4.775   8.124 -0.7075 -0.4959 -0.8369
  967MOL0     C27524   6.343   4.860   8.237  0.2355 -0.6780 -0.5106
  967MOL0     C27525   6.377   4.777   8.366  1.1209 -1.3979  0.0297
  967MOL0     C27526   6.492   4.665   8.346  0.5847 -0.8527 -0.4616
  967MOL0     C27527   6.634   4.741   8.345 -0.0735 -0.3446  1.1419
  967MOL0     C27528   6.683   4.783   8.486  0.2329  0.1499  0.4420
  967MOL0     N27529   6.778   4.889   8.485 -0.7679 -0.0101  0.4886
  967MOL0     C27530   6.903   4.888   8.431 -0.1682  0.4905  0.0736
  967MOL0     C27531   6.956   5.014   8.446  0.0682  0.5519  0.2896
  967MOL0     C27532   7.083   5.064   8.397  1.3198  0.3356 -0.0944
  967MOL0     C27533   7.069   5.172   8.285  0.0722  0.4873 -0.8077
  967MOL0     C27534   7.010   5.307   8.335  0.0619 -0.3598  0.2703
  967MOL0     C27535   7.027   5.422   8.240 -0.2665 -0.8274 -1.0450
  967MOL0     O27536   7.053   5.402   8.101  0.1446 -0.3863 -0.2972
  967MOL0     C27537   7.067   5.508   8.011  0.2189  0.2083 -0.6563
  967MOL0     C27538   7.158   5.495   7.906  0.0785 -0.1191  0.1424
  967MOL0     C27539   7.185   5.606   7.826  0.4320  0.0608  0.4814
  967MOL0     C27540   7.135   5.734   7.846 -1.5996  0.3647 -0.5087
  967MOL0     C27541   7.173   5.846   7.753 -0.8185 -0.0859 -0.4426
  967MOL0     O27542   7.098   5.959   7.762  0.0074  0.1551 -0.5224
  967MOL0     C27543   7.133   6.065   7.679  0.6531  0.3758  0.0299
  967MOL0     C27544   7.264   6.096   7.651  0.0529 -0.1390 -0.2151
  967MOL0     C27545   7.292   6.208   7.572 -0.3037  0.7899 -0.0919
  967MOL0     C27546   7.193   6.283   7.516 -0.3777  0.0567 -1.3202
  967MOL0     O27547   7.231   6.378   7.427  0.2300  0.2559 -0.2191
  967MOL0     C27548   7.181   6.511   7.449  0.6838 -0.4172  0.0942
  967MOL0     C27549   7.237   6.568   7.582  0.2364  0.5730 -0.2751
  967MOL0     C27550   7.396   6.593   7.560  1.1475 -0.1904  0.0413
  967MOL0     C27551   7.450   6.649   7.694  0.0586  0.9400  0.3373
  967MOL0     C27552   7.605   6.639   7.685 -0.5500 -0.1319  0.9070
  967MOL0     C27553   7.651   6.594   7.818 -0.0435 -0.9343  0.0687
  967MOL0     C27554   7.640   6.439   7.854  0.1003 -0.0610  0.3358
  967MOL0     C27555   7.634   6.412   8.007  1.1940  0.7987 -0.0114
  967MOL0    Cl27556   7.774   6.483   8.096 -0.4773 -0.0384 -0.5553
  967MOL0     C27557   7.060   6.260   7.553 -0.6865 -0.0199 -0.0026
  967MOL0     C27558   7.028   6.150   7.633 -0.3420 -0.0902 -0.4991
  967MOL0     O27559   7.247   5.818   7.657 -0.2160  0.7909 -0.7394
  967MOL0     C27560   7.041   5.744   7.947  0.4910  1.0188  0.0232
  967MOL0     C27561   7.004   5.632   8.029  0.0067 -0.5652  0.2315
  967MOL0     N27562   6.863   5.085   8.523 -0.9494  0.2420  0.4865
  967MOL0     N27563   6.759   5.012   8.546  0.1704  0.8080 -0.0964
  967MOL0     C27564   6.432   5.054   7.709 -0.5915 -0.3351  0.6087
  967MOL0     C27565   6.445   5.154   7.611  0.5245 -1.4769 -0.5473
  967MOL0     C27566   6.506   5.331   7.215 -0.8669 -0.3841  0.4236
  967MOL0     C27567   6.611   5.267   7.142 -0.8389  0.8273  1.0457
  967MOL0     C27568   6.645   5.298   7.013  0.4091  0.1722 -0.2733
  967MOL0     C27569   6.591   5.415   6.954 -0.5582  0.9293 -1.2063
  967MOL0     O27570   6.612   5.444   6.829  0.4735 -0.8456 -0.0878
  967MOL0     C27571   6.698   5.554   6.813 -0.0496  0.1543  0.6754
  967MOL0     C27572   6.627   5.685   6.768  0.9423  0.1232  0.2502
  967MOL0     C27573   6.524   5.666   6.661  0.0298  0.3063  0.5894
  967MOL0     C27574   6.379   5.650   6.721 -0.7310  0.5301  0.1155
  967MOL0     C27575   6.290   5.633   6.612 -0.5564 -0.5946  0.7131
  967MOL0     C27576   6.217   5.600   6.518 -0.1960 -0.0014 -0.1460
  967MOL0     C27577   6.490   5.481   7.029 -0.9922  0.1237  0.7152
  967MOL0     C27578   6.443   5.441   7.155 -0.5707  0.2079  0.1243
  967MOL0     H27579   6.733   5.059   7.467 -0.3214  0.3881 -0.7140
  967MOL0     H27580   6.719   4.879   7.653  3.5159  2.7127  1.6942
  967MOL0     H27581   6.319   4.863   7.851  0.6228 -3.0492  1.0746
  967MOL0     H27582   6.394   4.964   7.970 -0.2944 -1.5812  2.6948
  967MOL0     H27583   6.507   4.749   8.076 -0.7734 -1.4079  2.2815
  967MOL0     H27584   6.398   4.658   7.964 -0.0312 -0.1819  0.4394
  967MOL0     H27585   6.266   4.680   8.170  0.4837 -0.0675  0.8681
  967MOL0     H27586   6.218   4.832   8.072  1.5296  0.2150 -3.6123
  967MOL0     H27587   6.426   4.924   8.208  1.3353  0.3236  3.9843
  967MOL0     H27588   6.253   4.915   8.267  3.0598  2.3932  3.5850
  967MOL0     H27589   6.283   4.731   8.400 -0.3581  2.1444  1.2011
  967MOL0     H27590   6.403   4.850   8.443  2.0040 -0.4696 -1.1108
  967MOL0     H27591   6.493   4.613   8.249 -1.7541 -0.5796 -0.6974
  967MOL0     H27592   6.489   4.582   8.418  1.4851 -3.1036 -2.8300
  967MOL0     H27593   6.707   4.671   8.303 -0.2578 -1.6808  2.8990
  967MOL0     H27594   6.636   4.824   8.274 -2.2055  0.2150  1.6646
  967MOL0     H27595   6.731   4.695   8.529  3.3234  0.6238 -1.6920
  967MOL0     H27596   6.596   4.811   8.545  0.8327  1.8055  0.6019
  967MOL0     H27597   6.944   4.805   8.375 -4.5707 -1.5310 -0.5794
  967MOL0     H27598   7.146   4.980   8.367  1.0559  0.6879 -1.7080
  967MOL0     H27599   7.143   5.110   8.476 -0.5695 -1.2538  2.4573
  967MOL0     H27600   7.014   5.134   8.198  3.4955  2.1504 -4.0157
  967MOL0     H27601   7.170   5.183   8.243 -0.7624  2.7408 -2.3968
  967MOL0     H27602   6.902   5.294   8.344  0.2514 -0.7357  3.0475
  967MOL0     H27603   7.040   5.335   8.437 -0.5570 -0.3275  0.4438
  967MOL0     H27604   7.118   5.474   8.273 -1.2133  2.0186 -2.5757
  967MOL0     H27605   6.939   5.483   8.260 -0.5016 -1.3618 -0.3919
  967MOL0     H27606   7.203   5.398   7.889  0.4415  0.4363 -2.4426
  967MOL0     H27607   7.250   5.577   7.744 -1.7130 -1.5897 -0.7419
  967MOL0     H27608   7.345   6.040   7.696  0.8135 -0.7267 -2.1781
  967MOL0     H27609   7.397   6.235   7.573 -1.1196  4.4238  0.0531
  967MOL0     H27610   7.072   6.502   7.452  0.5569 -0.6414 -2.5507
  967MOL0     H27611   7.210   6.565   7.358  0.1534 -0.0581  0.1293
  967MOL0     H27612   7.218   6.503   7.668  3.3575  0.2215  0.2546
  967MOL0     H27613   7.182   6.660   7.604 -2.5305 -1.2870  1.1693
  967MOL0     H27614   7.419   6.662   7.479 -1.6306  0.4383 -0.3294
  967MOL0     H27615   7.446   6.499   7.534  0.6842  0.1386 -2.2047
  967MOL0     H27616   7.405   6.746   7.721  0.5143  0.9874  0.9616
  967MOL0     H27617   7.426   6.578   7.774 -0.6425  0.6971 -0.0806
  967MOL0     H27618   7.648   6.734   7.654  1.8682 -2.1259 -2.4872
  967MOL0     H27619   7.636   6.567   7.609 -3.5660 -1.4823  0.8024
  967MOL0     H27620   7.597   6.651   7.894  0.4339 -2.3123  1.4912
  967MOL0     H27621   7.757   6.619   7.808 -0.3905  1.2076  1.2098
  967MOL0     H27622   7.549   6.394   7.813 -0.2084  1.3675 -0.6178
  967MOL0     H27623   7.722   6.380   7.811 -1.1441 -0.9875 -0.8442
  967MOL0     H27624   7.614   6.307   8.033  1.1183  1.5657  3.6549
  967MOL0     H27625   7.541   6.458   8.043  0.6853 -0.6488  0.6331
  967MOL0     H27626   6.985   6.316   7.497  0.5789  0.5669 -1.1924
  967MOL0     H27627   6.927   6.119   7.656 -0.2097 -0.2905 -0.1771
  967MOL0     H27628   6.998   5.841   7.971 -3.7899 -0.5901 -0.3378
  967MOL0     H27629   6.943   5.658   8.115 -0.2989  1.9456 -0.6721
  967MOL0     H27630   6.334   5.051   7.754 -0.4275 -3.2403  0.9236
  967MOL0     H27631   6.361   5.223   7.613  0.2036 -1.6354  4.5600
  967MOL0     H27632   6.646   5.177   7.190  1.1082  1.0911  0.2194
  967MOL0     H27633   6.719   5.238   6.961  0.1915 -0.8966  0.6104
  967MOL0     H27634   6.769   5.525   6.735 -0.4852  0.3928  0.1888
  967MOL0     H27635   6.756   5.598   6.895  2.5339  4.4206 -2.9964
  967MOL0     H27636   6.583   5.736   6.854 -1.7416 -0.0508 -0.9297
  967MOL0     H27637   6.711   5.748   6.735  0.7420 -0.2773 -1.0846
  967MOL0     H27638   6.551   5.586   6.592 -3.5495  0.2138 -0.9347
  967MOL0     H27639   6.522   5.752   6.594 -2.6542 -1.2217 -1.5010
  967MOL0     H27640   6.372   5.564   6.788  1.6488  1.1798  1.2745
  967MOL0     H27641   6.358   5.739   6.781  0.0800  0.1416  1.0046
  967MOL0     H27642   6.164   5.564   6.432 -1.8251  0.5171  0.5849
  967MOL0     H27643   6.456   5.577   6.991  1.6143  1.5909  1.8145
  967MOL0     H27644   6.377   5.503   7.215 -0.1019 -1.0575  2.0274
  968MOL0     O27645  10.776   2.794   1.651  0.1155 -0.6575  0.2425
  968MOL0     C27646  10.717   2.902   1.638  0.0045 -0.5426  0.8260
  968MOL0     O27647  10.767   3.031   1.642  0.0496  0.1115 -0.4708
  968MOL0     C27648  10.904   3.043   1.645 -0.7763 -0.3285  0.1834
  968MOL0     C27649  10.995   3.042   1.540 -0.3952  1.1609 -0.4658
  968MOL0     C27650  11.130   3.068   1.568 -0.3926  0.0184  0.0217
  968MOL0     C27651  11.178   3.079   1.704  0.3249  0.5729  0.9809
  968MOL0     O27652  11.311   3.101   1.724 -0.1881 -0.0578 -0.2012
  968MOL0     C27653  11.369   3.092   1.862  0.1559  0.0650  0.5797
  968MOL0     C27654  11.413   2.948   1.911  0.5600  0.4803 -0.3524
  968MOL0     C27655  11.398   2.930   2.063 -0.3341  0.1603 -0.5540
  968MOL0     C27656  11.454   3.048   2.136  1.3192  0.0237  0.1790
  968MOL0     C27657  11.449   3.036   2.284  0.7027 -0.2312 -0.2225
  968MOL0     C27658  11.322   2.995   2.362  0.1596  0.0172 -0.3031
  968MOL0     C27659  11.326   3.020   2.515 -0.6525 -0.1483 -0.1180
  968MOL0     C27660  11.456   3.000   2.589  0.6698  0.1022  0.5981
  968MOL0     N27661  11.492   2.861   2.608 -0.0312  0.7239 -0.3397
  968MOL0     C27662  11.430   2.776   2.695  0.1332 -0.2761  0.2596
  968MOL0     C27663  11.480   2.654   2.670 -0.4407  0.4069  0.0558
  968MOL0     C27664  11.439   2.524   2.724  0.8418  0.1030  1.1120
  968MOL0     C27665  11.478   2.507   2.877 -0.3318 -0.1098  1.2198
  968MOL0     C27666  11.630   2.498   2.903  0.2599 -0.1174  0.0683
  968MOL0     C27667  11.649   2.492   3.052  0.6148  0.1529 -0.9945
  968MOL0     O27668  11.779   2.430   3.077 -0.6115  0.0264  0.0367
  968MOL0     C27669  11.806   2.387   3.200 -0.5641  0.7691  0.4010
  968MOL0     C27670  11.935   2.345   3.222  0.8426  0.3339  0.4515
  968MOL0     C27671  11.977   2.289   3.344 -0.5920  0.4047 -0.1243
  968MOL0     C27672  11.894   2.283   3.456  0.2466 -0.2900  0.5661
  968MOL0     C27673  11.932   2.224   3.580 -0.6403 -0.0567 -0.6519
  968MOL0     O27674  12.063   2.188   3.597 -0.9217 -0.3506  0.9244
  968MOL0     C27675  12.081   2.097   3.699 -0.0654 -0.5887 -1.0846
  968MOL0     C27676  12.089   2.116   3.839 -0.2484 -1.4583  0.8816
  968MOL0     C27677  12.078   2.013   3.930 -0.6524  0.0681 -0.7683
  968MOL0     C27678  12.078   1.886   3.893 -0.4423  0.7081 -0.4406
  968MOL0     O27679  12.070   1.792   3.994  0.4093 -0.1789  0.6626
  968MOL0     C27680  12.173   1.699   4.007 -0.7741  0.4276  0.0133
  968MOL0     C27681  12.137   1.597   4.114 -0.1735  0.4430  0.3978
  968MOL0     C27682  12.008   1.523   4.082  0.3265 -0.3030 -0.3915
  968MOL0     C27683  12.007   1.397   4.171  0.7650 -0.4044 -0.2193
  968MOL0     C27684  11.866   1.325   4.160 -0.5128 -0.2404 -0.0909
  968MOL0     C27685  11.847   1.197   4.247  0.0474  1.2544  0.2101
  968MOL0     C27686  11.853   1.216   4.401 -0.8813 -0.7909 -0.0947
  968MOL0     C27687  11.714   1.243   4.472  0.9554 -0.4087  0.4606
  968MOL0    Cl27688  11.636   1.397   4.431 -0.1561  0.4546 -0.3205
  968MOL0     C27689  12.069   1.848   3.749  0.1542 -0.1660  0.2044
  968MOL0     C27690  12.074   1.961   3.657 -0.3624  0.0803 -0.2590
  968MOL0     O27691  11.836   2.180   3.653 -0.2435  0.0267 -0.7758
  968MOL0     C27692  11.757   2.321   3.435 -0.4401 -0.7390  0.3620
  968MOL0     C27693  11.718   2.375   3.309  0.0725 -0.5731 -0.4237
  968MOL0     N27694  11.572   2.670   2.573 -0.5987  0.2739  0.2315
  968MOL0     N27695  11.595   2.795   2.551 -0.3868  0.3935  0.0584
  968MOL0     C27696  11.080   3.080   1.802 -0.2408 -0.8998  0.6268
  968MOL0     C27697  10.946   3.071   1.775  0.9078  0.8768 -0.1058
  968MOL0     C27698  10.574   2.893   1.617  1.4634  0.4394  0.7486
  968MOL0     C27699  10.505   2.759   1.607 -0.2679  0.2478  0.0440
  968MOL0     C27700  10.362   2.761   1.582  0.4749 -0.3869 -0.0656
  968MOL0     C27701  10.293   2.880   1.574  0.4009  0.2347  0.4961
  968MOL0     O27702  10.156   2.875   1.548 -0.9351 -0.4654  0.1480
  968MOL0     C27703  10.067   2.987   1.562 -0.1929  0.0963  0.3502
  968MOL0     C27704   9.926   2.930   1.535 -1.2014 -0.0254  0.1593
  968MOL0     C27705   9.920   2.869   1.396 -0.3906  0.5159  0.3828
  968MOL0     C27706   9.928   2.979   1.290  0.4126  0.6163  0.6827
  968MOL0     C27707   9.907   2.916   1.161  0.0448 -0.0659  0.6353
  968MOL0     C27708   9.897   2.869   1.053 -0.2288 -0.0943 -0.2605
  968MOL0     C27709  10.360   3.000   1.595  0.4044 -0.3178  0.6391
  968MOL0     C27710  10.497   3.007   1.609  0.0575  0.2451  0.9582
  968MOL0     H27711  10.967   3.013   1.439  4.0496 -0.5127 -1.4507
  968MOL0     H27712  11.198   3.070   1.483 -0.4623  3.2148 -0.0717
  968MOL0     H27713  11.308   3.138   1.941 -0.0670  1.3782 -0.3158
  968MOL0     H27714  11.461   3.151   1.856  0.1391 -0.0461 -1.4267
  968MOL0     H27715  11.519   2.940   1.886  0.2077  0.7186 -2.0109
  968MOL0     H27716  11.349   2.873   1.863  0.4026 -1.5713  2.7742
  968MOL0     H27717  11.442   2.834   2.093  2.5606  1.2752 -0.9306
  968MOL0     H27718  11.294   2.926   2.098  0.5349  0.0882  2.3325
  968MOL0     H27719  11.558   3.056   2.104  0.6743  0.9208 -1.9262
  968MOL0     H27720  11.416   3.145   2.100  0.5375 -0.8133 -1.3236
  968MOL0     H27721  11.467   3.137   2.322 -0.9188  0.4250 -1.1007
  968MOL0     H27722  11.532   2.970   2.308  2.1108  1.8999  1.1632
  968MOL0     H27723  11.303   2.888   2.359  0.2168  0.0060 -0.2760
  968MOL0     H27724  11.233   3.041   2.318 -0.9440  0.3676  2.1004
  968MOL0     H27725  11.293   3.123   2.532  2.1595  0.9097 -0.5740
  968MOL0     H27726  11.255   2.958   2.570  0.2668 -0.4378  0.7672
  968MOL0     H27727  11.450   3.037   2.692  2.7094  1.7587  0.1831
  968MOL0     H27728  11.535   3.051   2.532  2.2955  0.2731  2.8524
  968MOL0     H27729  11.347   2.800   2.761  0.9222 -1.8475  1.9034
  968MOL0     H27730  11.496   2.450   2.668 -1.7878 -0.0777 -1.6245
  968MOL0     H27731  11.334   2.503   2.700  1.3998 -3.2351  1.1604
  968MOL0     H27732  11.426   2.421   2.921  1.6120 -2.6854 -1.2009
  968MOL0     H27733  11.448   2.600   2.928  0.8004  1.4422 -0.7952
  968MOL0     H27734  11.671   2.413   2.848 -3.1772 -2.6283  1.0583
  968MOL0     H27735  11.677   2.594   2.878 -0.4536  0.8352  2.1401
  968MOL0     H27736  11.570   2.427   3.090 -0.0056  1.2172 -0.4425
  968MOL0     H27737  11.635   2.585   3.107 -0.2496  0.1367 -1.1740
  968MOL0     H27738  12.017   2.334   3.152 -0.2155 -0.9984 -0.6204
  968MOL0     H27739  12.076   2.246   3.350 -0.2333  1.2934  0.6122
  968MOL0     H27740  12.104   2.216   3.877  0.8281  0.1856 -3.3373
  968MOL0     H27741  12.090   2.035   4.035 -0.6405 -3.3707  0.0693
  968MOL0     H27742  12.265   1.751   4.034  0.8837 -1.6480 -1.3066
  968MOL0     H27743  12.186   1.663   3.904  0.9973 -0.1399  0.3940
  968MOL0     H27744  12.129   1.638   4.216  6.5262  0.4982  1.3527
  968MOL0     H27745  12.223   1.530   4.113 -0.0147  0.5795 -2.6507
  968MOL0     H27746  12.015   1.496   3.976  2.4392  2.2116 -0.9903
  968MOL0     H27747  11.918   1.578   4.108  0.8733 -0.4644  2.0854
  968MOL0     H27748  12.086   1.330   4.139  0.4617  0.4353 -3.0156
  968MOL0     H27749  12.014   1.439   4.272 -1.0703 -1.9452  0.6191
  968MOL0     H27750  11.846   1.302   4.055  0.7210  1.8962 -0.8490
  968MOL0     H27751  11.793   1.403   4.182  1.9426  2.1826  0.0179
  968MOL0     H27752  11.929   1.126   4.231  1.0532  1.9705  1.8651
  968MOL0     H27753  11.748   1.151   4.236 -0.0075  1.5509 -0.6019
  968MOL0     H27754  11.897   1.127   4.446  2.6296 -0.7102 -2.9590
  968MOL0     H27755  11.916   1.300   4.432  0.5731 -1.9694  0.2459
  968MOL0     H27756  11.725   1.229   4.580  0.4745  0.9570  0.6973
  968MOL0     H27757  11.647   1.160   4.448 -0.6088  1.4260 -1.9526
  968MOL0     H27758  12.063   1.744   3.719 -4.2522 -0.2121  0.5699
  968MOL0     H27759  12.081   1.942   3.551  1.1074 -1.1613  0.0324
  968MOL0     H27760  11.688   2.324   3.519 -0.4899  1.9369  0.2962
  968MOL0     H27761  11.615   2.409   3.305 -1.1255 -3.6500  1.2957
  968MOL0     H27762  11.104   3.087   1.907  1.7915  1.2034  0.0934
  968MOL0     H27763  10.876   3.061   1.857  2.2701  0.2333  1.0184
  968MOL0     H27764  10.552   2.663   1.625 -0.4207 -0.3412 -2.3463
  968MOL0     H27765  10.295   2.676   1.572 -1.7108  1.3865 -1.7151
  968MOL0     H27766  10.095   3.068   1.493 -1.9370 -1.8958 -2.9622
  968MOL0     H27767  10.065   3.027   1.664 -3.0909  3.3966 -0.8048
  968MOL0     H27768   9.903   2.858   1.614 -0.6624 -1.4639 -0.9458
  968MOL0     H27769   9.861   3.018   1.539 -3.5661 -1.4366 -2.9625
  968MOL0     H27770   9.829   2.810   1.389 -0.7945  1.2475 -0.7198
  968MOL0     H27771   9.995   2.795   1.368  1.5312  3.7290 -4.3585
  968MOL0     H27772   9.876   3.074   1.309 -1.6694 -0.7516  2.2754
  968MOL0     H27773  10.034   3.003   1.281  0.9500 -1.8408 -0.2169
  968MOL0     H27774   9.872   2.825   0.958 -2.5196 -1.7303  0.9879
  968MOL0     H27775  10.306   3.094   1.589 -0.0496 -0.6749 -3.3568
  968MOL0     H27776  10.538   3.107   1.601 -1.6673  1.0513  1.4905
  969MOL0     O27777   3.707   8.764   0.195  0.9458 -0.2789  0.0429
  969MOL0     C27778   3.769   8.659   0.219 -0.3359 -0.2805 -1.3763
  969MOL0     O27779   3.889   8.657   0.281  0.5062  0.4877 -0.0970
  969MOL0     C27780   3.941   8.743   0.378  0.5588  0.2531 -0.7770
  969MOL0     C27781   4.061   8.713   0.425 -0.5930 -0.2167  1.0410
  969MOL0     C27782   4.135   8.787   0.513 -0.9429  0.3069 -1.0428
  969MOL0     C27783   4.077   8.907   0.568  0.2540  0.0524 -0.4370
  969MOL0     O27784   4.118   8.988   0.668 -0.4246  0.0640 -0.3923
  969MOL0     C27785   4.268   8.967   0.689  0.8273 -0.2553  0.2004
  969MOL0     C27786   4.303   9.064   0.803 -0.9153 -1.1690 -1.4948
  969MOL0     C27787   4.425   9.014   0.875 -0.7503 -0.6969  0.0118
  969MOL0     C27788   4.445   9.110   0.989 -0.7397  0.4582  0.6101
  969MOL0     C27789   4.528   9.039   1.091 -0.3949  0.5900 -0.8662
  969MOL0     C27790   4.579   9.121   1.211  0.2583 -0.0244 -0.2248
  969MOL0     C27791   4.644   9.047   1.332 -0.5181  0.4761  0.1527
  969MOL0     C27792   4.635   9.126   1.460 -0.4431 -1.1633 -1.0771
  969MOL0     N27793   4.762   9.220   1.481 -0.5560  0.7364  0.2714
  969MOL0     C27794   4.823   9.271   1.591 -0.0752  0.0891  0.2786
  969MOL0     C27795   4.926   9.342   1.530 -0.0417 -0.5452  0.3431
  969MOL0     C27796   5.031   9.419   1.610 -0.9010  0.0798  0.4343
  969MOL0     C27797   4.994   9.482   1.738 -0.3805  1.0608 -0.7624
  969MOL0     C27798   5.127   9.489   1.825  0.0646 -0.4456 -0.0858
  969MOL0     C27799   5.113   9.525   1.975 -0.1918  0.2392  0.5685
  969MOL0     O27800   5.236   9.512   2.055 -0.4382 -0.3329 -0.0590
  969MOL0     C27801   5.221   9.518   2.190 -1.2659  0.5071 -0.3015
  969MOL0     C27802   5.107   9.569   2.250 -0.0109  0.0716  0.1191
  969MOL0     C27803   5.098   9.565   2.395  0.1354 -0.0216  0.3260
  969MOL0     C27804   5.203   9.515   2.475 -0.4870  0.1919  0.5086
  969MOL0     C27805   5.195   9.531   2.623  0.2312 -0.1579  0.3607
  969MOL0     O27806   5.082   9.580   2.678  0.3723 -0.4784  0.0812
  969MOL0     C27807   5.043   9.569   2.818 -0.1022 -0.5293 -0.6129
  969MOL0     C27808   4.912   9.611   2.846  0.9568 -0.1677  0.2626
  969MOL0     C27809   4.857   9.598   2.982 -0.2005  0.4678  0.4028
  969MOL0     C27810   4.948   9.578   3.082 -0.5175 -1.0795 -1.3273
  969MOL0     O27811   4.896   9.599   3.211  0.4267 -0.4909  0.1255
  969MOL0     C27812   4.975   9.683   3.298  0.0445  0.7451  0.5092
  969MOL0     C27813   4.942   9.832   3.274  0.1184 -0.4302  0.2987
  969MOL0     C27814   5.059   9.910   3.352 -0.1371  0.2824  1.0194
  969MOL0     C27815   5.076  10.049   3.292 -0.5768  0.3480  0.3683
  969MOL0     C27816   5.165  10.139   3.389  0.1611  0.2259  0.2504
  969MOL0     C27817   5.274  10.215   3.321  0.1019  0.4281 -0.6675
  969MOL0     C27818   5.380  10.116   3.274  0.3158 -0.5200  0.3514
  969MOL0     C27819   5.512  10.191   3.252  0.4991  0.6979 -0.7759
  969MOL0    Cl27820   5.647  10.089   3.220 -0.0105  0.4477  0.4151
  969MOL0     C27821   5.077   9.532   3.053  0.8085  0.2843  0.1922
  969MOL0     C27822   5.121   9.517   2.917 -0.0352 -0.2081 -1.0901
  969MOL0     O27823   5.284   9.477   2.687 -0.1572  0.8351 -0.2790
  969MOL0     C27824   5.330   9.474   2.416  0.7995 -0.3528 -0.1829
  969MOL0     C27825   5.334   9.475   2.273 -0.5906 -0.6790 -0.5596
  969MOL0     N27826   4.930   9.331   1.390 -0.1458  0.8121  0.0609
  969MOL0     N27827   4.823   9.259   1.366 -1.0895  0.4253 -0.8307
  969MOL0     C27828   3.939   8.919   0.543  0.3340 -0.2641  0.0817
  969MOL0     C27829   3.872   8.845   0.436  0.0378  0.2983 -1.1348
  969MOL0     C27830   3.724   8.533   0.159  0.3001 -0.4177  0.4435
  969MOL0     C27831   3.585   8.522   0.121  0.4897  0.2977  0.0644
  969MOL0     C27832   3.548   8.404   0.045  0.3346 -0.3245  0.2909
  969MOL0     C27833   3.643   8.297   0.028  0.4310  0.0182  0.3347
  969MOL0     O27834   3.607   8.185  -0.036 -0.0976 -1.0930  0.0441
  969MOL0     C27835   3.479   8.172  -0.106 -0.3437 -1.0201  0.6609
  969MOL0     C27836   3.475   8.054  -0.195  0.6182  0.8873 -0.1084
  969MOL0     C27837   3.598   8.035  -0.286  0.1511 -0.4370 -0.7004
  969MOL0     C27838   3.583   7.923  -0.384 -0.1333 -0.7334  0.3015
  969MOL0     C27839   3.699   7.931  -0.473 -0.0600  1.0276 -0.1968
  969MOL0     C27840   3.787   7.930  -0.560  1.3405 -0.1991 -0.6402
  969MOL0     C27841   3.771   8.306   0.075  0.2698  0.2595  0.7245
  969MOL0     C27842   3.808   8.421   0.133 -0.9451 -0.2180  0.4222
  969MOL0     H27843   4.108   8.630   0.374  1.2017  2.0048 -1.1372
  969MOL0     H27844   4.241   8.769   0.528 -1.7609 -2.3833  3.2534
  969MOL0     H27845   4.316   8.996   0.596  1.3014  0.1720  0.5745
  969MOL0     H27846   4.288   8.862   0.714 -3.3320 -1.6702 -1.4430
  969MOL0     H27847   4.214   9.066   0.866 -0.7547 -0.4383 -1.2814
  969MOL0     H27848   4.305   9.167   0.766 -0.7194 -0.0481  1.4254
  969MOL0     H27849   4.518   9.024   0.819  0.4264  0.4032  2.0538
  969MOL0     H27850   4.422   8.909   0.907  3.2088 -1.7305 -2.3064
  969MOL0     H27851   4.491   9.202   0.951 -3.4771  2.1457  1.0943
  969MOL0     H27852   4.352   9.132   1.043 -1.4755  0.7044 -0.7143
  969MOL0     H27853   4.617   9.001   1.040  2.1313  3.7334  0.8258
  969MOL0     H27854   4.470   8.955   1.130  0.7931 -0.0098 -0.3391
  969MOL0     H27855   4.484   9.163   1.244  0.5039 -0.5913  1.2971
  969MOL0     H27856   4.635   9.206   1.171  1.0272 -1.4210 -2.3061
  969MOL0     H27857   4.580   8.959   1.340 -2.8124  1.6743 -3.0224
  969MOL0     H27858   4.745   9.005   1.324 -0.2093  1.3959 -1.1269
  969MOL0     H27859   4.623   9.053   1.540 -2.4242  0.8741  0.5953
  969MOL0     H27860   4.547   9.190   1.466  0.1822 -0.2226 -1.6772
  969MOL0     H27861   4.797   9.248   1.694  1.3940 -4.3207 -0.1191
  969MOL0     H27862   5.076   9.491   1.541  1.9687 -1.2339  0.8014
  969MOL0     H27863   5.104   9.348   1.650  1.1049  3.1478  2.7203
  969MOL0     H27864   4.912   9.427   1.784  1.4712  0.8110  2.5624
  969MOL0     H27865   4.960   9.585   1.722 -1.4814  0.9001  0.3593
  969MOL0     H27866   5.188   9.398   1.825  1.4849  0.4769 -0.7687
  969MOL0     H27867   5.196   9.560   1.778 -0.1214 -1.4183 -1.9592
  969MOL0     H27868   5.035   9.467   2.026  1.0838 -2.2080 -0.0936
  969MOL0     H27869   5.087   9.631   1.981 -1.2215 -0.0194  1.0075
  969MOL0     H27870   5.020   9.621   2.210  0.2548  0.9556  0.6446
  969MOL0     H27871   5.004   9.606   2.431 -3.2011 -2.9834 -3.9506
  969MOL0     H27872   4.844   9.646   2.769 -1.3644 -2.2025  1.2682
  969MOL0     H27873   4.754   9.628   2.999  0.1246  0.9297  1.7422
  969MOL0     H27874   5.079   9.677   3.268 -0.2874  3.1188 -1.4276
  969MOL0     H27875   4.965   9.646   3.401  0.5952  0.3591  0.4265
  969MOL0     H27876   4.842   9.865   3.304  0.5749  1.3763 -0.0351
  969MOL0     H27877   4.942   9.849   3.166 -0.8969  0.2296  0.3918
  969MOL0     H27878   5.153   9.854   3.349  1.0889  2.2845  0.4302
  969MOL0     H27879   5.016   9.913   3.453 -4.8402  1.3157 -0.8057
  969MOL0     H27880   5.123  10.031   3.195  0.8841 -2.1017  1.4246
  969MOL0     H27881   4.977  10.093   3.279 -1.1070 -1.1670 -1.1657
  969MOL0     H27882   5.202  10.079   3.472 -3.2903 -1.9761  0.3900
  969MOL0     H27883   5.103  10.219   3.431 -1.5521  0.3966 -2.4000
  969MOL0     H27884   5.314  10.284   3.397  1.8943  0.1868 -1.3499
  969MOL0     H27885   5.236  10.261   3.229 -4.5456 -2.9792 -0.7819
  969MOL0     H27886   5.400  10.026   3.332 -0.5091 -1.0074 -0.0931
  969MOL0     H27887   5.343  10.086   3.175  0.2836  2.8058 -0.7744
  969MOL0     H27888   5.527  10.245   3.347 -1.7211 -1.4959  0.9770
  969MOL0     H27889   5.505  10.272   3.179  0.3840  0.5124 -0.9681
  969MOL0     H27890   5.140   9.504   3.138 -0.4975 -3.0687  0.2257
  969MOL0     H27891   5.221   9.478   2.902  0.5382  0.5344  0.5915
  969MOL0     H27892   5.419   9.448   2.473  0.9001  1.9805  0.8142
  969MOL0     H27893   5.423   9.437   2.224 -2.1027 -0.2683 -3.9605
  969MOL0     H27894   3.898   8.994   0.610 -2.5070 -1.8431  0.2364
  969MOL0     H27895   3.767   8.870   0.423 -0.8194 -0.9564  2.1626
  969MOL0     H27896   3.513   8.602   0.133  1.5650  1.5709 -1.5309
  969MOL0     H27897   3.444   8.399   0.013 -0.6607 -0.4721  3.2291
  969MOL0     H27898   3.462   8.255  -0.175 -2.9422 -1.8615  0.1935
  969MOL0     H27899   3.389   8.170  -0.043  0.8129  0.7835  2.5157
  969MOL0     H27900   3.487   7.966  -0.131  3.6405 -0.3715 -2.1689
  969MOL0     H27901   3.392   8.049  -0.266 -0.9949  3.6249  1.4234
  969MOL0     H27902   3.690   8.010  -0.232 -0.2882 -0.1013  0.2431
  969MOL0     H27903   3.615   8.134  -0.330 -2.2465  0.2343 -0.2382
  969MOL0     H27904   3.578   7.824  -0.339 -2.0217 -0.9478 -0.3271
  969MOL0     H27905   3.494   7.940  -0.444 -1.2214  2.0085  2.4412
  969MOL0     H27906   3.859   7.931  -0.639  3.1948  1.9476  0.9235
  969MOL0     H27907   3.831   8.218   0.055  0.1366 -0.7104  3.9491
  969MOL0     H27908   3.911   8.428   0.166 -0.3672 -0.8252 -1.1848
  970MOL0     O27909   8.114   9.013  10.481  0.3050  0.5513  0.1859
  970MOL0     C27910   8.173   9.063  10.385 -1.0111 -0.5718 -0.3175
  970MOL0     O27911   8.119   9.085  10.264  0.1590  0.2749  0.2021
  970MOL0     C27912   7.987   9.068  10.235  0.1203  1.0770  0.0142
  970MOL0     C27913   7.942   9.155  10.130 -0.4797 -1.1331  0.1619
  970MOL0     C27914   7.809   9.131  10.088 -0.1020 -0.4943 -0.2594
  970MOL0     C27915   7.728   9.034  10.141  0.4194  0.9484  0.0040
  970MOL0     O27916   7.599   9.014  10.103  0.7436 -0.0237 -0.9443
  970MOL0     C27917   7.509   9.122  10.115  0.0671  0.1872  0.2837
  970MOL0     C27918   7.371   9.059  10.092 -0.0683 -0.0500  0.4087
  970MOL0     C27919   7.364   8.981   9.955 -0.8691  0.6381 -0.5231
  970MOL0     C27920   7.228   8.901   9.940  0.4907  0.4596 -0.6085
  970MOL0     C27921   7.221   8.829   9.802  0.2829 -0.5250 -0.1283
  970MOL0     C27922   7.081   8.770   9.765 -0.4564 -0.3161 -1.3964
  970MOL0     C27923   7.107   8.668   9.664 -0.8467  0.2166 -0.0670
  970MOL0     C27924   6.972   8.602   9.622  0.0602  0.0255 -0.2409
  970MOL0     N27925   6.995   8.489   9.524  0.3663 -0.7557  0.7360
  970MOL0     C27926   7.103   8.482   9.433 -0.9264 -0.2762 -0.2731
  970MOL0     C27927   7.157   8.362   9.443 -0.4129  0.9990  0.0453
  970MOL0     C27928   7.290   8.325   9.375 -0.6882  0.9733  0.4054
  970MOL0     C27929   7.417   8.340   9.471  0.7577 -0.4068  0.1482
  970MOL0     C27930   7.541   8.322   9.379  0.8683 -0.0402 -0.4496
  970MOL0     C27931   7.676   8.304   9.454  0.3995 -0.2289  0.5100
  970MOL0     O27932   7.723   8.420   9.519  0.6751  0.7368  0.6372
  970MOL0     C27933   7.853   8.416   9.560 -0.0670 -0.3118 -0.5166
  970MOL0     C27934   7.901   8.520   9.649  0.4945  0.4704 -0.2914
  970MOL0     C27935   8.030   8.518   9.701 -0.2385  0.1885  0.6931
  970MOL0     C27936   8.118   8.413   9.664  0.2343 -0.5079  0.0294
  970MOL0     C27937   8.265   8.417   9.711 -0.2392 -0.9436  0.5268
  970MOL0     O27938   8.301   8.485   9.828  0.0173 -0.3644  0.2434
  970MOL0     C27939   8.430   8.496   9.856  0.6088 -0.6865  0.0061
  970MOL0     C27940   8.481   8.629   9.887  0.5060  0.5139  0.4644
  970MOL0     C27941   8.621   8.640   9.911  0.5717 -1.3942 -0.0126
  970MOL0     C27942   8.702   8.526   9.908 -0.4039 -0.4510 -1.0136
  970MOL0     O27943   8.842   8.543   9.915  0.3483  0.5355  1.6603
  970MOL0     C27944   8.906   8.675   9.928 -0.0365 -0.0930 -0.2306
  970MOL0     C27945   9.056   8.677   9.932  0.8307  0.5995 -0.2177
  970MOL0     C27946   9.127   8.557  10.003  0.4597  0.8800 -0.6184
  970MOL0     C27947   9.277   8.574  10.001  0.7879 -0.0257  1.0172
  970MOL0     C27948   9.343   8.434  10.044 -0.2742  0.6044  0.7332
  970MOL0     C27949   9.304   8.321   9.952  0.3504  1.0250  0.7163
  970MOL0     C27950   9.374   8.191   9.997  0.1288 -0.2152 -0.3609
  970MOL0     C27951   9.367   8.101   9.874  1.2038  0.6943  0.4020
  970MOL0    Cl27952   9.483   8.154   9.736  0.2339 -0.0482  0.4479
  970MOL0     C27953   8.650   8.398   9.907  0.0378  0.1040  0.8715
  970MOL0     C27954   8.518   8.381   9.863 -0.0934  1.0066 -0.2210
  970MOL0     O27955   8.344   8.359   9.640 -0.6879  0.7403 -0.8438
  970MOL0     C27956   8.076   8.305   9.590 -0.7711 -0.3436  0.0972
  970MOL0     C27957   7.947   8.308   9.532 -0.5935 -0.0442  1.1198
  970MOL0     N27958   7.093   8.288   9.536 -0.0484  0.4702 -0.7128
  970MOL0     N27959   6.998   8.357   9.579 -0.4342  0.7676 -0.4395
  970MOL0     C27960   7.773   8.954  10.243 -0.9926 -0.4397  1.0227
  970MOL0     C27961   7.912   8.962  10.285  0.5543  0.4952 -0.5355
  970MOL0     C27962   8.313   9.110  10.405  0.0233  0.8167  0.0419
  970MOL0     C27963   8.393   9.026  10.496 -0.1542 -0.4040 -0.5484
  970MOL0     C27964   8.523   9.069  10.523 -0.9028  1.1200 -0.1842
  970MOL0     C27965   8.580   9.185  10.470 -1.2619  0.5135 -0.1532
  970MOL0     O27966   8.715   9.211  10.510  0.0684  0.5529 -0.6053
  970MOL0     C27967   8.788   9.311  10.440 -1.5885 -0.1404 -1.1259
  970MOL0     C27968   8.862   9.242  10.320 -0.3795  0.8441 -0.3658
  970MOL0     C27969   8.945   9.342  10.235  0.2366 -0.2874  0.3377
  970MOL0     C27970   9.095   9.296  10.203 -0.9310 -0.2404 -0.0283
  970MOL0     C27971   9.172   9.298  10.334 -0.3937  0.1277  0.1639
  970MOL0     C27972   9.234   9.281  10.443  1.1858  0.5477  0.1292
  970MOL0     C27973   8.503   9.255  10.382 -0.0868  0.1261  0.5374
  970MOL0     C27974   8.373   9.218  10.350 -0.3699  0.0513 -0.7259
  970MOL0     H27975   8.002   9.240  10.101  0.9889 -0.9269  3.3469
  970MOL0     H27976   7.755   9.200  10.024 -2.1635 -1.1287  0.7129
  970MOL0     H27977   7.528   9.203  10.044 -3.3399 -1.1017 -2.3875
  970MOL0     H27978   7.512   9.156  10.218 -3.5171 -0.7212  0.8087
  970MOL0     H27979   7.288   9.129  10.097 -1.4998 -1.7809  2.0438
  970MOL0     H27980   7.353   8.994  10.177  5.3003  0.8924  2.6505
  970MOL0     H27981   7.440   8.903   9.948  2.0466  3.2269 -0.4794
  970MOL0     H27982   7.365   9.057   9.876 -0.7941  1.8419  0.5930
  970MOL0     H27983   7.206   8.825  10.014 -4.1106 -1.6163 -3.6454
  970MOL0     H27984   7.144   8.971   9.945 -1.2142 -1.4780 -0.7345
  970MOL0     H27985   7.287   8.743   9.815 -0.5798 -1.0447  0.9191
  970MOL0     H27986   7.256   8.900   9.726  0.6317  0.5998  1.0470
  970MOL0     H27987   7.019   8.850   9.724 -1.8510 -1.0968 -0.8894
  970MOL0     H27988   7.035   8.724   9.853 -1.3532 -0.3661 -1.8824
  970MOL0     H27989   7.155   8.720   9.580 -0.4696  1.3788  0.8515
  970MOL0     H27990   7.170   8.585   9.696 -2.4615  0.0492  3.0848
  970MOL0     H27991   6.898   8.675   9.588 -0.9740 -0.0742  1.6187
  970MOL0     H27992   6.912   8.563   9.706  1.2140 -4.0407 -1.1014
  970MOL0     H27993   7.152   8.564   9.380 -0.4000 -1.2316 -1.3095
  970MOL0     H27994   7.306   8.376   9.280  1.3934 -0.4941 -0.1100
  970MOL0     H27995   7.288   8.218   9.352  1.3016  0.6659  1.3856
  970MOL0     H27996   7.404   8.262   9.548 -0.2674  2.5225  3.1854
  970MOL0     H27997   7.433   8.437   9.519  1.9233 -1.1248  1.2631
  970MOL0     H27998   7.525   8.227   9.327 -1.6673  1.7952 -3.2857
  970MOL0     H27999   7.536   8.404   9.307  1.2491 -0.4135 -0.9070
  970MOL0     H28000   7.747   8.281   9.375 -0.0430 -2.5966  0.7457
  970MOL0     H28001   7.661   8.227   9.530  0.8222  0.3023  1.1565
  970MOL0     H28002   7.835   8.602   9.675  1.0037 -0.0706  3.1979
  970MOL0     H28003   8.064   8.598   9.765 -1.0656 -1.8488  3.8898
  970MOL0     H28004   8.409   8.708   9.868  2.3659  1.6825 -2.3293
  970MOL0     H28005   8.652   8.743   9.918  0.8392 -1.5698  2.2578
  970MOL0     H28006   8.868   8.710  10.024 -4.1699 -0.9961 -1.2956
  970MOL0     H28007   8.881   8.751   9.853 -0.9474  0.3369  0.4881
  970MOL0     H28008   9.094   8.775   9.963 -0.3319  0.5889  1.3619
  970MOL0     H28009   9.083   8.673   9.826  0.1194 -0.4317 -0.3686
  970MOL0     H28010   9.087   8.463   9.962 -0.9027  0.2432  1.9926
  970MOL0     H28011   9.088   8.549  10.105 -0.9298 -2.2135 -1.2579
  970MOL0     H28012   9.301   8.598   9.897  0.1162 -1.5418  0.4853
  970MOL0     H28013   9.309   8.652  10.070 -1.3401  0.6945  1.2542
  970MOL0     H28014   9.327   8.405  10.148 -0.6320  1.0457  0.8039
  970MOL0     H28015   9.451   8.449  10.039 -0.4008  1.2335 -0.8513
  970MOL0     H28016   9.324   8.351   9.849 -1.4394  1.9540  0.6051
  970MOL0     H28017   9.198   8.298   9.963  0.6807 -0.0247  2.0782
  970MOL0     H28018   9.481   8.206  10.014  0.7197  2.0416 -4.7362
  970MOL0     H28019   9.327   8.150  10.087 -2.6041  0.2588 -1.4737
  970MOL0     H28020   9.269   8.100   9.827  1.3984 -0.0618 -0.0056
  970MOL0     H28021   9.394   7.997   9.895  1.5140  0.8879  0.9915
  970MOL0     H28022   8.718   8.314   9.906 -0.0630  0.0240  0.5689
  970MOL0     H28023   8.483   8.279   9.856 -1.2932  1.2478  1.6350
  970MOL0     H28024   8.147   8.225   9.572  0.1588  0.3822  0.4407
  970MOL0     H28025   7.925   8.215   9.481  3.4941 -0.2590 -0.6144
  970MOL0     H28026   7.699   8.886  10.283 -3.2707  2.0178  1.2772
  970MOL0     H28027   7.953   8.887  10.352 -0.6699 -2.6462 -3.0502
  970MOL0     H28028   8.358   8.938  10.549 -1.3123  0.1014 -0.4396
  970MOL0     H28029   8.576   9.010  10.597 -1.5720 -0.7782 -1.1434
  970MOL0     H28030   8.868   9.355  10.500 -0.1523 -1.8048 -1.7132
  970MOL0     H28031   8.724   9.394  10.408 -0.9385  0.1378 -1.7366
  970MOL0     H28032   8.932   9.169  10.361  1.7159  3.0005  0.1346
  970MOL0     H28033   8.784   9.200  10.257 -1.0547  1.6947 -0.1240
  970MOL0     H28034   8.945   9.437  10.287 -1.7050  1.9436 -3.3044
  970MOL0     H28035   8.888   9.352  10.142  0.5035 -0.7175  0.1213
  970MOL0     H28036   9.081   9.191  10.174 -0.7169 -0.4298  0.5465
  970MOL0     H28037   9.133   9.363  10.126 -0.7442  0.1490  0.4006
  970MOL0     H28038   9.273   9.267  10.542 -1.9338  1.6979  1.6500
  970MOL0     H28039   8.545   9.340  10.329 -0.5142 -0.9641 -1.7010
  970MOL0     H28040   8.313   9.258  10.269  2.4407 -1.1975 -3.6589
  971MOL0     O28041   4.375   2.266   5.018 -0.6239  0.0654 -0.2415
  971MOL0     C28042   4.287   2.180   5.027  0.0848 -0.1586  0.9691
  971MOL0     O28043   4.221   2.142   5.146  0.1465  0.0449 -0.1260
  971MOL0     C28044   4.245   2.213   5.261 -0.4158  0.3433 -0.0349
  971MOL0     C28045   4.134   2.279   5.327  0.4371  0.3318  0.6489
  971MOL0     C28046   4.151   2.369   5.439  0.4976 -0.4281 -0.1564
  971MOL0     C28047   4.276   2.369   5.500  0.4125 -0.9340 -0.0449
  971MOL0     O28048   4.299   2.449   5.609 -0.1024  0.0674  0.6977
  971MOL0     C28049   4.188   2.458   5.700  0.3039  0.5841  0.0155
  971MOL0     C28050   4.175   2.325   5.783 -0.5473  0.3911  0.3208
  971MOL0     C28051   4.061   2.337   5.887  0.7493  0.2690  0.4534
  971MOL0     C28052   3.926   2.296   5.828 -0.6770  0.9300 -0.0902
  971MOL0     C28053   3.806   2.299   5.926  0.6567  0.5074  0.3811
  971MOL0     C28054   3.809   2.212   6.051  0.5728 -0.1219  0.4609
  971MOL0     C28055   3.844   2.066   6.016 -1.0222  0.0159  0.6022
  971MOL0     C28056   3.851   1.989   6.144 -0.1681  0.4763 -0.0777
  971MOL0     N28057   3.940   2.037   6.256  0.0387 -0.5465  0.2715
  971MOL0     C28058   4.067   2.012   6.287 -0.3598 -0.7019  0.3800
  971MOL0     C28059   4.090   2.075   6.405 -0.4418  0.3828  0.4621
  971MOL0     C28060   4.216   2.096   6.479  0.6118  0.9616  0.3106
  971MOL0     C28061   4.262   2.240   6.484  0.4730  0.7122  0.8296
  971MOL0     C28062   4.388   2.241   6.568  0.0214 -0.2627  0.2012
  971MOL0     C28063   4.447   2.390   6.573 -0.5449 -0.7154  0.1670
  971MOL0     O28064   4.579   2.383   6.514  1.1674 -0.5253  0.0245
  971MOL0     C28065   4.635   2.511   6.506  0.3399 -0.2679 -0.9055
  971MOL0     C28066   4.589   2.604   6.412  0.2369  1.0048 -0.2875
  971MOL0     C28067   4.639   2.732   6.414 -0.0147 -0.7466 -0.0110
  971MOL0     C28068   4.719   2.776   6.517 -0.1708  0.3070  0.2220
  971MOL0     C28069   4.761   2.921   6.537  0.0673 -0.0067  1.2363
  971MOL0     O28070   4.738   3.009   6.435 -0.3950  0.1808 -0.3460
  971MOL0     C28071   4.785   3.138   6.445 -0.4143 -0.2054 -0.1823
  971MOL0     C28072   4.740   3.231   6.541 -0.4222  0.3599 -0.4536
  971MOL0     C28073   4.797   3.361   6.543  0.6217  0.9449 -0.2380
  971MOL0     C28074   4.901   3.399   6.456  0.2695 -0.6242  0.4530
  971MOL0     O28075   4.964   3.524   6.459  0.0476  0.0697 -0.0936
  971MOL0     C28076   4.972   3.604   6.580  0.2992 -0.6125  0.6994
  971MOL0     C28077   5.096   3.564   6.673  0.5380 -1.1218  1.1230
  971MOL0     C28078   5.239   3.617   6.622  0.5478 -0.2498 -0.6058
  971MOL0     C28079   5.349   3.543   6.700 -0.7834  0.0556 -0.0351
  971MOL0     C28080   5.495   3.593   6.676 -1.0994  0.4734 -1.3511
  971MOL0     C28081   5.514   3.728   6.744  0.0809  0.8483  0.0290
  971MOL0     C28082   5.661   3.770   6.729 -0.2833 -0.1079 -0.0909
  971MOL0     C28083   5.687   3.916   6.786  0.0554 -0.6957  0.4643
  971MOL0    Cl28084   5.864   3.945   6.762 -0.4820  0.0572 -0.0731
  971MOL0     C28085   4.934   3.312   6.354 -0.2905  0.0755  0.5149
  971MOL0     C28086   4.888   3.181   6.357 -0.6212  0.7596  0.9295
  971MOL0     O28087   4.832   2.937   6.640 -0.0321 -0.6803 -0.1772
  971MOL0     C28088   4.773   2.677   6.600 -0.3251 -0.1239 -0.2410
  971MOL0     C28089   4.734   2.549   6.593  0.9017 -0.8866  0.8452
  971MOL0     N28090   3.975   2.137   6.440  0.2698 -0.3959 -0.4337
  971MOL0     N28091   3.881   2.102   6.360 -0.4116  0.3178  0.2931
  971MOL0     C28092   4.379   2.292   5.443 -0.5571  0.5073 -0.1171
  971MOL0     C28093   4.371   2.218   5.329  0.5428  0.1765 -0.1970
  971MOL0     C28094   4.251   2.100   4.898 -0.7954  0.1771 -0.3371
  971MOL0     C28095   4.346   2.085   4.800  0.3793  0.8600 -0.8156
  971MOL0     C28096   4.318   2.014   4.696  0.0148  0.8716  1.2263
  971MOL0     C28097   4.199   1.939   4.685  0.7350 -0.1484 -0.1336
  971MOL0     O28098   4.174   1.851   4.592 -0.9666 -0.0026  0.4611
  971MOL0     C28099   4.269   1.780   4.514  0.0769  0.8169  0.7321
  971MOL0     C28100   4.220   1.657   4.434 -0.2306  0.4910  0.7595
  971MOL0     C28101   4.276   1.633   4.298  0.1916  0.7347  0.1102
  971MOL0     C28102   4.424   1.598   4.304 -0.5815 -0.5234 -0.4092
  971MOL0     C28103   4.465   1.467   4.356  0.5832  0.2895  0.4610
  971MOL0     C28104   4.496   1.368   4.417 -0.0290  0.6442 -0.5893
  971MOL0     C28105   4.101   1.956   4.790 -0.7254 -0.3196  0.0458
  971MOL0     C28106   4.132   2.040   4.903 -0.2053  0.2580 -0.1716
  971MOL0     H28107   4.041   2.265   5.273  0.1904 -0.6225  1.2812
  971MOL0     H28108   4.063   2.430   5.459  1.6327  0.9612  0.8806
  971MOL0     H28109   4.090   2.479   5.655 -2.0734 -0.7724  3.9638
  971MOL0     H28110   4.206   2.539   5.771 -0.0902  1.2534 -0.6407
  971MOL0     H28111   4.274   2.306   5.824  0.0055 -0.9611 -1.4774
  971MOL0     H28112   4.162   2.241   5.713  1.7383  1.6215 -1.7258
  971MOL0     H28113   4.055   2.439   5.924  2.2515  1.1512 -1.5940
  971MOL0     H28114   4.085   2.268   5.969  0.2018 -2.1969 -1.3349
  971MOL0     H28115   3.913   2.366   5.745 -0.3026  0.0793 -0.8915
  971MOL0     H28116   3.936   2.195   5.785  1.6928  2.0044 -2.3589
  971MOL0     H28117   3.712   2.273   5.876  0.4496  1.1306  0.4288
  971MOL0     H28118   3.794   2.405   5.953  3.0197  1.0439 -0.4754
  971MOL0     H28119   3.704   2.216   6.084 -0.0757  0.1500 -1.4664
  971MOL0     H28120   3.866   2.256   6.132  1.1772 -1.5963  0.8634
  971MOL0     H28121   3.774   2.019   5.946 -0.0527 -0.7869  0.1559
  971MOL0     H28122   3.940   2.056   5.966 -2.4313 -0.1831 -2.2514
  971MOL0     H28123   3.891   1.891   6.116  1.4891  1.5673 -1.7455
  971MOL0     H28124   3.759   1.984   6.204  0.7787  0.1923  1.4115
  971MOL0     H28125   4.143   1.955   6.236  0.2894 -0.6484  1.2614
  971MOL0     H28126   4.302   2.042   6.437  0.9580  0.9550  1.0159
  971MOL0     H28127   4.204   2.064   6.583 -0.0254  0.6880  0.1577
  971MOL0     H28128   4.189   2.309   6.525 -0.2493  0.5090 -0.0818
  971MOL0     H28129   4.293   2.269   6.383  2.2154 -0.9758  0.8121
  971MOL0     H28130   4.383   2.203   6.671  0.5467  1.8987  1.0629
  971MOL0     H28131   4.463   2.184   6.513 -0.1651  0.0134 -0.3427
  971MOL0     H28132   4.453   2.430   6.675  1.7685  3.7128 -1.4268
  971MOL0     H28133   4.390   2.462   6.513  1.7859  2.5500  1.5432
  971MOL0     H28134   4.523   2.570   6.332  0.1373  1.1732 -0.2793
  971MOL0     H28135   4.617   2.809   6.340 -3.2131 -2.3187 -0.8570
  971MOL0     H28136   4.661   3.205   6.611 -0.5228  1.4428 -0.1455
  971MOL0     H28137   4.758   3.436   6.610 -0.2005  2.4046 -2.2580
  971MOL0     H28138   4.880   3.611   6.640  0.3326 -0.1005  0.7007
  971MOL0     H28139   4.990   3.708   6.551  0.9626 -1.5653 -2.7967
  971MOL0     H28140   5.098   3.456   6.660 -0.0756 -0.8722 -1.4361
  971MOL0     H28141   5.096   3.605   6.775  3.4528  0.2230  0.6898
  971MOL0     H28142   5.247   3.726   6.632 -1.2038 -0.1704  0.2006
  971MOL0     H28143   5.255   3.605   6.515 -0.1510  3.5079 -1.2919
  971MOL0     H28144   5.328   3.545   6.807 -0.0602 -3.1579  0.2640
  971MOL0     H28145   5.343   3.440   6.665 -1.3790  1.7016 -6.0332
  971MOL0     H28146   5.527   3.595   6.572 -1.8794 -2.2000 -1.7382
  971MOL0     H28147   5.555   3.521   6.734 -0.2868  2.7452  0.7927
  971MOL0     H28148   5.490   3.713   6.849  0.0000  2.3149  0.2374
  971MOL0     H28149   5.442   3.798   6.700 -1.8249 -1.0235 -0.0254
  971MOL0     H28150   5.723   3.693   6.776 -1.1848 -0.2782  0.8469
  971MOL0     H28151   5.692   3.773   6.624 -2.4540  2.8977 -0.8068
  971MOL0     H28152   5.669   3.920   6.894  0.1176  0.4529  0.4411
  971MOL0     H28153   5.634   3.999   6.739  0.9675 -1.1940 -1.5649
  971MOL0     H28154   5.005   3.349   6.280  0.5394 -0.4490  1.0255
  971MOL0     H28155   4.930   3.120   6.277  2.9977  5.2166 -1.0416
  971MOL0     H28156   4.850   2.693   6.675  0.2959  0.5420 -0.9995
  971MOL0     H28157   4.777   2.477   6.661 -0.9369 -2.5811  0.3176
  971MOL0     H28158   4.472   2.285   5.499 -0.9578 -1.3757  0.3623
  971MOL0     H28159   4.461   2.176   5.286 -0.0586  0.0052 -1.3342
  971MOL0     H28160   4.435   2.145   4.820 -0.5163  2.5037 -1.5719
  971MOL0     H28161   4.397   2.018   4.622 -2.8204  0.4397 -2.1403
  971MOL0     H28162   4.358   1.754   4.572  0.3142  2.5673  1.2097
  971MOL0     H28163   4.311   1.856   4.446  3.0725 -1.5223 -0.2632
  971MOL0     H28164   4.250   1.576   4.501 -0.7168  0.9742  1.5764
  971MOL0     H28165   4.111   1.667   4.430 -0.4892 -0.1515  3.8211
  971MOL0     H28166   4.276   1.723   4.236 -0.5329  0.6626 -0.0014
  971MOL0     H28167   4.213   1.565   4.240 -0.6817  0.6025  1.1893
  971MOL0     H28168   4.474   1.609   4.208 -2.8436 -1.2339 -1.7476
  971MOL0     H28169   4.472   1.677   4.363  1.3293  0.3726 -2.9986
  971MOL0     H28170   4.539   1.284   4.468  0.5860  0.4873 -1.3339
  971MOL0     H28171   4.005   1.904   4.792 -0.8570 -0.1166 -0.5375
  971MOL0     H28172   4.066   2.048   4.989  0.4620 -1.9176  0.6050
  972MOL0     O28173   3.122  10.900   6.519  0.6558 -0.6011 -0.2011
  972MOL0     C28174   3.059  10.961   6.610 -0.5128  0.5431 -0.5131
  972MOL0     O28175   3.121  11.059   6.688  0.0023  0.5171  0.4131
  972MOL0     C28176   3.255  11.109   6.661  0.5909  0.8447 -0.2577
  972MOL0     C28177   3.280  11.239   6.712 -0.5859  0.4986 -0.4645
  972MOL0     C28178   3.404  11.291   6.697  0.8371 -0.6677 -0.3169
  972MOL0     C28179   3.509  11.219   6.634 -0.7079 -0.1987 -0.8887
  972MOL0     O28180   3.642  11.267   6.600  0.2473  0.0905  0.0055
  972MOL0     C28181   3.672  11.400   6.635 -0.8365 -0.0767 -0.1049
  972MOL0     C28182   3.786  11.450   6.542  0.6486 -0.1208  0.1312
  972MOL0     C28183   3.822  11.603   6.550  0.7826 -1.0155  0.6535
  972MOL0     C28184   3.931  11.665   6.459 -0.2383 -0.0473  0.5945
  972MOL0     C28185   3.863  11.765   6.360  0.7933  0.2853  0.0835
  972MOL0     C28186   3.951  11.801   6.246 -0.1311 -0.1180 -0.2229
  972MOL0     C28187   3.891  11.899   6.147  0.0299 -0.6417 -0.0871
  972MOL0     C28188   3.847  12.041   6.193 -1.2732  0.0591 -0.4295
  972MOL0     N28189   3.950  12.119   6.273  1.0680  0.1319  0.0019
  972MOL0     C28190   4.074  12.158   6.243  0.2139 -0.7818 -0.1379
  972MOL0     C28191   4.122  12.213   6.353 -0.2001 -0.2258 -0.6527
  972MOL0     C28192   4.252  12.282   6.351 -0.6380 -0.1170  0.0848
  972MOL0     C28193   4.378  12.222   6.266  0.5662 -0.3159  0.5420
  972MOL0     C28194   4.512  12.278   6.316  0.6771 -0.5880  0.5365
  972MOL0     C28195   4.559  12.205   6.433  1.0423 -0.8069  0.0673
  972MOL0     O28196   4.616  12.086   6.395  0.0765  0.5270  0.4163
  972MOL0     C28197   4.748  12.073   6.366  1.0597 -0.9955 -0.4563
  972MOL0     C28198   4.810  11.959   6.396  0.4552 -0.6442  0.6417
  972MOL0     C28199   4.950  11.941   6.375 -0.4627 -0.0564 -0.2774
  972MOL0     C28200   5.027  12.048   6.330 -0.1020  0.3220  0.5504
  972MOL0     C28201   5.174  12.033   6.300 -0.0368 -0.1910  0.9840
  972MOL0     O28202   5.230  11.913   6.331 -0.2390  0.7526  0.1573
  972MOL0     C28203   5.368  11.912   6.296  0.4634 -0.4963  0.0530
  972MOL0     C28204   5.421  11.890   6.168  0.1123 -0.3685  0.0104
  972MOL0     C28205   5.560  11.889   6.147  1.0941 -0.0450 -1.0347
  972MOL0     C28206   5.652  11.914   6.251  0.0272 -0.4266  0.5091
  972MOL0     O28207   5.789  11.912   6.234 -1.3800 -0.7291 -0.1663
  972MOL0     C28208   5.853  11.819   6.145 -0.6980  0.2428  0.3984
  972MOL0     C28209   5.963  11.903   6.079  0.4375  0.7086 -0.2031
  972MOL0     C28210   6.096  11.880   6.150 -0.1602  1.4875  0.9165
  972MOL0     C28211   6.194  11.989   6.119 -0.1070  0.1501  0.3657
  972MOL0     C28212   6.328  11.955   6.177  0.2990 -1.5142 -0.3019
  972MOL0     C28213   6.420  12.075   6.169 -0.7330 -0.7963 -0.5702
  972MOL0     C28214   6.566  12.061   6.205  0.2837  0.2633 -0.1623
  972MOL0     C28215   6.640  11.950   6.133 -0.2358 -0.3270  0.4166
  972MOL0    Cl28216   6.808  11.964   6.166 -0.1162 -0.2271 -0.3245
  972MOL0     C28217   5.601  11.953   6.377 -0.0557  0.6973  1.4319
  972MOL0     C28218   5.465  11.939   6.394  0.4133 -0.4306 -0.3203
  972MOL0     O28219   5.242  12.138   6.267 -0.8729 -0.6004  1.2476
  972MOL0     C28220   4.962  12.158   6.276  0.1270  0.1435  0.0585
  972MOL0     C28221   4.824  12.173   6.297  0.2931 -0.4061 -0.8631
  972MOL0     N28222   4.020  12.232   6.440 -0.3784 -0.1865  0.2184
  972MOL0     N28223   3.918  12.176   6.391 -0.5216  0.7678  1.1822
  972MOL0     C28224   3.485  11.093   6.586  0.0228  0.0436  0.5650
  972MOL0     C28225   3.362  11.038   6.606  0.8473  0.1716  1.1361
  972MOL0     C28226   2.920  10.925   6.641 -0.5206  1.4761  0.2013
  972MOL0     C28227   2.859  10.822   6.569  0.8134  0.4291 -0.7876
  972MOL0     C28228   2.722  10.802   6.601 -0.3329  0.6504 -0.8214
  972MOL0     C28229   2.660  10.883   6.691  0.4171  0.1203  0.1550
  972MOL0     O28230   2.526  10.869   6.700 -0.1617 -1.0517 -0.1749
  972MOL0     C28231   2.442  10.981   6.751  0.0118 -0.3159  0.2265
  972MOL0     C28232   2.308  10.968   6.685  0.1676 -0.2753 -0.0418
  972MOL0     C28233   2.192  11.067   6.719  0.6458  0.0718  0.3086
  972MOL0     C28234   2.152  11.073   6.867  0.4655 -0.5291 -0.3422
  972MOL0     C28235   2.009  11.092   6.897  0.0131  0.6577 -1.3305
  972MOL0     C28236   1.892  11.113   6.912 -0.4614  1.4194  0.1446
  972MOL0     C28237   2.726  10.978   6.781  0.2422 -0.0656  0.1800
  972MOL0     C28238   2.851  10.998   6.741 -0.0400  0.4727 -0.0864
  972MOL0     H28239   3.208  11.300   6.766  0.3236  2.1648 -1.0496
  972MOL0     H28240   3.414  11.397   6.714  3.1983 -0.9119  0.1258
  972MOL0     H28241   3.704  11.407   6.739  1.3545  1.4253 -0.8094
  972MOL0     H28242   3.581  11.459   6.622  0.6877  1.8363 -3.2913
  972MOL0     H28243   3.758  11.425   6.439  3.5510 -1.0759 -0.5254
  972MOL0     H28244   3.880  11.396   6.559  0.3674 -0.6957 -0.1186
  972MOL0     H28245   3.846  11.627   6.654 -2.5576 -1.0661  1.5640
  972MOL0     H28246   3.734  11.664   6.526  2.1912  0.8461  0.0657
  972MOL0     H28247   3.990  11.731   6.524 -0.1292 -0.5353  1.0021
  972MOL0     H28248   3.986  11.581   6.415 -0.7711  0.0939 -0.3578
  972MOL0     H28249   3.835  11.852   6.420  3.2075 -0.7598  2.9810
  972MOL0     H28250   3.773  11.716   6.321  0.6427  0.1360  0.6070
  972MOL0     H28251   3.980  11.706   6.200 -0.9594 -1.2115  1.4403
  972MOL0     H28252   4.038  11.853   6.288 -1.0010  0.2576  1.1629
  972MOL0     H28253   3.956  11.935   6.066 -2.6400  2.8071 -0.9203
  972MOL0     H28254   3.808  11.850   6.095 -0.0526 -0.9364  0.3199
  972MOL0     H28255   3.759  12.051   6.258 -0.5082  1.5829  0.4272
  972MOL0     H28256   3.817  12.095   6.103 -0.7280  1.9925  0.4944
  972MOL0     H28257   4.132  12.144   6.152  0.2734 -0.9442 -0.0740
  972MOL0     H28258   4.293  12.278   6.452  0.1294  1.8631 -0.0968
  972MOL0     H28259   4.244  12.383   6.309  1.7323  0.3716  0.6427
  972MOL0     H28260   4.363  12.246   6.160 -0.7641 -0.8912  0.5841
  972MOL0     H28261   4.384  12.114   6.281 -0.2996 -0.2035  1.8046
  972MOL0     H28262   4.586  12.274   6.236  1.4095  1.8790  1.0247
  972MOL0     H28263   4.508  12.386   6.333  4.7452  0.5250 -3.7526
  972MOL0     H28264   4.480  12.172   6.501  0.7247 -1.9802 -0.8458
  972MOL0     H28265   4.630  12.276   6.476  2.9075 -3.5665  1.8445
  972MOL0     H28266   4.735  11.889   6.431 -2.8572  2.6666  0.7691
  972MOL0     H28267   5.010  11.850   6.382  0.0562  0.0603 -2.6297
  972MOL0     H28268   5.349  11.870   6.089 -0.0801 -1.4223  0.4406
  972MOL0     H28269   5.592  11.862   6.047  2.1927 -0.7877 -0.5005
  972MOL0     H28270   5.788  11.786   6.063 -0.0667  1.3791 -0.5858
  972MOL0     H28271   5.882  11.734   6.207 -0.5336  0.2112  0.2791
  972MOL0     H28272   5.925  12.005   6.068 -2.1650 -0.0729  0.6599
  972MOL0     H28273   5.977  11.873   5.975  0.9798 -1.2152  0.3862
  972MOL0     H28274   6.133  11.784   6.113 -0.2138  1.7048  0.2741
  972MOL0     H28275   6.072  11.877   6.256 -0.2501 -2.6398  0.9698
  972MOL0     H28276   6.197  11.990   6.009 -0.3861  0.9772  0.3598
  972MOL0     H28277   6.144  12.078   6.158 -1.0322 -0.3094  0.2752
  972MOL0     H28278   6.365  11.870   6.118  0.3221 -0.6804 -1.5198
  972MOL0     H28279   6.314  11.934   6.284 -0.2411 -2.4556 -0.5445
  972MOL0     H28280   6.388  12.145   6.247 -0.6221 -2.6272  1.2214
  972MOL0     H28281   6.400  12.112   6.069 -3.6828 -3.4513 -1.1145
  972MOL0     H28282   6.620  12.154   6.184  1.7539 -0.8582 -1.5896
  972MOL0     H28283   6.569  12.047   6.313 -0.0333  2.1978  0.1446
  972MOL0     H28284   6.621  11.972   6.027  1.8370 -3.3259 -0.7213
  972MOL0     H28285   6.601  11.850   6.157 -0.0066 -0.3709  0.6099
  972MOL0     H28286   5.678  11.976   6.450  2.5758 -0.9564 -0.5936
  972MOL0     H28287   5.430  11.954   6.495 -1.3903 -0.9742 -0.8271
  972MOL0     H28288   5.022  12.238   6.232  1.0340 -0.8095 -0.4727
  972MOL0     H28289   4.779  12.271   6.286 -2.2161 -1.4748 -0.8178
  972MOL0     H28290   3.561  11.034   6.535  1.6139  0.8195  1.9391
  972MOL0     H28291   3.355  10.933   6.578 -1.9863  0.7972 -0.9427
  972MOL0     H28292   2.910  10.760   6.495  2.0988  2.5189 -1.7464
  972MOL0     H28293   2.656  10.729   6.554 -0.2871  0.6866 -0.9409
  972MOL0     H28294   2.484  11.079   6.725  3.0909 -0.6688  3.1234
  972MOL0     H28295   2.423  10.975   6.859 -0.3068  1.5126  0.3058
  972MOL0     H28296   2.329  10.975   6.578 -0.6578 -3.6945 -0.5319
  972MOL0     H28297   2.266  10.870   6.707 -2.1465  0.8954  1.0826
  972MOL0     H28298   2.106  11.037   6.658  1.4444 -2.1508  0.1872
  972MOL0     H28299   2.213  11.171   6.693 -1.2570 -0.1988 -2.8846
  972MOL0     H28300   2.179  10.978   6.914 -2.2820 -0.9974  0.4855
  972MOL0     H28301   2.203  11.155   6.919  0.6215 -1.4168  0.9560
  972MOL0     H28302   1.786  11.117   6.931  0.0039  1.6462  3.3211
  972MOL0     H28303   2.674  11.046   6.847  0.2041 -0.8134  0.9377
  972MOL0     H28304   2.916  11.073   6.785  3.6970 -1.4405 -1.8255
  973MOL0     O28305   4.233   1.073   4.727 -0.8226  0.4884  0.4848
  973MOL0     C28306   4.129   1.036   4.657 -0.3899 -0.6525  0.6960
  973MOL0     O28307   4.017   0.996   4.711  0.4473  0.0695 -0.1187
  973MOL0     C28308   4.012   0.989   4.851 -0.1157  0.8838 -0.1554
  973MOL0     C28309   4.017   0.873   4.921 -0.7304 -0.8799 -0.5103
  973MOL0     C28310   4.019   0.870   5.067  0.2442 -0.8814 -0.2136
  973MOL0     C28311   4.010   0.995   5.132 -1.4828  0.3364 -0.4193
  973MOL0     O28312   4.021   1.002   5.266  0.8524  0.4824  0.1927
  973MOL0     C28313   4.053   0.884   5.348 -0.4920  0.7378  0.5003
  973MOL0     C28314   3.920   0.805   5.384 -0.9385  0.1833 -0.6543
  973MOL0     C28315   3.811   0.888   5.452  0.3581  0.3804 -0.4236
  973MOL0     C28316   3.691   0.801   5.471 -0.6817  0.3316 -0.1659
  973MOL0     C28317   3.588   0.846   5.571  0.5128 -0.0679  0.2350
  973MOL0     C28318   3.474   0.748   5.566  0.3454 -0.6828  0.8410
  973MOL0     C28319   3.355   0.820   5.638  0.5210  0.1362  0.0681
  973MOL0     C28320   3.237   0.723   5.650 -0.0013  0.7690 -0.1673
  973MOL0     N28321   3.123   0.786   5.726 -0.0094  0.5461  0.1334
  973MOL0     C28322   3.011   0.857   5.666 -0.6122  0.3345  0.2099
  973MOL0     C28323   2.906   0.871   5.753 -0.4525 -0.4922  0.1590
  973MOL0     C28324   2.773   0.919   5.729  0.3057  0.3704  0.8789
  973MOL0     C28325   2.682   0.799   5.702 -0.2090  0.8956  1.2991
  973MOL0     C28326   2.542   0.829   5.727 -0.2101 -0.2139 -0.0268
  973MOL0     C28327   2.447   0.715   5.769  0.1764  0.0502  0.2260
  973MOL0     O28328   2.432   0.612   5.669  0.7074 -0.4088  0.1511
  973MOL0     C28329   2.307   0.605   5.608 -0.6109  0.4504  0.0591
  973MOL0     C28330   2.195   0.568   5.685 -0.0801  0.4085  0.7620
  973MOL0     C28331   2.076   0.538   5.618 -0.2061 -0.9505  0.7523
  973MOL0     C28332   2.057   0.562   5.479 -1.0084  0.4375 -0.0892
  973MOL0     C28333   1.924   0.559   5.428  0.3389 -0.1571  0.3202
  973MOL0     O28334   1.819   0.564   5.522  0.2407 -0.0939 -0.1221
  973MOL0     C28335   1.693   0.554   5.465 -0.4057 -1.1539  0.3232
  973MOL0     C28336   1.640   0.424   5.457  0.2621 -0.4707  0.0689
  973MOL0     C28337   1.506   0.414   5.419 -0.8628 -0.1207  0.0199
  973MOL0     C28338   1.433   0.524   5.375 -0.7007  0.6267  0.1613
  973MOL0     O28339   1.309   0.493   5.323  0.8081 -0.3960  0.3033
  973MOL0     C28340   1.235   0.594   5.254 -0.0585  1.3606 -0.6542
  973MOL0     C28341   1.151   0.673   5.361 -0.6354  0.5077 -0.6924
  973MOL0     C28342   1.052   0.568   5.435  0.2144 -1.3343 -0.1038
  973MOL0     C28343   0.976   0.639   5.544 -0.3523  0.4302 -1.2547
  973MOL0     C28344   0.879   0.747   5.501  0.0347  0.3706  0.4795
  973MOL0     C28345   0.755   0.755   5.599  0.1759  0.3612  0.5275
  973MOL0     C28346   0.781   0.843   5.721 -0.2589 -0.2644  0.3621
  973MOL0     C28347   0.654   0.877   5.797 -0.3177  0.2116  0.1335
  973MOL0    Cl28348   0.540   0.735   5.814 -0.1655 -0.3766 -0.2784
  973MOL0     C28349   1.492   0.651   5.384  0.0578 -0.5284 -0.3918
  973MOL0     C28350   1.616   0.673   5.441 -0.6977 -0.6212 -0.4827
  973MOL0     O28351   1.908   0.546   5.306  0.0929  0.6197 -0.0399
  973MOL0     C28352   2.173   0.589   5.408 -0.1403 -0.3922 -0.4633
  973MOL0     C28353   2.300   0.617   5.464  0.3704 -0.5885 -0.6573
  973MOL0     N28354   2.950   0.786   5.862  0.6135  0.0782  0.2174
  973MOL0     N28355   3.066   0.738   5.842 -1.0136 -0.0363  0.9232
  973MOL0     C28356   3.992   1.112   5.056  0.0653  0.4815  0.5869
  973MOL0     C28357   3.995   1.112   4.914 -0.5659 -0.2804  0.0929
  973MOL0     C28358   4.139   1.046   4.505 -0.0259 -0.3562  0.0079
  973MOL0     C28359   4.027   1.040   4.426 -0.1663 -1.1269 -0.5040
  973MOL0     C28360   4.033   1.064   4.287  0.7148 -0.3234  0.0513
  973MOL0     C28361   4.159   1.079   4.228 -0.0832  0.0032  0.1357
  973MOL0     O28362   4.156   1.107   4.093  0.0052 -0.2713 -0.2339
  973MOL0     C28363   4.288   1.116   4.031  0.1865  0.0592 -0.0485
  973MOL0     C28364   4.325   1.260   4.003 -0.5346  0.2363  0.1848
  973MOL0     C28365   4.445   1.262   3.915 -0.2947 -0.9901  0.3634
  973MOL0     C28366   4.496   1.403   3.877  0.4799  0.3795  0.0709
  973MOL0     C28367   4.418   1.488   3.788 -0.1795  0.3360 -1.0453
  973MOL0     C28368   4.355   1.576   3.727  0.1287  0.5343 -0.6410
  973MOL0     C28369   4.273   1.096   4.312  0.2446  0.3608 -0.5248
  973MOL0     C28370   4.262   1.075   4.446  0.3291 -0.2786 -0.3969
  973MOL0     H28371   4.027   0.790   4.851 -3.3003 -0.7432 -1.1464
  973MOL0     H28372   4.033   0.774   5.116  0.4181 -1.5588 -1.5465
  973MOL0     H28373   4.099   0.917   5.441 -0.2612  0.7930  0.3666
  973MOL0     H28374   4.125   0.818   5.299 -2.0877  0.9388 -2.3225
  973MOL0     H28375   3.949   0.718   5.444 -1.2147 -0.8010 -1.8924
  973MOL0     H28376   3.875   0.753   5.299  0.3717 -1.9269 -0.1399
  973MOL0     H28377   3.782   0.966   5.380 -0.5422 -1.5556 -2.2837
  973MOL0     H28378   3.839   0.932   5.548 -0.9214 -1.3492  0.8088
  973MOL0     H28379   3.649   0.784   5.372 -0.3944  0.0617 -0.2404
  973MOL0     H28380   3.724   0.703   5.505 -0.0832  0.4459 -0.4090
  973MOL0     H28381   3.543   0.939   5.535 -0.7594 -0.8360 -0.2257
  973MOL0     H28382   3.624   0.840   5.674 -1.4675 -3.2561  0.8712
  973MOL0     H28383   3.504   0.655   5.614  2.8420  0.8440  2.5083
  973MOL0     H28384   3.444   0.726   5.464  2.3054 -2.3946  0.5671
  973MOL0     H28385   3.382   0.842   5.741 -3.0429 -0.6044  1.3180
  973MOL0     H28386   3.320   0.913   5.591 -0.1134  1.0067  2.1398
  973MOL0     H28387   3.267   0.622   5.679  0.4063  0.2277 -2.2902
  973MOL0     H28388   3.215   0.709   5.543  1.7949  2.1262 -0.7567
  973MOL0     H28389   3.009   0.893   5.563 -2.0802  0.8891  0.4099
  973MOL0     H28390   2.784   0.967   5.631  0.1269 -0.3902  0.4795
  973MOL0     H28391   2.741   0.982   5.813  2.6748  1.8777  0.7542
  973MOL0     H28392   2.712   0.718   5.770  3.7566  2.0765  1.2194
  973MOL0     H28393   2.696   0.768   5.599  0.9594  1.8466  1.1570
  973MOL0     H28394   2.526   0.900   5.809 -0.8075 -0.2298 -0.1282
  973MOL0     H28395   2.508   0.882   5.638 -0.8657 -2.0539 -0.9236
  973MOL0     H28396   2.350   0.760   5.793 -2.4564 -3.0671 -3.3891
  973MOL0     H28397   2.503   0.671   5.852  1.7175  0.8813 -0.3294
  973MOL0     H28398   2.201   0.550   5.792  1.5410 -0.3940  0.5686
  973MOL0     H28399   1.999   0.506   5.687  0.9593  0.3606  2.7354
  973MOL0     H28400   1.693   0.335   5.489  0.6243 -0.6519 -0.9678
  973MOL0     H28401   1.462   0.315   5.408 -1.1797  0.2783 -3.0418
  973MOL0     H28402   1.163   0.545   5.188 -2.5050  1.5736  1.6820
  973MOL0     H28403   1.302   0.647   5.185  0.8351  2.3140  0.8724
  973MOL0     H28404   1.109   0.758   5.307  0.5278  2.3331  1.1243
  973MOL0     H28405   1.224   0.713   5.432 -0.5657  2.5258 -1.8215
  973MOL0     H28406   1.108   0.488   5.484  0.1056 -0.5764  1.3090
  973MOL0     H28407   0.975   0.524   5.372  0.1762 -0.5514 -0.6112
  973MOL0     H28408   0.915   0.561   5.591  1.5919 -0.0576  0.6291
  973MOL0     H28409   1.045   0.690   5.612  0.5956 -2.0029 -0.2632
  973MOL0     H28410   0.847   0.716   5.401  3.5039 -0.5629 -0.4624
  973MOL0     H28411   0.932   0.841   5.487 -0.7851  0.6716 -0.7353
  973MOL0     H28412   0.701   0.660   5.601 -2.8592  1.9503  0.2669
  973MOL0     H28413   0.679   0.818   5.552  1.8505  1.9255 -0.1833
  973MOL0     H28414   0.853   0.785   5.780 -3.1783 -4.9173 -0.1366
  973MOL0     H28415   0.824   0.938   5.688  1.3829 -1.9167 -2.6966
  973MOL0     H28416   0.602   0.956   5.742  3.3163  2.2339 -0.6800
  973MOL0     H28417   0.678   0.921   5.895 -0.1014  0.8269 -0.1931
  973MOL0     H28418   1.431   0.733   5.347 -2.0946 -1.3726  1.0974
  973MOL0     H28419   1.672   0.766   5.449  1.1642 -1.6302 -1.1669
  973MOL0     H28420   2.152   0.602   5.302 -0.3792 -0.7870 -0.4669
  973MOL0     H28421   2.391   0.626   5.406  1.2790  2.9685  1.0305
  973MOL0     H28422   3.965   1.192   5.124 -1.7598  0.5995 -0.2194
  973MOL0     H28423   3.980   1.203   4.857  4.1514 -0.1118 -1.2894
  973MOL0     H28424   3.931   1.026   4.475 -0.2756  0.6855 -0.1378
  973MOL0     H28425   3.942   1.053   4.229 -0.1797 -0.6026  1.4558
  973MOL0     H28426   4.295   1.060   3.937  0.6843 -0.6491  0.3966
  973MOL0     H28427   4.368   1.064   4.085  1.7323  0.3051 -2.0153
  973MOL0     H28428   4.240   1.304   3.949  0.1649  0.8181 -0.4640
  973MOL0     H28429   4.345   1.308   4.099 -2.8535  0.3677  0.6672
  973MOL0     H28430   4.432   1.203   3.825 -2.2476  0.0904 -0.1092
  973MOL0     H28431   4.528   1.207   3.961 -0.6851 -3.1265 -1.3719
  973MOL0     H28432   4.506   1.474   3.959  0.1537  1.5355 -0.8547
  973MOL0     H28433   4.593   1.387   3.828  0.0842  0.5354 -0.7854
  973MOL0     H28434   4.289   1.651   3.689  1.2448  1.5104 -0.7015
  973MOL0     H28435   4.370   1.132   4.280  1.3699 -0.7299  1.4194
  973MOL0     H28436   4.349   1.083   4.510  1.9717 -0.5168 -2.4982
  974MOL0     O28437   6.153   3.097   7.603 -0.0835  0.5969 -0.0705
  974MOL0     C28438   6.140   3.172   7.510  0.7569 -1.2607  0.4352
  974MOL0     O28439   6.216   3.184   7.403  0.0900  0.0742 -0.0096
  974MOL0     C28440   6.305   3.088   7.359 -0.7466 -0.0499  0.3762
  974MOL0     C28441   6.301   2.951   7.389  0.0949  0.2189  0.4919
  974MOL0     C28442   6.407   2.865   7.352  0.1952 -1.3069 -0.4811
  974MOL0     C28443   6.506   2.911   7.268  0.4512 -0.9494 -0.1859
  974MOL0     O28444   6.592   2.833   7.196  0.0228 -0.7489 -0.1733
  974MOL0     C28445   6.565   2.698   7.167 -0.8963  0.6564 -0.1427
  974MOL0     C28446   6.689   2.652   7.101 -0.6378 -0.4458 -0.2323
  974MOL0     C28447   6.791   2.602   7.211 -0.0393  0.1759 -0.3303
  974MOL0     C28448   6.928   2.567   7.150 -0.0818 -0.0259 -0.0780
  974MOL0     C28449   6.967   2.421   7.147 -0.7551  0.0799 -0.1653
  974MOL0     C28450   6.886   2.343   7.044 -0.1058 -0.0640  0.2123
  974MOL0     C28451   6.940   2.201   7.036  0.3953  0.4610 -0.2148
  974MOL0     C28452   7.079   2.189   6.981 -0.1054  0.6027 -1.3173
  974MOL0     N28453   7.116   2.060   6.920 -0.0795 -0.3104 -0.7775
  974MOL0     C28454   7.153   1.944   6.990 -0.2039 -0.6484  0.6604
  974MOL0     C28455   7.175   1.867   6.890 -0.3208  0.7687  0.8532
  974MOL0     C28456   7.217   1.727   6.917  0.3565  0.1358  0.4902
  974MOL0     C28457   7.322   1.693   7.025  0.2710  0.3610 -0.1824
  974MOL0     C28458   7.353   1.542   7.013 -0.0299  0.1021 -0.2140
  974MOL0     C28459   7.451   1.499   7.124 -0.0591  0.4815  0.5643
  974MOL0     O28460   7.383   1.449   7.241  0.0431  0.3505 -0.4540
  974MOL0     C28461   7.461   1.406   7.346  0.8369 -1.0025 -0.0027
  974MOL0     C28462   7.398   1.403   7.469  0.5109 -0.6015  0.3682
  974MOL0     C28463   7.468   1.366   7.580 -1.1501  0.2623  0.5391
  974MOL0     C28464   7.609   1.352   7.576 -0.9975  0.0993 -0.1959
  974MOL0     C28465   7.677   1.302   7.689  0.0935 -0.0135  0.3342
  974MOL0     O28466   7.814   1.267   7.665 -0.3933  0.2863  0.7845
  974MOL0     C28467   7.884   1.209   7.767 -0.3940  0.8107 -0.1627
  974MOL0     C28468   8.014   1.258   7.783 -0.5001 -0.0850  0.5550
  974MOL0     C28469   8.092   1.207   7.886 -0.0706  0.4721 -0.5311
  974MOL0     C28470   8.044   1.108   7.974  0.3942  0.0138  0.5031
  974MOL0     O28471   8.137   1.049   8.056  0.2686 -0.9582  0.0485
  974MOL0     C28472   8.101   0.999   8.185 -0.1471 -0.4546 -0.0454
  974MOL0     C28473   8.060   0.852   8.178  0.2879  1.2668  1.0030
  974MOL0     C28474   8.176   0.758   8.191  0.5580  0.7928  0.1503
  974MOL0     C28475   8.285   0.777   8.083  0.0344 -0.5334  0.8444
  974MOL0     C28476   8.392   0.663   8.115  0.0450 -0.0694  0.3880
  974MOL0     C28477   8.492   0.652   8.003  0.5193  0.2103 -0.0056
  974MOL0     C28478   8.429   0.613   7.866 -0.0638 -0.6321 -0.5669
  974MOL0     C28479   8.508   0.522   7.764 -0.0677  0.1022  0.3649
  974MOL0    Cl28480   8.516   0.564   7.576  0.4806 -0.1603  0.1206
  974MOL0     C28481   7.914   1.070   7.965 -0.1570  0.5408 -0.7107
  974MOL0     C28482   7.833   1.116   7.858  0.5665 -0.3229 -0.2929
  974MOL0     O28483   7.618   1.298   7.801  0.6778  0.6511  0.3668
  974MOL0     C28484   7.672   1.359   7.449 -0.0068  0.2838  0.0290
  974MOL0     C28485   7.597   1.379   7.337 -0.9425 -1.1363 -0.2619
  974MOL0     N28486   7.143   1.926   6.764  1.3076  0.0414  0.2646
  974MOL0     N28487   7.103   2.041   6.788  1.2239 -0.2493 -0.6202
  974MOL0     C28488   6.521   3.049   7.242 -0.4637 -0.9427 -0.0895
  974MOL0     C28489   6.420   3.133   7.289 -0.3555 -0.7845  0.5702
  974MOL0     C28490   6.045   3.290   7.527  0.1886  0.0686 -0.4826
  974MOL0     C28491   5.934   3.292   7.613 -0.0091 -0.3974 -0.5368
  974MOL0     C28492   5.845   3.401   7.614 -0.3446 -0.0668 -0.5508
  974MOL0     C28493   5.863   3.513   7.534  0.5481  0.4279 -0.6699
  974MOL0     O28494   5.776   3.616   7.534  0.0012 -0.7196  0.1284
  974MOL0     C28495   5.688   3.630   7.646 -0.0058 -0.1293 -0.3567
  974MOL0     C28496   5.593   3.748   7.657  0.0783 -0.1633  0.6649
  974MOL0     C28497   5.650   3.891   7.641  0.4135 -0.2188  0.6074
  974MOL0     C28498   5.546   4.002   7.647 -0.2163 -0.2142  0.7914
  974MOL0     C28499   5.453   4.000   7.532 -0.0136 -0.0254  0.3641
  974MOL0     C28500   5.377   3.978   7.438  1.0506  0.6691 -0.1761
  974MOL0     C28501   5.976   3.508   7.448  0.6473 -0.4484  0.3346
  974MOL0     C28502   6.057   3.399   7.439 -0.0184  0.2706  0.5737
  974MOL0     H28503   6.222   2.909   7.451 -0.0980 -2.5570 -1.4621
  974MOL0     H28504   6.398   2.762   7.385 -1.6818 -0.6633  1.2470
  974MOL0     H28505   6.472   2.697   7.109 -2.2565  1.4410  1.9264
  974MOL0     H28506   6.545   2.639   7.257  2.0714 -3.3872 -1.8343
  974MOL0     H28507   6.722   2.729   7.031 -0.6574 -0.8919 -0.7426
  974MOL0     H28508   6.663   2.568   7.035  1.2894  0.0626 -1.7497
  974MOL0     H28509   6.749   2.517   7.265  1.9153  0.8309  2.3920
  974MOL0     H28510   6.808   2.678   7.286 -2.2429 -1.0675  1.5654
  974MOL0     H28511   6.934   2.614   7.051  0.3414 -1.3112 -0.6888
  974MOL0     H28512   7.006   2.599   7.219  1.2968 -2.2951 -0.4945
  974MOL0     H28513   6.973   2.385   7.251  2.2191  0.1179 -0.2275
  974MOL0     H28514   7.073   2.416   7.120 -0.6591 -1.3336  0.3700
  974MOL0     H28515   6.885   2.402   6.952  0.7214 -0.2648  0.0595
  974MOL0     H28516   6.783   2.329   7.078  0.5521 -1.1280  1.8445
  974MOL0     H28517   6.941   2.144   7.129  2.9795 -1.5914 -1.3796
  974MOL0     H28518   6.877   2.138   6.973  1.2602 -1.6905  0.9776
  974MOL0     H28519   7.157   2.223   7.050 -0.4050  1.8095 -1.5411
  974MOL0     H28520   7.076   2.261   6.899 -3.2919 -0.0241 -1.8818
  974MOL0     H28521   7.146   1.932   7.098 -1.5540  2.3069  1.0280
  974MOL0     H28522   7.257   1.693   6.821  2.2101 -0.1974  1.3277
  974MOL0     H28523   7.125   1.671   6.933 -0.5641  1.1928 -0.8859
  974MOL0     H28524   7.299   1.723   7.128  4.9174  3.3672  0.2939
  974MOL0     H28525   7.417   1.747   7.014  0.9627 -0.9511 -0.9416
  974MOL0     H28526   7.263   1.480   7.008 -0.4000  0.6360 -0.3188
  974MOL0     H28527   7.405   1.536   6.917  1.7153  2.0973  0.5381
  974MOL0     H28528   7.516   1.580   7.159  0.5451 -0.0117  0.5913
  974MOL0     H28529   7.519   1.424   7.083  3.1680  3.5013 -0.1286
  974MOL0     H28530   7.291   1.414   7.456  0.3618 -1.7156  0.5227
  974MOL0     H28531   7.416   1.370   7.675  0.6505 -0.4022  1.6085
  974MOL0     H28532   8.039   1.347   7.726  1.9805 -0.6734  0.5975
  974MOL0     H28533   8.196   1.230   7.909  0.8646 -2.0970 -1.7668
  974MOL0     H28534   8.019   1.060   8.224 -1.3345 -2.0467  0.0313
  974MOL0     H28535   8.187   1.014   8.251 -0.2456 -2.8825  0.7268
  974MOL0     H28536   8.011   0.830   8.083  3.3845  3.3677 -1.2823
  974MOL0     H28537   7.994   0.840   8.265  0.1337 -0.1510  0.7121
  974MOL0     H28538   8.145   0.653   8.196  1.8614  0.4481  1.9754
  974MOL0     H28539   8.220   0.761   8.291 -1.0826 -0.9800  0.9872
  974MOL0     H28540   8.265   0.780   7.975  0.8444  1.7162  0.7001
  974MOL0     H28541   8.321   0.879   8.097 -2.0979  0.1592  1.5990
  974MOL0     H28542   8.334   0.570   8.118  1.6084 -1.0410  2.0706
  974MOL0     H28543   8.437   0.677   8.213 -0.3025 -0.5545  0.6199
  974MOL0     H28544   8.562   0.573   8.034  0.9467 -1.0881 -3.7051
  974MOL0     H28545   8.547   0.744   7.979 -0.3276  0.3773 -1.4461
  974MOL0     H28546   8.338   0.555   7.883 -1.6628  1.3707 -1.8918
  974MOL0     H28547   8.396   0.702   7.812 -3.2694 -1.8082 -0.7442
  974MOL0     H28548   8.466   0.420   7.767  2.8008 -1.2100 -0.7768
  974MOL0     H28549   8.609   0.505   7.801 -0.7955  0.7085  2.7630
  974MOL0     H28550   7.880   0.995   8.036  1.3494 -0.1179 -0.6642
  974MOL0     H28551   7.734   1.075   7.842  0.4049 -1.0934  2.1918
  974MOL0     H28552   7.778   1.334   7.449 -0.4060 -1.5665  0.5849
  974MOL0     H28553   7.643   1.370   7.239  1.8988 -3.8501  1.1348
  974MOL0     H28554   6.604   3.088   7.185  0.3311  0.5710  1.9456
  974MOL0     H28555   6.433   3.237   7.259 -0.2731 -1.7574 -3.3600
  974MOL0     H28556   5.906   3.194   7.652 -0.0217 -0.4854 -0.7655
  974MOL0     H28557   5.751   3.377   7.663  0.0834 -2.0242 -0.6323
  974MOL0     H28558   5.743   3.602   7.737 -0.5133  0.7825  0.2489
  974MOL0     H28559   5.615   3.550   7.640 -0.9803  0.7876 -1.0067
  974MOL0     H28560   5.517   3.742   7.579  0.1183 -1.7435  0.7174
  974MOL0     H28561   5.538   3.747   7.751 -0.0306  3.7745  0.8125
  974MOL0     H28562   5.714   3.892   7.552  1.5370 -1.7452  1.3531
  974MOL0     H28563   5.715   3.916   7.726  0.0392  0.7187  0.6329
  974MOL0     H28564   5.487   3.994   7.739 -0.5291 -3.7608  0.4455
  974MOL0     H28565   5.608   4.092   7.642  0.7209 -0.8975 -0.8973
  974MOL0     H28566   5.325   3.940   7.352  0.0291 -1.3608  1.2699
  974MOL0     H28567   5.999   3.600   7.394 -2.1190 -2.2485 -4.5706
  974MOL0     H28568   6.130   3.406   7.359  0.4794 -0.8035  0.9241
  975MOL0     O28569   5.862   1.627   9.786  0.9486  0.0448  0.0811
  975MOL0     C28570   5.978   1.602   9.756 -0.5728 -0.3040  0.4221
  975MOL0     O28571   6.037   1.478   9.755 -0.3825 -0.1296  0.1094
  975MOL0     C28572   5.974   1.368   9.797  0.5745  0.0283  0.1231
  975MOL0     C28573   5.831   1.347   9.774 -0.7156  0.2079 -0.0370
  975MOL0     C28574   5.764   1.231   9.825 -0.3009 -0.2472  0.2267
  975MOL0     C28575   5.832   1.143   9.914  0.9749  0.0074  0.0355
  975MOL0     O28576   5.770   1.027   9.962  0.0392  0.0361  0.0960
  975MOL0     C28577   5.853   0.905   9.966 -0.7703  0.2162 -0.3351
  975MOL0     C28578   5.760   0.794   9.986  0.1569  0.2062 -0.4279
  975MOL0     C28579   5.682   0.819  10.119 -0.4397 -0.0871  1.0943
  975MOL0     C28580   5.604   0.691  10.149  0.2303  0.0895 -1.2352
  975MOL0     C28581   5.548   0.678  10.296 -0.0307  0.0197 -0.0653
  975MOL0     C28582   5.465   0.554  10.319  0.5377  0.4478 -0.5108
  975MOL0     C28583   5.312   0.555  10.281 -1.1667 -0.2937  1.1661
  975MOL0     C28584   5.245   0.420  10.315 -1.0385  0.1495  0.1675
  975MOL0     N28585   5.111   0.409  10.241 -0.3721 -0.7606 -0.3074
  975MOL0     C28586   4.987   0.440  10.289 -0.6086  0.7717 -0.2131
  975MOL0     C28587   4.909   0.406  10.193  0.2952 -0.1451  0.4273
  975MOL0     C28588   4.765   0.436  10.178  1.1954 -0.3078  0.2515
  975MOL0     C28589   4.716   0.453  10.036 -0.3560  0.5341 -0.0129
  975MOL0     C28590   4.563   0.474  10.029 -1.0415 -1.0827 -0.4220
  975MOL0     C28591   4.500   0.416   9.906  0.6931  0.2684  1.1484
  975MOL0     O28592   4.370   0.482   9.892 -0.5335  0.6258 -0.0736
  975MOL0     C28593   4.290   0.419   9.790  0.0902 -0.3843 -1.0789
  975MOL0     C28594   4.278   0.488   9.672 -0.3285  0.5721 -0.7296
  975MOL0     C28595   4.178   0.461   9.578  0.6707 -0.2166  0.2317
  975MOL0     C28596   4.102   0.335   9.592 -0.1601  0.2076  0.1803
  975MOL0     C28597   4.018   0.288   9.481  0.1513 -0.4105 -0.4749
  975MOL0     O28598   4.016   0.352   9.364  0.1175  0.1740  0.4156
  975MOL0     C28599   3.932   0.312   9.263 -0.1624 -0.1513 -0.5521
  975MOL0     C28600   3.987   0.276   9.142 -0.1535 -0.1383 -0.2072
  975MOL0     C28601   3.900   0.257   9.038 -0.0313  0.3748  0.1705
  975MOL0     C28602   3.763   0.259   9.054  1.0798 -0.0353  0.2009
  975MOL0     O28603   3.670   0.241   8.953  0.5211 -0.0467 -0.2304
  975MOL0     C28604   3.699   0.131   8.866 -0.1472 -0.2054 -0.2774
  975MOL0     C28605   3.586   0.131   8.768  0.8015 -0.0913 -0.2442
  975MOL0     C28606   3.457   0.056   8.810 -0.1094 -0.8511 -1.4122
  975MOL0     C28607   3.356   0.032   8.695  0.4130  0.1147  0.2133
  975MOL0     C28608   3.302   0.169   8.644 -0.0600 -0.3466  0.1333
  975MOL0     C28609   3.207   0.235   8.742  0.0540  1.0128 -1.0429
  975MOL0     C28610   3.186   0.380   8.704 -0.3901 -0.7030 -0.0049
  975MOL0     C28611   3.082   0.454   8.777  0.5770  0.6096  0.1470
  975MOL0    Cl28612   2.913   0.384   8.742 -0.3021 -0.1785 -0.2840
  975MOL0     C28613   3.708   0.306   9.180  0.4049  1.2321  0.5089
  975MOL0     C28614   3.798   0.324   9.286 -0.3284 -0.2222  0.4090
  975MOL0     O28615   3.954   0.182   9.505 -0.4304  0.6996 -0.4052
  975MOL0     C28616   4.120   0.269   9.712 -0.5839  0.4185 -0.0129
  975MOL0     C28617   4.212   0.311   9.808  0.7448  0.3848 -0.2290
  975MOL0     N28618   4.983   0.356  10.088  0.1189  0.0186  0.5921
  975MOL0     N28619   5.109   0.357  10.117  0.2190  0.3990 -0.3006
  975MOL0     C28620   5.967   1.167   9.935  0.0045 -0.8223  0.3360
  975MOL0     C28621   6.038   1.278   9.879 -0.7978  1.0885  0.9739
  975MOL0     C28622   6.051   1.719   9.699 -0.8985 -0.1892  0.0258
  975MOL0     C28623   5.989   1.839   9.686 -0.2194 -0.2875  1.0769
  975MOL0     C28624   6.058   1.963   9.662 -0.3752  0.4849 -0.5416
  975MOL0     C28625   6.191   1.957   9.622 -0.0028  0.2462  0.0124
  975MOL0     O28626   6.260   2.074   9.593 -0.3141  0.2497 -0.6259
  975MOL0     C28627   6.201   2.144   9.477  0.1652  0.0462 -0.2720
  975MOL0     C28628   6.183   2.290   9.533  0.2049 -0.5090 -0.2274
  975MOL0     C28629   6.314   2.354   9.576  0.6994 -0.2475 -0.4430
  975MOL0     C28630   6.410   2.377   9.456 -0.2303 -0.4618 -0.4906
  975MOL0     C28631   6.512   2.261   9.462 -0.0257  0.2920  0.5855
  975MOL0     C28632   6.592   2.170   9.474  0.3598  0.6751  0.0830
  975MOL0     C28633   6.260   1.834   9.639  1.2870 -0.7373  0.2137
  975MOL0     C28634   6.188   1.723   9.671  1.2169  0.2267 -1.1940
  975MOL0     H28635   5.775   1.420   9.717 -0.1808 -0.6550 -1.7024
  975MOL0     H28636   5.659   1.212   9.807  0.0891 -2.9736  0.4090
  975MOL0     H28637   5.917   0.908  10.055 -1.4304 -1.7631  0.2677
  975MOL0     H28638   5.900   0.893   9.868 -1.0981  2.8959 -0.8978
  975MOL0     H28639   5.820   0.703   9.993  0.8648  0.7291  0.5639
  975MOL0     H28640   5.683   0.782   9.909  0.5395 -1.6440 -0.5696
  975MOL0     H28641   5.616   0.906  10.110 -0.0226  0.0975 -0.4952
  975MOL0     H28642   5.752   0.833  10.203 -2.2799  0.6440  2.5929
  975MOL0     H28643   5.517   0.689  10.082 -1.6073 -0.2290  1.0393
  975MOL0     H28644   5.672   0.607  10.131  1.1742  0.5742 -0.0667
  975MOL0     H28645   5.489   0.761  10.335 -1.5234  0.0833 -2.2474
  975MOL0     H28646   5.642   0.681  10.353  1.9601 -0.6990 -3.0737
  975MOL0     H28647   5.481   0.537  10.426 -1.8489 -0.2714 -0.2128
  975MOL0     H28648   5.517   0.475  10.262  1.6783 -0.9845  2.3209
  975MOL0     H28649   5.270   0.643  10.331  0.8108  1.1176  0.4547
  975MOL0     H28650   5.301   0.582  10.175  0.9139 -0.5827  0.8299
  975MOL0     H28651   5.207   0.411  10.417 -2.8675 -0.2680 -0.4943
  975MOL0     H28652   5.305   0.331  10.291  1.9297  2.1155 -0.1701
  975MOL0     H28653   4.954   0.502  10.372  1.1444  1.4354  0.0368
  975MOL0     H28654   4.735   0.529  10.227 -0.2074  1.4141 -3.5366
  975MOL0     H28655   4.706   0.353  10.218 -0.8923 -0.3906 -2.6866
  975MOL0     H28656   4.737   0.357   9.987 -0.4038  0.9794 -0.9105
  975MOL0     H28657   4.777   0.527   9.985 -0.7629  0.8458 -0.0454
  975MOL0     H28658   4.517   0.454  10.126  0.8072  1.8735  1.2303
  975MOL0     H28659   4.551   0.582  10.016  0.0868 -0.9972 -0.8905
  975MOL0     H28660   4.507   0.309   9.927 -2.9906  0.1067  2.1784
  975MOL0     H28661   4.566   0.434   9.821 -1.9674  4.7304 -0.2603
  975MOL0     H28662   4.338   0.578   9.662  0.0526  0.1858 -2.1501
  975MOL0     H28663   4.171   0.530   9.494  1.7755  0.1912  0.4501
  975MOL0     H28664   4.095   0.279   9.136 -0.0056  3.0845  1.7354
  975MOL0     H28665   3.935   0.247   8.935  0.6647 -1.5168  0.5433
  975MOL0     H28666   3.710   0.041   8.927  1.9125 -1.6169 -2.5407
  975MOL0     H28667   3.787   0.141   8.801 -1.6408 -1.6424 -2.6670
  975MOL0     H28668   3.628   0.087   8.677  0.4358  2.7961 -1.9227
  975MOL0     H28669   3.562   0.234   8.742 -2.5648 -0.4950  0.7958
  975MOL0     H28670   3.421   0.110   8.898  4.3123 -0.3751  0.3412
  975MOL0     H28671   3.489  -0.046   8.834  0.8189 -0.1328  0.6165
  975MOL0     H28672   3.395  -0.018   8.605  0.7129 -0.5540  0.7077
  975MOL0     H28673   3.271  -0.026   8.732 -0.4914  1.6837  0.6935
  975MOL0     H28674   3.248   0.158   8.549  2.3107  1.5313 -1.5541
  975MOL0     H28675   3.375   0.243   8.610  0.1674 -1.9433 -3.3896
  975MOL0     H28676   3.243   0.225   8.845  3.0731 -0.1267 -2.0934
  975MOL0     H28677   3.109   0.190   8.726 -1.1784  3.4151 -0.7800
  975MOL0     H28678   3.287   0.423   8.712 -1.3395  2.0783 -1.5431
  975MOL0     H28679   3.156   0.397   8.601 -1.0271  2.4953  0.6027
  975MOL0     H28680   3.090   0.560   8.753  1.5387  0.8974  1.6082
  975MOL0     H28681   3.106   0.446   8.883  0.3535 -0.6028  0.1165
  975MOL0     H28682   3.604   0.336   9.181  0.5581  1.9171 -1.1629
  975MOL0     H28683   3.768   0.363   9.383  0.0797 -0.7496  0.7498
  975MOL0     H28684   4.068   0.176   9.733  1.7244 -1.2958 -1.4191
  975MOL0     H28685   4.216   0.256   9.901  1.1756 -0.5403 -0.7759
  975MOL0     H28686   6.029   1.102   9.996  0.7902  1.8560  2.5803
  975MOL0     H28687   6.144   1.296   9.865 -1.0210  0.9166 -1.4002
  975MOL0     H28688   5.884   1.843   9.711 -0.6401 -3.5412  0.2791
  975MOL0     H28689   5.987   2.045   9.663 -2.1046 -0.9149  1.8376
  975MOL0     H28690   6.105   2.100   9.449 -0.3105  1.4398 -0.9456
  975MOL0     H28691   6.244   2.147   9.377 -1.0573  2.3234 -0.7962
  975MOL0     H28692   6.141   2.353   9.454  0.8546  0.0739 -0.1153
  975MOL0     H28693   6.119   2.286   9.621 -0.9026 -3.5248 -1.0262
  975MOL0     H28694   6.360   2.289   9.652 -0.7504 -0.3529  0.3650
  975MOL0     H28695   6.281   2.447   9.621  2.5376  0.0970  0.2870
  975MOL0     H28696   6.355   2.366   9.362 -1.7873 -1.5183  0.5121
  975MOL0     H28697   6.460   2.474   9.462 -4.4812  1.8530  1.5653
  975MOL0     H28698   6.653   2.085   9.455 -3.5715 -2.1997 -0.8746
  975MOL0     H28699   6.367   1.826   9.623  1.4634 -1.1142  1.4750
  975MOL0     H28700   6.249   1.639   9.702 -1.2335 -1.6569 -1.1648
  976MOL0     O28701   1.597   9.837   4.315 -0.0272 -0.3744  0.1580
  976MOL0     C28702   1.644   9.844   4.428  0.0185  0.3593  0.0225
  976MOL0     O28703   1.572   9.898   4.533 -1.6108 -0.8066  0.4417
  976MOL0     C28704   1.454   9.962   4.509 -0.2208  0.4997 -0.7302
  976MOL0     C28705   1.354   9.924   4.598 -0.5592 -0.7583 -1.3211
  976MOL0     C28706   1.229   9.993   4.590 -1.1687 -0.8093 -0.0723
  976MOL0     C28707   1.198  10.082   4.488  0.7319 -0.3710 -0.5518
  976MOL0     O28708   1.075  10.137   4.465 -0.4487  0.1930 -0.1179
  976MOL0     C28709   0.957  10.078   4.523 -0.4808 -1.2700 -0.1714
  976MOL0     C28710   0.840  10.172   4.507 -0.7424 -0.1594  0.2017
  976MOL0     C28711   0.705  10.100   4.543 -1.0427 -0.3383 -0.2694
  976MOL0     C28712   0.583  10.196   4.541 -0.0628  0.4916  0.3450
  976MOL0     C28713   0.446  10.119   4.565  0.1549 -0.6499  0.6953
  976MOL0     C28714   0.431  10.027   4.688  0.9698 -0.2877 -0.8883
  976MOL0     C28715   0.441  10.100   4.823 -0.2663  1.1907  0.1454
  976MOL0     C28716   0.307  10.148   4.862 -0.4498  0.2964 -0.0790
  976MOL0     N28717   0.311  10.246   4.969 -0.5533 -0.8899  0.5543
  976MOL0     C28718   0.355  10.381   4.965  0.3038 -0.2362  0.5700
  976MOL0     C28719   0.341  10.425   5.101 -0.1859 -0.0236 -0.0897
  976MOL0     C28720   0.363  10.560   5.145  0.2638 -0.3467 -0.1073
  976MOL0     C28721   0.511  10.581   5.173  0.1829 -0.0330 -0.0879
  976MOL0     C28722   0.549  10.731   5.185  0.4356 -0.3282 -0.1087
  976MOL0     C28723   0.448  10.808   5.267 -0.1406 -0.5617 -0.4125
  976MOL0     O28724   0.463  10.765   5.401  0.3488  0.0312 -0.3180
  976MOL0     C28725   0.357  10.766   5.488  0.1764 -0.8947 -0.7745
  976MOL0     C28726   0.385  10.739   5.623 -0.2986 -0.2184  0.1777
  976MOL0     C28727   0.286  10.724   5.724 -0.8961 -0.6216 -1.2160
  976MOL0     C28728   0.150  10.742   5.680 -0.9916 -0.3998 -0.7896
  976MOL0     C28729   0.046  10.746   5.795 -0.7982 -0.0636 -1.1368
  976MOL0     O28730   0.082  10.747   5.933 -0.3806  0.4671  0.7236
  976MOL0     C28731  -0.012  10.783   6.026 -0.5678  0.2411  0.6101
  976MOL0     C28732  -0.042  10.910   6.045  0.7153 -0.8905 -1.1757
  976MOL0     C28733  -0.117  10.946   6.155  0.0159 -0.4667  0.1757
  976MOL0     C28734  -0.175  10.853   6.242  0.1967 -0.1152  1.2765
  976MOL0     O28735  -0.256  10.893   6.351  0.7154  0.0140  0.6444
  976MOL0     C28736  -0.307  11.035   6.373  0.4065 -0.0623  1.2807
  976MOL0     C28737  -0.459  11.046   6.396 -1.0601  0.8853  0.1383
  976MOL0     C28738  -0.520  10.909   6.352  0.5634 -0.3144  0.7504
  976MOL0     C28739  -0.494  10.790   6.454  1.0696 -0.3602  0.2908
  976MOL0     C28740  -0.567  10.813   6.591 -0.4207 -0.0513 -0.2596
  976MOL0     C28741  -0.696  10.898   6.599  0.0118  0.2380  0.5022
  976MOL0     C28742  -0.780  10.864   6.729 -0.0859  0.3657 -0.5465
  976MOL0     C28743  -0.745  10.956   6.845  0.2508  0.5738  0.7806
  976MOL0    Cl28744  -0.841  10.933   6.992 -0.0948  0.1434 -0.6446
  976MOL0     C28745  -0.154  10.717   6.215  0.3622 -0.5109 -0.5909
  976MOL0     C28746  -0.068  10.675   6.109 -0.7118 -0.2782  0.1312
  976MOL0     O28747  -0.071  10.749   5.752  0.3834  0.0005  0.1072
  976MOL0     C28748   0.116  10.761   5.547 -0.1202  0.2832  0.6301
  976MOL0     C28749   0.218  10.769   5.456  0.3709  0.1578 -0.7315
  976MOL0     N28750   0.288  10.325   5.170  0.4708  0.3135 -0.1849
  976MOL0     N28751   0.265  10.219   5.098  0.6003  0.1232 -0.2615
  976MOL0     C28752   1.300  10.114   4.403 -0.1850  0.2095  1.0879
  976MOL0     C28753   1.425  10.053   4.413  0.3385  0.4395 -0.5614
  976MOL0     C28754   1.791   9.812   4.444  0.1285  0.2009 -0.5331
  976MOL0     C28755   1.863   9.870   4.538 -0.6330  0.7349 -0.2986
  976MOL0     C28756   1.989   9.818   4.566 -0.5484  0.1665  0.4288
  976MOL0     C28757   2.051   9.708   4.497  0.6229  1.0427 -0.3672
  976MOL0     O28758   2.166   9.656   4.552  0.1446  0.0950 -0.7873
  976MOL0     C28759   2.222   9.535   4.491 -0.8137  0.5578 -0.8218
  976MOL0     C28760   2.295   9.453   4.604 -0.2506 -0.8928  0.2096
  976MOL0     C28761   2.370   9.333   4.548  0.6886 -0.1029  0.8083
  976MOL0     C28762   2.469   9.264   4.648 -0.2469  0.5380 -0.7034
  976MOL0     C28763   2.415   9.154   4.733  0.1214 -0.1817  0.4899
  976MOL0     C28764   2.362   9.055   4.784 -0.3919  0.6260  0.2161
  976MOL0     C28765   1.972   9.655   4.390 -0.4673 -0.4221 -0.1732
  976MOL0     C28766   1.846   9.710   4.367 -0.0182 -0.4274  0.3598
  976MOL0     H28767   1.378   9.845   4.669 -0.1234 -0.1556 -0.7821
  976MOL0     H28768   1.154   9.956   4.659 -1.1772 -0.5841  0.0374
  976MOL0     H28769   0.974  10.064   4.630  3.9084 -1.1274 -0.6435
  976MOL0     H28770   0.940   9.979   4.479 -0.1650 -2.4640  2.2266
  976MOL0     H28771   0.830  10.210   4.405  1.8272 -0.1673 -0.1237
  976MOL0     H28772   0.848  10.259   4.573 -3.1017 -0.4852  1.0284
  976MOL0     H28773   0.712  10.046   4.638  0.5127  0.0703 -0.1222
  976MOL0     H28774   0.694  10.026   4.463  0.4798 -2.2542  1.1897
  976MOL0     H28775   0.596  10.269   4.622  1.4143  1.6907 -0.9086
  976MOL0     H28776   0.582  10.247   4.445 -3.3380 -0.8476 -0.4488
  976MOL0     H28777   0.434  10.051   4.480  1.7327 -0.2929  0.1642
  976MOL0     H28778   0.367  10.195   4.558  1.3386  0.5669  0.2882
  976MOL0     H28779   0.513   9.958   4.711  0.3823 -0.1426  2.0997
  976MOL0     H28780   0.339   9.967   4.693  1.2764 -0.6469  1.3967
  976MOL0     H28781   0.471  10.035   4.906 -1.4350  1.7441  1.0414
  976MOL0     H28782   0.519  10.177   4.827  2.9478 -1.7640 -0.5102
  976MOL0     H28783   0.243  10.065   4.893 -2.0597  3.0123  4.9697
  976MOL0     H28784   0.261  10.194   4.774  3.4166 -1.9597 -3.6752
  976MOL0     H28785   0.379  10.438   4.876  1.1933  0.1471  1.0465
  976MOL0     H28786   0.313  10.569   5.242 -1.1582 -1.2797 -0.7329
  976MOL0     H28787   0.311  10.633   5.082  1.0896  2.8936  2.6745
  976MOL0     H28788   0.564  10.530   5.093  1.8716  2.6259 -0.7971
  976MOL0     H28789   0.532  10.529   5.267 -0.4659 -2.1599 -1.0569
  976MOL0     H28790   0.646  10.746   5.232 -0.5160  1.6420  1.3589
  976MOL0     H28791   0.557  10.780   5.088 -0.1175  1.3024  0.6325
  976MOL0     H28792   0.348  10.796   5.226  0.6619 -3.4151 -1.8240
  976MOL0     H28793   0.479  10.912   5.254 -0.5833 -0.2750  0.7270
  976MOL0     H28794   0.484  10.707   5.653 -0.2313  0.8768  1.1661
  976MOL0     H28795   0.316  10.696   5.824 -0.6770 -1.4691 -1.5059
  976MOL0     H28796  -0.005  10.990   5.981 -1.0148  0.8667 -0.1004
  976MOL0     H28797  -0.138  11.052   6.167 -1.5699 -0.8271  0.9039
  976MOL0     H28798  -0.297  11.099   6.285 -2.6069  0.4888  1.2240
  976MOL0     H28799  -0.257  11.084   6.457 -1.9657  0.9446  2.1817
  976MOL0     H28800  -0.506  11.131   6.346 -3.7345 -1.1404 -1.0164
  976MOL0     H28801  -0.478  11.050   6.504  0.1030 -3.4373  0.6912
  976MOL0     H28802  -0.475  10.889   6.254  1.4858  2.2222  0.5749
  976MOL0     H28803  -0.627  10.906   6.329  1.0379 -2.3185 -1.6912
  976MOL0     H28804  -0.530  10.696   6.411  1.5249 -0.5394  0.2895
  976MOL0     H28805  -0.391  10.760   6.476  0.0894 -4.0197  0.5237
  976MOL0     H28806  -0.487  10.869   6.641 -0.0302  1.5917 -2.5661
  976MOL0     H28807  -0.586  10.719   6.645 -0.8443  1.8296  3.1853
  976MOL0     H28808  -0.750  10.879   6.505  1.3453 -0.6523 -0.1152
  976MOL0     H28809  -0.661  11.001   6.596  1.5457 -0.2728 -1.1401
  976MOL0     H28810  -0.887  10.871   6.711 -0.1934 -1.7532 -0.9823
  976MOL0     H28811  -0.760  10.761   6.761  0.2216  0.7899  0.6748
  976MOL0     H28812  -0.759  11.062   6.821 -0.0873  0.3945  0.1525
  976MOL0     H28813  -0.638  10.943   6.866  0.5527  2.4687  0.6059
  976MOL0     H28814  -0.201  10.641   6.277  0.6424 -1.6755 -1.7649
  976MOL0     H28815  -0.047  10.569   6.111  0.4024 -0.1436 -1.8551
  976MOL0     H28816   0.013  10.775   5.514  1.0888 -1.8483 -5.1232
  976MOL0     H28817   0.190  10.800   5.356 -1.1945  2.5297  0.3622
  976MOL0     H28818   1.292  10.168   4.310  1.6577  0.2835  0.9287
  976MOL0     H28819   1.493  10.081   4.333 -1.9923  1.3327 -2.3630
  976MOL0     H28820   1.816   9.949   4.595  2.5269  0.7396  2.5377
  976MOL0     H28821   2.040   9.876   4.642  3.0732 -1.5779 -0.4646
  976MOL0     H28822   2.291   9.568   4.412  2.2715  1.3975  1.9634
  976MOL0     H28823   2.149   9.463   4.453  0.6959 -2.2454  1.2080
  976MOL0     H28824   2.356   9.522   4.664 -1.1910  0.7470 -0.6566
  976MOL0     H28825   2.213   9.420   4.669 -1.5055 -2.2833 -1.9415
  976MOL0     H28826   2.417   9.371   4.457 -0.5965 -2.0616 -0.7535
  976MOL0     H28827   2.292   9.268   4.508 -0.6360  1.4924  0.7019
  976MOL0     H28828   2.551   9.227   4.585 -0.0766  0.4675 -0.4421
  976MOL0     H28829   2.516   9.337   4.715  1.7014 -1.2194 -0.0651
  976MOL0     H28830   2.314   8.974   4.836  2.6178 -2.3576 -1.3235
  976MOL0     H28831   2.014   9.573   4.334  0.9218  1.0129 -1.3326
  976MOL0     H28832   1.792   9.673   4.280  3.6355 -2.6766 -1.1710
  977MOL0     O28833   3.484   8.776   3.279 -0.1287  1.4303  0.6069
  977MOL0     C28834   3.365   8.788   3.295 -0.0696  1.0638 -0.7001
  977MOL0     O28835   3.294   8.729   3.394 -0.8983  0.1048  0.0759
  977MOL0     C28836   3.355   8.678   3.507 -0.3845 -0.5532 -0.0119
  977MOL0     C28837   3.389   8.539   3.517 -0.5961 -0.6442 -0.3243
  977MOL0     C28838   3.430   8.479   3.635 -0.0199 -0.4190 -0.4503
  977MOL0     C28839   3.452   8.559   3.748  0.4100 -1.5825 -0.6766
  977MOL0     O28840   3.516   8.496   3.857 -0.1382 -1.1622  0.3768
  977MOL0     C28841   3.644   8.436   3.832  0.1336  0.1153 -0.1395
  977MOL0     C28842   3.744   8.475   3.934 -0.8777 -0.1185 -0.5565
  977MOL0     C28843   3.710   8.419   4.086  0.9402 -0.5247  0.8014
  977MOL0     C28844   3.800   8.306   4.130 -0.9192  0.1993  0.1029
  977MOL0     C28845   3.787   8.278   4.277  0.2069 -0.1322  0.2352
  977MOL0     C28846   3.832   8.135   4.309 -0.2031  0.3792  0.2903
  977MOL0     C28847   3.798   8.100   4.455  1.1090 -0.5486 -0.1520
  977MOL0     C28848   3.836   7.967   4.502 -0.2271 -0.4585 -0.1598
  977MOL0     N28849   3.776   7.941   4.630  0.1531 -0.7691 -0.1252
  977MOL0     C28850   3.814   7.986   4.753  0.0314  0.3375  0.6585
  977MOL0     C28851   3.743   7.915   4.843  0.0475  0.4857 -0.0523
  977MOL0     C28852   3.767   7.928   4.985 -0.2718 -0.0540 -0.1704
  977MOL0     C28853   3.743   8.072   5.040  1.1892 -0.5825 -0.0916
  977MOL0     C28854   3.686   8.071   5.182 -0.5542  0.4819  0.3334
  977MOL0     C28855   3.794   8.074   5.296  0.1365 -0.2896  0.6897
  977MOL0     O28856   3.920   8.016   5.258  0.0732  0.3091 -0.0293
  977MOL0     C28857   3.963   7.935   5.360 -1.2206  0.0634 -0.3290
  977MOL0     C28858   3.995   7.994   5.488  0.1376 -0.2617 -0.1646
  977MOL0     C28859   4.042   7.921   5.591  0.1107  0.2456 -0.2435
  977MOL0     C28860   4.060   7.782   5.575  0.1679 -0.7196  0.3329
  977MOL0     C28861   4.120   7.698   5.686 -0.2644  0.4331 -0.1722
  977MOL0     O28862   4.171   7.581   5.636 -0.0025 -0.4255 -0.0808
  977MOL0     C28863   4.249   7.506   5.716 -0.0841  0.5546 -0.5769
  977MOL0     C28864   4.349   7.564   5.796  0.3396  0.1737  0.8957
  977MOL0     C28865   4.416   7.486   5.889 -1.0039 -0.4965 -0.2679
  977MOL0     C28866   4.386   7.350   5.911 -0.9475 -0.7105  0.2099
  977MOL0     O28867   4.452   7.270   5.994 -0.1677  0.1878  0.3496
  977MOL0     C28868   4.591   7.288   6.021 -0.4023 -0.2471  0.5195
  977MOL0     C28869   4.633   7.178   6.108  0.1186  0.0286  0.7198
  977MOL0     C28870   4.777   7.200   6.137  0.2486 -0.9142 -0.2644
  977MOL0     C28871   4.847   7.093   6.222 -0.4711  0.1189 -1.1328
  977MOL0     C28872   4.983   7.139   6.268 -0.6046  0.8421  1.2052
  977MOL0     C28873   5.073   7.031   6.336  0.5944 -0.1493  0.2569
  977MOL0     C28874   5.211   7.016   6.282 -0.6661  0.6813 -0.1733
  977MOL0     C28875   5.286   6.883   6.314  0.9457 -0.3359  0.4244
  977MOL0    Cl28876   5.464   6.893   6.258  0.1020  0.1177  0.0967
  977MOL0     C28877   4.287   7.295   5.835  0.8232  0.2644  0.5972
  977MOL0     C28878   4.217   7.371   5.735  1.0264  0.6381  0.3357
  977MOL0     O28879   4.108   7.730   5.803 -0.5162 -0.1317 -1.1210
  977MOL0     C28880   4.026   7.721   5.451  0.6445 -0.6248  0.3242
  977MOL0     C28881   3.977   7.800   5.344 -0.3296 -0.1318  0.1909
  977MOL0     N28882   3.647   7.852   4.764 -0.5164  0.5429 -0.8509
  977MOL0     N28883   3.665   7.859   4.640  0.1651 -0.0909 -0.1066
  977MOL0     C28884   3.423   8.701   3.741  0.3100  0.8395 -0.0098
  977MOL0     C28885   3.377   8.756   3.619  0.2327  0.4338  0.1022
  977MOL0     C28886   3.292   8.841   3.180  0.2481  0.7590  0.2989
  977MOL0     C28887   3.149   8.821   3.159 -0.1079  0.0240 -1.1581
  977MOL0     C28888   3.070   8.872   3.045 -0.5178  0.9107  0.1560
  977MOL0     C28889   3.148   8.921   2.940 -0.3825  0.4385  0.8800
  977MOL0     O28890   3.085   8.972   2.833  0.1720 -0.0405 -0.8464
  977MOL0     C28891   3.119   8.935   2.702 -0.2390  0.0848  0.9277
  977MOL0     C28892   2.985   8.955   2.628 -0.7314  0.1405  1.5954
  977MOL0     C28893   3.013   8.940   2.476  0.2483 -0.0234 -0.7571
  977MOL0     C28894   3.107   9.048   2.411  0.2116  0.3491  0.5653
  977MOL0     C28895   3.086   9.067   2.268 -0.0464  0.2015  0.0232
  977MOL0     C28896   3.052   9.084   2.150 -0.3413  1.3874 -0.0763
  977MOL0     C28897   3.289   8.927   2.952 -0.0246 -0.5488  0.2917
  977MOL0     C28898   3.360   8.898   3.072 -0.0073 -0.6153 -0.5798
  977MOL0     H28899   3.371   8.469   3.435 -0.2756 -1.0355 -0.0669
  977MOL0     H28900   3.446   8.372   3.647 -0.3231 -0.4527 -0.3385
  977MOL0     H28901   3.685   8.452   3.732  1.0559 -0.0552  0.1960
  977MOL0     H28902   3.634   8.328   3.827 -1.6835  0.3014 -1.4512
  977MOL0     H28903   3.747   8.584   3.945 -0.2948 -0.0752 -1.0878
  977MOL0     H28904   3.850   8.464   3.908 -0.2028  0.1622  1.8301
  977MOL0     H28905   3.611   8.375   4.079 -0.4463  2.4008  0.6322
  977MOL0     H28906   3.720   8.496   4.163 -0.5340  1.1875 -0.6506
  977MOL0     H28907   3.779   8.216   4.072  0.0429  0.9272 -1.4596
  977MOL0     H28908   3.902   8.332   4.098 -1.8630  0.1365 -3.3430
  977MOL0     H28909   3.680   8.283   4.297  0.1544  0.9829 -0.2243
  977MOL0     H28910   3.835   8.351   4.342 -2.7032  1.3364  0.8934
  977MOL0     H28911   3.935   8.118   4.277 -1.2136 -0.9621 -2.5469
  977MOL0     H28912   3.773   8.078   4.238 -0.0657  1.9781 -1.1804
  977MOL0     H28913   3.848   8.172   4.521 -0.1656 -0.2960  0.5665
  977MOL0     H28914   3.689   8.109   4.458  1.2814  2.6435  0.9300
  977MOL0     H28915   3.945   7.958   4.506 -0.0329 -0.5614 -3.2813
  977MOL0     H28916   3.807   7.899   4.421  0.9492 -0.8101 -0.3072
  977MOL0     H28917   3.890   8.063   4.759 -1.5236  2.3151 -2.5448
  977MOL0     H28918   3.871   7.908   5.012 -0.2630  1.0743  0.7613
  977MOL0     H28919   3.698   7.853   5.024  1.6563 -2.2298 -0.7667
  977MOL0     H28920   3.669   8.127   4.981  0.0164 -0.1450  1.7391
  977MOL0     H28921   3.834   8.133   5.042  0.9631  0.0210 -3.1794
  977MOL0     H28922   3.625   8.161   5.186 -3.9016 -1.3882 -2.7735
  977MOL0     H28923   3.623   7.982   5.189  0.4906 -0.6598 -2.7138
  977MOL0     H28924   3.753   8.035   5.389  0.7521 -1.1324  0.6180
  977MOL0     H28925   3.827   8.178   5.299 -0.1199  0.1288 -3.6577
  977MOL0     H28926   3.973   8.099   5.502 -1.9500 -0.5673 -0.8454
  977MOL0     H28927   4.084   7.965   5.681  0.9950  3.0106 -1.8779
  977MOL0     H28928   4.373   7.669   5.782 -0.7080  0.0684 -2.4950
  977MOL0     H28929   4.499   7.536   5.939 -3.2433  0.3897  2.8841
  977MOL0     H28930   4.615   7.382   6.072 -0.7300  0.8805 -1.3198
  977MOL0     H28931   4.650   7.289   5.929 -2.2742  1.7753 -0.7847
  977MOL0     H28932   4.629   7.085   6.051 -0.3157  0.4202  0.0931
  977MOL0     H28933   4.569   7.165   6.196 -1.2792  0.7537 -0.1429
  977MOL0     H28934   4.782   7.291   6.198 -0.4702 -1.1423  0.1534
  977MOL0     H28935   4.838   7.217   6.048  1.5916 -3.6930  0.0304
  977MOL0     H28936   4.785   7.070   6.310 -0.1866 -2.1650 -1.4501
  977MOL0     H28937   4.861   6.998   6.169  0.0177 -0.1244 -0.5738
  977MOL0     H28938   4.990   7.220   6.340  1.4130  2.0897 -0.2884
  977MOL0     H28939   5.029   7.172   6.174 -1.5009 -0.4806  0.2485
  977MOL0     H28940   5.032   6.930   6.324 -1.8030  0.8711 -0.8084
  977MOL0     H28941   5.063   7.042   6.444  0.3516  1.3985  0.0980
  977MOL0     H28942   5.229   7.034   6.176  1.2264 -0.8466 -0.1675
  977MOL0     H28943   5.272   7.093   6.332 -2.1782  1.4665  0.5287
  977MOL0     H28944   5.225   6.810   6.260  0.0226 -0.4285  1.5517
  977MOL0     H28945   5.288   6.873   6.423 -0.5915 -2.0221  0.3441
  977MOL0     H28946   4.270   7.189   5.847  1.2837 -0.3095 -2.8535
  977MOL0     H28947   4.140   7.320   5.678  1.1866 -2.4348  2.5791
  977MOL0     H28948   4.051   7.618   5.429 -0.8923 -0.9638  0.0642
  977MOL0     H28949   3.958   7.761   5.244  0.7516  2.5652 -1.1764
  977MOL0     H28950   3.422   8.772   3.823 -3.0534  0.5247  0.3983
  977MOL0     H28951   3.341   8.859   3.619 -0.5442  0.1649  0.3614
  977MOL0     H28952   3.091   8.773   3.238  2.3305  2.1268  2.1510
  977MOL0     H28953   2.962   8.867   3.039 -0.4879  1.7125 -3.6492
  977MOL0     H28954   3.146   8.829   2.704 -2.1011 -0.4213  2.2634
  977MOL0     H28955   3.201   8.994   2.658 -2.3543  1.3950 -1.5084
  977MOL0     H28956   2.915   8.880   2.666  1.6044 -2.5481  0.9264
  977MOL0     H28957   2.950   9.058   2.640 -1.1498  0.7635 -2.9226
  977MOL0     H28958   2.914   8.931   2.430 -0.8354  0.4592  1.3501
  977MOL0     H28959   3.049   8.839   2.454  3.4800  1.4814 -2.9967
  977MOL0     H28960   3.093   9.148   2.453 -0.8576  1.2196 -1.6582
  977MOL0     H28961   3.209   9.017   2.435 -0.8877 -1.5124  3.3897
  977MOL0     H28962   3.026   9.097   2.047 -0.7865 -0.8115 -0.2837
  977MOL0     H28963   3.343   8.962   2.865  0.6344 -0.2730  0.7949
  977MOL0     H28964   3.468   8.907   3.071 -0.1207  1.2399 -1.8043
  978MOL0     O28965   3.375   7.160  10.987 -0.0323 -0.0552 -0.1424
  978MOL0     C28966   3.338   7.182  10.872  0.0680 -0.3762  0.5234
  978MOL0     O28967   3.409   7.142  10.761 -0.8734 -0.2805  0.4857
  978MOL0     C28968   3.537   7.103  10.798  0.4576 -0.5654  0.4224
  978MOL0     C28969   3.630   7.203  10.835  0.3025  0.2329 -0.1610
  978MOL0     C28970   3.758   7.157  10.873  0.0991  0.4041  0.1406
  978MOL0     C28971   3.808   7.030  10.863 -0.2268 -0.0043 -0.4963
  978MOL0     O28972   3.938   6.995  10.880  0.2956 -0.0345 -0.1856
  978MOL0     C28973   3.978   7.018  11.012  0.1636  0.4591 -0.4481
  978MOL0     C28974   4.132   7.017  11.022 -0.2100  1.1518  0.2196
  978MOL0     C28975   4.206   6.892  10.994  0.5085  0.2685  1.0276
  978MOL0     C28976   4.193   6.852  10.840 -0.3221 -0.0845 -1.1786
  978MOL0     C28977   4.304   6.749  10.807  0.2824 -0.5601  0.2179
  978MOL0     C28978   4.287   6.680  10.666 -0.2435  0.1140 -0.5300
  978MOL0     C28979   4.301   6.783  10.554  0.5018 -0.4245  0.2361
  978MOL0     C28980   4.432   6.867  10.537  0.6727  0.3249  0.0619
  978MOL0     N28981   4.562   6.792  10.559  0.1883 -0.2596 -0.3949
  978MOL0     C28982   4.604   6.678  10.499  0.3090 -0.2612 -0.9471
  978MOL0     C28983   4.727   6.650  10.559 -0.0171 -0.6379  0.3022
  978MOL0     C28984   4.827   6.543  10.534 -0.3973 -0.0172  0.2819
  978MOL0     C28985   4.771   6.405  10.485 -0.5409 -0.8722 -0.3728
  978MOL0     C28986   4.658   6.355  10.581  0.4011  0.0318 -0.3051
  978MOL0     C28987   4.598   6.228  10.526  0.1455  0.1277  0.1704
  978MOL0     O28988   4.558   6.232  10.387  0.2509  0.5108  0.4054
  978MOL0     C28989   4.452   6.315  10.358 -0.3428 -0.1437  0.5259
  978MOL0     C28990   4.469   6.394  10.245  0.1367  0.6723  0.4476
  978MOL0     C28991   4.372   6.495  10.221 -0.2051 -0.9501  0.5302
  978MOL0     C28992   4.261   6.519  10.298  0.0779 -0.2366  0.4522
  978MOL0     C28993   4.174   6.621  10.263 -0.0197  0.5729  0.0876
  978MOL0     O28994   4.195   6.698  10.157 -0.1733 -0.5617  0.5749
  978MOL0     C28995   4.103   6.796  10.127  0.4875 -0.5542 -0.0522
  978MOL0     C28996   4.131   6.933  10.162  0.5743 -0.3304  1.1855
  978MOL0     C28997   4.041   7.038  10.128 -0.5338 -0.7958 -0.3944
  978MOL0     C28998   3.930   7.011  10.041 -0.4204  0.5960  0.3316
  978MOL0     O28999   3.857   7.112   9.987  0.1887 -0.1720 -0.8450
  978MOL0     C29000   3.915   7.244   9.994  0.7254  0.2897  1.0327
  978MOL0     C29001   3.829   7.341   9.909  0.0889  0.0366 -0.0948
  978MOL0     C29002   3.682   7.325   9.911 -0.8550  0.5017  0.8515
  978MOL0     C29003   3.617   7.346   9.771 -0.6070  0.2257 -0.4076
  978MOL0     C29004   3.518   7.234   9.726 -0.2612 -0.1545 -0.0191
  978MOL0     C29005   3.410   7.224   9.843 -0.0374 -0.5390 -0.9951
  978MOL0     C29006   3.271   7.188   9.802  0.4062 -0.1936  0.6373
  978MOL0     C29007   3.181   7.294   9.725 -0.1966 -0.1153 -0.6074
  978MOL0    Cl29008   3.063   7.203   9.619 -0.1703  0.0477  0.1226
  978MOL0     C29009   3.903   6.878  10.003  0.1079 -0.1920 -0.7443
  978MOL0     C29010   3.987   6.766  10.059 -0.1812  0.9009 -0.7307
  978MOL0     O29011   4.078   6.627  10.337 -0.1293 -0.0574  0.7158
  978MOL0     C29012   4.239   6.432  10.400 -0.2222  0.3255 -1.6320
  978MOL0     C29013   4.334   6.333  10.426 -0.6701  0.0000  0.3307
  978MOL0     N29014   4.750   6.748  10.651 -0.4586  0.6903 -0.2473
  978MOL0     N29015   4.658   6.826  10.652 -0.0753 -0.7038  0.0040
  978MOL0     C29016   3.721   6.936  10.808  0.7049 -0.6485  0.3809
  978MOL0     C29017   3.585   6.969  10.773 -0.6221  0.4346  0.2639
  978MOL0     C29018   3.208   7.260  10.853 -0.2667  0.3604  0.7456
  978MOL0     C29019   3.143   7.264  10.726  0.5439 -0.5622  1.1474
  978MOL0     C29020   3.022   7.331  10.713  0.5461 -0.8634  0.1122
  978MOL0     C29021   2.959   7.397  10.832  0.6539  0.1255 -0.0894
  978MOL0     O29022   2.828   7.448  10.817 -0.7902 -0.5290  0.3484
  978MOL0     C29023   2.820   7.588  10.802  0.5218  0.2999 -0.0415
  978MOL0     C29024   2.758   7.636  10.663 -0.5444  0.0346 -0.8574
  978MOL0     C29025   2.622   7.577  10.615  0.1857 -0.2343  0.0206
  978MOL0     C29026   2.623   7.426  10.595 -0.4433  0.1660 -0.8122
  978MOL0     C29027   2.709   7.394  10.479  0.0147  0.1915 -1.1653
  978MOL0     C29028   2.787   7.352  10.403  0.4542 -0.2292  0.1494
  978MOL0     C29029   3.013   7.372  10.956  0.2236 -0.0995 -0.5656
  978MOL0     C29030   3.138   7.313  10.964  0.5167 -0.0171 -0.3381
  978MOL0     H29031   3.613   7.311  10.834  3.0257  0.7462 -1.2066
  978MOL0     H29032   3.827   7.233  10.907 -0.7285  0.5008  1.7226
  978MOL0     H29033   3.939   6.943  11.081 -0.2889  1.9489  0.9791
  978MOL0     H29034   3.930   7.106  11.058 -2.3981  0.0044 -2.0229
  978MOL0     H29035   4.153   7.048  11.124 -1.6926  3.2259 -0.0428
  978MOL0     H29036   4.175   7.095  10.958  0.9997  0.4706  0.1704
  978MOL0     H29037   4.154   6.819  11.057 -2.8992  2.8074  1.4215
  978MOL0     H29038   4.309   6.912  11.026  0.9885  2.5502 -1.5425
  978MOL0     H29039   4.089   6.827  10.813 -0.5440 -2.4714  1.4627
  978MOL0     H29040   4.228   6.945  10.794  1.9581  0.1866  0.9203
  978MOL0     H29041   4.308   6.676  10.888 -1.2066  0.6834  1.4714
  978MOL0     H29042   4.393   6.812  10.806  0.5970 -1.0012  0.0733
  978MOL0     H29043   4.188   6.633  10.657 -0.4884  0.6489 -0.7190
  978MOL0     H29044   4.365   6.606  10.650 -1.1797 -0.8940 -0.5800
  978MOL0     H29045   4.296   6.733  10.457  0.2981 -0.4577  0.2641
  978MOL0     H29046   4.220   6.857  10.557  0.9407  0.0327  2.5462
  978MOL0     H29047   4.432   6.950  10.609 -1.2583  0.0124  0.4902
  978MOL0     H29048   4.440   6.920  10.441 -0.7898 -0.0367 -0.2897
  978MOL0     H29049   4.566   6.635  10.406  0.9710  0.9186 -1.7975
  978MOL0     H29050   4.894   6.531  10.619 -1.1143 -2.4706  0.5743
  978MOL0     H29051   4.904   6.583  10.466 -1.2170 -0.7371 -1.1107
  978MOL0     H29052   4.855   6.337  10.471  1.8982  1.8601 -0.0391
  978MOL0     H29053   4.726   6.406  10.386  1.8872 -1.2703 -1.5600
  978MOL0     H29054   4.723   6.342  10.668  3.5752 -0.3508 -2.5505
  978MOL0     H29055   4.579   6.429  10.597 -0.2113 -1.1955  3.6198
  978MOL0     H29056   4.522   6.194  10.596 -0.9366  0.6824 -0.7126
  978MOL0     H29057   4.675   6.152  10.541 -2.7348 -3.3433 -1.2774
  978MOL0     H29058   4.556   6.379  10.182 -0.9200 -0.5031 -0.7858
  978MOL0     H29059   4.392   6.548  10.128  0.9597 -1.0889  0.6942
  978MOL0     H29060   4.214   6.964  10.226  1.7582 -3.0939  1.1238
  978MOL0     H29061   4.048   7.131  10.184 -0.0104 -1.7599  1.2267
  978MOL0     H29062   4.017   7.243   9.956  0.6468  0.2246  0.8249
  978MOL0     H29063   3.923   7.282  10.097 -0.9526  3.8039  0.0244
  978MOL0     H29064   3.868   7.335   9.807  3.9861  2.4104  1.0283
  978MOL0     H29065   3.847   7.444   9.943 -0.1497 -0.7126  2.5171
  978MOL0     H29066   3.644   7.406   9.974 -1.2186  2.7160 -1.9762
  978MOL0     H29067   3.655   7.224   9.944  2.1632 -0.5313  0.4645
  978MOL0     H29068   3.552   7.433   9.780 -3.2040 -1.5654 -0.7819
  978MOL0     H29069   3.689   7.368   9.692 -0.2369  0.4750 -0.0036
  978MOL0     H29070   3.574   7.141   9.723  0.6901  0.4277 -1.2263
  978MOL0     H29071   3.468   7.244   9.628  1.7382 -4.5635 -1.7431
  978MOL0     H29072   3.413   7.313   9.907  0.4692 -0.5626 -0.9796
  978MOL0     H29073   3.439   7.142   9.910 -1.1719  0.8456  1.2973
  978MOL0     H29074   3.282   7.096   9.743 -0.6855  0.3136 -0.3965
  978MOL0     H29075   3.214   7.169   9.893  0.1977 -0.3435  0.4766
  978MOL0     H29076   3.244   7.358   9.664  0.3212 -1.8654 -2.0104
  978MOL0     H29077   3.119   7.359   9.788 -3.4200 -2.9350 -0.5491
  978MOL0     H29078   3.826   6.860   9.929  1.4779  1.2625 -2.6168
  978MOL0     H29079   3.968   6.663  10.030 -0.7316  0.3417  1.4555
  978MOL0     H29080   4.164   6.447  10.477  2.6179 -2.0938  1.9815
  978MOL0     H29081   4.334   6.270  10.515  0.6750 -0.6036 -0.0673
  978MOL0     H29082   3.751   6.834  10.785 -0.9839 -1.0222 -0.2870
  978MOL0     H29083   3.518   6.899  10.723 -0.3156  0.6305 -0.4264
  978MOL0     H29084   3.194   7.227  10.637  1.7102  2.2949  0.5148
  978MOL0     H29085   2.980   7.335  10.613 -0.7246 -0.8903  0.6259
  978MOL0     H29086   2.913   7.638  10.830  0.9898 -1.0020  0.7976
  978MOL0     H29087   2.747   7.606  10.881  2.1919  0.7672  1.4693
  978MOL0     H29088   2.744   7.743  10.650  0.1703 -0.1187 -3.2970
  978MOL0     H29089   2.838   7.597  10.600 -2.8300 -2.6551 -2.3329
  978MOL0     H29090   2.577   7.626  10.528 -1.2947 -1.2151  0.1898
  978MOL0     H29091   2.546   7.595  10.692 -1.0303  1.3270 -1.4511
  978MOL0     H29092   2.662   7.379  10.686  0.1953  1.7396 -0.2290
  978MOL0     H29093   2.520   7.391  10.583 -0.8714  2.0108 -3.4459
  978MOL0     H29094   2.861   7.320  10.333  2.6813 -1.5904  2.8918
  978MOL0     H29095   2.958   7.401  11.045  1.5057 -0.7943  0.5072
  978MOL0     H29096   3.187   7.300  11.060  3.1248  1.7989 -1.3141
  979MOL0     O29097   5.469   0.935   8.453 -0.2136 -0.2181 -0.0028
  979MOL0     C29098   5.569   0.869   8.423 -0.6642 -0.7695 -0.2931
  979MOL0     O29099   5.638   0.794   8.515  0.1851  0.2911 -0.0008
  979MOL0     C29100   5.591   0.767   8.642  0.7783  0.7773 -0.2763
  979MOL0     C29101   5.569   0.626   8.663  0.2751 -0.4780  0.5627
  979MOL0     C29102   5.526   0.581   8.793  0.1767 -0.7584 -0.4552
  979MOL0     C29103   5.498   0.678   8.895 -0.7463 -0.6317 -0.8487
  979MOL0     O29104   5.480   0.668   9.035  0.8019  0.8109  0.4691
  979MOL0     C29105   5.460   0.538   9.087  0.2661 -0.1707  1.3727
  979MOL0     C29106   5.397   0.553   9.226  0.4372 -0.5256  0.7614
  979MOL0     C29107   5.319   0.427   9.271  0.4509 -0.4639 -0.5293
  979MOL0     C29108   5.283   0.445   9.413 -0.8244  0.4211 -0.2948
  979MOL0     C29109   5.212   0.314   9.452 -0.4823  0.0131 -0.8471
  979MOL0     C29110   5.075   0.293   9.390  0.4310  0.0664  0.3670
  979MOL0     C29111   4.969   0.398   9.422  1.0786  0.6096  0.1155
  979MOL0     C29112   4.826   0.354   9.392 -0.2536  0.2229  0.9760
  979MOL0     N29113   4.773   0.236   9.455 -0.2907  0.6354 -0.7244
  979MOL0     C29114   4.721   0.223   9.587 -0.2714  1.2775  0.2681
  979MOL0     C29115   4.714   0.092   9.617  0.4810 -0.0139 -0.6842
  979MOL0     C29116   4.666   0.035   9.751  0.3769  0.3708  0.1600
  979MOL0     C29117   4.765   0.086   9.857 -0.4295  0.5877 -0.8679
  979MOL0     C29118   4.882  -0.015   9.888 -0.9821  0.3191 -0.7592
  979MOL0     C29119   5.018   0.054   9.917  0.3766 -0.4958 -0.5032
  979MOL0     O29120   5.120  -0.049   9.902  0.3636 -0.7401  0.1612
  979MOL0     C29121   5.198  -0.047   9.784  0.9560  0.1168  0.1490
  979MOL0     C29122   5.329  -0.099   9.795  0.1736 -0.8745 -1.0871
  979MOL0     C29123   5.407  -0.099   9.686  0.4533  0.4450 -0.2141
  979MOL0     C29124   5.360  -0.057   9.559  0.0793 -0.5105  0.8081
  979MOL0     C29125   5.451  -0.052   9.431 -0.6627  0.5959 -0.8562
  979MOL0     O29126   5.410   0.006   9.319  0.2513  0.4311  0.6457
  979MOL0     C29127   5.506   0.020   9.226  0.1082 -0.3406  0.8728
  979MOL0     C29128   5.502  -0.053   9.109  0.5792  1.1493 -0.7540
  979MOL0     C29129   5.603  -0.035   9.016 -0.9337 -1.2231  0.1445
  979MOL0     C29130   5.720   0.044   9.045  0.6636  0.2909 -1.1986
  979MOL0     O29131   5.830   0.031   8.965  0.5182 -0.1515 -0.1852
  979MOL0     C29132   5.943   0.110   8.968 -0.1439 -0.0559  0.7543
  979MOL0     C29133   6.054   0.049   9.060  0.4610  0.2533  0.6189
  979MOL0     C29134   6.161   0.139   9.108  0.1633  0.0292  0.0058
  979MOL0     C29135   6.108   0.228   9.225  1.1196  0.0774  0.3784
  979MOL0     C29136   6.218   0.272   9.333 -0.2573  0.1669 -0.1977
  979MOL0     C29137   6.296   0.160   9.409 -0.2491  0.1397 -0.8301
  979MOL0     C29138   6.359   0.206   9.545 -0.5445 -0.2376  0.9641
  979MOL0     C29139   6.442   0.110   9.625 -0.5475  0.7695  0.1722
  979MOL0    Cl29140   6.374  -0.043   9.679 -0.2583  0.2222  0.9023
  979MOL0     C29141   5.706   0.129   9.156 -0.1881  0.2149 -0.3600
  979MOL0     C29142   5.605   0.117   9.247  0.6595  0.4455 -0.2323
  979MOL0     O29143   5.566  -0.086   9.462  0.4120  0.1813 -0.2614
  979MOL0     C29144   5.240   0.002   9.550 -0.1986  0.6502  0.1192
  979MOL0     C29145   5.156   0.007   9.660  0.3759  0.6296  1.5186
  979MOL0     N29146   4.770   0.021   9.510  0.2130 -0.2742 -0.1593
  979MOL0     N29147   4.793   0.110   9.418 -0.9232  1.2090  0.1868
  979MOL0     C29148   5.515   0.814   8.863 -0.2729 -0.3025  0.2157
  979MOL0     C29149   5.566   0.857   8.739 -0.0083 -0.6068  0.9671
  979MOL0     C29150   5.633   0.871   8.286  0.4563  0.4335 -0.0041
  979MOL0     C29151   5.609   0.975   8.193  0.2389 -0.5752  0.4602
  979MOL0     C29152   5.677   0.972   8.071  0.0295  0.2535 -0.1886
  979MOL0     C29153   5.755   0.859   8.034 -0.4338 -0.1644  0.2260
  979MOL0     O29154   5.786   0.855   7.905  0.8266  0.1430  0.2842
  979MOL0     C29155   5.891   0.757   7.867 -0.5228 -0.0359  0.0995
  979MOL0     C29156   5.961   0.799   7.732  0.4012 -0.4330  0.7105
  979MOL0     C29157   5.882   0.736   7.612  0.5505  0.6720 -0.4252
  979MOL0     C29158   5.736   0.795   7.599  0.0865 -0.3531 -0.4028
  979MOL0     C29159   5.664   0.776   7.473 -0.1023  0.2453 -0.7108
  979MOL0     C29160   5.601   0.752   7.370 -0.4717 -0.4701 -0.8723
  979MOL0     C29161   5.774   0.764   8.132 -0.2292 -0.2871 -0.1029
  979MOL0     C29162   5.723   0.770   8.259  0.4417 -0.2730 -0.7876
  979MOL0     H29163   5.589   0.542   8.596  0.6947 -0.6702  0.9207
  979MOL0     H29164   5.528   0.473   8.807  3.3850 -0.6082  1.1169
  979MOL0     H29165   5.541   0.465   9.089  0.9124  0.4785  0.3030
  979MOL0     H29166   5.381   0.492   9.026 -0.6984  2.4093  0.5132
  979MOL0     H29167   5.326   0.636   9.226 -0.6960 -1.4745  0.4359
  979MOL0     H29168   5.478   0.582   9.294 -0.5602  2.1911  0.9099
  979MOL0     H29169   5.388   0.343   9.255  2.6411  0.7020  2.1526
  979MOL0     H29170   5.231   0.418   9.207  1.0706  0.6152 -1.5635
  979MOL0     H29171   5.379   0.454   9.465 -0.4343 -1.6688 -0.5854
  979MOL0     H29172   5.229   0.540   9.426 -0.3914  0.9523 -2.0826
  979MOL0     H29173   5.197   0.320   9.561  1.3749  3.7432 -0.6606
  979MOL0     H29174   5.277   0.229   9.430  1.9226  1.6983 -0.6621
  979MOL0     H29175   5.034   0.202   9.435 -1.5271  0.6743 -0.0836
  979MOL0     H29176   5.081   0.278   9.281  1.8620  2.6980  0.0009
  979MOL0     H29177   4.969   0.428   9.528 -0.7121 -0.2473  0.3889
  979MOL0     H29178   4.990   0.490   9.366 -0.1426  2.2270  2.1607
  979MOL0     H29179   4.821   0.336   9.285 -2.8773  2.1725  0.6809
  979MOL0     H29180   4.756   0.437   9.404 -3.0829 -1.8243 -0.2722
  979MOL0     H29181   4.685   0.312   9.636 -0.3162  0.4116  1.8552
  979MOL0     H29182   4.675  -0.073   9.735  0.3698  0.7849 -3.4047
  979MOL0     H29183   4.560   0.056   9.764 -0.3271 -1.5611 -1.7730
  979MOL0     H29184   4.701   0.095   9.946 -2.9401  1.5994 -2.6443
  979MOL0     H29185   4.795   0.190   9.841 -1.3988  0.8802 -0.8489
  979MOL0     H29186   4.856  -0.067   9.981  1.0394  4.1654  2.2414
  979MOL0     H29187   4.891  -0.076   9.797 -3.4712  2.1952 -2.4129
  979MOL0     H29188   5.006   0.091  10.019  2.3210 -0.9450 -0.0712
  979MOL0     H29189   5.037   0.138   9.850  0.6759  0.4571  0.7407
  979MOL0     H29190   5.355  -0.150   9.887  2.0481  4.5196  1.8142
  979MOL0     H29191   5.494  -0.163   9.692  0.9814  1.1594 -0.1448
  979MOL0     H29192   5.424  -0.127   9.097  3.2129 -2.7492  2.8153
  979MOL0     H29193   5.617  -0.097   8.927 -1.1568  0.3519 -1.0338
  979MOL0     H29194   5.921   0.214   8.994  1.1119 -0.0286  1.8423
  979MOL0     H29195   5.978   0.121   8.865 -1.5527  1.4926  0.3875
  979MOL0     H29196   6.104  -0.018   8.989  1.7284  0.0029  1.7023
  979MOL0     H29197   6.008  -0.011   9.139 -2.1103 -0.4255 -1.2359
  979MOL0     H29198   6.206   0.208   9.036  0.2423  2.9129  2.5727
  979MOL0     H29199   6.247   0.081   9.140 -1.7992 -2.9777  0.1895
  979MOL0     H29200   6.053   0.316   9.190 -0.3427 -0.7656  0.4806
  979MOL0     H29201   6.032   0.175   9.283 -0.3371  1.9835  0.3126
  979MOL0     H29202   6.161   0.311   9.417  1.5709  2.1406  0.2158
  979MOL0     H29203   6.286   0.346   9.289  2.3251 -0.3845  2.5303
  979MOL0     H29204   6.377   0.131   9.342  1.9111 -0.7053  1.9548
  979MOL0     H29205   6.231   0.073   9.425  0.6563 -1.0269 -3.0750
  979MOL0     H29206   6.420   0.294   9.522 -1.5492  0.6207  1.4825
  979MOL0     H29207   6.275   0.235   9.609 -0.1290  2.8308  0.3153
  979MOL0     H29208   6.487   0.165   9.708 -0.9982 -0.1887  1.0651
  979MOL0     H29209   6.532   0.092   9.565  0.5708  2.5199  1.2303
  979MOL0     H29210   5.781   0.207   9.169 -0.5351  0.4489  0.3114
  979MOL0     H29211   5.598   0.190   9.327 -4.3827  0.4341 -0.3450
  979MOL0     H29212   5.207   0.031   9.451 -0.4134 -0.3601 -0.1181
  979MOL0     H29213   5.056   0.040   9.632  0.6481 -0.4259 -0.9115
  979MOL0     H29214   5.504   0.879   8.949 -0.4755 -1.9107  1.4545
  979MOL0     H29215   5.613   0.954   8.726  2.8611 -2.2281 -2.1639
  979MOL0     H29216   5.566   1.069   8.227  2.4608  0.5027  0.5029
  979MOL0     H29217   5.657   1.048   7.997 -0.3795  1.5934  1.2538
  979MOL0     H29218   5.863   0.652   7.852  2.4987 -0.6181 -2.4930
  979MOL0     H29219   5.965   0.750   7.947 -2.4004  0.0114  1.9298
  979MOL0     H29220   5.970   0.905   7.710 -1.7711 -0.4029 -0.3615
  979MOL0     H29221   6.062   0.758   7.735  0.3207 -0.6327  0.7433
  979MOL0     H29222   5.888   0.627   7.609  0.5527  0.6358  0.5875
  979MOL0     H29223   5.940   0.768   7.525 -2.6086  4.6375 -1.4198
  979MOL0     H29224   5.667   0.748   7.670  0.0970 -1.6577 -1.2260
  979MOL0     H29225   5.739   0.903   7.620  0.6401 -0.7302  1.6395
  979MOL0     H29226   5.560   0.743   7.272 -0.7606 -1.3434 -0.6749
  979MOL0     H29227   5.831   0.675   8.106 -2.6335 -1.2168 -2.7227
  979MOL0     H29228   5.756   0.707   8.342  0.7234 -1.0898 -1.5037
  980MOL0     O29229   6.157   9.716   3.407  0.4562  0.3268  0.1715
  980MOL0     C29230   6.101   9.809   3.356  0.1020 -0.4638 -0.3514
  980MOL0     O29231   6.051   9.919   3.425 -0.1990 -0.1684  0.3211
  980MOL0     C29232   6.075   9.928   3.562 -0.2708  0.8903  0.5784
  980MOL0     C29233   6.204   9.960   3.608 -0.3234  0.1605  0.0697
  980MOL0     C29234   6.237   9.952   3.737  0.5322  0.6964  0.5291
  980MOL0     C29235   6.145   9.901   3.835 -0.8386 -0.0484  0.2302
  980MOL0     O29236   6.188   9.884   3.963  0.6499 -0.2331  0.1015
  980MOL0     C29237   6.303   9.949   4.022 -0.1051 -1.4555 -0.2830
  980MOL0     C29238   6.282  10.096   4.047 -1.0446  0.1324 -0.6480
  980MOL0     C29239   6.411  10.172   4.087  0.3308 -0.5611  0.1101
  980MOL0     C29240   6.400  10.328   4.077  0.1789  0.0231  0.1833
  980MOL0     C29241   6.493  10.415   4.168 -0.1319  0.3182 -0.0201
  980MOL0     C29242   6.639  10.384   4.153 -0.3132 -0.9122  0.7411
  980MOL0     C29243   6.687  10.401   4.005  0.5249 -0.2585  0.3559
  980MOL0     C29244   6.832  10.441   4.013  0.4673  0.1229  0.3024
  980MOL0     N29245   6.922  10.341   4.079 -0.5338  0.1675  0.5741
  980MOL0     C29246   6.922  10.203   4.093 -0.0596 -0.0781  0.2464
  980MOL0     C29247   7.033  10.162   4.153 -0.4959  1.1524  0.3216
  980MOL0     C29248   7.072  10.006   4.157 -0.1441  0.5097 -0.6118
  980MOL0     C29249   7.212   9.969   4.121 -0.0305 -0.2652  0.0752
  980MOL0     C29250   7.318  10.005   4.228 -0.5155  0.4364 -0.2012
  980MOL0     C29251   7.459   9.972   4.173 -0.8348 -0.3800  0.1189
  980MOL0     O29252   7.472  10.027   4.046 -0.6170 -0.5277 -0.1096
  980MOL0     C29253   7.603  10.029   3.998 -0.7235  0.1873 -0.1146
  980MOL0     C29254   7.631  10.122   3.901 -0.1980 -1.5227  0.5090
  980MOL0     C29255   7.757  10.138   3.854 -0.1989 -0.2340  0.2705
  980MOL0     C29256   7.860  10.055   3.893 -0.6201  0.5676  0.0492
  980MOL0     C29257   7.999  10.065   3.846 -0.1258  0.7814  0.1625
  980MOL0     O29258   8.009  10.152   3.733 -0.5587 -0.0589  0.7222
  980MOL0     C29259   8.099  10.126   3.634  0.3743  0.1493  0.4000
  980MOL0     C29260   8.161  10.003   3.595 -0.0930 -0.1093 -0.7484
  980MOL0     C29261   8.235  10.002   3.476  0.1851  0.3905  0.3150
  980MOL0     C29262   8.251  10.118   3.396 -0.1305 -0.8080  0.2201
  980MOL0     O29263   8.333  10.103   3.282 -0.1675 -0.7925  0.7218
  980MOL0     C29264   8.330  10.186   3.171  0.2951 -0.3443  0.0671
  980MOL0     C29265   8.212  10.151   3.085 -0.2790  0.7369 -0.2678
  980MOL0     C29266   8.208  10.011   3.027  0.5446  0.9280  0.5720
  980MOL0     C29267   8.123   9.992   2.892  0.2209  0.0849 -0.0334
  980MOL0     C29268   8.140   9.850   2.849  0.5074  0.4525 -0.2922
  980MOL0     C29269   8.066   9.814   2.724 -0.6186 -0.3514  0.2992
  980MOL0     C29270   7.917   9.816   2.727 -0.4906  0.4859  0.8368
  980MOL0     C29271   7.872   9.701   2.817  0.6342  0.3543  0.8418
  980MOL0    Cl29272   7.702   9.659   2.781 -0.1634  0.2687  0.4570
  980MOL0     C29273   8.202  10.239   3.441  0.3290 -1.1088 -0.3469
  980MOL0     C29274   8.130  10.245   3.557  0.8060  1.1125  0.2864
  980MOL0     O29275   8.094  10.015   3.911  0.6165 -0.0840  0.1316
  980MOL0     C29276   7.826   9.955   3.980 -0.3437 -0.4573  0.2829
  980MOL0     C29277   7.700   9.936   4.039 -0.0994 -0.2497 -0.8297
  980MOL0     N29278   7.105  10.277   4.187  0.0008  0.2260 -0.8147
  980MOL0     N29279   7.040  10.381   4.151 -0.3875  0.0821  0.7504
  980MOL0     C29280   6.013   9.868   3.794 -0.1741 -0.9811 -0.1971
  980MOL0     C29281   5.980   9.888   3.659 -0.0998 -0.1886  0.3739
  980MOL0     C29282   6.072   9.806   3.214 -0.7783 -0.8487  0.4121
  980MOL0     C29283   6.128   9.706   3.130 -0.6266  0.5571 -0.0973
  980MOL0     C29284   6.101   9.692   2.995  0.7687 -0.8314  0.2364
  980MOL0     C29285   6.032   9.793   2.927  0.7616  0.0161 -0.4455
  980MOL0     O29286   6.023   9.789   2.793  0.5906 -0.9144 -0.4124
  980MOL0     C29287   5.885   9.780   2.735  0.0517  0.2414  0.5456
  980MOL0     C29288   5.826   9.641   2.747 -0.5529  0.3571 -1.0313
  980MOL0     C29289   5.674   9.630   2.699  0.2551  0.7742 -0.2875
  980MOL0     C29290   5.640   9.692   2.565 -0.4814  0.1620 -0.5661
  980MOL0     C29291   5.674   9.602   2.456 -0.1940  0.2617  0.4340
  980MOL0     C29292   5.703   9.547   2.350  0.5407  0.6230 -0.2164
  980MOL0     C29293   5.962   9.893   3.005  0.3289  0.0176 -1.0060
  980MOL0     C29294   5.977   9.900   3.150  0.0802 -0.0058 -0.2266
  980MOL0     H29295   6.282   9.994   3.541 -0.2349  2.7431  1.3467
  980MOL0     H29296   6.332   9.986   3.778  1.3965 -1.9743  0.9808
  980MOL0     H29297   6.390   9.927   3.959 -0.1091 -0.5387 -0.6245
  980MOL0     H29298   6.337   9.906   4.116  3.8460 -2.5098 -1.9582
  980MOL0     H29299   6.200  10.105   4.119 -1.5323 -2.7246 -0.7671
  980MOL0     H29300   6.268  10.154   3.955  3.3692  2.6504 -0.0697
  980MOL0     H29301   6.501  10.136   4.037 -0.8330 -1.7344 -1.2267
  980MOL0     H29302   6.406  10.149   4.194  0.8373 -1.0222  0.0334
  980MOL0     H29303   6.416  10.350   3.971 -0.6741  0.2639  0.0917
  980MOL0     H29304   6.294  10.339   4.101 -0.0107 -1.4083  0.1119
  980MOL0     H29305   6.465  10.386   4.270 -0.8555  0.6443 -0.1164
  980MOL0     H29306   6.470  10.522   4.162 -0.2854  0.4777  2.3662
  980MOL0     H29307   6.657  10.279   4.176 -2.5100 -2.1259 -2.3370
  980MOL0     H29308   6.689  10.459   4.215 -0.3045 -2.1566  2.3110
  980MOL0     H29309   6.683  10.310   3.944  0.2469  0.5305 -0.8372
  980MOL0     H29310   6.627  10.467   3.941  0.5209 -0.9639 -0.3773
  980MOL0     H29311   6.838  10.531   4.075 -2.3563 -0.2949  1.3439
  980MOL0     H29312   6.865  10.466   3.912  2.3826  0.3133  0.9296
  980MOL0     H29313   6.847  10.137   4.053 -0.0104 -0.3912  0.6613
  980MOL0     H29314   7.004   9.939   4.102  1.3687 -1.3859 -0.2966
  980MOL0     H29315   7.058   9.973   4.261  0.6709 -1.7509 -1.1502
  980MOL0     H29316   7.233  10.010   4.022  0.7280  2.8557  1.3769
  980MOL0     H29317   7.228   9.862   4.107 -0.6336 -0.4936  1.0356
  980MOL0     H29318   7.311  10.112   4.253 -1.4603  0.8096 -1.8956
  980MOL0     H29319   7.298   9.944   4.317 -0.6938 -1.5334 -1.5429
  980MOL0     H29320   7.469   9.864   4.153 -1.2478 -0.1843 -1.2313
  980MOL0     H29321   7.538   9.995   4.246 -1.7718  2.8060  0.2763
  980MOL0     H29322   7.566  10.206   3.879 -0.6638 -2.5084 -2.1883
  980MOL0     H29323   7.777  10.206   3.772  2.0018 -1.3416 -0.1888
  980MOL0     H29324   8.137   9.916   3.655  0.8413  1.1291  1.5594
  980MOL0     H29325   8.267   9.909   3.429 -2.0316 -1.8088  2.8310
  980MOL0     H29326   8.422  10.167   3.115  0.1745 -2.1073  0.3900
  980MOL0     H29327   8.338  10.294   3.183  1.0539  0.2176 -4.0314
  980MOL0     H29328   8.208  10.228   3.008  0.1694  1.5239  0.4802
  980MOL0     H29329   8.129  10.171   3.153  1.0289  2.0640  1.0183
  980MOL0     H29330   8.181   9.944   3.109  3.7854  0.2179  1.2104
  980MOL0     H29331   8.310   9.982   3.000  0.0150 -1.8142  1.2176
  980MOL0     H29332   8.017  10.018   2.904 -0.6431 -2.8373 -0.5793
  980MOL0     H29333   8.162  10.070   2.827 -1.0147  2.0693  1.4677
  980MOL0     H29334   8.124   9.785   2.935  0.4705  3.1284  1.8453
  980MOL0     H29335   8.243   9.819   2.829  1.1508  0.9489  1.9901
  980MOL0     H29336   8.087   9.712   2.690  3.8917 -0.0111  1.4236
  980MOL0     H29337   8.103   9.888   2.653 -0.7536  0.3529  0.9455
  980MOL0     H29338   7.874   9.909   2.767  1.4012 -0.1036  4.7176
  980MOL0     H29339   7.884   9.807   2.623  0.6848 -0.5466  0.5318
  980MOL0     H29340   7.890   9.731   2.921  2.2037 -2.2884  1.4435
  980MOL0     H29341   7.936   9.613   2.806  1.9216  1.5332 -1.7008
  980MOL0     H29342   8.229  10.320   3.373  3.8709 -0.4593  1.5910
  980MOL0     H29343   8.083  10.332   3.601  0.6787  0.1529  2.1216
  980MOL0     H29344   7.905   9.884   4.005  0.6171 -0.4414 -2.4354
  980MOL0     H29345   7.677   9.855   4.108  2.0446  1.4511  2.1327
  980MOL0     H29346   5.942   9.817   3.859 -1.1925 -1.0521 -1.3202
  980MOL0     H29347   5.877   9.875   3.625  0.0251 -0.1987 -0.0089
  980MOL0     H29348   6.192   9.629   3.172  0.3705  0.8492 -1.0481
  980MOL0     H29349   6.147   9.613   2.937  1.0379 -2.4136  2.4809
  980MOL0     H29350   5.884   9.812   2.630  0.8500 -0.2036  0.3882
  980MOL0     H29351   5.825   9.855   2.787 -0.5367 -1.6044  2.6666
  980MOL0     H29352   5.885   9.576   2.682 -0.8830 -2.9120  1.6578
  980MOL0     H29353   5.844   9.597   2.845 -2.3582  1.9444  0.0968
  980MOL0     H29354   5.601   9.659   2.775 -0.1406 -1.5754  0.2949
  980MOL0     H29355   5.659   9.522   2.708 -0.8539  1.1020  2.8174
  980MOL0     H29356   5.536   9.723   2.557 -2.6786 -4.9650  3.0382
  980MOL0     H29357   5.697   9.784   2.547 -2.9911  2.1212  0.8233
  980MOL0     H29358   5.697   9.489   2.259 -0.6378  0.5592 -0.1182
  980MOL0     H29359   5.880   9.957   2.974 -0.4018  1.1519  2.6602
  980MOL0     H29360   5.916   9.963   3.215 -1.7380 -1.2535 -0.6421
  981MOL0     O29361  11.211   9.374   6.544  0.0966 -0.0570 -0.3238
  981MOL0     C29362  11.317   9.374   6.609 -0.1060  0.1631 -0.6932
  981MOL0     O29363  11.352   9.274   6.690  0.1892 -0.3277 -0.1946
  981MOL0     C29364  11.268   9.183   6.738  0.6988 -0.1595  0.0117
  981MOL0     C29365  11.135   9.203   6.781  0.0530  0.6841  0.1306
  981MOL0     C29366  11.074   9.092   6.839 -0.6418 -0.3057 -1.0210
  981MOL0     C29367  11.131   8.967   6.859 -0.4297  0.4140 -0.4633
  981MOL0     O29368  11.069   8.855   6.913 -0.0587 -0.2402  0.2819
  981MOL0     C29369  10.933   8.832   6.879  0.5386 -0.3929  0.6283
  981MOL0     C29370  10.902   8.687   6.908  0.6328  0.0992  0.0703
  981MOL0     C29371  10.765   8.653   6.847  0.1067  0.8113  0.7507
  981MOL0     C29372  10.686   8.534   6.919  0.4932 -0.0657 -1.3971
  981MOL0     C29373  10.575   8.464   6.837 -0.5174 -0.0660  0.1012
  981MOL0     C29374  10.526   8.331   6.890  0.4580 -0.2660  0.5080
  981MOL0     C29375  10.406   8.293   6.800  0.6971  1.1898  0.4365
  981MOL0     C29376  10.383   8.146   6.790  0.0557 -0.3533  0.2814
  981MOL0     N29377  10.257   8.123   6.722  0.4875 -0.0211  0.2495
  981MOL0     C29378  10.135   8.095   6.779  0.2835  0.1034 -0.2752
  981MOL0     C29379  10.045   8.093   6.683  0.2977 -0.3430  0.6358
  981MOL0     C29380   9.910   8.046   6.679  0.6284  0.5839 -0.2079
  981MOL0     C29381   9.821   8.167   6.659 -0.3346 -0.9382  0.1662
  981MOL0     C29382   9.677   8.146   6.697  0.5738  0.8060 -0.4808
  981MOL0     C29383   9.609   8.041   6.611  0.5864 -0.4878 -0.4005
  981MOL0     O29384   9.481   8.009   6.662  0.2549 -0.5667  0.2435
  981MOL0     C29385   9.364   8.073   6.608  0.8896 -0.0675  0.7111
  981MOL0     C29386   9.354   8.171   6.512 -0.1304 -0.6595 -0.0703
  981MOL0     C29387   9.234   8.222   6.469  0.6555  0.9429  0.0045
  981MOL0     C29388   9.117   8.201   6.539 -0.9371  0.6605  0.7535
  981MOL0     C29389   8.987   8.282   6.520 -0.0112 -0.1325  0.5320
  981MOL0     O29390   8.894   8.252   6.613 -0.1678 -0.0085 -0.2165
  981MOL0     C29391   8.800   8.342   6.657 -0.2776 -0.0693 -0.3304
  981MOL0     C29392   8.805   8.476   6.619 -0.0994  0.8024  0.1608
  981MOL0     C29393   8.700   8.557   6.660  0.1458  0.1408  0.3349
  981MOL0     C29394   8.601   8.511   6.746  0.2592 -0.6532  0.4570
  981MOL0     O29395   8.510   8.605   6.785  0.1293 -0.3470  1.2220
  981MOL0     C29396   8.436   8.565   6.901  0.1263 -0.2778 -0.4611
  981MOL0     C29397   8.333   8.670   6.946  0.4398  0.1861 -0.6534
  981MOL0     C29398   8.236   8.709   6.834  0.2145  0.3396  0.0389
  981MOL0     C29399   8.139   8.820   6.872 -0.4931  0.6226 -0.4061
  981MOL0     C29400   8.060   8.886   6.751  1.5086 -0.1884  0.3398
  981MOL0     C29401   7.970   9.003   6.810 -0.0794  0.5499 -0.0434
  981MOL0     C29402   7.874   9.062   6.713  0.3833 -0.1034 -0.3890
  981MOL0     C29403   7.795   9.178   6.791  0.2476  0.7668  0.6843
  981MOL0    Cl29404   7.664   9.113   6.897 -0.6225 -0.1289  0.1481
  981MOL0     C29405   8.602   8.378   6.792  0.5074 -0.2244 -0.2280
  981MOL0     C29406   8.699   8.292   6.739  0.0298  0.5651  0.0862
  981MOL0     O29407   8.977   8.369   6.425  0.0949  0.0768 -0.6942
  981MOL0     C29408   9.127   8.098   6.632  0.8216 -0.5257 -0.5412
  981MOL0     C29409   9.250   8.041   6.669 -0.3280 -0.4007  0.3087
  981MOL0     N29410  10.117   8.115   6.568 -0.2573 -0.5583  0.2466
  981MOL0     N29411  10.240   8.139   6.589 -0.6385  0.2821  0.3354
  981MOL0     C29412  11.257   8.952   6.801 -0.0927  0.8312 -0.0732
  981MOL0     C29413  11.324   9.056   6.742 -1.1830  0.1146 -0.5042
  981MOL0     C29414  11.416   9.479   6.599  1.8023 -0.0283  0.8374
  981MOL0     C29415  11.392   9.593   6.514  0.0467  0.6178  0.3255
  981MOL0     C29416  11.481   9.698   6.514  0.2848  0.3654 -0.3095
  981MOL0     C29417  11.592   9.699   6.599  1.1848 -0.1786 -0.7411
  981MOL0     O29418  11.681   9.800   6.599  0.5630  0.5322  0.4167
  981MOL0     C29419  11.744   9.839   6.733 -1.6531 -0.2785  0.8933
  981MOL0     C29420  11.763   9.983   6.736 -0.2033  0.2147 -0.4381
  981MOL0     C29421  11.630  10.050   6.752 -0.0581 -0.1631 -0.1760
  981MOL0     C29422  11.645  10.189   6.798  0.5364 -0.6186  0.2964
  981MOL0     C29423  11.607  10.281   6.685 -0.3715  0.3254 -0.1634
  981MOL0     C29424  11.574  10.354   6.593 -0.6943  0.0951 -0.3648
  981MOL0     C29425  11.608   9.599   6.698  0.0627 -0.1087  0.3231
  981MOL0     C29426  11.517   9.482   6.695  0.0514 -0.2753  0.2159
  981MOL0     H29427  11.096   9.301   6.758  3.1539  1.9519 -0.2047
  981MOL0     H29428  10.971   9.112   6.867  0.1428 -2.3129  4.4196
  981MOL0     H29429  10.907   8.844   6.774 -0.1737  1.2796  0.9627
  981MOL0     H29430  10.874   8.897   6.945  3.0019 -0.3879  3.0349
  981MOL0     H29431  10.897   8.680   7.017 -3.2996  2.9766  0.2841
  981MOL0     H29432  10.981   8.622   6.869  0.4503 -0.3421  0.4240
  981MOL0     H29433  10.794   8.620   6.747  1.8138 -0.4453  1.5942
  981MOL0     H29434  10.703   8.740   6.825  2.1275  1.2493 -4.7384
  981MOL0     H29435  10.757   8.458   6.953 -2.1269 -2.3826 -0.7008
  981MOL0     H29436  10.654   8.579   7.014  0.4148  1.2712 -2.0415
  981MOL0     H29437  10.613   8.445   6.736 -2.1627 -2.9120 -0.0758
  981MOL0     H29438  10.491   8.533   6.827  0.7311  1.2980 -1.5074
  981MOL0     H29439  10.490   8.337   6.993  0.7656 -0.9447  0.6590
  981MOL0     H29440  10.601   8.253   6.872 -0.4012 -1.1834  0.8338
  981MOL0     H29441  10.306   8.332   6.821 -1.3413 -3.3443  0.5529
  981MOL0     H29442  10.429   8.322   6.697  1.9404  0.4981  0.5072
  981MOL0     H29443  10.367   8.094   6.885 -0.0014  1.1169  1.1052
  981MOL0     H29444  10.452   8.083   6.732 -0.8744 -0.2662 -0.9543
  981MOL0     H29445  10.115   8.075   6.883  0.0461  0.7152 -0.1974
  981MOL0     H29446   9.871   7.991   6.765  0.3754 -0.5956 -1.0318
  981MOL0     H29447   9.892   7.978   6.595 -0.1925  0.8925 -0.2978
  981MOL0     H29448   9.826   8.214   6.560 -1.1335 -0.3667  0.3897
  981MOL0     H29449   9.863   8.248   6.720 -3.2006  0.1857  0.7774
  981MOL0     H29450   9.679   8.107   6.799  2.7559  1.3165 -0.2827
  981MOL0     H29451   9.623   8.240   6.678  2.6076  1.8462 -1.3880
  981MOL0     H29452   9.665   7.947   6.620  0.1910 -0.6614  0.3271
  981MOL0     H29453   9.608   8.069   6.505  0.8507 -1.6655 -0.7354
  981MOL0     H29454   9.439   8.198   6.450 -0.5685  0.7411 -0.1013
  981MOL0     H29455   9.240   8.293   6.387  1.7379 -0.9730 -1.6712
  981MOL0     H29456   8.873   8.519   6.547 -0.1416 -1.0665 -1.0565
  981MOL0     H29457   8.703   8.661   6.629 -1.7896 -0.2808 -1.4459
  981MOL0     H29458   8.510   8.548   6.979  1.7203 -0.4854 -1.9435
  981MOL0     H29459   8.376   8.473   6.892 -0.5742 -0.0105  1.2485
  981MOL0     H29460   8.387   8.761   6.975  1.0081 -0.9980  2.4314
  981MOL0     H29461   8.284   8.620   7.029 -0.0473  0.9207 -0.4940
  981MOL0     H29462   8.181   8.622   6.798 -0.8350  0.8197  0.4531
  981MOL0     H29463   8.296   8.746   6.750 -2.2994  1.5117 -1.3389
  981MOL0     H29464   8.074   8.776   6.947  1.0894 -0.9875  0.0826
  981MOL0     H29465   8.187   8.903   6.925  1.6983 -1.2079  0.6330
  981MOL0     H29466   7.992   8.819   6.698 -1.8378  1.9215  1.6479
  981MOL0     H29467   8.141   8.935   6.695  2.8132 -3.4831 -0.8877
  981MOL0     H29468   8.037   9.087   6.832  1.8805 -0.3969 -1.8717
  981MOL0     H29469   7.931   8.969   6.906  1.6812 -1.6052  0.0025
  981MOL0     H29470   7.919   9.093   6.618  0.8017 -2.9634 -1.2305
  981MOL0     H29471   7.801   8.988   6.683  2.6887 -1.6461 -2.6039
  981MOL0     H29472   7.732   9.229   6.717 -2.6783 -1.9719  1.0691
  981MOL0     H29473   7.853   9.261   6.833 -1.4555  3.0411 -1.2081
  981MOL0     H29474   8.530   8.348   6.868 -0.9678  2.9269 -0.2408
  981MOL0     H29475   8.706   8.188   6.770 -0.6148  0.5159  0.0675
  981MOL0     H29476   9.047   8.071   6.701 -0.0130 -0.0606 -1.3163
  981MOL0     H29477   9.261   7.953   6.732 -0.2299 -2.1858 -2.0881
  981MOL0     H29478  11.305   8.855   6.805 -0.8365  0.3943 -1.1882
  981MOL0     H29479  11.427   9.035   6.715 -0.6321 -0.1923  1.6789
  981MOL0     H29480  11.304   9.583   6.452  0.5117  1.6216 -0.5287
  981MOL0     H29481  11.453   9.783   6.452 -3.5093 -2.2595 -2.5975
  981MOL0     H29482  11.835   9.778   6.731 -1.4515 -0.1102 -2.6831
  981MOL0     H29483  11.676   9.806   6.812 -2.5016 -0.8438 -0.0516
  981MOL0     H29484  11.838  10.002   6.814  1.0366 -0.2973 -1.4708
  981MOL0     H29485  11.803  10.009   6.637 -1.2282 -1.5106 -1.3394
  981MOL0     H29486  11.575  10.001   6.833  2.9991  0.7329  2.6540
  981MOL0     H29487  11.576  10.035   6.658  0.1772  0.6650 -0.4542
  981MOL0     H29488  11.579  10.211   6.883 -1.2452  0.8771 -1.3689
  981MOL0     H29489  11.744  10.221   6.830  1.0377  1.4808 -2.8430
  981MOL0     H29490  11.555  10.416   6.508  3.5193 -1.1105 -2.4960
  981MOL0     H29491  11.691   9.590   6.768 -0.5613 -0.2842  1.0594
  981MOL0     H29492  11.536   9.400   6.764 -0.9893 -1.8600 -1.2789
  982MOL0     O29493   1.581   4.935   7.376 -0.6944  0.4283 -0.2620
  982MOL0     C29494   1.698   4.957   7.400 -0.7117 -0.9531  0.3958
  982MOL0     O29495   1.790   4.864   7.432 -0.2500  0.0450 -0.4294
  982MOL0     C29496   1.749   4.739   7.418  0.8429  0.0659 -0.1854
  982MOL0     C29497   1.682   4.681   7.529 -0.7114 -0.2550 -0.0044
  982MOL0     C29498   1.625   4.549   7.520  0.4202  0.0908  0.9363
  982MOL0     C29499   1.644   4.472   7.401 -0.5551 -0.0203  0.1422
  982MOL0     O29500   1.589   4.349   7.400 -0.7111  0.1399 -1.0433
  982MOL0     C29501   1.558   4.298   7.273  0.5316 -0.3724  0.3105
  982MOL0     C29502   1.666   4.199   7.225  0.2457 -0.0516  0.1211
  982MOL0     C29503   1.611   4.127   7.106  0.2643 -0.1848 -0.4357
  982MOL0     C29504   1.720   4.032   7.051  0.5110  0.4377 -0.1377
  982MOL0     C29505   1.658   3.917   6.965  0.1334  0.2437  0.0865
  982MOL0     C29506   1.543   3.840   7.040  0.0026 -0.0918  0.6828
  982MOL0     C29507   1.575   3.786   7.181  0.0648  0.3471 -0.1122
  982MOL0     C29508   1.447   3.708   7.243 -0.6022 -0.7422  0.0685
  982MOL0     N29509   1.433   3.585   7.171 -0.1578 -1.6219 -0.6194
  982MOL0     C29510   1.339   3.569   7.075 -0.1409 -0.4905  0.1046
  982MOL0     C29511   1.351   3.438   7.038 -0.1446  0.4569  0.7508
  982MOL0     C29512   1.287   3.362   6.921 -0.9427 -0.1448  0.7061
  982MOL0     C29513   1.136   3.334   6.953  0.1864 -0.0412  0.2452
  982MOL0     C29514   1.078   3.255   6.842  0.7696 -0.0570 -0.2772
  982MOL0     C29515   0.924   3.243   6.850  0.5661  0.2907 -1.2950
  982MOL0     O29516   0.899   3.185   6.980 -0.4795  0.3139  0.4044
  982MOL0     C29517   0.771   3.139   7.002 -0.3185 -1.1840 -0.0815
  982MOL0     C29518   0.661   3.155   6.920  0.4069 -0.0721  0.3950
  982MOL0     C29519   0.535   3.116   6.955 -0.6774 -0.4353 -0.9106
  982MOL0     C29520   0.507   3.055   7.090 -0.6919  0.6419  0.5227
  982MOL0     C29521   0.369   3.038   7.136  0.5127 -0.2772  1.0652
  982MOL0     O29522   0.338   2.951   7.236  0.0477 -0.2975 -0.0003
  982MOL0     C29523   0.201   2.936   7.275 -0.7715  0.2007  0.2789
  982MOL0     C29524   0.188   2.887   7.406  0.0605  0.6088 -0.6961
  982MOL0     C29525   0.062   2.846   7.454  0.8245 -0.2224 -0.4749
  982MOL0     C29526  -0.047   2.840   7.371  0.6007 -0.7820 -0.4517
  982MOL0     O29527  -0.159   2.802   7.431  0.4227 -0.1653 -0.0985
  982MOL0     C29528  -0.282   2.831   7.377  1.0226 -0.5735  0.2321
  982MOL0     C29529  -0.392   2.797   7.472 -0.0763 -0.0259 -0.1341
  982MOL0     C29530  -0.534   2.777   7.416 -0.2830 -0.6318  0.0618
  982MOL0     C29531  -0.631   2.734   7.526  0.0730 -0.1959 -0.6568
  982MOL0     C29532  -0.741   2.656   7.463  1.2770  0.4392 -0.1659
  982MOL0     C29533  -0.860   2.617   7.568 -0.5203 -0.3057  0.3444
  982MOL0     C29534  -0.818   2.573   7.708  0.6304 -0.1572 -0.3645
  982MOL0     C29535  -0.748   2.452   7.706  0.3557  0.3874  0.6639
  982MOL0    Cl29536  -0.842   2.315   7.645 -0.2419  0.0236  0.0461
  982MOL0     C29537  -0.035   2.894   7.238 -0.1927 -0.3693 -0.0972
  982MOL0     C29538   0.090   2.941   7.196  0.6340 -0.5522  0.0764
  982MOL0     O29539   0.282   3.107   7.079  0.4547 -0.0928  0.5444
  982MOL0     C29540   0.623   3.026   7.169  0.7564  1.0302  0.4151
  982MOL0     C29541   0.757   3.068   7.122  0.6922 -0.3701 -1.0641
  982MOL0     N29542   1.445   3.375   7.123  0.7860  0.6761  0.0326
  982MOL0     N29543   1.489   3.463   7.197  0.3812 -0.8410  0.4999
  982MOL0     C29544   1.709   4.540   7.290  0.0921 -0.0676  0.3577
  982MOL0     C29545   1.756   4.675   7.295 -0.7088 -0.3868  0.2883
  982MOL0     C29546   1.740   5.099   7.412 -0.6850  0.7395 -0.3983
  982MOL0     C29547   1.679   5.190   7.329 -0.3105  0.0096  0.5755
  982MOL0     C29548   1.735   5.313   7.327  0.4386 -1.2414 -0.6588
  982MOL0     C29549   1.849   5.356   7.398  0.2050 -0.2468  0.8663
  982MOL0     O29550   1.908   5.479   7.407 -0.5038 -0.3109 -0.5936
  982MOL0     C29551   1.856   5.594   7.356  0.3898 -0.2495  0.0607
  982MOL0     C29552   1.906   5.600   7.211  0.2686 -1.4173  0.5589
  982MOL0     C29553   1.811   5.687   7.132 -0.1030 -0.9990 -0.6788
  982MOL0     C29554   1.668   5.627   7.120  0.4745 -0.0131  1.0224
  982MOL0     C29555   1.577   5.689   7.024  0.2518  0.7882 -0.9829
  982MOL0     C29556   1.503   5.732   6.944 -0.3596 -0.4975  0.9915
  982MOL0     C29557   1.911   5.256   7.470 -0.9917 -0.1232 -0.0515
  982MOL0     C29558   1.853   5.128   7.481  0.0901  0.2007 -0.1515
  982MOL0     H29559   1.667   4.747   7.614 -1.5667 -0.4598  0.0158
  982MOL0     H29560   1.567   4.521   7.607 -0.4664  0.4804  0.4877
  982MOL0     H29561   1.524   4.369   7.197 -0.5760 -0.3314  0.8260
  982MOL0     H29562   1.473   4.230   7.279  0.1932 -0.1032 -1.1428
  982MOL0     H29563   1.697   4.125   7.299  2.1761 -3.0434 -3.3638
  982MOL0     H29564   1.755   4.258   7.200 -1.1312  2.7498  1.3305
  982MOL0     H29565   1.570   4.205   7.042 -0.2207  1.1213  1.3618
  982MOL0     H29566   1.519   4.080   7.144  1.7347 -1.3683  1.9730
  982MOL0     H29567   1.789   4.089   6.988  2.6321 -1.0989  0.6726
  982MOL0     H29568   1.768   3.994   7.142 -1.8240  0.6963  1.2938
  982MOL0     H29569   1.733   3.852   6.918  0.4575  1.1544 -0.6820
  982MOL0     H29570   1.604   3.966   6.884  0.8106 -0.5812 -0.8864
  982MOL0     H29571   1.511   3.762   6.972 -0.5662  1.3227 -0.7451
  982MOL0     H29572   1.448   3.893   7.050 -0.2407  0.0977 -1.8677
  982MOL0     H29573   1.647   3.704   7.170 -1.3171 -1.0963  1.0069
  982MOL0     H29574   1.606   3.856   7.259  0.5757 -3.0456  3.0690
  982MOL0     H29575   1.351   3.759   7.235  0.8816  2.0744 -1.1093
  982MOL0     H29576   1.462   3.686   7.350 -2.6589  2.1850  1.0706
  982MOL0     H29577   1.278   3.643   7.023  0.2603 -1.2287 -1.4997
  982MOL0     H29578   1.340   3.268   6.901 -1.1810 -0.3351  0.9609
  982MOL0     H29579   1.294   3.423   6.831  0.2036 -1.5871 -0.2362
  982MOL0     H29580   1.076   3.423   6.970  1.1039  1.0607 -1.8990
  982MOL0     H29581   1.128   3.267   7.040  1.6827  0.0752  0.5132
  982MOL0     H29582   1.103   3.309   6.751 -1.9584 -1.5827 -2.0865
  982MOL0     H29583   1.126   3.156   6.839  1.5685  0.3471 -2.2617
  982MOL0     H29584   0.885   3.185   6.766 -1.3023 -2.0434  0.9987
  982MOL0     H29585   0.882   3.342   6.834  1.6987  0.4870 -3.4827
  982MOL0     H29586   0.669   3.199   6.821  0.6359 -0.8392  0.0617
  982MOL0     H29587   0.467   3.141   6.874 -0.5091  1.9487 -0.3757
  982MOL0     H29588   0.272   2.885   7.474  0.8984  0.9574 -1.7087
  982MOL0     H29589   0.045   2.798   7.550  1.3741  0.3652 -0.0772
  982MOL0     H29590  -0.315   2.799   7.278 -3.6643  0.3597  1.2241
  982MOL0     H29591  -0.287   2.941   7.375 -2.3310 -0.5593 -3.4850
  982MOL0     H29592  -0.394   2.880   7.543 -0.1110  1.0367 -1.3296
  982MOL0     H29593  -0.365   2.700   7.514  0.6078  0.1197 -0.2368
  982MOL0     H29594  -0.522   2.705   7.335 -0.8560 -0.1128 -0.4882
  982MOL0     H29595  -0.569   2.872   7.374  2.5901  1.9530  2.9038
  982MOL0     H29596  -0.574   2.683   7.604  0.9472  3.5885  1.4486
  982MOL0     H29597  -0.680   2.816   7.580 -0.1286  0.4351 -1.7711
  982MOL0     H29598  -0.705   2.554   7.445  4.1514  1.0287  1.5771
  982MOL0     H29599  -0.762   2.716   7.374  0.1124  3.0246  1.7211
  982MOL0     H29600  -0.915   2.539   7.516  1.5287 -2.2187  0.9001
  982MOL0     H29601  -0.917   2.710   7.574  0.6541  0.6145 -1.7521
  982MOL0     H29602  -0.747   2.640   7.758 -0.2014  0.6410 -0.2151
  982MOL0     H29603  -0.908   2.581   7.769  1.9355 -1.2733  1.8461
  982MOL0     H29604  -0.732   2.436   7.813 -3.4779 -1.8069  1.1059
  982MOL0     H29605  -0.655   2.461   7.649 -0.1850  0.8274 -0.1755
  982MOL0     H29606  -0.115   2.874   7.168  2.8464 -0.9581 -3.7456
  982MOL0     H29607   0.091   2.978   7.094 -0.5916  2.8065  1.1524
  982MOL0     H29608   0.617   2.982   7.268 -0.1590  0.6175  0.1922
  982MOL0     H29609   0.836   3.037   7.190 -0.0044 -0.1507 -0.1306
  982MOL0     H29610   1.709   4.495   7.191 -3.7374  1.3729 -0.4823
  982MOL0     H29611   1.794   4.727   7.207 -2.0045 -4.1227 -2.7382
  982MOL0     H29612   1.595   5.176   7.261  0.0449 -0.7715  0.2785
  982MOL0     H29613   1.694   5.382   7.253  1.3111 -0.2792 -0.2643
  982MOL0     H29614   1.884   5.681   7.417  2.4736 -0.5070 -0.4784
  982MOL0     H29615   1.747   5.582   7.356  0.5575 -2.3280  1.9727
  982MOL0     H29616   2.008   5.636   7.197 -0.9318  0.9506 -4.1032
  982MOL0     H29617   1.909   5.501   7.164  1.0837 -0.5612 -1.2675
  982MOL0     H29618   1.852   5.705   7.032  2.4042  2.5058  0.7622
  982MOL0     H29619   1.809   5.791   7.164 -2.3595 -0.8185 -1.2568
  982MOL0     H29620   1.671   5.522   7.088 -2.4259  0.3132 -0.7313
  982MOL0     H29621   1.623   5.623   7.220  0.2288 -2.9096  0.8711
  982MOL0     H29622   1.442   5.762   6.861 -0.2256 -2.7934  0.0055
  982MOL0     H29623   1.993   5.278   7.538 -0.1576 -1.9959 -0.3965
  982MOL0     H29624   1.912   5.059   7.540  0.4396  0.4827 -0.1635
  983MOL0     O29625  10.281  10.032   8.064 -0.0543  0.0547  0.1539
  983MOL0     C29626  10.278  10.019   8.188  0.4055 -0.8213  0.3954
  983MOL0     O29627  10.239   9.907   8.256  0.1316  0.1485 -0.6860
  983MOL0     C29628  10.201   9.791   8.182  1.5560 -0.0773  0.5914
  983MOL0     C29629  10.242   9.668   8.224  0.7707  0.6499 -0.4976
  983MOL0     C29630  10.207   9.554   8.152 -0.3853  0.3517 -1.1671
  983MOL0     C29631  10.117   9.555   8.051  0.6648  0.0861  0.2426
  983MOL0     O29632  10.093   9.437   7.996  0.3048  0.3049 -0.0931
  983MOL0     C29633  10.079   9.437   7.853 -0.8253  0.7295  1.1858
  983MOL0     C29634  10.138   9.309   7.790  0.6679 -0.0969 -1.2239
  983MOL0     C29635  10.051   9.177   7.781  0.5211 -0.2959 -0.5096
  983MOL0     C29636   9.933   9.196   7.685 -0.0377  0.4923  0.5936
  983MOL0     C29637   9.835   9.082   7.699 -0.3253 -0.2215  0.2384
  983MOL0     C29638   9.894   8.946   7.736 -0.6423  0.1523 -0.1915
  983MOL0     C29639   9.777   8.849   7.722  0.0047  0.5733 -0.3720
  983MOL0     C29640   9.730   8.819   7.579 -1.2250 -0.4470 -0.8691
  983MOL0     N29641   9.612   8.732   7.569  0.2755 -0.2392 -0.5287
  983MOL0     C29642   9.578   8.612   7.624  0.1273  0.0017  0.0136
  983MOL0     C29643   9.461   8.566   7.566 -0.8958 -0.0010 -0.9485
  983MOL0     C29644   9.405   8.424   7.591  0.0068  0.2934 -0.4672
  983MOL0     C29645   9.268   8.393   7.530 -0.8479 -0.0272 -0.9093
  983MOL0     C29646   9.156   8.428   7.630 -0.5394 -0.2852  0.6402
  983MOL0     C29647   9.021   8.429   7.569 -0.3825  0.8375 -0.2870
  983MOL0     O29648   9.002   8.550   7.502  0.3578  0.0448  0.9861
  983MOL0     C29649   8.887   8.563   7.422  0.6775  0.9306  0.1561
  983MOL0     C29650   8.910   8.615   7.302 -0.1075  0.0199  1.1066
  983MOL0     C29651   8.806   8.678   7.223  0.0860  0.3795  0.2084
  983MOL0     C29652   8.678   8.672   7.267 -0.1816 -0.1404 -0.4361
  983MOL0     C29653   8.575   8.746   7.205  0.6134 -0.3868  0.1520
  983MOL0     O29654   8.453   8.740   7.266 -0.0555  0.2345 -0.7077
  983MOL0     C29655   8.340   8.812   7.243  0.0735 -0.9705 -1.8494
  983MOL0     C29656   8.218   8.757   7.262 -0.3211 -0.5232 -0.6840
  983MOL0     C29657   8.099   8.840   7.286 -0.1963  0.8779  0.8362
  983MOL0     C29658   8.115   8.975   7.281  0.5097 -0.0427 -0.7290
  983MOL0     O29659   7.997   9.038   7.305  0.3375  1.0801 -0.1517
  983MOL0     C29660   7.973   9.166   7.260  0.3393 -0.3170  0.0125
  983MOL0     C29661   7.938   9.191   7.118 -0.5234  0.5962  0.4435
  983MOL0     C29662   7.941   9.343   7.095  0.4780 -0.1135 -0.0702
  983MOL0     C29663   7.799   9.405   7.120  0.1419  0.1821  1.0036
  983MOL0     C29664   7.805   9.560   7.095  0.3425  1.1315 -0.5334
  983MOL0     C29665   7.661   9.610   7.094  0.3655 -0.9546 -1.4369
  983MOL0     C29666   7.653   9.741   7.018 -0.5456 -0.1619 -0.4205
  983MOL0     C29667   7.685   9.723   6.871  0.1841  1.1243 -0.1936
  983MOL0    Cl29668   7.561   9.619   6.788  0.9598  0.1821 -0.3126
  983MOL0     C29669   8.242   9.034   7.259 -0.6306  0.1141 -0.8605
  983MOL0     C29670   8.351   8.949   7.239 -0.3165 -0.3237 -0.1445
  983MOL0     O29671   8.609   8.819   7.112  0.6797 -0.5052  0.5340
  983MOL0     C29672   8.655   8.613   7.394 -0.1159  0.8794 -0.5533
  983MOL0     C29673   8.757   8.543   7.466 -0.1965  1.1957 -0.2541
  983MOL0     N29674   9.420   8.667   7.479 -0.2399 -0.0536 -0.5091
  983MOL0     N29675   9.510   8.765   7.484 -0.3917  0.7164 -0.5705
  983MOL0     C29676  10.067   9.678   8.001  0.2500  1.4282  0.0563
  983MOL0     C29677  10.116   9.791   8.070  0.2224  0.0356  0.2033
  983MOL0     C29678  10.345  10.128   8.267 -0.5060  0.4949 -0.8119
  983MOL0     C29679  10.367  10.261   8.223 -1.0143  0.0518  0.7070
  983MOL0     C29680  10.426  10.361   8.307 -0.0211  0.5305 -0.5939
  983MOL0     C29681  10.463  10.329   8.440  0.4024 -0.6374  0.9926
  983MOL0     O29682  10.524  10.409   8.524 -0.1445 -0.3713  0.0011
  983MOL0     C29683  10.529  10.553   8.482 -0.1079 -0.0356  0.8696
  983MOL0     C29684  10.616  10.633   8.578  0.8034  0.1545 -0.1564
  983MOL0     C29685  10.529  10.703   8.677 -0.4232 -0.9637 -0.1050
  983MOL0     C29686  10.610  10.722   8.809 -0.0534  0.5088  0.0573
  983MOL0     C29687  10.534  10.780   8.928 -1.1814  0.3153 -0.7181
  983MOL0     C29688  10.463  10.817   9.014  0.2454 -0.3452  0.4200
  983MOL0     C29689  10.444  10.198   8.484  0.6295  0.2030  0.0664
  983MOL0     C29690  10.368  10.101   8.407 -0.1282  0.0271 -0.0226
  983MOL0     H29691  10.315   9.659   8.303  0.3421 -0.5877 -0.2238
  983MOL0     H29692  10.238   9.459   8.194 -0.1073  1.2204  0.7022
  983MOL0     H29693  10.143   9.518   7.817  1.2629 -0.0261  3.0158
  983MOL0     H29694   9.975   9.462   7.830 -1.5258  0.0443  3.3929
  983MOL0     H29695  10.222   9.289   7.857  1.1189 -0.0630 -1.7732
  983MOL0     H29696  10.184   9.328   7.692  3.8361 -2.2435 -0.3225
  983MOL0     H29697  10.019   9.150   7.882  3.0601 -1.6518  0.0186
  983MOL0     H29698  10.116   9.097   7.746  2.9847  0.3752  2.0952
  983MOL0     H29699   9.872   9.285   7.699 -0.0809  0.6230 -0.3851
  983MOL0     H29700   9.967   9.197   7.581  1.1513  0.7860  0.9611
  983MOL0     H29701   9.784   9.084   7.602 -0.8003 -0.2577  0.4830
  983MOL0     H29702   9.763   9.104   7.778  1.3658  0.9260  1.5242
  983MOL0     H29703   9.944   8.951   7.834  0.4311  0.3645 -0.7305
  983MOL0     H29704   9.973   8.913   7.668 -1.9315  0.9334 -2.1602
  983MOL0     H29705   9.809   8.754   7.766  0.9048  0.0949 -1.9489
  983MOL0     H29706   9.691   8.877   7.783  1.0540 -0.4017  1.6659
  983MOL0     H29707   9.815   8.790   7.517  0.6357  2.2426  0.2123
  983MOL0     H29708   9.712   8.918   7.535  2.7521  1.2366  0.7878
  983MOL0     H29709   9.648   8.559   7.687  1.3634  0.5488 -0.8484
  983MOL0     H29710   9.396   8.417   7.699 -0.5997  0.8903 -0.4743
  983MOL0     H29711   9.462   8.332   7.572 -2.4274 -1.2767 -0.6064
  983MOL0     H29712   9.259   8.287   7.503  3.3816 -0.7686 -0.1540
  983MOL0     H29713   9.257   8.460   7.444  3.8289 -2.4557 -3.8165
  983MOL0     H29714   9.146   8.347   7.703 -2.5379 -0.3108  0.4050
  983MOL0     H29715   9.174   8.522   7.683 -1.2301 -1.1573  2.5162
  983MOL0     H29716   8.939   8.426   7.641 -0.1112 -2.4694  0.0398
  983MOL0     H29717   9.028   8.344   7.501 -0.1530 -0.6633  1.5379
  983MOL0     H29718   9.012   8.621   7.266 -0.5655  1.2183 -0.0430
  983MOL0     H29719   8.838   8.715   7.126  1.9679 -2.5173 -0.3907
  983MOL0     H29720   8.200   8.651   7.277 -0.8588 -0.5005 -1.1574
  983MOL0     H29721   8.005   8.788   7.299 -0.3216  0.5059 -1.2447
  983MOL0     H29722   8.055   9.236   7.276  0.4389 -0.7365  1.5272
  983MOL0     H29723   7.887   9.203   7.318  0.5086  1.3263 -0.7177
  983MOL0     H29724   7.848   9.136   7.090 -0.8650  1.6618 -0.6028
  983MOL0     H29725   8.019   9.143   7.062  0.7152  2.4034  0.6187
  983MOL0     H29726   7.976   9.363   6.993 -0.8632  0.6071 -0.4299
  983MOL0     H29727   8.015   9.390   7.160  1.1524 -1.7495  0.3796
  983MOL0     H29728   7.725   9.348   7.063  0.5793 -1.0667  1.6332
  983MOL0     H29729   7.770   9.382   7.223 -0.6241 -1.6348  0.4353
  983MOL0     H29730   7.870   9.580   7.009  2.7439 -1.7234  0.4461
  983MOL0     H29731   7.860   9.592   7.184 -1.1447  1.8483  0.1579
  983MOL0     H29732   7.639   9.627   7.199  0.1739 -1.7609 -1.3403
  983MOL0     H29733   7.582   9.541   7.063  0.2561 -2.3022  1.5111
  983MOL0     H29734   7.560   9.795   7.035 -0.3956 -0.1590  0.4050
  983MOL0     H29735   7.731   9.801   7.066 -1.2313 -2.7311  4.5361
  983MOL0     H29736   7.780   9.670   6.859 -1.3527 -2.2929  1.3557
  983MOL0     H29737   7.696   9.821   6.823 -1.9242  0.5411 -2.0213
  983MOL0     H29738   8.265   9.140   7.256  2.5226 -0.1495  4.0339
  983MOL0     H29739   8.445   9.002   7.253 -2.0710  3.0199  0.0317
  983MOL0     H29740   8.553   8.612   7.431  1.1223  0.4942  3.3058
  983MOL0     H29741   8.737   8.504   7.566  2.2727  3.2221  1.1559
  983MOL0     H29742  10.003   9.690   7.914  0.4790  4.6378  0.2158
  983MOL0     H29743  10.078   9.889   8.042  3.1447  1.7989  1.9631
  983MOL0     H29744  10.331  10.288   8.124  1.7962  1.0954 -0.1330
  983MOL0     H29745  10.433  10.460   8.262  0.5666  0.9922  0.4717
  983MOL0     H29746  10.426  10.590   8.482  0.0169  0.5553 -1.7731
  983MOL0     H29747  10.562  10.571   8.379 -2.3281 -1.1758 -0.1121
  983MOL0     H29748  10.682  10.559   8.624 -1.4566 -1.4553  0.6695
  983MOL0     H29749  10.678  10.701   8.519 -2.1585  1.8619 -1.5321
  983MOL0     H29750  10.431  10.658   8.697 -0.8596 -0.1962 -0.5030
  983MOL0     H29751  10.511  10.802   8.634 -1.1473 -0.6591  0.8576
  983MOL0     H29752  10.641  10.624   8.844 -3.0486 -1.3789 -2.1074
  983MOL0     H29753  10.708  10.766   8.790  1.7240 -3.2666 -0.2310
  983MOL0     H29754  10.401  10.865   9.087  0.5328 -2.3798  2.0930
  983MOL0     H29755  10.476  10.180   8.585 -3.2968 -1.9189  1.1632
  983MOL0     H29756  10.330  10.012   8.456  1.6604  0.3978  2.1672
  984MOL0     O29757   8.559   3.387   0.562 -1.2127 -0.5121 -0.7884
  984MOL0     C29758   8.585   3.486   0.634  0.0684  0.1843 -0.5508
  984MOL0     O29759   8.677   3.582   0.600  0.2733 -0.3222  0.1713
  984MOL0     C29760   8.739   3.583   0.478  0.1541 -1.2901 -0.0968
  984MOL0     C29761   8.704   3.542   0.349  1.4104 -0.4681 -0.1460
  984MOL0     C29762   8.787   3.548   0.239 -0.2746 -0.1729  0.8576
  984MOL0     C29763   8.917   3.604   0.250  0.4820 -0.3442 -0.9022
  984MOL0     O29764   8.992   3.619   0.140  0.0478 -0.0644 -0.2794
  984MOL0     C29765   9.052   3.748   0.103  0.1604 -0.8821  0.8864
  984MOL0     C29766   8.946   3.845   0.040  0.6902  0.6249 -0.9441
  984MOL0     C29767   9.026   3.955  -0.029 -0.1231  0.1298  0.8150
  984MOL0     C29768   9.084   3.939  -0.180 -0.4823  0.7400 -0.1433
  984MOL0     C29769   9.143   4.072  -0.223  1.1904 -0.5797 -0.1297
  984MOL0     C29770   9.283   4.105  -0.156  0.0331  0.8599 -0.0776
  984MOL0     C29771   9.392   4.001  -0.195  0.1998  0.2575 -0.0155
  984MOL0     C29772   9.421   3.955  -0.337 -0.2463  0.4921 -0.3493
  984MOL0     N29773   9.426   4.071  -0.426 -0.6389 -0.0625  0.2188
  984MOL0     C29774   9.340   4.085  -0.532 -1.0515 -0.2892  0.5997
  984MOL0     C29775   9.389   4.195  -0.593  0.1052 -0.4974 -0.3164
  984MOL0     C29776   9.351   4.244  -0.725  0.4283 -0.3957 -0.3406
  984MOL0     C29777   9.212   4.193  -0.776  0.6571 -0.0552  0.3737
  984MOL0     C29778   9.103   4.237  -0.691 -0.1839  0.0060  0.2809
  984MOL0     C29779   8.967   4.195  -0.750  0.4181  0.1377 -0.2768
  984MOL0     O29780   8.910   4.076  -0.697  0.1585  0.7122  0.4031
  984MOL0     C29781   8.861   4.085  -0.567  0.0782 -1.3592  0.6171
  984MOL0     C29782   8.861   4.194  -0.484 -0.4645 -0.2897 -0.6971
  984MOL0     C29783   8.814   4.175  -0.351 -0.3887  0.6282 -0.3828
  984MOL0     C29784   8.762   4.052  -0.313 -0.4160  1.2863 -1.0571
  984MOL0     C29785   8.689   4.051  -0.182 -0.4150 -0.3539  0.0890
  984MOL0     O29786   8.712   4.150  -0.086 -0.0790 -0.5489  0.0505
  984MOL0     C29787   8.623   4.163   0.013  0.4877 -0.6176 -1.1802
  984MOL0     C29788   8.587   4.294   0.036 -0.9267  0.1548 -0.7605
  984MOL0     C29789   8.521   4.333   0.156 -0.3806  0.2738 -0.6416
  984MOL0     C29790   8.495   4.237   0.259 -0.2695  1.1608 -0.4890
  984MOL0     O29791   8.444   4.260   0.383  0.1882  0.2142 -0.3966
  984MOL0     C29792   8.431   4.402   0.414 -0.0228  0.6019  1.1629
  984MOL0     C29793   8.359   4.413   0.551  0.7113 -0.2035 -0.1705
  984MOL0     C29794   8.205   4.412   0.548  0.4827 -1.0495 -0.2300
  984MOL0     C29795   8.155   4.435   0.691  0.0229  0.4290  0.0274
  984MOL0     C29796   8.005   4.452   0.699  0.1055  0.1147  0.6381
  984MOL0     C29797   7.928   4.323   0.684  0.2425  0.5391  0.4105
  984MOL0     C29798   7.776   4.334   0.680 -0.3847 -0.5854  0.8504
  984MOL0     C29799   7.718   4.402   0.804  0.1744 -0.6201  0.6365
  984MOL0    Cl29800   7.741   4.573   0.766  0.2214 -0.0490 -0.0179
  984MOL0     C29801   8.527   4.104   0.229 -0.5005  1.1639  1.5517
  984MOL0     C29802   8.602   4.061   0.109  0.3177 -0.0994 -1.2436
  984MOL0     O29803   8.627   3.952  -0.162  0.2249 -1.0439 -0.1376
  984MOL0     C29804   8.764   3.945  -0.404  0.7293 -0.3063  0.2260
  984MOL0     C29805   8.814   3.962  -0.536 -0.7924  0.8380  0.3353
  984MOL0     N29806   9.492   4.255  -0.517  0.0048  0.0682  0.3709
  984MOL0     N29807   9.516   4.177  -0.425 -0.2234  1.1332 -0.3085
  984MOL0     C29808   8.959   3.628   0.383  0.2566 -0.5390 -0.4368
  984MOL0     C29809   8.871   3.634   0.489 -0.3220 -0.1346 -0.1344
  984MOL0     C29810   8.530   3.492   0.777 -0.2370  0.6744 -0.4490
  984MOL0     C29811   8.589   3.583   0.868  0.4518 -0.8171 -0.1360
  984MOL0     C29812   8.563   3.582   1.009  0.3425  1.3091  0.4039
  984MOL0     C29813   8.477   3.483   1.060  0.8386 -0.2147 -0.3660
  984MOL0     O29814   8.433   3.466   1.187  0.1868  0.0095 -0.0766
  984MOL0     C29815   8.474   3.569   1.291  0.0276 -0.3870  0.5914
  984MOL0     C29816   8.402   3.541   1.427 -0.3052 -0.2290  0.6203
  984MOL0     C29817   8.425   3.620   1.552  0.1768  0.1738 -0.9057
  984MOL0     C29818   8.411   3.778   1.540 -0.1124 -0.2383 -0.6701
  984MOL0     C29819   8.292   3.810   1.617 -0.3474 -0.3431  0.3924
  984MOL0     C29820   8.196   3.820   1.689  0.1821  0.1968  0.2666
  984MOL0     C29821   8.420   3.391   0.967  0.3294 -0.5602 -0.5108
  984MOL0     C29822   8.447   3.401   0.832  0.8241 -0.6058  0.1291
  984MOL0     H29823   8.602   3.507   0.332  0.4367  1.7599  0.8397
  984MOL0     H29824   8.742   3.528   0.142 -0.9433  2.8397  0.4493
  984MOL0     H29825   9.128   3.725   0.028 -0.2054 -1.2824  0.6310
  984MOL0     H29826   9.100   3.797   0.188  0.3369 -0.4133  0.5226
  984MOL0     H29827   8.879   3.883   0.117  0.0108  2.1262 -2.2292
  984MOL0     H29828   8.879   3.794  -0.029  1.7372 -1.9861 -0.1499
  984MOL0     H29829   9.112   3.970   0.036  0.3745 -3.6183  1.2328
  984MOL0     H29830   8.957   4.040  -0.031 -2.0138 -1.3028 -1.7839
  984MOL0     H29831   9.154   3.855  -0.181 -0.7401  0.5071  0.5073
  984MOL0     H29832   9.006   3.901  -0.246  3.3181 -1.3076 -3.9131
  984MOL0     H29833   9.077   4.156  -0.202 -1.0767 -2.4402  0.6792
  984MOL0     H29834   9.165   4.081  -0.330  0.6930  1.4194 -0.1030
  984MOL0     H29835   9.265   4.104  -0.048 -0.2094 -1.7542 -0.0899
  984MOL0     H29836   9.318   4.205  -0.183 -1.5306  1.3686 -0.3622
  984MOL0     H29837   9.489   4.028  -0.152  1.4942 -1.5176 -1.6663
  984MOL0     H29838   9.366   3.911  -0.138 -1.3598 -0.5745 -1.9181
  984MOL0     H29839   9.337   3.893  -0.370 -1.3919  1.0889  1.3210
  984MOL0     H29840   9.514   3.898  -0.340 -1.6868 -2.0090 -0.0136
  984MOL0     H29841   9.266   4.020  -0.578 -2.5128  0.1608  2.2023
  984MOL0     H29842   9.430   4.218  -0.796  2.4741  0.7044  1.4284
  984MOL0     H29843   9.356   4.353  -0.718  2.0277 -0.4613 -0.0682
  984MOL0     H29844   9.211   4.083  -0.770  0.2413 -0.0450  0.4911
  984MOL0     H29845   9.178   4.239  -0.869 -0.8151 -1.9191 -0.0726
  984MOL0     H29846   9.109   4.185  -0.594  0.4341  0.8247  0.6902
  984MOL0     H29847   9.111   4.346  -0.682 -0.3002 -0.1582  5.3323
  984MOL0     H29848   8.970   4.183  -0.859 -2.2403 -1.3911 -0.2713
  984MOL0     H29849   8.900   4.277  -0.721 -0.7137 -1.2193  1.1580
  984MOL0     H29850   8.906   4.287  -0.518 -3.3857  0.7203 -2.1186
  984MOL0     H29851   8.803   4.263  -0.288  0.7491  0.7554 -0.3407
  984MOL0     H29852   8.604   4.361  -0.048  3.6976  0.1130 -0.1070
  984MOL0     H29853   8.497   4.439   0.154 -1.4105  0.0714  0.5857
  984MOL0     H29854   8.381   4.457   0.333  0.9006 -0.1535  0.0471
  984MOL0     H29855   8.534   4.438   0.410  1.2521 -2.6490 -2.7492
  984MOL0     H29856   8.386   4.517   0.573  1.6578 -0.3324 -0.6525
  984MOL0     H29857   8.391   4.345   0.630 -0.4421 -1.3330 -0.6431
  984MOL0     H29858   8.173   4.316   0.505  0.1645 -0.7954 -0.5739
  984MOL0     H29859   8.161   4.485   0.479 -0.8974  0.5364  2.1910
  984MOL0     H29860   8.181   4.350   0.755  2.2012  1.4270  0.5714
  984MOL0     H29861   8.190   4.530   0.734 -1.7720  0.8308  0.6980
  984MOL0     H29862   7.977   4.526   0.623  0.1569 -3.0798 -2.7937
  984MOL0     H29863   7.977   4.495   0.796 -0.7094  4.6997 -1.3417
  984MOL0     H29864   7.937   4.262   0.774 -0.5958  0.4381  0.4353
  984MOL0     H29865   7.970   4.268   0.600 -2.0520 -2.0245  0.8179
  984MOL0     H29866   7.744   4.387   0.589 -0.0227 -0.6377  0.6894
  984MOL0     H29867   7.737   4.233   0.665 -1.7407 -0.1528  1.2792
  984MOL0     H29868   7.779   4.370   0.889  3.0000  1.8722 -0.2892
  984MOL0     H29869   7.616   4.366   0.819  0.2297 -1.3788 -0.6428
  984MOL0     H29870   8.501   4.026   0.300  1.3969 -1.3290 -0.2888
  984MOL0     H29871   8.641   3.960   0.100  0.2161 -0.2776  0.1476
  984MOL0     H29872   8.715   3.851  -0.381 -3.0845  0.9696 -1.7993
  984MOL0     H29873   8.819   3.882  -0.610 -1.2432  0.3440  0.8358
  984MOL0     H29874   9.059   3.656   0.414  0.3167 -0.6047 -0.5676
  984MOL0     H29875   8.923   3.632   0.584 -2.6639 -1.9873  1.2262
  984MOL0     H29876   8.667   3.653   0.840 -0.7680 -0.1218 -1.9764
  984MOL0     H29877   8.624   3.649   1.068  2.1520 -0.0958  0.2287
  984MOL0     H29878   8.442   3.666   1.252 -0.2701 -0.7891 -0.1908
  984MOL0     H29879   8.582   3.568   1.305 -0.1536 -1.5898  2.1281
  984MOL0     H29880   8.294   3.543   1.408 -1.0360 -1.4287  4.0254
  984MOL0     H29881   8.428   3.436   1.444  0.7640 -0.0878 -0.0132
  984MOL0     H29882   8.525   3.602   1.592  1.2153  0.2335 -3.3004
  984MOL0     H29883   8.351   3.573   1.617 -0.2698  1.0505 -0.7704
  984MOL0     H29884   8.503   3.829   1.571 -0.6477  0.1927  0.2239
  984MOL0     H29885   8.391   3.802   1.435  2.0857  0.1114 -1.0524
  984MOL0     H29886   8.113   3.827   1.757 -1.6812  2.1877 -2.0316
  984MOL0     H29887   8.380   3.297   1.002  1.4886 -0.8390  0.1080
  984MOL0     H29888   8.408   3.329   0.760  1.1374  0.3673 -1.0347
  985MOL0     O29889   5.380  10.203  10.049 -0.4347  0.0887 -0.9883
  985MOL0     C29890   5.337  10.262  10.150 -0.3793 -0.0543  0.0072
  985MOL0     O29891   5.314  10.400  10.155  0.0175  0.1713 -0.2333
  985MOL0     C29892   5.312  10.488  10.045 -0.5761  0.6349  0.7495
  985MOL0     C29893   5.321  10.625  10.090  0.3215  0.2261  0.4687
  985MOL0     C29894   5.337  10.734  10.000 -0.6241 -0.5503 -0.0054
  985MOL0     C29895   5.340  10.704   9.865 -0.6277  0.9386  0.1644
  985MOL0     O29896   5.329  10.801   9.768  0.2755  0.4397  0.1940
  985MOL0     C29897   5.429  10.904   9.770 -0.5464  0.1008 -0.2041
  985MOL0     C29898   5.436  10.985   9.638 -0.4167  0.6386 -0.4012
  985MOL0     C29899   5.477  10.899   9.520 -0.0538  0.0903  0.1287
  985MOL0     C29900   5.501  11.005   9.406 -0.6465 -1.0111  0.5632
  985MOL0     C29901   5.537  10.925   9.285 -0.1602  1.0163  0.5063
  985MOL0     C29902   5.576  11.014   9.163 -0.1189 -1.6378 -0.2227
  985MOL0     C29903   5.707  11.086   9.181  0.3692 -0.8499 -0.1187
  985MOL0     C29904   5.815  11.015   9.263 -0.3882 -0.0526  0.1051
  985MOL0     N29905   5.950  11.078   9.255 -0.4058  1.6389  0.0393
  985MOL0     C29906   6.061  11.029   9.194  0.2741  1.4658 -0.0518
  985MOL0     C29907   6.153  11.125   9.204  0.1567  0.4803  1.9527
  985MOL0     C29908   6.274  11.134   9.122 -0.5449  0.3366 -0.0570
  985MOL0     C29909   6.392  11.210   9.194 -0.5614 -0.3109  0.0671
  985MOL0     C29910   6.517  11.224   9.097  0.2486 -0.1873  0.8777
  985MOL0     C29911   6.484  11.355   9.013 -0.3313  1.1216  0.3298
  985MOL0     O29912   6.596  11.383   8.928 -0.2532  0.4508  0.2106
  985MOL0     C29913   6.587  11.361   8.792  0.0130  0.0979  0.2397
  985MOL0     C29914   6.479  11.290   8.731  0.3493 -1.1368 -0.3582
  985MOL0     C29915   6.479  11.281   8.597  0.4290  0.6775 -0.0249
  985MOL0     C29916   6.589  11.330   8.515  0.5169  0.3485  0.5071
  985MOL0     C29917   6.582  11.324   8.374  0.1307 -0.9654 -0.0593
  985MOL0     O29918   6.701  11.360   8.310  0.1366 -0.2892 -0.8273
  985MOL0     C29919   6.702  11.340   8.175  0.1855 -0.4670  0.0420
  985MOL0     C29920   6.793  11.245   8.133 -0.4241 -0.3075 -0.8228
  985MOL0     C29921   6.810  11.224   7.996 -1.3380 -0.5283 -0.8231
  985MOL0     C29922   6.751  11.298   7.902 -0.3124 -0.8557 -0.2572
  985MOL0     O29923   6.789  11.271   7.773  0.2740 -0.0166 -0.2297
  985MOL0     C29924   6.819  11.388   7.706  0.1316  0.6993 -0.0463
  985MOL0     C29925   6.800  11.362   7.555 -1.2684  1.0226 -0.0231
  985MOL0     C29926   6.655  11.383   7.525  0.1457 -0.0825  0.1355
  985MOL0     C29927   6.610  11.355   7.376  0.3433  0.4226 -0.2579
  985MOL0     C29928   6.457  11.367   7.365 -0.8314 -0.0691  0.3226
  985MOL0     C29929   6.399  11.342   7.224 -0.6509 -0.4174  0.0072
  985MOL0     C29930   6.242  11.349   7.242  0.2412 -0.1627 -0.3628
  985MOL0     C29931   6.181  11.497   7.234  0.3446  0.2136  0.1394
  985MOL0    Cl29932   5.997  11.475   7.261 -0.2082  0.0368  0.0668
  985MOL0     C29933   6.648  11.388   7.947  0.7504  0.5520 -0.1274
  985MOL0     C29934   6.636  11.422   8.082 -0.0555 -0.0235 -0.6620
  985MOL0     O29935   6.473  11.310   8.315 -0.4157  0.3395 -0.0057
  985MOL0     C29936   6.696  11.390   8.579 -0.0115  0.4551  0.0078
  985MOL0     C29937   6.695  11.408   8.715 -0.3401 -0.5663  0.0426
  985MOL0     N29938   6.102  11.222   9.287 -0.5839 -0.2918  0.2006
  985MOL0     N29939   5.985  11.186   9.314  0.2394  0.0785 -0.4304
  985MOL0     C29940   5.317  10.577   9.818 -0.2783  1.0770  0.1910
  985MOL0     C29941   5.312  10.463   9.909  0.7976 -0.5260  0.9512
  985MOL0     C29942   5.309  10.178  10.266 -0.1541 -0.4247 -0.6900
  985MOL0     C29943   5.309  10.038  10.256 -0.0215 -1.0437  0.9745
  985MOL0     C29944   5.278   9.960  10.363  0.4373 -0.5953  0.6577
  985MOL0     C29945   5.231  10.020  10.481 -0.6599 -0.1773  0.4329
  985MOL0     O29946   5.189   9.957  10.582 -0.8305 -0.0740 -0.2093
  985MOL0     C29947   5.179   9.815  10.602  0.2544  0.4602  0.5692
  985MOL0     C29948   5.113   9.781  10.741 -1.0054 -0.2893 -0.3021
  985MOL0     C29949   5.176   9.843  10.861  0.7287  0.0727 -0.6170
  985MOL0     C29950   5.061   9.890  10.955  0.6180  0.2669  0.1597
  985MOL0     C29951   5.099   9.882  11.102 -0.2742  0.5965  1.2382
  985MOL0     C29952   5.110   9.898  11.222 -0.4244 -0.1828 -0.9068
  985MOL0     C29953   5.224  10.158  10.497 -0.7686  0.3766  0.0148
  985MOL0     C29954   5.272  10.236  10.390 -0.0578 -0.2098  0.2691
  985MOL0     H29955   5.321  10.641  10.197 -0.5045 -1.6491  0.8021
  985MOL0     H29956   5.345  10.826  10.056 -3.8733 -0.7625  1.0040
  985MOL0     H29957   5.525  10.854   9.788 -0.7858 -0.4948 -0.5461
  985MOL0     H29958   5.416  10.972   9.855  2.0374  0.8403 -0.3175
  985MOL0     H29959   5.511  11.058   9.669 -0.6523  0.2344  1.2289
  985MOL0     H29960   5.341  11.038   9.629  0.0801  1.2783 -2.8278
  985MOL0     H29961   5.405  10.825   9.483  0.7943  0.1735 -1.7761
  985MOL0     H29962   5.569  10.841   9.529  0.8900  0.9898 -2.6523
  985MOL0     H29963   5.412  11.069   9.399 -0.0625 -0.1854  0.4518
  985MOL0     H29964   5.582  11.068   9.443 -0.4229  0.3294 -1.9724
  985MOL0     H29965   5.448  10.868   9.258  2.0286 -1.9545 -1.0459
  985MOL0     H29966   5.616  10.852   9.307 -1.3440 -0.4911 -0.0604
  985MOL0     H29967   5.496  11.083   9.133  1.9409  0.2582 -1.7173
  985MOL0     H29968   5.589  10.957   9.071 -2.1307  1.1182 -2.4008
  985MOL0     H29969   5.756  11.112   9.087  0.2721 -0.5408 -0.0844
  985MOL0     H29970   5.687  11.175   9.241 -0.8197 -0.4386 -1.0892
  985MOL0     H29971   5.817  10.913   9.224  1.6640  0.4811 -1.3416
  985MOL0     H29972   5.782  11.005   9.367  0.5909  1.7748  0.6452
  985MOL0     H29973   6.070  10.943   9.128  1.6896  1.6531 -0.1439
  985MOL0     H29974   6.245  11.186   9.030 -0.9784  2.6689  1.3207
  985MOL0     H29975   6.303  11.031   9.103  1.0656  0.4330  1.5877
  985MOL0     H29976   6.430  11.153   9.280 -3.9163 -1.0473  1.2315
  985MOL0     H29977   6.362  11.311   9.223 -4.1656 -0.4892 -2.3717
  985MOL0     H29978   6.613  11.246   9.146  0.8309  0.7846 -0.6140
  985MOL0     H29979   6.524  11.128   9.046  1.6351 -2.5265  4.9722
  985MOL0     H29980   6.463  11.441   9.076  1.5777  0.2576  2.2404
  985MOL0     H29981   6.387  11.343   8.963 -0.1656 -0.8524  0.4228
  985MOL0     H29982   6.393  11.240   8.775 -1.3389 -1.2415 -3.4743
  985MOL0     H29983   6.400  11.228   8.546 -1.8488  3.8199 -0.0129
  985MOL0     H29984   6.849  11.184   8.203  1.0685 -1.4555 -2.9075
  985MOL0     H29985   6.887  11.156   7.959  0.2887 -0.3723  2.0012
  985MOL0     H29986   6.924  11.412   7.722  0.2515  0.9435 -1.1251
  985MOL0     H29987   6.754  11.471   7.736  0.7848  1.0763  0.3425
  985MOL0     H29988   6.828  11.257   7.539 -0.4547  1.5391 -2.3772
  985MOL0     H29989   6.873  11.417   7.495 -0.5943 -2.8770 -3.2489
  985MOL0     H29990   6.623  11.484   7.552 -1.5225 -0.7139  0.6837
  985MOL0     H29991   6.598  11.317   7.592 -0.1837  0.4170  0.3504
  985MOL0     H29992   6.660  11.424   7.307 -2.8738  2.8310 -0.4380
  985MOL0     H29993   6.631  11.250   7.353 -1.2271  0.1582 -0.6401
  985MOL0     H29994   6.430  11.470   7.390  0.1574 -0.2269  2.3159
  985MOL0     H29995   6.420  11.303   7.446 -1.3436  2.2463  2.0397
  985MOL0     H29996   6.434  11.245   7.188  1.6929  0.3157  0.1278
  985MOL0     H29997   6.444  11.415   7.156  2.2572 -0.9269  1.2191
  985MOL0     H29998   6.197  11.293   7.159  3.4444 -1.6642 -1.2603
  985MOL0     H29999   6.223  11.292   7.333  0.7350  1.2640  0.6541
  985MOL0     H30000   6.197  11.537   7.134 -0.5497 -0.1624 -0.1700
  985MOL0     H30001   6.226  11.557   7.313 -2.4606 -1.6642  3.4697
  985MOL0     H30002   6.599  11.463   7.885  0.7915 -0.8381 -1.9322
  985MOL0     H30003   6.574  11.500   8.126  0.4036 -0.4772  0.8745
  985MOL0     H30004   6.774  11.420   8.510  1.2732 -3.2689 -0.4036
  985MOL0     H30005   6.779  11.466   8.752  0.3526 -1.4815 -0.0707
  985MOL0     H30006   5.317  10.563   9.710 -0.3268  0.7154  0.2402
  985MOL0     H30007   5.309  10.363   9.868 -2.5141 -0.0957 -0.1894
  985MOL0     H30008   5.330   9.982  10.166 -1.5762  0.6192 -0.5202
  985MOL0     H30009   5.278   9.854  10.340 -2.8105 -0.3700 -0.8325
  985MOL0     H30010   5.277   9.766  10.599 -0.5853 -1.2632 -0.1009
  985MOL0     H30011   5.126   9.771  10.517  0.6899  1.6273 -0.3407
  985MOL0     H30012   5.010   9.818  10.731 -0.2526  2.6666  1.5508
  985MOL0     H30013   5.129   9.674  10.754  3.1679 -0.2357 -3.2763
  985MOL0     H30014   5.238   9.929  10.835 -0.6159  1.2551 -0.0893
  985MOL0     H30015   5.236   9.772  10.918  0.1050 -0.1497 -0.2277
  985MOL0     H30016   5.037   9.990  10.917 -0.1766  0.1376  0.3092
  985MOL0     H30017   4.976   9.823  10.944  0.3076  0.7469 -0.4045
  985MOL0     H30018   5.131   9.910  11.326  2.6887  2.5565 -1.6614
  985MOL0     H30019   5.184  10.192  10.591 -0.3153  1.0075 -0.0162
  985MOL0     H30020   5.276  10.344  10.393  0.1036 -0.1236 -1.7885
  986MOL0     O30021   5.113   8.289   4.939  0.6837 -0.5264  0.4247
  986MOL0     C30022   5.166   8.296   5.045 -0.5215  0.6182  0.3756
  986MOL0     O30023   5.115   8.323   5.164  0.2993 -0.7290 -0.3164
  986MOL0     C30024   4.976   8.358   5.172 -0.0824  0.3228  0.2827
  986MOL0     C30025   4.922   8.488   5.165 -0.1712 -0.5926 -0.4261
  986MOL0     C30026   4.776   8.500   5.172 -0.5084 -0.2425 -0.1133
  986MOL0     C30027   4.689   8.392   5.173 -0.4109  0.7260 -0.1290
  986MOL0     O30028   4.552   8.409   5.164  0.2104  0.4512 -0.1521
  986MOL0     C30029   4.479   8.459   5.279  0.7431 -0.2911 -0.3122
  986MOL0     C30030   4.506   8.603   5.320 -1.7822  0.3524 -0.0738
  986MOL0     C30031   4.495   8.694   5.201  0.0840  0.6615 -0.1932
  986MOL0     C30032   4.562   8.830   5.227  0.0454 -0.5313  0.7681
  986MOL0     C30033   4.551   8.938   5.109 -0.7066  0.2927 -0.7627
  986MOL0     C30034   4.634   9.061   5.126  0.0563  0.3602 -0.1607
  986MOL0     C30035   4.613   9.183   5.040  0.1843 -0.1324  0.3188
  986MOL0     C30036   4.629   9.131   4.893  0.4126 -0.1504 -0.7029
  986MOL0     N30037   4.648   9.237   4.786  0.3793 -0.3706  0.8939
  986MOL0     C30038   4.565   9.268   4.678  0.0429 -0.1711  0.3205
  986MOL0     C30039   4.627   9.373   4.614 -0.2231  0.1952 -0.3480
  986MOL0     C30040   4.568   9.445   4.494  0.0652 -0.3339  0.1353
  986MOL0     C30041   4.612   9.590   4.491 -0.4294  0.4002 -0.0834
  986MOL0     C30042   4.542   9.676   4.390 -0.0525  0.2758 -0.6501
  986MOL0     C30043   4.603   9.667   4.242  0.2329 -1.2509  0.4955
  986MOL0     O30044   4.743   9.667   4.251 -0.4073 -0.3848  0.5277
  986MOL0     C30045   4.803   9.671   4.131  0.7472 -0.8820 -0.2509
  986MOL0     C30046   4.923   9.610   4.113 -0.1752  0.5383 -0.2149
  986MOL0     C30047   5.003   9.609   3.999  0.2766  0.2707  0.1147
  986MOL0     C30048   4.950   9.674   3.888 -0.1333  0.5172  0.3198
  986MOL0     C30049   5.024   9.656   3.763  0.5250  1.2117  0.7996
  986MOL0     O30050   5.146   9.585   3.766 -0.0095 -0.2140  0.5766
  986MOL0     C30051   5.248   9.601   3.675 -0.3138  1.1151  0.7199
  986MOL0     C30052   5.316   9.494   3.606 -0.2738  0.6217 -0.0627
  986MOL0     C30053   5.411   9.521   3.510 -0.8427  0.3031  0.5063
  986MOL0     C30054   5.457   9.646   3.477  0.9899 -1.0443  0.4994
  986MOL0     O30055   5.544   9.688   3.377 -0.7364 -0.0655 -0.5245
  986MOL0     C30056   5.610   9.580   3.308 -0.0697 -0.2557  0.7697
  986MOL0     C30057   5.516   9.538   3.193 -0.2061  0.7803 -0.0816
  986MOL0     C30058   5.564   9.399   3.153 -0.4682 -0.1972 -0.2835
  986MOL0     C30059   5.482   9.371   3.036  0.4300 -0.4195 -0.1623
  986MOL0     C30060   5.518   9.226   2.981  0.7014 -0.4817 -0.0807
  986MOL0     C30061   5.501   9.202   2.829 -0.2329  0.3062 -0.7449
  986MOL0     C30062   5.353   9.167   2.817  0.4208 -0.3709  0.1154
  986MOL0     C30063   5.301   9.164   2.676 -0.9261  0.3294  0.0854
  986MOL0    Cl30064   5.351   9.005   2.587  0.6055  0.1488  0.5070
  986MOL0     C30065   5.390   9.753   3.552 -1.4062 -0.3931  0.6360
  986MOL0     C30066   5.287   9.728   3.643 -0.8589 -0.8912  0.0600
  986MOL0     O30067   4.981   9.716   3.664 -0.4217 -0.5544 -0.6112
  986MOL0     C30068   4.824   9.736   3.895 -0.1778  0.6536  0.0322
  986MOL0     C30069   4.744   9.732   4.015  0.1581 -0.1315  0.3680
  986MOL0     N30070   4.745   9.406   4.681 -0.0946  0.0947 -0.9117
  986MOL0     N30071   4.759   9.321   4.780 -0.8469  0.0666 -0.0319
  986MOL0     C30072   4.753   8.266   5.160 -1.0842  0.3570  0.4899
  986MOL0     C30073   4.884   8.253   5.164 -0.2939 -0.4617  0.3717
  986MOL0     C30074   5.317   8.288   5.048  0.0949  1.0807 -0.2574
  986MOL0     C30075   5.393   8.361   5.140 -0.2896 -0.1200  0.6853
  986MOL0     C30076   5.533   8.359   5.137  0.0446  0.2766 -0.0558
  986MOL0     C30077   5.602   8.272   5.042 -0.1524 -0.3222 -0.7208
  986MOL0     O30078   5.745   8.271   5.038 -0.2740 -0.2812 -0.1708
  986MOL0     C30079   5.816   8.259   5.164  0.4726 -0.2694 -0.7939
  986MOL0     C30080   5.922   8.360   5.181 -0.0575  0.2192 -0.0572
  986MOL0     C30081   5.963   8.382   5.328  0.5584 -0.3526 -0.1451
  986MOL0     C30082   6.052   8.501   5.343 -0.3863  0.4834 -0.1134
  986MOL0     C30083   6.112   8.512   5.475 -0.0536  0.0303  0.5850
  986MOL0     C30084   6.140   8.522   5.595  0.5959  0.2758 -0.0621
  986MOL0     C30085   5.528   8.196   4.950 -0.4240  0.1548  0.5122
  986MOL0     C30086   5.390   8.209   4.951 -0.3284 -1.2520  0.2752
  986MOL0     H30087   4.990   8.569   5.187 -0.7341 -0.5390  1.2308
  986MOL0     H30088   4.726   8.596   5.178  0.0619  0.2475 -2.3707
  986MOL0     H30089   4.492   8.396   5.367  0.1214  0.1180  0.0850
  986MOL0     H30090   4.371   8.456   5.258  0.8821  0.1788 -1.1343
  986MOL0     H30091   4.605   8.610   5.366 -2.7840 -0.3719  2.3316
  986MOL0     H30092   4.434   8.624   5.399 -0.3472 -0.2430  1.4482
  986MOL0     H30093   4.388   8.715   5.195 -0.2662 -0.7561  0.6207
  986MOL0     H30094   4.530   8.659   5.103 -1.5389  1.5236 -1.1128
  986MOL0     H30095   4.522   8.870   5.321  0.2131 -0.5936  0.8666
  986MOL0     H30096   4.667   8.801   5.235  1.1433  2.9381  0.7957
  986MOL0     H30097   4.442   8.951   5.108 -1.2624 -3.2840  0.2035
  986MOL0     H30098   4.582   8.893   5.014  0.2443 -3.4674  1.1273
  986MOL0     H30099   4.739   9.032   5.112  0.6607  1.3455  1.8653
  986MOL0     H30100   4.626   9.083   5.232 -2.1258  2.1967 -0.6363
  986MOL0     H30101   4.515   9.229   5.055  0.4415 -0.1972  2.5006
  986MOL0     H30102   4.687   9.262   5.059 -1.7645  1.7080  0.6403
  986MOL0     H30103   4.531   9.083   4.883  0.3331  0.2222 -1.8526
  986MOL0     H30104   4.710   9.057   4.885 -1.0212 -1.6957 -1.5182
  986MOL0     H30105   4.472   9.221   4.650 -0.6331  2.2079 -1.8342
  986MOL0     H30106   4.459   9.443   4.490 -0.0314 -0.6748  2.1119
  986MOL0     H30107   4.596   9.384   4.407 -0.0195 -1.0423  0.5907
  986MOL0     H30108   4.721   9.589   4.481 -0.3750 -3.0309 -0.1519
  986MOL0     H30109   4.596   9.634   4.590 -2.4170 -1.1650  0.3404
  986MOL0     H30110   4.437   9.649   4.377 -0.1969  1.5533 -2.6296
  986MOL0     H30111   4.551   9.774   4.438  0.1856 -0.4084  0.7693
  986MOL0     H30112   4.573   9.759   4.191 -0.8939 -1.6571  0.3994
  986MOL0     H30113   4.563   9.584   4.183 -0.2096  0.3060 -1.5131
  986MOL0     H30114   4.971   9.553   4.192 -0.8155  1.3829  0.8151
  986MOL0     H30115   5.098   9.557   3.998  0.1271  0.0042 -0.8459
  986MOL0     H30116   5.283   9.395   3.636  3.5350 -1.0951 -0.9756
  986MOL0     H30117   5.457   9.437   3.460 -2.5005 -0.5805  0.3906
  986MOL0     H30118   5.638   9.495   3.370 -0.1781  0.2511  1.5334
  986MOL0     H30119   5.696   9.622   3.256 -0.7973  0.2327 -0.0661
  986MOL0     H30120   5.503   9.603   3.106 -2.7622 -0.0050 -0.3932
  986MOL0     H30121   5.411   9.532   3.224 -0.3874  1.0053 -0.6304
  986MOL0     H30122   5.544   9.325   3.231 -0.1756 -0.0570 -0.0722
  986MOL0     H30123   5.670   9.396   3.128 -0.7447  0.7960 -1.6533
  986MOL0     H30124   5.382   9.390   3.076  0.7750  0.9414  0.1091
  986MOL0     H30125   5.507   9.447   2.961 -0.1104  1.1543  1.1945
  986MOL0     H30126   5.468   9.143   3.032 -0.7105 -2.0664 -3.6529
  986MOL0     H30127   5.620   9.210   3.014  0.0749 -1.2451  1.5847
  986MOL0     H30128   5.566   9.129   2.780 -0.8032  0.3030 -1.5201
  986MOL0     H30129   5.514   9.292   2.767 -1.8823 -1.6214 -4.2129
  986MOL0     H30130   5.355   9.063   2.851  3.8351 -0.3580  0.3500
  986MOL0     H30131   5.283   9.210   2.889  2.3214  1.9857  0.6817
  986MOL0     H30132   5.355   9.243   2.624 -3.6041  1.7944 -0.6995
  986MOL0     H30133   5.194   9.181   2.661 -0.7637 -0.6001 -2.5053
  986MOL0     H30134   5.404   9.860   3.535  0.0353 -0.3164  2.1083
  986MOL0     H30135   5.244   9.810   3.700 -1.0453  0.2467 -1.6528
  986MOL0     H30136   4.777   9.787   3.812 -1.0123  1.2409  0.8405
  986MOL0     H30137   4.656   9.795   4.010 -1.0758 -1.4675  3.1445
  986MOL0     H30138   4.692   8.178   5.142  0.6936 -1.2534  2.0379
  986MOL0     H30139   4.930   8.154   5.167 -0.9528 -0.7587  1.0818
  986MOL0     H30140   5.333   8.417   5.211 -1.0882 -1.7249  1.3206
  986MOL0     H30141   5.591   8.419   5.206 -1.6892  2.4480 -0.3655
  986MOL0     H30142   5.861   8.159   5.168 -0.3323 -0.6363 -0.7945
  986MOL0     H30143   5.741   8.264   5.244  1.3283 -2.6078  0.2556
  986MOL0     H30144   6.005   8.336   5.114  1.2032  2.3259  0.6618
  986MOL0     H30145   5.884   8.457   5.149  0.5026  0.0167 -1.3753
  986MOL0     H30146   6.013   8.295   5.369  2.3068  1.1450  1.0323
  986MOL0     H30147   5.870   8.387   5.385 -0.2486 -3.9504 -0.8894
  986MOL0     H30148   6.127   8.482   5.265 -0.4672 -1.5736  0.2411
  986MOL0     H30149   6.003   8.597   5.325  0.4980  1.1858  1.0987
  986MOL0     H30150   6.160   8.531   5.700 -2.7496  2.4318  0.5421
  986MOL0     H30151   5.576   8.134   4.875 -4.2539 -0.1859 -1.9162
  986MOL0     H30152   5.326   8.177   4.869 -2.7444  0.0026  1.5475
  987MOL0     O30153   5.431   9.012   7.693 -0.1314  0.5681  0.2585
  987MOL0     C30154   5.432   8.891   7.733  0.3131 -0.4910 -0.9718
  987MOL0     O30155   5.482   8.856   7.861  0.0829 -0.5422  0.4074
  987MOL0     C30156   5.494   8.967   7.937 -0.3410 -0.3787 -0.4754
  987MOL0     C30157   5.617   9.026   7.936  0.8293 -0.0099 -0.4751
  987MOL0     C30158   5.638   9.144   8.012  0.1384  0.6898  0.3276
  987MOL0     C30159   5.545   9.193   8.101  1.0746  0.6946 -1.3062
  987MOL0     O30160   5.570   9.308   8.171  0.3591 -0.3649  0.4525
  987MOL0     C30161   5.461   9.351   8.256  0.7320 -0.0236  0.2958
  987MOL0     C30162   5.484   9.491   8.324  0.6964 -0.7265  0.0880
  987MOL0     C30163   5.609   9.505   8.406 -0.0381  0.5289 -0.0913
  987MOL0     C30164   5.628   9.643   8.473  0.2824  0.2500  0.9463
  987MOL0     C30165   5.763   9.662   8.540 -0.2846  0.0367  0.1039
  987MOL0     C30166   5.781   9.574   8.661  1.0590 -0.1250  0.4018
  987MOL0     C30167   5.880   9.636   8.752  0.2588 -0.0534 -0.5052
  987MOL0     C30168   5.888   9.549   8.883 -0.4015  0.3244  0.2779
  987MOL0     N30169   5.976   9.612   8.987  0.3705  0.1587  0.3658
  987MOL0     C30170   6.080   9.696   8.975  0.5377  0.1425 -0.5318
  987MOL0     C30171   6.098   9.734   9.100  0.0163 -0.2190  0.2811
  987MOL0     C30172   6.199   9.824   9.158 -0.0829 -0.4960  0.0245
  987MOL0     C30173   6.303   9.747   9.248 -0.5027 -0.3891  0.3800
  987MOL0     C30174   6.393   9.652   9.162  1.0329 -0.4663 -0.5572
  987MOL0     C30175   6.509   9.710   9.093 -0.0917 -0.3374 -0.2148
  987MOL0     O30176   6.598   9.770   9.184 -0.3459 -0.3689 -0.3635
  987MOL0     C30177   6.724   9.805   9.144 -0.0201  0.1696 -0.3587
  987MOL0     C30178   6.828   9.825   9.239 -0.7090  0.2178 -0.1889
  987MOL0     C30179   6.961   9.858   9.195 -0.3339 -0.3425 -0.0194
  987MOL0     C30180   7.002   9.881   9.067  0.6804 -0.3754  0.4216
  987MOL0     C30181   7.136   9.913   9.027  0.2883  1.1218 -0.1672
  987MOL0     O30182   7.229   9.913   9.116  0.1346  0.2993 -0.0263
  987MOL0     C30183   7.358   9.966   9.088  0.2235 -0.3262 -1.0055
  987MOL0     C30184   7.413  10.017   8.977 -0.6263 -1.2378  0.5727
  987MOL0     C30185   7.541  10.080   8.979  0.5143  0.2779 -0.7292
  987MOL0     C30186   7.597  10.113   9.105  0.0432  0.2679  0.0565
  987MOL0     O30187   7.702  10.198   9.087 -0.2555  0.3302 -0.1291
  987MOL0     C30188   7.805  10.186   9.191  0.3137  0.0271 -0.7254
  987MOL0     C30189   7.917  10.289   9.156  0.0286  0.0729 -0.3612
  987MOL0     C30190   7.876  10.431   9.194 -0.2888  0.2337  0.8819
  987MOL0     C30191   7.986  10.535   9.167 -1.0049 -0.1866  0.7717
  987MOL0     C30192   7.947  10.658   9.246  0.2147 -0.5933 -0.3337
  987MOL0     C30193   8.054  10.775   9.224 -0.5334 -0.7460 -0.2796
  987MOL0     C30194   7.981  10.915   9.258  0.4189 -0.3037 -0.5157
  987MOL0     C30195   8.070  11.039   9.242 -0.4950 -0.0448  0.7514
  987MOL0    Cl30196   8.070  11.139   9.384  0.3369  0.3410 -0.2817
  987MOL0     C30197   7.549  10.037   9.214  1.1203 -0.0852  0.3674
  987MOL0     C30198   7.425   9.966   9.203  0.0275  1.2182 -0.0787
  987MOL0     O30199   7.149   9.954   8.911  0.6274 -0.8904 -0.6968
  987MOL0     C30200   6.891   9.881   8.979  0.2437  1.3066 -0.0719
  987MOL0     C30201   6.759   9.829   9.013 -0.0585  0.0737 -0.2646
  987MOL0     N30202   6.008   9.671   9.185 -1.0957  0.9485 -0.8171
  987MOL0     N30203   5.943   9.585   9.116 -0.3638 -0.5935 -0.7143
  987MOL0     C30204   5.431   9.111   8.112  0.2992  0.4387 -0.9150
  987MOL0     C30205   5.400   8.999   8.035  0.4434  0.2973  0.3794
  987MOL0     C30206   5.381   8.782   7.642 -0.5308 -0.4763  0.5207
  987MOL0     C30207   5.292   8.823   7.539 -1.5981 -0.5722 -0.1451
  987MOL0     C30208   5.251   8.729   7.447 -0.5225  0.0204 -0.1059
  987MOL0     C30209   5.316   8.600   7.441  0.2651  0.9300  0.2875
  987MOL0     O30210   5.281   8.506   7.350  0.5481  0.3665  0.1614
  987MOL0     C30211   5.269   8.375   7.406  0.8316 -0.3942  0.2413
  987MOL0     C30212   5.162   8.289   7.324  0.3632 -1.0027 -0.2575
  987MOL0     C30213   5.126   8.168   7.412  0.2453 -0.0302 -0.4593
  987MOL0     C30214   5.032   8.080   7.330 -0.8611  0.1455  1.5430
  987MOL0     C30215   5.010   7.940   7.389  0.6775 -0.0192  0.0999
  987MOL0     C30216   4.971   7.833   7.432  0.3204  0.8069  0.1880
  987MOL0     C30217   5.409   8.566   7.544  0.2535 -0.6343  0.1806
  987MOL0     C30218   5.434   8.657   7.645 -0.6144 -0.1421 -0.7373
  987MOL0     H30219   5.698   8.987   7.876  0.7447  1.9002 -1.9300
  987MOL0     H30220   5.728   9.205   8.005  0.0091  0.7242 -2.2240
  987MOL0     H30221   5.453   9.285   8.343  1.4814  0.9716  1.1570
  987MOL0     H30222   5.365   9.341   8.205  1.2105 -3.8247 -0.1054
  987MOL0     H30223   5.396   9.527   8.378  2.2376  0.9819  1.6148
  987MOL0     H30224   5.496   9.565   8.244  0.7086 -1.8445 -0.9841
  987MOL0     H30225   5.698   9.491   8.344 -0.1115  3.3239 -0.9873
  987MOL0     H30226   5.602   9.442   8.495  0.5185  0.6861  0.0684
  987MOL0     H30227   5.615   9.715   8.391  2.5608 -2.1560 -1.7646
  987MOL0     H30228   5.554   9.665   8.551  0.7033 -1.7220  1.9608
  987MOL0     H30229   5.772   9.770   8.557 -4.8459  1.1774 -2.8819
  987MOL0     H30230   5.845   9.648   8.469 -0.6767 -3.9407  0.2095
  987MOL0     H30231   5.802   9.473   8.625  2.1276  1.3960 -3.8289
  987MOL0     H30232   5.688   9.568   8.719  0.3274 -0.6763 -0.8062
  987MOL0     H30233   5.977   9.634   8.700  0.2273  3.9573 -1.0521
  987MOL0     H30234   5.853   9.739   8.776  0.0698 -0.2535  0.1456
  987MOL0     H30235   5.939   9.457   8.854  0.5518 -0.6541  4.4117
  987MOL0     H30236   5.790   9.515   8.917 -0.6072 -0.5538 -1.1152
  987MOL0     H30237   6.124   9.742   8.887  2.3194  1.4536  0.9675
  987MOL0     H30238   6.155   9.900   9.223 -0.5003  1.2454 -2.1567
  987MOL0     H30239   6.254   9.879   9.080 -0.2220  0.9988  0.9396
  987MOL0     H30240   6.246   9.685   9.317 -1.7061 -1.9521 -1.9046
  987MOL0     H30241   6.369   9.814   9.306 -0.4207 -0.5401  0.4624
  987MOL0     H30242   6.434   9.584   9.237 -0.6227 -3.1288 -1.8985
  987MOL0     H30243   6.327   9.594   9.097  1.4850 -1.0621 -0.4911
  987MOL0     H30244   6.479   9.770   9.007  1.3576 -2.2118 -2.1245
  987MOL0     H30245   6.564   9.627   9.048 -1.5052 -1.5819  0.2393
  987MOL0     H30246   6.803   9.826   9.344  1.0247  0.6358  0.2482
  987MOL0     H30247   7.044   9.869   9.264  0.0383  0.9020 -0.6466
  987MOL0     H30248   7.360  10.019   8.883  0.2227  2.4749  0.0148
  987MOL0     H30249   7.585  10.117   8.887  0.5068  2.3185  0.0415
  987MOL0     H30250   7.848  10.086   9.180 -1.1844 -0.9132  1.3493
  987MOL0     H30251   7.765  10.203   9.291  1.6722 -0.5627 -0.0602
  987MOL0     H30252   7.940  10.267   9.051  1.3051 -1.1365  0.1451
  987MOL0     H30253   8.010  10.267   9.210  0.0234 -0.5374 -0.5937
  987MOL0     H30254   7.834  10.434   9.295 -0.7801  0.8935  0.6647
  987MOL0     H30255   7.797  10.461   9.125  0.8665  0.9278 -0.1824
  987MOL0     H30256   8.082  10.485   9.183  0.3653  1.3273 -1.9838
  987MOL0     H30257   7.986  10.565   9.062 -2.3421  2.2719  1.4018
  987MOL0     H30258   7.934  10.636   9.353  1.2808  0.1329 -0.0491
  987MOL0     H30259   7.848  10.697   9.222  0.9672  2.8048  1.5006
  987MOL0     H30260   8.081  10.773   9.117  0.0247 -0.0110 -0.1648
  987MOL0     H30261   8.145  10.770   9.283 -0.9016 -0.9902  0.2716
  987MOL0     H30262   7.893  10.935   9.195  1.4753  3.9587 -0.9171
  987MOL0     H30263   7.941  10.915   9.359 -1.0267  2.5404 -0.9874
  987MOL0     H30264   8.029  11.097   9.158  0.5990  1.6592  1.3572
  987MOL0     H30265   8.168  11.006   9.205 -2.0763 -1.3596 -2.7199
  987MOL0     H30266   7.584  10.026   9.316  0.4108 -2.6829  0.4098
  987MOL0     H30267   7.387   9.906   9.286  1.5966  0.7771  0.3617
  987MOL0     H30268   6.904   9.899   8.873  0.3867  0.5559 -0.1890
  987MOL0     H30269   6.693   9.823   8.928  0.9190 -1.4691 -0.9598
  987MOL0     H30270   5.365   9.139   8.193  0.6292 -0.6965 -0.2279
  987MOL0     H30271   5.316   8.931   8.045 -0.7660  1.7865  0.8606
  987MOL0     H30272   5.247   8.921   7.544  1.6889  1.0095  1.1025
  987MOL0     H30273   5.178   8.752   7.370 -0.3874 -2.5019 -1.0756
  987MOL0     H30274   5.257   8.369   7.515  2.0683 -0.5105  0.3856
  987MOL0     H30275   5.367   8.332   7.382  1.0390  1.3263 -2.3851
  987MOL0     H30276   5.074   8.350   7.301 -0.2460 -1.5537  0.5716
  987MOL0     H30277   5.204   8.265   7.226 -0.6018  0.4611 -1.0563
  987MOL0     H30278   5.077   8.195   7.506 -0.1848 -0.6234 -0.5055
  987MOL0     H30279   5.216   8.108   7.430  1.3786  1.6076 -0.4048
  987MOL0     H30280   4.936   8.131   7.317 -0.8697 -0.4261 -1.5110
  987MOL0     H30281   5.082   8.069   7.233 -3.2394  0.6367  0.1782
  987MOL0     H30282   4.928   7.757   7.493  0.3243  0.4345 -0.2672
  987MOL0     H30283   5.464   8.473   7.535 -0.2588 -0.7387 -2.5101
  987MOL0     H30284   5.505   8.628   7.722 -0.1384 -1.6813 -1.7021
  988MOL0     O30285   3.088   1.687   2.107  1.0893 -0.5895 -0.2942
  988MOL0     C30286   3.185   1.624   2.142 -0.3110  0.7437 -0.8467
  988MOL0     O30287   3.296   1.683   2.209  0.1207 -0.0022 -1.0171
  988MOL0     C30288   3.316   1.823   2.229  1.0309  0.5179  0.6413
  988MOL0     C30289   3.395   1.862   2.335 -0.2971 -0.2155 -0.5091
  988MOL0     C30290   3.438   2.001   2.351 -0.3755  0.0185 -0.4555
  988MOL0     C30291   3.406   2.101   2.261 -0.0365  0.1792  0.1821
  988MOL0     O30292   3.461   2.232   2.262 -0.3759  0.2407  0.3173
  988MOL0     C30293   3.465   2.297   2.136 -1.2075  0.5112 -0.4085
  988MOL0     C30294   3.552   2.420   2.129  0.1836  0.8475 -0.0476
  988MOL0     C30295   3.493   2.495   2.000  0.1875 -0.5025 -0.3691
  988MOL0     C30296   3.566   2.620   1.990  0.1384 -1.1073 -0.1284
  988MOL0     C30297   3.506   2.694   1.864 -1.4455  0.5100  0.3573
  988MOL0     C30298   3.590   2.803   1.800 -0.0630  0.2365 -0.1981
  988MOL0     C30299   3.700   2.855   1.884 -0.5228  0.0765  0.5352
  988MOL0     C30300   3.795   2.944   1.810 -0.1564  0.4381  0.0669
  988MOL0     N30301   3.920   2.877   1.767  0.0264 -0.1407 -0.0272
  988MOL0     C30302   4.047   2.921   1.800 -0.0900  0.0209  0.5707
  988MOL0     C30303   4.126   2.822   1.754  0.2381 -0.2447 -1.1089
  988MOL0     C30304   4.276   2.811   1.780  0.1776 -0.7179 -0.9328
  988MOL0     C30305   4.343   2.936   1.839  0.4295 -0.2047 -0.8572
  988MOL0     C30306   4.372   3.047   1.745 -0.3020 -0.0070 -0.0428
  988MOL0     C30307   4.477   3.034   1.633 -0.2888 -0.2919  0.4021
  988MOL0     O30308   4.502   3.166   1.577  0.7037 -0.1385 -0.0639
  988MOL0     C30309   4.431   3.209   1.467 -0.0290  0.5090  0.9693
  988MOL0     C30310   4.450   3.338   1.431  0.2514 -0.0865  0.2233
  988MOL0     C30311   4.386   3.396   1.327  0.0034 -0.6858 -0.4665
  988MOL0     C30312   4.293   3.322   1.255  0.4259  0.1891  0.6612
  988MOL0     C30313   4.213   3.381   1.142 -0.0800 -0.7780 -0.9958
  988MOL0     O30314   4.179   3.509   1.154 -0.3834 -1.0101  0.2879
  988MOL0     C30315   4.127   3.568   1.038  0.1711  0.1273  0.3699
  988MOL0     C30316   4.023   3.658   1.058 -0.3987 -0.4396  0.0992
  988MOL0     C30317   3.963   3.731   0.953  0.0617  0.7531 -0.0522
  988MOL0     C30318   4.007   3.711   0.826 -0.7042  0.3695 -0.6890
  988MOL0     O30319   3.954   3.749   0.711 -0.3222 -0.3308  0.0579
  988MOL0     C30320   3.828   3.823   0.707  0.1364  0.3855  0.4514
  988MOL0     C30321   3.750   3.802   0.575 -1.3210 -1.0598 -0.7299
  988MOL0     C30322   3.608   3.854   0.581 -0.1170  0.3651  0.1003
  988MOL0     C30323   3.525   3.799   0.459  1.0171  0.0804  0.2149
  988MOL0     C30324   3.573   3.849   0.326  0.1821  0.0896  0.7139
  988MOL0     C30325   3.553   3.999   0.305  0.2507  0.5561  0.1273
  988MOL0     C30326   3.483   4.029   0.168 -0.0529 -0.4252 -0.1984
  988MOL0     C30327   3.404   4.160   0.185  0.1915 -0.0069  0.4212
  988MOL0    Cl30328   3.491   4.299   0.213  0.1912  0.5685  0.2972
  988MOL0     C30329   4.127   3.636   0.809 -0.3100  0.3774  0.1569
  988MOL0     C30330   4.182   3.553   0.908 -0.2012  0.0339 -0.1822
  988MOL0     O30331   4.175   3.308   1.056 -0.0033  0.0277 -0.0279
  988MOL0     C30332   4.278   3.185   1.283 -0.4336 -0.1617  0.5988
  988MOL0     C30333   4.343   3.129   1.389  0.4219  0.1237 -0.5047
  988MOL0     N30334   4.053   2.717   1.708  0.4002  0.4757 -0.3620
  988MOL0     N30335   3.927   2.746   1.715  0.0245 -0.2595 -0.3901
  988MOL0     C30336   3.307   2.063   2.170 -1.0113 -0.1876 -0.1324
  988MOL0     C30337   3.283   1.930   2.140 -0.1573  1.3178  0.0859
  988MOL0     C30338   3.195   1.472   2.118  0.5994 -0.1469  0.0585
  988MOL0     C30339   3.306   1.385   2.139 -0.4132  0.2896  1.4424
  988MOL0     C30340   3.300   1.246   2.110  0.3412 -0.6013 -0.6872
  988MOL0     C30341   3.177   1.188   2.083  0.7089  0.5369  0.3977
  988MOL0     O30342   3.157   1.054   2.070 -0.7505 -0.5227  0.0363
  988MOL0     C30343   3.266   0.977   2.024 -0.1341  0.9074 -1.3360
  988MOL0     C30344   3.307   0.876   2.130 -0.2312 -0.4448 -0.5214
  988MOL0     C30345   3.454   0.831   2.113 -0.0880 -1.0463  0.3489
  988MOL0     C30346   3.468   0.682   2.148  0.1398  1.1599  0.0975
  988MOL0     C30347   3.440   0.585   2.032  0.0219 -1.0184  0.1399
  988MOL0     C30348   3.415   0.522   1.932 -0.1500  0.2182 -0.0410
  988MOL0     C30349   3.061   1.267   2.064 -0.6922  0.4574  0.5899
  988MOL0     C30350   3.068   1.407   2.086  0.5177  0.1875  0.2618
  988MOL0     H30351   3.431   1.793   2.411  0.1156 -0.6201 -1.0713
  988MOL0     H30352   3.511   2.029   2.427 -0.0509  0.8924 -1.0647
  988MOL0     H30353   3.365   2.326   2.103 -1.9023  1.2689  2.1827
  988MOL0     H30354   3.494   2.232   2.053 -0.6498  1.6759 -1.1631
  988MOL0     H30355   3.655   2.388   2.112  0.1944  0.8397  0.0287
  988MOL0     H30356   3.544   2.476   2.223 -1.3281 -1.2338  1.1466
  988MOL0     H30357   3.389   2.516   2.024  0.4522  0.5733 -0.0998
  988MOL0     H30358   3.501   2.420   1.921 -0.1960 -1.7286  0.7179
  988MOL0     H30359   3.552   2.679   2.080 -0.4902 -1.4322 -0.0146
  988MOL0     H30360   3.673   2.610   1.967 -0.0073 -0.9262 -0.9296
  988MOL0     H30361   3.406   2.729   1.889 -1.2014  1.9024 -0.5182
  988MOL0     H30362   3.498   2.630   1.775 -4.0455  0.0866  0.8453
  988MOL0     H30363   3.521   2.878   1.761 -1.7111 -3.1486 -4.7683
  988MOL0     H30364   3.634   2.758   1.710  2.2425  2.5294 -0.3289
  988MOL0     H30365   3.651   2.916   1.961 -3.0511 -0.7802 -0.3041
  988MOL0     H30366   3.765   2.779   1.928 -0.0309  0.4478  0.4633
  988MOL0     H30367   3.837   3.024   1.870 -1.7397  0.6343  0.9725
  988MOL0     H30368   3.753   2.985   1.717  1.0941 -0.7008 -1.0390
  988MOL0     H30369   4.078   3.008   1.858  0.0172  0.2013  0.2484
  988MOL0     H30370   4.330   2.774   1.691  0.7434 -2.3838  0.0525
  988MOL0     H30371   4.285   2.730   1.853  1.3486 -0.8270 -1.1733
  988MOL0     H30372   4.447   2.908   1.861  0.1731  0.3048  1.2747
  988MOL0     H30373   4.293   2.962   1.933  4.2807  2.0778  0.8255
  988MOL0     H30374   4.279   3.076   1.696  0.6505  1.5072 -1.0377
  988MOL0     H30375   4.400   3.131   1.809  0.1931 -1.8738  2.3166
  988MOL0     H30376   4.456   2.964   1.551  2.3139 -1.1982  0.4165
  988MOL0     H30377   4.572   3.003   1.679 -0.4765  0.1140  1.0751
  988MOL0     H30378   4.529   3.386   1.488  2.6273 -1.9312 -1.3075
  988MOL0     H30379   4.420   3.493   1.295  0.2437 -0.1245  1.4047
  988MOL0     H30380   4.003   3.664   1.165  1.8351 -0.0535  0.5403
  988MOL0     H30381   3.877   3.791   0.978 -0.1472  0.4126  0.0548
  988MOL0     H30382   3.847   3.929   0.723 -1.9928  0.8423  0.2293
  988MOL0     H30383   3.764   3.795   0.791 -0.6107 -0.2265 -0.2967
  988MOL0     H30384   3.753   3.694   0.561  0.3002 -1.0187 -0.8925
  988MOL0     H30385   3.803   3.860   0.498 -2.0847  0.6217 -0.0389
  988MOL0     H30386   3.607   3.963   0.591  0.1195  0.3077  0.7420
  988MOL0     H30387   3.559   3.818   0.671 -0.6843  0.8902  0.0052
  988MOL0     H30388   3.525   3.691   0.447 -0.8753  0.2314 -1.6962
  988MOL0     H30389   3.419   3.820   0.476  0.9598 -1.9349  3.0694
  988MOL0     H30390   3.524   3.797   0.244 -0.0979  0.4119  0.6728
  988MOL0     H30391   3.678   3.822   0.310  0.1398 -0.0113  0.6121
  988MOL0     H30392   3.658   4.029   0.296  0.4869 -0.8265 -5.2259
  988MOL0     H30393   3.493   4.031   0.391 -2.5999 -2.9613 -0.2891
  988MOL0     H30394   3.555   4.058   0.091 -1.3570  1.3841 -0.8059
  988MOL0     H30395   3.423   3.946   0.131  2.3816 -2.8780  1.0244
  988MOL0     H30396   3.332   4.163   0.268  1.4179  0.2650  1.5070
  988MOL0     H30397   3.351   4.169   0.089  1.5542  0.5013 -0.3138
  988MOL0     H30398   4.184   3.632   0.716 -5.3846 -0.6792 -3.2874
  988MOL0     H30399   4.279   3.505   0.911 -0.9630 -1.5665  0.3102
  988MOL0     H30400   4.217   3.118   1.224 -0.6659 -0.5202  1.2371
  988MOL0     H30401   4.315   3.028   1.417  0.3932  0.4544  0.7063
  988MOL0     H30402   3.265   2.135   2.102 -0.4551  0.7350  0.4819
  988MOL0     H30403   3.232   1.899   2.050 -0.1872  0.6435  0.3336
  988MOL0     H30404   3.401   1.423   2.177  0.6325  0.5982 -1.2829
  988MOL0     H30405   3.392   1.190   2.122  0.3790 -0.5093 -0.5377
  988MOL0     H30406   3.341   1.043   1.978 -0.4670  1.6523 -0.8190
  988MOL0     H30407   3.229   0.905   1.950 -0.5665  0.8072 -1.0253
  988MOL0     H30408   3.290   0.926   2.226 -1.6962  0.3520 -1.1655
  988MOL0     H30409   3.233   0.798   2.116 -2.7339  1.8382 -0.8443
  988MOL0     H30410   3.515   0.884   2.186  3.0222 -0.7684 -2.2458
  988MOL0     H30411   3.490   0.850   2.012  1.1379 -1.0614  0.7723
  988MOL0     H30412   3.571   0.653   2.170  0.0657 -1.0336 -2.0099
  988MOL0     H30413   3.412   0.649   2.237 -1.9670  0.0370 -1.5290
  988MOL0     H30414   3.409   0.464   1.842  1.4415  0.9069 -0.6320
  988MOL0     H30415   2.970   1.229   2.019 -1.4515  2.5873  0.2147
  988MOL0     H30416   2.979   1.468   2.080 -1.1083 -2.0323  0.7015
  989MOL0     O30417   6.132   6.595   8.446  0.4630  0.2699 -0.1820
  989MOL0     C30418   6.186   6.519   8.359 -0.8387 -0.3068  0.1884
  989MOL0     O30419   6.128   6.481   8.250 -0.0736 -0.4877 -0.3579
  989MOL0     C30420   5.987   6.503   8.231 -0.0325  0.7451  0.8034
  989MOL0     C30421   5.948   6.522   8.091  1.0018  0.4957  0.6947
  989MOL0     C30422   5.807   6.541   8.058 -0.1459  0.8820 -0.5880
  989MOL0     C30423   5.711   6.521   8.161 -0.2054  0.5823 -0.1043
  989MOL0     O30424   5.578   6.557   8.138 -0.8039  0.9038  0.0777
  989MOL0     C30425   5.491   6.457   8.172  0.2273  0.0079  0.1828
  989MOL0     C30426   5.338   6.506   8.168  0.4365  0.4784  0.2135
  989MOL0     C30427   5.316   6.624   8.269  0.1009 -0.0064  0.3965
  989MOL0     C30428   5.171   6.667   8.272  0.5706 -1.0208 -0.1947
  989MOL0     C30429   5.127   6.752   8.154 -0.1253  1.3902  0.5738
  989MOL0     C30430   4.994   6.814   8.178 -0.0189 -0.2884 -0.8510
  989MOL0     C30431   4.940   6.912   8.072  1.0614  0.8330 -0.2929
  989MOL0     C30432   5.009   7.051   8.080 -0.1521  0.1127  0.0268
  989MOL0     N30433   5.154   7.050   8.049 -0.8593  0.2798 -0.4245
  989MOL0     C30434   5.255   7.084   8.137 -0.1645  0.2194 -0.3537
  989MOL0     C30435   5.363   7.063   8.058  0.5288 -0.7674  0.2099
  989MOL0     C30436   5.515   7.089   8.101  0.7219 -1.1895  0.4653
  989MOL0     C30437   5.562   6.976   8.196  0.3283  0.4413 -0.4002
  989MOL0     C30438   5.720   6.958   8.201  0.3732 -0.0442  0.2303
  989MOL0     C30439   5.769   6.872   8.320 -0.1218  0.7434 -0.0663
  989MOL0     O30440   5.756   6.945   8.438 -0.0347  0.0090 -0.7125
  989MOL0     C30441   5.851   7.038   8.462 -0.5469  0.4197  0.4084
  989MOL0     C30442   5.856   7.164   8.413  0.2230 -0.2619 -0.3435
  989MOL0     C30443   5.967   7.234   8.433  1.1463 -0.8898  0.7259
  989MOL0     C30444   6.073   7.199   8.507  1.0364 -0.4699  0.6055
  989MOL0     C30445   6.194   7.283   8.529  0.3977 -0.7942 -0.6115
  989MOL0     O30446   6.188   7.413   8.480 -0.0484  0.3299  0.3171
  989MOL0     C30447   6.278   7.506   8.526 -0.2027  0.2769 -0.4042
  989MOL0     C30448   6.240   7.585   8.637  0.4883  0.8427  0.1405
  989MOL0     C30449   6.327   7.676   8.694  1.2549 -0.3217  0.9922
  989MOL0     C30450   6.440   7.720   8.625 -0.7314  0.3960  0.4332
  989MOL0     O30451   6.511   7.826   8.663 -0.0444  0.6252 -0.4369
  989MOL0     C30452   6.481   7.868   8.788 -0.1259 -0.6621 -0.9174
  989MOL0     C30453   6.579   7.992   8.801 -1.2719 -0.3129 -0.2113
  989MOL0     C30454   6.580   8.045   8.939 -0.7823  0.1658  0.3384
  989MOL0     C30455   6.678   8.166   8.935  0.1137  0.2822 -0.5279
  989MOL0     C30456   6.705   8.196   9.079 -0.5608 -0.3126  0.2163
  989MOL0     C30457   6.834   8.283   9.102  0.5903 -0.5910  0.4491
  989MOL0     C30458   6.795   8.427   9.083  0.1232 -0.0868  0.1506
  989MOL0     C30459   6.909   8.526   9.106  0.2183 -0.5549  0.2128
  989MOL0    Cl30460   7.050   8.487   8.998 -0.1591 -0.2508 -0.1550
  989MOL0     C30461   6.483   7.647   8.510  0.7989 -0.7493 -0.4948
  989MOL0     C30462   6.395   7.542   8.462 -0.4765 -0.2505 -0.1861
  989MOL0     O30463   6.294   7.235   8.577  0.6473  0.8751  0.2424
  989MOL0     C30464   6.068   7.081   8.572  0.2522  0.4307  0.4580
  989MOL0     C30465   5.952   6.989   8.548 -0.5481  0.6402 -0.4645
  989MOL0     N30466   5.325   7.011   7.934 -0.0614 -0.0018  0.9442
  989MOL0     N30467   5.199   7.005   7.926  0.4938 -0.7249 -0.3773
  989MOL0     C30468   5.752   6.484   8.293 -0.3837 -0.2518  0.9678
  989MOL0     C30469   5.887   6.467   8.320 -0.0126  0.5578  0.5885
  989MOL0     C30470   6.332   6.486   8.370 -1.0078 -0.6694 -0.2146
  989MOL0     C30471   6.412   6.451   8.262 -0.3504 -0.9838  0.3775
  989MOL0     C30472   6.552   6.440   8.262  0.4463  0.4856  0.2972
  989MOL0     C30473   6.619   6.470   8.382 -0.0525 -0.2940  0.4636
  989MOL0     O30474   6.756   6.445   8.383  0.4717 -0.0651  1.0652
  989MOL0     C30475   6.832   6.471   8.503  0.5163 -0.8294 -0.0148
  989MOL0     C30476   6.837   6.350   8.597  0.4301 -0.5207  0.3208
  989MOL0     C30477   6.851   6.393   8.745 -0.6795 -1.1816 -0.4568
  989MOL0     C30478   6.894   6.291   8.852 -0.1761  0.4250  0.6529
  989MOL0     C30479   7.041   6.284   8.843 -0.3161  0.8810 -0.8235
  989MOL0     C30480   7.162   6.265   8.834  0.5042 -0.2713  0.5502
  989MOL0     C30481   6.539   6.500   8.496  0.3038  0.6581  0.4295
  989MOL0     C30482   6.401   6.500   8.493  0.7992  0.4310  0.0046
  989MOL0     H30483   6.022   6.540   8.015 -2.5325  3.2403 -2.5077
  989MOL0     H30484   5.764   6.577   7.966 -1.7277 -2.8344 -1.5191
  989MOL0     H30485   5.515   6.440   8.278  2.5074  1.4934 -0.0247
  989MOL0     H30486   5.508   6.371   8.107 -0.0018  0.8498 -1.0205
  989MOL0     H30487   5.277   6.422   8.199  3.1179 -1.4065  0.7467
  989MOL0     H30488   5.310   6.533   8.065 -2.8726 -1.5894  0.4470
  989MOL0     H30489   5.383   6.708   8.248 -1.5264  0.8206 -1.9390
  989MOL0     H30490   5.338   6.586   8.369 -1.4428 -0.3342  0.6417
  989MOL0     H30491   5.105   6.582   8.292 -0.3675 -0.3788 -0.4742
  989MOL0     H30492   5.154   6.733   8.357  0.1333  0.4019 -1.3324
  989MOL0     H30493   5.127   6.673   8.078  1.7149  2.0466 -0.1615
  989MOL0     H30494   5.205   6.825   8.131  0.3279  0.3652 -1.3191
  989MOL0     H30495   5.001   6.856   8.279  1.2250 -2.7558  0.1856
  989MOL0     H30496   4.927   6.728   8.182 -0.8602  0.3130 -1.6205
  989MOL0     H30497   4.961   6.861   7.978  0.3351 -0.1125  0.0418
  989MOL0     H30498   4.833   6.927   8.091  0.6236  0.9523 -2.5467
  989MOL0     H30499   5.001   7.091   8.182 -4.8324  0.4188 -0.2349
  989MOL0     H30500   4.957   7.124   8.017  1.0916  0.7883 -0.2650
  989MOL0     H30501   5.266   7.146   8.225  2.1140  1.2161 -1.2766
  989MOL0     H30502   5.522   7.186   8.152  0.4898 -1.2218  0.5552
  989MOL0     H30503   5.571   7.101   8.007 -1.3146  0.9304 -0.5859
  989MOL0     H30504   5.526   6.876   8.166 -1.9803  0.9889  0.3544
  989MOL0     H30505   5.519   6.990   8.295  1.5862  1.2218  0.0514
  989MOL0     H30506   5.762   6.917   8.108 -2.8886  3.5396 -3.1960
  989MOL0     H30507   5.760   7.058   8.217  2.7231 -0.8371 -0.2601
  989MOL0     H30508   5.877   6.854   8.311 -0.4051 -1.7404  0.6597
  989MOL0     H30509   5.724   6.776   8.347 -1.7792  1.3639 -0.5595
  989MOL0     H30510   5.769   7.208   8.367  0.4544 -2.7572 -3.5365
  989MOL0     H30511   5.971   7.336   8.396 -3.3312 -0.7524  0.1490
  989MOL0     H30512   6.146   7.562   8.685  1.2458 -3.3610  0.0145
  989MOL0     H30513   6.266   7.723   8.770 -1.0690 -1.6748  0.0775
  989MOL0     H30514   6.497   7.789   8.862 -1.7177  1.5065  1.9818
  989MOL0     H30515   6.378   7.902   8.802  0.2743 -0.4239  2.3213
  989MOL0     H30516   6.563   8.072   8.728  1.0868 -0.1798 -0.6817
  989MOL0     H30517   6.680   7.965   8.769  0.2755  4.1147  0.1207
  989MOL0     H30518   6.608   7.968   9.011  2.0175  2.2162  1.6312
  989MOL0     H30519   6.475   8.072   8.960 -0.9960 -0.3462 -0.0606
  989MOL0     H30520   6.775   8.146   8.889  0.7161  0.0724  0.7888
  989MOL0     H30521   6.627   8.248   8.884  1.9637  2.7350  1.2814
  989MOL0     H30522   6.714   8.106   9.140  2.5961 -0.6303 -0.5293
  989MOL0     H30523   6.623   8.254   9.122  0.5615  1.3204  0.2485
  989MOL0     H30524   6.925   8.259   9.047 -0.0649 -1.0109 -0.4833
  989MOL0     H30525   6.864   8.273   9.207  1.5812  1.7103  0.4548
  989MOL0     H30526   6.770   8.445   8.978  0.4928  0.3639  0.1348
  989MOL0     H30527   6.708   8.454   9.144 -0.4479 -2.4959  0.4815
  989MOL0     H30528   6.945   8.531   9.209  1.1744  2.7375 -0.1491
  989MOL0     H30529   6.871   8.627   9.085 -1.8335 -0.9860  1.5969
  989MOL0     H30530   6.569   7.667   8.449  1.4426 -1.1359  0.2646
  989MOL0     H30531   6.409   7.475   8.377 -2.2850 -1.1213  0.1726
  989MOL0     H30532   6.155   7.056   8.632 -2.2160  1.3198  4.8328
  989MOL0     H30533   5.946   6.894   8.599  0.0224 -0.0300 -1.6096
  989MOL0     H30534   5.687   6.461   8.376  2.3121 -1.7491  2.8052
  989MOL0     H30535   5.918   6.428   8.416 -0.1248 -0.6875  0.1398
  989MOL0     H30536   6.369   6.438   8.163 -0.5487  1.0410  0.1633
  989MOL0     H30537   6.611   6.405   8.178 -0.4713  1.2693 -0.7142
  989MOL0     H30538   6.788   6.558   8.553 -0.3377 -0.6174 -1.0871
  989MOL0     H30539   6.934   6.498   8.476 -0.1604 -0.5670 -2.6249
  989MOL0     H30540   6.739   6.302   8.593 -0.0617  0.4342  0.4719
  989MOL0     H30541   6.923   6.290   8.566  1.5660  2.4319 -2.9285
  989MOL0     H30542   6.753   6.425   8.782  0.9250  0.2302  3.0632
  989MOL0     H30543   6.908   6.484   8.765  0.1798 -2.1829  2.0913
  989MOL0     H30544   6.869   6.336   8.949  0.6727  1.4944  0.3974
  989MOL0     H30545   6.834   6.202   8.838 -2.0872  1.9383 -1.4968
  989MOL0     H30546   7.268   6.252   8.831  0.4691 -0.3431 -1.2476
  989MOL0     H30547   6.584   6.515   8.594 -1.6480 -0.9054  1.6261
  989MOL0     H30548   6.337   6.520   8.579 -1.8949 -0.4507 -1.6690
  990MOL0     O30549   6.204   7.743   6.653 -0.1970 -0.6844 -0.4013
  990MOL0     C30550   6.294   7.722   6.726 -0.0282  0.3486  0.6732
  990MOL0     O30551   6.291   7.639   6.839 -0.1332  0.6555  0.2122
  990MOL0     C30552   6.170   7.616   6.874  1.0687 -0.5863 -0.0311
  990MOL0     C30553   6.112   7.666   6.997 -0.0769  1.0143  0.4823
  990MOL0     C30554   5.985   7.637   7.043 -0.4817  0.4814  0.1309
  990MOL0     C30555   5.904   7.550   6.961  0.1424 -0.6039  0.5665
  990MOL0     O30556   5.783   7.507   7.004  0.2191  0.6048  0.1748
  990MOL0     C30557   5.788   7.459   7.141  0.8472  0.1071  0.5593
  990MOL0     C30558   5.657   7.376   7.167 -0.0329 -0.1526 -0.0156
  990MOL0     C30559   5.530   7.480   7.162  0.6110 -1.2473 -0.4134
  990MOL0     C30560   5.392   7.406   7.169  0.1933  0.4618 -0.4363
  990MOL0     C30561   5.279   7.509   7.142 -0.0112 -0.2673 -0.0694
  990MOL0     C30562   5.150   7.436   7.119  0.8229  0.4364  0.7442
  990MOL0     C30563   5.039   7.538   7.098 -0.8533 -0.4193 -0.8389
  990MOL0     C30564   5.045   7.616   6.973  0.6464 -0.7544  0.3161
  990MOL0     N30565   4.930   7.710   6.967  0.5679  0.0497 -0.8872
  990MOL0     C30566   4.907   7.819   7.058 -0.7804  0.4473  0.0943
  990MOL0     C30567   4.808   7.891   7.002  0.2473  0.2543 -0.2628
  990MOL0     C30568   4.738   8.008   7.063 -0.3646  0.3537  0.1235
  990MOL0     C30569   4.812   8.143   7.040  0.0915  0.2802 -0.2655
  990MOL0     C30570   4.800   8.207   6.902 -0.1567  0.6728 -0.1784
  990MOL0     C30571   4.882   8.336   6.886  0.4437  0.4068  0.7729
  990MOL0     O30572   5.024   8.317   6.887 -0.1507  0.7060 -0.0233
  990MOL0     C30573   5.097   8.434   6.891  0.8071 -0.2633  0.2301
  990MOL0     C30574   5.226   8.418   6.930  0.6131  0.1825  0.0988
  990MOL0     C30575   5.322   8.522   6.943 -1.0086 -0.0549  0.5077
  990MOL0     C30576   5.283   8.653   6.931 -0.4929  0.2043 -0.1176
  990MOL0     C30577   5.380   8.762   6.969 -0.5443  0.2499 -0.7493
  990MOL0     O30578   5.327   8.883   6.951 -0.2004  0.6464  0.4106
  990MOL0     C30579   5.341   8.989   7.039  0.5680  0.6520 -0.2248
  990MOL0     C30580   5.360   9.116   6.991  1.0598  0.1622 -0.2809
  990MOL0     C30581   5.408   9.217   7.071  0.2710 -0.4403 -0.3042
  990MOL0     C30582   5.419   9.196   7.214  0.1653  0.2861 -0.3625
  990MOL0     O30583   5.459   9.308   7.287 -1.0722 -0.3911  0.2261
  990MOL0     C30584   5.489   9.307   7.426 -0.4665  0.4155  0.9844
  990MOL0     C30585   5.444   9.448   7.488  0.1677  0.3674 -0.0737
  990MOL0     C30586   5.546   9.500   7.574 -0.6566 -0.3904 -0.1465
  990MOL0     C30587   5.550   9.420   7.704  0.6231 -0.2781  0.1320
  990MOL0     C30588   5.660   9.447   7.799 -0.5176  0.0663  0.2606
  990MOL0     C30589   5.676   9.592   7.832  0.6238  0.2549 -0.0653
  990MOL0     C30590   5.784   9.615   7.934  0.3121  0.1551  0.2204
  990MOL0     C30591   5.795   9.764   7.982  0.6285 -0.5928  0.3882
  990MOL0    Cl30592   5.661   9.816   8.087 -0.0951 -0.2306 -0.0392
  990MOL0     C30593   5.381   9.069   7.266  0.1908  0.5205  0.0361
  990MOL0     C30594   5.345   8.965   7.171  1.2264  0.3076 -1.0139
  990MOL0     O30595   5.494   8.747   7.008 -0.3513  0.8723 -0.0545
  990MOL0     C30596   5.148   8.683   6.904 -0.8931  0.6023  0.6080
  990MOL0     C30597   5.058   8.570   6.878 -0.5841  0.3795 -0.2097
  990MOL0     N30598   4.772   7.834   6.877 -0.2877 -0.8852 -0.2364
  990MOL0     N30599   4.849   7.726   6.861  0.0032 -0.8345 -0.2590
  990MOL0     C30600   5.951   7.504   6.844  0.1060  0.2508 -0.3656
  990MOL0     C30601   6.084   7.532   6.799  0.6250  0.3688 -0.8983
  990MOL0     C30602   6.433   7.773   6.701 -0.2583 -0.0105  0.3056
  990MOL0     C30603   6.465   7.846   6.585 -0.0554  0.2739 -0.1821
  990MOL0     C30604   6.594   7.894   6.567 -0.6448 -0.7965  0.1119
  990MOL0     C30605   6.698   7.864   6.665  0.4383  0.0570  0.3198
  990MOL0     O30606   6.818   7.927   6.652 -0.2268 -0.3034 -0.4042
  990MOL0     C30607   6.942   7.867   6.696  0.8319  0.8611 -0.6449
  990MOL0     C30608   7.055   7.954   6.654  1.1491  0.3639 -0.1480
  990MOL0     C30609   7.189   7.889   6.684 -0.4114  0.6205 -0.0905
  990MOL0     C30610   7.307   7.988   6.683  0.8134  0.3103 -0.0720
  990MOL0     C30611   7.435   7.917   6.670 -0.2654  0.2742 -0.6913
  990MOL0     C30612   7.524   7.833   6.665  0.2019 -0.1118 -1.2885
  990MOL0     C30613   6.670   7.778   6.772  0.6568  0.4067 -0.3787
  990MOL0     C30614   6.535   7.730   6.784 -0.0335  0.7967  0.7140
  990MOL0     H30615   6.187   7.716   7.057 -0.9130  1.3532  1.2542
  990MOL0     H30616   5.944   7.697   7.123  3.2972  2.7844  0.5792
  990MOL0     H30617   5.780   7.549   7.202  1.1365  2.1247 -2.1527
  990MOL0     H30618   5.873   7.395   7.164  0.6789  0.2674  1.6530
  990MOL0     H30619   5.670   7.332   7.265 -1.6553  2.7678  1.6734
  990MOL0     H30620   5.643   7.294   7.096 -3.1514  0.3027 -0.0996
  990MOL0     H30621   5.535   7.551   7.079  0.9108 -1.5352 -0.6479
  990MOL0     H30622   5.539   7.549   7.246  2.4309  1.7228 -2.8661
  990MOL0     H30623   5.396   7.325   7.095 -1.0207 -0.4989  0.5095
  990MOL0     H30624   5.378   7.364   7.269 -1.1494 -0.6762 -1.0588
  990MOL0     H30625   5.301   7.564   7.050 -0.5482  1.5246  0.8228
  990MOL0     H30626   5.275   7.583   7.223  3.5417  0.4002 -0.3086
  990MOL0     H30627   5.125   7.380   7.210 -0.4250 -0.0180  0.1566
  990MOL0     H30628   5.141   7.366   7.036  0.8426  2.2502 -0.8497
  990MOL0     H30629   4.942   7.490   7.110 -0.7989  0.1522  2.8093
  990MOL0     H30630   5.037   7.602   7.186 -1.4053 -0.9830 -0.4406
  990MOL0     H30631   5.046   7.558   6.880  2.1940  1.0566 -0.8735
  990MOL0     H30632   5.138   7.673   6.967  0.8795 -0.9977  1.4416
  990MOL0     H30633   4.970   7.846   7.142  0.2042 -0.0575 -0.4626
  990MOL0     H30634   4.730   7.997   7.171 -3.1637 -0.0015 -0.0494
  990MOL0     H30635   4.638   8.023   7.020 -0.5539  0.2168  0.5145
  990MOL0     H30636   4.916   8.116   7.064 -0.5454 -2.0970  0.0986
  990MOL0     H30637   4.775   8.208   7.119  1.7898  2.6713 -1.3071
  990MOL0     H30638   4.851   8.134   6.839  2.0179  0.9854  1.1285
  990MOL0     H30639   4.698   8.221   6.864 -0.7837  1.1576  1.6140
  990MOL0     H30640   4.858   8.390   6.978 -0.1565 -0.0629  0.8946
  990MOL0     H30641   4.846   8.398   6.803  0.8860  2.8896  2.3252
  990MOL0     H30642   5.255   8.314   6.942 -1.5944 -0.7363 -1.5704
  990MOL0     H30643   5.420   8.494   6.980 -1.0712  1.8446  2.3249
  990MOL0     H30644   5.362   9.121   6.882 -1.1740  0.2914 -0.3588
  990MOL0     H30645   5.435   9.314   7.032 -2.9544  2.5386  3.9373
  990MOL0     H30646   5.592   9.286   7.455  0.3927  0.3678 -1.7477
  990MOL0     H30647   5.428   9.224   7.462  0.1066 -0.7968 -0.7423
  990MOL0     H30648   5.351   9.440   7.545  1.3495 -0.1277  1.8836
  990MOL0     H30649   5.431   9.514   7.402 -3.8933  0.9830  0.8374
  990MOL0     H30650   5.525   9.608   7.578  0.2351 -0.2515  2.7585
  990MOL0     H30651   5.635   9.493   7.510  0.0735 -1.2824  0.9530
  990MOL0     H30652   5.458   9.434   7.762  1.4636 -2.1070  2.0254
  990MOL0     H30653   5.557   9.313   7.682 -1.4312 -0.3397 -0.4633
  990MOL0     H30654   5.755   9.406   7.763 -0.5765  0.4555 -0.3488
  990MOL0     H30655   5.628   9.393   7.888 -0.6269 -1.4460 -0.6646
  990MOL0     H30656   5.579   9.630   7.865  0.0919 -2.8913  2.4563
  990MOL0     H30657   5.707   9.642   7.740 -3.1431  0.1920 -1.5693
  990MOL0     H30658   5.779   9.544   8.018 -1.4169  1.2166  1.0651
  990MOL0     H30659   5.882   9.591   7.891  0.9957 -0.5087  2.0072
  990MOL0     H30660   5.789   9.825   7.892  0.8561 -1.2763 -0.0968
  990MOL0     H30661   5.889   9.781   8.035 -0.6565  0.3756  2.4909
  990MOL0     H30662   5.387   9.044   7.371 -0.5595 -1.7176 -0.4048
  990MOL0     H30663   5.325   8.864   7.204  3.1916  0.1841 -0.0705
  990MOL0     H30664   5.114   8.785   6.890  0.8646  0.8188 -3.9247
  990MOL0     H30665   4.953   8.588   6.857 -0.7852 -0.1894  0.3083
  990MOL0     H30666   5.897   7.433   6.783  2.3400 -1.6937 -0.2396
  990MOL0     H30667   6.123   7.501   6.702 -1.2900  1.0280 -1.9167
  990MOL0     H30668   6.380   7.883   6.529 -1.5428 -2.2549  0.2337
  990MOL0     H30669   6.631   7.952   6.483  0.9922 -0.6961  0.8549
  990MOL0     H30670   6.954   7.772   6.643 -0.5520  0.3418 -0.0707
  990MOL0     H30671   6.936   7.860   6.805 -0.6906 -1.5702 -0.8078
  990MOL0     H30672   7.051   7.966   6.545 -0.9009 -2.3947 -0.4914
  990MOL0     H30673   7.054   8.050   6.706  0.7793  0.1662  0.2103
  990MOL0     H30674   7.215   7.803   6.622 -0.2297 -0.3696  1.2904
  990MOL0     H30675   7.172   7.849   6.785 -0.9854  1.4270  0.1433
  990MOL0     H30676   7.299   8.065   6.605  2.0726  0.1352 -0.3930
  990MOL0     H30677   7.307   8.042   6.778  2.7965  3.4945 -1.6997
  990MOL0     H30678   7.611   7.771   6.659  1.2143  1.2299 -0.9895
  990MOL0     H30679   6.744   7.761   6.850 -0.0691 -0.3251  0.1587
  990MOL0     H30680   6.516   7.671   6.874  0.8552  2.9624  2.4003
  991MOL0     O30681   9.430   0.678   8.327 -0.3202  0.0448  0.1204
  991MOL0     C30682   9.325   0.704   8.264 -0.1120  0.1179 -0.6892
  991MOL0     O30683   9.267   0.827   8.268  0.6129 -0.5899 -0.3188
  991MOL0     C30684   9.323   0.951   8.281  0.3715 -0.6124  0.8333
  991MOL0     C30685   9.468   0.975   8.292  0.7794  0.1502  1.2628
  991MOL0     C30686   9.514   1.107   8.290 -0.4779 -0.1630 -0.0283
  991MOL0     C30687   9.426   1.221   8.280 -0.1956 -0.3108  0.4688
  991MOL0     O30688   9.472   1.346   8.248  0.2709 -0.4344  0.5608
  991MOL0     C30689   9.603   1.380   8.293  0.0558  1.7523  0.2900
  991MOL0     C30690   9.620   1.532   8.297  0.1702 -0.1300 -0.5622
  991MOL0     C30691   9.644   1.587   8.439 -0.2632 -0.4283 -0.0812
  991MOL0     C30692   9.665   1.740   8.420 -0.1981  0.0144  0.6357
  991MOL0     C30693   9.712   1.810   8.544  0.1841  0.6633 -0.2585
  991MOL0     C30694   9.684   1.957   8.551  0.2489 -0.7618 -0.3017
  991MOL0     C30695   9.785   2.043   8.473  0.4593 -0.0231  0.1510
  991MOL0     C30696   9.754   2.187   8.472 -0.2694  0.3442 -0.5968
  991MOL0     N30697   9.783   2.237   8.611  1.1064  0.1195  0.0669
  991MOL0     C30698   9.884   2.317   8.644  0.4454 -0.5741  0.1307
  991MOL0     C30699   9.863   2.347   8.770  0.8182 -0.0312  0.1605
  991MOL0     C30700   9.952   2.430   8.845 -0.3083 -0.4294 -0.6418
  991MOL0     C30701   9.892   2.578   8.854  0.5243  0.8288 -0.7347
  991MOL0     C30702   9.982   2.659   8.949  0.0715  0.3449  0.4680
  991MOL0     C30703   9.915   2.789   8.999 -0.4664 -0.6243  0.0897
  991MOL0     O30704   9.862   2.869   8.893 -0.2930  0.3923  0.3648
  991MOL0     C30705   9.783   2.971   8.933  0.3822  0.1579 -0.2257
  991MOL0     C30706   9.755   3.013   9.063 -0.0677  0.3390 -0.5188
  991MOL0     C30707   9.655   3.107   9.093 -0.0138  0.0877  0.1206
  991MOL0     C30708   9.568   3.150   8.988 -0.7914 -1.4931 -0.4607
  991MOL0     C30709   9.453   3.238   9.021  0.1186 -0.0345 -0.4966
  991MOL0     O30710   9.355   3.251   8.934  0.2539 -0.4055 -0.2355
  991MOL0     C30711   9.256   3.344   8.946 -0.7845  0.2258  0.0343
  991MOL0     C30712   9.274   3.478   8.996  0.9175 -0.7613  0.4831
  991MOL0     C30713   9.159   3.558   8.995  0.7262  0.9031 -0.7175
  991MOL0     C30714   9.035   3.512   8.960  0.4649 -0.6435  0.7976
  991MOL0     O30715   8.926   3.590   8.973 -0.6871  0.1060  0.0846
  991MOL0     C30716   8.819   3.575   8.883 -1.2139  0.5914  0.1454
  991MOL0     C30717   8.721   3.678   8.910  0.3109 -1.3500 -0.6100
  991MOL0     C30718   8.623   3.703   8.788  0.2441 -0.3011  0.4110
  991MOL0     C30719   8.533   3.586   8.747 -0.4833 -0.6030 -0.0490
  991MOL0     C30720   8.384   3.629   8.740 -0.5521 -0.1523 -0.3533
  991MOL0     C30721   8.302   3.499   8.714 -1.4534  0.4530  0.3508
  991MOL0     C30722   8.156   3.526   8.719 -0.3421  0.1582 -0.9841
  991MOL0     C30723   8.102   3.602   8.600  0.1571 -0.5250 -0.2783
  991MOL0    Cl30724   8.104   3.487   8.448  0.9148  0.0189  0.2152
  991MOL0     C30725   9.017   3.380   8.921 -0.3384 -0.5582 -1.0431
  991MOL0     C30726   9.128   3.292   8.908  0.4024 -0.1233  0.2989
  991MOL0     O30727   9.458   3.279   9.140 -0.2545 -0.1610  1.3318
  991MOL0     C30728   9.602   3.114   8.859 -0.1139 -0.5355  0.6900
  991MOL0     C30729   9.716   3.034   8.833  0.9237 -1.1165 -0.3964
  991MOL0     N30730   9.740   2.286   8.821  0.3224 -0.2821 -0.6027
  991MOL0     N30731   9.695   2.228   8.714 -0.5002 -0.4472 -0.6640
  991MOL0     C30732   9.288   1.197   8.271 -0.2111 -0.6097 -0.3108
  991MOL0     C30733   9.238   1.069   8.264 -0.3208 -0.6803  0.0783
  991MOL0     C30734   9.245   0.589   8.225  0.5487  0.1134  0.5464
  991MOL0     C30735   9.101   0.590   8.229 -0.2348  0.4203 -1.4810
  991MOL0     C30736   9.024   0.480   8.215  0.2806 -0.5084  0.8672
  991MOL0     C30737   9.087   0.360   8.176  1.0256  0.0914 -0.2010
  991MOL0     O30738   9.010   0.247   8.157 -0.6835  0.4533 -0.3076
  991MOL0     C30739   8.947   0.212   8.288  0.4778 -1.1284  0.4701
  991MOL0     C30740   8.890   0.076   8.289  0.5617 -0.2269  0.1574
  991MOL0     C30741   8.982  -0.033   8.241 -0.3371 -1.2280  0.1681
  991MOL0     C30742   8.909  -0.148   8.172  0.0532 -0.7080 -0.2360
  991MOL0     C30743   8.813  -0.207   8.271 -0.1376  0.6188 -0.3387
  991MOL0     C30744   8.753  -0.260   8.361  0.4196 -0.2911 -1.3433
  991MOL0     C30745   9.225   0.355   8.169  0.2510  0.3739 -0.9325
  991MOL0     C30746   9.300   0.473   8.188 -0.0483  0.2638  0.7575
  991MOL0     H30747   9.543   0.897   8.293  1.1132  0.3412 -1.4836
  991MOL0     H30748   9.619   1.116   8.316 -1.1071  0.5681  2.6019
  991MOL0     H30749   9.667   1.323   8.225 -1.0421 -0.2049  0.8272
  991MOL0     H30750   9.621   1.338   8.392 -0.2878 -1.5064 -0.8941
  991MOL0     H30751   9.538   1.578   8.241  0.9984 -0.7167 -2.3306
  991MOL0     H30752   9.705   1.561   8.234  2.7659 -1.6667  1.9854
  991MOL0     H30753   9.732   1.547   8.490  0.8393  1.3988 -0.4616
  991MOL0     H30754   9.559   1.571   8.505 -0.7094  0.4031 -0.4373
  991MOL0     H30755   9.735   1.755   8.337 -2.2565  3.0669 -0.6998
  991MOL0     H30756   9.569   1.772   8.380 -0.7687 -3.6856 -1.3881
  991MOL0     H30757   9.821   1.802   8.550  0.0673 -1.5091  0.1265
  991MOL0     H30758   9.673   1.746   8.624 -0.0534 -1.4223 -1.9343
  991MOL0     H30759   9.682   1.986   8.657 -0.3468  0.1174 -0.5372
  991MOL0     H30760   9.581   1.969   8.515 -0.0035 -3.7665 -0.8497
  991MOL0     H30761   9.889   2.024   8.500  0.7047 -2.5794 -2.1548
  991MOL0     H30762   9.782   2.020   8.366  0.6638 -2.8322  0.6671
  991MOL0     H30763   9.649   2.205   8.448 -1.4548 -1.6334  2.5054
  991MOL0     H30764   9.825   2.232   8.402  0.6660 -1.9018 -1.1813
  991MOL0     H30765   9.957   2.356   8.574 -1.3185  0.5962 -1.1521
  991MOL0     H30766  10.053   2.432   8.801  1.3953 -2.3558  2.7899
  991MOL0     H30767   9.961   2.379   8.942 -1.9298 -1.5465 -1.0326
  991MOL0     H30768   9.796   2.583   8.906  2.1939 -2.4935  3.2425
  991MOL0     H30769   9.901   2.632   8.759  1.4687  2.0456  0.0049
  991MOL0     H30770   9.991   2.591   9.034 -1.5478  0.1874  0.5476
  991MOL0     H30771  10.078   2.674   8.899  0.4867 -4.0776 -0.4488
  991MOL0     H30772   9.988   2.841   9.062 -0.4317 -1.4179  0.7237
  991MOL0     H30773   9.843   2.747   9.070  0.7705  0.2725  1.9715
  991MOL0     H30774   9.826   2.980   9.139 -0.6490 -1.5235 -0.7283
  991MOL0     H30775   9.627   3.125   9.196  3.0219  1.9001  0.7358
  991MOL0     H30776   9.367   3.523   9.031 -0.1890  1.0364  1.3014
  991MOL0     H30777   9.162   3.663   9.024 -1.1400  1.0761 -1.0490
  991MOL0     H30778   8.766   3.479   8.885 -1.3613  0.6854  0.9029
  991MOL0     H30779   8.855   3.590   8.780  0.9969 -1.4544  0.5404
  991MOL0     H30780   8.769   3.772   8.937 -0.2238 -1.2141 -0.1058
  991MOL0     H30781   8.664   3.638   8.994  1.3769 -1.8820 -0.1165
  991MOL0     H30782   8.691   3.728   8.706  2.5138  0.0965  2.3060
  991MOL0     H30783   8.563   3.791   8.816  1.5394  0.6344  0.3400
  991MOL0     H30784   8.557   3.544   8.649  2.0967  1.1036 -0.2506
  991MOL0     H30785   8.557   3.518   8.829  4.7893  2.6812  1.6126
  991MOL0     H30786   8.369   3.712   8.671 -1.0708 -0.1687 -0.2708
  991MOL0     H30787   8.355   3.676   8.835  1.7231  1.9530 -0.6236
  991MOL0     H30788   8.322   3.408   8.771  1.3636  0.0551 -1.1337
  991MOL0     H30789   8.327   3.463   8.614  0.5651  0.3187  0.8640
  991MOL0     H30790   8.090   3.442   8.743  1.2543 -0.2510  2.6382
  991MOL0     H30791   8.139   3.590   8.806  2.8848  0.4745 -0.4564
  991MOL0     H30792   8.149   3.700   8.589 -1.4443  0.4042  0.7721
  991MOL0     H30793   7.998   3.634   8.609  0.7332  1.0120  1.5474
  991MOL0     H30794   8.921   3.339   8.892 -0.3102 -0.7450 -0.8697
  991MOL0     H30795   9.110   3.194   8.865 -1.6075  0.2677  0.1428
  991MOL0     H30796   9.543   3.141   8.772  3.3978  1.2134 -1.3254
  991MOL0     H30797   9.739   2.998   8.734 -2.6790  0.1934 -1.8889
  991MOL0     H30798   9.224   1.284   8.255  1.3056  0.1927 -2.4478
  991MOL0     H30799   9.136   1.040   8.241 -0.6897  0.5669  0.0911
  991MOL0     H30800   9.065   0.688   8.260 -0.6866 -0.6110  1.5457
  991MOL0     H30801   8.916   0.489   8.215  0.2880  1.1124 -2.5200
  991MOL0     H30802   8.870   0.286   8.314  0.9441 -0.1295 -0.8479
  991MOL0     H30803   9.019   0.204   8.370 -0.8560  1.3228  2.0167
  991MOL0     H30804   8.853   0.055   8.390  2.1662 -1.5863  0.5074
  991MOL0     H30805   8.799   0.073   8.228 -0.7249  0.8321  1.9143
  991MOL0     H30806   9.034  -0.069   8.330 -1.9208 -1.3708  1.0766
  991MOL0     H30807   9.054   0.004   8.167  1.0263  0.6102  2.3004
  991MOL0     H30808   8.852  -0.108   8.088  0.3639 -1.5659 -0.8741
  991MOL0     H30809   8.988  -0.215   8.136  0.6131  0.4773 -1.2565
  991MOL0     H30810   8.687  -0.298   8.436 -1.9741  1.2203 -2.5532
  991MOL0     H30811   9.277   0.260   8.155  0.6612  0.4821 -0.1703
  991MOL0     H30812   9.409   0.471   8.191  0.0355  1.8049 -0.0204
  992MOL0     O30813   9.748   2.495   5.720  0.1459  0.4995  0.0495
  992MOL0     C30814   9.851   2.554   5.690  0.1597 -0.4828  0.0799
  992MOL0     O30815   9.856   2.686   5.654 -0.3429 -0.4017 -0.1086
  992MOL0     C30816   9.739   2.750   5.630 -0.2409 -0.2443  0.6158
  992MOL0     C30817   9.675   2.740   5.503 -0.3831 -0.8282 -0.5624
  992MOL0     C30818   9.548   2.812   5.490  0.7913 -0.4114  0.3084
  992MOL0     C30819   9.507   2.900   5.588 -0.3261  0.0231  0.5175
  992MOL0     O30820   9.387   2.967   5.593 -0.6686  0.5559  0.2875
  992MOL0     C30821   9.351   3.058   5.481 -0.0315  0.1071  0.3325
  992MOL0     C30822   9.205   3.090   5.496  0.1481 -1.4079 -0.2374
  992MOL0     C30823   9.116   2.999   5.414 -0.3187 -1.3553 -0.6121
  992MOL0     C30824   9.103   2.858   5.466 -0.1926 -0.2336  1.3539
  992MOL0     C30825   8.998   2.782   5.396 -0.3749 -1.1335 -0.0911
  992MOL0     C30826   8.859   2.821   5.435 -0.1509  0.0486  0.8849
  992MOL0     C30827   8.762   2.747   5.326 -0.4081  0.2416  0.1017
  992MOL0     C30828   8.624   2.776   5.357  0.6712 -0.0099 -0.1362
  992MOL0     N30829   8.535   2.736   5.243 -0.2422  0.0449 -0.5349
  992MOL0     C30830   8.525   2.602   5.201  0.0768  0.0027  0.1967
  992MOL0     C30831   8.435   2.614   5.101 -0.3767 -0.6301 -0.1744
  992MOL0     C30832   8.374   2.494   5.033  0.4063  0.9055  0.0161
  992MOL0     C30833   8.275   2.417   5.122  0.2748 -0.6580 -1.0248
  992MOL0     C30834   8.196   2.335   5.020  0.1221  0.1936  0.3485
  992MOL0     C30835   8.082   2.263   5.100 -0.6021  0.5343 -0.3311
  992MOL0     O30836   8.003   2.360   5.163  0.1453  0.8957 -0.4475
  992MOL0     C30837   7.869   2.356   5.152 -0.2259 -0.5201 -0.3717
  992MOL0     C30838   7.806   2.453   5.076  0.1637 -0.5855 -0.8532
  992MOL0     C30839   7.669   2.451   5.064 -0.4032  0.5834  0.5701
  992MOL0     C30840   7.587   2.344   5.112 -0.1973 -0.3787 -0.3365
  992MOL0     C30841   7.434   2.342   5.089  0.1356 -0.1710  0.2913
  992MOL0     O30842   7.369   2.223   5.105  0.0074  0.4191 -0.6101
  992MOL0     C30843   7.246   2.202   5.048 -0.9433  1.6065 -0.2739
  992MOL0     C30844   7.181   2.265   4.929  0.7511  0.9478  0.8316
  992MOL0     C30845   7.049   2.239   4.897  0.8498 -0.1599 -0.2901
  992MOL0     C30846   6.979   2.149   4.977  0.5697  0.8200 -0.2018
  992MOL0     O30847   6.849   2.116   4.960  0.3102 -0.6055 -0.4367
  992MOL0     C30848   6.809   2.085   4.821 -0.9430 -0.0583 -0.3666
  992MOL0     C30849   6.658   2.039   4.820 -0.6861 -0.8767  0.2846
  992MOL0     C30850   6.557   2.156   4.816 -0.1112 -0.1832 -0.0105
  992MOL0     C30851   6.415   2.088   4.812 -1.2482 -1.1009  0.3313
  992MOL0     C30852   6.311   2.197   4.810 -0.6098  0.6455  0.5487
  992MOL0     C30853   6.281   2.252   4.677  0.5388  0.3351  0.4329
  992MOL0     C30854   6.198   2.384   4.689  0.0658 -0.9090  0.7605
  992MOL0     C30855   6.165   2.438   4.544 -0.5506 -0.0291 -0.3975
  992MOL0    Cl30856   6.331   2.491   4.485  0.4565  0.2459 -0.1214
  992MOL0     C30857   7.048   2.086   5.082 -0.4008 -0.3949 -0.8655
  992MOL0     C30858   7.174   2.115   5.119  0.4319  1.6262 -0.0655
  992MOL0     O30859   7.386   2.449   5.042  0.1233  0.2945  0.1343
  992MOL0     C30860   7.652   2.244   5.180  0.4876 -0.0005 -0.0639
  992MOL0     C30861   7.788   2.248   5.206 -1.0498 -0.6817 -0.5766
  992MOL0     N30862   8.395   2.748   5.091  0.6034 -0.4996 -0.3009
  992MOL0     N30863   8.448   2.820   5.184 -0.0236 -0.0581  0.5043
  992MOL0     C30864   9.583   2.923   5.705  0.7272 -0.3500 -0.2019
  992MOL0     C30865   9.693   2.831   5.735 -0.5795  0.0249  0.5359
  992MOL0     C30866   9.983   2.475   5.676  0.5205 -0.6891 -0.4718
  992MOL0     C30867   9.989   2.338   5.689  0.5502 -0.0286 -0.5730
  992MOL0     C30868  10.102   2.267   5.647  0.7367  0.3949 -0.6191
  992MOL0     C30869  10.221   2.337   5.611 -0.2994 -0.0098  0.7382
  992MOL0     O30870  10.333   2.263   5.572 -0.5426  0.0722  0.5385
  992MOL0     C30871  10.438   2.342   5.520  0.1971 -0.5448 -0.1531
  992MOL0     C30872  10.571   2.273   5.474  0.3333  0.5780  0.1372
  992MOL0     C30873  10.631   2.174   5.581  0.2898  0.0690 -0.0098
  992MOL0     C30874  10.550   2.052   5.621  0.4881 -0.3916 -1.1159
  992MOL0     C30875  10.542   1.951   5.515  0.1309 -0.5841  0.1466
  992MOL0     C30876  10.514   1.880   5.422 -0.4056 -0.2635  1.4408
  992MOL0     C30877  10.214   2.479   5.614 -0.4749  0.1145  0.3228
  992MOL0     C30878  10.097   2.543   5.641 -0.3387 -0.0083  0.0244
  992MOL0     H30879   9.723   2.693   5.418  1.7423  0.1800  0.0052
  992MOL0     H30880   9.488   2.795   5.401  2.5375 -1.2134 -0.7677
  992MOL0     H30881   9.372   3.016   5.382 -0.3121  2.3033 -0.7297
  992MOL0     H30882   9.415   3.147   5.483  2.5956 -1.6135 -0.9595
  992MOL0     H30883   9.201   3.190   5.451  0.1303 -2.1516 -1.9694
  992MOL0     H30884   9.171   3.109   5.598  1.2479 -0.5696 -0.0106
  992MOL0     H30885   9.157   2.986   5.314 -1.0194  0.4927 -1.1740
  992MOL0     H30886   9.014   3.040   5.415 -0.4095 -1.5800 -0.6573
  992MOL0     H30887   9.200   2.809   5.466  0.8190  1.6521  0.4648
  992MOL0     H30888   9.081   2.871   5.573 -0.9608 -0.1199  1.1904
  992MOL0     H30889   9.002   2.674   5.410 -3.8281 -1.8243 -3.1220
  992MOL0     H30890   9.024   2.803   5.292  2.3430  0.0044  0.7307
  992MOL0     H30891   8.847   2.929   5.431 -1.0187  0.1400  3.6845
  992MOL0     H30892   8.827   2.793   5.536 -1.4303 -0.5316  0.3510
  992MOL0     H30893   8.797   2.788   5.231  0.9855  1.2224  1.0149
  992MOL0     H30894   8.779   2.639   5.320 -1.6048 -0.0259  1.0979
  992MOL0     H30895   8.615   2.884   5.372 -3.7631 -0.0649 -0.8153
  992MOL0     H30896   8.584   2.727   5.446 -0.7773 -1.4134 -1.4652
  992MOL0     H30897   8.562   2.512   5.250  1.5154  1.0376  1.1135
  992MOL0     H30898   8.451   2.424   5.000  1.4913  2.3868 -0.7293
  992MOL0     H30899   8.326   2.534   4.943 -1.0295  1.4980  0.9991
  992MOL0     H30900   8.211   2.493   5.167 -2.0332 -1.9589 -1.9256
  992MOL0     H30901   8.330   2.352   5.191  1.7598  1.6813  0.0994
  992MOL0     H30902   8.147   2.401   4.948 -0.2744  0.5741  0.9564
  992MOL0     H30903   8.261   2.273   4.957  1.5230 -0.2512  2.1455
  992MOL0     H30904   8.135   2.203   5.174 -1.1505  0.1942 -0.2109
  992MOL0     H30905   8.018   2.206   5.031 -0.7697 -1.5961  1.4837
  992MOL0     H30906   7.863   2.532   5.028  0.3757 -1.1329 -1.5270
  992MOL0     H30907   7.611   2.526   5.011 -0.0103  1.6698  1.6347
  992MOL0     H30908   7.233   2.323   4.853 -2.5728 -1.3974 -3.7118
  992MOL0     H30909   6.994   2.291   4.819 -1.5415 -3.6992 -1.2085
  992MOL0     H30910   6.872   2.002   4.785  0.1836  0.8685 -0.6212
  992MOL0     H30911   6.810   2.175   4.759 -1.6161  0.6450  0.6242
  992MOL0     H30912   6.643   1.975   4.908 -4.0656 -0.7955 -0.1074
  992MOL0     H30913   6.646   1.984   4.726 -2.5444 -2.1888  1.2256
  992MOL0     H30914   6.576   2.217   4.727 -4.2761  0.2666 -0.7938
  992MOL0     H30915   6.562   2.224   4.900  1.4746  0.9198 -0.9482
  992MOL0     H30916   6.398   2.006   4.741 -0.1611 -1.6634  0.7037
  992MOL0     H30917   6.404   2.036   4.907 -1.0052  1.0984  1.6268
  992MOL0     H30918   6.346   2.277   4.875  1.3214  1.9065 -1.8592
  992MOL0     H30919   6.215   2.162   4.848  1.0626 -1.4558  3.1825
  992MOL0     H30920   6.246   2.168   4.616  0.5349  1.5534 -1.3049
  992MOL0     H30921   6.372   2.274   4.621 -0.2873  0.5871 -0.8502
  992MOL0     H30922   6.106   2.356   4.741 -0.4972  1.5787  1.2250
  992MOL0     H30923   6.251   2.460   4.746  0.3646 -0.0790 -0.5686
  992MOL0     H30924   6.088   2.516   4.546 -2.0658 -1.4368 -1.2761
  992MOL0     H30925   6.122   2.361   4.480 -2.3900 -0.3141  1.1161
  992MOL0     H30926   6.978   2.035   5.147 -2.2222  2.4452 -0.4316
  992MOL0     H30927   7.205   2.080   5.217 -1.2843  0.2509  0.0315
  992MOL0     H30928   7.586   2.168   5.220 -2.2594  2.2145 -0.0860
  992MOL0     H30929   7.845   2.181   5.268 -0.0859 -1.9251 -2.7017
  992MOL0     H30930   9.550   2.994   5.781 -2.1417 -0.2487 -1.4101
  992MOL0     H30931   9.755   2.826   5.824  1.9059  1.8785 -0.9395
  992MOL0     H30932   9.900   2.285   5.720  0.3748  1.8668  2.5660
  992MOL0     H30933  10.100   2.159   5.651  0.6328  0.3932 -0.7197
  992MOL0     H30934  10.462   2.400   5.610 -1.7809 -2.4127  1.6861
  992MOL0     H30935  10.406   2.393   5.429 -1.2931  1.2815  1.3239
  992MOL0     H30936  10.546   2.226   5.379  2.8969 -0.7881  0.0688
  992MOL0     H30937  10.641   2.349   5.438 -1.1577  1.5213 -0.8800
  992MOL0     H30938  10.644   2.231   5.674 -3.5050  2.4718 -0.7312
  992MOL0     H30939  10.728   2.137   5.548 -0.0666 -4.4558  3.0981
  992MOL0     H30940  10.601   2.007   5.707  0.5373 -0.3313 -1.1131
  992MOL0     H30941  10.453   2.077   5.666  0.7141  0.0034 -0.8294
  992MOL0     H30942  10.499   1.802   5.350  2.8899  0.0753  0.2008
  992MOL0     H30943  10.294   2.549   5.592 -0.6162  1.1995  2.9590
  992MOL0     H30944  10.108   2.650   5.625  1.5804 -0.1251  0.2955
  993MOL0     O30945   1.376   8.796   9.141  0.6410 -0.0024 -0.5622
  993MOL0     C30946   1.367   8.669   9.159  0.0384 -0.1537  0.2235
  993MOL0     O30947   1.254   8.594   9.171  0.5454 -0.3482  0.5675
  993MOL0     C30948   1.122   8.641   9.196 -0.1166  0.4090 -0.4687
  993MOL0     C30949   1.023   8.557   9.147 -0.0874  0.7323  1.0668
  993MOL0     C30950   0.886   8.593   9.143  0.4472 -0.5377  0.6621
  993MOL0     C30951   0.849   8.711   9.215  0.4605  1.2120 -0.6532
  993MOL0     O30952   0.712   8.744   9.227 -0.7205  0.4031  0.0801
  993MOL0     C30953   0.661   8.837   9.128 -1.0617 -0.2582 -0.2733
  993MOL0     C30954   0.592   8.757   9.026 -0.0551 -0.6965 -0.7630
  993MOL0     C30955   0.510   8.829   8.922  0.1795 -0.4597  0.7390
  993MOL0     C30956   0.424   8.727   8.843  0.3820  0.2260  0.3453
  993MOL0     C30957   0.517   8.634   8.753  0.2282  0.4349  0.8084
  993MOL0     C30958   0.436   8.592   8.627 -0.4047  0.1241 -0.7630
  993MOL0     C30959   0.518   8.507   8.529 -0.5880  0.5061  0.2149
  993MOL0     C30960   0.452   8.476   8.393  0.3458  0.3752  0.1642
  993MOL0     N30961   0.541   8.405   8.295  0.1646  0.9233  0.2118
  993MOL0     C30962   0.585   8.278   8.300 -1.2687  0.2928  0.1103
  993MOL0     C30963   0.654   8.258   8.187 -0.3921 -0.7684  0.7530
  993MOL0     C30964   0.708   8.128   8.150  0.3935 -0.4290 -0.4952
  993MOL0     C30965   0.638   8.066   8.028  0.0802 -0.8437  0.4239
  993MOL0     C30966   0.661   7.918   8.004 -0.6137  0.0479 -0.0482
  993MOL0     C30967   0.599   7.824   8.114 -0.5753  0.0479  0.2226
  993MOL0     O30968   0.455   7.826   8.120 -0.0424  0.2558  0.0600
  993MOL0     C30969   0.386   7.755   8.212 -0.8976  0.3992 -0.5810
  993MOL0     C30970   0.444   7.665   8.304 -0.2787 -0.7341  0.2610
  993MOL0     C30971   0.368   7.602   8.406 -0.5244  0.2607 -0.6339
  993MOL0     C30972   0.227   7.624   8.414 -0.5532 -0.4855  0.2857
  993MOL0     C30973   0.151   7.571   8.530  0.2462  0.5899  1.0057
  993MOL0     O30974   0.234   7.529   8.634  0.4965 -0.5225 -0.4040
  993MOL0     C30975   0.177   7.488   8.747  0.1751  0.3330 -0.5855
  993MOL0     C30976   0.257   7.390   8.814  0.3727 -0.5330 -0.3963
  993MOL0     C30977   0.224   7.337   8.936  0.4642 -0.6748 -0.9744
  993MOL0     C30978   0.091   7.350   8.982 -0.1353  0.1017 -0.2367
  993MOL0     O30979   0.032   7.285   9.089 -0.2972  0.1951 -0.1874
  993MOL0     C30980   0.108   7.293   9.207  0.5978 -0.0465 -0.8379
  993MOL0     C30981   0.017   7.257   9.329 -0.4537 -0.2431 -0.7925
  993MOL0     C30982   0.080   7.156   9.424  0.6908  0.2171  0.3469
  993MOL0     C30983   0.202   7.211   9.500  0.1247 -0.4723  0.8045
  993MOL0     C30984   0.203   7.173   9.646 -0.5352  0.3540 -0.0225
  993MOL0     C30985   0.161   7.034   9.684 -0.1196 -0.3242 -1.2291
  993MOL0     C30986   0.152   7.020   9.832 -0.2386 -0.5074 -0.2777
  993MOL0     C30987   0.178   6.881   9.883 -0.0706 -0.0797  0.1348
  993MOL0    Cl30988   0.110   6.869  10.048  0.2122 -0.1758 -0.1603
  993MOL0     C30989   0.008   7.427   8.903 -0.1942 -0.6856 -0.8834
  993MOL0     C30990   0.046   7.499   8.793 -0.0741 -0.2736  0.1240
  993MOL0     O30991   0.028   7.571   8.523 -0.5054 -0.1006  0.3385
  993MOL0     C30992   0.167   7.691   8.310  0.1406  0.5725  0.1511
  993MOL0     C30993   0.251   7.756   8.213  0.7559  0.6982 -0.4432
  993MOL0     N30994   0.649   8.379   8.119 -0.3861 -0.0382  0.2928
  993MOL0     N30995   0.579   8.463   8.182  0.5639 -0.4049 -0.0133
  993MOL0     C30996   0.948   8.791   9.278 -0.4600  1.3208 -0.2854
  993MOL0     C30997   1.087   8.757   9.268  0.2399  0.1844  0.3356
  993MOL0     C30998   1.496   8.596   9.143 -0.2454 -0.8434 -0.3700
  993MOL0     C30999   1.494   8.453   9.119  0.9638 -0.7874 -0.1687
  993MOL0     C31000   1.610   8.388   9.087  0.2167 -1.1163 -0.2893
  993MOL0     C31001   1.732   8.458   9.095  0.1610 -0.4433 -0.0124
  993MOL0     O31002   1.846   8.378   9.099  0.5291 -0.4951 -0.2467
  993MOL0     C31003   1.974   8.433   9.073 -0.4484 -0.5900  0.5737
  993MOL0     C31004   2.075   8.322   9.106 -0.2880 -0.0384 -0.3077
  993MOL0     C31005   2.057   8.191   9.030  0.0150 -0.3377 -0.3304
  993MOL0     C31006   2.173   8.106   9.066  0.9166  0.2217 -0.4667
  993MOL0     C31007   2.145   8.031   9.189 -0.2014  0.0725  0.6706
  993MOL0     C31008   2.092   7.973   9.279 -0.2106  1.1158  0.6994
  993MOL0     C31009   1.736   8.600   9.104 -0.4249  1.0409  0.1081
  993MOL0     C31010   1.614   8.668   9.125 -1.1188 -0.3078 -0.7204
  993MOL0     H31011   1.055   8.470   9.091  0.6547 -0.9385  3.9046
  993MOL0     H31012   0.803   8.546   9.089 -2.6295  5.4357 -0.6657
  993MOL0     H31013   0.749   8.888   9.088  1.3210 -1.2684  3.2288
  993MOL0     H31014   0.587   8.907   9.169 -0.6579  0.0697 -0.0994
  993MOL0     H31015   0.531   8.693   9.090  0.2621 -0.8369 -0.5990
  993MOL0     H31016   0.675   8.703   8.979  1.6808  1.8596 -0.8242
  993MOL0     H31017   0.572   8.889   8.856  1.1248  1.9086  3.5427
  993MOL0     H31018   0.442   8.901   8.968 -0.1493 -0.5743  0.4336
  993MOL0     H31019   0.371   8.656   8.907  0.3583 -0.3017 -0.2482
  993MOL0     H31020   0.344   8.763   8.778 -1.9591 -1.8293  1.8972
  993MOL0     H31021   0.551   8.549   8.812  1.2660  0.2982  0.0444
  993MOL0     H31022   0.606   8.680   8.710 -0.1233  0.7897  0.4425
  993MOL0     H31023   0.426   8.684   8.569  2.2287  3.0038  2.8397
  993MOL0     H31024   0.344   8.548   8.664 -0.2647 -0.3479 -0.9780
  993MOL0     H31025   0.615   8.553   8.505 -1.0788  1.9825  0.9053
  993MOL0     H31026   0.534   8.407   8.571 -2.7412 -0.0722 -0.2309
  993MOL0     H31027   0.411   8.564   8.342 -1.0549 -0.0856  0.4677
  993MOL0     H31028   0.377   8.399   8.413 -3.3463  3.5290 -0.3795
  993MOL0     H31029   0.562   8.208   8.379 -3.1338 -0.4131 -1.0065
  993MOL0     H31030   0.692   8.056   8.231  3.0430  1.2632  1.6817
  993MOL0     H31031   0.815   8.146   8.137  0.3542 -1.7356 -3.2168
  993MOL0     H31032   0.669   8.123   7.939 -3.3395  2.6472  1.1798
  993MOL0     H31033   0.535   8.096   8.045  0.9323  3.2715 -0.4646
  993MOL0     H31034   0.619   7.893   7.907 -0.2314 -0.4125 -0.0991
  993MOL0     H31035   0.769   7.904   8.014 -0.7207  0.7190  3.3980
  993MOL0     H31036   0.636   7.849   8.213  3.1997 -3.5224  0.0001
  993MOL0     H31037   0.643   7.728   8.083  0.9469  0.4214  1.1346
  993MOL0     H31038   0.550   7.645   8.298 -0.2910 -0.3678 -2.3171
  993MOL0     H31039   0.440   7.553   8.469  2.9851  2.0950 -2.9057
  993MOL0     H31040   0.355   7.377   8.769  1.5379  4.2375  0.2929
  993MOL0     H31041   0.298   7.290   8.999 -1.0486  2.0770  3.3195
  993MOL0     H31042   0.157   7.390   9.217  4.4995 -2.0240  1.8028
  993MOL0     H31043   0.180   7.211   9.213 -1.5608 -1.9624  0.6684
  993MOL0     H31044  -0.088   7.239   9.303 -0.4664 -1.2358 -0.1069
  993MOL0     H31045   0.027   7.347   9.390  2.4260 -0.5791 -0.6638
  993MOL0     H31046   0.104   7.066   9.366  0.1384 -0.5906  1.3436
  993MOL0     H31047   0.006   7.129   9.500  1.1549 -2.8357 -0.1421
  993MOL0     H31048   0.280   7.169   9.436 -1.2029 -3.7215  1.1233
  993MOL0     H31049   0.197   7.320   9.492 -3.6920 -0.6398 -4.4941
  993MOL0     H31050   0.136   7.231   9.711  1.7465 -1.6234  4.6162
  993MOL0     H31051   0.304   7.203   9.675 -0.0094 -0.5641 -0.8419
  993MOL0     H31052   0.235   6.964   9.645  0.3801 -1.0334  0.8627
  993MOL0     H31053   0.059   7.013   9.649 -1.4406 -0.5658  2.3321
  993MOL0     H31054   0.237   7.079   9.867 -0.8212 -1.1778  2.5756
  993MOL0     H31055   0.061   7.068   9.870  0.4889  0.1469  0.6884
  993MOL0     H31056   0.286   6.860   9.884 -0.1649 -0.6535 -0.6159
  993MOL0     H31057   0.128   6.803   9.825 -0.5764  1.0837 -1.0414
  993MOL0     H31058  -0.096   7.424   8.935  0.6977  1.6401  2.8568
  993MOL0     H31059  -0.032   7.562   8.750 -0.4197  0.1425  1.3113
  993MOL0     H31060   0.059   7.698   8.306  0.1744  1.1054  0.1050
  993MOL0     H31061   0.212   7.817   8.132  1.4746  0.4598 -0.9826
  993MOL0     H31062   0.915   8.885   9.321 -0.3555  1.8524 -1.3284
  993MOL0     H31063   1.167   8.818   9.309  0.3449  1.5381 -1.7353
  993MOL0     H31064   1.401   8.396   9.120  0.0992  0.4572  2.9939
  993MOL0     H31065   1.619   8.280   9.076 -1.3802 -1.4033  0.8698
  993MOL0     H31066   2.002   8.517   9.137  0.5258 -1.6542  1.5866
  993MOL0     H31067   1.982   8.443   8.965 -0.4385 -1.2316  0.5135
  993MOL0     H31068   2.175   8.363   9.088 -0.3800  0.5100  0.3820
  993MOL0     H31069   2.078   8.312   9.215  2.7104  3.5432  0.1343
  993MOL0     H31070   2.067   8.204   8.922  0.6777 -2.4771 -0.5766
  993MOL0     H31071   1.963   8.142   9.053  1.5073 -3.0681  0.4348
  993MOL0     H31072   2.199   8.034   8.987  0.9718 -2.2465  1.6889
  993MOL0     H31073   2.264   8.167   9.065 -0.0351  1.7388  1.0982
  993MOL0     H31074   2.048   7.935   9.369 -1.5121 -0.0590 -0.3929
  993MOL0     H31075   1.821   8.667   9.107 -1.2325  2.0840  0.1388
  993MOL0     H31076   1.621   8.776   9.139  2.2695 -0.5737  0.6990
  994MOL0     O31077   9.656   1.955   5.122  0.3951  0.5161 -0.4010
  994MOL0     C31078   9.757   2.021   5.115 -0.6643 -0.4235  0.1931
  994MOL0     O31079   9.793   2.133   5.185 -0.1331  0.2783 -0.0467
  994MOL0     C31080   9.696   2.230   5.226 -0.0789  0.0517  0.5529
  994MOL0     C31081   9.636   2.316   5.134 -0.7067 -0.0687  0.2791
  994MOL0     C31082   9.543   2.416   5.180  0.1622 -0.1863 -0.0807
  994MOL0     C31083   9.495   2.424   5.311 -1.2527  0.5704 -0.6256
  994MOL0     O31084   9.375   2.490   5.344 -1.1868 -0.1819 -0.2178
  994MOL0     C31085   9.348   2.526   5.480  0.0741  0.3364  1.4209
  994MOL0     C31086   9.214   2.444   5.515 -0.4907 -0.2396  0.1992
  994MOL0     C31087   9.190   2.452   5.664  0.3351 -0.8985  0.6183
  994MOL0     C31088   9.291   2.369   5.731  0.3949  0.6138  0.4693
  994MOL0     C31089   9.231   2.329   5.865 -0.2130  0.2771 -0.4188
  994MOL0     C31090   9.342   2.258   5.950  0.3415  0.8062  0.4404
  994MOL0     C31091   9.284   2.249   6.090  0.2075 -0.1401 -0.8572
  994MOL0     C31092   9.147   2.185   6.096  0.0464 -0.2037 -0.0310
  994MOL0     N31093   9.131   2.136   6.236 -0.5904  1.0135 -0.5518
  994MOL0     C31094   9.129   2.000   6.277 -0.3718  0.8999  0.1418
  994MOL0     C31095   9.147   2.003   6.411 -0.0543 -0.3813 -0.1080
  994MOL0     C31096   9.120   1.897   6.517 -0.7378 -0.0173 -0.0128
  994MOL0     C31097   9.214   1.774   6.492  0.5222 -0.3880 -0.8675
  994MOL0     C31098   9.350   1.798   6.542 -0.0608  0.4668  0.8304
  994MOL0     C31099   9.429   1.893   6.451  0.6093  0.0604  0.2349
  994MOL0     O31100   9.424   1.843   6.314  0.4749  0.7142 -0.8664
  994MOL0     C31101   9.496   1.911   6.221  0.0317 -0.4449 -0.2647
  994MOL0     C31102   9.466   1.868   6.091  0.4607 -0.2918  1.1358
  994MOL0     C31103   9.535   1.916   5.976  0.4061 -0.3002  1.0924
  994MOL0     C31104   9.639   2.009   5.996 -0.9448  0.1645 -0.1492
  994MOL0     C31105   9.714   2.054   5.872 -0.4060 -0.6222  1.0150
  994MOL0     O31106   9.691   1.997   5.745 -0.6029  0.2983  0.5099
  994MOL0     C31107   9.790   1.949   5.654 -0.1102 -0.8347 -0.0206
  994MOL0     C31108   9.922   1.914   5.685  0.5832 -0.2052 -0.2618
  994MOL0     C31109  10.006   1.846   5.604  0.1330 -0.3214  0.5982
  994MOL0     C31110   9.968   1.816   5.472 -0.3623  0.6926 -0.1378
  994MOL0     O31111  10.054   1.748   5.383  0.7866 -0.3259 -0.2887
  994MOL0     C31112  10.080   1.803   5.257  0.0169 -0.1673  0.7815
  994MOL0     C31113  10.202   1.731   5.184  0.5355 -0.0698 -0.2472
  994MOL0     C31114  10.143   1.607   5.111 -0.4929  0.0039 -0.0202
  994MOL0     C31115  10.260   1.533   5.038 -0.9291 -0.4141 -0.9102
  994MOL0     C31116  10.207   1.425   4.942 -0.5225  0.5066 -0.1970
  994MOL0     C31117  10.162   1.315   5.025  0.2641 -0.7499  0.3968
  994MOL0     C31118  10.123   1.198   4.937 -0.8629 -0.5948  0.9947
  994MOL0     C31119  10.044   1.096   5.018  0.4291 -0.0706 -0.1911
  994MOL0    Cl31120  10.058   0.936   4.932  0.3079 -0.2277  0.6647
  994MOL0     C31121   9.843   1.854   5.431 -0.7487  0.1150 -0.0362
  994MOL0     C31122   9.758   1.922   5.527  0.9700 -0.2519 -0.8037
  994MOL0     O31123   9.805   2.134   5.892  0.3152 -0.3454 -0.1184
  994MOL0     C31124   9.673   2.045   6.131  0.0319 -0.0607  0.1844
  994MOL0     C31125   9.599   1.999   6.238  0.4031  0.4474  0.3355
  994MOL0     N31126   9.150   2.137   6.453  0.1900 -0.4547  0.1457
  994MOL0     N31127   9.137   2.218   6.352 -0.1793  0.3766  0.1543
  994MOL0     C31128   9.554   2.330   5.398 -0.0807  1.0989 -0.3859
  994MOL0     C31129   9.653   2.242   5.354  0.2440  0.8942  0.8219
  994MOL0     C31130   9.845   1.966   5.020 -0.2044  0.0067 -0.7048
  994MOL0     C31131   9.817   1.857   4.935 -0.1038 -0.3876 -0.5492
  994MOL0     C31132   9.916   1.804   4.843 -0.1848 -0.3982 -0.2930
  994MOL0     C31133  10.046   1.848   4.839 -0.2351 -0.0110  1.3747
  994MOL0     O31134  10.135   1.781   4.755  0.0203 -0.1775 -0.2518
  994MOL0     C31135  10.265   1.836   4.735 -0.4606 -0.7197  0.9687
  994MOL0     C31136  10.353   1.770   4.626  0.2469  0.5849 -0.2120
  994MOL0     C31137  10.380   1.613   4.656  0.6115 -0.9995  0.7458
  994MOL0     C31138  10.499   1.553   4.566 -1.3349  0.3763 -0.6162
  994MOL0     C31139  10.639   1.595   4.601 -0.3490 -0.2216  0.6896
  994MOL0     C31140  10.752   1.629   4.631 -0.3626 -0.3283  0.3278
  994MOL0     C31141  10.071   1.955   4.932  0.0681  0.7675  0.3325
  994MOL0     C31142   9.970   2.015   5.014 -0.8723  0.3722  0.3997
  994MOL0     H31143   9.665   2.299   5.031  0.5384 -0.3112  0.6603
  994MOL0     H31144   9.490   2.483   5.114  0.9378  0.9093  0.3864
  994MOL0     H31145   9.323   2.632   5.492 -3.2848  0.0508 -1.4119
  994MOL0     H31146   9.429   2.498   5.548 -0.9564  0.3257  2.6924
  994MOL0     H31147   9.219   2.338   5.486  1.9101  0.0634 -0.7108
  994MOL0     H31148   9.132   2.499   5.469 -0.0927  1.7076  1.6757
  994MOL0     H31149   9.088   2.418   5.685 -0.1431  0.5433  0.7177
  994MOL0     H31150   9.185   2.556   5.697  0.6955 -1.3050  2.0105
  994MOL0     H31151   9.317   2.276   5.679 -0.7745  0.1852  0.6040
  994MOL0     H31152   9.386   2.423   5.735  2.1008 -1.7854 -2.7216
  994MOL0     H31153   9.147   2.263   5.844 -0.7927  0.3589  1.4986
  994MOL0     H31154   9.188   2.408   5.927 -0.1398 -2.0164  2.7425
  994MOL0     H31155   9.441   2.304   5.944  1.0236 -0.8117 -1.6345
  994MOL0     H31156   9.355   2.153   5.922  0.8861  1.4888 -2.1109
  994MOL0     H31157   9.353   2.185   6.146 -2.3153 -0.7351  1.8328
  994MOL0     H31158   9.281   2.349   6.132  3.5488  0.0725 -0.8215
  994MOL0     H31159   9.141   2.105   6.021  2.8137  0.1479 -0.7291
  994MOL0     H31160   9.067   2.257   6.078 -1.7927 -1.9701  0.5505
  994MOL0     H31161   9.117   1.919   6.206 -0.8516  1.4840 -0.4551
  994MOL0     H31162   9.016   1.871   6.496 -0.7207  0.8784 -1.3880
  994MOL0     H31163   9.124   1.925   6.623 -0.4560 -0.4456  0.0894
  994MOL0     H31164   9.211   1.737   6.390 -2.6392  1.6541 -1.6402
  994MOL0     H31165   9.163   1.696   6.549  0.4467 -0.7208 -1.3902
  994MOL0     H31166   9.339   1.841   6.642 -1.5921 -2.3667  1.9782
  994MOL0     H31167   9.404   1.703   6.539 -1.1316 -0.1415 -0.5161
  994MOL0     H31168   9.534   1.885   6.481  0.6934  1.0870  0.2418
  994MOL0     H31169   9.403   1.999   6.453 -3.0519 -0.6714 -1.0484
  994MOL0     H31170   9.391   1.791   6.078  0.7215 -0.0477 -3.5601
  994MOL0     H31171   9.513   1.885   5.874 -0.9492 -0.4471  1.4145
  994MOL0     H31172   9.958   1.920   5.787 -1.9918  1.7730  0.6467
  994MOL0     H31173  10.103   1.829   5.651  1.4942 -0.9623 -2.2520
  994MOL0     H31174  10.098   1.909   5.277 -1.2051  0.5885 -1.6900
  994MOL0     H31175   9.997   1.776   5.190  0.1910 -1.8162  1.1712
  994MOL0     H31176  10.289   1.704   5.245 -0.1388 -1.6774  0.0395
  994MOL0     H31177  10.234   1.798   5.103 -0.1373  2.2480  1.2923
  994MOL0     H31178  10.062   1.636   5.044 -1.5814  0.1125  1.3069
  994MOL0     H31179  10.095   1.542   5.185 -1.2976  2.1994  1.4839
  994MOL0     H31180  10.327   1.604   4.989 -0.7258 -0.4895 -0.7463
  994MOL0     H31181  10.323   1.486   5.114 -2.1828 -2.6237 -1.1478
  994MOL0     H31182  10.291   1.389   4.883  0.2072 -0.2671  1.2600
  994MOL0     H31183  10.139   1.463   4.865  1.1157  1.8440 -1.0468
  994MOL0     H31184  10.069   1.348   5.071 -1.2543  0.4456 -3.1656
  994MOL0     H31185  10.240   1.288   5.097  1.5689 -0.7721 -0.9848
  994MOL0     H31186  10.079   1.228   4.841  0.0063  2.2034  1.3819
  994MOL0     H31187  10.207   1.135   4.905 -0.6941 -0.5027  1.2486
  994MOL0     H31188   9.935   1.110   5.024  0.5817  1.5406 -0.7166
  994MOL0     H31189  10.098   1.092   5.113  1.5990  0.3126 -0.8239
  994MOL0     H31190   9.813   1.843   5.327  1.4404 -2.4600 -0.4840
  994MOL0     H31191   9.655   1.945   5.501  0.7250 -1.2402 -0.7353
  994MOL0     H31192   9.759   2.110   6.150  0.4150  0.0186 -1.6567
  994MOL0     H31193   9.637   2.033   6.333  0.1973 -0.1285  0.6328
  994MOL0     H31194   9.521   2.325   5.501 -1.9556 -1.0766 -0.9928
  994MOL0     H31195   9.686   2.167   5.425 -3.8429 -2.1608 -0.0812
  994MOL0     H31196   9.724   1.803   4.950  0.5445 -2.7079 -3.8098
  994MOL0     H31197   9.884   1.732   4.768 -2.0536 -0.8983  0.9078
  994MOL0     H31198  10.323   1.821   4.826  0.3696 -0.4946  0.4901
  994MOL0     H31199  10.246   1.943   4.717  0.4161 -0.8671 -1.1067
  994MOL0     H31200  10.309   1.769   4.526 -1.0237  0.1937  0.3388
  994MOL0     H31201  10.448   1.825   4.619 -0.5648  2.1415  0.6448
  994MOL0     H31202  10.293   1.549   4.640  1.8522 -2.5354 -0.2166
  994MOL0     H31203  10.409   1.613   4.762  1.1946  0.2909  0.6027
  994MOL0     H31204  10.491   1.446   4.589  0.2995  0.5805  1.1750
  994MOL0     H31205  10.473   1.564   4.460 -0.4333 -2.0559 -1.1683
  994MOL0     H31206  10.844   1.662   4.675 -0.0655  0.0111 -0.5392
  994MOL0     H31207  10.171   1.996   4.942 -0.0013  0.8489  0.6887
  994MOL0     H31208  10.002   2.093   5.082 -0.6447  0.9075 -0.2970
  995MOL0     O31209   3.285   4.328   2.806  0.2105 -0.3533  0.0877
  995MOL0     C31210   3.338   4.336   2.914  0.2974 -0.1875 -0.8854
  995MOL0     O31211   3.472   4.356   2.932 -0.0171 -0.2104 -0.1486
  995MOL0     C31212   3.554   4.386   2.826 -0.1988  0.5729 -0.6464
  995MOL0     C31213   3.525   4.483   2.729  0.5571  0.2526 -0.0726
  995MOL0     C31214   3.622   4.499   2.633 -0.1980  0.0531 -0.0596
  995MOL0     C31215   3.745   4.428   2.641  0.6790  0.8680 -0.8724
  995MOL0     O31216   3.848   4.457   2.549  0.2490 -0.6330 -0.1584
  995MOL0     C31217   3.905   4.350   2.467  0.7364 -1.1567 -0.1517
  995MOL0     C31218   3.934   4.406   2.336  0.6202 -0.4006 -0.2010
  995MOL0     C31219   3.976   4.295   2.235  0.5213  0.3932 -0.2250
  995MOL0     C31220   3.993   4.340   2.091  0.5196  0.1850  1.1339
  995MOL0     C31221   4.050   4.234   2.002 -0.4492  0.5250 -0.1565
  995MOL0     C31222   3.976   4.102   2.005  0.1552  0.9526 -0.6474
  995MOL0     C31223   4.020   4.016   1.887 -0.2038  0.3056  0.1747
  995MOL0     C31224   3.963   4.052   1.755 -0.6530 -0.0515  0.6824
  995MOL0     N31225   3.814   4.050   1.762  0.1798  0.2150 -0.2772
  995MOL0     C31226   3.732   3.946   1.814  0.5695  0.8445 -0.3869
  995MOL0     C31227   3.607   3.979   1.800 -0.2005  0.1602 -0.7986
  995MOL0     C31228   3.492   3.893   1.842  1.1146 -0.8737  0.1722
  995MOL0     C31229   3.481   3.758   1.772 -0.1025  0.1482  0.0526
  995MOL0     C31230   3.500   3.764   1.612 -0.2033  0.1307 -0.9138
  995MOL0     C31231   3.473   3.626   1.545  0.3339  0.2834  0.6234
  995MOL0     O31232   3.335   3.576   1.574 -0.4628  0.2655 -0.2098
  995MOL0     C31233   3.222   3.636   1.515  0.3486  0.4729 -0.6530
  995MOL0     C31234   3.096   3.612   1.572 -0.1009 -1.0758  0.6610
  995MOL0     C31235   2.972   3.653   1.517 -0.1021  0.5637  0.5623
  995MOL0     C31236   2.984   3.716   1.392 -0.9582 -0.4838  0.9359
  995MOL0     C31237   2.861   3.750   1.325 -1.0144 -0.7036  0.8908
  995MOL0     O31238   2.746   3.686   1.363 -0.7041  0.0767  0.2735
  995MOL0     C31239   2.632   3.709   1.293 -0.3443  1.2636 -1.1032
  995MOL0     C31240   2.514   3.742   1.350 -0.4983  0.7059 -0.8106
  995MOL0     C31241   2.399   3.772   1.282  0.0253 -0.3939  0.2632
  995MOL0     C31242   2.397   3.776   1.144 -0.4852 -0.8556 -0.5086
  995MOL0     O31243   2.280   3.819   1.094  0.4811  0.0496  0.5724
  995MOL0     C31244   2.251   3.810   0.956 -0.3967 -0.3173  0.2362
  995MOL0     C31245   2.103   3.828   0.929 -0.0387 -0.4728  0.3270
  995MOL0     C31246   2.061   3.967   0.960  0.0313 -0.1442  0.2373
  995MOL0     C31247   1.909   3.982   0.928 -0.6926  0.0708 -1.2416
  995MOL0     C31248   1.849   4.123   0.949 -0.7501  0.1309  0.2801
  995MOL0     C31249   1.698   4.124   0.965 -0.1747 -0.5008  0.7581
  995MOL0     C31250   1.639   4.093   1.113 -0.1601  0.0068  0.8506
  995MOL0     C31251   1.491   4.070   1.114 -0.9170 -1.0570  0.2820
  995MOL0    Cl31252   1.449   3.931   1.010 -0.1412  0.3013  0.4189
  995MOL0     C31253   2.511   3.721   1.082  0.0402  0.0528  0.4639
  995MOL0     C31254   2.628   3.685   1.156  0.3500  0.5185 -1.2424
  995MOL0     O31255   2.870   3.826   1.227  0.7201 -0.4488 -0.1504
  995MOL0     C31256   3.106   3.750   1.342  0.4271  0.5144  0.2702
  995MOL0     C31257   3.226   3.716   1.402  0.1664  0.1422  1.4302
  995MOL0     N31258   3.609   4.107   1.740  0.8296  0.1307 -0.7716
  995MOL0     N31259   3.730   4.143   1.713  0.1134  0.2255 -0.1349
  995MOL0     C31260   3.774   4.336   2.741  0.3991 -1.1015  0.4692
  995MOL0     C31261   3.678   4.320   2.832  0.4363 -0.6705 -0.9523
  995MOL0     C31262   3.259   4.295   3.039 -0.4327  1.2175  0.2007
  995MOL0     C31263   3.313   4.312   3.167 -0.5834 -0.3958  1.0097
  995MOL0     C31264   3.228   4.281   3.276 -0.3971  0.5076  0.1613
  995MOL0     C31265   3.107   4.215   3.263  0.5006  0.7684  0.7098
  995MOL0     O31266   3.033   4.177   3.377  1.4837 -0.2510  0.5738
  995MOL0     C31267   2.884   4.199   3.367  0.0803 -0.7183 -0.5800
  995MOL0     C31268   2.810   4.169   3.499  0.4836  0.2262 -1.0291
  995MOL0     C31269   2.829   4.264   3.609  0.8172 -0.4170  0.1469
  995MOL0     C31270   2.736   4.394   3.590  0.4759  0.5764  1.0039
  995MOL0     C31271   2.713   4.460   3.714  0.7518 -1.1776  0.4044
  995MOL0     C31272   2.676   4.535   3.812 -0.6703  0.8276  0.5180
  995MOL0     C31273   3.062   4.194   3.132  0.1306  0.6701 -0.1711
  995MOL0     C31274   3.130   4.239   3.025  0.5301  0.2990  0.2823
  995MOL0     H31275   3.429   4.534   2.730 -0.0996 -0.5415 -4.2590
  995MOL0     H31276   3.603   4.568   2.552  0.5350  0.7612  0.3463
  995MOL0     H31277   3.841   4.263   2.454  1.7409 -1.9667  0.2337
  995MOL0     H31278   3.997   4.314   2.513  0.9540 -0.0635  0.3128
  995MOL0     H31279   4.017   4.477   2.341  1.9342 -1.9273  3.5144
  995MOL0     H31280   3.845   4.452   2.291  0.0291  1.2236  2.3695
  995MOL0     H31281   3.900   4.218   2.227 -1.4553  2.4233 -2.3769
  995MOL0     H31282   4.061   4.256   2.292 -1.4774 -1.4411  1.6686
  995MOL0     H31283   3.902   4.375   2.042  1.6671  0.9918 -0.5181
  995MOL0     H31284   4.064   4.423   2.091 -1.2885  1.7888  1.5516
  995MOL0     H31285   4.153   4.212   2.034 -1.2203  1.4012  3.3152
  995MOL0     H31286   4.056   4.277   1.902 -1.1489  0.8833 -0.0483
  995MOL0     H31287   3.868   4.118   2.013 -0.3639 -2.4164  1.0281
  995MOL0     H31288   3.990   4.051   2.101 -4.0878 -1.0524 -0.8545
  995MOL0     H31289   4.129   4.015   1.884 -0.2028 -0.1466  0.2862
  995MOL0     H31290   3.976   3.916   1.900  0.8663 -0.1735  0.1865
  995MOL0     H31291   3.999   3.971   1.691 -1.5042 -1.3302  1.7685
  995MOL0     H31292   4.004   4.151   1.731  1.4228 -0.4706  2.2257
  995MOL0     H31293   3.773   3.853   1.852 -1.4380 -0.3332 -0.9552
  995MOL0     H31294   3.397   3.948   1.848  2.1924  1.4816 -2.0917
  995MOL0     H31295   3.509   3.872   1.948 -1.8868 -1.4181  0.6257
  995MOL0     H31296   3.387   3.710   1.802  0.6908 -0.7316  1.2172
  995MOL0     H31297   3.567   3.702   1.808  1.3760  0.0704 -3.2898
  995MOL0     H31298   3.429   3.836   1.571 -2.6942 -1.9258 -0.5124
  995MOL0     H31299   3.601   3.788   1.580  0.1060 -0.9877 -0.8330
  995MOL0     H31300   3.546   3.556   1.587  2.1079  0.4220 -1.9942
  995MOL0     H31301   3.485   3.621   1.437 -0.3211  1.2588  0.4946
  995MOL0     H31302   3.076   3.564   1.667 -2.4040 -1.3220  0.0976
  995MOL0     H31303   2.875   3.630   1.561  1.2477 -1.0487  2.8823
  995MOL0     H31304   2.492   3.751   1.456 -0.9054 -2.7855 -0.5009
  995MOL0     H31305   2.310   3.806   1.333  0.6863 -2.2812  2.8454
  995MOL0     H31306   2.278   3.706   0.935 -2.2418 -0.9175  0.6745
  995MOL0     H31307   2.313   3.886   0.908 -1.7747  2.1431  2.1101
  995MOL0     H31308   2.048   3.757   0.993  0.4245 -1.6080 -0.5016
  995MOL0     H31309   2.075   3.805   0.826  0.4590  2.1064 -0.4511
  995MOL0     H31310   2.130   4.018   0.892  1.5590 -2.9747 -0.4947
  995MOL0     H31311   2.074   3.993   1.066  3.7485  3.1586 -0.7692
  995MOL0     H31312   1.899   3.951   0.823  0.9589 -1.4746 -0.9988
  995MOL0     H31313   1.849   3.911   0.985 -2.1736  2.2158  0.0344
  995MOL0     H31314   1.872   4.179   0.858  0.3449  0.6989  0.8801
  995MOL0     H31315   1.896   4.182   1.029 -3.8006  3.4622 -0.1353
  995MOL0     H31316   1.648   4.060   0.891  0.3965 -1.1519  0.9206
  995MOL0     H31317   1.658   4.222   0.937  2.7651  0.6716  0.3367
  995MOL0     H31318   1.690   4.002   1.146  5.8048  2.4239 -0.4007
  995MOL0     H31319   1.665   4.177   1.179 -2.1941  1.2518  0.1768
  995MOL0     H31320   1.443   4.163   1.084  1.0679 -0.0466  0.0324
  995MOL0     H31321   1.456   4.053   1.216 -0.9336  2.9813  1.1148
  995MOL0     H31322   2.505   3.737   0.975 -1.7132  0.7341  0.6315
  995MOL0     H31323   2.719   3.653   1.106  1.6707  0.0302  1.2819
  995MOL0     H31324   3.109   3.801   1.247  1.0587  0.8192  0.4465
  995MOL0     H31325   3.310   3.751   1.343 -1.1373 -0.6598 -1.0460
  995MOL0     H31326   3.869   4.284   2.750  1.5942  1.1327  1.4855
  995MOL0     H31327   3.704   4.261   2.919 -1.8549  0.0187  0.2840
  995MOL0     H31328   3.411   4.357   3.182 -0.4360 -0.5813  0.6295
  995MOL0     H31329   3.278   4.309   3.368 -0.5331  3.7511 -0.6161
  995MOL0     H31330   2.842   4.127   3.296  1.7224 -1.9623 -0.3644
  995MOL0     H31331   2.862   4.296   3.322  0.8474  0.7998  2.0673
  995MOL0     H31332   2.701   4.163   3.486  0.5186  1.8705 -2.4457
  995MOL0     H31333   2.848   4.076   3.541  0.3734  0.3029 -0.7586
  995MOL0     H31334   2.933   4.295   3.617 -0.0673  2.8362  0.9160
  995MOL0     H31335   2.801   4.217   3.704 -1.8696 -0.0975 -0.3920
  995MOL0     H31336   2.791   4.468   3.531 -1.7050  0.7934 -0.9048
  995MOL0     H31337   2.647   4.363   3.536  1.2320  0.2925 -0.1102
  995MOL0     H31338   2.644   4.596   3.894 -1.1902 -0.3359  1.2040
  995MOL0     H31339   2.961   4.154   3.126  0.8526 -1.5115  1.2330
  995MOL0     H31340   3.097   4.226   2.923  1.8370 -1.6296  0.0529
  996MOL0     O31341   6.624   1.412   8.369 -0.2474 -0.6325 -0.0595
  996MOL0     C31342   6.707   1.489   8.326 -0.7100 -0.4361  0.1263
  996MOL0     O31343   6.682   1.589   8.241 -0.5346  0.6598  0.1700
  996MOL0     C31344   6.562   1.599   8.185  0.3202 -0.0827 -0.5949
  996MOL0     C31345   6.547   1.551   8.053  0.3604 -1.0337  0.1436
  996MOL0     C31346   6.425   1.587   7.988 -0.1938  0.2351 -0.5826
  996MOL0     C31347   6.332   1.680   8.042  0.4737 -0.2735 -0.5146
  996MOL0     O31348   6.239   1.724   7.950 -0.5370 -0.2078 -0.1378
  996MOL0     C31349   6.125   1.795   8.005  0.5574 -0.6796 -0.0073
  996MOL0     C31350   6.024   1.806   7.885 -0.7890 -0.6166  0.0840
  996MOL0     C31351   5.898   1.727   7.891  0.0476  0.6124 -0.1841
  996MOL0     C31352   5.805   1.742   7.768 -0.0938  0.5029 -0.3678
  996MOL0     C31353   5.678   1.649   7.776  0.1047  0.0108  0.1020
  996MOL0     C31354   5.614   1.645   7.633  0.2488 -0.3797  0.2159
  996MOL0     C31355   5.495   1.562   7.631  0.0167  0.0982 -0.8662
  996MOL0     C31356   5.366   1.631   7.637 -0.0962  0.4947  0.1897
  996MOL0     N31357   5.372   1.714   7.759  0.5657  0.1531  0.1012
  996MOL0     C31358   5.346   1.676   7.891  0.1121  0.2787  0.0440
  996MOL0     C31359   5.364   1.787   7.964  0.1108 -0.8071 -0.1438
  996MOL0     C31360   5.372   1.779   8.110 -0.0159  0.3341  0.6121
  996MOL0     C31361   5.527   1.784   8.152  0.7789 -0.4300  0.2492
  996MOL0     C31362   5.549   1.761   8.310  0.4664 -0.2413  1.0801
  996MOL0     C31363   5.698   1.743   8.347 -0.8788 -0.0956  0.5447
  996MOL0     O31364   5.727   1.729   8.484 -1.0193 -0.4496  0.3533
  996MOL0     C31365   5.740   1.843   8.566 -0.8843  1.2594  0.0034
  996MOL0     C31366   5.863   1.898   8.598  0.3950  0.5080  0.8280
  996MOL0     C31367   5.881   2.016   8.668  0.0340 -0.1048 -0.3715
  996MOL0     C31368   5.770   2.085   8.716 -0.5097 -0.1654  0.4203
  996MOL0     C31369   5.792   2.220   8.780  0.5165 -1.4653 -0.4051
  996MOL0     O31370   5.672   2.284   8.803  0.5088 -0.7333 -0.1924
  996MOL0     C31371   5.664   2.419   8.790 -0.0740 -0.5914  0.7591
  996MOL0     C31372   5.699   2.469   8.666 -0.0089 -0.1275 -0.1950
  996MOL0     C31373   5.702   2.602   8.633  1.1802 -0.8827  0.5657
  996MOL0     C31374   5.660   2.689   8.728 -0.8571 -0.6197  0.1301
  996MOL0     O31375   5.654   2.821   8.692  0.1137  0.3330 -0.2938
  996MOL0     C31376   5.708   2.906   8.792 -0.5633  0.5111  0.6663
  996MOL0     C31377   5.802   3.003   8.717  0.2722  0.5453 -0.3864
  996MOL0     C31378   5.858   3.119   8.807  0.2219  0.9575 -0.4105
  996MOL0     C31379   5.967   3.198   8.742  0.2519 -0.2258 -0.7189
  996MOL0     C31380   5.925   3.279   8.623  0.1924  0.9893  0.2568
  996MOL0     C31381   6.042   3.362   8.570 -0.1669 -0.1212  0.1589
  996MOL0     C31382   6.026   3.428   8.437 -0.3058  0.3257 -0.7059
  996MOL0     C31383   6.110   3.552   8.425  1.2775  0.1071  0.0903
  996MOL0    Cl31384   6.293   3.522   8.455  0.1035  0.3371 -0.0816
  996MOL0     C31385   5.627   2.644   8.857 -0.0634  0.3985 -0.0621
  996MOL0     C31386   5.628   2.507   8.888  0.0135  0.4894 -0.5681
  996MOL0     O31387   5.902   2.277   8.793  0.4464  0.6007 -0.7920
  996MOL0     C31388   5.645   2.027   8.677  0.2877  0.2573  0.4173
  996MOL0     C31389   5.630   1.915   8.597  0.6900 -0.2768 -1.1123
  996MOL0     N31390   5.390   1.894   7.885  0.0857  0.6937  1.0759
  996MOL0     N31391   5.389   1.843   7.768 -0.2913  0.5840 -0.8207
  996MOL0     C31392   6.351   1.719   8.178  0.2462  0.2327 -0.1674
  996MOL0     C31393   6.462   1.669   8.248 -0.2000  0.0855  0.5201
  996MOL0     C31394   6.857   1.482   8.377 -0.2072  0.0509  0.2494
  996MOL0     C31395   6.966   1.549   8.319 -0.3962  0.4104  0.0134
  996MOL0     C31396   7.097   1.550   8.366 -0.7549 -0.1105 -0.4807
  996MOL0     C31397   7.127   1.486   8.488 -0.6483  0.4758 -0.1143
  996MOL0     O31398   7.258   1.493   8.537  0.4173 -0.3363  0.5397
  996MOL0     C31399   7.292   1.414   8.654  0.4634 -1.0156  0.5499
  996MOL0     C31400   7.431   1.449   8.688 -1.6300  0.4438 -0.4528
  996MOL0     C31401   7.535   1.383   8.594  1.0158  0.4907  0.3715
  996MOL0     C31402   7.673   1.437   8.626 -0.3829  0.5268 -0.4038
  996MOL0     C31403   7.716   1.399   8.761 -0.1878  0.2904  0.6765
  996MOL0     C31404   7.750   1.384   8.877  0.8953 -0.0206 -0.5391
  996MOL0     C31405   7.028   1.399   8.546 -0.4084  0.7771 -1.3315
  996MOL0     C31406   6.896   1.400   8.489 -0.5329 -0.4791  0.0694
  996MOL0     H31407   6.623   1.490   8.007 -0.6083 -1.8494 -0.4280
  996MOL0     H31408   6.400   1.553   7.888 -0.8711  2.9459 -1.4288
  996MOL0     H31409   6.151   1.895   8.041  2.4942 -0.8653 -0.7354
  996MOL0     H31410   6.079   1.733   8.083  1.1757 -0.4410  0.5537
  996MOL0     H31411   6.080   1.786   7.793  3.4138  2.3242  1.6670
  996MOL0     H31412   6.001   1.912   7.885 -1.5159 -0.7283  2.1218
  996MOL0     H31413   5.855   1.772   7.981  3.4956 -0.0595  1.9751
  996MOL0     H31414   5.911   1.619   7.905 -1.3013  0.6682  2.1426
  996MOL0     H31415   5.782   1.847   7.747  1.4179  0.7555 -0.8391
  996MOL0     H31416   5.872   1.725   7.683  1.9748 -0.8582  1.4368
  996MOL0     H31417   5.615   1.683   7.859  0.2616 -3.2132  1.7299
  996MOL0     H31418   5.699   1.545   7.805  0.6775  0.0236 -0.2644
  996MOL0     H31419   5.682   1.601   7.560  0.5040 -1.3108  0.9912
  996MOL0     H31420   5.592   1.747   7.601 -1.1781 -0.0031  2.1785
  996MOL0     H31421   5.511   1.497   7.545  3.3323 -2.8460  1.6591
  996MOL0     H31422   5.503   1.496   7.718  1.1909 -0.6370 -1.5075
  996MOL0     H31423   5.290   1.553   7.645  0.7873 -0.2566  1.5758
  996MOL0     H31424   5.355   1.689   7.544 -2.5769 -2.3281 -1.4812
  996MOL0     H31425   5.335   1.578   7.937  2.0058  1.5874  3.7258
  996MOL0     H31426   5.327   1.686   8.145  0.1477  0.4000  1.0004
  996MOL0     H31427   5.311   1.861   8.150 -1.4078  0.0796 -0.8536
  996MOL0     H31428   5.563   1.881   8.116 -3.2252  0.6825 -1.2838
  996MOL0     H31429   5.585   1.703   8.106 -4.1069 -1.8672 -4.3150
  996MOL0     H31430   5.522   1.861   8.344  0.7160  0.1406  0.2043
  996MOL0     H31431   5.491   1.675   8.344 -2.2580  0.1184 -2.1330
  996MOL0     H31432   5.745   1.837   8.315 -0.2729 -0.6314 -0.1913
  996MOL0     H31433   5.740   1.656   8.297  1.7437  2.1415 -1.5045
  996MOL0     H31434   5.947   1.852   8.548  0.3147  2.8403 -1.6941
  996MOL0     H31435   5.983   2.044   8.690 -0.4201  0.2514  1.4716
  996MOL0     H31436   5.739   2.407   8.586 -1.9241  0.3544 -1.5903
  996MOL0     H31437   5.729   2.652   8.541  2.2819 -1.2609  0.6641
  996MOL0     H31438   5.763   2.856   8.873 -3.2380  0.7414  2.7757
  996MOL0     H31439   5.630   2.957   8.849 -1.2900  1.3578 -1.0239
  996MOL0     H31440   5.743   3.044   8.634  0.5479  0.7927 -0.4605
  996MOL0     H31441   5.879   2.938   8.677  0.1850  1.0856 -1.4763
  996MOL0     H31442   5.899   3.080   8.900 -2.5932  3.7310  2.2312
  996MOL0     H31443   5.775   3.186   8.833 -1.0789 -0.5261 -0.5576
  996MOL0     H31444   6.004   3.268   8.817 -2.9496  0.3360  0.4829
  996MOL0     H31445   6.046   3.124   8.724 -0.4608 -1.3162  0.5335
  996MOL0     H31446   5.834   3.334   8.651 -0.0346  0.1583  1.2128
  996MOL0     H31447   5.913   3.211   8.537 -0.9882  0.9050  0.4731
  996MOL0     H31448   6.133   3.302   8.558 -0.8685 -0.6067 -4.1114
  996MOL0     H31449   6.074   3.436   8.644 -2.6562  1.3101 -0.0737
  996MOL0     H31450   6.036   3.360   8.353 -1.0679 -0.5693 -0.0928
  996MOL0     H31451   5.919   3.450   8.433 -0.6076 -1.1727 -1.5154
  996MOL0     H31452   6.073   3.632   8.489 -2.6401  0.0378 -1.7660
  996MOL0     H31453   6.083   3.584   8.324  0.4437 -1.5565 -0.2586
  996MOL0     H31454   5.606   2.708   8.943 -0.9455  2.5919 -1.8202
  996MOL0     H31455   5.588   2.477   8.984  2.5300 -0.0216  0.3843
  996MOL0     H31456   5.559   2.091   8.693 -1.3404 -1.9274  0.9171
  996MOL0     H31457   5.529   1.884   8.573  1.1126 -2.0123 -0.7886
  996MOL0     H31458   6.283   1.787   8.228 -1.1005  0.5621 -2.3283
  996MOL0     H31459   6.472   1.715   8.345 -0.7212 -1.9686  1.5971
  996MOL0     H31460   6.958   1.614   8.233  0.7895 -0.6799 -0.9702
  996MOL0     H31461   7.165   1.618   8.316 -1.5869  0.9781 -0.1662
  996MOL0     H31462   7.290   1.306   8.639  2.9289 -1.2331  1.2357
  996MOL0     H31463   7.228   1.452   8.734  2.4178  2.1701  0.8019
  996MOL0     H31464   7.446   1.558   8.686  2.7794  0.2049  3.0743
  996MOL0     H31465   7.448   1.411   8.789  0.8889 -3.1802 -2.0580
  996MOL0     H31466   7.505   1.399   8.490  0.4011 -0.4526  0.3927
  996MOL0     H31467   7.533   1.275   8.613 -2.0819  0.2723 -0.6170
  996MOL0     H31468   7.739   1.412   8.543  0.4075  3.4096 -0.7430
  996MOL0     H31469   7.675   1.546   8.623  2.8732  0.5449 -3.9826
  996MOL0     H31470   7.778   1.379   8.980  1.4505 -1.1273 -0.7340
  996MOL0     H31471   7.044   1.337   8.634  2.7139  1.3434 -1.3910
  996MOL0     H31472   6.826   1.338   8.543 -1.0139  0.2509  0.3026
  997MOL0     O31473   8.834   8.857   4.906 -0.5399 -1.2240 -0.3761
  997MOL0     C31474   8.872   8.961   4.964  0.1846  0.1201 -0.6936
  997MOL0     O31475   8.908   8.972   5.093  0.0513  0.3625 -0.1528
  997MOL0     C31476   8.905   8.867   5.183  1.2054 -0.2194  0.0569
  997MOL0     C31477   8.973   8.883   5.303  0.0351 -0.5730 -0.6004
  997MOL0     C31478   8.969   8.785   5.403 -0.3727 -0.7815  0.2649
  997MOL0     C31479   8.906   8.664   5.382 -0.0925 -0.6936 -0.2220
  997MOL0     O31480   8.907   8.578   5.497  0.7342 -1.1285 -0.2550
  997MOL0     C31481   8.803   8.472   5.499  0.2775 -1.1318  0.3922
  997MOL0     C31482   8.833   8.369   5.603 -0.1459 -0.2590 -0.1244
  997MOL0     C31483   8.772   8.412   5.737 -0.9877  0.4358 -0.6722
  997MOL0     C31484   8.628   8.373   5.740  0.3355 -0.2544 -0.5749
  997MOL0     C31485   8.542   8.439   5.846 -0.7849  0.6631  0.5177
  997MOL0     C31486   8.401   8.399   5.809 -0.3493  0.3455 -0.3617
  997MOL0     C31487   8.305   8.419   5.933  0.6653  0.5487  0.0339
  997MOL0     C31488   8.302   8.556   5.979  0.2048 -1.0402 -0.4833
  997MOL0     N31489   8.212   8.650   5.897  0.3616  0.5020  0.7775
  997MOL0     C31490   8.077   8.653   5.890  0.1873 -0.9749 -0.7675
  997MOL0     C31491   8.048   8.761   5.815  0.2058  0.2451 -0.5858
  997MOL0     C31492   7.924   8.828   5.796 -0.9209  0.5645 -0.6670
  997MOL0     C31493   7.814   8.759   5.709 -0.6201 -0.5872  0.4589
  997MOL0     C31494   7.857   8.779   5.556  0.3622 -1.2799 -0.0783
  997MOL0     C31495   7.851   8.924   5.509 -0.0232  0.4387  0.9423
  997MOL0     O31496   7.812   8.935   5.367 -0.0713  0.3596 -0.3501
  997MOL0     C31497   7.737   9.039   5.319  0.0117 -0.8022  0.1181
  997MOL0     C31498   7.684   9.033   5.187  0.1397  0.3024 -0.2343
  997MOL0     C31499   7.608   9.141   5.141 -0.8365  0.2369 -0.5217
  997MOL0     C31500   7.605   9.265   5.210  0.6840 -0.2335  0.8937
  997MOL0     C31501   7.539   9.388   5.146  0.2042 -0.3825 -0.8050
  997MOL0     O31502   7.550   9.504   5.221 -0.0500  0.3215  0.0721
  997MOL0     C31503   7.464   9.606   5.224 -0.4597 -0.1886 -0.9632
  997MOL0     C31504   7.431   9.694   5.115  0.0617  0.1386 -1.0165
  997MOL0     C31505   7.354   9.805   5.138  0.1732  0.7422 -0.2535
  997MOL0     C31506   7.292   9.833   5.261 -0.6597  0.6395  1.5848
  997MOL0     O31507   7.199   9.935   5.282 -0.6028 -0.6993  0.5174
  997MOL0     C31508   7.200  10.047   5.185  0.6259  0.0880 -1.1436
  997MOL0     C31509   7.087  10.137   5.218  0.0529 -0.2967 -0.2133
  997MOL0     C31510   6.960  10.062   5.176  0.6932  0.2213  0.3179
  997MOL0     C31511   6.830  10.143   5.183 -1.1893  0.1278 -0.2105
  997MOL0     C31512   6.711  10.064   5.149  0.7312 -0.0806 -0.5896
  997MOL0     C31513   6.657   9.987   5.265 -0.2273  0.6851 -0.9236
  997MOL0     C31514   6.580   9.860   5.221 -0.1867 -0.1627 -0.5628
  997MOL0     C31515   6.499   9.784   5.324  0.0475  0.7583 -0.5417
  997MOL0    Cl31516   6.622   9.739   5.453 -0.1788 -0.0885 -0.0364
  997MOL0     C31517   7.328   9.754   5.369 -0.1489  0.9219  0.7454
  997MOL0     C31518   7.415   9.646   5.351 -0.3714  0.6499 -0.6289
  997MOL0     O31519   7.452   9.372   5.057 -0.2987  0.2195 -0.2997
  997MOL0     C31520   7.669   9.272   5.339  0.9293 -0.9780  0.0627
  997MOL0     C31521   7.725   9.161   5.395 -0.1803  0.4106 -0.3448
  997MOL0     N31522   8.162   8.813   5.767 -0.3161 -0.4574  0.4561
  997MOL0     N31523   8.263   8.740   5.810 -0.0774  0.8726  0.5157
  997MOL0     C31524   8.826   8.649   5.269  0.2403 -0.8103  0.2595
  997MOL0     C31525   8.823   8.750   5.174 -0.2365  0.2953 -0.6606
  997MOL0     C31526   8.888   9.075   4.878  0.3565 -0.3113  0.0434
  997MOL0     C31527   8.859   9.081   4.741 -0.0466  0.0980 -0.4010
  997MOL0     C31528   8.868   9.192   4.666 -0.3428 -0.2741 -0.2711
  997MOL0     C31529   8.898   9.313   4.726 -0.2677 -0.0123 -0.0724
  997MOL0     O31530   8.901   9.434   4.653 -0.2107 -0.6100 -0.1439
  997MOL0     C31531   8.928   9.443   4.505  0.7243  0.7077  0.1594
  997MOL0     C31532   9.067   9.510   4.473  0.3084 -0.1715 -0.6045
  997MOL0     C31533   9.201   9.432   4.488 -0.0342 -0.0784  0.1993
  997MOL0     C31534   9.319   9.523   4.447 -0.2019  0.1281  0.1226
  997MOL0     C31535   9.442   9.439   4.447 -0.2487 -0.5474 -0.1369
  997MOL0     C31536   9.545   9.374   4.449 -0.6724 -0.6195  0.6650
  997MOL0     C31537   8.928   9.315   4.857  0.1460 -0.7114 -0.5037
  997MOL0     C31538   8.934   9.199   4.942  0.0793 -0.0788  0.1376
  997MOL0     H31539   9.012   8.980   5.330 -0.9794 -0.4937  0.6608
  997MOL0     H31540   9.036   8.793   5.488 -3.0787 -1.6057  2.6333
  997MOL0     H31541   8.803   8.420   5.402 -3.1754 -0.2139 -0.2324
  997MOL0     H31542   8.702   8.512   5.498  1.0382  0.8941  0.2254
  997MOL0     H31543   8.940   8.348   5.618  0.5789  0.7980 -3.1992
  997MOL0     H31544   8.798   8.269   5.576 -0.6933 -0.3530  0.8874
  997MOL0     H31545   8.779   8.521   5.744 -1.8060  0.3837  1.7123
  997MOL0     H31546   8.822   8.354   5.815 -0.1961 -2.0839 -2.8810
  997MOL0     H31547   8.587   8.399   5.642  0.4669 -1.0573 -0.8483
  997MOL0     H31548   8.619   8.264   5.744 -2.1855 -0.1174 -0.9910
  997MOL0     H31549   8.563   8.546   5.839  2.3026  0.1550  0.5665
  997MOL0     H31550   8.569   8.391   5.941  3.2751  0.6694 -0.4677
  997MOL0     H31551   8.390   8.296   5.773 -4.0147  0.5626 -0.3016
  997MOL0     H31552   8.364   8.463   5.729 -2.2123 -0.6065 -0.3264
  997MOL0     H31553   8.209   8.376   5.902 -1.0331  4.0597 -0.0003
  997MOL0     H31554   8.335   8.358   6.019 -0.9708 -1.5673 -0.7888
  997MOL0     H31555   8.404   8.596   5.982  1.0293 -3.1186  0.6214
  997MOL0     H31556   8.263   8.550   6.080  3.2909 -2.5133  0.7681
  997MOL0     H31557   8.005   8.603   5.953 -0.9207  1.1281 -0.2554
  997MOL0     H31558   7.953   8.924   5.751  0.3848 -0.2447 -1.6461
  997MOL0     H31559   7.877   8.831   5.894 -1.7992 -0.8870 -1.0088
  997MOL0     H31560   7.718   8.805   5.733 -1.6706 -2.0362 -0.7755
  997MOL0     H31561   7.815   8.651   5.728  0.9132 -0.4997  0.9896
  997MOL0     H31562   7.957   8.735   5.554  0.3807 -1.3237  1.2917
  997MOL0     H31563   7.785   8.728   5.490 -0.6055  1.3140 -1.1840
  997MOL0     H31564   7.940   8.983   5.536 -0.8628  1.8669  0.7110
  997MOL0     H31565   7.777   8.973   5.573  0.1108 -1.0512  2.3104
  997MOL0     H31566   7.712   8.935   5.150  4.9931 -0.9306  5.2896
  997MOL0     H31567   7.571   9.119   5.041 -0.6663 -0.5643 -0.4213
  997MOL0     H31568   7.465   9.682   5.013 -1.5566  0.0542 -1.5764
  997MOL0     H31569   7.338   9.868   5.051 -1.0827 -0.2421 -0.7623
  997MOL0     H31570   7.188  10.000   5.087  1.5574 -1.8347 -0.3825
  997MOL0     H31571   7.300  10.089   5.196  0.1055  1.1864 -0.4336
  997MOL0     H31572   7.095  10.227   5.156  3.3228 -2.3267 -3.0376
  997MOL0     H31573   7.082  10.176   5.320  1.0740  2.3306 -1.0807
  997MOL0     H31574   6.946   9.980   5.247  2.3609  0.5296  1.0313
  997MOL0     H31575   6.972  10.027   5.073  3.4762  2.5522 -0.2620
  997MOL0     H31576   6.818  10.194   5.280 -0.0950 -0.7539  0.4098
  997MOL0     H31577   6.834  10.225   5.110  0.2343 -0.0427 -0.3466
  997MOL0     H31578   6.744   9.988   5.078  0.1203 -2.1957  1.2758
  997MOL0     H31579   6.648  10.140   5.103  3.1204  1.8420 -0.8757
  997MOL0     H31580   6.608  10.065   5.325  1.9735  0.6344  1.0700
  997MOL0     H31581   6.747   9.961   5.322 -0.4944 -1.1969 -1.2919
  997MOL0     H31582   6.500   9.880   5.148 -1.8153  0.4700  1.3116
  997MOL0     H31583   6.652   9.791   5.176  1.2838  0.6283  0.4924
  997MOL0     H31584   6.447   9.696   5.285  0.1608 -0.1014  1.1425
  997MOL0     H31585   6.417   9.843   5.366 -0.2319  0.2346 -0.3516
  997MOL0     H31586   7.284   9.772   5.466 -1.5765 -5.4743  1.6806
  997MOL0     H31587   7.438   9.597   5.445  0.9084  2.9061  0.2956
  997MOL0     H31588   7.690   9.367   5.386 -0.4074 -0.5133 -0.2383
  997MOL0     H31589   7.784   9.186   5.482  0.0320 -0.6335 -0.1726
  997MOL0     H31590   8.752   8.570   5.263  0.4703 -0.9910 -0.3233
  997MOL0     H31591   8.757   8.725   5.091 -1.8218 -1.5783  1.0533
  997MOL0     H31592   8.834   8.982   4.704 -0.8404  0.7776 -1.7549
  997MOL0     H31593   8.844   9.185   4.561  2.5226 -1.6236 -0.9592
  997MOL0     H31594   8.854   9.510   4.461  0.2139 -0.2483 -0.4676
  997MOL0     H31595   8.926   9.344   4.460  0.8929 -0.0350  1.7067
  997MOL0     H31596   9.062   9.547   4.370 -1.2448 -0.2530 -0.5765
  997MOL0     H31597   9.067   9.599   4.537 -1.1333  0.9457 -2.0778
  997MOL0     H31598   9.204   9.342   4.426  0.2565  1.1310 -1.6014
  997MOL0     H31599   9.207   9.394   4.591 -0.5684 -2.2001 -0.4987
  997MOL0     H31600   9.306   9.557   4.344 -1.6426 -0.8230 -0.0364
  997MOL0     H31601   9.315   9.607   4.517 -0.2470 -1.0170  1.5418
  997MOL0     H31602   9.640   9.329   4.470 -2.4746 -4.0682  2.1677
  997MOL0     H31603   8.959   9.405   4.910  1.0038 -1.4948  0.3640
  997MOL0     H31604   8.965   9.195   5.046  0.6220  1.5178  0.0686
  998MOL0     O31605   9.317   6.121   7.374  0.3187  0.4501  0.7917
  998MOL0     C31606   9.372   6.207   7.310  0.5542 -0.4790  0.4513
  998MOL0     O31607   9.507   6.238   7.319  0.3134 -0.3576 -0.5020
  998MOL0     C31608   9.581   6.171   7.412  0.0701  0.4734  0.1251
  998MOL0     C31609   9.667   6.066   7.373  0.4772 -0.2257 -0.4144
  998MOL0     C31610   9.736   5.994   7.471 -0.4498 -0.1331  0.9872
  998MOL0     C31611   9.718   6.018   7.613 -0.0728 -0.2203  1.0096
  998MOL0     O31612   9.784   5.946   7.702 -0.9571  0.4284 -0.5027
  998MOL0     C31613   9.714   5.933   7.824  0.4809 -0.1094 -0.5574
  998MOL0     C31614   9.802   5.982   7.946  0.7190  0.6156  0.1073
  998MOL0     C31615   9.817   6.140   7.951 -0.2545  0.1138 -0.4209
  998MOL0     C31616   9.921   6.188   8.054  1.0232 -0.3020 -1.2823
  998MOL0     C31617  10.059   6.117   8.051  0.6248 -0.3610 -0.3002
  998MOL0     C31618  10.153   6.156   7.932  0.5933  0.5964  0.3040
  998MOL0     C31619  10.292   6.103   7.941 -0.4530  0.3228 -1.4899
  998MOL0     C31620  10.311   5.950   7.946  0.6453  0.8815 -0.0238
  998MOL0     N31621  10.459   5.930   7.948  0.5870 -0.0307  0.2002
  998MOL0     C31622  10.550   6.002   8.027 -0.7780 -0.0521  0.2654
  998MOL0     C31623  10.671   5.992   7.966  0.2651 -0.1516  0.0405
  998MOL0     C31624  10.800   6.055   8.023 -0.0554  0.0116  0.4161
  998MOL0     C31625  10.883   5.940   8.092  0.3984 -0.6020 -0.3783
  998MOL0     C31626  11.019   6.003   8.124 -0.5120  1.1707  0.4978
  998MOL0     C31627  11.092   5.899   8.216 -0.0805  0.3320  0.5371
  998MOL0     O31628  11.219   5.947   8.254  0.1409  0.4278  0.7791
  998MOL0     C31629  11.282   5.897   8.365 -0.4368 -0.0039  0.6256
  998MOL0     C31630  11.371   5.978   8.432  0.5975 -0.7669  0.7208
  998MOL0     C31631  11.420   5.948   8.555 -0.3801  1.2616  0.5035
  998MOL0     C31632  11.398   5.820   8.616 -0.1066  0.1265 -0.0876
  998MOL0     C31633  11.454   5.781   8.747 -1.3576 -1.0218 -0.0442
  998MOL0     O31634  11.530   5.886   8.813  0.2777  0.4724 -0.1307
  998MOL0     C31635  11.599   5.859   8.921 -1.3379  0.4979  0.0084
  998MOL0     C31636  11.683   5.741   8.947  0.0839  0.0640 -0.4000
  998MOL0     C31637  11.749   5.741   9.071  0.2592  0.2164  0.6575
  998MOL0     C31638  11.748   5.850   9.160 -0.9270  0.8440 -0.3922
  998MOL0     O31639  11.851   5.863   9.244 -0.0739  0.6644 -0.5909
  998MOL0     C31640  11.977   5.907   9.187  0.2330 -0.3588 -0.4211
  998MOL0     C31641  12.094   5.883   9.279  0.6761  0.0113 -0.5242
  998MOL0     C31642  12.096   5.730   9.311 -0.6536  0.7612 -0.9794
  998MOL0     C31643  12.206   5.715   9.417 -0.2514  0.2695 -0.3802
  998MOL0     C31644  12.355   5.740   9.363 -0.8518 -0.8764 -0.3775
  998MOL0     C31645  12.460   5.706   9.466  0.3056  0.3284 -1.1834
  998MOL0     C31646  12.604   5.723   9.412 -0.2440  0.5370  0.2516
  998MOL0     C31647  12.699   5.649   9.511  0.6682 -0.1439  0.4789
  998MOL0    Cl31648  12.707   5.743   9.662  0.1940  0.1452  0.2953
  998MOL0     C31649  11.680   5.964   9.132  0.2163 -0.5352  0.2728
  998MOL0     C31650  11.612   5.974   9.007 -0.5547 -1.0029  0.8407
  998MOL0     O31651  11.427   5.672   8.797 -0.3681 -0.6415 -0.3163
  998MOL0     C31652  11.307   5.735   8.553  0.8689 -0.3884 -0.4217
  998MOL0     C31653  11.244   5.774   8.430  0.3117  0.0821 -0.5071
  998MOL0     N31654  10.655   5.903   7.854 -0.2168 -0.7957 -0.3402
  998MOL0     N31655  10.525   5.874   7.849  0.6561  0.1828 -0.0916
  998MOL0     C31656   9.647   6.130   7.647  1.0290  0.1297  0.0954
  998MOL0     C31657   9.578   6.200   7.547 -0.8025 -0.5599  0.0854
  998MOL0     C31658   9.295   6.291   7.209  0.0317 -0.0894  0.2224
  998MOL0     C31659   9.150   6.269   7.183 -0.3445 -1.0941  0.1248
  998MOL0     C31660   9.080   6.358   7.103  0.2733 -0.3437 -0.3510
  998MOL0     C31661   9.146   6.452   7.033 -0.6282 -0.7650  0.9303
  998MOL0     O31662   9.072   6.525   6.942 -0.2529  0.2440  0.8187
  998MOL0     C31663   9.061   6.673   6.961 -0.4191 -0.1949 -0.8975
  998MOL0     C31664   9.154   6.762   6.875  1.3428  0.0458 -0.2236
  998MOL0     C31665   9.139   6.728   6.726  0.8607 -0.5941  0.2112
  998MOL0     C31666   9.210   6.841   6.640 -0.5189  0.0870 -0.3987
  998MOL0     C31667   9.226   6.792   6.501 -0.6268 -0.3403 -0.1900
  998MOL0     C31668   9.231   6.752   6.386 -0.0702 -0.0947  0.5399
  998MOL0     C31669   9.282   6.471   7.038 -0.2439  0.2641  0.0639
  998MOL0     C31670   9.356   6.398   7.136 -0.3153  0.3663 -0.2665
  998MOL0     H31671   9.676   6.031   7.271  0.5664  1.9638 -1.2045
  998MOL0     H31672   9.803   5.910   7.455  0.7031  0.3480  2.9138
  998MOL0     H31673   9.707   5.824   7.830 -1.1283  0.0201  0.2798
  998MOL0     H31674   9.611   5.968   7.829  1.7355  3.9726  0.1437
  998MOL0     H31675   9.893   5.922   7.943 -0.5790 -1.5344  0.8515
  998MOL0     H31676   9.748   5.941   8.032  0.0950 -2.2558 -1.5138
  998MOL0     H31677   9.718   6.183   7.971  0.9775  1.5969  3.4719
  998MOL0     H31678   9.847   6.176   7.852  0.0951 -0.2910 -0.4649
  998MOL0     H31679   9.947   6.294   8.045  1.4938 -0.1815  0.9304
  998MOL0     H31680   9.879   6.166   8.152  4.2806  1.3912  0.6574
  998MOL0     H31681  10.035   6.010   8.061 -2.7196  0.1146 -1.9181
  998MOL0     H31682  10.113   6.162   8.135  0.2210 -1.3694  0.5246
  998MOL0     H31683  10.145   6.264   7.914 -3.8377  0.5108  0.5592
  998MOL0     H31684  10.113   6.114   7.839  0.5281 -1.0937  1.0577
  998MOL0     H31685  10.353   6.153   7.865  0.8134 -0.6888 -1.1695
  998MOL0     H31686  10.332   6.145   8.034 -0.4627 -2.2266 -0.2570
  998MOL0     H31687  10.274   5.890   7.863 -0.1515  0.0105  0.9261
  998MOL0     H31688  10.272   5.908   8.040  0.6170 -0.4802 -0.6219
  998MOL0     H31689  10.537   6.053   8.122  0.5580  2.8837 -0.9813
  998MOL0     H31690  10.772   6.143   8.081 -3.4907  1.5786 -3.1993
  998MOL0     H31691  10.859   6.103   7.944  1.0458  0.2310  1.3432
  998MOL0     H31692  10.896   5.846   8.038  1.1412 -0.7510  0.0470
  998MOL0     H31693  10.833   5.906   8.183 -2.9559 -1.0648 -2.2657
  998MOL0     H31694  11.088   6.014   8.040  3.3853  0.1905  3.2660
  998MOL0     H31695  11.001   6.098   8.176  2.7056  2.5449 -0.6401
  998MOL0     H31696  11.095   5.802   8.165 -1.1264 -2.3003  4.8993
  998MOL0     H31697  11.041   5.886   8.312  3.0717 -0.4991  2.2448
  998MOL0     H31698  11.395   6.076   8.391  1.6244 -1.0281  0.6631
  998MOL0     H31699  11.486   6.025   8.591 -0.7098  2.1463 -0.7169
  998MOL0     H31700  11.684   5.663   8.872  0.5998 -1.5236  1.2004
  998MOL0     H31701  11.810   5.655   9.099  1.5689  1.6255  2.4049
  998MOL0     H31702  11.981   6.014   9.165 -1.7067 -0.3255 -0.8366
  998MOL0     H31703  12.002   5.858   9.092 -0.2116  0.8331 -1.1724
  998MOL0     H31704  12.079   5.933   9.375 -0.2518  0.2518 -0.7865
  998MOL0     H31705  12.188   5.923   9.241  0.7835  0.3692  0.1035
  998MOL0     H31706  12.113   5.681   9.215  0.9166 -0.8424  0.0693
  998MOL0     H31707  12.004   5.687   9.351 -0.3539 -0.7393 -1.8625
  998MOL0     H31708  12.178   5.769   9.508  3.4208  1.7445  0.0410
  998MOL0     H31709  12.204   5.612   9.454  0.7036  0.3268 -0.1297
  998MOL0     H31710  12.372   5.844   9.333  2.8261 -1.5158 -1.0910
  998MOL0     H31711  12.367   5.689   9.267 -1.6462 -2.3465  0.2715
  998MOL0     H31712  12.442   5.602   9.495 -1.5344  0.5589 -1.3678
  998MOL0     H31713  12.444   5.761   9.559  2.4142 -0.5516 -0.2296
  998MOL0     H31714  12.613   5.683   9.310 -0.7214 -0.1961  0.4874
  998MOL0     H31715  12.633   5.828   9.406 -1.7042  0.9248 -0.5757
  998MOL0     H31716  12.792   5.626   9.459 -0.9693  0.3517 -2.9552
  998MOL0     H31717  12.658   5.551   9.541 -1.0623  1.1623  2.6913
  998MOL0     H31718  11.677   6.048   9.200  2.7814  1.4718 -1.8402
  998MOL0     H31719  11.564   6.068   8.979 -0.9841 -1.2867  0.6110
  998MOL0     H31720  11.268   5.649   8.607  2.5807 -1.4783 -0.8626
  998MOL0     H31721  11.179   5.702   8.381  0.7883  0.5629 -1.8883
  998MOL0     H31722   9.631   6.162   7.749  0.0826  0.7086 -0.2234
  998MOL0     H31723   9.521   6.291   7.562  2.0450  1.3800 -0.0386
  998MOL0     H31724   9.110   6.184   7.237  0.3120 -1.6495 -0.2310
  998MOL0     H31725   8.971   6.351   7.101  0.3437 -2.6223 -3.7520
  998MOL0     H31726   9.084   6.692   7.066  1.5090 -1.0969 -1.0997
  998MOL0     H31727   8.960   6.711   6.944 -0.5551 -0.9163 -1.7955
  998MOL0     H31728   9.120   6.866   6.886 -0.5429 -0.3455 -1.8304
  998MOL0     H31729   9.256   6.770   6.915  2.0963  2.6704 -2.3389
  998MOL0     H31730   9.031   6.731   6.711  0.9671  0.9019 -0.3495
  998MOL0     H31731   9.178   6.627   6.710  0.4196 -0.9573  1.3298
  998MOL0     H31732   9.146   6.929   6.632 -0.2420  0.1698 -2.2245
  998MOL0     H31733   9.309   6.873   6.673 -0.2324 -0.6068 -0.5588
  998MOL0     H31734   9.247   6.733   6.281  0.9580  0.0403  0.6554
  998MOL0     H31735   9.327   6.545   6.973 -0.9437  0.9261  0.3227
  998MOL0     H31736   9.464   6.403   7.138 -0.3046  0.1828 -0.4501
  999MOL0     O31737   7.219   8.995   7.053 -0.5505  0.3147 -0.2675
  999MOL0     C31738   7.337   9.008   7.040 -0.3711 -0.6382 -0.0837
  999MOL0     O31739   7.399   9.120   6.999  0.4123 -0.9802 -0.8357
  999MOL0     C31740   7.336   9.202   6.909 -0.2204  0.4005  0.4152
  999MOL0     C31741   7.352   9.347   6.914  0.5373  0.8049 -0.2633
  999MOL0     C31742   7.298   9.426   6.819  0.5849 -0.5362  0.5767
  999MOL0     C31743   7.229   9.376   6.704  0.4175 -0.3003 -0.0163
  999MOL0     O31744   7.177   9.447   6.601  0.2751  0.3651  0.3060
  999MOL0     C31745   7.104   9.563   6.643  0.4952  0.3146 -0.2024
  999MOL0     C31746   6.957   9.540   6.600  1.5338 -0.5121 -0.3767
  999MOL0     C31747   6.937   9.533   6.446 -0.1807  0.2409 -0.3905
  999MOL0     C31748   6.789   9.528   6.399 -0.2640  0.0527  0.6034
  999MOL0     C31749   6.763   9.465   6.253  1.0132 -0.4634  0.4134
  999MOL0     C31750   6.837   9.536   6.136  0.6286  0.3111 -0.2034
  999MOL0     C31751   6.803   9.695   6.130 -0.7231  0.0165  0.0997
  999MOL0     C31752   6.781   9.744   5.979 -0.6781 -0.6636  0.1404
  999MOL0     N31753   6.901   9.718   5.893  0.6458  0.2582 -0.8133
  999MOL0     C31754   7.024   9.755   5.926  0.2318 -0.4547  0.0835
  999MOL0     C31755   7.096   9.702   5.820  1.0938  0.5326  0.2608
  999MOL0     C31756   7.243   9.697   5.814 -1.1207 -0.5789  0.0844
  999MOL0     C31757   7.307   9.582   5.891  0.4796  1.1040  0.0397
  999MOL0     C31758   7.454   9.609   5.945 -0.9426  0.4985  0.6356
  999MOL0     C31759   7.552   9.652   5.839  0.2021  0.2098 -0.0349
  999MOL0     O31760   7.678   9.669   5.912  0.3048 -0.0368  0.0191
  999MOL0     C31761   7.783   9.709   5.835  0.4516 -0.2111  0.3022
  999MOL0     C31762   7.790   9.732   5.697 -0.0406 -1.3474  0.5519
  999MOL0     C31763   7.912   9.770   5.632  0.0136  0.2545  0.3963
  999MOL0     C31764   8.034   9.779   5.706 -0.3809 -0.2856 -0.1786
  999MOL0     C31765   8.160   9.813   5.637 -0.2414 -0.8425 -0.8304
  999MOL0     O31766   8.175   9.805   5.500  0.1262  0.4518  0.1829
  999MOL0     C31767   8.306   9.821   5.453  0.6566  0.7424  0.6058
  999MOL0     C31768   8.391   9.706   5.449 -0.2679 -0.4503 -0.9443
  999MOL0     C31769   8.516   9.724   5.405 -0.2168 -0.1758 -0.4830
  999MOL0     C31770   8.564   9.844   5.372  0.0981 -0.7469  0.0117
  999MOL0     O31771   8.694   9.880   5.334  0.5079  1.2579 -0.0378
  999MOL0     C31772   8.802   9.787   5.341  0.2037 -0.2689  0.8940
  999MOL0     C31773   8.924   9.871   5.328  0.4203 -0.1041  0.2829
  999MOL0     C31774   9.045   9.782   5.309 -0.5714 -0.3667 -0.9236
  999MOL0     C31775   9.177   9.849   5.295 -0.0630  0.0376  0.0172
  999MOL0     C31776   9.287   9.749   5.313 -0.1191 -0.9086  0.8863
  999MOL0     C31777   9.416   9.829   5.278 -0.5280  0.2791  0.7380
  999MOL0     C31778   9.432   9.877   5.130 -0.1401 -0.1560  0.3014
  999MOL0     C31779   9.566   9.857   5.068 -0.7587  0.8439 -0.0470
  999MOL0    Cl31780   9.642  10.003   4.982  0.1092  0.1961 -0.2189
  999MOL0     C31781   8.480   9.953   5.357 -0.3681  0.0105 -0.0861
  999MOL0     C31782   8.344   9.939   5.401  0.4190  0.6818  0.0899
  999MOL0     O31783   8.255   9.838   5.709 -0.2495  0.7665 -0.8161
  999MOL0     C31784   8.025   9.762   5.845 -0.5268  0.7477  0.2910
  999MOL0     C31785   7.905   9.720   5.906 -0.0699  0.7652  0.7582
  999MOL0     N31786   7.008   9.627   5.729  0.6120 -0.0328 -0.4208
  999MOL0     N31787   6.892   9.647   5.778 -0.0681  0.0405 -0.7128
  999MOL0     C31788   7.208   9.240   6.704  0.0598  0.0325 -0.8528
  999MOL0     C31789   7.256   9.158   6.805  0.4382  0.7556  0.6113
  999MOL0     C31790   7.427   8.905   7.096 -0.6577  0.1207 -0.9175
  999MOL0     C31791   7.387   8.774   7.095  1.1915 -0.0957  0.5042
  999MOL0     C31792   7.469   8.676   7.147  0.1087  1.0182 -0.3452
  999MOL0     C31793   7.601   8.704   7.199  0.7532  0.1670  0.0475
  999MOL0     O31794   7.697   8.612   7.222  0.4627  0.9665  0.4626
  999MOL0     C31795   7.703   8.504   7.131  0.0696 -0.0050 -0.1028
  999MOL0     C31796   7.679   8.375   7.203 -0.7708 -0.4262 -0.0910
  999MOL0     C31797   7.777   8.359   7.316 -1.4011 -0.1147 -0.3075
  999MOL0     C31798   7.816   8.207   7.342  1.0874  0.0262  0.7119
  999MOL0     C31799   7.931   8.175   7.426 -1.2707 -0.1430  1.1921
  999MOL0     C31800   8.037   8.190   7.484 -0.0132  0.3186  1.0844
  999MOL0     C31801   7.634   8.839   7.202  0.1844  0.5863 -0.7949
  999MOL0     C31802   7.553   8.931   7.149  0.2125  0.2968 -0.2655
  999MOL0     H31803   7.413   9.380   6.997  2.5576 -1.7512 -0.6195
  999MOL0     H31804   7.321   9.532   6.824 -1.4121  0.1992 -2.6386
  999MOL0     H31805   7.146   9.649   6.590  0.2923 -0.3005 -1.3931
  999MOL0     H31806   7.110   9.590   6.749 -0.2321  1.6101 -0.4668
  999MOL0     H31807   6.892   9.620   6.635  2.7560  0.0012  0.8063
  999MOL0     H31808   6.914   9.454   6.651  2.4597 -0.4461  0.5447
  999MOL0     H31809   6.975   9.432   6.426 -1.4218 -1.3449  4.0634
  999MOL0     H31810   6.998   9.614   6.404 -0.7435  1.2260  0.6332
  999MOL0     H31811   6.724   9.485   6.476 -0.8091 -2.5925 -1.1903
  999MOL0     H31812   6.767   9.635   6.388  0.6337  0.2809  0.9607
  999MOL0     H31813   6.656   9.470   6.233  0.9546 -0.8560  0.6239
  999MOL0     H31814   6.792   9.360   6.251  1.4571 -0.3326 -0.7430
  999MOL0     H31815   6.812   9.487   6.041 -2.2695  1.7717 -0.2821
  999MOL0     H31816   6.941   9.507   6.158 -0.1882 -2.4067  0.5338
  999MOL0     H31817   6.708   9.712   6.182  1.4426  4.9670  3.2713
  999MOL0     H31818   6.876   9.758   6.183 -1.1847  1.9178 -1.3902
  999MOL0     H31819   6.766   9.852   5.973 -0.1438 -0.6821 -2.2526
  999MOL0     H31820   6.691   9.702   5.935 -0.2301 -1.0921 -0.3769
  999MOL0     H31821   7.054   9.802   6.020 -2.9288 -1.0653  1.5339
  999MOL0     H31822   7.295   9.790   5.839 -1.3795 -0.3818 -0.1046
  999MOL0     H31823   7.275   9.684   5.710 -1.6583 -0.4282 -0.1084
  999MOL0     H31824   7.321   9.498   5.823 -1.4817  2.1521 -1.7879
  999MOL0     H31825   7.246   9.551   5.977  0.9486 -3.2734 -0.9691
  999MOL0     H31826   7.450   9.683   6.026 -1.0721  1.3416 -0.1156
  999MOL0     H31827   7.492   9.514   5.984  0.6540  1.4811  1.5796
  999MOL0     H31828   7.520   9.746   5.792 -0.4811  0.2735  0.5451
  999MOL0     H31829   7.569   9.571   5.768 -1.1619 -0.2616  0.1502
  999MOL0     H31830   7.702   9.714   5.636 -1.5641 -1.0365  2.5774
  999MOL0     H31831   7.895   9.799   5.529  0.2357 -0.2078  0.2279
  999MOL0     H31832   8.355   9.610   5.485 -0.1631 -0.4801 -0.9191
  999MOL0     H31833   8.587   9.643   5.419  0.7484  0.5880 -0.8985
  999MOL0     H31834   8.805   9.720   5.254  0.6868  0.4077  0.3836
  999MOL0     H31835   8.807   9.715   5.424  2.5262 -1.0743  0.1140
  999MOL0     H31836   8.942   9.932   5.417  2.1228  0.9624 -0.7366
  999MOL0     H31837   8.932   9.937   5.241  2.2732  0.5017  0.8538
  999MOL0     H31838   9.037   9.734   5.211  4.4322 -1.9106 -0.8342
  999MOL0     H31839   9.053   9.704   5.386 -2.0108 -1.0899 -1.4773
  999MOL0     H31840   9.184   9.900   5.198 -0.3216 -1.3735 -0.7693
  999MOL0     H31841   9.195   9.926   5.370 -3.3692  1.5950 -0.6428
  999MOL0     H31842   9.273   9.673   5.235  0.0582  0.5926 -0.6726
  999MOL0     H31843   9.292   9.711   5.415 -0.1740 -4.1703 -0.2024
  999MOL0     H31844   9.496   9.755   5.285 -0.7127  0.1475  1.4662
  999MOL0     H31845   9.445   9.904   5.352 -0.3634  0.7732  0.1934
  999MOL0     H31846   9.351   9.847   5.064  0.2852  3.0486 -1.9082
  999MOL0     H31847   9.428   9.986   5.136  2.1983 -0.0231  0.4001
  999MOL0     H31848   9.548   9.777   4.996  0.5495  1.0776 -0.6557
  999MOL0     H31849   9.637   9.820   5.143 -0.6188  0.6863 -0.2569
  999MOL0     H31850   8.529  10.039   5.313  0.0944 -0.9371 -1.4900
  999MOL0     H31851   8.276  10.024   5.394 -1.5182 -0.9085 -1.6034
  999MOL0     H31852   8.120   9.769   5.896 -0.1093  0.9973 -0.4994
  999MOL0     H31853   7.910   9.704   6.013  2.1310  1.1839  0.7799
  999MOL0     H31854   7.143   9.198   6.628 -2.7594  0.9679  0.8964
  999MOL0     H31855   7.241   9.050   6.799  3.7493  0.2904 -1.4264
  999MOL0     H31856   7.288   8.759   7.053  0.7805  1.0200  1.0586
  999MOL0     H31857   7.441   8.574   7.125  0.3638  1.2395 -1.7836
  999MOL0     H31858   7.802   8.519   7.087 -0.4901 -0.5151 -1.6014
  999MOL0     H31859   7.629   8.515   7.051 -1.5537  1.3402  1.4890
  999MOL0     H31860   7.573   8.366   7.228 -0.6885 -1.5903 -0.0878
  999MOL0     H31861   7.697   8.297   7.129  1.3379  1.9090 -2.2340
  999MOL0     H31862   7.731   8.412   7.400 -0.3281  1.7330 -0.8412
  999MOL0     H31863   7.870   8.411   7.294 -1.2055 -0.1003  0.5258
  999MOL0     H31864   7.731   8.150   7.382 -1.8361 -0.6297 -5.2588
  999MOL0     H31865   7.843   8.177   7.241  3.4137  0.0047  1.2720
  999MOL0     H31866   8.130   8.214   7.533  0.9016  0.0657 -0.4396
  999MOL0     H31867   7.731   8.843   7.249 -0.6948 -0.0235  1.1498
  999MOL0     H31868   7.590   9.033   7.150 -1.6435  1.0524  2.5204
 1000MOL0     O31869   6.933   5.568  11.215  0.8632 -0.4729  0.1417
 1000MOL0     C31870   7.004   5.545  11.308 -0.2449 -0.0938 -0.6960
 1000MOL0     O31871   7.011   5.631  11.412  0.4865 -0.4164 -0.1326
 1000MOL0     C31872   6.917   5.737  11.409 -0.3060  0.1341 -0.5856
 1000MOL0     C31873   6.949   5.877  11.391  1.0092 -0.1219 -0.3150
 1000MOL0     C31874   6.851   5.976  11.407  0.9241 -0.4038  0.1995
 1000MOL0     C31875   6.717   5.941  11.435 -0.0412  0.5063  0.4894
 1000MOL0     O31876   6.605   6.028  11.451  0.1550 -0.2291  0.3351
 1000MOL0     C31877   6.618   6.155  11.383  0.9860 -0.1014  0.2702
 1000MOL0     C31878   6.617   6.281  11.469 -0.4818 -0.8423  0.0235
 1000MOL0     C31879   6.591   6.407  11.379 -0.2986 -0.0930  0.4175
 1000MOL0     C31880   6.563   6.524  11.466 -0.0448 -0.8288  0.5946
 1000MOL0     C31881   6.640   6.542  11.600  0.1008 -1.0187 -0.6173
 1000MOL0     C31882   6.596   6.662  11.683 -0.5103 -1.4927  0.8928
 1000MOL0     C31883   6.671   6.650  11.825 -0.3712  0.2000  1.1292
 1000MOL0     C31884   6.620   6.746  11.930  0.0054  0.3122 -0.7406
 1000MOL0     N31885   6.690   6.699  12.050 -0.1648  0.2867  0.1167
 1000MOL0     C31886   6.645   6.604  12.127 -0.1407 -0.0570  1.0479
 1000MOL0     C31887   6.730   6.588  12.229 -0.7978  0.3132 -0.2065
 1000MOL0     C31888   6.750   6.499  12.344 -0.3053 -0.5285  0.7550
 1000MOL0     C31889   6.851   6.386  12.314  0.3420  0.1044 -0.9886
 1000MOL0     C31890   6.856   6.282  12.422 -0.4943 -0.0866  0.0135
 1000MOL0     C31891   6.738   6.263  12.517 -0.1467 -0.3435  0.3970
 1000MOL0     O31892   6.765   6.362  12.626  0.2010 -0.6129 -0.0052
 1000MOL0     C31893   6.707   6.337  12.743 -0.7011  1.6119  0.7762
 1000MOL0     C31894   6.587   6.263  12.769 -1.1255  0.2691 -0.6530
 1000MOL0     C31895   6.533   6.257  12.897  0.5383  0.0248  0.2435
 1000MOL0     C31896   6.587   6.313  13.008  0.5418 -0.0417 -0.0802
 1000MOL0     C31897   6.531   6.320  13.147  1.0492 -0.4102 -0.1829
 1000MOL0     O31898   6.396   6.282  13.157 -0.0307 -0.6461 -0.0299
 1000MOL0     C31899   6.335   6.302  13.278 -0.4060 -1.2370 -0.0951
 1000MOL0     C31900   6.196   6.340  13.272 -0.0008  0.5530  0.8571
 1000MOL0     C31901   6.114   6.357  13.386 -0.4443 -0.6837 -0.3433
 1000MOL0     C31902   6.175   6.351  13.511  1.3893  0.4520 -0.1755
 1000MOL0     O31903   6.098   6.356  13.625 -0.2473  0.0275  0.5970
 1000MOL0     C31904   6.103   6.235  13.702 -0.2536  0.1238  0.3210
 1000MOL0     C31905   6.038   6.106  13.639 -0.5578  0.8841 -0.4259
 1000MOL0     C31906   5.973   6.019  13.750  0.2087 -0.0915  0.4912
 1000MOL0     C31907   6.069   5.957  13.840 -0.4404  0.1388  0.1993
 1000MOL0     C31908   6.141   5.829  13.775  0.2337  0.4379  0.5845
 1000MOL0     C31909   6.037   5.721  13.736  0.2533 -0.2782  0.6948
 1000MOL0     C31910   6.110   5.592  13.690  0.2144  0.1237 -0.3505
 1000MOL0     C31911   6.011   5.480  13.686  0.5305 -0.2393  0.2895
 1000MOL0    Cl31912   6.093   5.323  13.651  0.0715  0.1142 -0.2421
 1000MOL0     C31913   6.313   6.322  13.525  1.2194 -0.2882 -0.2194
 1000MOL0     C31914   6.393   6.292  13.410  0.8360 -0.7764  0.0146
 1000MOL0     O31915   6.593   6.377  13.233 -0.6127  0.1418  0.5721
 1000MOL0     C31916   6.705   6.389  12.987  0.3650 -0.4894 -0.1866
 1000MOL0     C31917   6.762   6.400  12.858 -0.1397 -0.5751  0.8544
 1000MOL0     N31918   6.832   6.675  12.202  0.2192  0.8660 -0.0851
 1000MOL0     N31919   6.813   6.743  12.099 -0.4519  0.6641  0.2692
 1000MOL0     C31920   6.687   5.808  11.470 -0.2888  0.3478  0.4560
 1000MOL0     C31921   6.782   5.703  11.453  1.0617 -0.7450 -0.8029
 1000MOL0     C31922   7.089   5.428  11.321  0.0670 -0.4125  1.1898
 1000MOL0     C31923   7.064   5.318  11.229  0.2666 -0.0652 -0.1904
 1000MOL0     C31924   7.162   5.214  11.234  0.5532  1.4453 -0.7806
 1000MOL0     C31925   7.273   5.210  11.317  0.1069 -0.6129 -0.0745
 1000MOL0     O31926   7.359   5.112  11.292 -0.3453 -0.0543  0.4112
 1000MOL0     C31927   7.471   5.082  11.374 -0.0917  0.1216 -1.0080
 1000MOL0     C31928   7.607   5.130  11.315  0.4141  0.4724  0.4535
 1000MOL0     C31929   7.720   5.105  11.400 -1.4054  0.1734  0.0696
 1000MOL0     C31930   7.766   4.955  11.416  0.3362 -0.5348  0.4009
 1000MOL0     C31931   7.858   4.907  11.300  0.0371  0.3198 -0.8415
 1000MOL0     C31932   7.918   4.880  11.200  0.4413  0.8682  0.8704
 1000MOL0     C31933   7.297   5.320  11.406  0.0316 -0.5224 -0.2483
 1000MOL0     C31934   7.206   5.425  11.399 -0.9588  0.1905 -0.5543
 1000MOL0     H31935   7.050   5.908  11.369  1.9734 -2.1594  0.8448
 1000MOL0     H31936   6.886   6.075  11.381 -0.8088  0.0864 -0.3711
 1000MOL0     H31937   6.532   6.164  11.317 -0.2986 -2.6128  1.4524
 1000MOL0     H31938   6.699   6.148  11.310  2.0481  0.2161  1.3823
 1000MOL0     H31939   6.713   6.298  11.519 -1.3634  0.2987  1.4149
 1000MOL0     H31940   6.528   6.273  11.531 -0.7289  0.8976 -0.0551
 1000MOL0     H31941   6.501   6.399  11.317 -1.2954 -0.8263  1.9086
 1000MOL0     H31942   6.675   6.435  11.315 -0.2968  6.0946  2.5490
 1000MOL0     H31943   6.566   6.618  11.410 -1.1331  0.0737  1.9851
 1000MOL0     H31944   6.459   6.523  11.501 -0.7440  3.6853 -0.7481
 1000MOL0     H31945   6.745   6.554  11.573  0.6866 -0.2327  1.7907
 1000MOL0     H31946   6.631   6.454  11.665  2.2484  0.0010  1.1851
 1000MOL0     H31947   6.489   6.641  11.687 -0.4678 -2.9303 -2.4988
 1000MOL0     H31948   6.618   6.760  11.639  0.4807 -0.5636  3.2516
 1000MOL0     H31949   6.654   6.551  11.870 -1.6946 -0.1404 -0.0645
 1000MOL0     H31950   6.776   6.674  11.807 -0.5364 -0.8089 -1.6398
 1000MOL0     H31951   6.513   6.736  11.948  0.4136  0.1831  2.0316
 1000MOL0     H31952   6.642   6.850  11.902 -2.0111  0.4102 -2.1261
 1000MOL0     H31953   6.550   6.552  12.126  0.3917 -1.1332 -1.1734
 1000MOL0     H31954   6.650   6.468  12.373 -0.8670 -2.1374 -2.3999
 1000MOL0     H31955   6.795   6.555  12.427  1.4956 -0.3077 -0.3164
 1000MOL0     H31956   6.952   6.426  12.309  1.1043 -1.3129  1.3368
 1000MOL0     H31957   6.826   6.337  12.220 -0.7979  1.4438 -1.4272
 1000MOL0     H31958   6.855   6.189  12.365 -1.5535 -0.6299  0.8912
 1000MOL0     H31959   6.952   6.278  12.475  0.9026  2.5922 -2.0376
 1000MOL0     H31960   6.730   6.160  12.552 -1.9346  0.4452  2.5470
 1000MOL0     H31961   6.644   6.283  12.464 -0.4722 -1.3705  0.5803
 1000MOL0     H31962   6.532   6.224  12.685 -0.3439 -0.5566 -0.7989
 1000MOL0     H31963   6.438   6.207  12.910  0.6476 -0.2033  0.1549
 1000MOL0     H31964   6.156   6.346  13.171  0.8938  2.4404  0.5851
 1000MOL0     H31965   6.006   6.364  13.377 -0.2620  2.5813 -1.4482
 1000MOL0     H31966   6.061   6.245  13.802  1.2479 -4.5000  1.6478
 1000MOL0     H31967   6.208   6.212  13.722 -0.6785 -0.7211  1.6612
 1000MOL0     H31968   6.116   6.045  13.593  0.4382  0.3932  1.7864
 1000MOL0     H31969   5.954   6.132  13.573  0.1643 -0.8324 -2.1084
 1000MOL0     H31970   5.904   5.945  13.710 -3.0554  1.5659  2.5860
 1000MOL0     H31971   5.911   6.091  13.804  0.1606  0.4294 -0.2453
 1000MOL0     H31972   6.143   6.025  13.882  1.2292 -0.2497 -1.9097
 1000MOL0     H31973   6.011   5.909  13.919 -3.8773 -1.5360 -2.9799
 1000MOL0     H31974   6.214   5.789  13.846  1.2509 -5.0911 -2.9347
 1000MOL0     H31975   6.199   5.863  13.690  3.2940  1.8798  3.0397
 1000MOL0     H31976   6.000   5.771  13.646  2.4928 -1.0714 -0.7628
 1000MOL0     H31977   5.959   5.705  13.811 -0.8786  0.4109 -0.3120
 1000MOL0     H31978   6.157   5.610  13.593 -1.9631  3.3726 -0.9646
 1000MOL0     H31979   6.187   5.563  13.763  1.5558 -2.2545 -2.5616
 1000MOL0     H31980   5.947   5.500  13.600 -0.8815 -1.1847  1.0962
 1000MOL0     H31981   5.955   5.481  13.779 -0.3409  1.9122 -0.1983
 1000MOL0     H31982   6.354   6.338  13.624 -0.9172  0.0059  0.6800
 1000MOL0     H31983   6.498   6.272  13.429  1.4913  3.0445  1.3167
 1000MOL0     H31984   6.762   6.434  13.067  1.3190 -1.2268 -0.4290
 1000MOL0     H31985   6.857   6.453  12.864  0.1674 -1.0017 -0.0711
 1000MOL0     H31986   6.587   5.795  11.511 -0.8649  2.3709 -0.2091
 1000MOL0     H31987   6.752   5.604  11.483  1.1284 -0.0881  1.6554
 1000MOL0     H31988   6.975   5.299  11.171  1.1903 -1.4269 -1.1979
 1000MOL0     H31989   7.160   5.127  11.169  1.1618  0.4247  0.5352
 1000MOL0     H31990   7.478   4.973  11.374  1.0945  0.1861 -0.0655
 1000MOL0     H31991   7.454   5.115  11.476 -1.2848 -0.6650 -0.9256
 1000MOL0     H31992   7.625   5.080  11.220 -2.7931  1.7528 -0.9595
 1000MOL0     H31993   7.600   5.237  11.296  1.1578  0.1381 -2.0265
 1000MOL0     H31994   7.692   5.145  11.498  0.9589  0.1691  0.8172
 1000MOL0     H31995   7.810   5.158  11.368  0.2491 -1.8727  1.0803
 1000MOL0     H31996   7.828   4.954  11.507  0.2794 -0.5880  0.4389
 1000MOL0     H31997   7.688   4.882  11.442 -0.5750  0.5851  0.8939
 1000MOL0     H31998   7.968   4.850  11.111 -0.0533  1.0088  0.5438
 1000MOL0     H31999   7.384   5.338  11.468  0.2965 -1.0667 -0.4546
 1000MOL0     H32000   7.240   5.518  11.443  0.6987  0.0099 -1.3794
 1001MOL0     O32001   1.478   4.781   1.019 -0.3065 -0.0279  0.1883
 1001MOL0     C32002   1.514   4.679   0.962  0.1024 -0.5814 -0.1794
 1001MOL0     O32003   1.440   4.603   0.873 -0.6105  0.3903 -0.1120
 1001MOL0     C32004   1.308   4.600   0.893  0.5627  0.2729 -0.2429
 1001MOL0     C32005   1.216   4.670   0.813  0.4834 -0.3719  0.4150
 1001MOL0     C32006   1.077   4.677   0.830 -0.5460 -0.5043  0.8355
 1001MOL0     C32007   1.027   4.613   0.940  0.2412  0.3765  0.0016
 1001MOL0     O32008   0.894   4.608   0.969  0.5943 -0.0273  0.0269
 1001MOL0     C32009   0.825   4.735   0.946  0.3793 -0.3774  0.9734
 1001MOL0     C32010   0.720   4.715   0.829  0.2776  0.3861 -0.2882
 1001MOL0     C32011   0.687   4.856   0.790 -0.3258 -0.2696 -0.2296
 1001MOL0     C32012   0.625   4.846   0.650  0.6860 -0.7393  0.3917
 1001MOL0     C32013   0.631   4.979   0.563  0.5485  0.1165 -0.8703
 1001MOL0     C32014   0.607   4.967   0.414  0.6748  0.6233  0.2476
 1001MOL0     C32015   0.575   5.096   0.341  0.2625  0.2061 -0.6392
 1001MOL0     C32016   0.571   5.060   0.195 -0.4268  0.6043 -0.8423
 1001MOL0     N32017   0.554   5.177   0.111 -0.7782  0.6265 -0.7336
 1001MOL0     C32018   0.649   5.220   0.015  0.5531  0.3088  0.1538
 1001MOL0     C32019   0.590   5.322  -0.056  0.0450  0.7730 -1.3618
 1001MOL0     C32020   0.641   5.419  -0.161 -0.0118 -0.4507 -0.3012
 1001MOL0     C32021   0.699   5.347  -0.298  0.4875 -0.3126 -0.6025
 1001MOL0     C32022   0.780   5.453  -0.386 -1.0346  0.2030 -0.5509
 1001MOL0     C32023   0.839   5.406  -0.524 -0.0779 -0.9132  0.0926
 1001MOL0     O32024   0.746   5.363  -0.627 -0.2518  0.0384 -0.5721
 1001MOL0     C32025   0.699   5.459  -0.706  0.4466 -0.1916  0.2627
 1001MOL0     C32026   0.650   5.405  -0.824 -1.0932  0.6122  0.7562
 1001MOL0     C32027   0.611   5.481  -0.936 -0.6420 -0.2982 -0.4083
 1001MOL0     C32028   0.592   5.618  -0.909 -0.5233 -0.4224  0.4053
 1001MOL0     C32029   0.554   5.709  -1.019  0.3907  0.2977  0.5773
 1001MOL0     O32030   0.575   5.843  -1.004 -0.1550  0.3421 -0.9652
 1001MOL0     C32031   0.508   5.937  -1.072 -0.0402 -0.1253 -0.0163
 1001MOL0     C32032   0.365   5.942  -1.055  0.2079 -0.4640 -0.0284
 1001MOL0     C32033   0.281   6.051  -1.100 -0.1693  0.6669 -0.4107
 1001MOL0     C32034   0.353   6.142  -1.170  0.5783 -0.2348 -0.4358
 1001MOL0     O32035   0.288   6.249  -1.222  0.5169  0.2597 -0.3908
 1001MOL0     C32036   0.199   6.211  -1.332 -1.1222  0.4439  0.0522
 1001MOL0     C32037   0.080   6.302  -1.348 -0.1837 -0.6880 -0.7265
 1001MOL0     C32038   0.031   6.324  -1.492 -0.5450 -0.4988 -0.6752
 1001MOL0     C32039  -0.105   6.405  -1.500 -0.2602  0.1392 -0.2798
 1001MOL0     C32040  -0.166   6.397  -1.653  0.6269 -0.1561 -0.0319
 1001MOL0     C32041  -0.064   6.453  -1.753  0.3249 -0.8470  0.2972
 1001MOL0     C32042  -0.124   6.498  -1.889  0.1378  0.0934 -0.0321
 1001MOL0     C32043  -0.026   6.589  -1.964  0.9491 -0.8542  0.2333
 1001MOL0    Cl32044   0.038   6.719  -1.851 -0.1087  0.1337  0.6351
 1001MOL0     C32045   0.490   6.139  -1.196  0.6978  0.0115 -0.7464
 1001MOL0     C32046   0.570   6.040  -1.144 -0.1846 -0.2115  0.4690
 1001MOL0     O32047   0.492   5.663  -1.112  0.5095  0.2305  0.5681
 1001MOL0     C32048   0.628   5.673  -0.784  0.3689  0.9872 -0.0128
 1001MOL0     C32049   0.679   5.591  -0.684 -0.1953 -0.8324  0.0084
 1001MOL0     N32050   0.459   5.331  -0.009  0.2472 -0.8064  0.5620
 1001MOL0     N32051   0.434   5.244   0.091 -0.1452  0.2261  0.4519
 1001MOL0     C32052   1.110   4.533   1.023  0.7258 -0.1550  0.5581
 1001MOL0     C32053   1.248   4.530   0.998  0.2568  0.3915  0.1319
 1001MOL0     C32054   1.654   4.638   0.990  0.7078 -0.2509  0.6365
 1001MOL0     C32055   1.709   4.556   0.890 -0.3093  0.2966 -0.6734
 1001MOL0     C32056   1.846   4.526   0.901  1.0151  0.3631 -0.1781
 1001MOL0     C32057   1.935   4.569   1.011  0.7215  0.3805  0.9680
 1001MOL0     O32058   2.064   4.533   1.005  0.5719  0.5393 -0.2895
 1001MOL0     C32059   2.104   4.468   1.125  0.7947 -0.2189 -1.3642
 1001MOL0     C32060   2.169   4.331   1.108  0.0604 -0.4944  0.4461
 1001MOL0     C32061   2.233   4.287   1.241 -0.5370 -0.4026 -0.1791
 1001MOL0     C32062   2.306   4.146   1.227  0.8843  0.1864 -0.4935
 1001MOL0     C32063   2.432   4.150   1.145 -0.3808 -0.2713  0.3173
 1001MOL0     C32064   2.522   4.179   1.071  0.4376  0.7051  0.6203
 1001MOL0     C32065   1.880   4.661   1.099  0.5166 -0.7498  0.1056
 1001MOL0     C32066   1.747   4.693   1.090 -0.2942 -0.9954  0.1800
 1001MOL0     H32067   1.263   4.725   0.733  0.4517 -1.5939 -0.4709
 1001MOL0     H32068   1.012   4.732   0.763  2.2907 -0.0281 -1.7274
 1001MOL0     H32069   0.881   4.828   0.935  0.6201 -0.5177  1.0053
 1001MOL0     H32070   0.764   4.758   1.034  0.3529 -0.6920  1.0393
 1001MOL0     H32071   0.635   4.656   0.863  2.3146 -1.5524  1.8547
 1001MOL0     H32072   0.773   4.663   0.748 -0.8787  2.3774 -2.4425
 1001MOL0     H32073   0.775   4.919   0.777 -1.6069  2.0303  1.4709
 1001MOL0     H32074   0.638   4.904   0.875  2.1986  1.7007  0.2575
 1001MOL0     H32075   0.652   4.755   0.595 -0.2437 -1.2541  0.7547
 1001MOL0     H32076   0.516   4.838   0.655  0.6203 -1.4830 -1.5703
 1001MOL0     H32077   0.729   5.027   0.567 -0.2397  1.8887 -1.7780
 1001MOL0     H32078   0.576   5.065   0.605 -0.1828 -0.0001 -1.5602
 1001MOL0     H32079   0.526   4.893   0.405  2.7226 -1.7965  0.4126
 1001MOL0     H32080   0.692   4.913   0.372  1.0300 -0.0989  1.8125
 1001MOL0     H32081   0.480   5.143   0.369 -0.7626 -1.1253 -1.7323
 1001MOL0     H32082   0.651   5.172   0.362  1.1417 -0.5180 -1.1195
 1001MOL0     H32083   0.499   4.980   0.180  0.0976  0.0591 -0.4900
 1001MOL0     H32084   0.658   5.004   0.160 -1.3269 -0.4289 -1.4975
 1001MOL0     H32085   0.750   5.182   0.006  1.5056  1.9436  2.9003
 1001MOL0     H32086   0.714   5.481  -0.108 -1.6723  0.9664  0.4180
 1001MOL0     H32087   0.562   5.490  -0.186  1.2982  1.2433  0.2039
 1001MOL0     H32088   0.628   5.294  -0.362 -1.9408  1.6030  0.3388
 1001MOL0     H32089   0.759   5.268  -0.252 -0.3400 -0.8932 -0.4964
 1001MOL0     H32090   0.706   5.533  -0.395  3.1047  4.5510 -0.0047
 1001MOL0     H32091   0.862   5.500  -0.331 -3.3564  3.2455  0.5716
 1001MOL0     H32092   0.906   5.323  -0.498  1.6245  0.2055 -0.5542
 1001MOL0     H32093   0.886   5.490  -0.575 -2.9633  2.0528  1.9404
 1001MOL0     H32094   0.682   5.303  -0.841 -0.6232  1.1035 -1.6535
 1001MOL0     H32095   0.619   5.442  -1.037 -1.1344  0.6423 -0.8179
 1001MOL0     H32096   0.321   5.869  -0.988  0.6733 -0.9078 -0.2049
 1001MOL0     H32097   0.174   6.047  -1.078  0.2469 -1.3861  1.6766
 1001MOL0     H32098   0.170   6.106  -1.344  1.1563  0.0228 -2.8163
 1001MOL0     H32099   0.264   6.226  -1.419  1.2640 -0.4239  1.5711
 1001MOL0     H32100   0.125   6.395  -1.311  1.8951 -1.9909  0.1984
 1001MOL0     H32101   0.004   6.255  -1.285  0.6267 -0.5885  0.3713
 1001MOL0     H32102   0.021   6.230  -1.546 -1.9180 -0.7019 -0.1255
 1001MOL0     H32103   0.104   6.392  -1.537 -1.4244  1.7224  1.0125
 1001MOL0     H32104  -0.172   6.364  -1.423 -0.6206 -0.2079 -0.7645
 1001MOL0     H32105  -0.085   6.510  -1.476  0.2748 -0.1216  0.4729
 1001MOL0     H32106  -0.249   6.469  -1.659  0.2904 -0.5374 -0.0020
 1001MOL0     H32107  -0.212   6.302  -1.683 -0.3910  0.4918 -0.5681
 1001MOL0     H32108   0.015   6.383  -1.780  0.2696  0.7555 -5.3090
 1001MOL0     H32109  -0.020   6.539  -1.702  0.8971 -0.8163 -0.2410
 1001MOL0     H32110  -0.166   6.407  -1.934 -1.2607  0.1674  1.0405
 1001MOL0     H32111  -0.221   6.548  -1.880 -0.8151 -0.8559 -3.4555
 1001MOL0     H32112  -0.053   6.629  -2.062  1.5060 -3.9659 -1.3153
 1001MOL0     H32113   0.066   6.533  -1.987 -0.5186 -3.5545  0.5155
 1001MOL0     H32114   0.534   6.215  -1.259  1.3978 -0.2992 -0.6439
 1001MOL0     H32115   0.675   6.046  -1.168 -0.5838  0.6140 -1.2653
 1001MOL0     H32116   0.606   5.776  -0.758  0.8002  1.5108 -1.6055
 1001MOL0     H32117   0.699   5.650  -0.595 -2.2396 -1.8662  1.2107
 1001MOL0     H32118   1.063   4.475   1.102 -0.6518 -0.9946 -0.8076
 1001MOL0     H32119   1.322   4.467   1.046  3.8677  0.3901 -4.6289
 1001MOL0     H32120   1.653   4.518   0.805  0.5308 -1.8269 -0.3223
 1001MOL0     H32121   1.897   4.463   0.828  0.9295 -2.6967  2.1655
 1001MOL0     H32122   2.028   4.465   1.203  0.2567  0.7860 -1.8374
 1001MOL0     H32123   2.187   4.531   1.159 -0.9511  2.6583 -2.0669
 1001MOL0     H32124   2.093   4.261   1.072 -0.6990 -2.9970  5.8556
 1001MOL0     H32125   2.255   4.350   1.043 -0.5862 -1.2528 -0.6599
 1001MOL0     H32126   2.158   4.272   1.319 -0.3312 -1.0295 -0.0952
 1001MOL0     H32127   2.313   4.357   1.267 -1.1624  0.7848 -1.3059
 1001MOL0     H32128   2.348   4.116   1.324 -1.7944  0.9097  1.0115
 1001MOL0     H32129   2.239   4.066   1.193  0.5494  0.0584  0.4286
 1001MOL0     H32130   2.601   4.204   1.003 -0.4906  3.9294  0.5203
 1001MOL0     H32131   1.947   4.716   1.164  0.2866  1.8687 -1.7394
 1001MOL0     H32132   1.706   4.775   1.149 -0.7284 -0.6150 -0.6359
 1002MOL0     O32133   4.698   8.268   3.936  0.5155 -0.4450 -0.3923
 1002MOL0     C32134   4.821   8.277   3.928  0.6301  0.2965 -0.1862
 1002MOL0     O32135   4.892   8.369   3.848 -0.3569  0.0996  0.6782
 1002MOL0     C32136   4.822   8.483   3.795 -0.3601  0.5315 -0.4726
 1002MOL0     C32137   4.894   8.605   3.788  0.7335 -0.3195  0.3091
 1002MOL0     C32138   4.841   8.719   3.713 -0.1706  0.8098 -0.1587
 1002MOL0     C32139   4.709   8.719   3.658 -0.0959 -0.2861 -0.3384
 1002MOL0     O32140   4.635   8.814   3.588  0.0019  0.2785 -0.1707
 1002MOL0     C32141   4.704   8.933   3.554 -0.0895  0.0887  0.1786
 1002MOL0     C32142   4.605   9.031   3.497 -0.4769  0.2392  1.1129
 1002MOL0     C32143   4.462   9.041   3.563  0.7145  0.4906  0.7201
 1002MOL0     C32144   4.352   9.117   3.485 -0.6782  0.9560  0.4304
 1002MOL0     C32145   4.242   9.182   3.571 -0.1117  0.6251  0.3452
 1002MOL0     C32146   4.278   9.309   3.649 -0.9670 -0.7469  0.8180
 1002MOL0     C32147   4.167   9.380   3.734 -0.1100  0.5533 -0.1193
 1002MOL0     C32148   4.223   9.513   3.801  0.1080 -0.4822  0.0604
 1002MOL0     N32149   4.336   9.489   3.876 -0.7480 -0.2649  0.9691
 1002MOL0     C32150   4.356   9.389   3.962  0.1203 -0.2100  0.2130
 1002MOL0     C32151   4.483   9.403   4.006 -0.4874 -0.1842 -0.1436
 1002MOL0     C32152   4.553   9.310   4.097  0.5433  0.0710  0.8918
 1002MOL0     C32153   4.550   9.166   4.041 -0.6301  0.1647 -0.1349
 1002MOL0     C32154   4.618   9.157   3.906  0.1302 -0.2551  0.7484
 1002MOL0     C32155   4.775   9.184   3.901  0.4388 -0.6207  0.4011
 1002MOL0     O32156   4.841   9.093   3.985 -0.1597  0.5796 -0.3725
 1002MOL0     C32157   4.972   9.084   3.950 -0.4228 -0.6987 -0.0630
 1002MOL0     C32158   5.044   9.204   3.920 -0.4251 -0.1049 -0.7421
 1002MOL0     C32159   5.182   9.205   3.882 -0.3200 -0.1407 -0.4365
 1002MOL0     C32160   5.258   9.084   3.885 -0.2944  0.3579  0.1259
 1002MOL0     C32161   5.406   9.073   3.870 -0.2512  0.1998  0.0756
 1002MOL0     O32162   5.486   9.167   3.929 -0.8545 -1.1260  0.2957
 1002MOL0     C32163   5.619   9.120   3.957 -0.7976 -0.7258  0.7978
 1002MOL0     C32164   5.665   9.104   4.089  0.1257  0.6649  0.0847
 1002MOL0     C32165   5.797   9.063   4.127  0.0907 -0.7208 -0.3330
 1002MOL0     C32166   5.889   9.037   4.022 -0.1555 -0.1031  0.7625
 1002MOL0     O32167   6.025   8.995   4.036 -0.6181 -0.0288  0.3640
 1002MOL0     C32168   6.073   8.956   4.166 -0.5336 -0.1885  0.0512
 1002MOL0     C32169   6.150   9.065   4.235 -0.1952  0.8870 -1.1437
 1002MOL0     C32170   6.295   9.112   4.188 -0.7593  0.1352  0.1727
 1002MOL0     C32171   6.391   8.996   4.189 -0.5221  0.4280 -0.3524
 1002MOL0     C32172   6.412   8.927   4.328  0.9401  0.4155  0.3209
 1002MOL0     C32173   6.450   9.018   4.444  0.6044  0.3604 -0.3335
 1002MOL0     C32174   6.503   8.933   4.566 -0.9473 -0.1462  1.2193
 1002MOL0     C32175   6.390   8.900   4.665  0.3789 -0.1229 -0.2032
 1002MOL0    Cl32176   6.431   8.781   4.793 -0.1374 -0.6203 -0.4077
 1002MOL0     C32177   5.843   9.056   3.888  0.0610  0.4732 -0.2534
 1002MOL0     C32178   5.714   9.091   3.846  0.4413 -0.2744 -0.7823
 1002MOL0     O32179   5.446   8.960   3.845 -0.0499  0.1050 -0.1452
 1002MOL0     C32180   5.185   8.965   3.918 -0.4922 -0.6502 -0.0175
 1002MOL0     C32181   5.044   8.964   3.943  0.0637  0.0017  0.2307
 1002MOL0     N32182   4.540   9.509   3.938 -0.4161  1.1756 -0.7284
 1002MOL0     N32183   4.449   9.565   3.875  0.1796  0.0475 -0.4773
 1002MOL0     C32184   4.641   8.593   3.672 -0.5752  0.5269 -0.1593
 1002MOL0     C32185   4.695   8.477   3.732  0.4811 -0.2178  0.0472
 1002MOL0     C32186   4.907   8.164   3.974  0.1244 -0.5800  0.0899
 1002MOL0     C32187   4.853   8.059   4.050 -0.5171  0.1695  0.0205
 1002MOL0     C32188   4.934   7.943   4.084  0.4020 -1.0811 -0.3889
 1002MOL0     C32189   5.053   7.918   4.022  0.2867  0.1367 -0.0284
 1002MOL0     O32190   5.132   7.804   4.060  0.1337 -0.4110 -0.0810
 1002MOL0     C32191   5.073   7.677   4.070 -0.0015  0.7223 -0.0775
 1002MOL0     C32192   5.019   7.631   3.933 -0.6720 -0.4109 -0.2095
 1002MOL0     C32193   5.130   7.586   3.842 -0.9943 -0.1995  1.0604
 1002MOL0     C32194   5.232   7.480   3.898 -0.2334 -0.3360  0.1340
 1002MOL0     C32195   5.328   7.443   3.798 -0.9955 -0.8251 -1.1050
 1002MOL0     C32196   5.415   7.402   3.714  0.3128 -0.9464 -0.1125
 1002MOL0     C32197   5.110   8.028   3.953  0.1279  0.2955 -0.2636
 1002MOL0     C32198   5.048   8.149   3.929 -0.5274  0.3917 -0.8115
 1002MOL0     H32199   4.993   8.627   3.826  0.0632  0.8712  1.4271
 1002MOL0     H32200   4.901   8.809   3.707  1.1476  0.0512  1.0406
 1002MOL0     H32201   4.801   8.913   3.506 -0.0447  1.0832 -0.1639
 1002MOL0     H32202   4.733   8.989   3.643  3.7372  2.4870 -2.2624
 1002MOL0     H32203   4.585   8.994   3.396  2.9239 -0.8389  0.7299
 1002MOL0     H32204   4.653   9.129   3.499  0.5178  0.0727 -3.2207
 1002MOL0     H32205   4.474   9.088   3.661  3.1905  0.5281  0.4676
 1002MOL0     H32206   4.422   8.940   3.567  4.4436 -1.3561 -1.9833
 1002MOL0     H32207   4.394   9.194   3.419  0.4805 -0.2727 -0.3285
 1002MOL0     H32208   4.300   9.045   3.421 -0.2084 -0.1412  1.2584
 1002MOL0     H32209   4.223   9.100   3.640 -0.8885  0.7781  0.3226
 1002MOL0     H32210   4.152   9.204   3.513  0.1303 -1.2479 -0.8083
 1002MOL0     H32211   4.315   9.395   3.592  0.3495 -2.8160 -1.6421
 1002MOL0     H32212   4.366   9.284   3.709 -2.2282 -1.0810  2.6016
 1002MOL0     H32213   4.074   9.391   3.677 -1.1923 -3.5626  0.5244
 1002MOL0     H32214   4.124   9.326   3.819  0.8129 -1.3271 -0.7729
 1002MOL0     H32215   4.150   9.562   3.866  0.5148  1.1886 -0.6739
 1002MOL0     H32216   4.245   9.584   3.722 -1.1443  0.3833  0.4550
 1002MOL0     H32217   4.296   9.304   3.991  2.1436 -1.8895 -0.2733
 1002MOL0     H32218   4.515   9.308   4.200  0.8411 -2.1105  0.9998
 1002MOL0     H32219   4.653   9.352   4.114 -0.7397  3.2670  1.2312
 1002MOL0     H32220   4.446   9.132   4.037 -0.6020 -0.0896  0.9303
 1002MOL0     H32221   4.612   9.107   4.109 -0.0819  0.5435 -0.3064
 1002MOL0     H32222   4.590   9.060   3.865 -0.7119  0.4635 -0.4636
 1002MOL0     H32223   4.579   9.233   3.837 -1.4434 -0.5381  1.2811
 1002MOL0     H32224   4.792   9.279   3.953  0.5297 -0.2713 -0.2547
 1002MOL0     H32225   4.818   9.181   3.800 -2.0744  0.7161 -0.8043
 1002MOL0     H32226   5.000   9.301   3.940 -0.9926 -0.5777  0.4075
 1002MOL0     H32227   5.227   9.303   3.882  0.3054 -0.4205  0.4227
 1002MOL0     H32228   5.590   9.106   4.167 -0.3228 -1.2412 -0.2404
 1002MOL0     H32229   5.833   9.058   4.229 -3.7899  0.4181  1.2911
 1002MOL0     H32230   6.136   8.868   4.152  1.1366  0.7963  1.1023
 1002MOL0     H32231   5.988   8.919   4.225  0.7687 -0.7505  1.6369
 1002MOL0     H32232   6.158   9.036   4.340  1.7987 -0.8718 -1.7080
 1002MOL0     H32233   6.099   9.161   4.229 -1.1965  0.4675  0.2315
 1002MOL0     H32234   6.343   9.183   4.256  3.2448 -2.1969  0.0914
 1002MOL0     H32235   6.295   9.163   4.092 -2.2336  2.1407  1.1570
 1002MOL0     H32236   6.358   8.921   4.116 -1.0162  1.6628 -1.4509
 1002MOL0     H32237   6.490   9.032   4.158 -0.8369  0.2108 -1.6659
 1002MOL0     H32238   6.490   8.852   4.311  1.1890  0.5265  0.9444
 1002MOL0     H32239   6.320   8.878   4.360  0.1335  3.0202  2.3535
 1002MOL0     H32240   6.377   9.092   4.476  1.5380  0.7527  0.9415
 1002MOL0     H32241   6.527   9.088   4.411  0.6851  0.0847 -0.7419
 1002MOL0     H32242   6.544   8.839   4.529 -1.4996 -1.4129  3.6150
 1002MOL0     H32243   6.587   8.988   4.610 -0.2000 -1.0502  0.9577
 1002MOL0     H32244   6.296   8.874   4.614 -1.2965  3.2607  0.8536
 1002MOL0     H32245   6.356   8.992   4.713 -3.2702  0.9846 -4.2655
 1002MOL0     H32246   5.904   9.026   3.803 -0.4006 -0.9211 -0.1213
 1002MOL0     H32247   5.683   9.118   3.746 -2.2877  0.0167  0.0708
 1002MOL0     H32248   5.232   8.868   3.919 -0.6872 -0.7571 -0.8286
 1002MOL0     H32249   4.989   8.870   3.943 -2.3318  1.2304 -2.8818
 1002MOL0     H32250   4.542   8.587   3.628 -0.4906 -0.7672 -0.2262
 1002MOL0     H32251   4.640   8.383   3.732  0.4034 -0.2017 -1.5747
 1002MOL0     H32252   4.756   8.082   4.093  0.3560  3.4444  0.5634
 1002MOL0     H32253   4.903   7.867   4.154  2.6394 -1.0994  0.6531
 1002MOL0     H32254   4.976   7.684   4.120  0.0467 -2.5413  0.7031
 1002MOL0     H32255   5.144   7.608   4.117 -0.7436  1.5059  2.3203
 1002MOL0     H32256   4.951   7.547   3.949  0.5547 -1.2229  0.9267
 1002MOL0     H32257   4.950   7.706   3.891 -1.8087 -0.2699  1.7432
 1002MOL0     H32258   5.183   7.678   3.813 -3.1826  0.9851  0.5632
 1002MOL0     H32259   5.085   7.553   3.748  2.0334  0.2818 -0.6687
 1002MOL0     H32260   5.275   7.519   3.991  1.6777  1.7851 -1.5300
 1002MOL0     H32261   5.165   7.396   3.918 -1.5070 -0.3758 -3.4889
 1002MOL0     H32262   5.479   7.370   3.634 -3.2890 -4.0917 -2.0478
 1002MOL0     H32263   5.215   8.010   3.935  0.7745  0.2926  2.9165
 1002MOL0     H32264   5.100   8.221   3.865 -3.1752  1.5701 -1.7976
 1003MOL0     O32265   0.011   7.538   2.800  0.4125  0.1818 -0.0211
 1003MOL0     C32266  -0.086   7.458   2.820 -0.8964 -0.3422  0.6592
 1003MOL0     O32267  -0.085   7.350   2.900  0.2148 -0.2518 -0.0093
 1003MOL0     C32268   0.020   7.332   2.979 -1.0679 -0.0662 -0.7499
 1003MOL0     C32269   0.062   7.401   3.089  0.3927 -0.2650  0.3926
 1003MOL0     C32270   0.176   7.350   3.155 -0.9450 -1.0576 -0.1858
 1003MOL0     C32271   0.236   7.233   3.127  0.2585  1.0585 -0.7955
 1003MOL0     O32272   0.347   7.190   3.195 -0.2925  0.7822  0.3251
 1003MOL0     C32273   0.366   7.052   3.219 -0.2495  0.6041  0.2471
 1003MOL0     C32274   0.248   6.982   3.290  0.3429  0.0421  0.1834
 1003MOL0     C32275   0.175   7.057   3.402 -0.1512  0.2672 -0.2336
 1003MOL0     C32276   0.261   7.117   3.512 -0.2331 -0.2774  0.1467
 1003MOL0     C32277   0.186   7.159   3.645 -0.0568  0.5396 -0.2356
 1003MOL0     C32278   0.064   7.069   3.691  0.5521  0.7488 -0.0192
 1003MOL0     C32279   0.016   7.117   3.833 -0.4067 -0.4225  0.4735
 1003MOL0     C32280  -0.126   7.070   3.867 -0.4461 -0.2442  0.7322
 1003MOL0     N32281  -0.142   6.933   3.836 -0.2727  0.2347 -0.0173
 1003MOL0     C32282  -0.237   6.882   3.753  0.1086 -0.0958  0.4802
 1003MOL0     C32283  -0.209   6.743   3.757  0.1972 -0.9520 -0.4221
 1003MOL0     C32284  -0.289   6.636   3.682 -0.0443 -0.1780 -0.2341
 1003MOL0     C32285  -0.440   6.616   3.717 -0.2960  0.0924 -0.0422
 1003MOL0     C32286  -0.480   6.567   3.853 -0.7534  0.3277 -0.2120
 1003MOL0     C32287  -0.403   6.440   3.901  0.7517 -0.2928  1.0425
 1003MOL0     O32288  -0.426   6.334   3.809  1.0367  1.1700  0.7020
 1003MOL0     C32289  -0.549   6.277   3.819  0.2665 -0.0459  0.5774
 1003MOL0     C32290  -0.656   6.305   3.731  0.3927  0.7231  0.0818
 1003MOL0     C32291  -0.775   6.232   3.740  0.9123  0.5110 -0.2031
 1003MOL0     C32292  -0.795   6.128   3.833 -0.7050 -0.6512  0.4994
 1003MOL0     C32293  -0.923   6.063   3.849  0.8316 -0.2093 -0.0399
 1003MOL0     O32294  -1.006   6.093   3.749  0.4281 -0.6145  0.4240
 1003MOL0     C32295  -1.130   6.036   3.748 -0.3139 -0.4710 -0.8706
 1003MOL0     C32296  -1.162   5.902   3.755  0.4158 -0.1619  0.3655
 1003MOL0     C32297  -1.294   5.860   3.749  0.8878  0.2249 -0.3053
 1003MOL0     C32298  -1.395   5.956   3.752 -0.0639 -0.3394  0.3430
 1003MOL0     O32299  -1.527   5.917   3.747 -0.4675 -0.5819  0.4435
 1003MOL0     C32300  -1.565   5.798   3.669 -0.4912 -0.6301 -0.0409
 1003MOL0     C32301  -1.713   5.817   3.646  0.2665  0.5070 -0.1415
 1003MOL0     C32302  -1.788   5.712   3.561 -0.6063  0.6107  0.1167
 1003MOL0     C32303  -1.888   5.623   3.650  1.2724 -1.1784 -0.1087
 1003MOL0     C32304  -1.978   5.538   3.550 -0.1299 -0.2086 -0.8305
 1003MOL0     C32305  -2.121   5.522   3.601 -0.4535 -0.0445 -0.8240
 1003MOL0     C32306  -2.202   5.429   3.518 -0.0412  0.1856  0.9316
 1003MOL0     C32307  -2.281   5.513   3.418 -0.3400  0.5566 -0.9479
 1003MOL0    Cl32308  -2.184   5.583   3.285  0.3263 -0.2795 -0.4391
 1003MOL0     C32309  -1.374   6.094   3.748  0.0529 -0.2353  0.0135
 1003MOL0     C32310  -1.235   6.129   3.734 -0.1805  0.2975 -0.4891
 1003MOL0     O32311  -0.944   5.983   3.937 -0.5602  0.1383 -0.4840
 1003MOL0     C32312  -0.690   6.097   3.917 -0.1439  0.7921  0.8745
 1003MOL0     C32313  -0.568   6.159   3.898 -0.8079 -1.0356 -0.1054
 1003MOL0     N32314  -0.100   6.720   3.839 -0.4961 -0.3385 -0.5833
 1003MOL0     N32315  -0.055   6.835   3.875 -0.3653 -0.4223 -0.1697
 1003MOL0     C32316   0.182   7.159   3.019  0.4938 -0.4241 -0.3361
 1003MOL0     C32317   0.080   7.211   2.945 -0.0935  0.0077 -0.2572
 1003MOL0     C32318  -0.204   7.466   2.731  1.8689 -0.3761 -0.1164
 1003MOL0     C32319  -0.215   7.529   2.606 -0.1537  0.0543 -0.5619
 1003MOL0     C32320  -0.331   7.528   2.524 -0.7087  0.9385  0.4319
 1003MOL0     C32321  -0.444   7.451   2.557 -0.2777  0.3654 -0.7756
 1003MOL0     O32322  -0.546   7.433   2.466  0.1669 -0.1787 -0.7303
 1003MOL0     C32323  -0.660   7.357   2.497  0.1322 -0.4278 -0.5134
 1003MOL0     C32324  -0.746   7.334   2.371 -0.9921 -0.5854  0.7061
 1003MOL0     C32325  -0.673   7.287   2.239  0.4946 -0.7678  0.0817
 1003MOL0     C32326  -0.773   7.241   2.132 -0.0644  0.6235 -0.3205
 1003MOL0     C32327  -0.702   7.165   2.029 -0.7500 -0.5387  0.5818
 1003MOL0     C32328  -0.664   7.103   1.928  0.2737  1.1276  0.1109
 1003MOL0     C32329  -0.437   7.380   2.678  0.2963 -0.0478 -0.4828
 1003MOL0     C32330  -0.326   7.397   2.765  0.2499  0.8984 -0.2112
 1003MOL0     H32331   0.017   7.498   3.110 -0.9404 -0.6784 -0.4145
 1003MOL0     H32332   0.224   7.417   3.225  0.3337 -0.3472 -1.6657
 1003MOL0     H32333   0.441   7.054   3.299 -0.0492  0.6099  0.0604
 1003MOL0     H32334   0.397   6.997   3.131  0.2031 -0.9652  1.3434
 1003MOL0     H32335   0.284   6.887   3.329  0.3983 -0.1652 -0.3577
 1003MOL0     H32336   0.167   6.957   3.220 -0.4639  0.4702  0.9485
 1003MOL0     H32337   0.109   6.980   3.444  0.3967 -0.9593 -1.5116
 1003MOL0     H32338   0.113   7.135   3.357  1.2277  2.4149  1.3840
 1003MOL0     H32339   0.316   7.035   3.559 -2.8227 -1.5106  1.2474
 1003MOL0     H32340   0.331   7.191   3.473  0.0907 -0.8264 -0.3284
 1003MOL0     H32341   0.152   7.263   3.644  1.1377  0.9430 -0.6941
 1003MOL0     H32342   0.267   7.144   3.718  0.4674  2.0966 -0.4523
 1003MOL0     H32343   0.098   6.965   3.693 -0.1616  0.5014 -0.4498
 1003MOL0     H32344  -0.020   7.078   3.622  1.8844 -0.5466 -1.9255
 1003MOL0     H32345   0.082   7.092   3.916  0.9183 -0.6486 -0.6158
 1003MOL0     H32346   0.010   7.226   3.824  1.9426 -0.4122 -2.6737
 1003MOL0     H32347  -0.208   7.114   3.809  1.0829  0.7503 -0.7641
 1003MOL0     H32348  -0.144   7.081   3.974 -1.6633  1.5440  0.3844
 1003MOL0     H32349  -0.310   6.933   3.690 -1.0308 -3.2091 -0.9280
 1003MOL0     H32350  -0.232   6.543   3.676 -2.2114 -1.6958  1.3192
 1003MOL0     H32351  -0.291   6.662   3.576 -2.2595 -0.3834 -0.2884
 1003MOL0     H32352  -0.490   6.558   3.639  4.0813 -1.4623 -2.0538
 1003MOL0     H32353  -0.483   6.716   3.709  0.5825  0.6939  2.1642
 1003MOL0     H32354  -0.479   6.639   3.935 -2.9965  0.1805 -0.0028
 1003MOL0     H32355  -0.584   6.538   3.836 -1.1969  1.7906 -0.0646
 1003MOL0     H32356  -0.449   6.424   3.999 -2.4564 -1.6330 -0.5451
 1003MOL0     H32357  -0.297   6.466   3.895  0.3820  1.0274 -2.5899
 1003MOL0     H32358  -0.647   6.385   3.658  2.5129  0.5645  0.1233
 1003MOL0     H32359  -0.852   6.269   3.674  1.8209  2.0879 -0.4524
 1003MOL0     H32360  -1.082   5.830   3.747  0.1247 -0.7476  2.2405
 1003MOL0     H32361  -1.316   5.754   3.752 -0.4864  0.2619 -4.1858
 1003MOL0     H32362  -1.551   5.706   3.727  0.8098  0.5387  1.5512
 1003MOL0     H32363  -1.511   5.792   3.574  1.1753 -3.7450  0.9609
 1003MOL0     H32364  -1.735   5.910   3.593 -4.6200 -0.8245 -0.9904
 1003MOL0     H32365  -1.758   5.832   3.745  2.9475  1.9687  0.9729
 1003MOL0     H32366  -1.728   5.638   3.507 -0.0213  0.8123  0.4757
 1003MOL0     H32367  -1.845   5.753   3.477 -0.7499 -0.8061 -0.4973
 1003MOL0     H32368  -1.830   5.552   3.709 -1.0671 -0.8613  2.8495
 1003MOL0     H32369  -1.957   5.671   3.721  1.4170  0.9203 -1.3088
 1003MOL0     H32370  -1.928   5.441   3.540  1.6550  0.3535  1.6534
 1003MOL0     H32371  -1.971   5.595   3.456  1.2115  1.2974  0.1203
 1003MOL0     H32372  -2.164   5.622   3.607  1.2949  0.6416  1.4261
 1003MOL0     H32373  -2.114   5.482   3.702 -0.4309 -3.5884 -2.0919
 1003MOL0     H32374  -2.129   5.370   3.461  3.0952  0.3518  4.3888
 1003MOL0     H32375  -2.262   5.362   3.581  1.5138  0.9520  3.4068
 1003MOL0     H32376  -2.327   5.590   3.479  0.4902  1.7286 -1.7552
 1003MOL0     H32377  -2.344   5.440   3.366  0.6784 -0.3708 -0.9242
 1003MOL0     H32378  -1.455   6.167   3.746 -2.4569 -2.8735 -2.0362
 1003MOL0     H32379  -1.220   6.235   3.719  0.3056  0.2446 -0.4087
 1003MOL0     H32380  -0.702   6.020   3.993 -1.7921  0.6142  0.4722
 1003MOL0     H32381  -0.489   6.123   3.964 -0.3085 -0.2598 -0.2683
 1003MOL0     H32382   0.235   7.074   2.976  2.9281  1.2301 -0.8230
 1003MOL0     H32383   0.058   7.150   2.858  0.2313 -1.9712  0.9953
 1003MOL0     H32384  -0.126   7.585   2.578 -0.6263  0.3374 -1.5378
 1003MOL0     H32385  -0.332   7.578   2.428 -0.2778 -1.0197 -0.6438
 1003MOL0     H32386  -0.719   7.417   2.567  3.2561  0.4135  1.5775
 1003MOL0     H32387  -0.645   7.264   2.551 -2.1852  1.0481  3.0328
 1003MOL0     H32388  -0.815   7.256   2.404 -1.5748 -0.2982  0.1869
 1003MOL0     H32389  -0.806   7.423   2.349  0.2355  0.3887  1.1747
 1003MOL0     H32390  -0.612   7.199   2.263 -0.2531 -2.4314 -3.4881
 1003MOL0     H32391  -0.605   7.369   2.211  0.0814 -0.3939  0.1555
 1003MOL0     H32392  -0.848   7.173   2.173 -0.7146  0.7254 -1.2966
 1003MOL0     H32393  -0.829   7.320   2.080 -0.2694 -1.3162 -3.2855
 1003MOL0     H32394  -0.627   7.051   1.843  0.9504 -1.9944  2.1257
 1003MOL0     H32395  -0.514   7.309   2.704 -0.5974  0.4723 -1.6055
 1003MOL0     H32396  -0.326   7.343   2.859  1.2476  0.6132 -0.3658
 1004MOL0     O32397   6.907   2.537   1.479 -0.1390  0.4147  0.3923
 1004MOL0     C32398   6.931   2.442   1.558 -0.8534  0.3971 -0.4447
 1004MOL0     O32399   7.058   2.387   1.576 -0.5651  0.0246 -0.7723
 1004MOL0     C32400   7.144   2.375   1.464 -0.0383  0.2180  0.8860
 1004MOL0     C32401   7.281   2.339   1.479 -0.0963  0.6012 -0.2961
 1004MOL0     C32402   7.367   2.314   1.376  1.2034  1.1171  0.3347
 1004MOL0     C32403   7.317   2.325   1.244  0.1742 -1.0056  0.4466
 1004MOL0     O32404   7.394   2.299   1.136 -0.7755  0.0424 -1.0913
 1004MOL0     C32405   7.523   2.234   1.153  0.3287  1.4296  1.1732
 1004MOL0     C32406   7.591   2.197   1.018 -0.2044  0.1017  0.1330
 1004MOL0     C32407   7.686   2.311   0.977  0.4963  0.3722  0.1106
 1004MOL0     C32408   7.756   2.283   0.852  0.2289  0.2893  0.4220
 1004MOL0     C32409   7.859   2.172   0.858 -0.3431 -0.1692  0.4203
 1004MOL0     C32410   7.960   2.176   0.746 -0.5458 -0.4306 -0.5513
 1004MOL0     C32411   7.912   2.196   0.599 -0.9195  0.0975 -0.3621
 1004MOL0     C32412   7.833   2.077   0.558 -0.5778 -0.0298  0.6058
 1004MOL0     N32413   7.745   2.102   0.449 -0.0651 -0.8447  0.2522
 1004MOL0     C32414   7.613   2.141   0.462 -0.4080 -0.1411  0.6240
 1004MOL0     C32415   7.569   2.138   0.332 -0.2028  0.3897  0.6502
 1004MOL0     C32416   7.423   2.167   0.292 -0.6992 -0.4014  0.2203
 1004MOL0     C32417   7.408   2.261   0.177 -0.0794  0.2128 -0.1159
 1004MOL0     C32418   7.484   2.396   0.184  0.0214  0.7382  0.1765
 1004MOL0     C32419   7.533   2.464   0.049 -0.0663  0.2453  0.3786
 1004MOL0     O32420   7.619   2.568   0.082 -0.1351 -0.2653  0.5774
 1004MOL0     C32421   7.686   2.643  -0.014  0.1806 -0.3512 -0.6880
 1004MOL0     C32422   7.745   2.764   0.025  0.2080 -0.4613 -1.0724
 1004MOL0     C32423   7.812   2.848  -0.066 -0.7155  0.5740  0.8730
 1004MOL0     C32424   7.804   2.813  -0.199 -0.6345  0.6744 -0.2798
 1004MOL0     C32425   7.877   2.910  -0.293 -0.2100  0.9289  0.2113
 1004MOL0     O32426   7.960   3.013  -0.235 -0.1746 -0.0535 -0.7684
 1004MOL0     C32427   8.011   3.099  -0.332 -0.6474 -0.4136  0.2872
 1004MOL0     C32428   8.137   3.074  -0.391  0.3131  0.9233  0.7483
 1004MOL0     C32429   8.197   3.153  -0.485  0.1515  0.1718 -0.1220
 1004MOL0     C32430   8.120   3.264  -0.532 -0.5493 -0.3187  0.5361
 1004MOL0     O32431   8.177   3.332  -0.630 -0.1920  0.3806 -0.5983
 1004MOL0     C32432   8.128   3.455  -0.657 -0.6915 -0.8872 -0.1776
 1004MOL0     C32433   8.199   3.488  -0.791  0.1816 -0.0657 -0.7455
 1004MOL0     C32434   8.196   3.380  -0.902 -0.4107  1.1536  0.9588
 1004MOL0     C32435   8.253   3.421  -1.033 -0.6402 -0.1363  0.0945
 1004MOL0     C32436   8.171   3.529  -1.106  0.5075  0.3780  0.0444
 1004MOL0     C32437   8.232   3.538  -1.254  0.3567  0.9695  0.2355
 1004MOL0     C32438   8.149   3.434  -1.343  0.0295 -0.2850  0.0426
 1004MOL0     C32439   8.195   3.448  -1.484 -0.0769  0.2169  0.6427
 1004MOL0    Cl32440   8.130   3.327  -1.599  0.3598  0.2890  0.0019
 1004MOL0     C32441   7.996   3.299  -0.475  0.9091  0.6061 -0.4954
 1004MOL0     C32442   7.938   3.209  -0.381 -0.7318 -0.7271 -0.1254
 1004MOL0     O32443   7.886   2.884  -0.414 -1.3090 -0.7618 -0.6303
 1004MOL0     C32444   7.750   2.699  -0.248  0.1677  0.5706 -0.2057
 1004MOL0     C32445   7.698   2.607  -0.148 -0.8063  0.2948  0.8775
 1004MOL0     N32446   7.667   2.096   0.244  0.5477  0.5223 -0.9769
 1004MOL0     N32447   7.773   2.085   0.316  0.2407  0.2910  0.8186
 1004MOL0     C32448   7.186   2.356   1.222  0.3516 -0.4918  0.0077
 1004MOL0     C32449   7.100   2.363   1.332  0.7793  0.4591  0.4516
 1004MOL0     C32450   6.824   2.356   1.615  0.3326  1.1412 -0.5152
 1004MOL0     C32451   6.847   2.244   1.704 -0.6106 -0.4753  0.2922
 1004MOL0     C32452   6.744   2.161   1.748 -0.2411 -0.1950  0.7303
 1004MOL0     C32453   6.608   2.208   1.718 -0.2751  0.8453  0.1485
 1004MOL0     O32454   6.517   2.114   1.762  0.7397  0.0107 -0.1822
 1004MOL0     C32455   6.377   2.134   1.745  0.3103 -0.9765 -0.0162
 1004MOL0     C32456   6.307   2.077   1.862  0.6626 -0.2324 -0.4398
 1004MOL0     C32457   6.156   2.104   1.859  0.5334  0.2426  0.4549
 1004MOL0     C32458   6.071   2.066   1.981 -0.7443  1.2931  0.3651
 1004MOL0     C32459   6.101   2.140   2.103 -0.7196  0.1549  0.6586
 1004MOL0     C32460   6.128   2.212   2.202 -0.0332  0.4546 -0.4289
 1004MOL0     C32461   6.593   2.326   1.646  0.5887  0.0359 -0.3307
 1004MOL0     C32462   6.694   2.397   1.594  0.2156  0.1671  0.9622
 1004MOL0     H32463   7.316   2.323   1.580  3.7661 -1.4625 -1.7803
 1004MOL0     H32464   7.468   2.286   1.403  0.2801 -1.8039  1.1631
 1004MOL0     H32465   7.508   2.144   1.213  0.4375  1.1161  0.7297
 1004MOL0     H32466   7.592   2.295   1.213  3.3823  1.6243 -2.2009
 1004MOL0     H32467   7.524   2.159   0.940  0.9569 -1.3469 -0.1960
 1004MOL0     H32468   7.651   2.109   1.041  1.3703  1.4161  1.2596
 1004MOL0     H32469   7.754   2.327   1.062  1.0698  0.8859 -0.4309
 1004MOL0     H32470   7.630   2.405   0.978  0.8481  0.5910 -0.3314
 1004MOL0     H32471   7.679   2.255   0.779 -1.5366  0.0152  2.3034
 1004MOL0     H32472   7.800   2.378   0.818 -0.3547 -0.0460 -1.3854
 1004MOL0     H32473   7.810   2.075   0.843  0.0689 -0.1528 -1.1718
 1004MOL0     H32474   7.905   2.167   0.957  1.4739 -3.8213 -0.4352
 1004MOL0     H32475   8.000   2.074   0.756  0.3101 -0.0257  0.3139
 1004MOL0     H32476   8.040   2.241   0.781 -1.4731 -0.0362  0.9276
 1004MOL0     H32477   7.855   2.289   0.593 -0.4699  0.2891 -3.8697
 1004MOL0     H32478   7.995   2.204   0.528 -0.2603  2.5724  0.5810
 1004MOL0     H32479   7.769   2.029   0.633  2.5519 -0.0281  3.4836
 1004MOL0     H32480   7.901   1.996   0.528  0.7228  0.9558  0.8025
 1004MOL0     H32481   7.559   2.166   0.553  0.0618  0.5333  0.7275
 1004MOL0     H32482   7.371   2.209   0.379 -0.4594  2.6706 -1.0160
 1004MOL0     H32483   7.409   2.060   0.270  3.7954 -0.9369 -1.1076
 1004MOL0     H32484   7.303   2.286   0.157  0.3763 -1.0189 -5.4570
 1004MOL0     H32485   7.432   2.205   0.087  0.6052  0.7951 -0.3014
 1004MOL0     H32486   7.426   2.469   0.241 -1.0162  1.5592 -1.8142
 1004MOL0     H32487   7.578   2.382   0.239  2.5980  1.4818 -3.6495
 1004MOL0     H32488   7.444   2.488  -0.010 -0.7791 -2.8054  0.0808
 1004MOL0     H32489   7.590   2.388  -0.006  1.4781 -0.3673  2.6916
 1004MOL0     H32490   7.724   2.786   0.129  0.0543 -2.6462 -0.5887
 1004MOL0     H32491   7.851   2.940  -0.025  0.5597 -0.2822  1.6431
 1004MOL0     H32492   8.198   2.985  -0.375 -1.7077 -0.7394 -0.2215
 1004MOL0     H32493   8.290   3.131  -0.536 -2.0013 -0.6904 -4.1106
 1004MOL0     H32494   8.164   3.538  -0.596  1.1071 -1.6823 -0.0825
 1004MOL0     H32495   8.020   3.464  -0.671 -0.8158 -3.5693 -1.5766
 1004MOL0     H32496   8.301   3.517  -0.765  0.2172 -1.2934  0.6107
 1004MOL0     H32497   8.157   3.582  -0.829 -0.5656 -0.2851 -0.4746
 1004MOL0     H32498   8.094   3.344  -0.920  0.1966 -2.5182  3.6204
 1004MOL0     H32499   8.252   3.293  -0.865  0.4472  1.1015 -0.3702
 1004MOL0     H32500   8.350   3.468  -1.015 -2.3670  4.0212 -0.1905
 1004MOL0     H32501   8.262   3.333  -1.098  3.4135  0.8145 -0.8772
 1004MOL0     H32502   8.164   3.621  -1.048 -0.6241 -0.8788  2.0320
 1004MOL0     H32503   8.069   3.490  -1.113 -0.1288  1.9008  0.3323
 1004MOL0     H32504   8.338   3.514  -1.264 -0.3783 -1.6874 -2.2163
 1004MOL0     H32505   8.217   3.640  -1.292 -2.8911  1.2742  1.9560
 1004MOL0     H32506   8.163   3.335  -1.298 -1.6978  0.5886  2.7207
 1004MOL0     H32507   8.041   3.447  -1.329  0.0600 -1.0364  1.1145
 1004MOL0     H32508   8.304   3.450  -1.478 -0.0290 -0.9333  0.5172
 1004MOL0     H32509   8.176   3.543  -1.535 -2.5649  0.7162  2.2979
 1004MOL0     H32510   7.932   3.369  -0.527 -0.2830 -0.4967 -0.5583
 1004MOL0     H32511   7.833   3.223  -0.355 -0.4882 -1.5472  1.4496
 1004MOL0     H32512   7.742   2.672  -0.353  1.5075 -1.4508  0.1447
 1004MOL0     H32513   7.669   2.508  -0.183  1.8505  0.1125 -1.1307
 1004MOL0     H32514   7.161   2.365   1.117  1.0820  0.5410 -0.0978
 1004MOL0     H32515   7.000   2.377   1.292  1.9044 -1.1337 -3.2885
 1004MOL0     H32516   6.947   2.207   1.727 -0.2762 -2.8866 -3.9835
 1004MOL0     H32517   6.756   2.073   1.811  0.0705 -0.3701  0.4315
 1004MOL0     H32518   6.338   2.076   1.661  0.3993 -0.7285 -0.2280
 1004MOL0     H32519   6.367   2.243   1.746  1.0388 -0.8613 -1.9545
 1004MOL0     H32520   6.321   1.968   1.868  0.2745 -0.2488  0.3053
 1004MOL0     H32521   6.348   2.117   1.955  1.7748 -1.1233 -0.5312
 1004MOL0     H32522   6.105   2.043   1.784 -2.2261  1.5595  1.1524
 1004MOL0     H32523   6.137   2.209   1.837 -1.1433 -0.4455 -1.6469
 1004MOL0     H32524   5.964   2.074   1.959 -0.8371  0.8820  0.6518
 1004MOL0     H32525   6.107   1.964   1.999 -1.4410  0.9692 -0.0477
 1004MOL0     H32526   6.134   2.287   2.278 -0.7599  1.6314 -1.5008
 1004MOL0     H32527   6.489   2.348   1.623 -0.4601 -1.1548  2.6561
 1004MOL0     H32528   6.678   2.486   1.534  2.7826 -0.8787 -1.4888
 1005MOL0     O32529   6.999   4.700   9.524  0.4290  1.0205 -0.2087
 1005MOL0     C32530   6.987   4.576   9.528  0.4272  0.3390 -0.3770
 1005MOL0     O32531   7.071   4.491   9.582 -0.1500  0.3874 -0.5955
 1005MOL0     C32532   7.192   4.545   9.615 -0.4427 -0.2377  0.9863
 1005MOL0     C32533   7.236   4.544   9.746 -0.7438  0.0024 -0.3389
 1005MOL0     C32534   7.358   4.607   9.775 -0.4433  0.7645  0.0723
 1005MOL0     C32535   7.447   4.639   9.673  0.4381 -0.3850 -0.3879
 1005MOL0     O32536   7.557   4.693   9.715 -0.4290  0.2028  0.7732
 1005MOL0     C32537   7.661   4.591   9.729 -0.5504 -0.3158  0.1653
 1005MOL0     C32538   7.800   4.659   9.720 -0.7355  0.3002  1.1415
 1005MOL0     C32539   7.924   4.561   9.731  0.2489 -0.3843 -1.2332
 1005MOL0     C32540   7.909   4.464   9.843  0.2477 -0.1113  0.1508
 1005MOL0     C32541   8.044   4.387   9.859  0.4136 -0.7602 -0.0021
 1005MOL0     C32542   8.040   4.308   9.991 -0.9242 -0.3406 -0.9117
 1005MOL0     C32543   8.108   4.167   9.991  0.9101  1.4383  1.4410
 1005MOL0     C32544   8.044   4.082  10.103 -0.4676  0.0367  0.5668
 1005MOL0     N32545   8.091   4.123  10.237  0.5071  0.2057  0.4266
 1005MOL0     C32546   8.159   4.036  10.324  0.4674  0.1092 -0.5709
 1005MOL0     C32547   8.182   4.121  10.431  0.0470 -0.7666 -0.1988
 1005MOL0     C32548   8.241   4.071  10.561  0.1592 -0.2793 -0.3963
 1005MOL0     C32549   8.266   4.185  10.662 -0.3732 -0.2276  1.3034
 1005MOL0     C32550   8.343   4.131  10.787 -0.1945  0.6764 -0.1693
 1005MOL0     C32551   8.414   4.218  10.889 -0.2808  0.7264 -0.1896
 1005MOL0     O32552   8.486   4.312  10.820 -0.2935  0.1087 -0.6441
 1005MOL0     C32553   8.551   4.411  10.886  1.1584  0.4449 -0.0573
 1005MOL0     C32554   8.590   4.410  11.023  0.1950 -0.6202 -1.5199
 1005MOL0     C32555   8.658   4.516  11.082  0.0822  0.3134  0.1858
 1005MOL0     C32556   8.703   4.626  10.997 -0.1494  0.2025 -0.4009
 1005MOL0     C32557   8.785   4.732  11.051 -1.0229 -0.4259 -0.7872
 1005MOL0     O32558   8.822   4.721  11.185  0.0749  0.5239 -0.0548
 1005MOL0     C32559   8.900   4.825  11.243  0.6803 -0.4039 -0.6614
 1005MOL0     C32560   9.038   4.821  11.247 -0.0294 -0.6754 -0.7078
 1005MOL0     C32561   9.120   4.896  11.335  0.9496  0.2090  0.5561
 1005MOL0     C32562   9.065   5.005  11.400  0.7667 -0.3990 -0.1623
 1005MOL0     O32563   9.148   5.076  11.482  1.3988 -0.5695  0.5417
 1005MOL0     C32564   9.088   5.195  11.555 -0.1651  0.9708  0.2090
 1005MOL0     C32565   9.071   5.331  11.475  0.0121  0.0864  0.2943
 1005MOL0     C32566   9.216   5.366  11.425 -0.2686 -0.2763 -0.1225
 1005MOL0     C32567   9.228   5.494  11.347 -0.3422 -0.3046 -0.8970
 1005MOL0     C32568   9.371   5.501  11.298 -0.3197 -0.0941 -0.1131
 1005MOL0     C32569   9.401   5.634  11.220 -0.0140 -0.4342  0.1829
 1005MOL0     C32570   9.552   5.673  11.201 -0.3028  0.7718  0.9856
 1005MOL0     C32571   9.624   5.573  11.114 -0.7670  0.0442 -0.5297
 1005MOL0    Cl32572   9.571   5.608  10.939 -0.3045 -0.4014  0.1682
 1005MOL0     C32573   8.925   5.026  11.390 -0.0624 -0.2891  0.0273
 1005MOL0     C32574   8.842   4.937  11.316  0.2090 -0.2555 -0.1499
 1005MOL0     O32575   8.816   4.825  10.980 -0.0634  0.8331  0.0041
 1005MOL0     C32576   8.668   4.623  10.863  0.4740 -0.5666  0.2022
 1005MOL0     C32577   8.590   4.523  10.805 -0.3973  0.3093 -0.0094
 1005MOL0     N32578   8.123   4.248  10.418 -0.8629 -0.6202  0.1809
 1005MOL0     N32579   8.071   4.251  10.293  0.6199  0.8945 -0.3665
 1005MOL0     C32580   7.409   4.625   9.541 -0.0553  0.1756 -0.4199
 1005MOL0     C32581   7.282   4.580   9.507 -0.7238  0.3181  1.2820
 1005MOL0     C32582   6.863   4.531   9.458 -0.5708  1.0441  0.7758
 1005MOL0     C32583   6.803   4.619   9.366  0.1104  0.3115 -0.0696
 1005MOL0     C32584   6.686   4.584   9.297  0.5845 -0.6114  0.2266
 1005MOL0     C32585   6.632   4.460   9.312 -0.8350  0.2198 -0.2201
 1005MOL0     O32586   6.527   4.421   9.242 -0.0429  0.3205 -0.5673
 1005MOL0     C32587   6.405   4.482   9.289 -0.4089  0.5794  0.0290
 1005MOL0     C32588   6.345   4.401   9.413 -0.0725  0.0025  0.3110
 1005MOL0     C32589   6.400   4.421   9.546  0.3106 -0.4483 -0.6975
 1005MOL0     C32590   6.347   4.552   9.614 -0.3931  0.3415 -0.2974
 1005MOL0     C32591   6.346   4.528   9.762 -0.5877 -0.4701 -0.2043
 1005MOL0     C32592   6.351   4.504   9.882  0.3318  0.4663 -0.5554
 1005MOL0     C32593   6.712   4.355   9.386 -0.6811 -0.3713  0.1220
 1005MOL0     C32594   6.821   4.391   9.457 -0.3662 -0.6834 -0.1230
 1005MOL0     H32595   7.184   4.490   9.824 -1.0962  1.2555  0.3118
 1005MOL0     H32596   7.382   4.618   9.880 -2.1199 -0.4547  0.6277
 1005MOL0     H32597   7.665   4.515   9.651  1.6641  0.2514 -0.3621
 1005MOL0     H32598   7.639   4.533   9.819 -4.1970  1.3209  0.5009
 1005MOL0     H32599   7.821   4.742   9.788 -1.6939  0.6771  0.9924
 1005MOL0     H32600   7.800   4.704   9.620 -2.5011 -2.5158 -0.2541
 1005MOL0     H32601   8.012   4.626   9.735  0.6493 -0.9744 -0.0497
 1005MOL0     H32602   7.924   4.498   9.642  0.3866 -0.8046 -0.9354
 1005MOL0     H32603   7.874   4.520   9.930  2.4365  2.3269 -0.4385
 1005MOL0     H32604   7.836   4.383   9.829 -0.8789  0.4255  2.4279
 1005MOL0     H32605   8.128   4.454   9.842  0.4445 -0.5885  0.7860
 1005MOL0     H32606   8.055   4.319   9.774  0.1151  2.8207 -3.1279
 1005MOL0     H32607   7.940   4.303  10.036 -0.4472 -0.8470  0.1340
 1005MOL0     H32608   8.103   4.357  10.065  1.5085 -4.2151 -0.1241
 1005MOL0     H32609   8.086   4.124   9.893 -1.9995  3.4625  1.0673
 1005MOL0     H32610   8.217   4.170  10.004  1.4964 -1.6408 -1.3156
 1005MOL0     H32611   8.057   3.975  10.085 -0.6089 -0.0591  1.0153
 1005MOL0     H32612   7.935   4.088  10.090 -0.3863  0.8462  0.2077
 1005MOL0     H32613   8.195   3.936  10.302 -0.5964 -1.2145  2.9180
 1005MOL0     H32614   8.334   4.018  10.536 -1.1253 -1.8965 -1.9605
 1005MOL0     H32615   8.174   4.001  10.612 -1.7128  1.9121  0.2884
 1005MOL0     H32616   8.173   4.238  10.685 -0.2779  0.1394  0.8650
 1005MOL0     H32617   8.328   4.259  10.610  0.0470 -1.0612  0.5810
 1005MOL0     H32618   8.271   4.059  10.828  1.9475 -3.1397 -2.4895
 1005MOL0     H32619   8.427   4.072  10.749 -0.6052  1.4355 -2.3940
 1005MOL0     H32620   8.479   4.151  10.946 -0.0516  1.5650  0.5575
 1005MOL0     H32621   8.334   4.261  10.949 -1.0707  0.8356 -1.2973
 1005MOL0     H32622   8.552   4.323  11.076 -1.6210  0.4111 -1.0135
 1005MOL0     H32623   8.699   4.522  11.182 -1.4238 -3.1875  1.1401
 1005MOL0     H32624   9.069   4.730  11.196 -0.7588 -0.9502 -0.6722
 1005MOL0     H32625   9.224   4.872  11.351  0.5665 -3.4067 -1.1744
 1005MOL0     H32626   9.173   5.204  11.623  1.6969 -2.6124 -1.3814
 1005MOL0     H32627   8.995   5.176  11.609 -1.1242  0.5600 -1.5186
 1005MOL0     H32628   9.037   5.415  11.536 -1.1476 -1.3974  1.7788
 1005MOL0     H32629   9.001   5.326  11.391 -0.1304  4.3659 -0.0261
 1005MOL0     H32630   9.241   5.291  11.349 -0.9822  0.6621 -1.3269
 1005MOL0     H32631   9.293   5.348  11.501  0.0453 -2.3362 -0.8599
 1005MOL0     H32632   9.160   5.487  11.262 -0.8939 -0.3773 -0.4549
 1005MOL0     H32633   9.194   5.581  11.404 -0.1572 -0.9444  0.2388
 1005MOL0     H32634   9.398   5.410  11.245 -3.3941 -0.0348 -2.0479
 1005MOL0     H32635   9.431   5.505  11.389 -1.2624 -2.0584  0.6468
 1005MOL0     H32636   9.365   5.716  11.283  5.0964  0.2996  2.6704
 1005MOL0     H32637   9.348   5.638  11.125 -1.2530 -4.2785  0.5014
 1005MOL0     H32638   9.560   5.778  11.171 -1.3458  0.9510  1.2892
 1005MOL0     H32639   9.578   5.661  11.306 -0.6127  3.6341  1.4736
 1005MOL0     H32640   9.608   5.471  11.150  0.2312  0.1929  0.3826
 1005MOL0     H32641   9.732   5.592  11.117 -0.5361 -0.5983 -2.6614
 1005MOL0     H32642   8.892   5.122  11.428 -0.5108 -0.0749 -0.8785
 1005MOL0     H32643   8.736   4.952  11.306  0.0114 -0.8594  0.8391
 1005MOL0     H32644   8.701   4.709  10.805  1.4759  0.3230  1.9917
 1005MOL0     H32645   8.550   4.518  10.704 -3.2471  1.5872  0.9363
 1005MOL0     H32646   7.477   4.659   9.464  1.2756  0.4207  0.8097
 1005MOL0     H32647   7.245   4.556   9.408  0.5051 -1.3365  1.1822
 1005MOL0     H32648   6.832   4.722   9.351  1.9999  0.1670  2.0620
 1005MOL0     H32649   6.633   4.640   9.221  0.3448 -3.3780 -1.8051
 1005MOL0     H32650   6.339   4.473   9.202 -0.5303 -2.4269  0.3557
 1005MOL0     H32651   6.415   4.590   9.305  2.7290  0.3950 -0.2141
 1005MOL0     H32652   6.236   4.413   9.411 -0.0849  0.3013  1.7645
 1005MOL0     H32653   6.346   4.292   9.403 -4.4059 -0.0941 -0.8213
 1005MOL0     H32654   6.509   4.419   9.550  0.2637 -1.9181  0.4092
 1005MOL0     H32655   6.380   4.333   9.607 -2.0242 -0.6986 -1.7116
 1005MOL0     H32656   6.397   4.647   9.592  0.3978 -0.1653 -0.7210
 1005MOL0     H32657   6.243   4.575   9.590 -0.6444  0.3923  0.7604
 1005MOL0     H32658   6.341   4.478   9.986 -0.4701  0.4545 -0.6285
 1005MOL0     H32659   6.698   4.249   9.370  3.8477 -1.0344 -0.5413
 1005MOL0     H32660   6.876   4.317   9.515  1.5462  1.4335  0.9139
 1006MOL0     O32661   0.456  10.550  10.097  0.0441  0.6225 -0.5098
 1006MOL0     C32662   0.534  10.640  10.075 -0.2930  0.0465  0.0732
 1006MOL0     O32663   0.509  10.736   9.981 -0.1475 -0.2674  0.0683
 1006MOL0     C32664   0.399  10.716   9.899 -0.3036  1.4434 -0.0799
 1006MOL0     C32665   0.428  10.673   9.766 -0.7828  0.2640 -0.1854
 1006MOL0     C32666   0.322  10.669   9.679  1.0137  0.8610 -0.3199
 1006MOL0     C32667   0.184  10.695   9.726  0.4793 -1.0032 -0.4758
 1006MOL0     O32668   0.090  10.672   9.626  0.0852  0.1075  0.2389
 1006MOL0     C32669  -0.045  10.686   9.654  1.3355  0.1937 -0.0111
 1006MOL0     C32670  -0.107  10.825   9.639 -0.6742 -0.5979  0.0076
 1006MOL0     C32671  -0.258  10.850   9.696  0.8662 -0.3046 -0.8683
 1006MOL0     C32672  -0.273  10.789   9.838 -0.0604  0.4657  0.6526
 1006MOL0     C32673  -0.400  10.860   9.882 -0.3810  0.3320  0.2479
 1006MOL0     C32674  -0.422  10.832  10.031  0.6811 -0.0848 -0.2391
 1006MOL0     C32675  -0.314  10.882  10.127  1.0071  0.7008  0.3250
 1006MOL0     C32676  -0.356  10.895  10.275 -1.2369 -0.0612 -0.7164
 1006MOL0     N32677  -0.466  10.992  10.308 -1.2087 -0.2988  0.3934
 1006MOL0     C32678  -0.599  10.972  10.318 -0.4671 -0.7965  0.1767
 1006MOL0     C32679  -0.659  11.096  10.323 -0.3107  0.3504  0.2713
 1006MOL0     C32680  -0.806  11.122  10.327 -0.1204  0.0955  0.9230
 1006MOL0     C32681  -0.848  11.100  10.472 -0.1878 -0.0239 -0.1612
 1006MOL0     C32682  -0.774  11.167  10.588 -0.7398  0.1351  0.2173
 1006MOL0     C32683  -0.661  11.080  10.644 -0.7112  0.5785  0.1414
 1006MOL0     O32684  -0.714  10.953  10.684 -0.1370  0.6521 -0.0236
 1006MOL0     C32685  -0.626  10.840  10.695  0.3081 -0.2827 -0.4184
 1006MOL0     C32686  -0.669  10.715  10.744 -0.1949 -0.3734  0.1184
 1006MOL0     C32687  -0.574  10.617  10.782 -0.1239  0.6524  0.2882
 1006MOL0     C32688  -0.437  10.637  10.761 -0.3335 -0.6392  0.3356
 1006MOL0     C32689  -0.324  10.532  10.790  0.8620 -0.5935  0.2701
 1006MOL0     O32690  -0.193  10.562  10.762  0.9973 -0.0646  0.0931
 1006MOL0     C32691  -0.095  10.488  10.826 -0.3174  0.2382  0.9581
 1006MOL0     C32692  -0.023  10.394  10.751 -0.8948 -0.6123  0.0933
 1006MOL0     C32693   0.089  10.331  10.808 -0.7433 -0.3044 -0.2856
 1006MOL0     C32694   0.114  10.350  10.941  1.3387  0.4692 -1.3840
 1006MOL0     O32695   0.226  10.289  10.999 -0.1739  0.3015 -0.2727
 1006MOL0     C32696   0.262  10.161  10.956  0.4222 -0.0606  0.4692
 1006MOL0     C32697   0.373  10.092  11.030 -0.1601 -0.3244 -1.1061
 1006MOL0     C32698   0.330  10.054  11.173  2.1600 -0.4726  0.2924
 1006MOL0     C32699   0.441   9.977  11.243 -0.9848 -0.9227  0.8166
 1006MOL0     C32700   0.402   9.917  11.372  0.7305 -0.6717 -0.5759
 1006MOL0     C32701   0.494   9.801  11.422 -0.0615 -0.1595 -0.6501
 1006MOL0     C32702   0.649   9.838  11.437  0.0346  0.7574  0.5248
 1006MOL0     C32703   0.671   9.946  11.541 -0.3279 -0.5254 -0.2553
 1006MOL0    Cl32704   0.852   9.969  11.577  0.2342  0.6658  0.0664
 1006MOL0     C32705   0.040  10.439  11.018  0.3451 -0.5494 -0.4799
 1006MOL0     C32706  -0.070  10.500  10.962 -0.1149  0.0038 -0.1282
 1006MOL0     O32707  -0.359  10.435  10.851 -0.2208  0.0136  0.0157
 1006MOL0     C32708  -0.397  10.744  10.690 -0.7842  1.4831 -1.0053
 1006MOL0     C32709  -0.490  10.849  10.662 -0.1556  0.6903  0.5422
 1006MOL0     N32710  -0.555  11.187  10.347  0.5312  0.2659  0.8013
 1006MOL0     N32711  -0.445  11.122  10.343  0.1247 -0.3850 -0.1722
 1006MOL0     C32712   0.166  10.750   9.860  0.0410 -0.1852  0.6416
 1006MOL0     C32713   0.274  10.759   9.942 -0.7118 -0.4684 -0.1366
 1006MOL0     C32714   0.662  10.645  10.154  0.1149 -0.2757 -0.5372
 1006MOL0     C32715   0.733  10.763  10.153  0.4497 -0.0425 -0.6856
 1006MOL0     C32716   0.834  10.788  10.248  0.6797 -0.0265  0.1074
 1006MOL0     C32717   0.864  10.693  10.347 -0.0407 -0.1188 -0.2089
 1006MOL0     O32718   0.973  10.708  10.421 -0.2261  0.3221  0.1420
 1006MOL0     C32719   0.973  10.825  10.507 -0.4145  0.5928  0.2651
 1006MOL0     C32720   0.860  10.830  10.616 -1.0479  0.1397  0.0509
 1006MOL0     C32721   0.905  10.955  10.698 -0.5729 -0.4348 -0.0633
 1006MOL0     C32722   0.834  10.937  10.841 -0.1963  0.1754  0.8348
 1006MOL0     C32723   0.918  10.850  10.926 -0.0421 -0.2037  0.2089
 1006MOL0     C32724   0.987  10.789  11.004  0.5947  0.0394  0.7528
 1006MOL0     C32725   0.808  10.563  10.335 -0.0939 -0.0029 -0.7086
 1006MOL0     C32726   0.699  10.547  10.242 -0.2888  0.1133  0.0530
 1006MOL0     H32727   0.530  10.660   9.731 -0.8637 -0.3657 -0.1990
 1006MOL0     H32728   0.341  10.632   9.578  2.3583 -1.2752  0.6422
 1006MOL0     H32729  -0.082  10.651   9.750 -1.0296 -2.0022 -1.5738
 1006MOL0     H32730  -0.106  10.631   9.581  2.2757  1.3473 -1.7508
 1006MOL0     H32731  -0.106  10.845   9.531  1.0325  2.8751  0.5179
 1006MOL0     H32732  -0.047  10.900   9.692 -1.4753 -0.2663  0.4552
 1006MOL0     H32733  -0.337  10.813   9.630  1.2280 -1.6913 -0.5676
 1006MOL0     H32734  -0.274  10.958   9.694 -0.7904 -0.2745  3.7018
 1006MOL0     H32735  -0.294  10.682   9.828  1.5449  0.2705 -1.6752
 1006MOL0     H32736  -0.195  10.809   9.912 -0.2923  0.6371  0.8490
 1006MOL0     H32737  -0.488  10.827   9.827 -0.2232  2.4367 -1.4288
 1006MOL0     H32738  -0.373  10.965   9.867  0.2476  0.1017 -0.2882
 1006MOL0     H32739  -0.446  10.726  10.044 -0.9744  0.2675 -0.1906
 1006MOL0     H32740  -0.517  10.883  10.050  0.0544 -1.2603 -0.0593
 1006MOL0     H32741  -0.227  10.817  10.118 -0.8458 -1.9446  0.4598
 1006MOL0     H32742  -0.287  10.984  10.097  0.0362  1.1461  0.9164
 1006MOL0     H32743  -0.258  10.897  10.324 -0.9274 -3.9373 -0.8188
 1006MOL0     H32744  -0.391  10.805  10.327  0.7643  0.4095  1.6291
 1006MOL0     H32745  -0.654  10.878  10.313  1.5511 -2.0172 -0.3064
 1006MOL0     H32746  -0.843  11.040  10.264  1.8861 -0.6393  0.6327
 1006MOL0     H32747  -0.841  11.222  10.301  0.6706  0.3378  0.7514
 1006MOL0     H32748  -0.859  10.994  10.498 -0.0504 -0.1777 -0.7195
 1006MOL0     H32749  -0.949  11.142  10.479 -0.1885 -0.2712  4.2011
 1006MOL0     H32750  -0.719  11.256  10.559 -0.0891 -0.8543 -1.8088
 1006MOL0     H32751  -0.847  11.191  10.666 -1.0344 -2.1261  0.7141
 1006MOL0     H32752  -0.607  11.116  10.732  0.1827 -4.1107  1.7807
 1006MOL0     H32753  -0.581  11.076  10.570  0.8476  3.0701  1.5510
 1006MOL0     H32754  -0.776  10.702  10.754 -0.4565  2.5666  2.4612
 1006MOL0     H32755  -0.605  10.516  10.804 -1.1365  0.6749 -0.8836
 1006MOL0     H32756  -0.056  10.388  10.647  0.3557  0.3866 -0.3768
 1006MOL0     H32757   0.152  10.264  10.750 -0.8586 -0.8763  0.2383
 1006MOL0     H32758   0.314  10.177  10.861  2.4324 -1.2583  1.3010
 1006MOL0     H32759   0.176  10.098  10.933  0.8327 -0.1482 -0.9313
 1006MOL0     H32760   0.458  10.160  11.018  2.2538 -2.9932 -0.2059
 1006MOL0     H32761   0.413  10.000  10.986 -0.8180  0.3396 -3.2462
 1006MOL0     H32762   0.248   9.986  11.150 -0.9808  2.7374  1.0981
 1006MOL0     H32763   0.300  10.149  11.219  0.6372  1.1263 -3.5760
 1006MOL0     H32764   0.463   9.896  11.173 -3.5221 -0.3356 -0.7847
 1006MOL0     H32765   0.529  10.042  11.252 -0.4475 -1.5734  0.4044
 1006MOL0     H32766   0.302   9.874  11.359 -0.9245  3.0954 -1.6982
 1006MOL0     H32767   0.389   9.999  11.443 -1.4224  0.4197 -2.1177
 1006MOL0     H32768   0.478   9.726  11.344 -2.8382 -0.9331  0.5491
 1006MOL0     H32769   0.466   9.777  11.524  1.8265 -0.6002 -0.2041
 1006MOL0     H32770   0.698   9.746  11.471  0.1607  0.4111 -0.5572
 1006MOL0     H32771   0.694   9.886  11.350 -2.5925  0.4212 -1.1398
 1006MOL0     H32772   0.612   9.917  11.629  0.3355 -0.3916  0.2387
 1006MOL0     H32773   0.628  10.040  11.505 -0.2891 -0.7481 -0.9069
 1006MOL0     H32774   0.032  10.462  11.124 -3.0049 -0.6774 -0.6005
 1006MOL0     H32775  -0.136  10.566  11.019  1.7679  0.0547  2.1173
 1006MOL0     H32776  -0.295  10.771  10.668 -0.0477 -1.0992 -1.0846
 1006MOL0     H32777  -0.446  10.947  10.648 -0.7666  0.8077 -0.6654
 1006MOL0     H32778   0.066  10.762   9.900  0.3165  2.0101  0.7937
 1006MOL0     H32779   0.269  10.798  10.044  0.9334 -0.8455  0.1119
 1006MOL0     H32780   0.713  10.843  10.081  2.1070  1.7215  0.7085
 1006MOL0     H32781   0.903  10.871  10.244  1.4477 -0.6750 -0.1836
 1006MOL0     H32782   0.969  10.914  10.444 -1.7998 -1.4992 -2.8984
 1006MOL0     H32783   1.071  10.830  10.554  0.4669  1.6018 -1.5563
 1006MOL0     H32784   0.760  10.843  10.575 -1.4425 -1.1293  0.5667
 1006MOL0     H32785   0.862  10.737  10.674 -0.2855  0.3890  0.4430
 1006MOL0     H32786   0.888  11.046  10.640  2.8943 -1.8906 -3.8090
 1006MOL0     H32787   1.012  10.971  10.715 -0.7030  1.5521 -0.8912
 1006MOL0     H32788   0.819  11.039  10.878 -0.2736  1.1671 -1.7084
 1006MOL0     H32789   0.742  10.879  10.829 -0.3395  0.6864 -0.7295
 1006MOL0     H32790   1.035  10.738  11.085 -0.3101 -0.6263  0.8956
 1006MOL0     H32791   0.838  10.476  10.392  1.5911  0.8239 -0.2899
 1006MOL0     H32792   0.649  10.451  10.235  3.2897 -2.3054  3.2156
 1007MOL0     O32793   6.616   0.507   7.616  0.2815  0.6209  0.3125
 1007MOL0     C32794   6.647   0.466   7.508  0.5293 -0.1227  1.0667
 1007MOL0     O32795   6.551   0.418   7.419 -0.2166  0.0226  0.0561
 1007MOL0     C32796   6.411   0.432   7.413 -0.2103  0.0932 -0.2926
 1007MOL0     C32797   6.342   0.389   7.299  0.3055  0.6444  0.3991
 1007MOL0     C32798   6.204   0.413   7.281 -1.2284  0.0644 -1.6214
 1007MOL0     C32799   6.124   0.463   7.386 -0.7865 -0.4129  0.4079
 1007MOL0     O32800   5.990   0.482   7.383 -0.2167  0.6317 -0.6538
 1007MOL0     C32801   5.916   0.379   7.321  0.1915 -1.1716 -0.7995
 1007MOL0     C32802   5.775   0.431   7.280  0.4508 -0.0397 -0.3851
 1007MOL0     C32803   5.691   0.325   7.222  0.5473 -0.0211  0.6607
 1007MOL0     C32804   5.546   0.373   7.191  0.1689 -0.2083 -0.0845
 1007MOL0     C32805   5.474   0.375   7.329  0.2545 -0.5531  0.7909
 1007MOL0     C32806   5.321   0.378   7.310 -0.2968  0.1851  0.1215
 1007MOL0     C32807   5.243   0.361   7.438 -0.4421 -0.7137 -0.2686
 1007MOL0     C32808   5.247   0.224   7.489  0.0333  0.3743 -0.7357
 1007MOL0     N32809   5.114   0.208   7.558 -0.7462  0.1972  0.0525
 1007MOL0     C32810   5.070   0.290   7.657  0.0024  0.3568 -0.2088
 1007MOL0     C32811   4.946   0.255   7.690  0.1404  1.1414  0.3600
 1007MOL0     C32812   4.868   0.316   7.807 -0.4242  0.2142 -0.2025
 1007MOL0     C32813   4.939   0.302   7.936 -0.4735 -0.3759 -0.5256
 1007MOL0     C32814   4.847   0.309   8.072 -0.5573 -0.1939  0.3950
 1007MOL0     C32815   4.741   0.414   8.068  0.5741  0.6398 -0.8819
 1007MOL0     O32816   4.795   0.549   8.075 -0.4783  0.3840 -0.3602
 1007MOL0     C32817   4.713   0.645   8.126  0.1382 -0.7407 -0.8375
 1007MOL0     C32818   4.760   0.771   8.098  0.8835 -0.0426  0.2949
 1007MOL0     C32819   4.693   0.887   8.145 -0.1743  0.8384  0.3026
 1007MOL0     C32820   4.573   0.877   8.212  0.0968 -1.2039  0.3761
 1007MOL0     C32821   4.510   1.003   8.260  0.8652 -0.9070 -0.4463
 1007MOL0     O32822   4.374   0.986   8.286 -0.8217  0.0388 -0.0327
 1007MOL0     C32823   4.310   1.101   8.321  0.6304 -0.7763  0.6942
 1007MOL0     C32824   4.197   1.128   8.237  0.2137 -1.1904 -0.3267
 1007MOL0     C32825   4.133   1.257   8.263  1.4563  0.4588  0.2603
 1007MOL0     C32826   4.157   1.328   8.373  0.6312  2.5492 -0.2868
 1007MOL0     O32827   4.072   1.433   8.410 -0.0574  0.1188 -0.7731
 1007MOL0     C32828   4.075   1.487   8.537 -1.4335  0.7093  0.5889
 1007MOL0     C32829   3.943   1.562   8.566 -0.8746  0.1462 -0.1129
 1007MOL0     C32830   3.829   1.467   8.602 -0.3766 -0.2849  0.0456
 1007MOL0     C32831   3.735   1.557   8.692 -0.2217 -0.4783  0.3637
 1007MOL0     C32832   3.672   1.676   8.618 -0.0912 -0.3849 -0.2722
 1007MOL0     C32833   3.552   1.634   8.532  0.2682  0.5111 -0.8639
 1007MOL0     C32834   3.481   1.739   8.443 -0.6623 -1.1180 -0.3455
 1007MOL0     C32835   3.417   1.656   8.332  0.3708 -0.4184 -0.2611
 1007MOL0    Cl32836   3.283   1.544   8.385 -0.1534 -0.1194  0.1366
 1007MOL0     C32837   4.267   1.294   8.445  0.2644  0.3615 -0.3780
 1007MOL0     C32838   4.342   1.182   8.425  0.5420 -0.1511  0.3734
 1007MOL0     O32839   4.572   1.102   8.282  0.2364  0.0777 -0.1642
 1007MOL0     C32840   4.523   0.749   8.238 -0.2814  0.6054  0.2996
 1007MOL0     C32841   4.592   0.630   8.200 -0.3323 -1.0971 -0.3442
 1007MOL0     N32842   4.910   0.157   7.596 -0.3567  0.5486 -0.1774
 1007MOL0     N32843   5.014   0.117   7.528  0.0022 -0.2809  0.7281
 1007MOL0     C32844   6.190   0.506   7.501 -0.3839  0.6279  0.3625
 1007MOL0     C32845   6.324   0.484   7.523 -0.0011 -0.1213 -0.4808
 1007MOL0     C32846   6.788   0.442   7.471 -0.7061  0.5803  0.6996
 1007MOL0     C32847   6.896   0.495   7.547 -0.8075 -0.2585 -0.0355
 1007MOL0     C32848   7.025   0.471   7.505 -0.6512 -0.2523  0.1414
 1007MOL0     C32849   7.064   0.396   7.391  1.1014 -0.0451 -0.9547
 1007MOL0     O32850   7.193   0.381   7.346  0.2010  0.2824 -0.3080
 1007MOL0     C32851   7.304   0.450   7.407  0.1816 -0.5059  0.5151
 1007MOL0     C32852   7.313   0.600   7.356 -0.1869  0.7898  0.1142
 1007MOL0     C32853   7.322   0.609   7.197 -1.0900 -0.3167 -0.3052
 1007MOL0     C32854   7.190   0.663   7.138 -0.0645  0.9332  0.9934
 1007MOL0     C32855   7.167   0.624   6.999  0.9472  0.8862  0.3919
 1007MOL0     C32856   7.151   0.619   6.875 -0.4578 -0.7135 -1.3340
 1007MOL0     C32857   6.953   0.340   7.319  0.5429  0.1918 -0.4214
 1007MOL0     C32858   6.818   0.358   7.359  0.4038 -0.2393  0.4053
 1007MOL0     H32859   6.394   0.333   7.223  0.5519  1.4413 -0.0263
 1007MOL0     H32860   6.158   0.368   7.194 -0.7101 -0.5986 -1.5688
 1007MOL0     H32861   5.914   0.289   7.383  0.3113 -0.3796  0.3630
 1007MOL0     H32862   5.965   0.341   7.230  0.4708 -1.1049 -0.6753
 1007MOL0     H32863   5.779   0.525   7.224 -1.3679 -0.1412 -0.7435
 1007MOL0     H32864   5.725   0.464   7.371  1.1438  0.5669 -0.2080
 1007MOL0     H32865   5.694   0.239   7.288  2.6436 -1.9326 -1.7170
 1007MOL0     H32866   5.748   0.288   7.136  1.4585  0.2306  1.1345
 1007MOL0     H32867   5.525   0.462   7.130  0.6056  0.7081  1.0662
 1007MOL0     H32868   5.504   0.291   7.133  0.0974  0.4261 -0.9449
 1007MOL0     H32869   5.499   0.470   7.378  1.3749  0.4703 -1.5839
 1007MOL0     H32870   5.494   0.284   7.385 -2.7924 -0.4462  2.2890
 1007MOL0     H32871   5.287   0.309   7.233 -0.6513  0.5682 -0.0697
 1007MOL0     H32872   5.303   0.482   7.280 -0.4185  0.8915  2.4255
 1007MOL0     H32873   5.274   0.430   7.517 -0.0540  0.5840 -1.5050
 1007MOL0     H32874   5.138   0.390   7.428 -1.4787 -3.9257  0.3901
 1007MOL0     H32875   5.334   0.226   7.554  1.8578 -2.6934 -2.8387
 1007MOL0     H32876   5.268   0.146   7.415  0.3869 -1.0985  0.8514
 1007MOL0     H32877   5.147   0.356   7.693  3.1039 -2.9222 -0.3467
 1007MOL0     H32878   4.765   0.284   7.825 -1.1047  2.2275 -0.1756
 1007MOL0     H32879   4.859   0.424   7.792 -0.8745 -0.0427 -1.9611
 1007MOL0     H32880   5.020   0.376   7.933 -1.1722  0.4981  1.0413
 1007MOL0     H32881   4.997   0.209   7.944  0.1180 -0.0105 -0.5142
 1007MOL0     H32882   4.795   0.214   8.084  0.2609 -0.8470 -0.9344
 1007MOL0     H32883   4.909   0.338   8.157  2.0415 -0.7295 -1.1962
 1007MOL0     H32884   4.682   0.393   8.158 -0.0436 -0.9111 -1.6247
 1007MOL0     H32885   4.678   0.421   7.979 -0.0742 -1.8729 -0.7009
 1007MOL0     H32886   4.853   0.787   8.044  1.0799 -1.4919  0.1737
 1007MOL0     H32887   4.749   0.979   8.132  0.2530  0.4085 -1.1302
 1007MOL0     H32888   4.164   1.052   8.166  0.1877 -0.2584 -1.3286
 1007MOL0     H32889   4.049   1.293   8.205 -0.2658  0.0886  2.4106
 1007MOL0     H32890   4.168   1.545   8.538  1.1069 -2.9698 -0.8054
 1007MOL0     H32891   4.074   1.406   8.611 -2.6314 -0.2267 -0.4091
 1007MOL0     H32892   3.918   1.618   8.476 -1.0173  1.3356  0.6440
 1007MOL0     H32893   3.975   1.644   8.631  1.0042  1.0406 -2.0459
 1007MOL0     H32894   3.871   1.387   8.664  0.1473  1.3478  1.9141
 1007MOL0     H32895   3.774   1.431   8.515 -0.7625  3.2510 -1.3355
 1007MOL0     H32896   3.651   1.497   8.729 -0.0399 -0.6800  0.4513
 1007MOL0     H32897   3.786   1.603   8.776 -0.6530 -0.9273  0.8790
 1007MOL0     H32898   3.736   1.728   8.545 -1.8346  2.0433 -0.2179
 1007MOL0     H32899   3.643   1.758   8.684  0.0656 -1.1633  0.7902
 1007MOL0     H32900   3.474   1.591   8.595 -0.1649  1.2126 -0.9067
 1007MOL0     H32901   3.596   1.554   8.472  2.6147 -2.4825  4.2030
 1007MOL0     H32902   3.406   1.799   8.495 -2.1607 -2.3098 -1.0461
 1007MOL0     H32903   3.553   1.809   8.400 -1.8133  0.8471  0.7816
 1007MOL0     H32904   3.494   1.597   8.283 -0.0194 -0.2563 -1.0793
 1007MOL0     H32905   3.362   1.718   8.261 -5.3344 -0.9584  3.0399
 1007MOL0     H32906   4.286   1.350   8.536 -3.6959  0.0174  0.8516
 1007MOL0     H32907   4.432   1.159   8.482 -0.1607 -1.7367  0.8971
 1007MOL0     H32908   4.425   0.731   8.282 -0.1111 -3.2726 -0.5267
 1007MOL0     H32909   4.538   0.536   8.212  0.3048 -1.3300  0.9592
 1007MOL0     H32910   6.107   0.538   7.564 -1.4432  1.4546 -1.3649
 1007MOL0     H32911   6.377   0.495   7.617  0.1953 -0.2895 -0.5704
 1007MOL0     H32912   6.865   0.553   7.634  0.7149 -1.3941  1.3314
 1007MOL0     H32913   7.101   0.519   7.566  0.5388 -2.8193  0.8281
 1007MOL0     H32914   7.392   0.399   7.367  1.8436  1.6264  1.2285
 1007MOL0     H32915   7.313   0.450   7.516  0.2601  1.9059  0.5680
 1007MOL0     H32916   7.238   0.667   7.399  0.7848  0.9301  1.6501
 1007MOL0     H32917   7.406   0.638   7.398  0.6475 -0.4745 -0.5322
 1007MOL0     H32918   7.343   0.508   7.161  1.7939 -1.2100  3.2545
 1007MOL0     H32919   7.400   0.676   7.161 -2.9851 -0.2892 -5.1153
 1007MOL0     H32920   7.113   0.602   7.186  1.3730  0.5243  2.9147
 1007MOL0     H32921   7.169   0.769   7.156  0.1730  1.9358 -3.5281
 1007MOL0     H32922   7.138   0.620   6.769  0.9376  1.6846 -1.5497
 1007MOL0     H32923   6.973   0.280   7.230 -2.8212  1.2962 -2.1029
 1007MOL0     H32924   6.737   0.316   7.300 -1.0486 -0.1195  2.2120
 1008MOL0     O32925   5.162  10.598   8.917  0.2453 -0.3336 -0.4983
 1008MOL0     C32926   5.071  10.621   8.830  0.8658  0.6162 -0.5271
 1008MOL0     O32927   4.938  10.643   8.851 -0.3364  0.0830  0.0359
 1008MOL0     C32928   4.891  10.618   8.978  0.6587 -0.1320  0.0148
 1008MOL0     C32929   4.861  10.497   9.025 -0.1592  0.2481 -0.7160
 1008MOL0     C32930   4.797  10.482   9.152  0.3976 -0.1361 -0.5539
 1008MOL0     C32931   4.761  10.594   9.222  0.3644  0.1170 -0.1658
 1008MOL0     O32932   4.687  10.574   9.334  0.4215 -0.0564 -0.7998
 1008MOL0     C32933   4.647  10.678   9.428  0.5890 -0.2606  1.2326
 1008MOL0     C32934   4.632  10.612   9.565  0.3035 -0.1400  0.3182
 1008MOL0     C32935   4.762  10.619   9.642 -0.7700  0.5788  0.0074
 1008MOL0     C32936   4.749  10.638   9.800  0.2158 -0.2307 -0.7950
 1008MOL0     C32937   4.876  10.615   9.880  0.2836  0.5057  0.2019
 1008MOL0     C32938   4.836  10.583  10.018 -0.2239 -1.1092 -0.3235
 1008MOL0     C32939   4.953  10.579  10.114  0.4174  0.3675 -0.2338
 1008MOL0     C32940   4.913  10.615  10.258  0.0480  0.2827 -0.0058
 1008MOL0     N32941   4.835  10.514  10.336  0.6445  0.3143  0.0313
 1008MOL0     C32942   4.758  10.547  10.448 -0.4910  0.3238 -0.5947
 1008MOL0     C32943   4.690  10.431  10.481 -0.9399  0.4296  0.0774
 1008MOL0     C32944   4.628  10.404  10.615 -0.4524  0.1708 -0.1658
 1008MOL0     C32945   4.497  10.477  10.611  0.2511  1.2424 -0.2328
 1008MOL0     C32946   4.393  10.380  10.562  0.4114 -0.2198  0.5529
 1008MOL0     C32947   4.250  10.433  10.568  0.0719  0.1428 -0.2417
 1008MOL0     O32948   4.222  10.497  10.694  0.5352  0.0138  0.0147
 1008MOL0     C32949   4.202  10.631  10.703 -0.4210  0.4387  0.5749
 1008MOL0     C32950   4.227  10.721  10.600 -0.2311  0.2941  0.5030
 1008MOL0     C32951   4.225  10.858  10.623 -0.2847  0.3395  0.4901
 1008MOL0     C32952   4.190  10.908  10.752 -0.0608  0.8813  0.9822
 1008MOL0     C32953   4.188  11.053  10.780 -0.2724 -0.8139 -0.1924
 1008MOL0     O32954   4.189  11.139  10.670 -1.1413  0.7666  0.5466
 1008MOL0     C32955   4.166  11.277  10.673 -0.6798  0.3551 -0.7572
 1008MOL0     C32956   4.242  11.343  10.575  0.1162 -1.0472 -0.6776
 1008MOL0     C32957   4.235  11.478  10.570  0.7120 -0.8153 -0.0952
 1008MOL0     C32958   4.162  11.559  10.658 -0.0893 -0.2725 -0.3043
 1008MOL0     O32959   4.156  11.696  10.647  0.5340 -0.3832  0.2600
 1008MOL0     C32960   4.033  11.741  10.588  0.7948  0.4767  0.0429
 1008MOL0     C32961   4.058  11.828  10.465  0.5337  0.7113 -0.2807
 1008MOL0     C32962   4.156  11.943  10.497 -0.6824 -0.2019 -0.1998
 1008MOL0     C32963   4.198  12.020  10.373 -0.0052 -0.1030 -0.5191
 1008MOL0     C32964   4.249  12.150  10.420  0.1582 -0.4279  0.3216
 1008MOL0     C32965   4.308  12.233  10.302  0.7942 -0.0761  0.4182
 1008MOL0     C32966   4.364  12.360  10.345 -0.4133 -0.0694 -0.2379
 1008MOL0     C32967   4.390  12.449  10.230 -0.5653  0.3683  0.4426
 1008MOL0    Cl32968   4.489  12.361  10.111 -0.0763  0.2808  0.1369
 1008MOL0     C32969   4.088  11.486  10.756  0.6437 -0.2984 -0.7681
 1008MOL0     C32970   4.083  11.349  10.763 -0.0656 -0.5485  1.3318
 1008MOL0     O32971   4.182  11.091  10.894  0.0162 -0.0540  0.6880
 1008MOL0     C32972   4.159  10.818  10.853  0.5208  0.3846  0.0225
 1008MOL0     C32973   4.174  10.681  10.825 -0.7333  0.2891 -0.7072
 1008MOL0     N32974   4.713  10.345  10.379 -0.2309  0.2228  0.4876
 1008MOL0     N32975   4.799  10.387  10.295  0.2819 -0.2472 -0.4166
 1008MOL0     C32976   4.784  10.721   9.168  0.3550  0.7608  0.8621
 1008MOL0     C32977   4.847  10.742   9.045 -0.5326  0.5415  0.5523
 1008MOL0     C32978   5.108  10.636   8.683 -0.0848  0.2876  0.4304
 1008MOL0     C32979   5.011  10.636   8.584 -0.0580 -0.4655 -0.0117
 1008MOL0     C32980   5.041  10.637   8.446  0.8180  0.0838 -0.2353
 1008MOL0     C32981   5.173  10.630   8.411  0.3394 -0.0057 -0.0794
 1008MOL0     O32982   5.216  10.609   8.277  0.5049  0.2294  0.1174
 1008MOL0     C32983   5.116  10.618   8.172  0.6345 -0.8222  0.8828
 1008MOL0     C32984   5.190  10.627   8.027  0.0220 -0.4342 -0.2404
 1008MOL0     C32985   5.262  10.762   8.001  0.7830  0.3806  0.8148
 1008MOL0     C32986   5.316  10.745   7.855 -0.4113  1.0692  0.2427
 1008MOL0     C32987   5.398  10.857   7.826 -0.4904 -0.5827  0.4655
 1008MOL0     C32988   5.462  10.955   7.787  0.4173  0.1566  0.6509
 1008MOL0     C32989   5.268  10.625   8.508 -0.5365 -0.1066  0.2815
 1008MOL0     C32990   5.239  10.614   8.642 -0.0467 -0.0403  0.1209
 1008MOL0     H32991   4.887  10.413   8.961  0.8507  0.7230 -0.9468
 1008MOL0     H32992   4.766  10.391   9.203  0.3357  2.3284  4.4317
 1008MOL0     H32993   4.557  10.722   9.384  0.9628 -1.2818 -0.6639
 1008MOL0     H32994   4.721  10.759   9.419  0.4062 -0.3652 -3.9844
 1008MOL0     H32995   4.594  10.509   9.563 -2.0446  0.6331 -2.9841
 1008MOL0     H32996   4.560  10.679   9.612 -2.7931 -2.3083 -0.9604
 1008MOL0     H32997   4.815  10.706   9.602 -1.1603  0.5352 -0.6166
 1008MOL0     H32998   4.818  10.526   9.626 -0.9568  0.2421  1.2164
 1008MOL0     H32999   4.704  10.731   9.836 -1.1086 -0.6064 -1.4156
 1008MOL0     H33000   4.684  10.555   9.828  3.7117 -2.8952  0.2000
 1008MOL0     H33001   4.926  10.712   9.871 -2.8840  2.2708  0.3181
 1008MOL0     H33002   4.935  10.531   9.841 -0.5459 -1.4392  2.8682
 1008MOL0     H33003   4.798  10.481  10.022 -1.7969 -0.5252  0.4574
 1008MOL0     H33004   4.767  10.659  10.057 -0.6856 -1.4120 -0.5481
 1008MOL0     H33005   5.000  10.482  10.099 -0.5066 -0.1952  0.3708
 1008MOL0     H33006   5.029  10.653  10.086  2.7147 -1.4993  0.7455
 1008MOL0     H33007   4.861  10.711  10.270 -0.2374 -0.0785  2.2246
 1008MOL0     H33008   5.004  10.621  10.320 -1.1228 -2.0119  2.1217
 1008MOL0     H33009   4.760  10.638  10.506 -1.8246 -0.5768  0.9532
 1008MOL0     H33010   4.684  10.443  10.701  2.8793  1.0329 -2.5280
 1008MOL0     H33011   4.620  10.296  10.624  1.2833  0.1587  2.5646
 1008MOL0     H33012   4.504  10.566  10.547 -0.9146  0.4005 -1.5978
 1008MOL0     H33013   4.472  10.512  10.711  0.5016 -2.4526  1.2783
 1008MOL0     H33014   4.425  10.359  10.459  2.2172  3.2683  0.2435
 1008MOL0     H33015   4.381  10.289  10.622 -2.3811  0.6467  1.4568
 1008MOL0     H33016   4.171  10.358  10.552  1.2449 -1.5496  1.5172
 1008MOL0     H33017   4.246  10.494  10.477  0.6680 -1.9899 -1.8067
 1008MOL0     H33018   4.246  10.682  10.501 -3.0699  0.3200 -0.1478
 1008MOL0     H33019   4.248  10.928  10.544 -0.8323 -0.4766 -0.4195
 1008MOL0     H33020   4.287  11.282  10.497  1.9768 -1.9103  0.9687
 1008MOL0     H33021   4.276  11.531  10.485 -0.0548 -0.5409 -0.2921
 1008MOL0     H33022   3.971  11.790  10.664 -0.7576 -1.6407  0.2031
 1008MOL0     H33023   3.970  11.662  10.546  3.5294 -2.3587  0.8698
 1008MOL0     H33024   3.959  11.860  10.430 -0.7189 -1.8534  0.6770
 1008MOL0     H33025   4.110  11.761  10.397  1.1884 -1.1311  1.8984
 1008MOL0     H33026   4.243  11.903  10.550  0.4178  1.2498 -0.8577
 1008MOL0     H33027   4.113  12.013  10.569  2.1444  1.9530 -0.4096
 1008MOL0     H33028   4.281  11.961  10.332  0.2614  1.3766 -2.2554
 1008MOL0     H33029   4.117  12.031  10.300 -0.5600 -0.9806 -0.0467
 1008MOL0     H33030   4.323  12.126  10.496  0.5064 -0.1227  0.0842
 1008MOL0     H33031   4.166  12.210  10.458 -2.4334 -2.2204 -2.0270
 1008MOL0     H33032   4.223  12.255  10.238 -1.1897 -3.8022  1.5199
 1008MOL0     H33033   4.389  12.169  10.266 -0.3329 -2.1098  1.3472
 1008MOL0     H33034   4.303  12.423  10.410  0.1065  0.6454 -0.4245
 1008MOL0     H33035   4.451  12.339  10.408 -2.7029 -1.1058  2.8491
 1008MOL0     H33036   4.452  12.536  10.252  1.1695 -1.3130  2.8671
 1008MOL0     H33037   4.295  12.473  10.183  0.0728 -1.2534 -1.8978
 1008MOL0     H33038   4.038  11.542  10.834 -0.8238 -2.5807  0.0435
 1008MOL0     H33039   4.028  11.302  10.844  0.3057 -2.2382  0.6554
 1008MOL0     H33040   4.155  10.845  10.958 -1.0296 -1.7682  0.5768
 1008MOL0     H33041   4.174  10.599  10.896  1.6392 -1.1738 -2.2511
 1008MOL0     H33042   4.760  10.811   9.224 -1.3126 -0.0122  1.4743
 1008MOL0     H33043   4.854  10.843   9.005 -1.6105  0.1019 -0.8391
 1008MOL0     H33044   4.908  10.641   8.617  0.2594  2.7070  0.8550
 1008MOL0     H33045   4.957  10.655   8.381  0.7162  0.3705 -0.0287
 1008MOL0     H33046   5.037  10.692   8.188 -0.0416 -1.4163  0.3753
 1008MOL0     H33047   5.060  10.524   8.177  0.4156 -0.8057 -0.7138
 1008MOL0     H33048   5.258  10.542   8.015 -2.1650 -2.3518  0.2229
 1008MOL0     H33049   5.117  10.617   7.947  1.7745 -4.1460 -1.6326
 1008MOL0     H33050   5.343  10.788   8.069  0.8590  0.9703  0.5150
 1008MOL0     H33051   5.193  10.847   8.000 -2.1675 -1.8213  2.2167
 1008MOL0     H33052   5.375  10.654   7.866 -1.8550  0.2467  1.5551
 1008MOL0     H33053   5.237  10.732   7.781 -0.9366 -4.3517  1.3577
 1008MOL0     H33054   5.513  11.045   7.761 -1.3656  1.3174  0.9390
 1008MOL0     H33055   5.371  10.609   8.476  0.9101 -1.3817  4.7413
 1008MOL0     H33056   5.311  10.589   8.719  0.7924  2.1436  0.1386
 1009MOL0     O33057   9.202   4.496   5.901 -0.6629 -0.1084 -0.5464
 1009MOL0     C33058   9.144   4.393   5.889 -0.1521  0.4850 -0.2561
 1009MOL0     O33059   9.157   4.286   5.977  0.3699 -0.5052  0.2196
 1009MOL0     C33060   9.246   4.305   6.078  0.9408  0.6454  0.1211
 1009MOL0     C33061   9.370   4.244   6.070 -0.4550 -0.0184  0.4811
 1009MOL0     C33062   9.470   4.266   6.168 -0.0076 -0.0593 -0.3642
 1009MOL0     C33063   9.442   4.354   6.276  0.4703  0.1479  0.3213
 1009MOL0     O33064   9.533   4.391   6.370 -0.7661 -0.3505 -0.0062
 1009MOL0     C33065   9.633   4.299   6.411 -0.8505  0.4896  0.6736
 1009MOL0     C33066   9.582   4.185   6.492 -0.4513  0.0810 -0.3897
 1009MOL0     C33067   9.683   4.077   6.514 -0.2662 -0.0281  0.1815
 1009MOL0     C33068   9.643   3.978   6.630 -0.1038 -0.2053  1.1521
 1009MOL0     C33069   9.737   3.878   6.674 -0.3661  0.1717  0.1577
 1009MOL0     C33070   9.768   3.802   6.551  0.4235 -0.0323  0.2244
 1009MOL0     C33071   9.857   3.682   6.580 -0.0230  0.4708 -0.0062
 1009MOL0     C33072   9.768   3.569   6.624  0.3627  0.6737  0.6872
 1009MOL0     N33073   9.823   3.486   6.730  0.2197 -0.2133 -0.6914
 1009MOL0     C33074   9.925   3.394   6.719 -0.8014  0.5477 -0.1204
 1009MOL0     C33075   9.950   3.356   6.850  0.3954  0.0864 -0.8353
 1009MOL0     C33076  10.055   3.258   6.896  0.7611  0.4582 -0.0581
 1009MOL0     C33077  10.117   3.289   7.033  0.2064 -0.5225  0.0853
 1009MOL0     C33078  10.244   3.204   7.067  0.6565  0.1110  0.3180
 1009MOL0     C33079  10.292   3.216   7.207  0.1493 -0.3920 -0.3102
 1009MOL0     O33080  10.312   3.358   7.237 -0.1760  0.0328  0.6739
 1009MOL0     C33081  10.412   3.434   7.189  1.0132  0.4129 -0.4781
 1009MOL0     C33082  10.512   3.391   7.100 -0.0939 -0.4475  0.7102
 1009MOL0     C33083  10.591   3.483   7.030 -0.1675  0.3131 -0.1867
 1009MOL0     C33084  10.558   3.621   7.041 -0.0950  0.8011  0.1137
 1009MOL0     C33085  10.636   3.719   6.961 -0.5178 -0.4325 -0.1486
 1009MOL0     O33086  10.631   3.720   6.824 -0.7573  0.2303 -0.5720
 1009MOL0     C33087  10.721   3.797   6.752 -0.7881  0.2489 -0.1843
 1009MOL0     C33088  10.686   3.835   6.624  0.2780  1.0004 -0.9040
 1009MOL0     C33089  10.783   3.872   6.527 -0.1774 -0.0557 -0.2710
 1009MOL0     C33090  10.913   3.904   6.565 -0.0799  0.3545 -0.3471
 1009MOL0     O33091  11.002   3.953   6.469 -0.2902  0.7908  0.2357
 1009MOL0     C33092  11.126   3.999   6.522  0.8153 -0.1610  0.2052
 1009MOL0     C33093  11.199   4.071   6.405 -0.6938  0.1709  0.2711
 1009MOL0     C33094  11.155   4.214   6.379 -0.6327  0.8254 -0.1123
 1009MOL0     C33095  11.268   4.299   6.319  0.9126  0.3776 -0.6060
 1009MOL0     C33096  11.210   4.434   6.303  0.2271  0.4809 -0.4545
 1009MOL0     C33097  11.310   4.529   6.230 -0.8414 -0.2666 -0.1880
 1009MOL0     C33098  11.365   4.497   6.082  0.1881  0.6480 -0.6917
 1009MOL0     C33099  11.502   4.462   6.062  0.0648  0.0531 -0.0171
 1009MOL0    Cl33100  11.623   4.586   6.085 -0.2758  0.0562  0.0434
 1009MOL0     C33101  10.953   3.873   6.692  1.1287 -0.7636 -0.9215
 1009MOL0     C33102  10.861   3.824   6.785  0.3403 -0.5414 -0.5652
 1009MOL0     O33103  10.701   3.800   7.033  0.6050 -0.0547  0.7109
 1009MOL0     C33104  10.458   3.661   7.134  0.5700  0.2155  0.9027
 1009MOL0     C33105  10.390   3.570   7.213 -1.0282 -0.0478  0.4754
 1009MOL0     N33106   9.867   3.425   6.937 -0.2965 -0.3016 -0.1342
 1009MOL0     N33107   9.791   3.504   6.863 -0.0608 -0.5767 -0.1016
 1009MOL0     C33108   9.317   4.420   6.284  0.2531  0.7614  0.6193
 1009MOL0     C33109   9.212   4.388   6.192 -0.0061 -0.3404  0.7373
 1009MOL0     C33110   9.044   4.374   5.795 -0.5535  0.0787 -0.3043
 1009MOL0     C33111   9.029   4.242   5.751 -0.1387 -0.4250  0.4130
 1009MOL0     C33112   8.930   4.217   5.650 -0.2363 -0.1060 -0.3163
 1009MOL0     C33113   8.846   4.317   5.610  0.1283 -0.2255 -1.0323
 1009MOL0     O33114   8.736   4.302   5.535 -0.4032 -0.1564  1.1043
 1009MOL0     C33115   8.745   4.359   5.398  0.4142 -1.3663 -0.2329
 1009MOL0     C33116   8.626   4.443   5.361 -0.7275 -0.5392 -0.7477
 1009MOL0     C33117   8.631   4.482   5.211  1.0747 -0.2510  1.0649
 1009MOL0     C33118   8.727   4.604   5.180 -0.3964  0.0405 -0.0103
 1009MOL0     C33119   8.684   4.656   5.053 -0.1018 -0.0659 -0.5216
 1009MOL0     C33120   8.667   4.688   4.941 -0.2541  0.1491  0.3787
 1009MOL0     C33121   8.867   4.447   5.653 -0.4082 -0.1772 -0.9282
 1009MOL0     C33122   8.969   4.476   5.746 -0.2254  0.8127  0.7473
 1009MOL0     H33123   9.396   4.176   5.990 -1.0712 -0.6495  0.8020
 1009MOL0     H33124   9.566   4.219   6.155  0.9745  2.2145 -1.9647
 1009MOL0     H33125   9.707   4.343   6.478  0.0574 -1.0914  0.7576
 1009MOL0     H33126   9.675   4.254   6.321 -2.6459  0.7102 -0.3348
 1009MOL0     H33127   9.494   4.147   6.438 -0.1117  3.2277 -3.5098
 1009MOL0     H33128   9.548   4.227   6.588 -1.1997 -0.4123 -0.4331
 1009MOL0     H33129   9.784   4.107   6.542  0.1362 -1.1561  0.0066
 1009MOL0     H33130   9.685   4.024   6.419 -0.5781 -1.4748  0.9418
 1009MOL0     H33131   9.607   4.044   6.709 -0.7479  0.3840  0.3916
 1009MOL0     H33132   9.558   3.919   6.594 -0.4998 -0.5337  2.5890
 1009MOL0     H33133   9.703   3.815   6.756  1.3071 -3.6945 -1.8696
 1009MOL0     H33134   9.831   3.919   6.712  0.6138 -2.6523  1.0409
 1009MOL0     H33135   9.821   3.870   6.483 -2.2916  1.2552 -0.7678
 1009MOL0     H33136   9.681   3.766   6.496  0.0203  1.2150  0.0094
 1009MOL0     H33137   9.914   3.649   6.493 -1.7925  0.5641 -1.2370
 1009MOL0     H33138   9.926   3.709   6.661  0.6549  0.2671 -0.5053
 1009MOL0     H33139   9.756   3.503   6.538 -0.6579 -0.8941  1.9727
 1009MOL0     H33140   9.666   3.597   6.655 -1.8786 -3.8854 -1.6678
 1009MOL0     H33141   9.976   3.353   6.632  1.1547  0.3119  1.0838
 1009MOL0     H33142  10.135   3.242   6.823  1.6129  0.0459  0.9402
 1009MOL0     H33143  10.005   3.161   6.907  0.3377  0.4260 -1.9841
 1009MOL0     H33144  10.039   3.271   7.107  0.6012 -0.1738  0.5985
 1009MOL0     H33145  10.139   3.396   7.038  1.5395 -0.4940 -3.2851
 1009MOL0     H33146  10.208   3.103   7.043  0.7049  0.0484  0.5100
 1009MOL0     H33147  10.322   3.231   6.995 -0.4657 -0.2843 -1.1233
 1009MOL0     H33148  10.393   3.174   7.209  0.3615  0.1152  1.2085
 1009MOL0     H33149  10.217   3.183   7.279  1.4449 -1.5784  0.5767
 1009MOL0     H33150  10.535   3.285   7.093  0.1034 -0.3042 -3.9816
 1009MOL0     H33151  10.675   3.457   6.967 -1.9201  0.0415 -2.5766
 1009MOL0     H33152  10.586   3.828   6.584  1.2800  0.5568 -3.5347
 1009MOL0     H33153  10.749   3.901   6.429 -0.5576  0.9320  0.1492
 1009MOL0     H33154  11.183   3.912   6.555 -1.9288 -1.2834  2.4185
 1009MOL0     H33155  11.114   4.064   6.609 -0.4050  0.7735 -0.6122
 1009MOL0     H33156  11.192   4.022   6.307  2.1220  0.2653 -0.0753
 1009MOL0     H33157  11.307   4.074   6.422 -0.3883 -3.1655 -0.3729
 1009MOL0     H33158  11.143   4.235   6.486 -0.4618 -1.1472  0.3453
 1009MOL0     H33159  11.061   4.228   6.325 -0.9677 -1.4797 -0.2257
 1009MOL0     H33160  11.350   4.299   6.392  0.4652  0.6652 -0.0979
 1009MOL0     H33161  11.295   4.251   6.225  3.2050  0.4349 -0.0499
 1009MOL0     H33162  11.190   4.466   6.405  1.8175 -0.3830  0.1675
 1009MOL0     H33163  11.121   4.441   6.239  0.8591  2.3436 -1.1884
 1009MOL0     H33164  11.398   4.540   6.293  1.1308 -1.0690 -2.6366
 1009MOL0     H33165  11.262   4.627   6.224 -2.9616 -1.1022  1.7042
 1009MOL0     H33166  11.308   4.412   6.045 -0.8032  0.6883  0.6698
 1009MOL0     H33167  11.346   4.586   6.021 -1.9735  0.2479 -0.6449
 1009MOL0     H33168  11.515   4.427   5.959 -1.6827 -3.0838  0.7039
 1009MOL0     H33169  11.525   4.376   6.126  3.4901  0.9956  0.2113
 1009MOL0     H33170  11.052   3.902   6.724  1.1044  0.6620 -2.0478
 1009MOL0     H33171  10.906   3.795   6.879 -1.7251 -0.2875  0.5581
 1009MOL0     H33172  10.419   3.762   7.129 -2.0476 -0.7722 -1.9909
 1009MOL0     H33173  10.318   3.590   7.292 -1.4824  1.8673 -0.3730
 1009MOL0     H33174   9.305   4.498   6.359  4.0930  1.0517  1.1477
 1009MOL0     H33175   9.110   4.424   6.195  0.0708  0.3151 -2.0905
 1009MOL0     H33176   9.094   4.164   5.791  0.9501 -0.2117 -0.8876
 1009MOL0     H33177   8.905   4.115   5.621  0.6895 -0.1809 -0.9022
 1009MOL0     H33178   8.775   4.272   5.337  3.4607 -0.9183  0.4636
 1009MOL0     H33179   8.826   4.433   5.394 -1.0775  0.3162 -2.9371
 1009MOL0     H33180   8.536   4.385   5.386 -2.1085  1.5488 -0.5550
 1009MOL0     H33181   8.626   4.529   5.430  0.0213 -1.3609  0.3051
 1009MOL0     H33182   8.527   4.509   5.190  1.3833  0.1401 -0.0112
 1009MOL0     H33183   8.653   4.395   5.147 -0.8023  0.4270 -0.5921
 1009MOL0     H33184   8.713   4.684   5.253  2.8956  1.8404 -1.1420
 1009MOL0     H33185   8.831   4.571   5.189 -0.4188  0.0389  0.2666
 1009MOL0     H33186   8.637   4.713   4.841 -0.0321  0.9204  0.4948
 1009MOL0     H33187   8.790   4.521   5.636 -2.0718 -1.1370  1.8631
 1009MOL0     H33188   8.981   4.575   5.788 -2.9927  0.1026  3.5625
 1010MOL0     O33189   9.062   9.631   1.535 -0.8093 -0.4159 -0.6412
 1010MOL0     C33190   8.946   9.653   1.511  0.9114  0.0218  0.8270
 1010MOL0     O33191   8.870   9.771   1.536 -0.2203  0.6744 -0.4768
 1010MOL0     C33192   8.921   9.868   1.620 -0.2562  0.2600 -0.1106
 1010MOL0     C33193   8.984   9.836   1.740  0.5958 -0.7593 -0.1691
 1010MOL0     C33194   9.019   9.933   1.830  0.8418 -0.4410  0.1203
 1010MOL0     C33195   8.985  10.062   1.809 -1.1009 -0.7168  0.1797
 1010MOL0     O33196   9.033  10.156   1.898  0.5681  0.5004 -0.1011
 1010MOL0     C33197   8.944  10.270   1.915  0.6051 -0.1149 -0.0187
 1010MOL0     C33198   8.999  10.319   2.051 -1.4733  0.8548 -0.6681
 1010MOL0     C33199   8.921  10.439   2.100  0.2686  0.0239  0.1091
 1010MOL0     C33200   8.959  10.560   2.021 -1.1259 -0.1303  0.0751
 1010MOL0     C33201   8.867  10.676   2.071  0.2935 -0.6976  0.7271
 1010MOL0     C33202   8.863  10.803   1.988 -1.0042 -0.4815  0.5790
 1010MOL0     C33203   8.781  10.919   2.056  0.4687 -0.2899 -0.0166
 1010MOL0     C33204   8.803  11.053   1.982  0.7436 -0.7001  1.1035
 1010MOL0     N33205   8.705  11.158   1.999  0.9206  0.5150 -0.2085
 1010MOL0     C33206   8.588  11.177   1.929 -0.1299 -0.1145  0.7277
 1010MOL0     C33207   8.522  11.283   1.985 -0.0374 -0.4970 -0.0447
 1010MOL0     C33208   8.380  11.340   1.948 -0.8047  0.0050 -0.1424
 1010MOL0     C33209   8.326  11.277   1.814  0.5637  0.0456 -0.2670
 1010MOL0     C33210   8.222  11.350   1.735  0.3557 -0.0278 -0.1726
 1010MOL0     C33211   8.253  11.499   1.703  0.7865  0.8864 -0.9511
 1010MOL0     O33212   8.383  11.501   1.650  0.5596 -0.8501  0.0728
 1010MOL0     C33213   8.429  11.608   1.580  0.6024 -0.4707 -0.4085
 1010MOL0     C33214   8.534  11.585   1.496  0.1636 -0.1652 -0.1733
 1010MOL0     C33215   8.579  11.688   1.414 -0.2160  0.6194 -0.5502
 1010MOL0     C33216   8.524  11.815   1.414 -0.4728  0.9078 -1.3818
 1010MOL0     C33217   8.582  11.925   1.334 -0.5353 -0.0875  0.7853
 1010MOL0     O33218   8.550  12.055   1.365 -0.3079 -0.4521  0.3005
 1010MOL0     C33219   8.577  12.153   1.269  0.1045  0.4807  0.2338
 1010MOL0     C33220   8.671  12.256   1.301  0.1194  1.4687 -0.8441
 1010MOL0     C33221   8.712  12.344   1.204  0.0763 -0.4596  0.2881
 1010MOL0     C33222   8.661  12.334   1.068  0.2135  0.3787  0.8263
 1010MOL0     O33223   8.725  12.402   0.972  0.5781  0.1635 -0.7548
 1010MOL0     C33224   8.696  12.539   0.984  0.1957  0.0300  0.2937
 1010MOL0     C33225   8.537  12.547   0.958  0.1618 -1.1104 -0.0249
 1010MOL0     C33226   8.499  12.699   0.961  0.4384 -0.2587  1.3471
 1010MOL0     C33227   8.365  12.713   0.906  0.7198  0.1655 -0.0214
 1010MOL0     C33228   8.301  12.852   0.912 -0.6366  0.2247 -0.8826
 1010MOL0     C33229   8.379  12.953   0.842  0.3719 -0.1921  0.7584
 1010MOL0     C33230   8.321  13.085   0.871 -0.5569 -0.2599  0.1713
 1010MOL0     C33231   8.394  13.195   0.786  0.6039 -0.3627 -0.6196
 1010MOL0    Cl33232   8.565  13.223   0.841  0.0203  0.2851  0.0709
 1010MOL0     C33233   8.561  12.236   1.039 -0.2706 -0.1596 -0.0761
 1010MOL0     C33234   8.517  12.146   1.146 -0.5587 -0.3464  0.0692
 1010MOL0     O33235   8.647  11.887   1.236  0.2428  0.0111  0.8518
 1010MOL0     C33236   8.421  11.836   1.513  0.1280 -0.0272 -0.7811
 1010MOL0     C33237   8.368  11.735   1.588  0.0217 -0.4357  0.1341
 1010MOL0     N33238   8.601  11.326   2.091  0.0757  0.2979  0.5426
 1010MOL0     N33239   8.704  11.247   2.099 -0.1417 -0.8110  0.2988
 1010MOL0     C33240   8.910  10.100   1.696  0.5660  1.0569  0.3851
 1010MOL0     C33241   8.885  10.001   1.600 -0.0233  0.4047 -0.1988
 1010MOL0     C33242   8.870   9.543   1.443 -0.2346 -0.1146  0.4509
 1010MOL0     C33243   8.923   9.412   1.421  0.4733  0.0689 -1.1055
 1010MOL0     C33244   8.859   9.318   1.345  0.6486 -0.4155  0.0366
 1010MOL0     C33245   8.735   9.345   1.290  0.0110 -0.0575 -0.0162
 1010MOL0     O33246   8.668   9.258   1.207  0.5101  0.4614 -0.0532
 1010MOL0     C33247   8.723   9.140   1.159  0.7926 -0.1226  0.7778
 1010MOL0     C33248   8.830   9.145   1.048 -0.1597 -0.0512 -0.1858
 1010MOL0     C33249   8.760   9.152   0.911 -0.7887 -0.8776  0.4565
 1010MOL0     C33250   8.873   9.138   0.800  0.4169 -0.0572  0.3902
 1010MOL0     C33251   8.942   9.266   0.794  0.3694 -1.4933 -0.5710
 1010MOL0     C33252   8.995   9.377   0.789 -0.0646 -0.3334 -0.3186
 1010MOL0     C33253   8.674   9.468   1.309  0.7552  0.0971  0.3726
 1010MOL0     C33254   8.747   9.566   1.373 -1.6785 -0.2697  0.3687
 1010MOL0     H33255   8.989   9.730   1.763 -1.8160 -0.9429 -0.2349
 1010MOL0     H33256   9.077   9.920   1.921  1.1117 -1.0143 -0.1257
 1010MOL0     H33257   8.842  10.235   1.932  0.8503  0.1561  2.3965
 1010MOL0     H33258   8.950  10.334   1.826  1.6616 -1.1112 -0.6954
 1010MOL0     H33259   9.108  10.329   2.039 -1.6080  2.1888 -0.8951
 1010MOL0     H33260   8.985  10.233   2.116  3.8802 -2.8301 -3.5434
 1010MOL0     H33261   8.949  10.450   2.205  0.2214 -1.7853  0.3477
 1010MOL0     H33262   8.815  10.410   2.106  0.9583 -2.8897 -0.0572
 1010MOL0     H33263   9.065  10.584   2.034  0.2742 -2.2551 -4.9994
 1010MOL0     H33264   8.939  10.532   1.917  1.3992 -1.8789 -0.0235
 1010MOL0     H33265   8.892  10.701   2.174 -0.8638  3.2954  0.1871
 1010MOL0     H33266   8.771  10.625   2.073  0.5014 -1.4008 -2.2612
 1010MOL0     H33267   8.807  10.777   1.898 -0.0729 -2.3760  0.5019
 1010MOL0     H33268   8.965  10.836   1.965 -1.5555  0.6416 -0.3276
 1010MOL0     H33269   8.677  10.887   2.046  0.7756 -0.9796 -1.0806
 1010MOL0     H33270   8.819  10.930   2.158 -1.2588  2.2037  0.4738
 1010MOL0     H33271   8.808  11.027   1.876 -3.0456 -0.7131  0.7833
 1010MOL0     H33272   8.901  11.093   2.009 -0.0434  0.1076  2.9662
 1010MOL0     H33273   8.556  11.120   1.842 -0.3078 -1.9482  1.9552
 1010MOL0     H33274   8.391  11.447   1.927  1.0557 -0.2418 -0.6706
 1010MOL0     H33275   8.313  11.333   2.034 -1.9583  0.9817 -0.9307
 1010MOL0     H33276   8.294  11.173   1.825 -0.8198  0.3922 -0.6842
 1010MOL0     H33277   8.407  11.273   1.741 -0.0043 -2.9973 -0.8494
 1010MOL0     H33278   8.208  11.291   1.644 -0.8520  2.7690 -1.9211
 1010MOL0     H33279   8.126  11.354   1.788 -0.8536  2.8417 -2.3329
 1010MOL0     H33280   8.226  11.557   1.792 -1.5337 -1.6905  0.1746
 1010MOL0     H33281   8.190  11.548   1.628 -1.4982 -0.0226  0.2932
 1010MOL0     H33282   8.571  11.483   1.494  1.3045  0.2434 -0.7010
 1010MOL0     H33283   8.668  11.649   1.364  1.7402 -0.7898  3.5842
 1010MOL0     H33284   8.713  12.250   1.401  1.4161 -1.6956 -1.4811
 1010MOL0     H33285   8.772  12.431   1.231  2.3883 -1.7764 -0.3658
 1010MOL0     H33286   8.761  12.581   0.907  2.2125 -3.4132 -0.1013
 1010MOL0     H33287   8.726  12.578   1.082  1.7271 -1.4423  0.4553
 1010MOL0     H33288   8.480  12.501   1.039  0.0742  0.7026  0.9960
 1010MOL0     H33289   8.521  12.507   0.858 -2.3737 -1.2118  0.3583
 1010MOL0     H33290   8.566  12.762   0.901 -3.9689  2.2796 -1.4201
 1010MOL0     H33291   8.512  12.740   1.062  2.0796 -0.1971  1.1431
 1010MOL0     H33292   8.380  12.691   0.799 -0.9418 -1.3909  0.0257
 1010MOL0     H33293   8.300  12.640   0.954  1.4575 -0.1953  0.4570
 1010MOL0     H33294   8.302  12.887   1.015  1.0421  0.8659 -1.0891
 1010MOL0     H33295   8.196  12.841   0.881 -1.4735 -1.7319  2.2080
 1010MOL0     H33296   8.385  12.940   0.734  1.8074 -1.6584  0.9798
 1010MOL0     H33297   8.486  12.955   0.863 -0.3312  0.3731  5.2466
 1010MOL0     H33298   8.216  13.103   0.843 -0.3344 -0.1386 -0.6005
 1010MOL0     H33299   8.339  13.104   0.977  0.1242  0.0642 -0.0038
 1010MOL0     H33300   8.336  13.288   0.791 -0.7184 -1.0382 -2.3563
 1010MOL0     H33301   8.398  13.175   0.679  2.1034  2.9667 -1.3130
 1010MOL0     H33302   8.533  12.233   0.934  1.7671 -0.1808 -0.6597
 1010MOL0     H33303   8.440  12.073   1.125  1.7182 -2.9645  0.3461
 1010MOL0     H33304   8.362  11.926   1.530  0.0497  0.0251 -1.3297
 1010MOL0     H33305   8.275  11.755   1.640 -0.4923  1.3670 -1.3749
 1010MOL0     H33306   8.878  10.202   1.676 -1.5509  0.1795 -1.1096
 1010MOL0     H33307   8.811  10.025   1.524 -0.8812 -1.0027  0.1647
 1010MOL0     H33308   9.016   9.383   1.469  0.1504  1.0261  0.1516
 1010MOL0     H33309   8.907   9.223   1.325 -0.0310 -1.6811  3.6705
 1010MOL0     H33310   8.634   9.085   1.128  0.1312  2.3489 -2.3160
 1010MOL0     H33311   8.775   9.090   1.241  3.1975 -0.2961 -0.7317
 1010MOL0     H33312   8.894   9.231   1.074 -1.7673  0.4387  2.5749
 1010MOL0     H33313   8.886   9.052   1.060 -4.6839 -2.9841  0.4495
 1010MOL0     H33314   8.696   9.240   0.907  1.5884  0.9116  0.0822
 1010MOL0     H33315   8.694   9.065   0.899 -2.7491  0.7387 -1.1551
 1010MOL0     H33316   8.942   9.059   0.834  1.4454  1.0519  0.9634
 1010MOL0     H33317   8.816   9.123   0.709  1.2998 -1.8335  0.0812
 1010MOL0     H33318   9.050   9.468   0.802 -2.9415  1.8164 -2.1224
 1010MOL0     H33319   8.571   9.484   1.278  0.5647 -1.3991  0.1340
 1010MOL0     H33320   8.703   9.665   1.372 -0.8909  0.0893 -1.3136
 1011MOL0     O33321   1.534   7.485   1.547 -0.6028  0.0250  0.6924
 1011MOL0     C33322   1.589   7.439   1.648 -0.0251  0.2654  0.2267
 1011MOL0     O33323   1.531   7.434   1.775  0.1432  0.4083 -0.3346
 1011MOL0     C33324   1.398   7.409   1.794 -0.0436  0.1293  0.3963
 1011MOL0     C33325   1.350   7.453   1.918 -0.1790 -0.7486  0.0375
 1011MOL0     C33326   1.215   7.419   1.942  1.0084 -0.5520 -0.1619
 1011MOL0     C33327   1.137   7.347   1.847 -0.6676 -0.4065  0.0910
 1011MOL0     O33328   1.009   7.309   1.876 -0.1461  0.3273 -0.2884
 1011MOL0     C33329   0.927   7.408   1.934 -0.2295  0.3597 -0.4108
 1011MOL0     C33330   0.870   7.508   1.843 -0.2239 -0.0716  0.2456
 1011MOL0     C33331   0.778   7.432   1.736 -0.1247 -0.3313  0.8790
 1011MOL0     C33332   0.647   7.368   1.782  0.8077 -1.0493  0.0063
 1011MOL0     C33333   0.527   7.466   1.764  0.5706 -0.1365 -0.8074
 1011MOL0     C33334   0.397   7.403   1.815  0.2505 -0.9706 -0.0643
 1011MOL0     C33335   0.282   7.502   1.794 -0.2505  0.2210  0.4843
 1011MOL0     C33336   0.144   7.439   1.813  0.1438 -0.2531 -0.2866
 1011MOL0     N33337   0.037   7.530   1.767 -1.0478 -0.5941  0.1930
 1011MOL0     C33338  -0.023   7.608   1.852  1.1578  0.6602 -0.5510
 1011MOL0     C33339  -0.108   7.668   1.768  0.9019  0.7434  0.1557
 1011MOL0     C33340  -0.227   7.766   1.814 -0.1317 -1.2485  0.3828
 1011MOL0     C33341  -0.298   7.842   1.700 -1.1545  0.2677 -0.8457
 1011MOL0     C33342  -0.409   7.939   1.754 -0.3465  0.9106 -0.1760
 1011MOL0     C33343  -0.466   8.015   1.640  0.6498 -0.2969  0.1661
 1011MOL0     O33344  -0.532   7.947   1.538  0.3530  0.6314  0.6411
 1011MOL0     C33345  -0.641   8.008   1.489 -0.4890  0.4117 -0.0314
 1011MOL0     C33346  -0.751   7.928   1.475  0.0784 -0.4046  0.2806
 1011MOL0     C33347  -0.856   7.964   1.403  0.0652 -0.3784 -1.2059
 1011MOL0     C33348  -0.866   8.095   1.337 -0.3130  1.0856 -0.1522
 1011MOL0     C33349  -0.991   8.132   1.274 -0.3481 -0.1154 -0.4682
 1011MOL0     O33350  -1.012   8.266   1.272 -0.2512  0.7902  0.0168
 1011MOL0     C33351  -1.121   8.328   1.221  0.8089 -0.5619  0.0273
 1011MOL0     C33352  -1.181   8.276   1.104  0.4216 -0.6187  0.1746
 1011MOL0     C33353  -1.300   8.335   1.056  0.4779 -0.0337  0.1884
 1011MOL0     C33354  -1.343   8.460   1.101 -0.0409 -0.0399 -0.7501
 1011MOL0     O33355  -1.466   8.504   1.053  0.0468 -0.9864 -0.3155
 1011MOL0     C33356  -1.524   8.622   1.116  0.2851 -0.4106 -0.0242
 1011MOL0     C33357  -1.660   8.660   1.048  0.2327 -1.4202  0.4219
 1011MOL0     C33358  -1.703   8.806   1.076 -0.3918  0.5454  0.5627
 1011MOL0     C33359  -1.823   8.836   0.998  0.6280 -0.1503 -0.2276
 1011MOL0     C33360  -1.875   8.984   1.009 -0.2350 -0.3763  0.2603
 1011MOL0     C33361  -2.015   9.009   0.950 -0.2099  0.7488 -0.5793
 1011MOL0     C33362  -2.085   9.118   1.028  0.3648 -0.0839  0.5911
 1011MOL0     C33363  -2.173   9.067   1.129  0.5765  0.0747  0.0015
 1011MOL0    Cl33364  -2.242   9.194   1.223 -0.3242 -0.1229 -0.1687
 1011MOL0     C33365  -1.271   8.519   1.198 -1.3612 -0.2540 -0.4831
 1011MOL0     C33366  -1.162   8.453   1.259 -0.2942  0.0204  0.4087
 1011MOL0     O33367  -1.064   8.043   1.239 -0.1870 -0.5955 -0.0716
 1011MOL0     C33368  -0.753   8.167   1.342  0.0535 -0.4333  0.4798
 1011MOL0     C33369  -0.642   8.127   1.416 -0.2616 -0.5155 -0.2088
 1011MOL0     N33370  -0.105   7.620   1.636 -0.6021 -0.6900 -0.1796
 1011MOL0     N33371  -0.012   7.528   1.640  0.8324  0.6296  0.1498
 1011MOL0     C33372   1.189   7.311   1.727 -0.5276 -1.0323 -1.1989
 1011MOL0     C33373   1.318   7.358   1.707  0.9854 -0.0551  0.6837
 1011MOL0     C33374   1.729   7.399   1.620 -0.9214  0.6150  0.1755
 1011MOL0     C33375   1.782   7.387   1.493 -0.6151  0.3148 -0.0535
 1011MOL0     C33376   1.919   7.356   1.480 -0.1198  0.1913  0.6622
 1011MOL0     C33377   2.003   7.338   1.586 -0.2555  0.9928 -0.9188
 1011MOL0     O33378   2.132   7.299   1.557 -0.0438 -0.6943 -0.3777
 1011MOL0     C33379   2.171   7.177   1.612  0.8255 -0.0904 -0.0355
 1011MOL0     C33380   2.313   7.181   1.653 -0.9932  0.1310 -0.6721
 1011MOL0     C33381   2.339   7.265   1.773 -0.5727 -0.7171  0.2490
 1011MOL0     C33382   2.316   7.192   1.903 -0.5508  0.3064  0.1887
 1011MOL0     C33383   2.420   7.106   1.962  0.6209 -0.0216  0.4480
 1011MOL0     C33384   2.508   7.029   2.005  0.0521 -0.1628 -0.4414
 1011MOL0     C33385   1.963   7.368   1.716  0.0974  0.3678  0.1778
 1011MOL0     C33386   1.822   7.388   1.730 -1.0472  0.3095 -0.8700
 1011MOL0     H33387   1.420   7.491   1.993 -1.2763 -2.0276  1.8030
 1011MOL0     H33388   1.170   7.454   2.034 -0.0234  2.7903 -1.8029
 1011MOL0     H33389   0.970   7.459   2.022  0.6996 -0.3900 -0.4213
 1011MOL0     H33390   0.845   7.354   1.983  0.5281 -0.3302  0.1255
 1011MOL0     H33391   0.951   7.560   1.791 -2.0910  3.1021  0.1906
 1011MOL0     H33392   0.807   7.580   1.896 -0.2745 -0.1380  0.2754
 1011MOL0     H33393   0.831   7.350   1.687 -2.0804 -1.9691  1.3301
 1011MOL0     H33394   0.764   7.512   1.663  3.6850  1.8083  2.2191
 1011MOL0     H33395   0.625   7.286   1.713 -0.3387  0.8529 -2.0361
 1011MOL0     H33396   0.659   7.342   1.887  2.5239  1.2300  0.4721
 1011MOL0     H33397   0.525   7.501   1.660  0.9218  2.4573 -0.0253
 1011MOL0     H33398   0.546   7.557   1.822  3.9624 -2.4970  2.2761
 1011MOL0     H33399   0.400   7.354   1.912 -1.6883 -4.6967 -1.6746
 1011MOL0     H33400   0.374   7.313   1.758  1.7493 -1.4574  0.0592
 1011MOL0     H33401   0.297   7.583   1.866  0.5215 -1.4840  2.3715
 1011MOL0     H33402   0.294   7.535   1.691  0.6791  1.5139  0.9891
 1011MOL0     H33403   0.127   7.424   1.920  0.1500  1.3750 -0.0351
 1011MOL0     H33404   0.139   7.345   1.757 -0.0213 -0.0195 -0.6659
 1011MOL0     H33405  -0.014   7.616   1.960 -2.3943  0.7319 -0.1312
 1011MOL0     H33406  -0.175   7.834   1.882 -0.8470 -0.8466  0.5394
 1011MOL0     H33407  -0.300   7.712   1.875 -0.2021  0.3505  1.7975
 1011MOL0     H33408  -0.336   7.775   1.623 -0.5511  0.4483 -1.3159
 1011MOL0     H33409  -0.221   7.902   1.650 -0.7990  0.7975  0.2941
 1011MOL0     H33410  -0.484   7.874   1.800  3.8967 -3.7774  1.0015
 1011MOL0     H33411  -0.360   8.000   1.830 -0.7585  1.7266 -0.5517
 1011MOL0     H33412  -0.383   8.060   1.584  2.3585 -1.4839  1.6299
 1011MOL0     H33413  -0.538   8.085   1.682  0.2587  0.6818 -2.0058
 1011MOL0     H33414  -0.756   7.827   1.513 -1.5767  0.1663  1.7223
 1011MOL0     H33415  -0.941   7.898   1.390  1.1243 -1.9422 -0.5784
 1011MOL0     H33416  -1.128   8.200   1.048 -1.3201  0.7108 -3.6093
 1011MOL0     H33417  -1.355   8.289   0.975  0.8373 -0.9864  0.4762
 1011MOL0     H33418  -1.466   8.715   1.117 -2.1206  1.2248  2.7346
 1011MOL0     H33419  -1.541   8.606   1.223  2.0473 -1.1574  0.1741
 1011MOL0     H33420  -1.746   8.594   1.065  0.0427 -0.8650  1.7640
 1011MOL0     H33421  -1.638   8.668   0.941 -0.3321 -1.0382  0.3297
 1011MOL0     H33422  -1.627   8.878   1.044 -0.7371  0.4889 -0.4149
 1011MOL0     H33423  -1.725   8.804   1.183 -1.6258  1.6009  0.3566
 1011MOL0     H33424  -1.804   8.826   0.891  1.7444  2.7284 -0.3997
 1011MOL0     H33425  -1.903   8.769   1.030 -0.3270  1.0699  0.0399
 1011MOL0     H33426  -1.804   9.056   0.968  1.6123 -0.6035  2.8305
 1011MOL0     H33427  -1.867   9.012   1.115  2.1145  2.8995 -0.6252
 1011MOL0     H33428  -2.071   8.915   0.960  1.0011 -0.0546 -1.1678
 1011MOL0     H33429  -2.014   9.035   0.844 -0.6938  0.5430 -0.6355
 1011MOL0     H33430  -2.011   9.187   1.068  0.8182  0.3227 -0.8986
 1011MOL0     H33431  -2.149   9.171   0.957 -1.1434 -2.6662 -0.1211
 1011MOL0     H33432  -2.122   9.000   1.199  0.8091 -0.8930 -1.0757
 1011MOL0     H33433  -2.267   9.019   1.100 -1.2912  2.0185  2.2713
 1011MOL0     H33434  -1.303   8.607   1.253  1.4520  0.8585 -0.4393
 1011MOL0     H33435  -1.111   8.494   1.346 -1.2997  1.7644  0.2390
 1011MOL0     H33436  -0.761   8.263   1.293 -2.3161 -0.9889 -0.3584
 1011MOL0     H33437  -0.556   8.194   1.415 -0.0762 -0.7564 -0.6049
 1011MOL0     H33438   1.131   7.248   1.659 -0.8283 -2.2125  0.1030
 1011MOL0     H33439   1.340   7.331   1.604  2.1607  1.8098  0.3889
 1011MOL0     H33440   1.722   7.389   1.402 -2.1716 -0.6048  0.8986
 1011MOL0     H33441   1.960   7.346   1.380 -0.4216 -0.0249  0.5621
 1011MOL0     H33442   2.166   7.098   1.536 -1.9784 -0.0308  0.0021
 1011MOL0     H33443   2.111   7.148   1.698 -2.7490 -0.4763 -2.4290
 1011MOL0     H33444   2.346   7.086   1.694 -0.7028  0.4813 -0.0782
 1011MOL0     H33445   2.373   7.214   1.567 -0.5329  0.9940 -0.0349
 1011MOL0     H33446   2.277   7.355   1.773 -0.1460 -0.1622  4.8084
 1011MOL0     H33447   2.443   7.299   1.770 -0.4866 -1.0320 -0.3790
 1011MOL0     H33448   2.287   7.271   1.973  1.2947 -0.2584  1.6806
 1011MOL0     H33449   2.227   7.131   1.885 -0.6795  0.9571 -1.6028
 1011MOL0     H33450   2.584   6.961   2.039  1.4970  1.6547  0.1410
 1011MOL0     H33451   2.029   7.376   1.802 -1.4002 -1.6068  1.5942
 1011MOL0     H33452   1.781   7.405   1.829 -0.4151 -2.0130 -0.1677
 1012MOL0     O33453   4.448   1.268   2.565 -0.1857 -0.3236 -0.1964
 1012MOL0     C33454   4.505   1.379   2.583 -0.1088 -0.5789 -0.2005
 1012MOL0     O33455   4.598   1.442   2.496 -0.0518 -0.0491  0.5547
 1012MOL0     C33456   4.641   1.356   2.396  0.0817  0.3944 -0.2565
 1012MOL0     C33457   4.616   1.390   2.260  0.8614  0.5709 -0.2875
 1012MOL0     C33458   4.687   1.322   2.157 -0.6473 -0.6449 -0.0403
 1012MOL0     C33459   4.781   1.227   2.183  0.0176 -0.5605 -1.0872
 1012MOL0     O33460   4.843   1.162   2.077 -0.3665 -0.5240  0.2406
 1012MOL0     C33461   4.980   1.122   2.105 -0.9112 -0.8354 -1.1304
 1012MOL0     C33462   5.058   1.143   1.979 -0.6091  0.2223  0.5806
 1012MOL0     C33463   5.026   1.049   1.862 -0.5128  0.5759 -0.0196
 1012MOL0     C33464   5.126   1.022   1.754 -0.0727  0.1618 -0.4693
 1012MOL0     C33465   5.147   1.143   1.669 -0.4382  0.9669 -0.0983
 1012MOL0     C33466   5.252   1.116   1.560  0.4735 -0.2369 -0.6840
 1012MOL0     C33467   5.279   1.235   1.474 -0.5229  0.5443 -1.4475
 1012MOL0     C33468   5.188   1.245   1.353 -0.0652 -0.6243  0.2748
 1012MOL0     N33469   5.201   1.373   1.273 -0.9325 -0.3826  0.0887
 1012MOL0     C33470   5.307   1.401   1.195 -0.0431 -0.4155  0.4247
 1012MOL0     C33471   5.285   1.521   1.137 -0.7922 -0.3976 -1.1333
 1012MOL0     C33472   5.375   1.605   1.039  0.2301 -0.0899 -0.4058
 1012MOL0     C33473   5.346   1.756   1.041 -0.0905 -0.2791 -0.1760
 1012MOL0     C33474   5.425   1.834   0.933 -0.5350 -1.0345 -0.1241
 1012MOL0     C33475   5.493   1.973   0.954  0.4985 -0.6534 -0.5162
 1012MOL0     O33476   5.387   2.071   0.990 -0.1136 -0.1800  0.7560
 1012MOL0     C33477   5.425   2.200   0.990 -0.7979  0.0143 -0.3281
 1012MOL0     C33478   5.554   2.249   1.013 -0.3705  0.0587 -0.3876
 1012MOL0     C33479   5.579   2.388   1.009  0.3022  0.5513 -0.8278
 1012MOL0     C33480   5.474   2.477   0.983  0.5975  0.4398 -0.2171
 1012MOL0     C33481   5.480   2.620   0.990  0.1453 -0.0601 -0.0251
 1012MOL0     O33482   5.382   2.688   0.935 -0.2682 -0.0388  0.3059
 1012MOL0     C33483   5.388   2.824   0.946 -0.4703 -0.0801 -1.4486
 1012MOL0     C33484   5.355   2.894   1.061  0.5807 -0.3276  0.1115
 1012MOL0     C33485   5.350   3.033   1.063 -0.4735 -0.3195  0.5594
 1012MOL0     C33486   5.364   3.108   0.951 -0.6020  0.8500 -0.2389
 1012MOL0     O33487   5.369   3.244   0.954  0.2923 -0.1795 -0.3292
 1012MOL0     C33488   5.243   3.313   0.947 -0.1233  0.4408  0.0521
 1012MOL0     C33489   5.248   3.428   0.835  1.3075  0.4620  0.2924
 1012MOL0     C33490   5.349   3.540   0.870  0.0569  0.3143  0.9064
 1012MOL0     C33491   5.327   3.672   0.785 -0.3911 -0.2659 -0.1528
 1012MOL0     C33492   5.362   3.635   0.628  0.0285  0.1847  0.2145
 1012MOL0     C33493   5.372   3.760   0.542 -0.7293  0.4255 -0.6040
 1012MOL0     C33494   5.519   3.809   0.550  0.2492  0.8729  0.0507
 1012MOL0     C33495   5.538   3.950   0.499  0.5668 -0.5724 -0.3820
 1012MOL0    Cl33496   5.705   3.962   0.425 -0.0480 -0.1494 -0.5480
 1012MOL0     C33497   5.390   3.041   0.833  0.3120 -0.0343  0.1637
 1012MOL0     C33498   5.393   2.900   0.830 -0.2964 -0.4660 -0.2142
 1012MOL0     O33499   5.579   2.665   1.053  0.1915 -0.4712  0.1450
 1012MOL0     C33500   5.343   2.423   0.956  1.0577  0.6051  0.2895
 1012MOL0     C33501   5.318   2.283   0.972  0.3971  0.2340  0.0458
 1012MOL0     N33502   5.155   1.554   1.168 -0.3233  0.9937 -0.4479
 1012MOL0     N33503   5.105   1.469   1.252 -0.1816  0.5449 -0.1197
 1012MOL0     C33504   4.793   1.180   2.312 -0.0252 -0.1007  0.5079
 1012MOL0     C33505   4.726   1.248   2.411 -0.2886  0.8055  0.1846
 1012MOL0     C33506   4.468   1.465   2.692 -0.1661  0.3939  0.1143
 1012MOL0     C33507   4.366   1.414   2.783 -1.3824  0.9864  0.0705
 1012MOL0     C33508   4.338   1.487   2.901 -0.8787  0.3783  0.9832
 1012MOL0     C33509   4.415   1.607   2.931  0.7896  0.5298 -0.5711
 1012MOL0     O33510   4.411   1.673   3.054  0.3037  0.0843  0.8916
 1012MOL0     C33511   4.332   1.607   3.156 -0.0266 -0.8400  0.9386
 1012MOL0     C33512   4.335   1.684   3.282 -0.4128  1.0986 -0.1189
 1012MOL0     C33513   4.274   1.817   3.276  0.0401 -0.0220  0.4586
 1012MOL0     C33514   4.352   1.928   3.214  0.3492  0.8732  0.2782
 1012MOL0     C33515   4.460   1.968   3.305  0.1129 -0.0140 -0.4627
 1012MOL0     C33516   4.551   2.016   3.372 -0.3139  0.4500  0.2708
 1012MOL0     C33517   4.506   1.658   2.833  0.8511 -0.0031  0.0408
 1012MOL0     C33518   4.528   1.582   2.715 -0.3040 -0.7023 -0.3774
 1012MOL0     H33519   4.547   1.475   2.260 -0.1755 -0.2498 -0.1414
 1012MOL0     H33520   4.667   1.343   2.052  1.0134  0.9677 -0.0790
 1012MOL0     H33521   4.993   1.016   2.132  1.6920 -0.1403  0.8180
 1012MOL0     H33522   5.042   1.189   2.166  0.5809  0.4053 -3.8102
 1012MOL0     H33523   5.165   1.128   1.993 -0.3558  1.3471 -0.0305
 1012MOL0     H33524   5.061   1.251   1.959  1.1765  0.4878  2.0171
 1012MOL0     H33525   4.940   1.090   1.807  0.5481  3.1357  0.1019
 1012MOL0     H33526   5.013   0.950   1.907 -1.3352  0.4649 -0.4748
 1012MOL0     H33527   5.222   0.983   1.790  0.1167  1.8901  1.0418
 1012MOL0     H33528   5.083   0.944   1.691 -1.4854 -0.6376  1.3961
 1012MOL0     H33529   5.181   1.234   1.717 -0.6229  0.5656  0.8082
 1012MOL0     H33530   5.053   1.170   1.618  1.1095  2.1912 -2.4734
 1012MOL0     H33531   5.233   1.019   1.514 -0.0144 -0.0838 -0.8174
 1012MOL0     H33532   5.346   1.093   1.611 -0.1003  0.9600  1.0108
 1012MOL0     H33533   5.259   1.322   1.537 -2.3420 -2.0527  1.8915
 1012MOL0     H33534   5.385   1.237   1.444 -0.2762  1.1215 -0.5803
 1012MOL0     H33535   5.083   1.234   1.380  0.0512  3.0320  2.9114
 1012MOL0     H33536   5.231   1.166   1.291  0.4301  0.3533 -0.6694
 1012MOL0     H33537   5.400   1.350   1.173  1.9844  2.7550  0.9117
 1012MOL0     H33538   5.367   1.564   0.938  3.0460  3.1197 -2.1179
 1012MOL0     H33539   5.481   1.595   1.063  0.2974  1.2932 -0.0785
 1012MOL0     H33540   5.367   1.771   1.147  0.4511 -3.0847  0.1996
 1012MOL0     H33541   5.240   1.768   1.017 -0.2032 -0.8234  0.0268
 1012MOL0     H33542   5.503   1.765   0.900 -0.1113 -0.7711  0.3116
 1012MOL0     H33543   5.356   1.846   0.849  1.3031  1.1830 -1.4515
 1012MOL0     H33544   5.547   1.999   0.863 -2.6372  0.6566 -2.1778
 1012MOL0     H33545   5.561   1.975   1.039 -0.5356 -1.9812  0.3966
 1012MOL0     H33546   5.637   2.182   1.033 -1.1253 -0.3057  1.7816
 1012MOL0     H33547   5.679   2.430   1.016  1.0217 -1.0601 -0.9116
 1012MOL0     H33548   5.330   2.839   1.151  2.7637  1.2310  1.8009
 1012MOL0     H33549   5.312   3.083   1.151  0.3869 -2.6636  2.3520
 1012MOL0     H33550   5.209   3.356   1.041  2.9869  0.9505  1.0641
 1012MOL0     H33551   5.168   3.237   0.925  0.6635 -0.8006  1.5350
 1012MOL0     H33552   5.149   3.475   0.841  2.2614  2.4779  1.0412
 1012MOL0     H33553   5.260   3.384   0.736  0.7003  0.9892 -0.0216
 1012MOL0     H33554   5.450   3.500   0.873 -0.0950 -0.1739 -0.1262
 1012MOL0     H33555   5.324   3.567   0.973 -0.5753 -1.8090  1.3627
 1012MOL0     H33556   5.226   3.715   0.790  1.1353  4.0655 -1.5660
 1012MOL0     H33557   5.402   3.746   0.817  1.1224 -1.1829 -1.4397
 1012MOL0     H33558   5.274   3.580   0.592 -0.0430  0.7685 -0.5247
 1012MOL0     H33559   5.443   3.562   0.620 -1.1799 -1.1368 -0.4785
 1012MOL0     H33560   5.301   3.836   0.573 -3.2912 -2.6214  1.6310
 1012MOL0     H33561   5.349   3.742   0.436 -2.2877  3.0457 -0.7950
 1012MOL0     H33562   5.563   3.793   0.649  1.8435 -1.1632 -0.9175
 1012MOL0     H33563   5.582   3.750   0.483 -0.3680 -0.3084  0.4832
 1012MOL0     H33564   5.542   4.033   0.570  2.0044 -0.7647 -0.2096
 1012MOL0     H33565   5.457   3.973   0.429 -3.0185 -0.2768  3.4743
 1012MOL0     H33566   5.400   3.084   0.734 -0.6848  1.0271  0.5072
 1012MOL0     H33567   5.409   2.844   0.739  1.3269 -0.5081  0.0632
 1012MOL0     H33568   5.253   2.479   0.931  0.8202 -0.0555 -0.4002
 1012MOL0     H33569   5.220   2.243   0.949  1.4017 -1.6895 -1.2016
 1012MOL0     H33570   4.853   1.091   2.328 -0.5082 -0.4000  0.7132
 1012MOL0     H33571   4.738   1.230   2.517 -1.5339 -0.6541  0.1158
 1012MOL0     H33572   4.337   1.310   2.776  0.6877  0.2240  1.7897
 1012MOL0     H33573   4.272   1.439   2.973 -2.7361 -0.8292 -1.3838
 1012MOL0     H33574   4.373   1.506   3.163  0.6637 -0.6040  0.3850
 1012MOL0     H33575   4.235   1.605   3.106  1.0337 -1.5972 -1.2223
 1012MOL0     H33576   4.287   1.620   3.356  2.9801 -0.5568  0.8712
 1012MOL0     H33577   4.439   1.698   3.315  0.0445  1.7328 -1.7416
 1012MOL0     H33578   4.260   1.834   3.383 -0.6543 -0.9550  0.5364
 1012MOL0     H33579   4.174   1.818   3.231  0.1954  3.6086 -0.1132
 1012MOL0     H33580   4.393   1.898   3.117 -3.0971  1.0205 -1.3440
 1012MOL0     H33581   4.286   2.009   3.183 -1.6169 -1.1710 -1.2120
 1012MOL0     H33582   4.623   2.045   3.446 -1.5819  0.3407  1.6003
 1012MOL0     H33583   4.556   1.752   2.857  0.2807  0.4523 -0.4991
 1012MOL0     H33584   4.606   1.634   2.659  0.0093  2.7553  2.8962
 1013MOL0     O33585   0.069   9.407   5.341  0.9604 -1.4660 -0.2839
 1013MOL0     C33586   0.158   9.335   5.315 -0.1023  0.0207 -0.5671
 1013MOL0     O33587   0.257   9.287   5.398  0.0808 -0.3860 -1.1147
 1013MOL0     C33588   0.269   9.305   5.535 -0.1596 -0.0722 -1.0515
 1013MOL0     C33589   0.169   9.354   5.621  0.0459 -0.4069 -0.2547
 1013MOL0     C33590   0.191   9.367   5.760  0.1607 -0.1678  0.5019
 1013MOL0     C33591   0.316   9.332   5.812  0.6552  0.4431 -0.1891
 1013MOL0     O33592   0.322   9.355   5.949 -0.0148  0.3561 -0.6222
 1013MOL0     C33593   0.405   9.267   6.024 -0.3619  0.0712  0.3435
 1013MOL0     C33594   0.374   9.124   6.010 -0.1059  0.7420  0.1603
 1013MOL0     C33595   0.459   9.035   6.110  0.4585 -0.1487  0.4754
 1013MOL0     C33596   0.384   8.913   6.175 -0.4435  0.0997 -0.1036
 1013MOL0     C33597   0.442   8.879   6.310  0.4076  0.4598 -0.1827
 1013MOL0     C33598   0.593   8.854   6.308  0.6678  0.3010  0.2754
 1013MOL0     C33599   0.636   8.759   6.422  0.6362  0.1778 -0.6984
 1013MOL0     C33600   0.791   8.748   6.428 -0.1239  0.1858 -0.3296
 1013MOL0     N33601   0.836   8.641   6.521  0.8715  0.3942  0.1797
 1013MOL0     C33602   0.840   8.507   6.480 -0.3184 -0.4184  0.0514
 1013MOL0     C33603   0.919   8.453   6.577 -0.0724 -0.0375  0.2296
 1013MOL0     C33604   0.953   8.312   6.581 -0.0717 -0.3901 -0.2529
 1013MOL0     C33605   0.854   8.210   6.640  0.0496  0.3496  0.2703
 1013MOL0     C33606   0.729   8.206   6.547 -0.1689 -0.0611 -0.2181
 1013MOL0     C33607   0.654   8.074   6.537  0.4116 -0.3902 -0.0392
 1013MOL0     O33608   0.509   8.106   6.522 -0.2403  0.0617  0.3752
 1013MOL0     C33609   0.429   8.136   6.626  0.4368  0.3572  0.1853
 1013MOL0     C33610   0.299   8.179   6.606 -0.4758  0.8620 -0.0714
 1013MOL0     C33611   0.216   8.205   6.715  0.7109  0.1540 -0.1868
 1013MOL0     C33612   0.258   8.203   6.846 -0.1422  0.4009  0.4514
 1013MOL0     C33613   0.184   8.261   6.951 -0.1071  0.2695 -0.3903
 1013MOL0     O33614   0.247   8.282   7.071  0.6137  0.7557 -0.4318
 1013MOL0     C33615   0.172   8.344   7.177 -0.9191  0.6170  0.4676
 1013MOL0     C33616   0.179   8.281   7.296 -0.2197  0.0205  0.9435
 1013MOL0     C33617   0.139   8.346   7.408  0.5686 -0.1798 -0.6167
 1013MOL0     C33618   0.090   8.475   7.401  0.3444 -0.4922 -0.9044
 1013MOL0     O33619   0.059   8.558   7.512 -0.0647  0.4514 -0.0969
 1013MOL0     C33620   0.080   8.503   7.649  1.3389  0.2443 -0.1091
 1013MOL0     C33621   0.042   8.618   7.737  0.3839 -0.2442 -0.5426
 1013MOL0     C33622  -0.107   8.653   7.708 -0.7985  0.3322 -0.3109
 1013MOL0     C33623  -0.147   8.747   7.822  0.2689  0.6314  0.8808
 1013MOL0     C33624  -0.278   8.828   7.797  0.6378  0.3174  0.1251
 1013MOL0     C33625  -0.295   8.933   7.902  0.1481 -0.0997  0.3792
 1013MOL0     C33626  -0.419   9.011   7.867 -0.6542  0.2581 -0.1885
 1013MOL0     C33627  -0.445   9.127   7.965 -0.1517 -0.0163 -0.2604
 1013MOL0    Cl33628  -0.524   9.024   8.099  0.3220 -0.1349  0.3220
 1013MOL0     C33629   0.075   8.537   7.278  0.9098 -0.4569 -1.1844
 1013MOL0     C33630   0.114   8.471   7.167  0.6705  0.0744 -1.2532
 1013MOL0     O33631   0.072   8.309   6.931 -0.2375  1.1206  0.6084
 1013MOL0     C33632   0.387   8.151   6.874 -0.3859  0.5898 -0.0286
 1013MOL0     C33633   0.472   8.126   6.757  0.9584 -0.4854  0.2233
 1013MOL0     N33634   0.942   8.542   6.676 -0.3437 -0.6084  0.4729
 1013MOL0     N33635   0.885   8.653   6.642 -0.1829  0.9588 -0.3065
 1013MOL0     C33636   0.417   9.288   5.731  0.5144  0.7605 -0.1589
 1013MOL0     C33637   0.397   9.284   5.595 -0.2817  0.4487 -0.0755
 1013MOL0     C33638   0.178   9.278   5.183  0.5966  0.3037  0.9244
 1013MOL0     C33639   0.302   9.255   5.111  0.2842 -1.3969 -0.2128
 1013MOL0     C33640   0.307   9.231   4.969  0.7461 -0.8765 -0.3083
 1013MOL0     C33641   0.186   9.213   4.898 -0.0607  0.7179 -0.1707
 1013MOL0     O33642   0.190   9.185   4.762  0.3665  0.1418  0.4573
 1013MOL0     C33643   0.133   9.052   4.734  0.2183  0.4951 -0.0701
 1013MOL0     C33644   0.059   9.070   4.597  0.0727  0.3533  0.0965
 1013MOL0     C33645   0.034   8.931   4.523 -0.7444  0.4355  0.2018
 1013MOL0     C33646   0.166   8.883   4.453 -0.6449 -0.1777 -0.5445
 1013MOL0     C33647   0.180   8.736   4.438 -0.8071 -0.8547  0.0481
 1013MOL0     C33648   0.177   8.611   4.425 -0.1180  0.3945 -0.3300
 1013MOL0     C33649   0.060   9.231   4.969 -0.1085  0.5579 -0.0249
 1013MOL0     C33650   0.064   9.260   5.107 -0.3811  0.8085 -1.2462
 1013MOL0     H33651   0.072   9.388   5.588 -0.5094 -0.1529  1.5379
 1013MOL0     H33652   0.113   9.401   5.827 -0.3463  0.2756 -0.2964
 1013MOL0     H33653   0.374   9.296   6.125 -1.6597  0.2915 -0.1016
 1013MOL0     H33654   0.509   9.288   5.997 -0.0662 -1.5483  0.1522
 1013MOL0     H33655   0.391   9.086   5.909  1.7032  1.9502 -0.0459
 1013MOL0     H33656   0.269   9.109   6.035  0.6669 -0.6983  2.9179
 1013MOL0     H33657   0.479   9.088   6.204  0.3272 -1.3446  1.2011
 1013MOL0     H33658   0.549   9.001   6.057  1.1385 -0.5270  1.8258
 1013MOL0     H33659   0.279   8.940   6.192  0.1832  1.5387  1.9639
 1013MOL0     H33660   0.394   8.826   6.111 -0.9828 -0.8604  1.0670
 1013MOL0     H33661   0.402   8.785   6.351  1.3893  0.6003  1.1788
 1013MOL0     H33662   0.404   8.959   6.375  1.1695  1.7138 -1.2172
 1013MOL0     H33663   0.638   8.953   6.320  1.5934 -0.0885  0.0862
 1013MOL0     H33664   0.619   8.808   6.212  3.2212  2.1436 -0.0118
 1013MOL0     H33665   0.607   8.784   6.524  2.7390 -1.7731  0.4760
 1013MOL0     H33666   0.604   8.656   6.401 -1.7561  1.4055 -3.9905
 1013MOL0     H33667   0.825   8.846   6.461 -1.1626  1.1343 -1.8915
 1013MOL0     H33668   0.833   8.739   6.327  0.6482 -1.1291  0.0973
 1013MOL0     H33669   0.792   8.464   6.393 -0.4721  2.0187 -1.1638
 1013MOL0     H33670   1.051   8.301   6.628  2.2260  2.1144 -3.9167
 1013MOL0     H33671   0.970   8.284   6.476  1.6683  0.4703 -0.2254
 1013MOL0     H33672   0.815   8.242   6.737 -3.1929  2.4588 -1.5554
 1013MOL0     H33673   0.900   8.111   6.649 -0.2688  0.3993  3.4910
 1013MOL0     H33674   0.667   8.280   6.598  2.4227  1.4473  0.9974
 1013MOL0     H33675   0.741   8.244   6.445 -3.3584 -1.4627 -1.2332
 1013MOL0     H33676   0.679   7.995   6.608 -3.3804  1.2841  3.6154
 1013MOL0     H33677   0.677   8.045   6.434 -1.4159 -1.1033 -0.2813
 1013MOL0     H33678   0.266   8.192   6.503 -4.0822 -2.0908  0.5166
 1013MOL0     H33679   0.118   8.248   6.699 -0.6932 -1.9217  2.1092
 1013MOL0     H33680   0.213   8.178   7.302  1.6160  0.5523  0.2613
 1013MOL0     H33681   0.153   8.294   7.502  1.2781 -0.0299 -0.6334
 1013MOL0     H33682   0.184   8.484   7.677  0.3581 -4.9351  1.0386
 1013MOL0     H33683   0.015   8.416   7.655  1.7307 -0.0285  0.2315
 1013MOL0     H33684   0.115   8.698   7.722  0.5912 -0.2395  0.4052
 1013MOL0     H33685   0.043   8.563   7.832  1.4166  1.3093  0.4008
 1013MOL0     H33686  -0.173   8.566   7.707 -2.1024  1.2954 -0.1927
 1013MOL0     H33687  -0.123   8.699   7.610  4.0334  0.2412 -1.3943
 1013MOL0     H33688  -0.158   8.682   7.909  1.5041  1.2381  1.5191
 1013MOL0     H33689  -0.070   8.821   7.844  1.3833 -0.0138 -0.6381
 1013MOL0     H33690  -0.367   8.765   7.807  0.8235  0.0559  0.1670
 1013MOL0     H33691  -0.282   8.876   7.698 -0.6893 -0.3759 -0.1864
 1013MOL0     H33692  -0.215   9.007   7.891  0.2285 -0.4780 -2.4811
 1013MOL0     H33693  -0.293   8.892   8.003  0.8945  0.6374  0.6743
 1013MOL0     H33694  -0.411   9.055   7.767 -0.9867 -0.8411 -0.7250
 1013MOL0     H33695  -0.508   8.947   7.865 -0.0227 -0.6383 -0.9091
 1013MOL0     H33696  -0.503   9.206   7.916 -0.2700  0.0141 -0.0694
 1013MOL0     H33697  -0.348   9.165   7.997  0.6251 -1.4311 -0.8205
 1013MOL0     H33698   0.028   8.634   7.265  0.7671 -0.5672 -1.5110
 1013MOL0     H33699   0.089   8.506   7.067  2.7735 -0.1802 -1.9238
 1013MOL0     H33700   0.427   8.136   6.973  0.5015  0.0407 -0.4578
 1013MOL0     H33701   0.576   8.099   6.774  1.5560  0.7054 -1.2794
 1013MOL0     H33702   0.521   9.276   5.756  1.0750  2.2664 -1.5351
 1013MOL0     H33703   0.492   9.285   5.543 -1.1388 -1.4076 -1.8027
 1013MOL0     H33704   0.396   9.265   5.165 -0.3184  0.2115  0.6142
 1013MOL0     H33705   0.409   9.222   4.933  0.1683 -0.5921 -2.1010
 1013MOL0     H33706   0.068   9.012   4.812  0.9330  0.2037  0.3934
 1013MOL0     H33707   0.218   8.983   4.737  0.9435  1.2803 -1.5757
 1013MOL0     H33708  -0.042   9.112   4.605 -0.6292 -0.3320 -3.5623
 1013MOL0     H33709   0.110   9.133   4.523 -3.3679  4.4896  0.8840
 1013MOL0     H33710  -0.056   8.923   4.463 -0.9518 -1.3538  0.7030
 1013MOL0     H33711   0.025   8.858   4.605  2.4327 -1.5366 -1.0105
 1013MOL0     H33712   0.185   8.926   4.355  1.2220 -1.0082 -0.6085
 1013MOL0     H33713   0.245   8.919   4.520 -2.4491  2.1958  0.4230
 1013MOL0     H33714   0.158   8.506   4.416 -2.0683  0.5748  1.0335
 1013MOL0     H33715  -0.028   9.224   4.906  0.3458 -0.0782 -0.6022
 1013MOL0     H33716  -0.028   9.298   5.151  0.2037  0.8547 -0.0189
 1014MOL0     O33717  10.408   3.411   2.871 -0.3034 -1.0803  0.4258
 1014MOL0     C33718  10.356   3.344   2.782  0.4534 -0.2047 -0.2147
 1014MOL0     O33719  10.277   3.394   2.682 -0.0639  0.6749  0.4980
 1014MOL0     C33720  10.241   3.525   2.698  0.2440 -0.3557  0.1493
 1014MOL0     C33721  10.157   3.560   2.808  0.2440 -0.6131  0.1788
 1014MOL0     C33722  10.121   3.697   2.825  0.2920 -0.1106 -0.1353
 1014MOL0     C33723  10.133   3.789   2.717  0.7191 -0.5790  1.0329
 1014MOL0     O33724  10.080   3.909   2.708  0.1703 -0.9711 -0.0499
 1014MOL0     C33725  10.083   3.996   2.821 -0.5368 -0.1085 -0.5152
 1014MOL0     C33726  10.078   4.142   2.767  0.5975 -0.6416 -0.3672
 1014MOL0     C33727  10.104   4.228   2.896  0.0477 -0.6426 -0.5471
 1014MOL0     C33728  10.097   4.376   2.871  0.2103  0.0549  0.7871
 1014MOL0     C33729  10.120   4.458   2.996  0.2082 -1.1014 -0.7151
 1014MOL0     C33730  10.024   4.583   3.002 -0.0049 -0.3290 -0.1394
 1014MOL0     C33731  10.070   4.689   3.110 -0.4649  0.9687  0.1760
 1014MOL0     C33732  10.001   4.818   3.094  0.2276 -0.4963 -0.3688
 1014MOL0     N33733   9.853   4.821   3.058 -0.3404 -0.3600  0.3720
 1014MOL0     C33734   9.805   4.855   2.937 -0.5863 -0.7709 -0.0645
 1014MOL0     C33735   9.672   4.859   2.960 -0.4526 -1.0852 -0.0435
 1014MOL0     C33736   9.554   4.871   2.862 -0.2981  0.3507 -0.1109
 1014MOL0     C33737   9.490   5.010   2.877 -0.0780  0.2737 -0.1518
 1014MOL0     C33738   9.577   5.120   2.813 -0.0835 -0.0517  0.4309
 1014MOL0     C33739   9.690   5.180   2.898  0.4165 -0.9677  0.1374
 1014MOL0     O33740   9.800   5.209   2.817  0.6917 -0.3148 -0.0835
 1014MOL0     C33741   9.927   5.214   2.875  0.2788 -0.1753 -0.2266
 1014MOL0     C33742   9.939   5.241   3.014 -0.1445 -1.0553 -0.0580
 1014MOL0     C33743  10.066   5.248   3.083  0.7545  0.4491 -0.7033
 1014MOL0     C33744  10.179   5.218   3.013 -0.3137 -0.7621 -0.8123
 1014MOL0     C33745  10.312   5.205   3.071  0.5130 -0.0297  0.1273
 1014MOL0     O33746  10.326   5.235   3.203  0.4405 -0.1556  0.3608
 1014MOL0     C33747  10.450   5.247   3.248 -0.4568 -0.2814  0.4150
 1014MOL0     C33748  10.534   5.141   3.267  1.0042  0.0932 -0.4501
 1014MOL0     C33749  10.656   5.166   3.333  0.1758  0.6147  0.1040
 1014MOL0     C33750  10.695   5.296   3.384  0.5953 -0.2342  0.3339
 1014MOL0     O33751  10.804   5.322   3.456  0.3809  0.5406 -0.6482
 1014MOL0     C33752  10.886   5.220   3.510  0.4703 -0.1718 -0.1564
 1014MOL0     C33753  11.012   5.294   3.568 -0.0655  0.4279  0.6362
 1014MOL0     C33754  10.976   5.386   3.684  0.1005  0.7822  0.5759
 1014MOL0     C33755  11.113   5.421   3.749  0.3850  0.0766  0.5382
 1014MOL0     C33756  11.097   5.526   3.856  0.4125 -0.9010  0.1113
 1014MOL0     C33757  11.215   5.560   3.951 -1.1498  0.5489  0.4095
 1014MOL0     C33758  11.252   5.445   4.041 -0.4644 -0.7166 -0.4682
 1014MOL0     C33759  11.353   5.472   4.156 -0.5549  0.9668  0.5763
 1014MOL0    Cl33760  11.273   5.595   4.255  0.0075  0.0572  0.2935
 1014MOL0     C33761  10.607   5.403   3.374 -0.0597  0.3620  1.3093
 1014MOL0     C33762  10.484   5.377   3.300  0.2277 -0.5027 -0.4553
 1014MOL0     O33763  10.401   5.192   2.990 -0.4638 -0.0456  0.0465
 1014MOL0     C33764  10.167   5.192   2.871  0.4669 -1.1846  0.1633
 1014MOL0     C33765  10.046   5.187   2.812 -0.0384 -1.3871  0.2878
 1014MOL0     N33766   9.650   4.829   3.095  0.6336 -0.3353  0.4702
 1014MOL0     N33767   9.759   4.812   3.151 -0.3545  0.4908  0.4450
 1014MOL0     C33768  10.200   3.745   2.599  0.1705 -0.5273 -0.2324
 1014MOL0     C33769  10.271   3.619   2.598 -0.3095  0.5693  0.5175
 1014MOL0     C33770  10.409   3.210   2.770 -0.3325 -0.5400 -0.4695
 1014MOL0     C33771  10.504   3.158   2.861  0.9405  0.2879 -0.6348
 1014MOL0     C33772  10.557   3.026   2.849  0.7153 -0.4740  0.9832
 1014MOL0     C33773  10.513   2.938   2.747 -0.3534 -1.2498 -0.5135
 1014MOL0     O33774  10.556   2.812   2.748  0.2389  0.0569 -0.0797
 1014MOL0     C33775  10.540   2.742   2.617  0.7761  0.4571  0.5247
 1014MOL0     C33776  10.625   2.615   2.636 -0.6942  0.2283  0.1298
 1014MOL0     C33777  10.543   2.510   2.705 -0.4026  0.0965 -0.8219
 1014MOL0     C33778  10.634   2.400   2.766 -0.0239  0.5222  0.1206
 1014MOL0     C33779  10.610   2.274   2.691 -0.8566 -0.7450 -0.3409
 1014MOL0     C33780  10.623   2.157   2.651  0.3405  0.7219  0.9307
 1014MOL0     C33781  10.424   2.995   2.659  0.3408 -0.7490 -0.4272
 1014MOL0     C33782  10.363   3.118   2.672 -0.8351  0.7203  0.5837
 1014MOL0     H33783  10.146   3.497   2.896 -0.8854  2.1961  2.1857
 1014MOL0     H33784  10.058   3.729   2.907 -2.7928 -0.2141 -2.2912
 1014MOL0     H33785  10.177   3.981   2.875  1.1186 -1.3284 -3.5190
 1014MOL0     H33786  10.003   3.974   2.891  0.4545  0.9780  1.0288
 1014MOL0     H33787   9.981   4.172   2.726 -0.2336 -4.0687 -1.2370
 1014MOL0     H33788  10.155   4.163   2.692  0.2819  1.4073 -0.1561
 1014MOL0     H33789  10.202   4.210   2.941 -1.2506 -0.0062  2.7809
 1014MOL0     H33790  10.035   4.195   2.973  2.9075 -0.5303  2.2637
 1014MOL0     H33791  10.172   4.406   2.798  1.7806  1.7931  2.9494
 1014MOL0     H33792  10.000   4.391   2.823 -0.0627  4.7268  2.3084
 1014MOL0     H33793  10.225   4.485   3.003 -0.0459  0.3184 -1.8902
 1014MOL0     H33794  10.110   4.397   3.086 -1.0023 -0.0419 -0.0905
 1014MOL0     H33795   9.922   4.547   3.008  0.4426 -1.4957  0.7629
 1014MOL0     H33796  10.036   4.628   2.902 -2.0633 -0.8386 -0.6544
 1014MOL0     H33797  10.041   4.638   3.203  0.9442  1.5963  0.9982
 1014MOL0     H33798  10.179   4.703   3.116 -0.6332  1.9071  1.8479
 1014MOL0     H33799  10.068   4.861   3.020  2.8940 -3.5966  0.0039
 1014MOL0     H33800  10.016   4.877   3.185  0.4734 -1.8027  0.4662
 1014MOL0     H33801   9.862   4.883   2.849 -1.0071 -0.5399 -0.2711
 1014MOL0     H33802   9.477   4.800   2.894  0.4396 -0.2707  0.3075
 1014MOL0     H33803   9.584   4.851   2.759  2.3242 -1.7045  0.9461
 1014MOL0     H33804   9.462   5.036   2.979 -2.9460  2.2994 -1.3157
 1014MOL0     H33805   9.395   5.005   2.822  0.1499  0.9619 -0.6129
 1014MOL0     H33806   9.618   5.090   2.716  1.2244 -2.3234  1.5865
 1014MOL0     H33807   9.515   5.205   2.782  2.4260  1.9036  0.5090
 1014MOL0     H33808   9.710   5.098   2.967 -1.3236 -0.6748  1.0362
 1014MOL0     H33809   9.660   5.264   2.962  3.7317 -0.1589  0.8219
 1014MOL0     H33810   9.852   5.256   3.076  1.5255 -2.3884  2.8193
 1014MOL0     H33811  10.055   5.274   3.188  2.5844  1.8347 -0.8079
 1014MOL0     H33812  10.508   5.038   3.246 -0.8948  0.5088 -0.3122
 1014MOL0     H33813  10.710   5.072   3.341  1.3534  1.2192 -0.4121
 1014MOL0     H33814  10.910   5.146   3.432 -2.7881 -2.0443  0.4123
 1014MOL0     H33815  10.838   5.170   3.594  2.2686  1.6461  2.0667
 1014MOL0     H33816  11.059   5.346   3.484  1.3816 -0.5695  0.8006
 1014MOL0     H33817  11.076   5.214   3.607  1.9916  0.6714 -1.9212
 1014MOL0     H33818  10.927   5.321   3.757  1.2361 -2.3963 -1.2941
 1014MOL0     H33819  10.919   5.471   3.645 -2.2680 -1.2346 -0.6700
 1014MOL0     H33820  11.156   5.328   3.786  0.3262 -0.1904 -0.0385
 1014MOL0     H33821  11.180   5.460   3.671 -0.7039 -0.7021 -0.8326
 1014MOL0     H33822  11.005   5.505   3.911  1.1387 -1.3781  1.1717
 1014MOL0     H33823  11.066   5.611   3.795  1.6379 -2.1863 -2.4806
 1014MOL0     H33824  11.198   5.657   3.997  0.3849  2.0983 -2.0676
 1014MOL0     H33825  11.300   5.571   3.883  1.3566  0.4609  3.3047
 1014MOL0     H33826  11.155   5.416   4.082  1.1738 -2.1665  2.7650
 1014MOL0     H33827  11.292   5.359   3.987 -2.3760 -2.6276  1.0375
 1014MOL0     H33828  11.447   5.508   4.112 -0.4095 -1.0184 -0.8516
 1014MOL0     H33829  11.373   5.383   4.217 -0.4013  1.2022  0.8741
 1014MOL0     H33830  10.636   5.501   3.412  1.5420 -0.3432  2.0446
 1014MOL0     H33831  10.422   5.467   3.298  1.0827  0.2432  2.0636
 1014MOL0     H33832  10.250   5.163   2.806 -0.5436 -0.9679 -1.2663
 1014MOL0     H33833  10.037   5.162   2.707  0.0383  1.8976 -0.6308
 1014MOL0     H33834  10.216   3.806   2.511 -1.0342  1.4035  0.8064
 1014MOL0     H33835  10.338   3.583   2.520 -0.6868  1.1540 -0.0892
 1014MOL0     H33836  10.530   3.215   2.949 -3.1901  3.2309 -1.0381
 1014MOL0     H33837  10.627   2.970   2.911  0.7626 -3.4736 -1.5384
 1014MOL0     H33838  10.572   2.793   2.525 -2.7689 -1.3489 -1.9479
 1014MOL0     H33839  10.437   2.709   2.601  0.2068  1.3684  2.0922
 1014MOL0     H33840  10.651   2.580   2.536 -0.7327 -1.1076  0.5767
 1014MOL0     H33841  10.717   2.640   2.689  1.4212 -0.3917 -3.0299
 1014MOL0     H33842  10.470   2.471   2.634 -0.9735  2.9641 -1.9725
 1014MOL0     H33843  10.489   2.551   2.790 -0.9004  0.6869 -1.4065
 1014MOL0     H33844  10.740   2.427   2.770  0.0608  0.7360 -2.0246
 1014MOL0     H33845  10.604   2.387   2.870  0.0102  0.9224  0.1815
 1014MOL0     H33846  10.626   2.054   2.620  0.7666  1.0877 -0.3183
 1014MOL0     H33847  10.388   2.929   2.580 -2.9309 -0.4041  0.5922
 1014MOL0     H33848  10.285   3.143   2.601 -0.1255  3.6500  0.7294
 1015MOL0     O33849   8.777   2.204   9.829  0.0324 -0.3537  0.1101
 1015MOL0     C33850   8.876   2.250   9.770 -0.2394  0.2208  0.7616
 1015MOL0     O33851   8.876   2.355   9.685  0.2312 -0.2285 -0.0664
 1015MOL0     C33852   8.760   2.393   9.625 -0.7864 -0.0507  0.7583
 1015MOL0     C33853   8.689   2.300   9.536 -0.3971 -0.6227 -0.2059
 1015MOL0     C33854   8.573   2.334   9.462 -0.3192 -0.1375  0.6368
 1015MOL0     C33855   8.540   2.471   9.460 -0.1788 -0.8548 -0.6246
 1015MOL0     O33856   8.449   2.515   9.367 -0.4047  0.5289 -1.2074
 1015MOL0     C33857   8.333   2.585   9.423 -0.4395 -1.7921 -0.3252
 1015MOL0     C33858   8.203   2.510   9.426  0.0433 -0.0817 -0.1588
 1015MOL0     C33859   8.172   2.419   9.551  0.5067  0.3824  0.0513
 1015MOL0     C33860   8.133   2.508   9.677 -0.3609 -0.2459  0.4217
 1015MOL0     C33861   8.113   2.419   9.802 -0.7623  0.5882 -0.1235
 1015MOL0     C33862   7.970   2.374   9.809  0.1600  0.1863 -0.5009
 1015MOL0     C33863   7.945   2.299   9.939 -0.0903  0.0995  0.0104
 1015MOL0     C33864   7.803   2.242   9.948  1.3872 -0.2549 -0.4942
 1015MOL0     N33865   7.791   2.107   9.880 -0.3617 -0.4889 -0.1031
 1015MOL0     C33866   7.773   1.983   9.946  1.1123 -0.3526  0.0367
 1015MOL0     C33867   7.720   1.898   9.858  0.3070 -1.0916  0.3771
 1015MOL0     C33868   7.675   1.761   9.888 -0.2415 -0.1843 -0.2694
 1015MOL0     C33869   7.549   1.728   9.811  0.4009 -0.3435  0.0864
 1015MOL0     C33870   7.571   1.682   9.669  0.1263 -0.9533 -0.3941
 1015MOL0     C33871   7.448   1.647   9.584 -0.1051  0.0212  0.7286
 1015MOL0     O33872   7.399   1.514   9.613 -0.2892  0.5710 -0.4025
 1015MOL0     C33873   7.299   1.458   9.542 -0.7703 -0.9729 -0.8245
 1015MOL0     C33874   7.180   1.531   9.509 -0.9208 -0.3958 -0.4138
 1015MOL0     C33875   7.070   1.469   9.444 -0.5430  0.8417  0.6424
 1015MOL0     C33876   7.083   1.329   9.415  0.0923  0.3369  0.0476
 1015MOL0     C33877   6.973   1.252   9.357 -1.3719  0.1497 -0.3016
 1015MOL0     O33878   6.975   1.119   9.347  0.6442  0.6757  0.4550
 1015MOL0     C33879   6.867   1.029   9.315 -0.3681 -0.2932 -1.4238
 1015MOL0     C33880   6.886   0.892   9.333  0.1366  0.5075  0.1905
 1015MOL0     C33881   6.784   0.796   9.317 -0.3567  0.1391 -1.1017
 1015MOL0     C33882   6.654   0.837   9.283  0.5404 -0.1291 -0.5159
 1015MOL0     O33883   6.552   0.746   9.262 -0.7199  0.7465  0.3478
 1015MOL0     C33884   6.438   0.785   9.198  1.2815 -0.5994  0.2224
 1015MOL0     C33885   6.465   0.831   9.049  0.2692  0.8727 -0.5839
 1015MOL0     C33886   6.332   0.841   8.971  0.2285 -0.4906  0.0542
 1015MOL0     C33887   6.358   0.879   8.824  1.0758  0.0166  0.0355
 1015MOL0     C33888   6.221   0.884   8.733 -0.9586 -0.4171 -0.2730
 1015MOL0     C33889   6.233   0.970   8.602  0.3158 -0.2208 -0.4969
 1015MOL0     C33890   6.110   0.942   8.523  0.8903 -0.0212 -1.1971
 1015MOL0     C33891   6.133   1.005   8.383 -0.6433  0.2232  0.0009
 1015MOL0    Cl33892   5.971   0.993   8.290  0.5332  0.0962 -0.4525
 1015MOL0     C33893   6.633   0.979   9.283  0.0261  1.0712 -0.3547
 1015MOL0     C33894   6.733   1.067   9.304  0.0178 -0.0678  0.4578
 1015MOL0     O33895   6.884   1.322   9.321  0.4994 -0.2502  0.6113
 1015MOL0     C33896   7.201   1.257   9.449 -0.1627  0.1988  0.6951
 1015MOL0     C33897   7.305   1.324   9.509  0.0640  0.3882 -0.2497
 1015MOL0     N33898   7.692   1.975   9.745 -0.2311 -0.6992 -0.1561
 1015MOL0     N33899   7.739   2.099   9.760  0.6086  0.3334  0.3402
 1015MOL0     C33900   8.599   2.564   9.550  0.4995  0.3782 -1.2318
 1015MOL0     C33901   8.709   2.523   9.628 -0.6413 -0.0278  0.0431
 1015MOL0     C33902   8.997   2.172   9.797 -0.9467 -0.9394 -0.2154
 1015MOL0     C33903   9.128   2.209   9.768  1.1655 -0.1883 -0.9508
 1015MOL0     C33904   9.242   2.125   9.799 -0.1221  0.7305  0.6769
 1015MOL0     C33905   9.226   2.005   9.866 -0.5657  0.5969  0.0951
 1015MOL0     O33906   9.340   1.942   9.909 -0.5091 -0.5961  0.4477
 1015MOL0     C33907   9.337   1.803   9.931  0.6308  0.2346  0.1462
 1015MOL0     C33908   9.358   1.756  10.070  0.8592 -0.4922  0.7206
 1015MOL0     C33909   9.215   1.757  10.144 -0.5599 -0.7250  0.3276
 1015MOL0     C33910   9.229   1.715  10.297 -0.2603 -0.6678  0.5018
 1015MOL0     C33911   9.099   1.718  10.353 -0.9996  0.1166 -1.0405
 1015MOL0     C33912   8.990   1.712  10.402  0.0618  0.6795  0.0515
 1015MOL0     C33913   9.094   1.962   9.893 -0.2681 -0.5874 -0.2362
 1015MOL0     C33914   8.984   2.043   9.857  0.2368 -0.1886 -0.7143
 1015MOL0     H33915   8.724   2.199   9.520 -0.1433 -0.2289 -2.4847
 1015MOL0     H33916   8.517   2.258   9.409 -2.4153  1.5032  0.3510
 1015MOL0     H33917   8.315   2.665   9.351 -0.0532 -0.5008  0.9715
 1015MOL0     H33918   8.346   2.637   9.519 -0.4894 -2.6662  0.1631
 1015MOL0     H33919   8.203   2.434   9.348  4.3871 -3.6246  2.8042
 1015MOL0     H33920   8.122   2.582   9.409 -1.0762 -0.6130  2.3064
 1015MOL0     H33921   8.261   2.359   9.572  1.9045  1.9498 -1.1532
 1015MOL0     H33922   8.084   2.361   9.521  0.9169 -0.2683  0.0778
 1015MOL0     H33923   8.219   2.572   9.696 -0.5310  0.8259 -1.9874
 1015MOL0     H33924   8.051   2.578   9.661  2.4381  2.8873 -1.5825
 1015MOL0     H33925   8.141   2.477   9.890 -1.6615 -0.4569  0.8824
 1015MOL0     H33926   8.179   2.333   9.795 -0.4457  0.8475 -0.3624
 1015MOL0     H33927   7.948   2.309   9.723  0.5930  0.7411 -1.0429
 1015MOL0     H33928   7.908   2.464   9.808 -0.5171 -0.1971 -3.7215
 1015MOL0     H33929   8.019   2.218   9.944 -1.3132 -0.9469  3.6864
 1015MOL0     H33930   7.960   2.369  10.021  1.2277  2.2320 -1.9276
 1015MOL0     H33931   7.729   2.313   9.909  0.9549 -1.1030 -1.2576
 1015MOL0     H33932   7.787   2.230  10.056  3.4554  2.6691  0.2757
 1015MOL0     H33933   7.791   1.952  10.049 -2.1389 -0.4456  0.6772
 1015MOL0     H33934   7.650   1.754   9.994 -0.0262  2.0012 -0.0343
 1015MOL0     H33935   7.757   1.691   9.872 -0.1946 -0.4920  1.1613
 1015MOL0     H33936   7.490   1.817   9.788 -1.4239 -1.5206  0.0030
 1015MOL0     H33937   7.486   1.654   9.861 -4.0663  0.2825 -3.9328
 1015MOL0     H33938   7.620   1.761   9.611  0.4010 -2.1815 -1.9005
 1015MOL0     H33939   7.635   1.595   9.678  1.5574  0.1961  1.1248
 1015MOL0     H33940   7.479   1.665   9.480 -0.9917  2.4900  0.8338
 1015MOL0     H33941   7.367   1.717   9.607  1.5331  2.1015  0.4943
 1015MOL0     H33942   7.188   1.638   9.524  1.1343 -0.2631 -1.9695
 1015MOL0     H33943   6.973   1.515   9.428 -0.9445 -0.1963 -0.0456
 1015MOL0     H33944   6.988   0.856   9.348  0.2758  0.7224 -0.1996
 1015MOL0     H33945   6.810   0.691   9.319  0.4261  0.3291 -1.0538
 1015MOL0     H33946   6.392   0.867   9.253 -3.1891 -2.9151  0.4164
 1015MOL0     H33947   6.378   0.694   9.205  1.7228 -1.1494 -2.0692
 1015MOL0     H33948   6.532   0.753   9.013  1.4622  0.9176  1.3835
 1015MOL0     H33949   6.526   0.922   9.053  3.8879 -1.3732  0.9443
 1015MOL0     H33950   6.278   0.917   9.027  1.5637 -0.1409  0.9131
 1015MOL0     H33951   6.270   0.750   8.971 -2.7084  1.3672  0.2647
 1015MOL0     H33952   6.403   0.979   8.823 -0.9139  1.0534 -2.7647
 1015MOL0     H33953   6.427   0.803   8.786  1.4403 -0.3077  1.3158
 1015MOL0     H33954   6.151   0.932   8.802  0.4734 -1.6057  2.1560
 1015MOL0     H33955   6.194   0.779   8.717  4.1670 -2.3805  1.8268
 1015MOL0     H33956   6.328   0.947   8.551  0.7491  0.5511 -0.0496
 1015MOL0     H33957   6.229   1.075   8.632 -0.3680 -0.5564  0.6506
 1015MOL0     H33958   6.083   0.836   8.510  1.0050 -0.0773 -0.9870
 1015MOL0     H33959   6.020   0.984   8.569 -0.0374  0.6824 -3.5039
 1015MOL0     H33960   6.212   0.959   8.322  0.1953  1.3960  0.1653
 1015MOL0     H33961   6.164   1.109   8.395  0.6338 -0.1505  0.1058
 1015MOL0     H33962   6.535   1.021   9.262 -0.1933  0.4910 -0.5090
 1015MOL0     H33963   6.698   1.169   9.292 -0.2424 -0.1842  0.2094
 1015MOL0     H33964   7.208   1.152   9.421  0.8851  0.6159 -0.7322
 1015MOL0     H33965   7.394   1.274   9.545  0.5414  1.1018 -0.4029
 1015MOL0     H33966   8.561   2.665   9.545 -1.1071 -0.2013 -1.3513
 1015MOL0     H33967   8.757   2.594   9.695  1.0425 -0.6903 -0.3924
 1015MOL0     H33968   9.134   2.303   9.713  1.2417  1.4352  1.6324
 1015MOL0     H33969   9.335   2.178   9.777  0.5359  1.1074  3.8424
 1015MOL0     H33970   9.415   1.753   9.874  1.5748  2.5297 -0.6956
 1015MOL0     H33971   9.242   1.764   9.893 -1.5863  2.4949  2.9189
 1015MOL0     H33972   9.392   1.652  10.076  2.4442 -0.0251  0.4553
 1015MOL0     H33973   9.426   1.821  10.126 -0.6493  0.8110  1.1033
 1015MOL0     H33974   9.145   1.685  10.101  0.0362 -0.2847 -1.4724
 1015MOL0     H33975   9.173   1.856  10.122 -1.8979 -1.6603 -1.6352
 1015MOL0     H33976   9.269   1.614  10.309 -1.3122 -0.7735  5.2268
 1015MOL0     H33977   9.283   1.784  10.363  0.9124 -1.2991  0.2254
 1015MOL0     H33978   8.892   1.721  10.445 -1.0939 -1.2178 -1.9489
 1015MOL0     H33979   9.068   1.864   9.931  0.5023 -1.4323 -1.8033
 1015MOL0     H33980   8.883   2.011   9.882  0.0398  2.8538  3.3427
 1016MOL0     O33981   2.323   1.035   2.328  0.0345  0.5747 -0.1234
 1016MOL0     C33982   2.234   1.108   2.364  0.8543 -0.5751 -0.3368
 1016MOL0     O33983   2.135   1.152   2.277  0.7496  0.4224 -0.6306
 1016MOL0     C33984   2.133   1.095   2.153  0.0160  0.3275  0.4068
 1016MOL0     C33985   2.161   1.176   2.040 -0.2903  0.5105 -0.1437
 1016MOL0     C33986   2.148   1.109   1.913 -0.3046 -0.4734  0.5580
 1016MOL0     C33987   2.116   0.976   1.887 -0.4379 -1.3393 -0.5417
 1016MOL0     O33988   2.120   0.925   1.764  0.2347 -0.9446 -0.0871
 1016MOL0     C33989   2.083   0.780   1.746  0.1433  1.0494 -0.2768
 1016MOL0     C33990   2.101   0.741   1.599  0.9858 -0.5302  0.1832
 1016MOL0     C33991   2.241   0.749   1.533 -0.7823 -0.1312 -0.1907
 1016MOL0     C33992   2.342   0.706   1.640 -0.3381  0.2897 -1.0761
 1016MOL0     C33993   2.486   0.690   1.586  0.5907 -1.1978 -0.6051
 1016MOL0     C33994   2.581   0.657   1.701 -0.9037 -0.7730  0.3461
 1016MOL0     C33995   2.610   0.787   1.784 -0.1123  0.3134 -0.4701
 1016MOL0     C33996   2.628   0.758   1.938 -0.3992 -0.0467 -1.0282
 1016MOL0     N33997   2.634   0.882   2.017 -0.2754 -0.9148  1.2175
 1016MOL0     C33998   2.530   0.972   2.039  0.3219 -0.8903 -0.2048
 1016MOL0     C33999   2.585   1.102   2.055  0.1874  0.5942 -0.0006
 1016MOL0     C34000   2.525   1.237   2.074  0.5953 -0.5184 -0.3318
 1016MOL0     C34001   2.623   1.332   2.146  0.1909  0.8788  0.2125
 1016MOL0     C34002   2.557   1.466   2.186  0.3861 -0.1115 -0.7874
 1016MOL0     C34003   2.451   1.452   2.313  0.3322  0.1046 -0.5130
 1016MOL0     O34004   2.353   1.561   2.340 -0.2352  0.5254 -0.6190
 1016MOL0     C34005   2.236   1.536   2.266 -0.5241  1.4245 -0.1468
 1016MOL0     C34006   2.224   1.601   2.142  0.1378  0.7978 -0.0593
 1016MOL0     C34007   2.096   1.593   2.085 -0.9722 -1.0344  1.2790
 1016MOL0     C34008   2.000   1.502   2.126 -0.1477  0.5232 -0.2050
 1016MOL0     C34009   1.870   1.500   2.048 -0.8724  0.4243 -1.2899
 1016MOL0     O34010   1.873   1.545   1.919 -0.3288  0.2092 -0.6070
 1016MOL0     C34011   1.766   1.517   1.840  0.3009  0.4266 -1.0360
 1016MOL0     C34012   1.756   1.412   1.748  0.2486  0.2627  0.8552
 1016MOL0     C34013   1.647   1.373   1.679 -0.4059 -1.1916 -0.2295
 1016MOL0     C34014   1.528   1.440   1.693  0.3539 -0.9411  0.7456
 1016MOL0     O34015   1.405   1.411   1.635  0.1849  0.6128 -0.3695
 1016MOL0     C34016   1.379   1.320   1.526  0.0516  0.7554  1.2446
 1016MOL0     C34017   1.365   1.173   1.566 -0.5583  0.2052 -0.6786
 1016MOL0     C34018   1.243   1.156   1.655 -0.7265 -0.0253 -1.1852
 1016MOL0     C34019   1.222   1.010   1.691  0.4890  0.3349  0.1832
 1016MOL0     C34020   1.092   0.989   1.773  0.1365  0.3864  0.1910
 1016MOL0     C34021   1.062   0.849   1.814  0.5159  1.3474 -0.5467
 1016MOL0     C34022   0.929   0.849   1.908  0.2867 -0.3628 -0.6308
 1016MOL0     C34023   0.862   0.716   1.910  0.2655  0.0977  0.4131
 1016MOL0    Cl34024   0.779   0.716   1.748  0.3428  0.1355 -0.1325
 1016MOL0     C34025   1.530   1.550   1.780 -0.7071 -0.4411  0.3530
 1016MOL0     C34026   1.644   1.588   1.850  0.0312  0.7124  1.3360
 1016MOL0     O34027   1.769   1.442   2.101 -0.5373  0.6965 -0.2096
 1016MOL0     C34028   2.017   1.437   2.248  0.8127  0.8313  0.6342
 1016MOL0     C34029   2.137   1.454   2.314 -0.9217  0.1174  0.4461
 1016MOL0     N34030   2.723   1.079   2.045  0.6732 -0.6467 -1.0867
 1016MOL0     N34031   2.752   0.954   2.026 -0.2598  0.6225  0.3038
 1016MOL0     C34032   2.092   0.901   2.005  0.6893 -0.5268  0.2625
 1016MOL0     C34033   2.093   0.965   2.130  0.1029  1.2086 -0.6552
 1016MOL0     C34034   2.234   1.167   2.501  0.0844 -0.0635 -0.0051
 1016MOL0     C34035   2.352   1.180   2.580  0.7110 -0.2215 -0.8244
 1016MOL0     C34036   2.338   1.233   2.713  1.1039  1.3693  0.0757
 1016MOL0     C34037   2.215   1.273   2.764  0.3127  0.2556  0.2071
 1016MOL0     O34038   2.214   1.336   2.888 -1.2633 -0.7868  0.2962
 1016MOL0     C34039   2.091   1.400   2.937  0.1752  0.6085  0.2580
 1016MOL0     C34040   2.126   1.442   3.082  0.2405 -0.3273  0.5690
 1016MOL0     C34041   2.202   1.572   3.083 -0.4432 -1.0381  0.5825
 1016MOL0     C34042   2.214   1.634   3.222 -0.4521  0.2789 -0.2362
 1016MOL0     C34043   2.260   1.540   3.328  1.4429  1.0669 -0.1165
 1016MOL0     C34044   2.268   1.454   3.408 -0.5464  0.1857 -0.4995
 1016MOL0     C34045   2.101   1.267   2.684 -0.0218 -0.9457  0.1680
 1016MOL0     C34046   2.110   1.206   2.562  0.4027 -0.5804  0.5244
 1016MOL0     H34047   2.203   1.276   2.041 -2.3708  1.6214 -3.7424
 1016MOL0     H34048   2.164   1.174   1.828 -0.7768  1.4996  1.8947
 1016MOL0     H34049   1.975   0.760   1.755 -0.0392  0.7296 -2.4886
 1016MOL0     H34050   2.143   0.713   1.807 -0.3316  0.2775 -0.6322
 1016MOL0     H34051   2.024   0.805   1.554  0.0661 -0.1872  2.1463
 1016MOL0     H34052   2.073   0.636   1.594  0.2688 -0.4406  1.7303
 1016MOL0     H34053   2.258   0.850   1.496 -0.6783  0.1245  0.5307
 1016MOL0     H34054   2.245   0.681   1.447  0.9639  0.5725 -0.7188
 1016MOL0     H34055   2.339   0.773   1.727  0.6077  1.1708 -1.6999
 1016MOL0     H34056   2.321   0.606   1.679 -0.9616  0.3470 -1.2659
 1016MOL0     H34057   2.516   0.786   1.542 -0.0764 -1.8699 -2.6503
 1016MOL0     H34058   2.502   0.623   1.502  0.9196 -0.4775 -1.1274
 1016MOL0     H34059   2.677   0.626   1.660 -0.4513  1.3524 -0.3586
 1016MOL0     H34060   2.550   0.574   1.765  0.4198 -2.7478 -1.4375
 1016MOL0     H34061   2.696   0.842   1.744 -0.3496  3.0317  2.3866
 1016MOL0     H34062   2.528   0.859   1.773  0.8138  1.1102 -2.9554
 1016MOL0     H34063   2.723   0.713   1.966 -0.1332  0.1771 -1.5402
 1016MOL0     H34064   2.548   0.697   1.982 -0.3368  0.0265 -0.8147
 1016MOL0     H34065   2.425   0.955   2.060  0.3427 -0.7545  0.0133
 1016MOL0     H34066   2.432   1.219   2.127 -0.3309  0.6853 -1.4876
 1016MOL0     H34067   2.496   1.295   1.985 -6.6360 -0.9908  1.1334
 1016MOL0     H34068   2.700   1.347   2.070  0.3662  2.1940  0.6220
 1016MOL0     H34069   2.669   1.278   2.230  1.4114 -1.7600 -1.9847
 1016MOL0     H34070   2.634   1.531   2.229  2.1019 -3.7582  2.2421
 1016MOL0     H34071   2.511   1.513   2.099  2.8174  0.4210 -1.8680
 1016MOL0     H34072   2.512   1.438   2.402 -3.7857 -2.6681  2.1777
 1016MOL0     H34073   2.407   1.352   2.305  0.2305 -0.2250  2.8273
 1016MOL0     H34074   2.302   1.671   2.114  0.8688 -0.2119 -0.6173
 1016MOL0     H34075   2.086   1.649   1.993 -3.2557  1.6615  2.9775
 1016MOL0     H34076   1.843   1.349   1.730  1.7691  2.4151  0.2095
 1016MOL0     H34077   1.644   1.284   1.617 -0.6506 -1.5112  0.2407
 1016MOL0     H34078   1.460   1.333   1.454  0.8094  4.0631  2.5190
 1016MOL0     H34079   1.283   1.344   1.479  1.0891  0.8514 -0.9477
 1016MOL0     H34080   1.453   1.140   1.623  2.1511  5.4913 -1.1854
 1016MOL0     H34081   1.354   1.110   1.477  0.3072 -1.1570  0.1268
 1016MOL0     H34082   1.152   1.196   1.609 -1.0395 -1.0600 -1.5085
 1016MOL0     H34083   1.281   1.212   1.741  3.8174 -0.8875 -2.4008
 1016MOL0     H34084   1.206   0.943   1.607 -0.5578 -4.7232  3.9334
 1016MOL0     H34085   1.310   0.984   1.751 -0.5515  0.3187  1.7538
 1016MOL0     H34086   1.013   1.022   1.704 -0.5931 -2.7360 -0.5949
 1016MOL0     H34087   1.103   1.051   1.863  1.6901 -1.2699  1.1958
 1016MOL0     H34088   1.136   0.793   1.872 -1.2017 -1.4175 -0.8141
 1016MOL0     H34089   1.027   0.793   1.726  0.1357 -3.6854  2.4011
 1016MOL0     H34090   0.951   0.872   2.013  2.7657  0.6237 -1.2997
 1016MOL0     H34091   0.865   0.934   1.885 -1.4137 -0.0303  4.2147
 1016MOL0     H34092   0.783   0.713   1.986 -3.3620  2.0932 -2.8975
 1016MOL0     H34093   0.929   0.630   1.915 -1.2620 -1.4762 -2.9432
 1016MOL0     H34094   1.444   1.616   1.775  1.4734  2.4727 -1.9051
 1016MOL0     H34095   1.629   1.678   1.910 -2.4141  0.7752  0.7112
 1016MOL0     H34096   1.932   1.380   2.286  1.6296 -0.9132 -0.0553
 1016MOL0     H34097   2.156   1.416   2.414  3.6805 -0.8722 -0.5995
 1016MOL0     H34098   2.064   0.796   2.010  1.4547 -0.7034  1.2193
 1016MOL0     H34099   2.051   0.909   2.212  3.1005  1.0684  0.9145
 1016MOL0     H34100   2.449   1.150   2.540  2.3402  3.0692  0.2594
 1016MOL0     H34101   2.422   1.257   2.776  0.8839  0.5821  0.6824
 1016MOL0     H34102   2.009   1.328   2.945  1.7358 -1.2642  0.2032
 1016MOL0     H34103   2.048   1.480   2.876 -1.6369  1.5751  2.6420
 1016MOL0     H34104   2.031   1.461   3.132 -0.8209 -1.9269 -0.7224
 1016MOL0     H34105   2.185   1.366   3.134 -0.0527  0.1311  1.5827
 1016MOL0     H34106   2.158   1.642   3.010  0.4333  2.1840  2.9258
 1016MOL0     H34107   2.303   1.562   3.042  1.0142  2.3957  2.8740
 1016MOL0     H34108   2.294   1.708   3.211 -2.3206  2.5948  0.7376
 1016MOL0     H34109   2.134   1.700   3.256 -0.3844 -0.6734  1.9443
 1016MOL0     H34110   2.273   1.387   3.491 -0.9498  2.2936  1.3039
 1016MOL0     H34111   2.011   1.317   2.720  1.5344  1.6335  0.6841
 1016MOL0     H34112   2.016   1.194   2.507  0.7284  2.3456 -0.8753
 1017MOL0     O34113   7.273   9.588   9.332  0.2016  0.1173  0.1147
 1017MOL0     C34114   7.354   9.509   9.384  0.5548 -0.6737 -0.0359
 1017MOL0     O34115   7.375   9.370   9.352  0.2954  0.2625 -0.2127
 1017MOL0     C34116   7.281   9.297   9.281 -0.7664  0.4496 -0.2975
 1017MOL0     C34117   7.284   9.159   9.323  0.0357  0.5308  0.3714
 1017MOL0     C34118   7.188   9.074   9.268 -0.7657 -0.1317  0.5174
 1017MOL0     C34119   7.089   9.133   9.185  0.2284  0.2094 -0.4417
 1017MOL0     O34120   6.973   9.069   9.154  0.5875 -0.6619  0.1631
 1017MOL0     C34121   6.916   8.962   9.245 -0.6457  0.0844 -0.3143
 1017MOL0     C34122   6.767   8.979   9.241 -0.4851 -0.9375 -0.7947
 1017MOL0     C34123   6.699   8.853   9.241  0.0784 -0.5427 -0.2017
 1017MOL0     C34124   6.545   8.882   9.262 -0.8855  0.0607 -1.0867
 1017MOL0     C34125   6.468   8.744   9.296 -0.5577 -1.1617  0.4741
 1017MOL0     C34126   6.439   8.662   9.171 -0.1543  0.2933 -0.1926
 1017MOL0     C34127   6.337   8.549   9.193  0.9649  0.8324  0.3313
 1017MOL0     C34128   6.317   8.464   9.065  0.1478 -0.4307  0.9111
 1017MOL0     N34129   6.271   8.542   8.953  0.7171 -0.2956 -0.5349
 1017MOL0     C34130   6.138   8.571   8.939  0.9261 -0.9951 -0.2219
 1017MOL0     C34131   6.123   8.663   8.840 -0.5154  0.3712  0.8783
 1017MOL0     C34132   5.990   8.703   8.797 -0.0394 -0.1032  0.7217
 1017MOL0     C34133   5.999   8.727   8.643  0.0591 -0.6082 -0.2521
 1017MOL0     C34134   5.860   8.759   8.587  0.0495 -0.5975  0.6838
 1017MOL0     C34135   5.876   8.833   8.451 -0.7206 -0.0659  0.7556
 1017MOL0     O34136   5.750   8.882   8.407  0.3167 -1.6359 -0.2523
 1017MOL0     C34137   5.670   8.799   8.328 -0.6001 -0.3216  0.2096
 1017MOL0     C34138   5.533   8.814   8.339 -0.1259  0.3770  0.1538
 1017MOL0     C34139   5.445   8.735   8.266 -0.0014 -1.3220 -0.7851
 1017MOL0     C34140   5.484   8.638   8.175 -0.4081  0.5029 -0.3813
 1017MOL0     C34141   5.405   8.588   8.063 -1.1952  0.5521 -0.5893
 1017MOL0     O34142   5.291   8.651   8.030 -0.1066 -0.8111 -0.5516
 1017MOL0     C34143   5.205   8.607   7.928  0.8715 -0.7288  0.6985
 1017MOL0     C34144   5.115   8.702   7.875 -0.5895  0.7981  0.4171
 1017MOL0     C34145   5.014   8.675   7.782 -1.0358  0.0999  0.8244
 1017MOL0     C34146   4.997   8.539   7.747 -1.0590  0.0440 -0.2786
 1017MOL0     O34147   4.912   8.486   7.659 -0.3253 -0.2537  0.4615
 1017MOL0     C34148   4.835   8.554   7.558 -0.7112 -0.5601  0.5387
 1017MOL0     C34149   4.932   8.611   7.446 -0.4130 -0.9000 -0.4334
 1017MOL0     C34150   4.861   8.701   7.340  0.3500 -0.0676 -0.2245
 1017MOL0     C34151   4.759   8.615   7.265  0.4539  0.1752 -0.5684
 1017MOL0     C34152   4.693   8.683   7.152 -0.4527  1.5817 -0.7912
 1017MOL0     C34153   4.596   8.784   7.215 -0.5401  0.7646 -0.6808
 1017MOL0     C34154   4.519   8.855   7.103  0.5398  0.5656 -0.6102
 1017MOL0     C34155   4.445   8.975   7.160  0.2522  0.5543  0.3464
 1017MOL0    Cl34156   4.550   9.113   7.215  0.2441 -0.1247 -0.1837
 1017MOL0     C34157   5.080   8.444   7.799  0.6667  0.1092 -0.1959
 1017MOL0     C34158   5.185   8.479   7.888 -0.9755 -0.9126 -0.4405
 1017MOL0     O34159   5.438   8.477   8.026 -0.2201 -0.4594  0.1113
 1017MOL0     C34160   5.620   8.615   8.178 -0.3348  0.1219  0.6353
 1017MOL0     C34161   5.707   8.690   8.255  0.4158 -0.0834  0.8983
 1017MOL0     N34162   6.245   8.681   8.784 -0.9026  0.5598 -0.1284
 1017MOL0     N34163   6.334   8.616   8.854 -0.0941 -0.1026 -0.6762
 1017MOL0     C34164   7.095   9.262   9.135 -0.2375  0.3305  0.0502
 1017MOL0     C34165   7.203   9.342   9.176  1.0393 -0.0123 -0.0077
 1017MOL0     C34166   7.438   9.571   9.486 -0.1757  0.3785 -0.2078
 1017MOL0     C34167   7.533   9.496   9.558 -0.2368 -0.0228  0.5698
 1017MOL0     C34168   7.611   9.551   9.658 -0.7499 -0.1768 -0.0323
 1017MOL0     C34169   7.605   9.691   9.680  0.8407 -0.1114  0.8273
 1017MOL0     O34170   7.688   9.749   9.767 -0.5547  0.0879 -0.0553
 1017MOL0     C34171   7.757   9.868   9.741 -0.1996 -0.2675 -0.8083
 1017MOL0     C34172   7.878   9.858   9.646 -0.8446  0.0872  1.0714
 1017MOL0     C34173   7.841   9.844   9.493  0.5884  0.9161 -0.0787
 1017MOL0     C34174   7.964   9.833   9.409 -0.8392 -0.0865 -0.0368
 1017MOL0     C34175   8.043   9.960   9.390  0.5509 -0.5077  0.1923
 1017MOL0     C34176   8.105  10.059   9.375  0.4725 -0.6187 -0.3509
 1017MOL0     C34177   7.504   9.772   9.615 -0.2543 -0.0362 -0.4295
 1017MOL0     C34178   7.422   9.705   9.523  0.5823  0.8000 -0.0864
 1017MOL0     H34179   7.356   9.124   9.396 -1.6590  0.4396  2.0598
 1017MOL0     H34180   7.186   8.970   9.298 -0.6500 -0.7909 -1.6062
 1017MOL0     H34181   6.960   8.955   9.344 -2.0389 -1.5529  0.2352
 1017MOL0     H34182   6.937   8.864   9.202  1.0275 -0.3363  1.3540
 1017MOL0     H34183   6.741   9.018   9.142  2.0485 -2.0305 -1.9613
 1017MOL0     H34184   6.726   9.042   9.321 -0.6167 -2.0516  0.0365
 1017MOL0     H34185   6.739   8.788   9.319 -3.2223 -0.3460  1.8418
 1017MOL0     H34186   6.717   8.808   9.143  1.5900  0.8319 -0.6064
 1017MOL0     H34187   6.531   8.951   9.345 -0.9884  0.9304 -1.8080
 1017MOL0     H34188   6.506   8.942   9.179 -0.6795  1.4455 -0.2104
 1017MOL0     H34189   6.370   8.769   9.337 -0.6834 -0.9848  0.0720
 1017MOL0     H34190   6.527   8.681   9.363  1.2855  1.0886  1.0805
 1017MOL0     H34191   6.532   8.625   9.128 -0.7948 -0.7222 -0.7676
 1017MOL0     H34192   6.408   8.736   9.096  2.1564 -0.8948 -2.4716
 1017MOL0     H34193   6.370   8.481   9.272  2.0589  2.2943  1.1769
 1017MOL0     H34194   6.243   8.592   9.227  0.2488  0.2106 -0.7866
 1017MOL0     H34195   6.252   8.379   9.088  2.8231 -3.0616 -0.5752
 1017MOL0     H34196   6.413   8.424   9.031  1.1161  3.0114 -0.7941
 1017MOL0     H34197   6.050   8.532   8.989 -0.4096  2.9011  0.7866
 1017MOL0     H34198   5.947   8.790   8.847 -1.9530 -0.5710 -0.0180
 1017MOL0     H34199   5.920   8.620   8.807 -0.5932  0.5073  2.0596
 1017MOL0     H34200   6.035   8.638   8.589  0.9985 -1.3977  1.5654
 1017MOL0     H34201   6.069   8.809   8.627  0.0158 -0.6061 -0.4306
 1017MOL0     H34202   5.806   8.664   8.585 -1.0606  0.0201  0.8286
 1017MOL0     H34203   5.808   8.824   8.657 -2.1725 -4.1210  2.6123
 1017MOL0     H34204   5.920   8.762   8.380  1.5482 -0.1772  2.1650
 1017MOL0     H34205   5.940   8.921   8.463  0.5856 -0.2319 -3.4246
 1017MOL0     H34206   5.498   8.896   8.401  3.5474  2.8633 -0.7856
 1017MOL0     H34207   5.343   8.763   8.288  0.5806 -0.5614  1.1496
 1017MOL0     H34208   5.134   8.803   7.911  0.8327  0.7242 -0.0604
 1017MOL0     H34209   4.946   8.755   7.755 -0.0379  0.7739  0.2473
 1017MOL0     H34210   4.772   8.636   7.594  1.2977  0.7425  1.2983
 1017MOL0     H34211   4.766   8.483   7.511 -0.8885 -2.8583  3.9476
 1017MOL0     H34212   4.988   8.536   7.389  0.0792 -1.2061  0.4327
 1017MOL0     H34213   5.011   8.662   7.500 -1.3992  0.4384 -0.2117
 1017MOL0     H34214   4.931   8.745   7.268 -1.4202 -0.8833 -2.5677
 1017MOL0     H34215   4.819   8.782   7.400  2.5730 -0.5862  2.2348
 1017MOL0     H34216   4.797   8.516   7.238 -0.4166 -0.6659  1.1467
 1017MOL0     H34217   4.679   8.574   7.326  0.5753  0.9558  0.1331
 1017MOL0     H34218   4.635   8.612   7.092  1.6144 -2.0923  1.2145
 1017MOL0     H34219   4.770   8.732   7.093  1.1264 -1.2592 -1.2471
 1017MOL0     H34220   4.654   8.851   7.279  1.6031 -2.0032  0.5033
 1017MOL0     H34221   4.538   8.732   7.291  1.5525 -2.0953 -0.8652
 1017MOL0     H34222   4.583   8.895   7.024  0.8855  1.7226  0.2323
 1017MOL0     H34223   4.452   8.797   7.038  0.1915  0.0749  0.1726
 1017MOL0     H34224   4.379   8.934   7.237  0.1485  1.2707  0.6473
 1017MOL0     H34225   4.364   9.011   7.096 -1.2762 -1.3917  1.0970
 1017MOL0     H34226   5.071   8.343   7.761  0.3170 -0.3283  1.0065
 1017MOL0     H34227   5.239   8.390   7.918  0.7652  0.5015  0.8694
 1017MOL0     H34228   5.658   8.547   8.103  0.7082 -0.2885  1.5235
 1017MOL0     H34229   5.810   8.657   8.247  0.7445  0.6378  1.8124
 1017MOL0     H34230   7.018   9.299   9.069 -1.5583  0.6792  1.7185
 1017MOL0     H34231   7.215   9.447   9.149 -3.3115 -0.3994 -4.9061
 1017MOL0     H34232   7.550   9.391   9.538 -0.5514 -0.1797  1.0984
 1017MOL0     H34233   7.686   9.495   9.711  1.7109  1.9791 -1.0139
 1017MOL0     H34234   7.783   9.899   9.842 -0.3153 -1.0581 -0.5254
 1017MOL0     H34235   7.697   9.947   9.695  0.8352 -0.7841 -3.2457
 1017MOL0     H34236   7.944   9.945   9.657  0.3742 -0.2430 -2.4539
 1017MOL0     H34237   7.926   9.765   9.678 -1.2033 -0.8640 -1.0136
 1017MOL0     H34238   7.776   9.924   9.456 -0.0509  0.3667 -0.1635
 1017MOL0     H34239   7.774   9.758   9.487 -2.0631  2.8432 -0.0204
 1017MOL0     H34240   8.024   9.747   9.440 -0.6956 -0.2491 -0.7343
 1017MOL0     H34241   7.924   9.805   9.311 -0.3408 -1.6591  0.1833
 1017MOL0     H34242   8.161  10.149   9.358 -0.3267 -0.2378 -1.0346
 1017MOL0     H34243   7.491   9.876   9.640  1.0311 -0.4132  2.0897
 1017MOL0     H34244   7.340   9.758   9.478 -0.9156 -0.9265  0.4734
 1018MOL0     O34245   9.276   1.223   6.424 -0.1128 -0.6767  0.4271
 1018MOL0     C34246   9.336   1.123   6.396 -0.6056  0.3753 -0.9126
 1018MOL0     O34247   9.466   1.116   6.352 -0.1810  0.4545 -0.4737
 1018MOL0     C34248   9.514   1.236   6.302 -0.0342 -0.4665  0.1082
 1018MOL0     C34249   9.537   1.344   6.396  0.4396  0.2674 -0.9354
 1018MOL0     C34250   9.554   1.468   6.339  0.2624  0.3216  0.0752
 1018MOL0     C34251   9.582   1.489   6.203 -0.1764  0.1972 -0.7725
 1018MOL0     O34252   9.628   1.605   6.168  0.2852 -0.0564 -0.4446
 1018MOL0     C34253   9.775   1.608   6.158 -0.1358 -0.5857  0.0686
 1018MOL0     C34254   9.816   1.615   6.008  0.3372 -0.1448 -0.6041
 1018MOL0     C34255   9.915   1.500   5.972 -1.3879  0.3931 -0.3841
 1018MOL0     C34256   9.927   1.486   5.822  0.1057  0.7292 -0.2253
 1018MOL0     C34257   9.818   1.387   5.764 -0.0429 -0.1319 -0.7939
 1018MOL0     C34258   9.860   1.336   5.627 -0.6750  0.5575  0.7961
 1018MOL0     C34259   9.868   1.435   5.515 -0.1464 -0.0156 -1.0314
 1018MOL0     C34260   9.905   1.387   5.374 -0.3450  1.1205  0.0236
 1018MOL0     N34261   9.816   1.276   5.333 -0.1353  0.2240  0.4567
 1018MOL0     C34262   9.834   1.145   5.366  0.2941 -0.0975 -0.3009
 1018MOL0     C34263   9.728   1.085   5.304  0.3936  0.8153 -0.7076
 1018MOL0     C34264   9.704   0.935   5.301  0.2007  0.3447  0.4002
 1018MOL0     C34265   9.701   0.885   5.162 -0.4070  0.3840  0.4336
 1018MOL0     C34266   9.631   0.754   5.133 -0.3236  0.6404  0.2234
 1018MOL0     C34267   9.680   0.639   5.230 -0.0280  0.0724  0.3712
 1018MOL0     O34268   9.610   0.507   5.203  0.4043 -0.3510 -0.3075
 1018MOL0     C34269   9.490   0.483   5.266  0.1058  0.5071  0.8306
 1018MOL0     C34270   9.428   0.578   5.348 -0.3879 -0.6354  0.3731
 1018MOL0     C34271   9.298   0.551   5.388 -0.6511  0.0932  0.2597
 1018MOL0     C34272   9.220   0.428   5.356 -0.4223 -0.4963 -0.3077
 1018MOL0     C34273   9.089   0.397   5.427  0.2205 -0.1866  0.4554
 1018MOL0     O34274   9.036   0.268   5.414  0.3945 -1.0885  0.3651
 1018MOL0     C34275   8.931   0.228   5.494  0.0106 -0.3214  0.4409
 1018MOL0     C34276   8.934   0.224   5.635 -0.3517 -0.0911  0.1479
 1018MOL0     C34277   8.812   0.203   5.705  0.2352 -0.6730 -0.3261
 1018MOL0     C34278   8.692   0.186   5.647  0.5645  0.7021  0.5311
 1018MOL0     O34279   8.575   0.167   5.726 -0.4695 -0.4834  0.0075
 1018MOL0     C34280   8.480   0.066   5.686 -1.5411  0.4372 -0.1852
 1018MOL0     C34281   8.360   0.068   5.780 -0.5286 -0.8942  0.2779
 1018MOL0     C34282   8.265   0.187   5.767 -0.1398  0.6283 -0.8212
 1018MOL0     C34283   8.146   0.170   5.864 -0.0113 -1.6231  0.2813
 1018MOL0     C34284   8.060   0.297   5.873  0.3703  0.0641 -0.0360
 1018MOL0     C34285   7.922   0.266   5.939 -0.2005  1.0660 -0.0185
 1018MOL0     C34286   7.853   0.399   5.965 -0.8659 -0.3092  0.6847
 1018MOL0     C34287   7.746   0.367   6.061  0.3744 -0.3231  0.1187
 1018MOL0    Cl34288   7.633   0.525   6.087  0.5507  1.1199 -0.1380
 1018MOL0     C34289   8.694   0.161   5.507  0.3156 -0.7791 -0.1742
 1018MOL0     C34290   8.810   0.185   5.435  0.4550  0.8321  0.2173
 1018MOL0     O34291   9.044   0.492   5.489  0.5141  0.0041 -0.6364
 1018MOL0     C34292   9.304   0.330   5.289 -0.5760  0.0460 -0.2169
 1018MOL0     C34293   9.430   0.357   5.234 -0.2370 -0.1227 -0.9992
 1018MOL0     N34294   9.649   1.177   5.237  0.4319 -0.1509 -0.2412
 1018MOL0     N34295   9.703   1.292   5.262  0.1100 -0.1048 -0.5855
 1018MOL0     C34296   9.572   1.386   6.111  1.4470 -0.1860  0.4241
 1018MOL0     C34297   9.541   1.253   6.162  0.5455  0.4719 -0.5827
 1018MOL0     C34298   9.267   0.989   6.418  0.4029  0.0059 -0.1825
 1018MOL0     C34299   9.345   0.871   6.428  0.0506  0.6121  0.8181
 1018MOL0     C34300   9.291   0.749   6.449 -0.2221  0.4255 -0.2107
 1018MOL0     C34301   9.154   0.737   6.462 -1.0230  0.0254 -0.4725
 1018MOL0     O34302   9.080   0.624   6.480 -0.3828 -0.0250  0.8156
 1018MOL0     C34303   9.135   0.509   6.407  0.4407 -0.7404  0.0297
 1018MOL0     C34304   9.019   0.407   6.365  0.1121 -1.0102 -0.6224
 1018MOL0     C34305   8.900   0.470   6.311  1.0363  0.3894  0.8467
 1018MOL0     C34306   8.919   0.536   6.173  0.2234  0.1167 -0.1155
 1018MOL0     C34307   8.970   0.451   6.067  0.7048 -0.7144  0.1866
 1018MOL0     C34308   9.004   0.379   5.982  0.0528  0.3552 -0.1808
 1018MOL0     C34309   9.076   0.847   6.467  1.0371  0.1980 -0.0339
 1018MOL0     C34310   9.122   0.970   6.422  0.7623 -0.0278 -0.0976
 1018MOL0     H34311   9.517   1.309   6.496 -1.9766 -1.3121 -1.8584
 1018MOL0     H34312   9.561   1.560   6.397 -1.6298  1.8787 -2.0085
 1018MOL0     H34313   9.820   1.525   6.213  1.7544  1.2775  1.4976
 1018MOL0     H34314   9.811   1.695   6.214  0.1148 -0.4559 -0.2889
 1018MOL0     H34315   9.871   1.706   5.981  1.7470 -0.5644  0.7317
 1018MOL0     H34316   9.729   1.614   5.941  1.3164  1.8572 -2.0421
 1018MOL0     H34317   9.881   1.411   6.026 -1.8265  1.4889  1.2504
 1018MOL0     H34318  10.008   1.536   6.016 -1.3730  2.1994 -1.7732
 1018MOL0     H34319   9.918   1.584   5.774  2.1592  0.4613 -1.2593
 1018MOL0     H34320  10.026   1.444   5.804  0.6003  2.3716 -1.5289
 1018MOL0     H34321   9.723   1.440   5.759  0.7423  1.2945 -5.0395
 1018MOL0     H34322   9.810   1.304   5.834  0.2483  2.9212  3.2141
 1018MOL0     H34323   9.784   1.264   5.594 -0.3508 -0.2367  1.7510
 1018MOL0     H34324   9.960   1.293   5.634 -0.5686 -0.0473 -2.4910
 1018MOL0     H34325   9.779   1.499   5.510  0.5721  1.2226  0.7587
 1018MOL0     H34326   9.943   1.507   5.549  0.1985 -1.2153  0.9060
 1018MOL0     H34327  10.011   1.360   5.371 -0.0043  2.0866  1.7778
 1018MOL0     H34328   9.902   1.476   5.311 -0.7955  0.5180 -0.8301
 1018MOL0     H34329   9.913   1.087   5.413  0.9134 -0.9761 -2.3380
 1018MOL0     H34330   9.609   0.924   5.356  1.1230  0.4154  2.0855
 1018MOL0     H34331   9.776   0.884   5.366 -1.1700 -2.0595  0.1608
 1018MOL0     H34332   9.806   0.871   5.133 -0.3908  0.8275  0.2624
 1018MOL0     H34333   9.653   0.961   5.099  1.0885 -0.0803 -1.3612
 1018MOL0     H34334   9.523   0.754   5.150  0.0978 -0.7849  3.6977
 1018MOL0     H34335   9.649   0.730   5.028 -0.1967  2.1092 -0.1050
 1018MOL0     H34336   9.679   0.662   5.337  1.8238  0.8718  0.2675
 1018MOL0     H34337   9.786   0.620   5.210 -0.2922  1.0609 -2.3475
 1018MOL0     H34338   9.466   0.679   5.367 -0.0346 -0.3371 -1.6726
 1018MOL0     H34339   9.252   0.631   5.445 -2.7544  0.4699 -1.8270
 1018MOL0     H34340   9.030   0.241   5.685 -0.3140 -0.6658  0.2816
 1018MOL0     H34341   8.823   0.209   5.813  1.2246  2.1951 -0.5038
 1018MOL0     H34342   8.531  -0.030   5.693  0.3171  1.2942 -1.2310
 1018MOL0     H34343   8.442   0.078   5.584 -1.0285  1.0236 -0.3156
 1018MOL0     H34344   8.392   0.062   5.885 -2.8916  2.7159  1.3834
 1018MOL0     H34345   8.291  -0.017   5.769 -3.2453  1.3436 -1.0814
 1018MOL0     H34346   8.236   0.200   5.662  1.3376  4.0851 -0.9156
 1018MOL0     H34347   8.315   0.281   5.790  1.2984 -0.3345  0.1591
 1018MOL0     H34348   8.077   0.092   5.828 -0.1834 -1.2254 -0.2546
 1018MOL0     H34349   8.183   0.138   5.962  3.4680  1.6574  0.2370
 1018MOL0     H34350   8.046   0.349   5.778  0.9265  0.2401 -0.0247
 1018MOL0     H34351   8.110   0.373   5.934 -1.6261  0.2129  1.5097
 1018MOL0     H34352   7.954   0.219   6.032  0.6264  1.1701 -0.2444
 1018MOL0     H34353   7.852   0.192   5.899  0.6652  0.6181 -0.7389
 1018MOL0     H34354   7.920   0.479   5.996  1.7679 -1.7694 -0.8896
 1018MOL0     H34355   7.808   0.442   5.875  0.0895  1.4963  1.0225
 1018MOL0     H34356   7.782   0.322   6.155  1.0002  0.5625  0.3143
 1018MOL0     H34357   7.674   0.299   6.014 -0.3334  0.1282  0.5250
 1018MOL0     H34358   8.597   0.141   5.463 -0.1065  0.5348  0.1278
 1018MOL0     H34359   8.794   0.174   5.328  0.7509  1.5385  0.0953
 1018MOL0     H34360   9.272   0.230   5.263  3.9098 -2.0699  1.3432
 1018MOL0     H34361   9.486   0.284   5.176  2.9313  0.8112  0.6721
 1018MOL0     H34362   9.597   1.407   6.008 -1.8866  2.1360 -0.0621
 1018MOL0     H34363   9.519   1.166   6.101  1.1705  0.8497 -1.3599
 1018MOL0     H34364   9.453   0.882   6.426 -0.1704  3.7482 -0.8325
 1018MOL0     H34365   9.358   0.664   6.442 -2.0898 -1.0279 -1.2150
 1018MOL0     H34366   9.202   0.454   6.475  0.5366 -2.9557 -1.7535
 1018MOL0     H34367   9.191   0.537   6.317 -0.0300 -0.6902 -0.2503
 1018MOL0     H34368   9.063   0.329   6.303 -4.2264 -3.1458 -1.4344
 1018MOL0     H34369   9.000   0.348   6.455  0.4110 -1.1514 -0.6521
 1018MOL0     H34370   8.864   0.544   6.382 -1.9317 -0.2995  0.2057
 1018MOL0     H34371   8.823   0.392   6.306  1.5663 -0.1848  1.3945
 1018MOL0     H34372   8.817   0.562   6.143  0.5362  0.3872 -0.9575
 1018MOL0     H34373   8.983   0.623   6.184 -0.7411  0.9022 -0.5296
 1018MOL0     H34374   9.032   0.315   5.900  0.1248  1.5229 -1.1026
 1018MOL0     H34375   8.971   0.833   6.488  1.4792 -4.4615  0.0513
 1018MOL0     H34376   9.053   1.053   6.414  1.3289  0.9464  3.4181
 1019MOL0     O34377  10.407   0.322   0.176  0.3881 -0.0298 -0.1713
 1019MOL0     C34378  10.379   0.241   0.091 -0.1502  0.9221  0.0637
 1019MOL0     O34379  10.444   0.219  -0.030 -0.0977 -0.8756 -0.1769
 1019MOL0     C34380  10.572   0.274  -0.048  0.1586  0.5077 -0.7679
 1019MOL0     C34381  10.579   0.399  -0.115 -0.0212  0.2692 -0.4176
 1019MOL0     C34382  10.707   0.455  -0.129 -0.0256 -0.8363  0.4414
 1019MOL0     C34383  10.824   0.386  -0.105 -0.2428 -1.2768  0.6514
 1019MOL0     O34384  10.948   0.441  -0.121  0.3692  0.3203  0.5010
 1019MOL0     C34385  10.996   0.448  -0.255  0.4432 -0.2690 -0.2330
 1019MOL0     C34386  11.144   0.436  -0.271  0.6618 -0.2548  0.0470
 1019MOL0     C34387  11.188   0.307  -0.201  0.0110  0.2266 -0.5284
 1019MOL0     C34388  11.342   0.290  -0.222  0.1964 -0.7312  0.0684
 1019MOL0     C34389  11.388   0.143  -0.194  0.4537 -1.0625  0.4891
 1019MOL0     C34390  11.538   0.141  -0.212 -0.5224 -0.3678 -0.2696
 1019MOL0     C34391  11.598  -0.000  -0.228  0.5783 -0.4782 -0.7834
 1019MOL0     C34392  11.747   0.009  -0.240  0.2346 -0.7566  0.3000
 1019MOL0     N34393  11.803  -0.121  -0.262 -0.4902 -0.0448  0.7126
 1019MOL0     C34394  11.825  -0.209  -0.170  0.0037  0.6033 -0.8783
 1019MOL0     C34395  11.909  -0.302  -0.216  0.1911 -0.6045 -0.3408
 1019MOL0     C34396  11.971  -0.416  -0.123 -0.2776  0.3259 -1.1005
 1019MOL0     C34397  12.126  -0.434  -0.113  0.3125 -0.0962 -0.1153
 1019MOL0     C34398  12.150  -0.562  -0.023  0.8712  0.8033  0.8239
 1019MOL0     C34399  12.270  -0.645  -0.058 -0.9376  0.8180 -0.2673
 1019MOL0     O34400  12.311  -0.735   0.039  0.8846 -0.3298  0.5636
 1019MOL0     C34401  12.441  -0.760   0.059 -0.5386 -0.1971 -0.1037
 1019MOL0     C34402  12.542  -0.762  -0.035 -0.9602 -0.1574 -0.4294
 1019MOL0     C34403  12.674  -0.776  -0.004 -0.5057  0.4558 -0.4128
 1019MOL0     C34404  12.721  -0.788   0.129  0.1867 -0.2974  0.2810
 1019MOL0     C34405  12.857  -0.797   0.166 -0.7191 -0.3852 -0.8926
 1019MOL0     O34406  12.895  -0.851   0.287  0.2046 -0.1757 -0.1371
 1019MOL0     C34407  13.025  -0.860   0.306 -0.2673  0.1866  1.0673
 1019MOL0     C34408  13.110  -0.931   0.217 -0.5066  0.3110 -0.1731
 1019MOL0     C34409  13.248  -0.924   0.241 -0.2278  0.0417 -0.1984
 1019MOL0     C34410  13.303  -0.861   0.362  0.7338 -0.4298  0.5911
 1019MOL0     O34411  13.430  -0.869   0.398  0.3752  0.4515  0.2675
 1019MOL0     C34412  13.535  -0.931   0.321  0.3262 -0.0062  0.4506
 1019MOL0     C34413  13.686  -0.898   0.376  0.1298  0.3140  0.5100
 1019MOL0     C34414  13.787  -1.003   0.339 -0.3543 -0.6846 -0.3523
 1019MOL0     C34415  13.930  -0.972   0.380  0.4380  1.0526 -0.0588
 1019MOL0     C34416  14.018  -1.084   0.314 -0.0581  0.0837  0.5258
 1019MOL0     C34417  14.167  -1.060   0.332  0.5313 -0.6262 -0.8603
 1019MOL0     C34418  14.219  -1.107   0.470 -0.2849 -0.5773  0.1851
 1019MOL0     C34419  14.354  -1.026   0.493 -0.6623 -0.4177  0.9817
 1019MOL0    Cl34420  14.388  -1.055   0.666 -0.6436 -0.4620  0.1819
 1019MOL0     C34421  13.214  -0.807   0.446  0.3186  0.1496 -0.7978
 1019MOL0     C34422  13.079  -0.803   0.419  0.1233 -0.0518 -0.2193
 1019MOL0     O34423  12.935  -0.757   0.074 -0.3651  0.1832 -0.9191
 1019MOL0     C34424  12.622  -0.787   0.225  0.0839 -0.7750  0.1124
 1019MOL0     C34425  12.486  -0.773   0.189 -0.2446  0.0640  0.5444
 1019MOL0     N34426  11.936  -0.265  -0.339 -0.1966 -0.2748  1.4145
 1019MOL0     N34427  11.889  -0.145  -0.361 -0.0716 -0.2798  0.1095
 1019MOL0     C34428  10.811   0.274  -0.033  0.4680 -0.9318  1.0414
 1019MOL0     C34429  10.688   0.207  -0.009  0.2528 -0.8490  0.3774
 1019MOL0     C34430  10.247   0.198   0.108  0.5532 -0.0529 -0.0995
 1019MOL0     C34431  10.144   0.198   0.010  0.4212 -0.3153 -0.2265
 1019MOL0     C34432  10.013   0.165   0.039 -0.3935  0.0300  0.0796
 1019MOL0     C34433   9.984   0.106   0.163 -0.0544  0.1221  0.9318
 1019MOL0     O34434   9.866   0.050   0.177  0.4046  0.5178 -0.6641
 1019MOL0     C34435   9.835  -0.024   0.294  0.6354 -0.7286 -0.0110
 1019MOL0     C34436   9.691  -0.058   0.319 -0.1500 -0.5309 -0.6083
 1019MOL0     C34437   9.640  -0.150   0.192 -0.5326  0.7196  0.6547
 1019MOL0     C34438   9.512  -0.220   0.226  0.0293 -0.6396  0.0011
 1019MOL0     C34439   9.529  -0.322   0.332  0.9343  0.1720  0.7012
 1019MOL0     C34440   9.549  -0.414   0.413 -0.4672  0.5546 -0.6880
 1019MOL0     C34441  10.088   0.093   0.255  0.1795 -0.1336 -0.2520
 1019MOL0     C34442  10.216   0.144   0.231 -1.0779  0.1097 -0.7214
 1019MOL0     H34443  10.492   0.455  -0.149  1.2705  2.0153 -0.9683
 1019MOL0     H34444  10.733   0.552  -0.171  2.7229  0.6223  4.7846
 1019MOL0     H34445  10.968   0.546  -0.295  2.7412  1.7997  2.6580
 1019MOL0     H34446  10.942   0.373  -0.312 -0.5210 -1.6930  2.3784
 1019MOL0     H34447  11.202   0.514  -0.221  3.0629 -0.1724 -2.6193
 1019MOL0     H34448  11.166   0.436  -0.378  1.9838  0.7989  0.3008
 1019MOL0     H34449  11.125   0.230  -0.248 -1.7186 -0.0050  1.9942
 1019MOL0     H34450  11.165   0.306  -0.094  2.5364  0.7100  0.0884
 1019MOL0     H34451  11.363   0.310  -0.328 -2.1711  1.9725 -0.0204
 1019MOL0     H34452  11.396   0.367  -0.167  2.4448  0.3521 -3.3108
 1019MOL0     H34453  11.344   0.075  -0.268  2.5419 -2.0082  0.0329
 1019MOL0     H34454  11.357   0.108  -0.095  0.5989 -1.2506  0.4694
 1019MOL0     H34455  11.587   0.193  -0.130 -3.5943 -0.1284  1.5526
 1019MOL0     H34456  11.567   0.191  -0.305 -0.1961  0.2695  0.1655
 1019MOL0     H34457  11.580  -0.062  -0.139  2.7406 -3.4682 -2.2201
 1019MOL0     H34458  11.551  -0.040  -0.318  0.5716  0.6909 -1.3062
 1019MOL0     H34459  11.798   0.059  -0.157  0.8446  1.3430 -1.2505
 1019MOL0     H34460  11.781   0.067  -0.326 -0.2807 -1.9968 -0.7744
 1019MOL0     H34461  11.774  -0.214  -0.074 -2.4295  1.9302 -2.0295
 1019MOL0     H34462  11.921  -0.511  -0.145 -0.1381 -0.2570  0.9394
 1019MOL0     H34463  11.923  -0.389  -0.029  2.0014  1.0718 -0.0750
 1019MOL0     H34464  12.172  -0.350  -0.060  0.8459  0.6619 -1.7179
 1019MOL0     H34465  12.175  -0.454  -0.209 -0.1617  0.8588 -0.5635
 1019MOL0     H34466  12.158  -0.534   0.083  1.1837  1.2151  0.6969
 1019MOL0     H34467  12.054  -0.614  -0.034  0.1831  2.2935 -0.7702
 1019MOL0     H34468  12.350  -0.570  -0.070 -0.3215  0.2126 -0.0208
 1019MOL0     H34469  12.264  -0.686  -0.159  0.5720  1.2008 -0.5441
 1019MOL0     H34470  12.538  -0.736  -0.140 -0.6847  1.2677 -0.1005
 1019MOL0     H34471  12.751  -0.788  -0.079 -0.5395 -0.6148 -0.2994
 1019MOL0     H34472  13.076  -0.999   0.140  0.6157  0.0377 -0.4428
 1019MOL0     H34473  13.309  -0.980   0.171  1.8711  0.0891  1.4904
 1019MOL0     H34474  13.524  -0.909   0.215  0.2480 -2.1364 -0.0176
 1019MOL0     H34475  13.528  -1.040   0.318 -0.1188  0.0435 -0.4987
 1019MOL0     H34476  13.680  -0.890   0.485 -2.0015 -1.0889  0.5434
 1019MOL0     H34477  13.719  -0.812   0.316 -0.7160 -0.1967 -0.7306
 1019MOL0     H34478  13.777  -1.035   0.235  1.5388  0.5414 -0.9611
 1019MOL0     H34479  13.755  -1.094   0.390  4.0468 -2.9920 -1.1839
 1019MOL0     H34480  13.953  -0.869   0.352 -0.8098  1.5120  0.5385
 1019MOL0     H34481  13.950  -0.984   0.486  1.6462 -0.7288 -0.4453
 1019MOL0     H34482  13.992  -1.095   0.209  0.6951  0.6936  0.2699
 1019MOL0     H34483  14.002  -1.176   0.370  0.9742 -1.9492 -2.3164
 1019MOL0     H34484  14.182  -0.952   0.329 -0.8713 -0.2688  1.8598
 1019MOL0     H34485  14.228  -1.117   0.261  2.2612 -2.2117  1.6906
 1019MOL0     H34486  14.142  -1.085   0.544 -0.0313  2.8315 -0.4028
 1019MOL0     H34487  14.248  -1.212   0.467  1.8651 -0.0350  0.2774
 1019MOL0     H34488  14.352  -0.919   0.472  1.2557 -1.1934 -5.2902
 1019MOL0     H34489  14.433  -1.057   0.423  0.6227  2.5696  0.9654
 1019MOL0     H34490  13.260  -0.770   0.537  1.8891 -0.8735 -1.1376
 1019MOL0     H34491  13.018  -0.744   0.487  1.0605 -0.2985  0.8658
 1019MOL0     H34492  12.656  -0.787   0.328  1.2353  1.6563 -0.1888
 1019MOL0     H34493  12.403  -0.769   0.259  1.4988  3.7360  2.7100
 1019MOL0     H34494  10.902   0.215  -0.022  0.4376 -0.7356  2.6030
 1019MOL0     H34495  10.701   0.118   0.052  1.0777 -0.2376  1.1196
 1019MOL0     H34496  10.155   0.245  -0.088 -0.2442 -1.3197 -0.8051
 1019MOL0     H34497   9.941   0.178  -0.041  0.5159  0.3339 -0.7150
 1019MOL0     H34498   9.857   0.038   0.382 -0.1817 -2.1215  1.2088
 1019MOL0     H34499   9.894  -0.114   0.314 -0.8109 -1.5579  0.6533
 1019MOL0     H34500   9.674  -0.110   0.414  0.6817 -0.4869 -0.4291
 1019MOL0     H34501   9.621   0.024   0.334 -0.4808 -0.2759 -3.0202
 1019MOL0     H34502   9.709  -0.234   0.181  1.4997  2.3700  0.0732
 1019MOL0     H34503   9.650  -0.088   0.103  0.7943 -1.5161 -0.8263
 1019MOL0     H34504   9.444  -0.142   0.262  2.1243  0.3731  2.0247
 1019MOL0     H34505   9.467  -0.270   0.140 -0.7339  0.2816 -0.1480
 1019MOL0     H34506   9.557  -0.499   0.478 -3.6630  1.4726  1.1411
 1019MOL0     H34507  10.081   0.056   0.356  0.4030 -0.7704 -0.4644
 1019MOL0     H34508  10.303   0.135   0.295  0.9947 -0.2505 -3.4180
 1020MOL0     O34509   4.478   3.408   7.274 -0.3176 -0.2211  0.0889
 1020MOL0     C34510   4.449   3.512   7.333  0.1815 -0.9453 -0.4633
 1020MOL0     O34511   4.322   3.542   7.374  1.2317 -0.5691  0.0652
 1020MOL0     C34512   4.215   3.463   7.333  1.0385 -0.3336  0.1389
 1020MOL0     C34513   4.115   3.515   7.239 -0.0969 -0.1019 -0.1268
 1020MOL0     C34514   4.006   3.432   7.196  0.2403  1.1023  0.2109
 1020MOL0     C34515   3.996   3.301   7.239 -0.8079  0.0534 -0.9414
 1020MOL0     O34516   3.894   3.226   7.181  0.1336 -0.0433 -0.4707
 1020MOL0     C34517   3.878   3.089   7.224 -0.0929  0.4238  0.8785
 1020MOL0     C34518   3.751   3.046   7.152  0.4582  0.1332 -0.6964
 1020MOL0     C34519   3.731   2.896   7.143 -0.0375 -0.2460  0.9175
 1020MOL0     C34520   3.624   2.867   7.026  0.0341 -0.6873  0.0435
 1020MOL0     C34521   3.614   2.718   6.992 -0.0443 -0.0835  0.1394
 1020MOL0     C34522   3.507   2.694   6.894  0.6511 -0.0501 -0.1549
 1020MOL0     C34523   3.511   2.559   6.821 -0.4732  0.2848 -0.4375
 1020MOL0     C34524   3.474   2.439   6.913 -0.4252 -0.7975 -0.4523
 1020MOL0     N34525   3.340   2.452   6.973 -0.6523 -0.2075 -0.0375
 1020MOL0     C34526   3.226   2.446   6.888  0.6512  0.4738 -0.7717
 1020MOL0     C34527   3.123   2.492   6.965 -0.2159  0.1200 -0.2497
 1020MOL0     C34528   2.980   2.490   6.919  0.2857  0.1860 -0.6016
 1020MOL0     C34529   2.909   2.362   6.981 -0.3197 -0.6983  1.4983
 1020MOL0     C34530   2.749   2.356   6.981 -0.1182  0.4967 -0.2814
 1020MOL0     C34531   2.686   2.415   6.855  0.9889  0.1147  0.2262
 1020MOL0     O34532   2.550   2.449   6.882 -0.1473  0.8796  0.4831
 1020MOL0     C34533   2.469   2.341   6.868 -0.9950  1.0776  0.1334
 1020MOL0     C34534   2.431   2.254   6.970 -0.8386  0.9270  0.0958
 1020MOL0     C34535   2.349   2.145   6.946  0.1479 -1.0620 -0.7153
 1020MOL0     C34536   2.293   2.120   6.818 -0.7793 -0.2796  0.5313
 1020MOL0     C34537   2.217   1.995   6.790  0.5240 -0.7572  0.4810
 1020MOL0     O34538   2.167   1.989   6.668 -0.0728 -0.2934  0.4766
 1020MOL0     C34539   2.106   1.875   6.626  0.5917  0.2622  1.1396
 1020MOL0     C34540   2.152   1.749   6.655 -0.4527  0.3913  0.6343
 1020MOL0     C34541   2.090   1.628   6.610 -0.0942 -0.3061  0.0944
 1020MOL0     C34542   1.982   1.652   6.528  0.3130  0.3494  0.3901
 1020MOL0     O34543   1.920   1.553   6.471 -0.6883  0.5956 -0.0415
 1020MOL0     C34544   1.883   1.436   6.548  0.5769 -0.7647  0.5490
 1020MOL0     C34545   1.751   1.381   6.491  0.3157 -1.0093 -0.3823
 1020MOL0     C34546   1.665   1.288   6.581 -0.1263  0.3492  0.3598
 1020MOL0     C34547   1.737   1.159   6.605  0.7066 -0.3115 -0.1848
 1020MOL0     C34548   1.651   1.059   6.690  0.7880  0.2130 -0.4176
 1020MOL0     C34549   1.652   1.067   6.846 -0.1308  1.0708  0.2571
 1020MOL0     C34550   1.577   0.939   6.896 -0.9323 -1.0093  0.0980
 1020MOL0     C34551   1.544   0.950   7.048  0.6920 -0.3429  0.0399
 1020MOL0    Cl34552   1.704   0.935   7.137 -0.3290  0.1411 -0.4459
 1020MOL0     C34553   1.935   1.784   6.497 -0.9799 -0.4793  0.9988
 1020MOL0     C34554   1.998   1.900   6.551 -0.3295  0.0429  0.3736
 1020MOL0     O34555   2.195   1.918   6.882 -0.4986  0.4956  0.2666
 1020MOL0     C34556   2.316   2.212   6.719 -0.6857 -0.3697 -0.5123
 1020MOL0     C34557   2.400   2.317   6.748 -0.0509 -0.4852 -0.2375
 1020MOL0     N34558   3.172   2.529   7.089  0.5356 -0.1647  1.0882
 1020MOL0     N34559   3.300   2.502   7.092 -0.0374  0.0183 -0.9095
 1020MOL0     C34560   4.097   3.257   7.330 -0.3858  0.1206 -0.1239
 1020MOL0     C34561   4.207   3.324   7.376  0.5323 -0.7364 -0.0076
 1020MOL0     C34562   4.552   3.621   7.346 -0.3636 -1.6522  0.0670
 1020MOL0     C34563   4.695   3.598   7.330  0.1801 -0.6112 -0.5184
 1020MOL0     C34564   4.790   3.711   7.337 -0.3909  0.1632 -0.0695
 1020MOL0     C34565   4.735   3.841   7.364 -0.4433  0.4248 -0.4643
 1020MOL0     O34566   4.802   3.961   7.384  0.1797  0.4931  0.7133
 1020MOL0     C34567   4.935   3.982   7.336  0.6232 -0.5172 -0.3926
 1020MOL0     C34568   4.975   3.942   7.191  0.6995 -0.0532  0.1974
 1020MOL0     C34569   4.875   4.008   7.092  0.6266  0.5433 -0.5415
 1020MOL0     C34570   4.906   3.990   6.946 -0.2503 -0.6639  0.6543
 1020MOL0     C34571   4.821   4.073   6.862 -0.0009  1.1736  0.5912
 1020MOL0     C34572   4.761   4.157   6.799 -0.4617 -0.2169 -0.4531
 1020MOL0     C34573   4.596   3.854   7.394  1.0075 -0.1486  0.0623
 1020MOL0     C34574   4.507   3.744   7.378  0.2500  0.3627 -0.5373
 1020MOL0     H34575   4.117   3.619   7.210  2.7705 -0.6916 -2.4742
 1020MOL0     H34576   3.919   3.467   7.142 -2.3650  0.0996  3.3969
 1020MOL0     H34577   3.870   3.067   7.331 -2.0290 -3.0467  0.1761
 1020MOL0     H34578   3.957   3.023   7.187 -0.5682  1.1575 -1.6491
 1020MOL0     H34579   3.740   3.086   7.050  0.7322  1.0290 -0.3783
 1020MOL0     H34580   3.664   3.088   7.202  0.1087 -3.2122  1.8506
 1020MOL0     H34581   3.713   2.878   7.250 -0.6617 -0.1964  0.8239
 1020MOL0     H34582   3.819   2.840   7.113 -0.7971 -1.1685  0.3502
 1020MOL0     H34583   3.527   2.911   7.052  0.2740 -0.0309 -0.1503
 1020MOL0     H34584   3.658   2.923   6.938  1.1786  0.1993  1.0127
 1020MOL0     H34585   3.604   2.668   7.089  0.8579  1.7163  1.2121
 1020MOL0     H34586   3.709   2.681   6.953  0.0582 -1.4202  1.5648
 1020MOL0     H34587   3.522   2.762   6.810 -0.5534 -0.3965 -0.6659
 1020MOL0     H34588   3.406   2.722   6.927  0.5735 -0.0337 -0.4090
 1020MOL0     H34589   3.439   2.563   6.739  0.1124 -1.5996 -1.0933
 1020MOL0     H34590   3.605   2.527   6.774 -1.9462 -3.1891 -1.3156
 1020MOL0     H34591   3.546   2.442   6.995 -0.2337 -0.3195 -0.6349
 1020MOL0     H34592   3.491   2.347   6.856  2.7437  0.4643 -1.7351
 1020MOL0     H34593   3.228   2.401   6.789 -3.5629  0.6090 -1.0798
 1020MOL0     H34594   2.988   2.487   6.810  1.0719 -1.5218 -0.5310
 1020MOL0     H34595   2.925   2.576   6.958 -1.3277 -1.9301  2.2164
 1020MOL0     H34596   2.938   2.348   7.086  1.3367  0.3775  1.2158
 1020MOL0     H34597   2.954   2.274   6.932  2.6399  0.7844  1.3127
 1020MOL0     H34598   2.716   2.252   6.984  0.2707  0.2569 -2.5050
 1020MOL0     H34599   2.712   2.398   7.075 -1.3589  2.4365 -1.5577
 1020MOL0     H34600   2.687   2.336   6.779  0.9320 -2.2982  2.5832
 1020MOL0     H34601   2.732   2.509   6.824 -0.0933  0.8377  0.7347
 1020MOL0     H34602   2.469   2.274   7.070 -0.2968 -0.0284  0.0942
 1020MOL0     H34603   2.350   2.084   7.036  2.5483  0.3037  0.2844
 1020MOL0     H34604   2.240   1.740   6.718  0.0035 -0.1970 -0.0678
 1020MOL0     H34605   2.141   1.532   6.612 -0.5359 -0.7003 -2.8580
 1020MOL0     H34606   1.858   1.464   6.651 -1.7645 -0.3010 -0.0707
 1020MOL0     H34607   1.965   1.364   6.554  0.9284 -0.3373  0.9909
 1020MOL0     H34608   1.771   1.341   6.391 -1.0018  1.5211 -1.7509
 1020MOL0     H34609   1.690   1.469   6.469  0.0337 -1.0350  0.2803
 1020MOL0     H34610   1.568   1.267   6.535 -0.0134 -0.1788  0.3601
 1020MOL0     H34611   1.642   1.347   6.670  2.9926  0.7897  0.9870
 1020MOL0     H34612   1.751   1.109   6.509 -1.5877 -0.2834 -0.5818
 1020MOL0     H34613   1.835   1.177   6.650  1.0854  1.0036 -1.4805
 1020MOL0     H34614   1.686   0.959   6.662 -0.5709  0.1776 -2.1732
 1020MOL0     H34615   1.548   1.054   6.653  0.5533 -5.3993  0.1568
 1020MOL0     H34616   1.610   1.154   6.897  0.9273  1.4187  0.5676
 1020MOL0     H34617   1.756   1.060   6.879  0.0092  1.1937 -0.1596
 1020MOL0     H34618   1.477   0.935   6.853 -2.7705  3.2425  3.3801
 1020MOL0     H34619   1.626   0.843   6.872 -1.8908 -2.3536  3.0734
 1020MOL0     H34620   1.472   0.872   7.076  0.3564 -0.1864 -0.3774
 1020MOL0     H34621   1.502   1.047   7.074  2.2014  1.0639 -2.3918
 1020MOL0     H34622   1.852   1.792   6.427 -0.0366  1.6805  0.0217
 1020MOL0     H34623   1.948   1.996   6.544 -1.2500 -0.4108  0.5616
 1020MOL0     H34624   2.270   2.192   6.623  0.1367 -0.5206 -0.8832
 1020MOL0     H34625   2.434   2.377   6.664  1.9854 -1.1036  0.0927
 1020MOL0     H34626   4.091   3.152   7.357 -1.9180 -0.5635 -2.7668
 1020MOL0     H34627   4.291   3.282   7.430  2.6252 -2.8273 -4.3751
 1020MOL0     H34628   4.743   3.501   7.320  4.0220  1.2852 -3.4180
 1020MOL0     H34629   4.893   3.691   7.309 -0.5291 -0.4414 -0.1631
 1020MOL0     H34630   5.008   3.946   7.410  0.6320  2.1681  1.0323
 1020MOL0     H34631   4.947   4.090   7.336  1.6636 -0.5819 -2.4799
 1020MOL0     H34632   5.075   3.984   7.177 -0.4273  2.3155 -1.3942
 1020MOL0     H34633   4.979   3.833   7.185  2.0417 -0.3961  4.3652
 1020MOL0     H34634   4.855   4.113   7.115 -0.6764 -0.3589  3.3936
 1020MOL0     H34635   4.777   3.964   7.117 -0.6674  2.5460 -1.8447
 1020MOL0     H34636   5.012   4.015   6.934 -0.2171 -1.4537 -0.9480
 1020MOL0     H34637   4.904   3.888   6.907 -3.3732 -0.8704  1.1313
 1020MOL0     H34638   4.705   4.230   6.743  0.7695 -1.2557 -3.2549
 1020MOL0     H34639   4.539   3.942   7.422  1.5302  0.2037  0.0397
 1020MOL0     H34640   4.401   3.761   7.392  0.1571  0.7571 -1.5701
 1021MOL0     O34641   8.398   1.936   3.598 -0.4358  0.6469 -1.2065
 1021MOL0     C34642   8.399   2.054   3.554  0.2318 -0.3009 -0.5138
 1021MOL0     O34643   8.286   2.113   3.495  0.6667 -0.6288  0.0430
 1021MOL0     C34644   8.173   2.053   3.455  1.4791 -0.2009 -1.1666
 1021MOL0     C34645   8.057   2.089   3.527  0.5313  0.1194 -0.0128
 1021MOL0     C34646   7.937   2.033   3.491 -0.0861  0.5172 -0.1310
 1021MOL0     C34647   7.928   1.939   3.381 -0.6924 -0.8386  0.3093
 1021MOL0     O34648   7.800   1.890   3.349 -0.1694  0.3837 -0.2320
 1021MOL0     C34649   7.793   1.759   3.289 -0.3664 -0.0791 -0.1513
 1021MOL0     C34650   7.657   1.693   3.322 -0.6482  0.2471  0.4188
 1021MOL0     C34651   7.635   1.701   3.471 -0.4983 -0.8311 -0.2800
 1021MOL0     C34652   7.525   1.595   3.513  0.4386  0.7568  0.4050
 1021MOL0     C34653   7.442   1.658   3.629 -0.5157  0.6833 -0.5312
 1021MOL0     C34654   7.358   1.547   3.681  0.4653  0.6266  0.0496
 1021MOL0     C34655   7.254   1.603   3.772  0.0908 -0.1997 -0.0632
 1021MOL0     C34656   7.171   1.480   3.826  0.3294  0.2547 -0.3891
 1021MOL0     N34657   7.047   1.517   3.902  0.8833 -0.1086  0.3666
 1021MOL0     C34658   6.933   1.584   3.851 -0.3061  0.0338  0.4849
 1021MOL0     C34659   6.870   1.633   3.960 -0.2984  0.2929 -0.1239
 1021MOL0     C34660   6.754   1.731   3.954 -0.8587  0.1966 -0.4912
 1021MOL0     C34661   6.621   1.670   3.966  0.1833  0.2081  1.6388
 1021MOL0     C34662   6.597   1.591   3.834  0.3245 -1.1391  0.8344
 1021MOL0     C34663   6.453   1.581   3.803  0.5658 -0.1299 -0.0319
 1021MOL0     O34664   6.390   1.501   3.914 -0.2378  0.3981  0.9191
 1021MOL0     C34665   6.396   1.363   3.901 -0.7140 -1.2195 -0.1193
 1021MOL0     C34666   6.390   1.290   3.784 -1.0514  0.4301  0.8158
 1021MOL0     C34667   6.385   1.151   3.783 -0.4594  0.3801  0.2793
 1021MOL0     C34668   6.392   1.069   3.900  0.7670 -1.0176 -0.3598
 1021MOL0     C34669   6.381   0.923   3.892  0.6910 -0.1834  0.3551
 1021MOL0     O34670   6.389   0.845   4.000 -0.4759  0.2185  0.0808
 1021MOL0     C34671   6.369   0.713   3.991  0.4931  0.1121 -0.9454
 1021MOL0     C34672   6.252   0.645   3.965  0.9744 -0.7618  0.0318
 1021MOL0     C34673   6.232   0.502   3.967 -0.2728  0.5410  0.4893
 1021MOL0     C34674   6.350   0.436   4.002 -0.6018  0.1155 -0.6845
 1021MOL0     O34675   6.352   0.303   4.006  0.1497 -0.6432 -0.2687
 1021MOL0     C34676   6.285   0.220   3.899  0.3759 -0.4452 -0.2008
 1021MOL0     C34677   6.359   0.194   3.768  0.5052 -0.0453  0.0842
 1021MOL0     C34678   6.435   0.317   3.714  0.6462 -0.5192  0.3526
 1021MOL0     C34679   6.490   0.301   3.581  0.2918 -0.0058 -0.4473
 1021MOL0     C34680   6.544   0.446   3.536  0.1530 -0.8044  0.5165
 1021MOL0     C34681   6.649   0.446   3.426  0.3412  0.1786  0.7492
 1021MOL0     C34682   6.594   0.423   3.291 -0.6395  1.1778  0.3474
 1021MOL0     C34683   6.579   0.553   3.215  0.9280 -0.6544 -0.6956
 1021MOL0    Cl34684   6.434   0.638   3.259 -0.2166 -0.0925  0.1612
 1021MOL0     C34685   6.466   0.495   4.038  0.1754  0.3576 -0.5436
 1021MOL0     C34686   6.470   0.633   4.038 -0.3529 -0.5066  0.7793
 1021MOL0     O34687   6.352   0.879   3.782  0.4711  0.9227  0.7055
 1021MOL0     C34688   6.389   1.142   4.025 -0.8360 -0.2140  0.5238
 1021MOL0     C34689   6.401   1.287   4.017 -0.2424 -0.1342  0.5179
 1021MOL0     N34690   6.941   1.572   4.066  0.0001  0.0540 -0.2942
 1021MOL0     N34691   7.047   1.514   4.034 -0.4901 -0.2784 -0.1434
 1021MOL0     C34692   8.054   1.901   3.308  0.2792  0.6319 -0.3894
 1021MOL0     C34693   8.167   1.962   3.348 -0.7793 -0.3085  0.6213
 1021MOL0     C34694   8.505   2.147   3.593  0.0577  0.1277 -0.2524
 1021MOL0     C34695   8.597   2.110   3.691  0.1799  0.3818 -0.2482
 1021MOL0     C34696   8.703   2.192   3.717  0.0210 -0.3528 -1.0033
 1021MOL0     C34697   8.697   2.327   3.679  0.4637  0.3595  0.4384
 1021MOL0     O34698   8.797   2.421   3.692  0.4083 -0.4685 -0.8446
 1021MOL0     C34699   8.916   2.381   3.754 -0.7844 -0.1398 -0.0181
 1021MOL0     C34700   9.003   2.295   3.659  0.2895  0.4814 -1.2974
 1021MOL0     C34701   9.048   2.379   3.548  0.3240 -0.5937 -0.0014
 1021MOL0     C34702   9.114   2.293   3.430  0.5032  0.1499 -0.8090
 1021MOL0     C34703   9.209   2.376   3.349 -0.7372 -0.0224  0.4171
 1021MOL0     C34704   9.293   2.431   3.275  0.3434 -0.1510 -0.2258
 1021MOL0     C34705   8.599   2.369   3.588 -1.0824 -0.1831  0.4847
 1021MOL0     C34706   8.513   2.273   3.540 -0.7501 -0.4806  0.6089
 1021MOL0     H34707   8.062   2.167   3.602  2.3993  1.2964 -1.2735
 1021MOL0     H34708   7.853   2.054   3.557  1.1423  0.0943  1.6487
 1021MOL0     H34709   7.869   1.684   3.313  2.3929  2.0153 -1.7303
 1021MOL0     H34710   7.793   1.765   3.180 -2.0357  0.1924 -0.1613
 1021MOL0     H34711   7.636   1.593   3.285 -1.2039 -0.7411  3.1374
 1021MOL0     H34712   7.579   1.757   3.281 -0.2579 -0.6041 -1.7340
 1021MOL0     H34713   7.606   1.803   3.496 -0.9837 -1.0773  0.1807
 1021MOL0     H34714   7.729   1.689   3.525  0.4227  1.3506 -1.2731
 1021MOL0     H34715   7.459   1.571   3.429  1.0810 -2.5663  0.6798
 1021MOL0     H34716   7.581   1.502   3.530  1.4693  1.0267 -1.2159
 1021MOL0     H34717   7.385   1.747   3.601 -2.7760  0.1516  1.9288
 1021MOL0     H34718   7.514   1.678   3.709  1.7982 -0.0778 -2.3239
 1021MOL0     H34719   7.426   1.482   3.738 -0.0510 -1.4997 -1.6413
 1021MOL0     H34720   7.318   1.486   3.600  2.5607  0.1553 -0.6814
 1021MOL0     H34721   7.292   1.653   3.862 -0.8909 -0.5417  0.5545
 1021MOL0     H34722   7.185   1.675   3.726 -0.4473  1.0153  2.4289
 1021MOL0     H34723   7.240   1.426   3.892  1.1844  1.2983 -0.4035
 1021MOL0     H34724   7.141   1.405   3.753  0.7427 -0.4578  0.1626
 1021MOL0     H34725   6.914   1.604   3.746 -1.2684  2.0201  0.9963
 1021MOL0     H34726   6.759   1.790   3.862  1.4230  1.0030  0.0909
 1021MOL0     H34727   6.764   1.800   4.039 -0.8203 -1.2980  0.7586
 1021MOL0     H34728   6.555   1.757   3.976 -3.5779 -2.2662  0.3165
 1021MOL0     H34729   6.618   1.602   4.052  0.4798  0.4147  1.8142
 1021MOL0     H34730   6.648   1.648   3.756  0.8855 -2.9050 -0.1369
 1021MOL0     H34731   6.646   1.493   3.836 -0.2362 -1.5094 -1.2352
 1021MOL0     H34732   6.442   1.524   3.710  0.0318 -1.2945  0.7319
 1021MOL0     H34733   6.402   1.675   3.781  3.3606  1.2312 -1.2112
 1021MOL0     H34734   6.394   1.328   3.682  3.1327  0.7664  0.9318
 1021MOL0     H34735   6.384   1.104   3.685 -4.3839 -0.1171  0.3997
 1021MOL0     H34736   6.170   0.705   3.928  1.5587 -0.1655 -0.3102
 1021MOL0     H34737   6.142   0.446   3.941 -0.8574  0.8085  1.8312
 1021MOL0     H34738   6.188   0.264   3.876 -0.0290  0.0641  2.1932
 1021MOL0     H34739   6.260   0.121   3.939 -2.0659 -1.4846 -3.8732
 1021MOL0     H34740   6.285   0.163   3.693  0.9417 -1.0465  0.0500
 1021MOL0     H34741   6.420   0.104   3.781 -2.2729 -1.8514  1.6907
 1021MOL0     H34742   6.519   0.338   3.782 -1.1524  1.5510  2.1006
 1021MOL0     H34743   6.377   0.410   3.718  1.1726 -0.0414 -1.8810
 1021MOL0     H34744   6.572   0.229   3.579 -0.3275 -0.7466 -3.1490
 1021MOL0     H34745   6.421   0.268   3.503  0.7001  0.0201 -0.8303
 1021MOL0     H34746   6.593   0.500   3.617  0.9430 -1.0373  0.2066
 1021MOL0     H34747   6.456   0.494   3.493  1.8187  0.4857 -1.6748
 1021MOL0     H34748   6.717   0.371   3.467 -1.8003 -1.1949  1.9438
 1021MOL0     H34749   6.701   0.543   3.426  1.3790 -0.3600  1.9301
 1021MOL0     H34750   6.671   0.370   3.234 -0.9650  0.8636  0.1968
 1021MOL0     H34751   6.500   0.367   3.288 -0.5781  1.0572  0.6446
 1021MOL0     H34752   6.576   0.529   3.108  0.5177  1.4005 -1.1900
 1021MOL0     H34753   6.669   0.615   3.224  3.0166 -3.6239  1.0794
 1021MOL0     H34754   6.556   0.442   4.066 -2.3044 -5.1101 -1.7425
 1021MOL0     H34755   6.569   0.674   4.055  0.6502 -1.2835 -2.3368
 1021MOL0     H34756   6.392   1.091   4.120  0.3164 -1.1712  0.0028
 1021MOL0     H34757   6.407   1.352   4.103 -0.1411  1.0029 -0.3277
 1021MOL0     H34758   8.070   1.831   3.227  1.9552  1.5723 -0.9111
 1021MOL0     H34759   8.256   1.917   3.304 -1.0550  1.4824 -2.0583
 1021MOL0     H34760   8.590   2.017   3.746  2.6828  1.1953  1.6528
 1021MOL0     H34761   8.771   2.157   3.794 -3.0518  0.1028  2.1924
 1021MOL0     H34762   8.896   2.318   3.841 -1.0573  0.5479  0.4270
 1021MOL0     H34763   8.975   2.462   3.798  3.0522 -3.1182  0.8368
 1021MOL0     H34764   9.084   2.261   3.724  0.6678  0.6595 -1.6752
 1021MOL0     H34765   8.945   2.206   3.631  0.3389 -0.5812  1.6656
 1021MOL0     H34766   9.118   2.460   3.572  2.0098 -0.8071 -3.5199
 1021MOL0     H34767   8.965   2.432   3.499  1.2192  0.1418 -0.7760
 1021MOL0     H34768   9.180   2.212   3.464 -0.0164 -0.2468 -0.7372
 1021MOL0     H34769   9.036   2.241   3.373  2.3044 -1.7575 -1.7080
 1021MOL0     H34770   9.357   2.501   3.224  1.8358 -0.4270  1.1831
 1021MOL0     H34771   8.598   2.464   3.536  2.2581 -0.4626 -0.3445
 1021MOL0     H34772   8.442   2.297   3.461  0.3204 -1.6366 -0.7706
 1022MOL0     O34773   7.878   1.570   8.363  0.4870 -0.1552 -0.5196
 1022MOL0     C34774   7.832   1.478   8.299 -0.8328  0.2118 -0.5830
 1022MOL0     O34775   7.901   1.366   8.266 -0.4840 -0.1628 -0.5225
 1022MOL0     C34776   8.030   1.356   8.312  0.0847 -0.0717  0.3162
 1022MOL0     C34777   8.139   1.344   8.227 -0.5696  0.4585  0.5102
 1022MOL0     C34778   8.269   1.353   8.290  0.9203 -0.3658 -0.1161
 1022MOL0     C34779   8.289   1.339   8.430  0.2710 -0.1674  0.7580
 1022MOL0     O34780   8.413   1.341   8.484 -0.3127  0.0321  0.1895
 1022MOL0     C34781   8.498   1.220   8.450 -0.0030 -0.2001 -0.9644
 1022MOL0     C34782   8.581   1.183   8.562  0.6165 -0.3569  0.2333
 1022MOL0     C34783   8.501   1.105   8.676  0.5799 -0.5367  0.7896
 1022MOL0     C34784   8.594   1.051   8.785 -0.1725  1.2119  0.2864
 1022MOL0     C34785   8.532   0.949   8.870 -0.5740  0.7654 -0.4009
 1022MOL0     C34786   8.465   1.011   8.995  0.2633  0.2759  0.0193
 1022MOL0     C34787   8.363   0.905   9.043  0.4532  1.1822  1.7347
 1022MOL0     C34788   8.325   0.916   9.183  0.2656 -0.5248 -0.7963
 1022MOL0     N34789   8.204   0.843   9.213 -0.2505 -0.4101 -0.6305
 1022MOL0     C34790   8.199   0.716   9.243  0.1576  0.1784 -0.9820
 1022MOL0     C34791   8.078   0.689   9.298  0.1477 -0.7314 -0.1917
 1022MOL0     C34792   8.032   0.553   9.329 -0.2686  0.4546  0.3351
 1022MOL0     C34793   7.991   0.467   9.207 -0.7279 -0.3092 -0.2211
 1022MOL0     C34794   7.947   0.550   9.087 -0.2141  0.9793  0.4335
 1022MOL0     C34795   7.796   0.541   9.065  0.2955 -0.7952 -0.4520
 1022MOL0     O34796   7.749   0.437   8.975 -0.0029  0.4709 -0.6548
 1022MOL0     C34797   7.697   0.318   9.029  0.3326 -0.2223  0.1128
 1022MOL0     C34798   7.571   0.315   9.100 -0.8544 -0.0700  0.1360
 1022MOL0     C34799   7.524   0.194   9.157 -0.0716 -0.9126  0.3672
 1022MOL0     C34800   7.599   0.080   9.149 -0.2648  0.5738  0.1920
 1022MOL0     C34801   7.549  -0.050   9.210 -0.7242 -0.5946  0.3958
 1022MOL0     O34802   7.628  -0.157   9.194 -0.6786 -0.6398  0.1644
 1022MOL0     C34803   7.609  -0.262   9.281  0.5963 -0.5728 -0.2823
 1022MOL0     C34804   7.590  -0.236   9.421 -0.0387  0.6976 -0.1653
 1022MOL0     C34805   7.585  -0.349   9.511  0.2530 -0.2901  0.3204
 1022MOL0     C34806   7.601  -0.477   9.474  0.0201  0.2655  0.5710
 1022MOL0     O34807   7.584  -0.590   9.548  1.0078  0.3084 -0.1117
 1022MOL0     C34808   7.604  -0.569   9.686  0.9078  0.3442  0.0694
 1022MOL0     C34809   7.609  -0.696   9.769 -0.7241  0.0989 -0.7832
 1022MOL0     C34810   7.737  -0.784   9.749 -0.7362 -0.8577 -0.4786
 1022MOL0     C34811   7.862  -0.703   9.761 -0.3288 -0.5499 -0.0242
 1022MOL0     C34812   7.990  -0.790   9.760 -0.4530 -0.7870 -1.1583
 1022MOL0     C34813   8.019  -0.847   9.618 -0.2048  0.2444  0.1118
 1022MOL0     C34814   8.152  -0.911   9.621 -0.1997 -0.3481  0.2509
 1022MOL0     C34815   8.193  -0.970   9.489 -0.1346 -0.0128 -0.4537
 1022MOL0    Cl34816   8.354  -1.056   9.500 -0.1227 -0.1121  0.2759
 1022MOL0     C34817   7.615  -0.504   9.338  0.6028  0.3605  0.0208
 1022MOL0     C34818   7.633  -0.396   9.255 -0.3385  0.8155  0.2577
 1022MOL0     O34819   7.444  -0.047   9.272  0.1338 -0.6394  0.4927
 1022MOL0     C34820   7.723   0.080   9.071 -0.0855 -0.6856  0.0756
 1022MOL0     C34821   7.770   0.197   9.010 -0.4389  0.8813 -0.2148
 1022MOL0     N34822   8.004   0.805   9.317 -0.5638  0.2241 -0.7982
 1022MOL0     N34823   8.083   0.901   9.263 -0.2851 -0.0706  0.9729
 1022MOL0     C34824   8.177   1.326   8.505  0.3825  0.6216 -0.1954
 1022MOL0     C34825   8.048   1.341   8.450 -0.3903  0.0176  0.8509
 1022MOL0     C34826   7.693   1.485   8.254 -1.2197 -0.3216  0.0536
 1022MOL0     C34827   7.626   1.388   8.171 -0.1710  0.8922 -0.4570
 1022MOL0     C34828   7.503   1.415   8.109  0.6409 -0.6493 -0.0758
 1022MOL0     C34829   7.429   1.527   8.136 -0.0296  1.0128  0.1804
 1022MOL0     O34830   7.324   1.578   8.068  0.9506 -0.4510  0.1729
 1022MOL0     C34831   7.310   1.523   7.932  0.1176  0.2756 -0.0434
 1022MOL0     C34832   7.199   1.614   7.870 -0.5630  0.2383  0.5157
 1022MOL0     C34833   7.101   1.669   7.979 -0.4739  0.5700 -0.8904
 1022MOL0     C34834   7.002   1.761   7.906 -0.1068 -0.2352 -0.0874
 1022MOL0     C34835   6.894   1.807   7.993  0.3340  0.3206  0.6326
 1022MOL0     C34836   6.794   1.851   8.048 -0.0348 -0.8128  0.3606
 1022MOL0     C34837   7.478   1.603   8.240  0.9195 -0.4409  0.6561
 1022MOL0     C34838   7.605   1.583   8.292 -0.1366  0.9008 -0.6941
 1022MOL0     H34839   8.133   1.339   8.119 -1.6277  1.7018  0.4944
 1022MOL0     H34840   8.352   1.339   8.222  0.2713  0.1063 -1.0337
 1022MOL0     H34841   8.551   1.236   8.356 -1.8974 -1.3379 -2.3194
 1022MOL0     H34842   8.428   1.136   8.440  2.1195 -2.4192  1.4225
 1022MOL0     H34843   8.647   1.263   8.596 -1.6837  1.2188  1.1578
 1022MOL0     H34844   8.653   1.111   8.521 -0.4208 -0.8842 -0.6951
 1022MOL0     H34845   8.450   1.024   8.623 -0.4823 -0.8306  2.2024
 1022MOL0     H34846   8.427   1.171   8.721 -0.4248 -0.2809 -1.1517
 1022MOL0     H34847   8.669   0.995   8.729  0.1217  0.0569  1.7875
 1022MOL0     H34848   8.651   1.120   8.848 -1.0260  2.0674  0.1462
 1022MOL0     H34849   8.607   0.874   8.898 -0.9495 -0.7903 -3.1225
 1022MOL0     H34850   8.462   0.889   8.810  2.0385  1.1993 -4.2577
 1022MOL0     H34851   8.407   1.100   8.970 -0.0845 -0.2190 -0.9718
 1022MOL0     H34852   8.544   1.032   9.068  0.7770 -3.0250  0.5507
 1022MOL0     H34853   8.274   0.914   8.980 -0.4656 -0.3359  2.7251
 1022MOL0     H34854   8.392   0.799   9.037  2.1329  1.7058 -2.6110
 1022MOL0     H34855   8.296   1.019   9.208 -0.1295 -0.9331  0.4696
 1022MOL0     H34856   8.409   0.907   9.252 -1.0200 -0.6550  0.8190
 1022MOL0     H34857   8.284   0.649   9.253 -0.5429 -0.3695  2.8251
 1022MOL0     H34858   7.955   0.540   9.407  0.7928 -0.0369  1.3249
 1022MOL0     H34859   8.112   0.495   9.376 -1.8172 -2.1266 -0.0315
 1022MOL0     H34860   7.904   0.411   9.241 -1.7266 -0.1236 -2.3072
 1022MOL0     H34861   8.072   0.398   9.180 -1.7199 -1.2228 -0.9098
 1022MOL0     H34862   7.971   0.656   9.102 -3.2177  1.3193  4.9521
 1022MOL0     H34863   7.993   0.518   8.993 -2.0971  1.5999 -0.7693
 1022MOL0     H34864   7.763   0.631   9.013 -1.0975 -0.0918  1.5125
 1022MOL0     H34865   7.746   0.540   9.162  0.1152  2.3234 -0.4395
 1022MOL0     H34866   7.503   0.398   9.116 -0.7879 -0.1189  0.6875
 1022MOL0     H34867   7.433   0.202   9.215  0.8614  0.5008  1.7189
 1022MOL0     H34868   7.582  -0.139   9.470  1.9383  1.4348 -1.2023
 1022MOL0     H34869   7.562  -0.325   9.614  3.5673 -1.9507  1.6191
 1022MOL0     H34870   7.521  -0.511   9.728 -0.1051 -0.4890 -0.7692
 1022MOL0     H34871   7.686  -0.499   9.708  2.6354 -1.0847 -1.5237
 1022MOL0     H34872   7.525  -0.759   9.738 -0.1659  0.5625 -3.4826
 1022MOL0     H34873   7.602  -0.683   9.877  0.1427 -0.9570 -0.5820
 1022MOL0     H34874   7.732  -0.824   9.647 -1.2248  0.5775 -1.0438
 1022MOL0     H34875   7.744  -0.874   9.810 -0.7318  0.4073  1.4952
 1022MOL0     H34876   7.871  -0.625   9.686  1.1763 -2.4401 -1.9400
 1022MOL0     H34877   7.868  -0.660   9.861  0.3264 -1.2742  0.2554
 1022MOL0     H34878   7.978  -0.863   9.841 -0.2926  0.8619  0.4189
 1022MOL0     H34879   8.072  -0.720   9.777 -0.0548 -1.0139 -2.0951
 1022MOL0     H34880   8.007  -0.764   9.547  0.1639  1.4988  1.4576
 1022MOL0     H34881   7.944  -0.925   9.605  0.8552 -0.4602 -2.2432
 1022MOL0     H34882   8.234  -0.841   9.638  0.9252 -2.1492  3.0123
 1022MOL0     H34883   8.145  -0.983   9.704  0.4343 -2.7300 -1.6506
 1022MOL0     H34884   8.195  -0.882   9.425 -1.1875 -0.6580 -1.4083
 1022MOL0     H34885   8.118  -1.040   9.449 -0.4728 -0.6731  1.2257
 1022MOL0     H34886   7.639  -0.607   9.314  1.0462  0.5039 -0.1738
 1022MOL0     H34887   7.661  -0.423   9.153  2.5701  1.6718  0.7465
 1022MOL0     H34888   7.772  -0.015   9.055  1.6792  0.1496  0.3565
 1022MOL0     H34889   7.869   0.192   8.965 -0.6407 -2.3755 -0.5026
 1022MOL0     H34890   8.201   1.291   8.605 -0.7034  1.1245  0.2593
 1022MOL0     H34891   7.963   1.330   8.517 -0.6770 -2.4065  0.1906
 1022MOL0     H34892   7.674   1.301   8.126 -3.5530 -2.3617  1.6816
 1022MOL0     H34893   7.464   1.337   8.045  1.2425 -0.1460 -1.0685
 1022MOL0     H34894   7.267   1.423   7.941  0.3551  0.3783  4.3485
 1022MOL0     H34895   7.402   1.518   7.874 -0.1736  0.7975 -0.5619
 1022MOL0     H34896   7.237   1.704   7.820 -0.8617  0.1310  0.0933
 1022MOL0     H34897   7.149   1.560   7.790 -1.0100 -1.1231  1.6775
 1022MOL0     H34898   7.153   1.734   8.050  1.0178  0.4516 -1.8366
 1022MOL0     H34899   7.057   1.582   8.029  1.4563  0.3498  0.5692
 1022MOL0     H34900   7.052   1.845   7.856 -0.5377 -1.3098 -2.4705
 1022MOL0     H34901   6.955   1.712   7.820 -0.5846 -0.8627  0.5222
 1022MOL0     H34902   6.703   1.898   8.080  1.5172  1.4129  1.8021
 1022MOL0     H34903   7.437   1.703   8.249  0.6801 -0.4241 -0.5175
 1022MOL0     H34904   7.646   1.649   8.367  1.0567 -3.1260  2.5677
 1023MOL0     O34905   1.487   6.309  10.658  0.0093 -0.2289  1.3345
 1023MOL0     C34906   1.437   6.365  10.557  0.2797  0.1510 -0.2315
 1023MOL0     O34907   1.504   6.451  10.465 -0.2864  0.2888  0.0689
 1023MOL0     C34908   1.638   6.472  10.470 -0.2348 -0.7545  0.1331
 1023MOL0     C34909   1.679   6.597  10.514 -1.0597  0.0214 -0.1082
 1023MOL0     C34910   1.813   6.636  10.522  0.0249  0.2939 -0.5923
 1023MOL0     C34911   1.909   6.538  10.496 -0.3378 -0.1025 -0.5992
 1023MOL0     O34912   2.041   6.559  10.524  0.2213 -0.2802  0.2050
 1023MOL0     C34913   2.105   6.692  10.500  0.2413 -0.1025  1.2848
 1023MOL0     C34914   2.254   6.672  10.491  0.2776  0.6046 -0.6456
 1023MOL0     C34915   2.314   6.601  10.619  0.9847  0.2348 -0.6245
 1023MOL0     C34916   2.461   6.566  10.594  0.0477  0.1123  0.0947
 1023MOL0     C34917   2.538   6.515  10.721  0.1537  0.3482 -0.3758
 1023MOL0     C34918   2.526   6.363  10.736 -0.8782  1.1746 -0.0873
 1023MOL0     C34919   2.567   6.319  10.883  0.4154  0.4557  0.6737
 1023MOL0     C34920   2.520   6.180  10.908 -0.3073 -0.2736  0.0009
 1023MOL0     N34921   2.579   6.145  11.039 -0.2636  1.3307 -0.0443
 1023MOL0     C34922   2.628   6.019  11.062  0.1719 -0.1872  0.1765
 1023MOL0     C34923   2.632   6.003  11.196 -0.3429  0.4619 -0.8618
 1023MOL0     C34924   2.678   5.873  11.266  0.1029 -0.5474  0.3049
 1023MOL0     C34925   2.784   5.918  11.369 -0.7514 -0.1628  0.1075
 1023MOL0     C34926   2.915   5.962  11.315  0.0086  0.0997  0.1763
 1023MOL0     C34927   3.017   5.950  11.428  0.8730  0.6293 -0.9710
 1023MOL0     O34928   3.040   5.807  11.453 -0.1487 -0.4786 -0.4886
 1023MOL0     C34929   3.118   5.785  11.564  0.6841 -0.0960 -1.0606
 1023MOL0     C34930   3.205   5.869  11.625 -0.7081 -0.3096  0.0768
 1023MOL0     C34931   3.267   5.845  11.750 -0.2103  0.4731  0.3720
 1023MOL0     C34932   3.247   5.727  11.812 -0.8135  0.4774  0.0787
 1023MOL0     C34933   3.317   5.698  11.939  0.4856 -0.0889 -0.9885
 1023MOL0     O34934   3.433   5.774  11.971  0.0301 -0.2716  0.0737
 1023MOL0     C34935   3.523   5.754  12.075  0.5298  0.8095 -0.4856
 1023MOL0     C34936   3.551   5.632  12.135 -0.3832 -0.0490 -0.4768
 1023MOL0     C34937   3.660   5.613  12.218  1.2929  0.2581 -0.5775
 1023MOL0     C34938   3.740   5.719  12.248 -0.1434  0.9657  0.0180
 1023MOL0     O34939   3.856   5.697  12.309 -0.2961 -1.9285  0.0733
 1023MOL0     C34940   3.874   5.582  12.397  0.5948 -0.4759  0.9240
 1023MOL0     C34941   4.002   5.621  12.475  0.4547 -0.0356  0.1401
 1023MOL0     C34942   4.132   5.654  12.392  0.8659  0.5668  0.4088
 1023MOL0     C34943   4.239   5.718  12.488  0.4153 -0.0514  0.8305
 1023MOL0     C34944   4.317   5.623  12.564 -0.5121  0.2994  0.0689
 1023MOL0     C34945   4.418   5.693  12.662 -0.7761  0.0206 -1.2273
 1023MOL0     C34946   4.550   5.608  12.676  0.9159  0.0876  0.4732
 1023MOL0     C34947   4.519   5.455  12.704  0.1059  0.3495 -0.1881
 1023MOL0    Cl34948   4.437   5.429  12.855 -0.5013 -0.5269  0.4591
 1023MOL0     C34949   3.710   5.842  12.197  0.0862 -0.2676  0.9615
 1023MOL0     C34950   3.607   5.855  12.101 -0.7332  0.0584  0.0380
 1023MOL0     O34951   3.272   5.612  12.015  0.5294 -0.7795 -0.3623
 1023MOL0     C34952   3.164   5.628  11.749 -0.8074 -0.4952 -1.0690
 1023MOL0     C34953   3.106   5.665  11.632  0.3572  0.4441  0.1276
 1023MOL0     N34954   2.607   6.127  11.252 -0.2713 -0.7118 -0.3296
 1023MOL0     N34955   2.587   6.211  11.153 -1.0439 -1.0441  0.5125
 1023MOL0     C34956   1.868   6.414  10.457 -0.8437  0.6093 -0.1840
 1023MOL0     C34957   1.732   6.380  10.439  0.1317  0.8512  0.3217
 1023MOL0     C34958   1.293   6.387  10.554 -0.3543 -0.7624 -0.0465
 1023MOL0     C34959   1.232   6.453  10.448 -0.2171  0.4211  0.8601
 1023MOL0     C34960   1.093   6.470  10.453 -1.1312  0.8066  1.0614
 1023MOL0     C34961   1.007   6.410  10.545  0.2589 -0.7452  1.0007
 1023MOL0     O34962   0.871   6.423  10.531  0.0548  0.5564  0.0499
 1023MOL0     C34963   0.817   6.360  10.417  0.4966  1.0372 -0.2327
 1023MOL0     C34964   0.695   6.430  10.367  0.7639  0.1486  0.3893
 1023MOL0     C34965   0.578   6.423  10.457  1.0732  0.0803 -0.3117
 1023MOL0     C34966   0.467   6.520  10.405 -0.1553  0.1377 -0.3634
 1023MOL0     C34967   0.394   6.602  10.508  0.4616  0.0028 -0.1476
 1023MOL0     C34968   0.339   6.673  10.586 -0.5678 -0.2318  0.2991
 1023MOL0     C34969   1.067   6.327  10.646 -0.6172 -0.1419 -0.0817
 1023MOL0     C34970   1.208   6.328  10.643 -0.1090 -0.6531 -0.5710
 1023MOL0     H34971   1.600   6.669  10.532 -1.3329 -0.0978 -0.7998
 1023MOL0     H34972   1.843   6.731  10.563 -2.5554  1.8293 -2.0096
 1023MOL0     H34973   2.073   6.758  10.582  1.2489  0.2311  1.4229
 1023MOL0     H34974   2.086   6.738  10.403 -1.0779 -0.5570  1.3094
 1023MOL0     H34975   2.308   6.764  10.470  2.6442 -0.2312  1.2761
 1023MOL0     H34976   2.267   6.615  10.399  0.5807  2.5443 -1.8505
 1023MOL0     H34977   2.273   6.503  10.646  2.4494 -1.0619 -2.7250
 1023MOL0     H34978   2.304   6.674  10.699  3.9627 -0.2937  0.3717
 1023MOL0     H34979   2.472   6.497  10.510  0.2230 -0.3362  0.4805
 1023MOL0     H34980   2.506   6.663  10.569 -1.8015  0.1763 -3.6640
 1023MOL0     H34981   2.487   6.560  10.806  2.0532  0.5320  0.7244
 1023MOL0     H34982   2.638   6.558  10.721 -0.2226  1.2553  0.5764
 1023MOL0     H34983   2.591   6.318  10.661 -2.9293  3.0185 -3.1916
 1023MOL0     H34984   2.426   6.324  10.713  0.3403 -2.9147  0.7107
 1023MOL0     H34985   2.675   6.310  10.871  0.4080  0.3039  0.7243
 1023MOL0     H34986   2.525   6.397  10.948  2.5382  1.2630  1.1787
 1023MOL0     H34987   2.575   6.121  10.833  3.6370  2.5328  0.3666
 1023MOL0     H34988   2.412   6.182  10.893  0.1447 -0.3784 -5.2659
 1023MOL0     H34989   2.654   5.941  10.992  0.2673 -0.4243  0.4754
 1023MOL0     H34990   2.732   5.802  11.202  1.9900  0.2313  0.9520
 1023MOL0     H34991   2.592   5.829  11.317 -1.2104  1.5219 -0.0264
 1023MOL0     H34992   2.791   5.821  11.420 -0.8504 -0.1211  0.2000
 1023MOL0     H34993   2.750   6.001  11.432  0.2188  1.0437 -0.9111
 1023MOL0     H34994   2.942   5.902  11.227 -1.6601 -2.2192  1.1616
 1023MOL0     H34995   2.906   6.069  11.293  0.2084 -0.4549 -3.2845
 1023MOL0     H34996   2.982   5.998  11.520  1.4352  1.3723 -1.1288
 1023MOL0     H34997   3.111   5.988  11.385  1.8586 -3.3395 -2.7014
 1023MOL0     H34998   3.228   5.957  11.566 -2.0366 -0.9227 -1.4199
 1023MOL0     H34999   3.336   5.924  11.776 -1.7776  2.2992 -0.7741
 1023MOL0     H35000   3.490   5.545  12.113 -0.0616 -0.1099 -1.1436
 1023MOL0     H35001   3.671   5.513  12.259 -0.9141 -0.8390 -2.4461
 1023MOL0     H35002   3.879   5.483  12.352  0.8267 -0.0651  0.0215
 1023MOL0     H35003   3.802   5.574  12.479  1.9220  1.1026  2.3208
 1023MOL0     H35004   4.019   5.541  12.547  0.0458  0.6397  1.0058
 1023MOL0     H35005   3.974   5.715  12.524  0.4527  1.1317 -1.9531
 1023MOL0     H35006   4.106   5.724  12.312  4.0667  1.7840  0.3017
 1023MOL0     H35007   4.167   5.560  12.350  0.7532  0.7177 -0.0317
 1023MOL0     H35008   4.302   5.767  12.412  2.0906 -0.2357  2.0374
 1023MOL0     H35009   4.220   5.805  12.552  3.8764  0.7006  1.0424
 1023MOL0     H35010   4.364   5.548  12.501 -3.1392 -1.3778 -0.0360
 1023MOL0     H35011   4.239   5.576  12.624  0.8824 -1.4286  0.6121
 1023MOL0     H35012   4.366   5.720  12.755 -1.7465 -2.7730 -0.8671
 1023MOL0     H35013   4.450   5.781  12.606  0.0690  1.4957  1.4326
 1023MOL0     H35014   4.596   5.605  12.577 -2.6585 -0.8838 -1.3506
 1023MOL0     H35015   4.623   5.653  12.743  0.2767  0.8559  0.6754
 1023MOL0     H35016   4.611   5.397  12.703  0.3762  0.6857  1.6466
 1023MOL0     H35017   4.464   5.410  12.621  0.2615 -0.9794  0.4106
 1023MOL0     H35018   3.765   5.933  12.221 -0.5411  0.1771  0.7425
 1023MOL0     H35019   3.604   5.940  12.034  0.9839 -0.4810 -0.7705
 1023MOL0     H35020   3.138   5.543  11.811 -1.5481  1.6829  1.8361
 1023MOL0     H35021   3.048   5.585  11.589  2.5262 -0.0105 -2.1851
 1023MOL0     H35022   1.953   6.349  10.440 -0.5844  1.2744 -1.5866
 1023MOL0     H35023   1.703   6.280  10.405  1.3900  0.2075  1.0688
 1023MOL0     H35024   1.288   6.483  10.360  2.9436 -1.4497  2.0576
 1023MOL0     H35025   1.057   6.529  10.370 -1.4919 -2.2339 -1.1385
 1023MOL0     H35026   0.785   6.263  10.456 -1.1026  2.2330  1.6263
 1023MOL0     H35027   0.876   6.353  10.325  0.4547 -0.6757 -0.1655
 1023MOL0     H35028   0.722   6.535  10.354  5.7414 -1.0122 -0.4877
 1023MOL0     H35029   0.661   6.387  10.273  2.4407 -2.8212  0.9963
 1023MOL0     H35030   0.593   6.450  10.562  1.0458 -3.0686  0.6062
 1023MOL0     H35031   0.542   6.320  10.464 -2.6665  1.2985  0.8201
 1023MOL0     H35032   0.520   6.590  10.340 -1.2477  1.2667 -0.0683
 1023MOL0     H35033   0.392   6.470  10.344 -0.9209  0.4351  0.3169
 1023MOL0     H35034   0.288   6.742  10.650 -2.0198 -1.6631  0.7412
 1023MOL0     H35035   1.014   6.275  10.725  0.6961  2.1183  2.4839
 1023MOL0     H35036   1.263   6.272  10.718 -0.4021  0.3782  0.4422
 1024MOL0     O35037   3.283  10.038   1.244  0.1182 -0.2230 -0.0419
 1024MOL0     C35038   3.379  10.026   1.173 -0.4556 -0.2774 -1.1077
 1024MOL0     O35039   3.508   9.986   1.219  0.2296 -0.5848  0.3940
 1024MOL0     C35040   3.534   9.922   1.334 -0.2297  0.9338  0.0124
 1024MOL0     C35041   3.443   9.852   1.402 -0.1678  1.7914  0.0523
 1024MOL0     C35042   3.466   9.786   1.530 -0.0048 -0.9227 -0.5071
 1024MOL0     C35043   3.599   9.808   1.591  0.3787 -1.2766  0.2392
 1024MOL0     O35044   3.641   9.760   1.715  0.4203  0.3604  0.0578
 1024MOL0     C35045   3.569   9.647   1.767 -0.4802  1.0275 -0.1441
 1024MOL0     C35046   3.613   9.622   1.911 -0.8067 -0.1312  0.0220
 1024MOL0     C35047   3.535   9.704   2.023 -0.6353 -0.4594  0.4172
 1024MOL0     C35048   3.556   9.855   2.014  0.5624  0.4012 -0.0765
 1024MOL0     C35049   3.424   9.918   1.959 -0.5936 -0.5126  0.0524
 1024MOL0     C35050   3.436  10.064   1.917 -0.8696 -0.9325 -0.5913
 1024MOL0     C35051   3.520  10.085   1.786 -0.1331 -0.7401  0.2676
 1024MOL0     C35052   3.553  10.233   1.751 -0.9010  0.2422  1.2615
 1024MOL0     N35053   3.580  10.249   1.610  0.1429  0.0537  1.4075
 1024MOL0     C35054   3.488  10.285   1.512  0.0004  0.3425  0.4567
 1024MOL0     C35055   3.557  10.286   1.398  0.0084 -0.9028  0.4156
 1024MOL0     C35056   3.496  10.329   1.269  0.0874  0.6771 -0.0235
 1024MOL0     C35057   3.505  10.482   1.252 -0.4865 -0.2769 -0.9090
 1024MOL0     C35058   3.651  10.536   1.255  0.4001 -0.8035  0.3143
 1024MOL0     C35059   3.675  10.645   1.148 -0.4651 -0.7710 -0.4720
 1024MOL0     O35060   3.665  10.612   1.007  0.2544  0.8732  0.1206
 1024MOL0     C35061   3.787  10.581   0.934  0.8705  0.6287  0.3186
 1024MOL0     C35062   3.779  10.609   0.798 -0.2422  0.0381 -0.1072
 1024MOL0     C35063   3.887  10.586   0.721  0.5194  0.2083 -0.2628
 1024MOL0     C35064   4.009  10.535   0.767 -0.0305 -0.0234  0.2508
 1024MOL0     C35065   4.120  10.506   0.671 -0.1018 -0.1223 -0.6662
 1024MOL0     O35066   4.105  10.540   0.544 -0.0483  0.5119 -0.7989
 1024MOL0     C35067   4.207  10.501   0.466  0.1042  1.0791 -0.2903
 1024MOL0     C35068   4.327  10.564   0.462 -0.6063 -0.4828 -0.0214
 1024MOL0     C35069   4.426  10.536   0.373 -0.2212 -0.4235  0.4760
 1024MOL0     C35070   4.398  10.456   0.255 -0.4321  0.3598 -0.1877
 1024MOL0     O35071   4.485  10.435   0.149 -0.0171  0.3068  0.8139
 1024MOL0     C35072   4.622  10.393   0.178  0.3132  0.5284 -0.4506
 1024MOL0     C35073   4.704  10.411   0.059 -0.6540  0.0266  1.3432
 1024MOL0     C35074   4.731  10.558   0.013 -0.0546 -0.0269  0.0908
 1024MOL0     C35075   4.837  10.563  -0.096  0.9255 -0.3495  0.3951
 1024MOL0     C35076   4.856  10.705  -0.153 -0.8381 -0.9667  0.2863
 1024MOL0     C35077   4.954  10.699  -0.271  0.0293 -0.1814 -0.2334
 1024MOL0     C35078   4.974  10.838  -0.326 -0.4291  0.2172 -0.0075
 1024MOL0     C35079   5.094  10.830  -0.430 -1.0371 -0.3493  0.1819
 1024MOL0    Cl35080   5.157  10.989  -0.461  0.0653 -0.2938 -0.0504
 1024MOL0     C35081   4.270  10.408   0.238  0.2251 -0.5938 -0.5757
 1024MOL0     C35082   4.175  10.423   0.347 -0.0002  0.1629 -0.1133
 1024MOL0     O35083   4.218  10.445   0.716  0.0759  0.6434  0.1997
 1024MOL0     C35084   4.023  10.503   0.913  0.0468  1.2373  0.2336
 1024MOL0     C35085   3.903  10.528   0.987 -0.5777 -0.3904 -0.0376
 1024MOL0     N35086   3.686  10.241   1.422 -0.2130 -0.4554 -0.0779
 1024MOL0     N35087   3.700  10.219   1.547  0.6852 -1.3915 -0.3574
 1024MOL0     C35088   3.699   9.883   1.523  0.3190 -0.3672 -0.1946
 1024MOL0     C35089   3.659   9.938   1.392 -0.5055 -0.1965  0.4064
 1024MOL0     C35090   3.365  10.090   1.042  0.1151 -0.0877 -0.8238
 1024MOL0     C35091   3.456  10.056   0.940 -0.4217  0.6241  0.4894
 1024MOL0     C35092   3.446  10.106   0.820  0.4699 -0.9214  0.9916
 1024MOL0     C35093   3.338  10.193   0.785 -0.5428 -0.6695 -0.3461
 1024MOL0     O35094   3.317  10.248   0.663  0.0311 -0.5756  0.1808
 1024MOL0     C35095   3.405  10.214   0.557 -0.4235  1.4249 -0.7884
 1024MOL0     C35096   3.372  10.300   0.440  0.3775 -0.1989  0.2443
 1024MOL0     C35097   3.377  10.449   0.453  0.3552  0.8410  0.2913
 1024MOL0     C35098   3.518  10.506   0.482 -1.0284  0.8125 -0.3060
 1024MOL0     C35099   3.617  10.481   0.381  0.0693  0.9919  0.6371
 1024MOL0     C35100   3.682  10.447   0.286  0.4445 -0.4152  0.5397
 1024MOL0     C35101   3.242  10.219   0.886  0.1010 -0.2225  0.3453
 1024MOL0     C35102   3.255  10.172   1.016 -0.6082  0.3917 -0.9696
 1024MOL0     H35103   3.347   9.824   1.359 -0.2926 -2.2583  2.4747
 1024MOL0     H35104   3.390   9.728   1.581 -0.5371 -1.5812 -1.9976
 1024MOL0     H35105   3.599   9.558   1.712  0.3582 -0.5614  2.6859
 1024MOL0     H35106   3.459   9.648   1.770 -0.5506  0.4096 -1.5740
 1024MOL0     H35107   3.720   9.640   1.924 -0.7137  0.6288 -1.5216
 1024MOL0     H35108   3.595   9.519   1.942  3.1300 -1.4151 -1.2989
 1024MOL0     H35109   3.582   9.670   2.116  3.5410  0.5024 -1.1139
 1024MOL0     H35110   3.429   9.675   2.021 -0.9193  0.3411  1.9808
 1024MOL0     H35111   3.557   9.885   2.120  1.5937  0.2037 -0.0149
 1024MOL0     H35112   3.650   9.887   1.969  1.7154 -1.6912  0.6963
 1024MOL0     H35113   3.341   9.900   2.028 -2.1988  2.7103 -0.8373
 1024MOL0     H35114   3.390   9.856   1.875 -0.6825 -2.1385  1.2282
 1024MOL0     H35115   3.475  10.123   2.000  0.3513 -0.1238 -1.7031
 1024MOL0     H35116   3.334  10.095   1.892 -1.2668 -1.3159  0.4803
 1024MOL0     H35117   3.618  10.039   1.803 -1.1146 -2.2956  2.0861
 1024MOL0     H35118   3.468  10.043   1.700 -0.5814 -1.2778  0.7925
 1024MOL0     H35119   3.650  10.256   1.796  1.2957 -2.3588 -1.6547
 1024MOL0     H35120   3.476  10.293   1.799 -0.2321  0.9216  1.5113
 1024MOL0     H35121   3.387  10.320   1.527 -0.7450 -2.3775  2.4204
 1024MOL0     H35122   3.394  10.294   1.250  0.3559  0.6523 -1.6158
 1024MOL0     H35123   3.557  10.280   1.192  0.6951  0.8631  0.3265
 1024MOL0     H35124   3.464  10.526   1.343  3.1162 -1.5545  1.5948
 1024MOL0     H35125   3.464  10.521   1.159 -1.1960 -0.1708 -0.5541
 1024MOL0     H35126   3.667  10.574   1.356  0.4918 -2.8493  1.1152
 1024MOL0     H35127   3.728  10.458   1.249  0.0802 -1.3615  2.4828
 1024MOL0     H35128   3.777  10.679   1.166 -0.8217  0.3673 -0.5239
 1024MOL0     H35129   3.601  10.722   1.167 -0.0503 -1.1472  3.4784
 1024MOL0     H35130   3.689  10.650   0.754  0.0538  1.1931  0.3169
 1024MOL0     H35131   3.886  10.614   0.616 -2.2908 -2.5925 -1.1407
 1024MOL0     H35132   4.355  10.633   0.541 -0.1693 -1.6569  0.8766
 1024MOL0     H35133   4.520  10.588   0.391 -0.8052  0.8807 -0.1095
 1024MOL0     H35134   4.625  10.288   0.207 -0.7581 -1.0764 -5.2392
 1024MOL0     H35135   4.666  10.444   0.264  1.7019  0.8804 -1.3423
 1024MOL0     H35136   4.656  10.373  -0.031 -1.9484  0.5350  1.7948
 1024MOL0     H35137   4.797  10.355   0.069 -0.0310  0.9866  1.0281
 1024MOL0     H35138   4.761  10.615   0.102 -1.7666  0.2914  0.5017
 1024MOL0     H35139   4.636  10.593  -0.030  0.2760 -0.4580 -1.0115
 1024MOL0     H35140   4.937  10.543  -0.058  3.6982  5.2282 -2.5819
 1024MOL0     H35141   4.811  10.496  -0.179 -1.4249  3.1714 -2.0130
 1024MOL0     H35142   4.899  10.755  -0.066 -2.8084 -1.2135  1.4736
 1024MOL0     H35143   4.765  10.760  -0.179 -0.7662 -0.5873  0.8185
 1024MOL0     H35144   4.917  10.643  -0.357 -2.8360  2.0925 -0.6057
 1024MOL0     H35145   5.049  10.668  -0.226  0.3633 -0.8605 -1.3851
 1024MOL0     H35146   4.883  10.868  -0.378  0.8625  2.4752 -1.1136
 1024MOL0     H35147   4.998  10.912  -0.249 -1.0100  2.2444 -1.6772
 1024MOL0     H35148   5.068  10.774  -0.520  3.9511  1.3189 -2.7576
 1024MOL0     H35149   5.185  10.786  -0.387 -0.7970  1.4228  1.6214
 1024MOL0     H35150   4.253  10.337   0.157  1.5666 -5.1090  2.6715
 1024MOL0     H35151   4.074  10.385   0.338 -0.5975  1.2662  1.4094
 1024MOL0     H35152   4.100  10.453   0.971  1.1094  2.0239 -0.4738
 1024MOL0     H35153   3.899  10.489   1.088  2.1760 -1.1056 -0.1476
 1024MOL0     H35154   3.792   9.903   1.576  1.2049 -0.8877 -1.4953
 1024MOL0     H35155   3.726  10.015   1.355  0.8728 -0.6156  1.9101
 1024MOL0     H35156   3.535   9.988   0.968 -0.5157 -0.6779 -2.1407
 1024MOL0     H35157   3.520  10.077   0.746  0.8129  2.4239 -0.1566
 1024MOL0     H35158   3.386  10.109   0.531  1.5186  0.6074  0.8552
 1024MOL0     H35159   3.510  10.223   0.585  0.0500 -0.9127 -1.6459
 1024MOL0     H35160   3.439  10.287   0.355  0.3996  0.5925  0.1322
 1024MOL0     H35161   3.274  10.275   0.398  1.7091 -0.5583 -2.9020
 1024MOL0     H35162   3.306  10.484   0.529  0.7064  3.2501 -0.4117
 1024MOL0     H35163   3.347  10.488   0.355  1.6595  0.1977 -0.3856
 1024MOL0     H35164   3.505  10.615   0.483 -3.1387  0.6372 -1.9496
 1024MOL0     H35165   3.551  10.465   0.578  0.5244 -1.2992 -1.6535
 1024MOL0     H35166   3.745  10.420   0.204  1.0810  2.1943  0.0868
 1024MOL0     H35167   3.164  10.293   0.868 -0.2666 -0.7847 -0.4058
 1024MOL0     H35168   3.177  10.201   1.086 -2.3879 -2.2819 -1.6930
  11.41535  11.41535  11.41535
